FOO
138240
    1MOL0     O    1   5.018   5.871   7.697  0.1259 -0.2456 -0.0319
    1MOL0     C    2   4.933   5.913   7.616 -0.3226  0.0128 -0.0612
    1MOL0     O    3   4.886   5.841   7.511  0.3379 -0.3823 -0.1908
    1MOL0     C    4   4.885   5.702   7.505  0.9960 -0.4799 -0.3790
    1MOL0     C    5   4.917   5.615   7.615  0.0183  0.3700  0.3885
    1MOL0     C    6   4.919   5.481   7.586 -0.1919 -0.8900 -1.0855
    1MOL0     C    7   4.887   5.428   7.459  0.0989 -0.2799  0.1543
    1MOL0     O    8   4.873   5.294   7.422 -0.7813 -0.0886 -0.3371
    1MOL0     C    9   4.959   5.211   7.501  0.9708  1.8366 -0.1460
    1MOL0     C   10   4.975   5.072   7.443 -0.2552 -0.3609  0.1010
    1MOL0     C   11   5.020   5.071   7.293  0.2448  0.3975 -0.6837
    1MOL0     C   12   5.175   5.081   7.286  0.3173 -0.2607 -0.2769
    1MOL0     C   13   5.232   5.013   7.166  0.3317 -1.2050  1.0429
    1MOL0     C   14   5.189   5.088   7.030 -0.6595  0.0187 -0.7781
    1MOL0     C   15   5.271   5.057   6.900 -0.6265 -1.1425 -0.1119
    1MOL0     C   16   5.245   4.920   6.830 -1.0745 -0.1052 -0.4930
    1MOL0     N   17   5.322   4.898   6.707 -0.7574 -0.0338 -0.2977
    1MOL0     C   18   5.350   4.979   6.592 -0.2083 -0.3639 -0.1370
    1MOL0     C   19   5.430   4.889   6.518  0.9775  0.1476 -0.4666
    1MOL0     C   20   5.452   4.908   6.366  0.5455  0.3675 -1.0855
    1MOL0     C   21   5.512   4.793   6.294 -0.1286  0.0874  0.2218
    1MOL0     C   22   5.542   4.817   6.148 -0.2032  0.1830 -0.4083
    1MOL0     C   23   5.664   4.751   6.108 -0.9386  1.0260  1.0844
    1MOL0     O   24   5.695   4.795   5.976  0.1674 -0.1129 -0.1265
    1MOL0     C   25   5.758   4.710   5.887 -0.2472  0.5384  0.3023
    1MOL0     C   26   5.879   4.757   5.820 -1.1630 -0.7880 -0.4117
    1MOL0     C   27   5.957   4.669   5.747 -0.0709  0.0215 -0.4573
    1MOL0     C   28   6.089   4.736   5.696 -0.7201  0.2612  0.0726
    1MOL0     C   29   5.908   4.537   5.721  0.0743  0.1946 -0.2514
    1MOL0     C   30   5.978   4.429   5.649  0.6451 -0.3089  1.2685
    1MOL0     O   31   5.949   4.295   5.681  0.0965 -0.4962 -1.3029
    1MOL0     C   32   6.011   4.181   5.637 -0.5863 -0.2998  0.5812
    1MOL0     C   33   5.944   4.059   5.664  0.4730 -0.1097 -0.1934
    1MOL0     C   34   5.982   3.938   5.600 -0.6891 -0.4701  1.0468
    1MOL0     C   35   6.096   3.943   5.523 -0.1424  0.3729  0.6005
    1MOL0     O   36   6.123   3.826   5.453  0.3311  0.3957 -0.5564
    1MOL0     C   37   6.162   3.847   5.315  0.2801  0.4879 -1.0955
    1MOL0     C   38   6.219   3.717   5.257  0.7951 -0.0553 -0.0907
    1MOL0     C   39   6.263   3.750   5.116  0.8231 -1.3774  0.0383
    1MOL0     C   40   6.337   3.643   5.039 -0.3513 -1.0739  0.6359
    1MOL0     C   41   6.327   3.675   4.892  0.0646  0.6025  0.0630
    1MOL0     C   42   6.392   3.559   4.820  0.1368  0.7212  0.4373
    1MOL0     C   43   6.299   3.433   4.806 -0.0473 -0.7363  0.0136
    1MOL0     C   44   6.379   3.311   4.763 -1.1826  0.3917 -0.7160
    1MOL0    Cl   45   6.279   3.183   4.701 -0.1359  0.2396 -0.1038
    1MOL0     C   46   6.167   4.060   5.504 -0.1229 -0.6604  1.1066
    1MOL0     C   47   6.127   4.183   5.551  0.1640  0.4485 -0.0407
    1MOL0     O   48   6.061   4.465   5.563 -0.2928 -0.5656  0.1269
    1MOL0     C   49   5.785   4.503   5.792 -0.5706  0.2457 -0.3043
    1MOL0     C   50   5.704   4.585   5.870 -1.2383  0.1552  0.2688
    1MOL0     N   51   5.444   4.775   6.581  0.2908  0.9377 -0.0329
    1MOL0     N   52   5.380   4.775   6.692 -0.3107 -0.3110 -0.7551
    1MOL0     C   53   4.845   5.522   7.362  0.8440 -1.2610 -0.4032
    1MOL0     C   54   4.840   5.659   7.385 -0.1194  0.0088 -0.6233
    1MOL0     C   55   4.872   6.046   7.639 -0.4876  0.8390  0.9251
    1MOL0     C   56   4.816   6.137   7.544  0.3900  0.4823 -0.1288
    1MOL0     C   57   4.752   6.249   7.584  1.6725 -0.3839 -0.3423
    1MOL0     C   58   4.744   6.285   7.725  0.3585  0.0647  0.6982
    1MOL0     O   59   4.681   6.391   7.776 -0.9514 -0.0344  0.0411
    1MOL0     C   60   4.580   6.457   7.694 -0.8608  0.0204  0.0869
    1MOL0     C   61   4.636   6.592   7.644 -0.7339 -1.0648  0.0147
    1MOL0     C   62   4.517   6.672   7.598 -0.0021  0.2929 -0.2178
    1MOL0     C   63   4.561   6.809   7.542  0.3140  0.6368  0.0153
    1MOL0     C   64   4.599   6.903   7.650 -0.3145 -0.3722 -0.1832
    1MOL0     C   65   4.633   6.982   7.743  1.0424  0.0108  0.3508
    1MOL0     C   66   4.826   6.212   7.810  0.9438  0.3212 -0.0360
    1MOL0     C   67   4.882   6.096   7.769  0.1969  0.0591  0.4647
    1MOL0     H   68   4.946   5.662   7.708  0.9536  3.3342 -1.2650
    1MOL0     H   69   4.941   5.410   7.664  0.0818 -2.1961 -2.3123
    1MOL0     H   70   5.053   5.260   7.526  1.4569  1.3843 -1.0495
    1MOL0     H   71   4.911   5.188   7.596 -0.6137  0.7454 -1.1593
    1MOL0     H   72   5.046   5.013   7.502 -0.2631 -0.7227 -0.2471
    1MOL0     H   73   4.879   5.018   7.443 -0.9792  0.8468 -1.1021
    1MOL0     H   74   4.982   4.976   7.253 -0.9136  0.9860 -1.0412
    1MOL0     H   75   4.965   5.149   7.240 -0.5348  3.4817  4.0714
    1MOL0     H   76   5.201   5.187   7.289 -1.1292  0.2035 -1.9646
    1MOL0     H   77   5.226   5.039   7.373 -2.7356 -1.2918  1.1578
    1MOL0     H   78   5.341   5.011   7.177  0.5486 -1.8899 -0.7755
    1MOL0     H   79   5.198   4.909   7.166 -1.2087 -0.7358 -0.0823
    1MOL0     H   80   5.087   5.077   6.994 -0.2991  2.5088 -2.9398
    1MOL0     H   81   5.198   5.194   7.059  0.4140 -0.7810  2.2028
    1MOL0     H   82   5.247   5.138   6.831  0.5768 -0.7676 -0.1176
    1MOL0     H   83   5.377   5.075   6.923 -0.8883 -0.0139  0.2787
    1MOL0     H   84   5.136   4.918   6.829 -1.0750 -0.1984 -0.2841
    1MOL0     H   85   5.283   4.845   6.900 -0.3628  1.9624  1.4638
    1MOL0     H   86   5.313   5.079   6.572  1.8473  0.1166 -1.9160
    1MOL0     H   87   5.357   4.941   6.322  0.4312 -0.5512 -1.5391
    1MOL0     H   88   5.528   4.987   6.363 -0.8694  1.7826 -1.1555
    1MOL0     H   89   5.455   4.700   6.304 -0.8025  0.4838  0.0668
    1MOL0     H   90   5.612   4.776   6.337  1.3661 -0.2619 -3.0451
    1MOL0     H   91   5.561   4.923   6.130  0.5814  0.2920  0.8916
    1MOL0     H   92   5.458   4.786   6.086 -1.3583 -0.0191  1.1711
    1MOL0     H   93   5.648   4.643   6.118 -0.0523  0.8405  0.5965
    1MOL0     H   94   5.744   4.775   6.177  1.7227 -0.7007 -1.1985
    1MOL0     H   95   5.915   4.858   5.836 -0.1417 -1.5126  2.2710
    1MOL0     H   96   6.139   4.663   5.632 -0.4213 -0.9850  1.6673
    1MOL0     H   97   6.067   4.829   5.643 -3.2176  0.8315  1.9050
    1MOL0     H   98   6.167   4.747   5.772  0.1458  1.9597 -0.9956
    1MOL0     H   99   5.851   4.064   5.720  0.2108  0.6588 -0.6811
    1MOL0     H  100   5.922   3.849   5.618  0.6490 -1.7737 -0.5892
    1MOL0     H  101   6.076   3.878   5.255  0.4987  0.8887 -1.2019
    1MOL0     H  102   6.236   3.925   5.295 -1.1869  2.2481  0.0236
    1MOL0     H  103   6.310   3.698   5.315 -2.6239 -1.0476  5.6552
    1MOL0     H  104   6.160   3.625   5.255  1.7576 -0.7115 -3.0961
    1MOL0     H  105   6.319   3.844   5.117 -3.8833  1.8033  0.3832
    1MOL0     H  106   6.172   3.763   5.057  0.6656  0.0596  0.5667
    1MOL0     H  107   6.439   3.623   5.075 -0.3518  0.2701  1.4491
    1MOL0     H  108   6.282   3.552   5.062 -0.2133 -0.7549  2.3039
    1MOL0     H  109   6.385   3.762   4.859  0.2679  0.5026  0.1550
    1MOL0     H  110   6.223   3.688   4.860  1.2059  2.9006 -3.4105
    1MOL0     H  111   6.406   3.589   4.716  0.3266  4.5047  1.4279
    1MOL0     H  112   6.485   3.532   4.872 -1.2446  1.3801  3.4885
    1MOL0     H  113   6.220   3.455   4.733 -0.8281 -3.5897 -0.1407
    1MOL0     H  114   6.242   3.418   4.898 -1.4287  3.2329 -0.0236
    1MOL0     H  115   6.425   3.267   4.852 -0.9221 -1.5145 -1.7353
    1MOL0     H  116   6.458   3.345   4.695  2.8480 -4.1892  1.0151
    1MOL0     H  117   6.237   4.072   5.422 -2.0236  1.1887 -0.3747
    1MOL0     H  118   6.186   4.266   5.513  2.3968 -2.6380 -4.0711
    1MOL0     H  119   5.757   4.398   5.804 -3.2612  0.9875  0.7454
    1MOL0     H  120   5.611   4.559   5.919 -0.5544  2.4963  3.1065
    1MOL0     H  121   4.815   5.475   7.269  1.9985  1.9733 -2.5720
    1MOL0     H  122   4.812   5.737   7.314 -1.1711  0.6362  0.4489
    1MOL0     H  123   4.809   6.118   7.438 -0.5815 -0.1568  0.0373
    1MOL0     H  124   4.703   6.310   7.508 -1.8545 -0.7129  1.4458
    1MOL0     H  125   4.548   6.396   7.609 -1.2804  1.9524 -1.2091
    1MOL0     H  126   4.480   6.469   7.736 -0.7168  2.7099 -0.1642
    1MOL0     H  127   4.716   6.570   7.573 -1.9928 -2.5989 -1.0246
    1MOL0     H  128   4.686   6.644   7.725 -0.8526  0.7419 -1.0319
    1MOL0     H  129   4.440   6.677   7.675  0.9051  2.6926  0.6317
    1MOL0     H  130   4.482   6.611   7.514  2.3814 -0.6341 -0.6054
    1MOL0     H  131   4.489   6.845   7.468  1.5059 -1.1387 -2.1580
    1MOL0     H  132   4.656   6.788   7.492  1.4195 -3.4254  3.3084
    1MOL0     H  133   4.667   7.057   7.812 -1.4389  1.0979  0.4952
    1MOL0     H  134   4.816   6.237   7.915  0.6004  2.4015 -0.5240
    1MOL0     H  135   4.935   6.039   7.845  1.1600 -0.1563 -0.3554
    2MOL0     O  136   3.866   9.922   2.979  0.0443  0.0918  0.0853
    2MOL0     C  137   3.852  10.046   3.001 -0.7707 -0.0708  0.8145
    2MOL0     O  138   3.737  10.115   3.011  0.0185  0.4802  0.0158
    2MOL0     C  139   3.629  10.033   2.999  0.0515  0.1131  0.4225
    2MOL0     C  140   3.573  10.035   2.868 -0.0297 -0.1816 -0.4111
    2MOL0     C  141   3.456   9.955   2.846 -0.2036 -0.5174  0.2795
    2MOL0     C  142   3.390   9.887   2.950  0.8376 -0.1583  0.2926
    2MOL0     O  143   3.280   9.808   2.918 -0.0788  0.6475  0.0724
    2MOL0     C  144   3.176   9.767   3.013  0.1545 -0.5478 -0.3742
    2MOL0     C  145   3.040   9.813   2.955 -1.5474 -0.2776 -0.9192
    2MOL0     C  146   2.935   9.717   2.990 -0.9586 -0.2344 -0.8690
    2MOL0     C  147   2.814   9.743   2.892  0.0562 -0.8437 -0.6607
    2MOL0     C  148   2.711   9.637   2.927  0.0848 -0.0006 -0.6745
    2MOL0     C  149   2.634   9.676   3.049  0.1458  0.6598  0.8741
    2MOL0     C  150   2.575   9.554   3.125 -0.8537 -0.5234  0.1344
    2MOL0     C  151   2.486   9.467   3.040 -0.2781  0.4299  0.5848
    2MOL0     N  152   2.453   9.345   3.107  0.4292  1.6639 -0.0831
    2MOL0     C  153   2.359   9.315   3.209  0.0614  0.1916  0.9032
    2MOL0     C  154   2.380   9.183   3.237 -0.5967 -0.5346 -0.5584
    2MOL0     C  155   2.302   9.085   3.326  0.0482  0.0287  0.6024
    2MOL0     C  156   2.159   9.132   3.335 -0.5897  0.4245 -0.0782
    2MOL0     C  157   2.074   9.143   3.201  0.1550 -0.2090  1.2905
    2MOL0     C  158   2.055   9.006   3.129  0.1067  0.2588 -0.3939
    2MOL0     O  159   2.019   8.904   3.230 -0.5871 -0.4878 -0.8663
    2MOL0     C  160   1.886   8.893   3.264  0.2977 -0.1873  0.9355
    2MOL0     C  161   1.865   8.816   3.377 -0.2555  0.2476  0.8298
    2MOL0     C  162   1.735   8.774   3.406  0.7161 -0.0410  0.8786
    2MOL0     C  163   1.725   8.669   3.514 -0.0871 -0.0963  0.5646
    2MOL0     C  164   1.621   8.816   3.337  0.5831 -0.2483  0.7398
    2MOL0     C  165   1.474   8.775   3.369  0.2071 -0.2620 -0.2542
    2MOL0     O  166   1.445   8.753   3.494  0.9118 -0.1741  0.3544
    2MOL0     C  167   1.321   8.724   3.546  0.0218  0.2098  0.0135
    2MOL0     C  168   1.324   8.725   3.682 -0.3412 -0.8138  0.3155
    2MOL0     C  169   1.202   8.697   3.758  0.0798 -1.0584 -0.1868
    2MOL0     C  170   1.089   8.650   3.698  0.4490  0.3803  0.4558
    2MOL0     O  171   0.979   8.624   3.774 -0.2195 -0.8715 -0.1356
    2MOL0     C  172   0.852   8.600   3.705 -0.3658 -0.4206 -0.9891
    2MOL0     C  173   0.744   8.580   3.798 -0.9342 -0.5272  0.2618
    2MOL0     C  174   0.734   8.439   3.848  0.4278  0.0107  0.9041
    2MOL0     C  175   0.662   8.343   3.747 -0.0484  0.3006  0.2729
    2MOL0     C  176   0.732   8.205   3.777 -0.2004  0.8032  0.3038
    2MOL0     C  177   0.669   8.100   3.690 -0.7406 -0.0391 -0.2238
    2MOL0     C  178   0.714   7.961   3.726 -0.2467 -0.4345  0.2033
    2MOL0     C  179   0.666   7.868   3.607  0.1794 -0.2974  0.2073
    2MOL0    Cl  180   0.748   7.711   3.630  0.1410 -0.0685 -0.1247
    2MOL0     C  181   1.088   8.642   3.560  0.3158  0.1843 -0.2235
    2MOL0     C  182   1.199   8.689   3.478 -0.1505 -0.0652  0.6553
    2MOL0     O  183   1.396   8.771   3.274  0.3889 -0.3900  0.2839
    2MOL0     C  184   1.639   8.902   3.229  0.1456 -0.2832 -0.4043
    2MOL0     C  185   1.768   8.937   3.192  1.0914 -0.1008  0.8444
    2MOL0     N  186   2.497   9.142   3.169  0.3861 -1.1315  0.3610
    2MOL0     N  187   2.534   9.236   3.083  0.7426 -0.5408 -0.4011
    2MOL0     C  188   3.452   9.900   3.076 -0.2959  1.5029  0.0911
    2MOL0     C  189   3.569   9.974   3.104  0.2274  0.5312 -0.4884
    2MOL0     C  190   3.982  10.118   3.041  0.6309  0.6750 -0.3819
    2MOL0     C  191   3.987  10.260   3.050  0.9951 -0.8417 -0.3304
    2MOL0     C  192   4.111  10.322   3.068 -0.1853  0.0207  0.1580
    2MOL0     C  193   4.235  10.251   3.061 -0.1027 -0.0191 -0.6778
    2MOL0     O  194   4.353  10.326   3.075 -0.1877  0.9741  0.1476
    2MOL0     C  195   4.477  10.286   3.003  0.2791  0.0328 -0.1748
    2MOL0     C  196   4.584  10.236   3.103  0.2848 -0.0599  0.0738
    2MOL0     C  197   4.698  10.173   3.016  1.0801 -1.2669  0.3081
    2MOL0     C  198   4.695  10.019   3.014  0.0750  0.3902 -0.3679
    2MOL0     C  199   4.574   9.953   2.952  0.2251  0.4730  0.3291
    2MOL0     C  200   4.499   9.888   2.886  0.0144 -0.1203 -0.7115
    2MOL0     C  201   4.235  10.112   3.046  0.3542  0.2240  0.8770
    2MOL0     C  202   4.107  10.050   3.043 -0.3503  1.0654  0.1535
    2MOL0     H  203   3.629  10.070   2.782  1.5806 -1.0128  0.2600
    2MOL0     H  204   3.426   9.937   2.744  3.0645 -1.0732 -0.7097
    2MOL0     H  205   3.179   9.658   3.009 -0.6229 -0.7755  3.0538
    2MOL0     H  206   3.184   9.801   3.116 -1.0312  1.5928 -0.9366
    2MOL0     H  207   3.014   9.910   2.999 -0.3380  0.9177 -2.7000
    2MOL0     H  208   3.057   9.834   2.849 -0.8128 -1.0457 -0.9642
    2MOL0     H  209   2.956   9.610   2.993  1.5056  0.1594  2.8591
    2MOL0     H  210   2.908   9.743   3.093 -0.2699  0.3038 -0.8170
    2MOL0     H  211   2.763   9.838   2.904 -0.3316 -1.0240 -0.8781
    2MOL0     H  212   2.830   9.743   2.783 -1.7763  4.8315 -1.2669
    2MOL0     H  213   2.653   9.651   2.836  2.2678  5.1817 -1.6139
    2MOL0     H  214   2.753   9.536   2.937 -2.5830 -0.9974  2.6096
    2MOL0     H  215   2.693   9.733   3.121 -0.6815  0.7860  1.4649
    2MOL0     H  216   2.545   9.735   3.027 -1.1312 -0.0860  3.6040
    2MOL0     H  217   2.663   9.498   3.159  1.2081  2.8377  0.8458
    2MOL0     H  218   2.515   9.581   3.212  0.0178  1.0715  0.2823
    2MOL0     H  219   2.535   9.448   2.944 -0.4855  3.4156 -0.2160
    2MOL0     H  220   2.391   9.522   3.030 -0.8159  0.6997  5.3061
    2MOL0     H  221   2.269   9.367   3.241 -1.1534 -1.8212  0.9619
    2MOL0     H  222   2.320   8.980   3.302  2.4655  0.7682 -1.2518
    2MOL0     H  223   2.350   9.098   3.423  0.2050 -0.1248  0.5452
    2MOL0     H  224   2.161   9.231   3.382  1.5504  0.7409 -0.7401
    2MOL0     H  225   2.109   9.062   3.403 -0.2771  0.2996  0.0260
    2MOL0     H  226   2.129   9.211   3.136  1.1082 -0.7683  1.5005
    2MOL0     H  227   1.972   9.180   3.217 -0.9984 -2.0947 -1.0528
    2MOL0     H  228   2.158   8.977   3.107  0.5028  1.4004 -0.1325
    2MOL0     H  229   1.988   9.009   3.042  0.0113  1.0608 -0.3073
    2MOL0     H  230   1.955   8.781   3.427  1.1308  2.0080 -0.2646
    2MOL0     H  231   1.680   8.699   3.609 -2.3922 -0.8644 -0.2276
    2MOL0     H  232   1.668   8.589   3.466  0.5575 -1.2528  1.6493
    2MOL0     H  233   1.819   8.613   3.526  1.3325  1.5057 -2.0349
    2MOL0     H  234   1.414   8.744   3.741  1.1384 -2.5562 -1.2522
    2MOL0     H  235   1.208   8.707   3.866  6.1882  0.2569 -0.2539
    2MOL0     H  236   0.819   8.686   3.646  0.7750 -0.0281 -1.0630
    2MOL0     H  237   0.862   8.513   3.640  2.1151 -1.8914  1.1523
    2MOL0     H  238   0.761   8.646   3.884  0.1056 -1.3868  0.7308
    2MOL0     H  239   0.658   8.622   3.745 -0.0395 -0.2237 -0.9848
    2MOL0     H  240   0.678   8.428   3.942  1.7612 -1.4785  1.5705
    2MOL0     H  241   0.834   8.406   3.876  0.4035 -0.2315  0.7125
    2MOL0     H  242   0.553   8.347   3.757 -0.4837 -0.7663 -2.9997
    2MOL0     H  243   0.688   8.366   3.644  1.1191 -1.1639  0.2043
    2MOL0     H  244   0.718   8.179   3.882 -0.2646 -0.5319 -0.0109
    2MOL0     H  245   0.840   8.206   3.757  0.6934  2.9847  4.2370
    2MOL0     H  246   0.564   8.116   3.716 -0.8327  1.1731 -1.2349
    2MOL0     H  247   0.695   8.118   3.586 -1.5435 -1.4125 -0.6820
    2MOL0     H  248   0.663   7.941   3.820 -2.6983 -3.3333 -1.5808
    2MOL0     H  249   0.823   7.961   3.736 -0.2443 -1.9050  0.3826
    2MOL0     H  250   0.686   7.904   3.506  1.7392 -1.8624 -0.0929
    2MOL0     H  251   0.557   7.862   3.602  0.1547  0.9655 -3.7290
    2MOL0     H  252   1.001   8.610   3.504 -0.7844  2.1796  0.2345
    2MOL0     H  253   1.201   8.692   3.370  0.6984 -0.1747  0.6654
    2MOL0     H  254   1.555   8.954   3.182  2.4441  2.1469 -2.1245
    2MOL0     H  255   1.782   9.013   3.116  1.6738 -0.2587  0.7898
    2MOL0     H  256   3.410   9.830   3.148  0.7628 -2.1827 -2.6054
    2MOL0     H  257   3.613   9.993   3.201 -2.3875  2.9066  0.3855
    2MOL0     H  258   3.893  10.315   3.055  0.6428 -1.5075  1.2355
    2MOL0     H  259   4.114  10.430   3.080 -0.4108  0.0238  0.1771
    2MOL0     H  260   4.452  10.207   2.932 -0.6381  1.7545 -1.8770
    2MOL0     H  261   4.522  10.371   2.949  0.6340 -0.1514 -0.1710
    2MOL0     H  262   4.547  10.169   3.181 -3.5656  0.4629 -1.1080
    2MOL0     H  263   4.633  10.328   3.137  4.6713 -2.0271 -0.2603
    2MOL0     H  264   4.800  10.194   3.050  0.6041  1.1317  0.4630
    2MOL0     H  265   4.686  10.203   2.911 -2.3017  0.5117  1.0747
    2MOL0     H  266   4.695   9.984   3.118 -2.1783 -3.6472 -1.5086
    2MOL0     H  267   4.781   9.983   2.957  0.7473  0.0284  0.8333
    2MOL0     H  268   4.436   9.838   2.814  0.8420 -0.1901 -1.4116
    2MOL0     H  269   4.319  10.043   3.048 -1.6616 -2.3764  0.3354
    2MOL0     H  270   4.097   9.943   3.055  0.9252  0.9684  0.4385
    3MOL0     O  271  10.454   4.391   3.502  0.0470 -0.3893  0.0625
    3MOL0     C  272  10.348   4.448   3.470  0.2805 -0.3239 -0.1914
    3MOL0     O  273  10.333   4.584   3.447 -0.0980 -0.4831 -0.3353
    3MOL0     C  274  10.442   4.668   3.434 -0.3519  1.2051 -0.9254
    3MOL0     C  275  10.431   4.778   3.530  0.5958 -0.4318  0.1312
    3MOL0     C  276  10.537   4.866   3.562  1.2724  0.6773  0.4315
    3MOL0     C  277  10.655   4.844   3.490 -0.4251  0.4082  0.3590
    3MOL0     O  278  10.769   4.917   3.510 -0.0932  0.1723  0.4189
    3MOL0     C  279  10.764   5.048   3.562  0.0275 -0.0819 -0.3205
    3MOL0     C  280  10.800   5.157   3.454 -0.2675  0.7482 -0.8016
    3MOL0     C  281  10.834   5.288   3.500 -1.0443 -0.9127 -0.5155
    3MOL0     C  282  10.972   5.289   3.575 -0.0712 -0.0680 -0.1182
    3MOL0     C  283  11.004   5.414   3.653 -0.8223  0.2688  0.3997
    3MOL0     C  284  11.146   5.397   3.717 -0.9928  0.4599  0.1480
    3MOL0     C  285  11.202   5.534   3.745 -0.3731  0.0393 -0.7313
    3MOL0     C  286  11.150   5.602   3.881 -0.2613  0.4465  0.7797
    3MOL0     N  287  11.121   5.518   3.993 -0.0752  0.6259  0.0628
    3MOL0     C  288  11.206   5.460   4.082  0.2472 -0.0205 -0.7798
    3MOL0     C  289  11.130   5.376   4.156 -0.0192  0.6254  0.6315
    3MOL0     C  290  11.186   5.286   4.267 -0.6803  0.2094 -0.1419
    3MOL0     C  291  11.268   5.378   4.368  0.4925  0.9293  0.4839
    3MOL0     C  292  11.271   5.318   4.504 -0.1912 -0.0685 -0.4756
    3MOL0     C  293  11.307   5.412   4.613  0.2499  0.0823  0.9600
    3MOL0     O  294  11.431   5.476   4.603  0.5687 -0.3809 -0.0456
    3MOL0     C  295  11.523   5.458   4.694 -1.1268 -0.1297 -0.3693
    3MOL0     C  296  11.625   5.554   4.702 -0.2300 -0.5133 -0.1712
    3MOL0     C  297  11.723   5.568   4.799  0.5272  0.9598  0.7465
    3MOL0     C  298  11.802   5.686   4.806  0.1897 -0.1362 -0.4154
    3MOL0     C  299  11.738   5.460   4.885  0.0355  0.2811 -0.2084
    3MOL0     C  300  11.839   5.451   4.998  0.0319 -0.5647  0.3873
    3MOL0     O  301  11.961   5.395   4.955 -0.0299 -0.4949 -0.0185
    3MOL0     C  302  12.064   5.399   5.053 -0.5386 -0.1735  0.1891
    3MOL0     C  303  12.179   5.479   5.033 -0.1353 -0.1047  0.0309
    3MOL0     C  304  12.293   5.470   5.114  0.3247  0.2450  0.0409
    3MOL0     C  305  12.293   5.372   5.221  0.3309 -0.4259 -0.2018
    3MOL0     O  306  12.408   5.365   5.292  0.0184  0.3459 -0.4962
    3MOL0     C  307  12.398   5.348   5.433  0.4289 -0.2032  0.4814
    3MOL0     C  308  12.313   5.441   5.520 -0.4583  0.2668 -0.4275
    3MOL0     C  309  12.232   5.374   5.639 -0.0617 -0.0691  0.0253
    3MOL0     C  310  12.320   5.291   5.724 -0.5655  0.6391 -0.1712
    3MOL0     C  311  12.264   5.216   5.844  0.2945  0.2391  0.1468
    3MOL0     C  312  12.376   5.127   5.923 -0.3429 -0.4448  0.0804
    3MOL0     C  313  12.309   5.042   6.033 -0.0298  0.9084 -0.2795
    3MOL0     C  314  12.405   4.936   6.092  0.0855 -0.3339 -0.8896
    3MOL0    Cl  315  12.556   5.028   6.149  0.1628  0.1861  0.7742
    3MOL0     C  316  12.168   5.311   5.257 -0.0393 -0.3139  0.3348
    3MOL0     C  317  12.063   5.317   5.163 -0.6360 -0.0971  0.5263
    3MOL0     O  318  11.815   5.480   5.115  0.8985 -1.0078  1.3093
    3MOL0     C  319  11.645   5.356   4.882  0.8444 -0.4476 -0.4943
    3MOL0     C  320  11.533   5.361   4.795 -0.2645  0.0374  0.5869
    3MOL0     N  321  11.005   5.372   4.107 -0.2216  0.5361  0.2376
    3MOL0     N  322  11.001   5.466   4.017  0.0234  0.7081  0.1958
    3MOL0     C  323  10.675   4.730   3.408  0.5549 -0.1111 -0.6263
    3MOL0     C  324  10.567   4.639   3.380 -0.5968 -0.1941  0.2263
    3MOL0     C  325  10.227   4.362   3.459  0.1716 -0.0761 -0.9566
    3MOL0     C  326  10.099   4.427   3.481 -0.6900 -0.7240 -1.3650
    3MOL0     C  327   9.985   4.344   3.506  0.6350  0.5676  0.2130
    3MOL0     C  328   9.989   4.206   3.500  0.0900  0.6137  0.6240
    3MOL0     O  329   9.864   4.139   3.501  0.0390  0.1628  0.5821
    3MOL0     C  330   9.870   3.995   3.490 -0.1143 -0.2192  1.0651
    3MOL0     C  331   9.731   3.930   3.515  0.1428  0.0016  0.0943
    3MOL0     C  332   9.698   3.912   3.661 -0.2120  0.4609  0.5103
    3MOL0     C  333   9.741   3.774   3.714  0.5342  0.5314  0.4617
    3MOL0     C  334   9.758   3.773   3.858  0.7251  0.3481 -0.0064
    3MOL0     C  335   9.768   3.796   3.982 -0.5336  0.4508  0.6242
    3MOL0     C  336  10.110   4.147   3.477 -0.7323 -1.0433  0.2290
    3MOL0     C  337  10.227   4.218   3.465  0.0037  0.2053  0.2693
    3MOL0     H  338  10.332   4.794   3.572  0.7963 -2.2823  1.4404
    3MOL0     H  339  10.519   4.943   3.636 -0.6493  2.3765 -1.6509
    3MOL0     H  340  10.663   5.073   3.596 -1.1391 -4.3519  0.0058
    3MOL0     H  341  10.828   5.052   3.651  1.0419  0.3479 -1.0540
    3MOL0     H  342  10.886   5.110   3.407 -1.9531 -1.2566 -2.0624
    3MOL0     H  343  10.725   5.160   3.373  1.6935  0.1049 -2.7278
    3MOL0     H  344  10.844   5.362   3.420  0.0076  0.5829  0.9158
    3MOL0     H  345  10.759   5.330   3.568 -2.3860 -1.0523 -1.8355
    3MOL0     H  346  10.992   5.193   3.623  1.4400  0.0525 -0.4434
    3MOL0     H  347  11.053   5.288   3.501  1.1357 -0.5117  1.1622
    3MOL0     H  348  11.009   5.488   3.573 -0.9646  0.4242  0.5321
    3MOL0     H  349  10.936   5.439   3.735 -3.8629  2.1884 -2.4567
    3MOL0     H  350  11.150   5.332   3.805 -0.5513  1.3288  0.7959
    3MOL0     H  351  11.207   5.350   3.640 -3.0119 -0.9817 -0.6318
    3MOL0     H  352  11.310   5.519   3.759  0.3007  2.1951 -2.8969
    3MOL0     H  353  11.184   5.604   3.663 -0.1353 -0.4468 -1.2040
    3MOL0     H  354  11.052   5.644   3.857 -1.5864 -0.8201  3.5499
    3MOL0     H  355  11.216   5.684   3.910  0.2337  0.8165 -1.2497
    3MOL0     H  356  11.307   5.470   4.120 -0.9843 -1.6909  3.5024
    3MOL0     H  357  11.099   5.246   4.321 -1.7573  0.3660 -1.6820
    3MOL0     H  358  11.245   5.198   4.238  0.8011  0.9538  0.5476
    3MOL0     H  359  11.248   5.485   4.373  1.3958  1.0520  3.3667
    3MOL0     H  360  11.371   5.370   4.335  0.9307 -2.8124  2.1591
    3MOL0     H  361  11.345   5.238   4.505 -1.1244 -0.9716  1.3765
    3MOL0     H  362  11.171   5.288   4.537 -0.0744 -0.1236 -0.1586
    3MOL0     H  363  11.304   5.352   4.704 -0.3504 -0.4993  0.5625
    3MOL0     H  364  11.226   5.486   4.615  3.6612  4.2539 -0.1116
    3MOL0     H  365  11.616   5.630   4.625 -1.6640 -1.9778 -1.5324
    3MOL0     H  366  11.797   5.754   4.721 -1.9471 -2.2144 -2.0593
    3MOL0     H  367  11.765   5.743   4.892  1.8133  0.1052  0.1638
    3MOL0     H  368  11.905   5.665   4.837 -0.4657 -0.4274  1.6944
    3MOL0     H  369  12.203   5.552   4.956 -2.3477  0.9207  0.2360
    3MOL0     H  370  12.387   5.521   5.101  1.7854 -2.3805 -0.4324
    3MOL0     H  371  12.349   5.251   5.440  0.4409 -0.4748 -2.1556
    3MOL0     H  372  12.497   5.330   5.477  1.5220  0.2913 -1.6572
    3MOL0     H  373  12.386   5.509   5.565 -0.6477  1.8028 -2.3631
    3MOL0     H  374  12.248   5.499   5.455 -0.7449 -0.9493 -1.2647
    3MOL0     H  375  12.153   5.306   5.605  2.0699 -3.0746  0.6065
    3MOL0     H  376  12.188   5.453   5.700  0.0732 -1.9784  2.7595
    3MOL0     H  377  12.364   5.209   5.668  1.2885  0.0488  1.9863
    3MOL0     H  378  12.395   5.364   5.757  0.3158 -1.1453  1.9910
    3MOL0     H  379  12.183   5.151   5.809 -0.3360  0.9912  0.1932
    3MOL0     H  380  12.205   5.273   5.916  0.3678  1.8300 -0.9996
    3MOL0     H  381  12.436   5.061   5.859 -0.7652 -1.3775  0.6338
    3MOL0     H  382  12.454   5.191   5.965  0.6378 -0.5210 -1.5383
    3MOL0     H  383  12.221   5.002   5.983 -1.0517  1.8677  0.6825
    3MOL0     H  384  12.277   5.101   6.120  0.8013 -0.8004  1.2580
    3MOL0     H  385  12.423   4.859   6.016  2.9997  1.1689 -1.8720
    3MOL0     H  386  12.355   4.880   6.172 -0.7292 -2.9941 -3.1045
    3MOL0     H  387  12.168   5.264   5.355  1.2254 -6.3201 -2.0702
    3MOL0     H  388  11.980   5.248   5.173 -0.6349 -0.1991 -0.0809
    3MOL0     H  389  11.659   5.274   4.951  1.5575  2.5839  3.2864
    3MOL0     H  390  11.452   5.291   4.811 -1.2370  1.1376  0.6061
    3MOL0     H  391  10.770   4.705   3.363 -0.9854 -2.0804 -3.1141
    3MOL0     H  392  10.583   4.553   3.316  2.9398 -0.0032  0.6041
    3MOL0     H  393  10.095   4.535   3.474 -0.9092 -0.7421 -1.5432
    3MOL0     H  394   9.895   4.404   3.516  2.4964  3.2243  2.9308
    3MOL0     H  395   9.914   3.969   3.393  1.3472  3.8482  0.4452
    3MOL0     H  396   9.931   3.954   3.571  0.9736  1.9102  1.3705
    3MOL0     H  397   9.719   3.840   3.454 -0.7755 -0.7518  1.3278
    3MOL0     H  398   9.651   3.995   3.477 -0.1745 -0.7263 -0.5199
    3MOL0     H  399   9.596   3.945   3.681  0.0061  0.5592  1.4782
    3MOL0     H  400   9.752   3.992   3.713  2.0610  0.0673 -1.0982
    3MOL0     H  401   9.841   3.746   3.678  0.6026  0.2522  0.8579
    3MOL0     H  402   9.678   3.692   3.679 -1.0221  2.0904 -0.5250
    3MOL0     H  403   9.786   3.808   4.087 -0.4571 -1.8614  0.9246
    3MOL0     H  404  10.110   4.039   3.466  0.0307 -0.9414 -0.9880
    3MOL0     H  405  10.326   4.177   3.448 -0.3565 -1.1030  1.1918
    4MOL0     O  406   1.406   2.722   5.012  1.2016  0.3728  0.3670
    4MOL0     C  407   1.394   2.846   5.007 -0.0557  0.3454 -0.6249
    4MOL0     O  408   1.455   2.933   5.090  0.5130  0.0429  0.0042
    4MOL0     C  409   1.555   2.879   5.166 -0.1266 -0.1725  0.0590
    4MOL0     C  410   1.531   2.852   5.296  0.7873 -0.1557  0.6531
    4MOL0     C  411   1.638   2.821   5.380  0.0641 -0.0915  1.0140
    4MOL0     C  412   1.771   2.812   5.329 -0.9461  1.6877 -0.1071
    4MOL0     O  413   1.879   2.767   5.399 -0.1567  0.2396 -0.7521
    4MOL0     C  414   1.855   2.695   5.521 -0.7781  0.2922 -0.2772
    4MOL0     C  415   1.979   2.618   5.573 -0.3167 -1.3453  0.1273
    4MOL0     C  416   2.022   2.510   5.476  0.4847  0.0313 -1.1858
    4MOL0     C  417   2.144   2.424   5.507 -0.6385 -0.3616 -0.3497
    4MOL0     C  418   2.195   2.336   5.389  0.5493  0.5428  0.6035
    4MOL0     C  419   2.313   2.248   5.428 -0.6558  0.0947 -0.3959
    4MOL0     C  420   2.396   2.195   5.300 -0.7596  0.0532  0.1484
    4MOL0     C  421   2.500   2.092   5.328 -0.3947  0.2242 -0.5107
    4MOL0     N  422   2.573   2.117   5.448 -0.2620 -1.1661  0.2784
    4MOL0     C  423   2.661   2.221   5.460 -0.5988 -0.3766 -0.5356
    4MOL0     C  424   2.710   2.205   5.587 -0.5991  0.8229  0.3958
    4MOL0     C  425   2.793   2.305   5.657 -0.3726  0.3693  0.0329
    4MOL0     C  426   2.933   2.236   5.684  0.1448  0.8044  0.3478
    4MOL0     C  427   3.041   2.325   5.741  0.6500  0.6685 -1.2239
    4MOL0     C  428   3.109   2.415   5.632  0.0529  0.9164 -0.1830
    4MOL0     O  429   3.179   2.328   5.541  0.1074 -0.2219 -0.1196
    4MOL0     C  430   3.292   2.258   5.583  0.1686  0.0514 -0.3459
    4MOL0     C  431   3.368   2.281   5.697 -0.1036  0.3436 -0.2521
    4MOL0     C  432   3.495   2.233   5.707 -0.0800  0.4256 -0.5652
    4MOL0     C  433   3.573   2.270   5.834 -0.7222 -0.1294 -0.0464
    4MOL0     C  434   3.551   2.139   5.621 -0.5225  0.1756 -0.3531
    4MOL0     C  435   3.685   2.081   5.629 -0.2827 -0.3398 -0.2192
    4MOL0     O  436   3.717   2.000   5.523  0.9405  0.2966 -0.1928
    4MOL0     C  437   3.828   1.921   5.529  0.1572 -1.2608 -1.1557
    4MOL0     C  438   3.958   1.967   5.560  0.6066  0.1560  0.1821
    4MOL0     C  439   4.069   1.878   5.572  1.1281 -0.2233 -0.1807
    4MOL0     C  440   4.042   1.741   5.558 -1.0071  0.3553  0.1576
    4MOL0     O  441   4.149   1.657   5.576  0.3775  1.2414 -0.5726
    4MOL0     C  442   4.149   1.569   5.462 -0.3003  1.4519  0.8897
    4MOL0     C  443   4.205   1.436   5.513  1.1172  0.7947  0.8729
    4MOL0     C  444   4.129   1.367   5.625 -0.4640  0.3271  0.3321
    4MOL0     C  445   4.008   1.290   5.584  0.6525 -0.1860  0.1803
    4MOL0     C  446   3.923   1.248   5.708  0.2972  0.4885  0.3288
    4MOL0     C  447   3.800   1.172   5.648 -0.2142  0.1842 -0.4920
    4MOL0     C  448   3.693   1.139   5.750 -1.3803 -0.6850 -0.4080
    4MOL0     C  449   3.758   1.087   5.874  0.4190 -0.1793 -0.1293
    4MOL0    Cl  450   3.855   0.939   5.855 -0.2823 -0.1386 -0.4396
    4MOL0     C  451   3.916   1.696   5.529 -0.1699 -0.0330  0.5720
    4MOL0     C  452   3.814   1.787   5.512  0.1544  0.5719  0.5986
    4MOL0     O  453   3.762   2.086   5.725  0.1150 -0.6750 -0.6041
    4MOL0     C  454   3.465   2.095   5.517  0.1025  0.0512 -0.3179
    4MOL0     C  455   3.334   2.157   5.497 -1.1599  0.4515 -0.0556
    4MOL0     N  456   2.650   2.092   5.644  0.7071 -0.6395 -0.6586
    4MOL0     N  457   2.556   2.053   5.562  0.3723 -0.0869 -0.1878
    4MOL0     C  458   1.791   2.853   5.193 -0.9898 -0.1491  0.3441
    4MOL0     C  459   1.684   2.892   5.116  0.4879 -0.8289 -0.4350
    4MOL0     C  460   1.295   2.906   4.912 -0.2621  0.1202  0.1189
    4MOL0     C  461   1.234   2.826   4.817 -0.4838 -0.1857  0.3471
    4MOL0     C  462   1.129   2.882   4.739 -0.2857 -0.0398 -0.0392
    4MOL0     C  463   1.085   3.012   4.756  0.3968 -0.7505 -0.8795
    4MOL0     O  464   0.969   3.051   4.694 -1.3599  0.0121  0.0886
    4MOL0     C  465   0.850   3.067   4.776 -0.1065 -0.4866  0.6163
    4MOL0     C  466   0.768   3.164   4.693 -0.1216 -0.0462 -0.2832
    4MOL0     C  467   0.816   3.304   4.727 -0.6807  0.9542  0.4964
    4MOL0     C  468   0.915   3.356   4.627  0.1482  0.4332 -0.1941
    4MOL0     C  469   0.916   3.506   4.630 -0.7297  0.8054  0.2299
    4MOL0     C  470   0.923   3.624   4.658 -0.0807  0.5063 -0.5390
    4MOL0     C  471   1.152   3.098   4.841 -1.0961 -1.3627 -0.6008
    4MOL0     C  472   1.263   3.045   4.911  0.1143 -0.2458  0.4509
    4MOL0     H  473   1.428   2.863   5.328  0.4160 -1.1887 -0.1111
    4MOL0     H  474   1.614   2.798   5.483 -2.9774 -3.2149 -0.2019
    4MOL0     H  475   1.826   2.768   5.597  0.0552  0.2877  0.0548
    4MOL0     H  476   1.783   2.616   5.495  1.2968 -2.1302  0.9309
    4MOL0     H  477   2.060   2.687   5.598 -0.3219 -2.2138  2.8592
    4MOL0     H  478   1.964   2.565   5.667  0.2560 -0.0708  0.9635
    4MOL0     H  479   1.949   2.429   5.473 -0.6165  0.8811  0.7390
    4MOL0     H  480   2.019   2.547   5.373  0.2026  1.6581 -0.6264
    4MOL0     H  481   2.228   2.483   5.544 -0.3389  0.4689 -2.2483
    4MOL0     H  482   2.131   2.363   5.597  3.4208  2.6459  2.7314
    4MOL0     H  483   2.115   2.268   5.358  1.9692 -0.8956 -0.0589
    4MOL0     H  484   2.219   2.397   5.301 -0.6432 -0.6695 -0.6228
    4MOL0     H  485   2.387   2.300   5.490 -0.2784  2.2189 -2.4726
    4MOL0     H  486   2.291   2.158   5.485  0.8807 -0.0671 -0.0290
    4MOL0     H  487   2.323   2.161   5.225 -1.7619  1.4013  0.4614
    4MOL0     H  488   2.447   2.279   5.251  0.7400 -1.1857 -0.4897
    4MOL0     H  489   2.574   2.071   5.250  0.3014 -1.0136  0.4420
    4MOL0     H  490   2.443   2.000   5.341 -1.1003  0.7370  0.1083
    4MOL0     H  491   2.663   2.305   5.391 -1.3137  0.1845  0.1167
    4MOL0     H  492   2.814   2.392   5.593  2.4848  0.6797  1.2208
    4MOL0     H  493   2.752   2.343   5.751 -2.1242  0.9656 -0.9352
    4MOL0     H  494   2.976   2.191   5.593  2.1068  1.0572  1.1220
    4MOL0     H  495   2.916   2.147   5.745 -0.6088  0.0381 -0.9138
    4MOL0     H  496   3.108   2.257   5.795  2.0217  1.8403 -1.4062
    4MOL0     H  497   2.991   2.381   5.820  0.3750  2.2587 -2.4634
    4MOL0     H  498   3.176   2.489   5.676 -0.3110  0.0439  1.9348
    4MOL0     H  499   3.039   2.468   5.566 -0.3019 -0.4212 -0.9453
    4MOL0     H  500   3.342   2.345   5.781  1.1968 -2.2782  2.3558
    4MOL0     H  501   3.593   2.174   5.883  2.6605  0.1430 -0.6321
    4MOL0     H  502   3.669   2.320   5.819 -1.2751  0.5943 -1.3824
    4MOL0     H  503   3.516   2.349   5.884  0.6924  3.5501 -3.6268
    4MOL0     H  504   3.976   2.074   5.567 -0.5332  0.6758 -2.9591
    4MOL0     H  505   4.172   1.907   5.592  0.7898  1.9338 -1.2692
    4MOL0     H  506   4.054   1.554   5.410  1.0532 -2.7022 -0.8514
    4MOL0     H  507   4.222   1.605   5.389  0.9857 -0.2435  1.2821
    4MOL0     H  508   4.207   1.369   5.427  2.8774  0.3263  1.2344
    4MOL0     H  509   4.304   1.459   5.554  1.8133 -1.4138  0.5803
    4MOL0     H  510   4.095   1.445   5.694  1.8654 -0.7604  2.8995
    4MOL0     H  511   4.196   1.300   5.681  1.9114  1.5081 -0.9268
    4MOL0     H  512   3.943   1.355   5.524  1.8990  0.3287 -0.6642
    4MOL0     H  513   4.037   1.203   5.525  0.6787 -0.4013  0.5078
    4MOL0     H  514   3.894   1.336   5.767  0.2497  1.3296 -0.9083
    4MOL0     H  515   3.983   1.183   5.772  0.5957 -0.3051 -0.7381
    4MOL0     H  516   3.731   1.228   5.583 -1.3057 -0.0557  0.4233
    4MOL0     H  517   3.831   1.074   5.613 -0.2004 -1.2442  3.1069
    4MOL0     H  518   3.615   1.080   5.700 -0.4964 -2.4965  0.2791
    4MOL0     H  519   3.640   1.228   5.785 -0.9658 -0.7739  0.4613
    4MOL0     H  520   3.689   1.063   5.955  1.6644  2.2595  1.7582
    4MOL0     H  521   3.806   1.168   5.929  0.9796 -0.7761  0.2780
    4MOL0     H  522   3.881   1.593   5.534 -3.7517  0.8429 -2.2673
    4MOL0     H  523   3.713   1.758   5.486  1.3175 -4.8939  0.8868
    4MOL0     H  524   3.493   2.023   5.440 -0.9493  0.0553 -0.7218
    4MOL0     H  525   3.272   2.133   5.412 -2.2663  3.0800 -0.0742
    4MOL0     H  526   1.891   2.836   5.156 -0.8940 -0.3294  0.6814
    4MOL0     H  527   1.697   2.930   5.015 -0.4411  3.7708  0.9428
    4MOL0     H  528   1.252   2.718   4.815  2.2797  0.1716  1.4693
    4MOL0     H  529   1.079   2.813   4.671  0.7363 -0.1530 -0.7131
    4MOL0     H  530   0.787   2.980   4.795 -2.1962  0.6606 -0.6724
    4MOL0     H  531   0.879   3.109   4.873  2.3676 -1.0131  0.1763
    4MOL0     H  532   0.665   3.153   4.727 -1.2316 -1.7943 -3.7309
    4MOL0     H  533   0.761   3.142   4.586 -2.0157 -1.9609  0.1777
    4MOL0     H  534   0.864   3.309   4.825  0.2286  2.5976  0.0072
    4MOL0     H  535   0.729   3.371   4.730 -0.0986  1.7166  0.6632
    4MOL0     H  536   0.884   3.313   4.531 -0.2834  2.0145 -0.7911
    4MOL0     H  537   1.017   3.318   4.631 -0.3028 -1.7272 -4.0142
    4MOL0     H  538   0.928   3.730   4.677  1.3839  0.4132 -0.2728
    4MOL0     H  539   1.111   3.197   4.861 -2.0775 -0.9972 -3.7466
    4MOL0     H  540   1.324   3.113   4.970  0.3532 -0.4507  0.4362
    5MOL0     O  541   0.280   8.794   4.501 -0.4609  0.0332  1.0474
    5MOL0     C  542   0.272   8.743   4.614 -1.0317  0.1180 -0.1925
    5MOL0     O  543   0.357   8.645   4.659 -0.3111 -0.4592 -0.0002
    5MOL0     C  544   0.454   8.594   4.577 -0.6530  0.7024 -0.5512
    5MOL0     C  545   0.453   8.451   4.561 -0.2770  0.7399  0.7866
    5MOL0     C  546   0.550   8.377   4.499  0.4863 -0.3224 -0.3858
    5MOL0     C  547   0.653   8.448   4.430  0.2452  0.4065 -0.5665
    5MOL0     O  548   0.743   8.381   4.350 -0.0103 -0.4281 -0.2777
    5MOL0     C  549   0.808   8.442   4.249 -0.1537 -0.0012 -0.6273
    5MOL0     C  550   0.953   8.482   4.281 -0.0658 -0.0022  0.6238
    5MOL0     C  551   0.984   8.621   4.238  0.1795 -0.6146  0.8175
    5MOL0     C  552   1.132   8.625   4.197  0.1561  0.4057 -0.4708
    5MOL0     C  553   1.192   8.755   4.145 -0.3513  0.9390  0.0879
    5MOL0     C  554   1.216   8.855   4.253 -0.2357 -0.7562  0.0994
    5MOL0     C  555   1.342   8.830   4.342  0.2768 -0.0158  0.2943
    5MOL0     C  556   1.350   8.934   4.452  0.1474 -0.1177  0.1616
    5MOL0     N  557   1.240   8.930   4.552 -0.2416 -0.8514  0.6247
    5MOL0     C  558   1.168   9.037   4.595 -0.3820 -0.3787 -0.1728
    5MOL0     C  559   1.113   8.998   4.708  0.3661  0.4464 -0.6242
    5MOL0     C  560   1.028   9.078   4.803  0.5731 -0.0838  0.0628
    5MOL0     C  561   1.090   9.211   4.844  0.0979 -0.3904 -0.2639
    5MOL0     C  562   1.206   9.174   4.949  0.3123  0.2178  1.1377
    5MOL0     C  563   1.260   9.301   4.998  0.2999  0.4373 -0.1128
    5MOL0     O  564   1.381   9.276   5.065  0.7415  0.0426 -0.4009
    5MOL0     C  565   1.408   9.357   5.169 -0.5478  0.6886 -0.2786
    5MOL0     C  566   1.497   9.299   5.260  1.6540  0.2558  0.9558
    5MOL0     C  567   1.542   9.364   5.370 -0.5934  0.1876  0.5066
    5MOL0     C  568   1.648   9.297   5.454 -0.0602 -0.1653  0.1155
    5MOL0     C  569   1.505   9.504   5.388  1.2106  0.2605 -1.0179
    5MOL0     C  570   1.568   9.577   5.498 -0.1523 -0.7306  1.2984
    5MOL0     O  571   1.575   9.516   5.613 -0.4243 -0.5877  0.1594
    5MOL0     C  572   1.634   9.567   5.733  0.3010 -0.3696 -0.4566
    5MOL0     C  573   1.660   9.701   5.772  0.8765  0.5322 -0.0226
    5MOL0     C  574   1.724   9.730   5.891  0.2034 -0.7905  0.0638
    5MOL0     C  575   1.762   9.625   5.982  0.4599  0.7844 -0.4708
    5MOL0     O  576   1.820   9.641   6.109 -0.7535  0.1864 -0.6249
    5MOL0     C  577   1.905   9.756   6.135  0.0359  0.0656 -0.3726
    5MOL0     C  578   1.818   9.835   6.235 -0.8198 -0.7912 -0.0587
    5MOL0     C  579   1.893   9.965   6.268  0.6929  0.7562 -0.3055
    5MOL0     C  580   1.958  10.054   6.153 -0.0146  0.1082  0.0658
    5MOL0     C  581   1.955  10.207   6.178  0.7876  0.5900 -0.1304
    5MOL0     C  582   2.041  10.253   6.296 -0.5070  0.5903 -0.1415
    5MOL0     C  583   2.026  10.402   6.340  0.2169  0.8056 -0.1379
    5MOL0     C  584   1.889  10.426   6.385  0.4229 -0.4431  0.0958
    5MOL0    Cl  585   1.873  10.595   6.466  0.1920  0.0150  0.5956
    5MOL0     C  586   1.734   9.488   5.944 -1.1278 -1.0299  0.1537
    5MOL0     C  587   1.672   9.464   5.825  0.2271  0.6160  0.1062
    5MOL0     O  588   1.628   9.680   5.471  0.0522  0.3935  0.2388
    5MOL0     C  589   1.409   9.562   5.299 -0.6184  0.5890 -0.1354
    5MOL0     C  590   1.364   9.490   5.190  0.2225  0.4834 -0.5113
    5MOL0     N  591   1.147   8.871   4.736  0.1074  0.6665 -0.0326
    5MOL0     N  592   1.233   8.830   4.643  1.0027 -0.9375  0.6336
    5MOL0     C  593   0.649   8.585   4.439  1.1146 -0.2195  0.5351
    5MOL0     C  594   0.556   8.663   4.501  0.0155 -0.9487 -0.4934
    5MOL0     C  595   0.186   8.789   4.719 -0.1690 -0.8625 -0.3339
    5MOL0     C  596   0.135   8.706   4.811  0.1560  0.3081  0.2836
    5MOL0     C  597   0.061   8.753   4.917  0.2660 -0.2029 -0.8732
    5MOL0     C  598   0.039   8.895   4.930  0.7323  0.2675  0.6991
    5MOL0     O  599  -0.046   8.957   5.022  0.3765 -0.4186 -0.1356
    5MOL0     C  600  -0.094   8.894   5.151 -0.2754 -0.0914 -0.0847
    5MOL0     C  601  -0.215   8.956   5.221  0.4222  0.1033  0.1908
    5MOL0     C  602  -0.190   9.098   5.257 -0.1114  0.0083 -0.1941
    5MOL0     C  603  -0.277   9.164   5.370 -0.1842 -0.7089 -0.4030
    5MOL0     C  604  -0.243   9.308   5.370 -0.2819 -0.8852  0.0767
    5MOL0     C  605  -0.222   9.422   5.392  0.4986  0.2406 -0.4739
    5MOL0     C  606   0.088   8.976   4.833  0.0213 -1.0257  0.7614
    5MOL0     C  607   0.171   8.926   4.732  0.4170  0.9124 -0.1333
    5MOL0     H  608   0.363   8.405   4.601 -0.9610  3.1264  2.2355
    5MOL0     H  609   0.549   8.269   4.485 -0.5704 -0.0760 -2.7532
    5MOL0     H  610   0.802   8.370   4.168  0.1660 -2.0171  1.0484
    5MOL0     H  611   0.756   8.530   4.210 -2.0256 -0.8107 -0.0564
    5MOL0     H  612   0.943   8.506   4.387 -4.2743  6.0386 -0.5946
    5MOL0     H  613   1.030   8.414   4.244 -4.0618 -3.6659 -1.8210
    5MOL0     H  614   0.919   8.639   4.153 -1.0119 -3.3003  1.0577
    5MOL0     H  615   0.963   8.690   4.321 -0.1328  1.1492 -0.6757
    5MOL0     H  616   1.191   8.596   4.285 -1.2490  2.0912  1.1315
    5MOL0     H  617   1.147   8.544   4.125 -1.7613  0.7871 -1.3661
    5MOL0     H  618   1.290   8.730   4.104 -0.4236  0.5378  0.1587
    5MOL0     H  619   1.130   8.794   4.063  1.2136  1.3106 -0.9623
    5MOL0     H  620   1.228   8.953   4.207 -3.0502  0.1709  1.1518
    5MOL0     H  621   1.124   8.863   4.311  0.9762 -3.0348  2.5765
    5MOL0     H  622   1.327   8.732   4.390 -0.3208 -1.4075 -2.5543
    5MOL0     H  623   1.432   8.835   4.280 -1.6969  2.4918 -2.6086
    5MOL0     H  624   1.352   9.036   4.413  0.8811 -0.0941  0.2422
    5MOL0     H  625   1.446   8.927   4.505  1.6858  0.0989 -2.4428
    5MOL0     H  626   1.160   9.130   4.540  1.5829  0.1120  0.3056
    5MOL0     H  627   0.935   9.090   4.747 -0.0710 -0.6907  0.9879
    5MOL0     H  628   0.991   9.033   4.895 -0.7608  3.3216  1.3675
    5MOL0     H  629   1.010   9.269   4.891  2.2122  0.2745  2.8078
    5MOL0     H  630   1.123   9.265   4.755 -2.3919 -2.3977 -2.5894
    5MOL0     H  631   1.293   9.128   4.900  0.4156  2.3962 -0.9348
    5MOL0     H  632   1.170   9.100   5.020 -0.0866 -2.6764 -1.8110
    5MOL0     H  633   1.181   9.338   5.064  0.4800 -0.5786  0.6837
    5MOL0     H  634   1.289   9.373   4.921 -0.9742 -0.0895 -1.1220
    5MOL0     H  635   1.517   9.193   5.245  1.1632  0.4238 -1.3232
    5MOL0     H  636   1.616   9.282   5.557  2.1722 -0.0307  0.8776
    5MOL0     H  637   1.685   9.198   5.422  0.6744 -1.2187  3.7146
    5MOL0     H  638   1.733   9.366   5.446 -1.7071  1.9379  0.1189
    5MOL0     H  639   1.628   9.779   5.704 -0.3847 -0.2236 -0.3434
    5MOL0     H  640   1.733   9.836   5.914  2.0167 -0.2140 -2.7348
    5MOL0     H  641   1.999   9.728   6.185 -1.6718 -1.5504  2.1762
    5MOL0     H  642   1.931   9.813   6.046 -0.1277  2.8844  1.2713
    5MOL0     H  643   1.723   9.859   6.185  0.9839  2.0359 -2.4198
    5MOL0     H  644   1.804   9.784   6.331  2.5240  0.5434  1.2688
    5MOL0     H  645   1.967   9.932   6.341  0.2720  1.2746  0.3686
    5MOL0     H  646   1.830  10.038   6.321  1.0514  2.5398 -2.1849
    5MOL0     H  647   2.062  10.026   6.135 -0.3234 -1.0670  0.0515
    5MOL0     H  648   1.902  10.034   6.061 -2.6913 -3.3313  2.1945
    5MOL0     H  649   1.849  10.233   6.178  0.5127 -0.4746  0.1664
    5MOL0     H  650   1.996  10.244   6.084 -1.3201 -0.7107 -1.6637
    5MOL0     H  651   2.020  10.188   6.381 -1.8736 -0.0198 -0.9216
    5MOL0     H  652   2.145  10.249   6.260 -1.3176 -3.2648 -2.6922
    5MOL0     H  653   2.038  10.463   6.249  0.2524  0.0745 -0.6304
    5MOL0     H  654   2.101  10.425   6.415 -0.1867  1.0590  0.1948
    5MOL0     H  655   1.868  10.353   6.464  0.3514 -0.9594 -0.3925
    5MOL0     H  656   1.823  10.418   6.298  1.9593 -2.2407 -0.9662
    5MOL0     H  657   1.759   9.399   6.001 -1.1017 -1.0993  0.0354
    5MOL0     H  658   1.663   9.360   5.793  1.2773  0.9185 -1.3060
    5MOL0     H  659   1.390   9.669   5.307 -1.3263  0.4350  0.4447
    5MOL0     H  660   1.303   9.537   5.114  0.2751  1.0117 -0.2320
    5MOL0     H  661   0.744   8.613   4.396  0.4428 -2.2727 -2.5394
    5MOL0     H  662   0.559   8.771   4.514  1.6114 -1.2342  2.1371
    5MOL0     H  663   0.147   8.601   4.787  1.8127  0.6594 -0.5752
    5MOL0     H  664   0.022   8.691   4.998  0.7875  2.8727  1.9513
    5MOL0     H  665  -0.118   8.794   5.114  0.2387  0.2020 -1.2687
    5MOL0     H  666  -0.008   8.890   5.218  0.7681 -0.6588 -1.4214
    5MOL0     H  667  -0.244   8.901   5.310  0.8540  1.4141  1.1771
    5MOL0     H  668  -0.305   8.963   5.159 -2.7099 -0.5333  4.2402
    5MOL0     H  669  -0.213   9.145   5.160 -0.9936 -3.0696 -1.5997
    5MOL0     H  670  -0.086   9.104   5.287 -0.5241  1.3773  1.0828
    5MOL0     H  671  -0.266   9.121   5.470  1.2239 -1.9681 -1.0558
    5MOL0     H  672  -0.382   9.169   5.337 -0.1601 -0.1144 -0.3968
    5MOL0     H  673  -0.201   9.525   5.415  0.9170 -0.0454  0.5043
    5MOL0     H  674   0.051   9.076   4.853 -1.4741 -1.0116 -1.6271
    5MOL0     H  675   0.202   8.995   4.654 -1.0933  4.0737  1.9120
    6MOL0     O  676   7.015  10.203   1.028  0.2164  0.5909  0.1408
    6MOL0     C  677   7.086  10.271   0.957 -0.1802  0.2653  0.1102
    6MOL0     O  678   7.087  10.267   0.822 -0.9646 -0.9967 -0.4323
    6MOL0     C  679   6.996  10.195   0.745  0.2056  0.1638 -0.5437
    6MOL0     C  680   7.036  10.184   0.611 -0.3185  0.5722 -0.1686
    6MOL0     C  681   6.953  10.109   0.523 -0.3750 -0.0688  0.0696
    6MOL0     C  682   6.829  10.059   0.553 -0.3553  0.0734 -1.2597
    6MOL0     O  683   6.745   9.994   0.466 -0.6049 -0.1882  0.1130
    6MOL0     C  684   6.792   9.862   0.429 -0.1797 -0.0998 -0.2954
    6MOL0     C  685   6.695   9.832   0.319  1.0830  0.2952 -0.2824
    6MOL0     C  686   6.741   9.706   0.248 -0.1434 -0.2539  0.2293
    6MOL0     C  687   6.756   9.733   0.090  0.1727  0.2139  0.1235
    6MOL0     C  688   6.867   9.835   0.049  0.3525 -0.5060 -0.2436
    6MOL0     C  689   6.872   9.826  -0.107 -0.1482 -0.4253  0.1506
    6MOL0     C  690   6.971   9.927  -0.168  0.2221 -0.8558  0.5655
    6MOL0     C  691   6.921   9.941  -0.323 -0.0637 -0.2663 -0.5509
    6MOL0     N  692   7.021  10.024  -0.391 -0.2555  0.0673  0.4645
    6MOL0     C  693   7.044  10.148  -0.342 -0.2021  0.1945  0.7667
    6MOL0     C  694   7.107  10.207  -0.446  0.2523  0.6642  0.4168
    6MOL0     C  695   7.159  10.349  -0.441 -0.5778  0.3434  0.0946
    6MOL0     C  696   7.173  10.416  -0.295  0.2269 -0.1407  0.6314
    6MOL0     C  697   7.294  10.348  -0.215 -1.0385 -0.1848  0.8238
    6MOL0     C  698   7.320  10.414  -0.083 -0.0833  0.4272 -0.0348
    6MOL0     O  699   7.218  10.396   0.009  0.5993  0.2500 -0.1989
    6MOL0     C  700   7.239  10.446   0.138 -0.5761 -0.8917 -0.0702
    6MOL0     C  701   7.127  10.457   0.222  0.2675  0.8449 -0.6063
    6MOL0     C  702   7.133  10.516   0.351 -0.1149  0.2667  0.4535
    6MOL0     C  703   7.008  10.518   0.433 -0.1422 -0.6301 -0.6234
    6MOL0     C  704   7.258  10.554   0.404 -0.3209 -0.3049  0.2664
    6MOL0     C  705   7.266  10.631   0.527 -0.1125  0.4303 -0.7054
    6MOL0     O  706   7.211  10.752   0.522 -0.2661 -0.4691 -0.6786
    6MOL0     C  707   7.220  10.849   0.613 -0.0263  0.0032  1.2615
    6MOL0     C  708   7.151  10.834   0.731  0.4501 -1.0272 -0.7041
    6MOL0     C  709   7.169  10.917   0.837  0.0611 -0.7254  0.2878
    6MOL0     C  710   7.262  11.029   0.820  0.0832 -0.5228  0.0378
    6MOL0     O  711   7.268  11.107   0.936 -0.2747  0.8899 -0.0330
    6MOL0     C  712   7.371  11.200   0.960  0.3339  0.5511  0.0461
    6MOL0     C  713   7.406  11.197   1.110  0.2198 -0.9281  0.4082
    6MOL0     C  714   7.290  11.227   1.203  0.3160 -1.1404  0.0855
    6MOL0     C  715   7.227  11.366   1.173  0.2013  0.2807 -0.3918
    6MOL0     C  716   7.158  11.426   1.296 -0.5423  0.1848  0.1986
    6MOL0     C  717   7.236  11.455   1.423 -0.1235  0.0126  0.1879
    6MOL0     C  718   7.137  11.502   1.523 -0.1216 -0.4792  0.4887
    6MOL0     C  719   7.189  11.605   1.628 -0.3518  0.0836  0.1402
    6MOL0    Cl  720   7.293  11.525   1.747  0.2116  0.0155  0.0293
    6MOL0     C  721   7.335  11.037   0.701 -0.7360  0.2512 -0.0464
    6MOL0     C  722   7.311  10.950   0.601  0.3291 -0.7846  0.3172
    6MOL0     O  723   7.323  10.582   0.622 -0.4259 -0.0854  0.4675
    6MOL0     C  724   7.376  10.531   0.324  0.1943 -0.1896  0.9048
    6MOL0     C  725   7.368  10.486   0.193  0.4199  0.5811  1.8755
    6MOL0     N  726   7.131  10.110  -0.553  0.9918 -0.5246  0.2067
    6MOL0     N  727   7.078  10.000  -0.511  0.4888 -0.2749  0.1848
    6MOL0     C  728   6.784  10.083   0.681  0.3025  0.4648 -0.4734
    6MOL0     C  729   6.871  10.139   0.782 -0.6946 -0.4297 -0.5206
    6MOL0     C  730   7.182  10.368   1.022 -0.4716 -0.1503  0.9003
    6MOL0     C  731   7.225  10.475   0.950  0.8422  0.4028 -0.2822
    6MOL0     C  732   7.294  10.579   1.011  0.5908 -1.3055 -0.2409
    6MOL0     C  733   7.326  10.572   1.147 -0.5947  0.3249 -0.2812
    6MOL0     O  734   7.433  10.646   1.182  0.2320  1.3593 -0.5147
    6MOL0     C  735   7.397  10.744   1.276  0.3858 -0.2381 -0.0482
    6MOL0     C  736   7.499  10.838   1.286 -0.3195  0.0373  0.0878
    6MOL0     C  737   7.639  10.788   1.322 -0.5091 -0.2092 -0.0828
    6MOL0     C  738   7.736  10.903   1.350  0.4858 -0.1613  0.4537
    6MOL0     C  739   7.751  10.994   1.229  0.6516 -0.4558 -0.1765
    6MOL0     C  740   7.754  11.057   1.135  0.1463 -0.3427  0.2795
    6MOL0     C  741   7.278  10.462   1.222  0.0551 -0.0795 -0.4707
    6MOL0     C  742   7.207  10.364   1.161 -0.1515  0.1847 -0.2575
    6MOL0     H  743   7.125  10.216   0.557  0.3485  0.3882  0.7810
    6MOL0     H  744   6.986  10.105   0.419  2.2510 -0.3445  0.8233
    6MOL0     H  745   6.893   9.863   0.387 -0.1231 -2.3990 -0.3166
    6MOL0     H  746   6.784   9.788   0.509 -2.5296  0.4531  0.0436
    6MOL0     H  747   6.594   9.823   0.360  0.9759  3.7724  0.5651
    6MOL0     H  748   6.688   9.915   0.247  0.4612  2.6220  2.2970
    6MOL0     H  749   6.839   9.672   0.283  1.5070  2.6447 -1.2299
    6MOL0     H  750   6.677   9.619   0.265 -1.1868  0.8231  2.2145
    6MOL0     H  751   6.791   9.635   0.055 -0.9045 -0.8792  1.9267
    6MOL0     H  752   6.663   9.760   0.039  0.7209  2.5330  0.2458
    6MOL0     H  753   6.832   9.938   0.065 -2.3214 -1.5332  1.0863
    6MOL0     H  754   6.962   9.812   0.099  0.9043  1.1028 -0.4672
    6MOL0     H  755   6.893   9.726  -0.145  2.9180  0.2560 -0.2119
    6MOL0     H  756   6.772   9.855  -0.143  0.3766  3.6513  1.3997
    6MOL0     H  757   6.961  10.016  -0.105  0.9126 -1.7056  1.9364
    6MOL0     H  758   7.072   9.885  -0.170  0.5671 -0.0422  0.7765
    6MOL0     H  759   6.821   9.985  -0.327 -1.0256 -2.2911  0.0628
    6MOL0     H  760   6.921   9.848  -0.380  3.3202 -1.3902  1.0330
    6MOL0     H  761   7.038  10.198  -0.246 -0.8157  0.5029  0.5720
    6MOL0     H  762   7.261  10.335  -0.478 -0.8651  0.3700 -0.7163
    6MOL0     H  763   7.114  10.411  -0.519 -1.3537 -1.1321 -0.6506
    6MOL0     H  764   7.080  10.422  -0.237  0.6792 -0.2913  1.3824
    6MOL0     H  765   7.201  10.519  -0.315 -2.3278  0.3988 -0.6113
    6MOL0     H  766   7.385  10.364  -0.274 -1.7211 -1.6733 -0.7014
    6MOL0     H  767   7.286  10.239  -0.209  1.4310 -0.4254  0.8673
    6MOL0     H  768   7.329  10.521  -0.103  0.2213  0.4408  0.1729
    6MOL0     H  769   7.421  10.399  -0.044  0.4616 -1.8638 -2.1288
    6MOL0     H  770   7.038  10.419   0.173 -0.2283  2.4428 -1.0157
    6MOL0     H  771   6.926  10.527   0.361  2.3688  0.7273 -3.6016
    6MOL0     H  772   7.015  10.432   0.500  1.7124 -1.5522 -1.9138
    6MOL0     H  773   6.995  10.609   0.492  0.9798 -0.1537 -1.0702
    6MOL0     H  774   7.089  10.747   0.750 -2.1976  0.1431 -3.1507
    6MOL0     H  775   7.110  10.910   0.929 -1.9630  0.6872 -0.8311
    6MOL0     H  776   7.459  11.185   0.897  0.0548  0.6372 -0.3764
    6MOL0     H  777   7.321  11.294   0.935  1.1702  0.0297 -4.5498
    6MOL0     H  778   7.444  11.098   1.137  1.8549 -0.4074  0.1495
    6MOL0     H  779   7.486  11.270   1.128  3.0121 -4.1399  2.0937
    6MOL0     H  780   7.331  11.227   1.304 -0.9094 -2.1316  0.6093
    6MOL0     H  781   7.209  11.155   1.212 -2.4759  1.8892  1.4195
    6MOL0     H  782   7.295  11.441   1.133 -0.1583  1.0798  0.4507
    6MOL0     H  783   7.151  11.352   1.095  1.5773 -2.6398 -1.3426
    6MOL0     H  784   7.070  11.362   1.307  0.2730 -2.1985 -4.7249
    6MOL0     H  785   7.116  11.518   1.253 -3.1874  0.0693  2.2738
    6MOL0     H  786   7.280  11.362   1.460  1.6294  0.8024  0.1979
    6MOL0     H  787   7.319  11.526   1.422 -0.1528  0.1755  2.9601
    6MOL0     H  788   7.076  11.428   1.575 -4.6070  0.8010 -2.3550
    6MOL0     H  789   7.059  11.549   1.462  0.3684  0.3730  0.4974
    6MOL0     H  790   7.107  11.643   1.689  0.1175 -0.8109  1.3736
    6MOL0     H  791   7.242  11.689   1.581  2.4307 -0.2172  2.4335
    6MOL0     H  792   7.407  11.119   0.704  0.3776 -0.6792  4.1954
    6MOL0     H  793   7.370  10.964   0.511 -0.3295 -0.1171 -0.0244
    6MOL0     H  794   7.476  10.545   0.364  0.5742 -1.6730  0.5556
    6MOL0     H  795   7.465  10.464   0.150 -0.1855  0.9741  0.2616
    6MOL0     H  796   6.687  10.045   0.713  0.1429  0.2879 -1.1522
    6MOL0     H  797   6.833  10.140   0.884  0.5618 -0.5698 -0.0307
    6MOL0     H  798   7.211  10.494   0.845  2.5200  0.5197 -0.5201
    6MOL0     H  799   7.320  10.669   0.957 -2.3931  0.5915  1.1777
    6MOL0     H  800   7.301  10.793   1.260 -1.0711 -1.1071  4.5731
    6MOL0     H  801   7.379  10.708   1.377 -1.5584  2.7867  0.8167
    6MOL0     H  802   7.464  10.889   1.377  0.2545  1.2115 -0.3219
    6MOL0     H  803   7.500  10.902   1.197  2.9986  1.8164  1.2471
    6MOL0     H  804   7.678  10.729   1.239  0.3832  0.1171  0.0950
    6MOL0     H  805   7.643  10.711   1.399  0.1915 -1.5625 -1.4214
    6MOL0     H  806   7.835  10.862   1.372  0.4676  0.3479  1.5238
    6MOL0     H  807   7.700  10.950   1.442 -4.2322 -1.9092 -0.2247
    6MOL0     H  808   7.741  11.126   1.054  0.1592  1.3065  1.6221
    6MOL0     H  809   7.292  10.454   1.330 -2.4005  1.5925  0.0658
    6MOL0     H  810   7.173  10.281   1.221 -0.7439  1.1934  0.8271
    7MOL0     O  811   2.099   8.570   4.662 -0.6931 -0.8755 -0.4795
    7MOL0     C  812   2.036   8.499   4.587 -0.5239 -0.9473  0.1756
    7MOL0     O  813   2.067   8.469   4.455 -0.6609  0.0287  0.2571
    7MOL0     C  814   2.128   8.557   4.382  1.4901 -0.8680  0.9228
    7MOL0     C  815   2.095   8.560   4.242 -0.3403 -0.4553 -0.4378
    7MOL0     C  816   2.150   8.655   4.158  0.4010  0.2484 -0.3268
    7MOL0     C  817   2.256   8.742   4.200 -0.3031  0.0678 -0.1641
    7MOL0     O  818   2.303   8.828   4.103  0.1703 -0.4035  0.4096
    7MOL0     C  819   2.351   8.955   4.161  0.6834  0.3517 -0.4512
    7MOL0     C  820   2.336   9.055   4.059  0.2147 -0.5440 -0.4105
    7MOL0     C  821   2.394   9.189   4.106 -0.7236  0.2121  0.3907
    7MOL0     C  822   2.376   9.308   4.006 -0.3813 -0.3210  0.1378
    7MOL0     C  823   2.463   9.434   4.042  0.7416  0.2525 -0.1196
    7MOL0     C  824   2.609   9.423   4.019 -0.2334  0.0257 -1.0185
    7MOL0     C  825   2.668   9.571   4.025  0.0998 -0.5218  0.0933
    7MOL0     C  826   2.806   9.576   3.987 -0.5920  1.3235  0.9088
    7MOL0     N  827   2.855   9.708   3.964 -0.2058 -0.2985  0.0510
    7MOL0     C  828   2.810   9.815   4.035 -0.5581 -0.4235  0.8970
    7MOL0     C  829   2.852   9.929   3.976 -0.1191  0.0825 -0.6649
    7MOL0     C  830   2.836  10.068   4.028 -0.4166 -0.0601  0.4751
    7MOL0     C  831   2.900  10.101   4.165 -0.5080  0.3742  0.2951
    7MOL0     C  832   2.915  10.252   4.183 -0.2994 -0.0589 -0.3543
    7MOL0     C  833   2.784  10.329   4.203  0.7506  0.4385  0.8124
    7MOL0     O  834   2.803  10.464   4.265  0.2190 -0.3164 -0.2030
    7MOL0     C  835   2.849  10.469   4.394 -0.5642  0.2706  0.1119
    7MOL0     C  836   2.894  10.600   4.426 -0.5060 -1.2685  0.6622
    7MOL0     C  837   2.935  10.631   4.552  0.2396  0.4508  0.6754
    7MOL0     C  838   2.989  10.765   4.569 -0.7213  0.7334 -0.4156
    7MOL0     C  839   2.934  10.528   4.656 -0.5407 -0.7581 -0.3349
    7MOL0     C  840   2.978  10.550   4.800  0.0182  0.6754  1.0119
    7MOL0     O  841   2.942  10.671   4.845 -0.0367 -0.2905  0.3817
    7MOL0     C  842   2.993  10.704   4.962  0.1886 -1.0037 -0.7935
    7MOL0     C  843   2.936  10.668   5.089  0.1367  0.2683  0.6526
    7MOL0     C  844   2.994  10.703   5.213  0.2015  0.2433 -0.3702
    7MOL0     C  845   3.105  10.784   5.207 -0.8303 -0.2181 -0.6977
    7MOL0     O  846   3.151  10.807   5.333  0.0802 -0.2563 -0.3589
    7MOL0     C  847   3.292  10.837   5.379 -0.0705  0.0607  0.8760
    7MOL0     C  848   3.318  10.945   5.486 -0.8092  0.3812  0.4652
    7MOL0     C  849   3.301  11.084   5.427 -0.5226 -0.5511 -0.1686
    7MOL0     C  850   3.308  11.197   5.535  0.0059 -0.2662  0.4819
    7MOL0     C  851   3.291  11.331   5.473 -0.1624 -0.5126 -0.3245
    7MOL0     C  852   3.372  11.441   5.544 -0.1773 -0.3833  0.7191
    7MOL0     C  853   3.315  11.579   5.494  0.2332 -0.0598 -0.7498
    7MOL0     C  854   3.354  11.683   5.596 -0.5328 -0.0265  0.2487
    7MOL0    Cl  855   3.531  11.704   5.589  0.0596  0.3346  0.3806
    7MOL0     C  856   3.154  10.834   5.093  0.0957  0.1324  0.4005
    7MOL0     C  857   3.098  10.800   4.967  0.2634 -1.8483  0.1667
    7MOL0     O  858   3.007  10.453   4.872  0.5287 -0.0542  0.5567
    7MOL0     C  859   2.914  10.401   4.611 -0.0716  0.3583 -0.2984
    7MOL0     C  860   2.868  10.365   4.485 -0.4994 -0.1975  0.5856
    7MOL0     N  861   2.938   9.885   3.870 -0.2648  0.1733  0.3247
    7MOL0     N  862   2.934   9.756   3.857  0.3644  0.2529 -0.1289
    7MOL0     C  863   2.294   8.738   4.330  0.6183  0.5768 -0.7690
    7MOL0     C  864   2.227   8.648   4.417  0.5460 -0.2338 -0.4210
    7MOL0     C  865   1.919   8.431   4.649 -0.5420 -0.1479  0.5263
    7MOL0     C  866   1.839   8.338   4.579 -0.3034  0.2809 -0.5316
    7MOL0     C  867   1.733   8.278   4.640  0.4998  0.3122 -0.5684
    7MOL0     C  868   1.693   8.310   4.772 -0.3556 -0.9840 -0.0950
    7MOL0     O  869   1.577   8.261   4.823 -0.4497  0.4081 -0.4504
    7MOL0     C  870   1.512   8.310   4.942 -0.1748 -1.3652  0.2692
    7MOL0     C  871   1.379   8.228   4.945 -0.2557  0.2642  0.4424
    7MOL0     C  872   1.259   8.294   5.017 -0.0263 -0.1473 -0.0502
    7MOL0     C  873   1.157   8.171   5.045 -0.1770 -0.6446  0.0004
    7MOL0     C  874   1.039   8.223   5.111  0.5672  0.4473 -0.6017
    7MOL0     C  875   0.946   8.276   5.164  0.3479  0.2995  0.8871
    7MOL0     C  876   1.773   8.399   4.843  0.6010  0.8101 -0.1577
    7MOL0     C  877   1.885   8.460   4.785 -0.5926 -0.3521 -0.2492
    7MOL0     H  878   2.018   8.497   4.198  0.6303 -1.1967 -1.1176
    7MOL0     H  879   2.131   8.644   4.052  0.7395 -4.3614 -0.0794
    7MOL0     H  880   2.299   8.977   4.255 -2.4461 -4.0848 -0.8189
    7MOL0     H  881   2.459   8.948   4.177  0.3799  0.8658  2.2385
    7MOL0     H  882   2.385   9.020   3.967 -1.7794 -1.0502 -1.3355
    7MOL0     H  883   2.230   9.076   4.044  0.2447 -0.0858  0.0087
    7MOL0     H  884   2.349   9.223   4.200 -1.6254 -0.2556  0.1403
    7MOL0     H  885   2.502   9.182   4.120 -0.2573  1.6493 -1.8329
    7MOL0     H  886   2.394   9.270   3.905 -2.4700 -1.3804  0.1035
    7MOL0     H  887   2.269   9.332   4.011 -1.5088 -4.6747  1.4394
    7MOL0     H  888   2.421   9.508   3.973  3.0780  0.4628 -1.4030
    7MOL0     H  889   2.447   9.461   4.147  0.5382 -0.1237 -0.0507
    7MOL0     H  890   2.649   9.359   4.098  1.1533  1.0204 -0.8805
    7MOL0     H  891   2.625   9.374   3.922  0.4904  1.4595 -1.6677
    7MOL0     H  892   2.619   9.643   3.959 -1.3581  0.4935  2.1810
    7MOL0     H  893   2.641   9.602   4.127  0.2142 -1.7381  0.5131
    7MOL0     H  894   2.829   9.510   3.902  2.8179  1.7343  1.3617
    7MOL0     H  895   2.873   9.540   4.065 -0.9170 -4.5903 -0.9839
    7MOL0     H  896   2.731   9.814   4.109 -0.2064 -1.0214  1.2700
    7MOL0     H  897   2.884  10.128   3.950  1.0622 -1.2024  0.4533
    7MOL0     H  898   2.731  10.097   4.033 -0.7462 -1.2996  4.7272
    7MOL0     H  899   3.003  10.067   4.176  0.3612  2.4789 -0.7594
    7MOL0     H  900   2.835  10.057   4.242  0.3849  1.9626  2.0374
    7MOL0     H  901   2.961  10.308   4.101 -1.8893  0.3695 -0.9972
    7MOL0     H  902   2.969  10.278   4.275 -1.2856  1.2852 -0.1185
    7MOL0     H  903   2.719  10.264   4.263  2.4676 -1.2892  0.9221
    7MOL0     H  904   2.734  10.351   4.109 -1.0360 -0.4194  1.5102
    7MOL0     H  905   2.900  10.674   4.346  2.3832 -0.7380  1.2575
    7MOL0     H  906   2.910  10.827   4.612 -0.9549  0.3134 -0.2341
    7MOL0     H  907   3.077  10.761   4.634 -0.9919  3.0089  0.1756
    7MOL0     H  908   3.029  10.807   4.477  3.3376 -0.7486  0.4713
    7MOL0     H  909   2.848  10.605   5.078  0.2128 -0.8688  4.8479
    7MOL0     H  910   2.945  10.674   5.305 -2.2356  2.0660 -0.9987
    7MOL0     H  911   3.330  10.738   5.404 -0.2140 -0.5238 -1.0044
    7MOL0     H  912   3.349  10.874   5.293  1.0744  0.3250  1.7330
    7MOL0     H  913   3.251  10.934   5.571 -3.1748 -0.5074 -1.3833
    7MOL0     H  914   3.420  10.941   5.523 -1.2338  1.3542  1.8364
    7MOL0     H  915   3.200  11.098   5.387 -1.4718  0.2452  2.2823
    7MOL0     H  916   3.380  11.109   5.356  1.8486  0.1919  2.5465
    7MOL0     H  917   3.229  11.191   5.610 -0.8462  1.2630 -0.2297
    7MOL0     H  918   3.403  11.187   5.589 -0.6403 -2.2788  1.3149
    7MOL0     H  919   3.185  11.358   5.481  0.0913  1.2501 -1.9688
    7MOL0     H  920   3.318  11.334   5.367 -1.9808  2.8980 -0.8516
    7MOL0     H  921   3.342  11.444   5.649 -0.1086 -0.7513  0.7474
    7MOL0     H  922   3.479  11.424   5.531 -0.2796  0.3331 -1.6321
    7MOL0     H  923   3.207  11.581   5.478  0.0876  0.1524  0.1897
    7MOL0     H  924   3.357  11.609   5.397  0.4374 -3.5233 -1.8711
    7MOL0     H  925   3.323  11.655   5.697 -1.6134  1.1004  0.2411
    7MOL0     H  926   3.308  11.778   5.569 -1.8706 -0.8036 -0.3130
    7MOL0     H  927   3.237  10.903   5.102 -1.8134  2.7566 -0.9187
    7MOL0     H  928   3.141  10.842   4.877 -1.8083 -0.6992 -0.3526
    7MOL0     H  929   2.924  10.314   4.676  2.1543  0.0987 -0.9176
    7MOL0     H  930   2.841  10.263   4.460 -1.7297  0.2500 -0.0062
    7MOL0     H  931   2.368   8.802   4.377  1.1889 -0.3295 -0.3937
    7MOL0     H  932   2.256   8.640   4.522 -1.4172 -2.9131  0.0169
    7MOL0     H  933   1.859   8.312   4.476 -0.0262  0.6393 -0.5735
    7MOL0     H  934   1.664   8.225   4.575 -0.3692  0.4236  0.2442
    7MOL0     H  935   1.570   8.287   5.032  0.3561 -1.6172 -0.1341
    7MOL0     H  936   1.489   8.417   4.935  0.9503 -1.0246  1.4225
    7MOL0     H  937   1.404   8.133   4.995 -1.9432 -1.5408 -1.9439
    7MOL0     H  938   1.345   8.205   4.844 -1.3841  3.4640 -0.0193
    7MOL0     H  939   1.222   8.365   4.942  0.0477 -1.4860 -1.4080
    7MOL0     H  940   1.286   8.338   5.113  1.2696 -0.0608 -0.4315
    7MOL0     H  941   1.205   8.100   5.112  1.7636  0.3842 -0.2113
    7MOL0     H  942   1.123   8.115   4.958 -0.7292 -2.0433  1.0900
    7MOL0     H  943   0.862   8.331   5.200  0.2062  0.6968 -0.0263
    7MOL0     H  944   1.756   8.434   4.944  2.3156  0.6479  0.2069
    7MOL0     H  945   1.941   8.526   4.851 -1.8687 -1.1615  1.7344
    8MOL0     O  946  10.527   3.778  10.400 -0.0936 -0.3912 -0.5105
    8MOL0     C  947  10.540   3.897  10.433 -0.8624 -0.4333  1.3337
    8MOL0     O  948  10.608   3.940  10.552 -1.6455 -0.2061 -0.0034
    8MOL0     C  949  10.662   3.845  10.639 -0.9372 -0.7350  0.6085
    8MOL0     C  950  10.799   3.826  10.632  0.4524 -0.6288 -1.1651
    8MOL0     C  951  10.863   3.724  10.709 -0.2982 -0.6455  0.6323
    8MOL0     C  952  10.783   3.642  10.788 -0.9735  0.3062 -0.2141
    8MOL0     O  953  10.849   3.556  10.864 -0.3223 -0.0165  1.3236
    8MOL0     C  954  10.803   3.547  11.003  0.2768  0.4419  0.2795
    8MOL0     C  955  10.916   3.486  11.101 -0.3389 -0.4421 -1.0380
    8MOL0     C  956  10.970   3.349  11.053  0.4227  0.3012 -0.4424
    8MOL0     C  957  11.086   3.310  11.147  0.9298  1.2167 -0.5714
    8MOL0     C  958  11.033   3.287  11.292  0.3260  0.8067  0.1417
    8MOL0     C  959  11.105   3.183  11.368 -0.4261 -0.0523  0.3217
    8MOL0     C  960  11.069   3.154  11.512 -0.3253 -0.8570  0.6654
    8MOL0     C  961  11.133   3.033  11.565 -0.0442  0.1141 -0.3453
    8MOL0     N  962  11.273   3.049  11.620 -0.1170  0.1606  0.0145
    8MOL0     C  963  11.280   3.065  11.760 -0.4710  0.2103  1.4658
    8MOL0     C  964  11.412   3.096  11.781  0.4089 -0.0280  0.1622
    8MOL0     C  965  11.473   3.106  11.920  0.2411 -0.2549  0.3025
    8MOL0     C  966  11.621   3.123  11.916 -0.1745 -0.8183  0.4021
    8MOL0     C  967  11.710   3.003  11.891  0.2288 -0.5228 -0.0494
    8MOL0     C  968  11.859   3.040  11.904 -0.4395  0.1918  0.0611
    8MOL0     O  969  11.883   3.078  12.043  0.1831 -0.2133 -0.7193
    8MOL0     C  970  12.013   3.128  12.091  0.8289  1.7434  0.2064
    8MOL0     C  971  12.135   3.107  12.032  0.7581 -0.3426  1.1144
    8MOL0     C  972  12.249   3.135  12.104 -0.3762  0.2261 -0.2197
    8MOL0     C  973  12.386   3.102  12.040  0.1341  0.2490 -0.7494
    8MOL0     C  974  12.237   3.203  12.229  0.3869 -0.4747 -0.0949
    8MOL0     C  975  12.342   3.270  12.298 -0.5547 -0.6877  0.4099
    8MOL0     O  976  12.472   3.225  12.284 -0.2326 -0.0006  0.2488
    8MOL0     C  977  12.580   3.293  12.331 -0.2921 -0.9128 -0.7268
    8MOL0     C  978  12.662   3.362  12.237 -0.8356  0.3214 -0.1052
    8MOL0     C  979  12.775   3.434  12.274  0.6247 -0.3946 -0.1664
    8MOL0     C  980  12.813   3.429  12.409  0.4073  0.9662 -0.0807
    8MOL0     O  981  12.921   3.494  12.469 -0.2513  0.2239 -0.5120
    8MOL0     C  982  13.038   3.517  12.389 -0.3673  0.3618 -0.1714
    8MOL0     C  983  13.111   3.635  12.442 -0.1427  0.3893 -0.4345
    8MOL0     C  984  13.260   3.638  12.391 -0.0540 -0.2449 -0.2208
    8MOL0     C  985  13.336   3.748  12.483  0.4437  0.0258 -0.6425
    8MOL0     C  986  13.487   3.766  12.448  0.1450  0.0367 -0.5214
    8MOL0     C  987  13.512   3.808  12.301 -0.6209  0.8023 -0.6143
    8MOL0     C  988  13.468   3.949  12.278  0.3754  0.4616 -0.2062
    8MOL0     C  989  13.516   3.996  12.132  0.5447 -1.0228 -0.6935
    8MOL0    Cl  990  13.696   3.995  12.112  0.1203  0.4688  0.3367
    8MOL0     C  991  12.742   3.357  12.505 -0.1412  0.0800 -0.1878
    8MOL0     C  992  12.621   3.295  12.464 -0.7916  0.1473 -0.5687
    8MOL0     O  993  12.317   3.375  12.362 -0.4731  0.2819  0.3013
    8MOL0     C  994  12.107   3.225  12.284  0.0613  1.1064  0.0834
    8MOL0     C  995  12.000   3.179  12.213  0.1816  0.5448 -1.2584
    8MOL0     N  996  11.479   3.079  11.654  0.7554  0.7567  0.2915
    8MOL0     N  997  11.388   3.061  11.561 -1.3929  0.8620  0.5801
    8MOL0     C  998  10.643   3.653  10.786 -0.2962  0.4367 -0.7283
    8MOL0     C  999  10.592   3.755  10.712  0.9964 -0.1991 -0.2722
    8MOL0     C 1000  10.474   3.989  10.333  0.9018 -0.5462 -0.2431
    8MOL0     C 1001  10.506   4.126  10.337 -0.0696 -0.7524  0.5572
    8MOL0     C 1002  10.438   4.221  10.258  0.5490  0.5884 -1.4968
    8MOL0     C 1003  10.329   4.182  10.187  0.1246  0.0705  0.5824
    8MOL0     O 1004  10.253   4.260  10.104 -0.0629  0.9184 -0.4421
    8MOL0     C 1005  10.323   4.286   9.978 -0.6193  1.1251  0.2932
    8MOL0     C 1006  10.368   4.159   9.900  0.4295  0.4841 -0.0929
    8MOL0     C 1007  10.432   4.220   9.763  0.4548  0.6247  0.2651
    8MOL0     C 1008  10.393   4.126   9.651  0.6817  0.3213  1.2017
    8MOL0     C 1009  10.488   4.090   9.548 -0.1941 -0.2505 -0.4275
    8MOL0     C 1010  10.534   4.073   9.439 -0.8421 -0.1758  0.0640
    8MOL0     C 1011  10.291   4.047  10.194  0.3915  0.8187  0.0537
    8MOL0     C 1012  10.364   3.956  10.262 -0.4021  0.6210  0.0752
    8MOL0     H 1013  10.864   3.880  10.564  3.3440 -2.3926 -0.0163
    8MOL0     H 1014  10.971   3.719  10.707 -0.1779  1.2886 -1.1014
    8MOL0     H 1015  10.778   3.648  11.036  2.9440  1.5101 -0.6821
    8MOL0     H 1016  10.718   3.478  11.005  0.0203  0.7602  0.4326
    8MOL0     H 1017  10.997   3.559  11.110 -0.8461  0.3516 -2.5552
    8MOL0     H 1018  10.877   3.469  11.202 -0.5635  0.0156 -1.0431
    8MOL0     H 1019  10.891   3.274  11.050 -0.6873  1.4204  0.0065
    8MOL0     H 1020  11.008   3.356  10.951  0.4021  2.3751 -0.3525
    8MOL0     H 1021  11.129   3.219  11.104  0.9097  0.2434  1.3210
    8MOL0     H 1022  11.165   3.385  11.153  1.3866  0.7891 -1.2108
    8MOL0     H 1023  11.029   3.376  11.355  0.7274  0.4091  0.7360
    8MOL0     H 1024  10.927   3.261  11.285  0.5943 -0.2797 -0.0909
    8MOL0     H 1025  11.101   3.082  11.325  1.1617 -0.9719  2.1653
    8MOL0     H 1026  11.209   3.215  11.357 -0.3759 -0.1233  0.5848
    8MOL0     H 1027  11.090   3.237  11.580  0.6703  0.2179 -0.8786
    8MOL0     H 1028  10.961   3.142  11.507 -0.2019 -2.7956  1.5758
    8MOL0     H 1029  11.136   2.950  11.493 -2.0874 -0.2864 -0.0227
    8MOL0     H 1030  11.072   3.004  11.651  1.5315  1.1625  1.2140
    8MOL0     H 1031  11.203   3.035  11.831 -1.8918 -1.9099 -0.7930
    8MOL0     H 1032  11.423   3.185  11.976  1.4073  1.1213 -0.5489
    8MOL0     H 1033  11.449   3.005  11.955  2.4692 -1.5152 -1.5314
    8MOL0     H 1034  11.645   3.173  12.011 -2.4370 -0.2466  0.7273
    8MOL0     H 1035  11.632   3.206  11.846  2.1233  0.2410  1.8985
    8MOL0     H 1036  11.700   2.959  11.791 -3.1465 -0.3535  0.1234
    8MOL0     H 1037  11.699   2.927  11.969  0.1382  0.2854  0.7389
    8MOL0     H 1038  11.875   3.116  11.827 -0.2373 -0.2258 -0.3080
    8MOL0     H 1039  11.920   2.954  11.879 -0.5263  0.6410 -1.8537
    8MOL0     H 1040  12.143   3.060  11.934 -0.0083 -2.3284  1.9319
    8MOL0     H 1041  12.439   3.197  12.027  0.4039  0.3342  0.7532
    8MOL0     H 1042  12.443   3.024  12.092 -2.0591 -1.3611 -0.5983
    8MOL0     H 1043  12.381   3.071  11.935  3.1454  1.8458 -1.4728
    8MOL0     H 1044  12.639   3.355  12.131  1.9310  0.2653 -0.7701
    8MOL0     H 1045  12.818   3.487  12.191 -1.6025  1.7499 -0.0741
    8MOL0     H 1046  13.090   3.421  12.393 -2.3158 -0.8533 -1.8181
    8MOL0     H 1047  13.012   3.537  12.284  0.7796 -0.4961 -0.6290
    8MOL0     H 1048  13.060   3.727  12.411 -0.1867  0.2979 -0.6316
    8MOL0     H 1049  13.105   3.635  12.551  0.0622  1.0664 -0.4212
    8MOL0     H 1050  13.271   3.659  12.285  1.6322 -1.5308 -0.3422
    8MOL0     H 1051  13.314   3.544  12.407  0.1311 -0.5410 -2.3374
    8MOL0     H 1052  13.285   3.844  12.493 -1.1543 -0.8934  0.6016
    8MOL0     H 1053  13.340   3.704  12.583 -0.3617 -0.6008 -0.8687
    8MOL0     H 1054  13.532   3.667  12.455  3.6007  1.5609  1.0982
    8MOL0     H 1055  13.553   3.827  12.510  1.1411 -0.1430 -1.3828
    8MOL0     H 1056  13.621   3.817  12.293 -0.3569  1.4237  2.3384
    8MOL0     H 1057  13.472   3.736  12.229  0.2010 -0.3416  0.0328
    8MOL0     H 1058  13.516   4.017  12.349 -0.5439  0.2577  0.6358
    8MOL0     H 1059  13.363   3.934  12.301  1.6972 -4.5625  4.8890
    8MOL0     H 1060  13.465   4.092  12.120 -1.4458 -2.2206 -2.7935
    8MOL0     H 1061  13.469   3.935  12.054  0.5434 -0.3655 -1.2153
    8MOL0     H 1062  12.788   3.351  12.603  0.1934  2.6927 -0.1163
    8MOL0     H 1063  12.560   3.234  12.531 -0.0414 -0.8240 -0.7363
    8MOL0     H 1064  12.107   3.274  12.381  3.1919  2.1247 -0.3124
    8MOL0     H 1065  11.902   3.197  12.258 -0.4226 -1.5700 -1.6184
    8MOL0     H 1066  10.574   3.593  10.844 -3.2331  3.3491 -0.8660
    8MOL0     H 1067  10.485   3.774  10.715  1.1302  0.5625  0.9148
    8MOL0     H 1068  10.592   4.148  10.399  1.8213 -1.0088 -1.8452
    8MOL0     H 1069  10.465   4.326  10.266 -1.3103  1.1967 -2.6204
    8MOL0     H 1070  10.249   4.333   9.913  0.5572  2.1476 -0.3401
    8MOL0     H 1071  10.412   4.344  10.005  1.7931 -1.4886 -1.3540
    8MOL0     H 1072  10.280   4.095   9.887  0.6546  0.1646 -0.0589
    8MOL0     H 1073  10.446   4.092   9.938 -0.6981 -0.0775  1.3231
    8MOL0     H 1074  10.540   4.221   9.777  0.1929  1.4513  2.7682
    8MOL0     H 1075  10.389   4.313   9.726  2.2305  0.9662 -1.0278
    8MOL0     H 1076  10.303   4.170   9.608  1.6904  0.2337 -1.1533
    8MOL0     H 1077  10.369   4.027   9.691 -1.0833  0.7091  1.1988
    8MOL0     H 1078  10.570   4.065   9.338 -0.1442 -2.3293  0.4212
    8MOL0     H 1079  10.209   4.018  10.128 -0.0395  1.9555  0.0781
    8MOL0     H 1080  10.329   3.853  10.268 -0.9422  0.7245 -0.9333
    9MOL0     O 1081   1.284   5.543   9.195 -0.6908  0.1390  0.5404
    9MOL0     C 1082   1.284   5.534   9.071  0.9461 -0.7829 -0.8217
    9MOL0     O 1083   1.209   5.438   9.005 -0.7118 -0.2081 -0.3800
    9MOL0     C 1084   1.168   5.323   9.067  0.8688  0.1913 -0.1462
    9MOL0     C 1085   1.047   5.274   9.028 -0.6258 -0.0884  0.5316
    9MOL0     C 1086   1.002   5.158   9.090 -0.7451  0.3896  0.5512
    9MOL0     C 1087   1.073   5.083   9.185  0.0347  0.1121  0.3070
    9MOL0     O 1088   1.012   4.969   9.230 -0.3177 -0.5119  0.3665
    9MOL0     C 1089   1.085   4.877   9.308 -0.5387 -1.1624  0.4364
    9MOL0     C 1090   1.004   4.749   9.335 -0.1733 -1.1121  0.3008
    9MOL0     C 1091   0.866   4.778   9.388  0.8021  0.3331  1.4542
    9MOL0     C 1092   0.817   4.659   9.473 -0.2685  0.3109  0.8798
    9MOL0     C 1093   0.695   4.676   9.565  0.0691  0.6126  0.3579
    9MOL0     C 1094   0.573   4.709   9.479  0.5959 -0.5218 -0.2272
    9MOL0     C 1095   0.453   4.731   9.581 -0.4583  0.5516 -0.6836
    9MOL0     C 1096   0.323   4.791   9.528  0.0763 -0.9375  1.0197
    9MOL0     N 1097   0.357   4.906   9.450 -0.4636 -0.1582 -0.3900
    9MOL0     C 1098   0.373   4.910   9.312 -0.3795 -0.2359 -0.1874
    9MOL0     C 1099   0.439   5.025   9.294  0.8265  0.3330 -0.4032
    9MOL0     C 1100   0.468   5.097   9.166  0.1447 -0.0803 -0.0210
    9MOL0     C 1101   0.450   4.994   9.049 -0.1997 -0.4922 -0.1589
    9MOL0     C 1102   0.582   4.908   9.027  0.0626 -0.5629  0.7726
    9MOL0     C 1103   0.685   4.986   8.942 -0.1485  0.4575 -0.1335
    9MOL0     O 1104   0.640   4.976   8.801  0.0459 -0.0925 -0.5942
    9MOL0     C 1105   0.708   5.033   8.703 -0.5293  0.1956  0.6318
    9MOL0     C 1106   0.642   5.027   8.580 -0.2961  0.0911  0.0994
    9MOL0     C 1107   0.694   5.070   8.457  0.0922  0.9640 -0.0601
    9MOL0     C 1108   0.628   5.040   8.335 -0.4723 -0.1078  0.0995
    9MOL0     C 1109   0.819   5.122   8.465  0.7060  0.1056 -0.0039
    9MOL0     C 1110   0.897   5.153   8.344 -0.4991 -0.1427  0.4906
    9MOL0     O 1111   1.020   5.098   8.345  0.4344 -0.4669 -0.1282
    9MOL0     C 1112   1.135   5.126   8.282  0.4278  0.0404  0.2844
    9MOL0     C 1113   1.242   5.037   8.283  0.2787  0.1785  0.5982
    9MOL0     C 1114   1.359   5.069   8.200 -0.9395  0.1189 -0.1406
    9MOL0     C 1115   1.373   5.181   8.126  0.5970  0.8142 -0.9385
    9MOL0     O 1116   1.485   5.211   8.053  0.3688 -0.2654 -0.7048
    9MOL0     C 1117   1.545   5.093   7.995 -0.2749  0.2028 -0.3391
    9MOL0     C 1118   1.621   5.118   7.864 -0.3986  0.1221 -0.9034
    9MOL0     C 1119   1.529   5.127   7.745 -0.6781 -0.3745  0.1634
    9MOL0     C 1120   1.431   5.250   7.754 -0.3837 -0.0858  0.2873
    9MOL0     C 1121   1.373   5.277   7.609  0.4411 -0.7060 -0.3506
    9MOL0     C 1122   1.314   5.417   7.608 -0.0540  0.3864  0.1072
    9MOL0     C 1123   1.259   5.466   7.480 -1.6253  0.2044 -0.0415
    9MOL0     C 1124   1.100   5.470   7.486  0.1877 -0.9059 -0.0261
    9MOL0    Cl 1125   1.046   5.580   7.597  0.1011  0.7271  0.3310
    9MOL0     C 1126   1.263   5.273   8.140  0.7619  0.1963  0.7408
    9MOL0     C 1127   1.146   5.242   8.212 -1.3951 -0.8159 -0.0629
    9MOL0     O 1128   0.855   5.232   8.261 -1.0780 -0.2219 -0.3425
    9MOL0     C 1129   0.892   5.141   8.592  0.8249 -0.3714  0.0663
    9MOL0     C 1130   0.832   5.100   8.713  0.2238 -0.0444  0.2334
    9MOL0     N 1131   0.459   5.086   9.411 -0.3801  0.1287  1.3092
    9MOL0     N 1132   0.415   5.017   9.501 -0.5348 -0.1455 -0.3124
    9MOL0     C 1133   1.204   5.121   9.211  0.1010 -1.0583 -0.2307
    9MOL0     C 1134   1.237   5.249   9.170 -0.3344 -0.7005  0.5687
    9MOL0     C 1135   1.355   5.648   8.991  0.5013 -0.2047 -0.8566
    9MOL0     C 1136   1.408   5.758   9.058 -0.3571  0.2423  0.1182
    9MOL0     C 1137   1.467   5.855   8.980 -0.4109  0.5708  0.6037
    9MOL0     C 1138   1.463   5.852   8.842 -0.3683 -0.9184 -0.1024
    9MOL0     O 1139   1.503   5.959   8.758  0.1375  0.2731  0.1455
    9MOL0     C 1140   1.606   6.050   8.802 -0.1999  0.1625  0.2008
    9MOL0     C 1141   1.669   6.117   8.670 -0.7679 -0.0649  0.7901
    9MOL0     C 1142   1.706   6.011   8.564  0.4880 -0.2473 -0.1209
    9MOL0     C 1143   1.827   6.040   8.475 -0.5794 -0.0353  0.6122
    9MOL0     C 1144   1.873   5.924   8.393 -0.0647  0.1240  0.2730
    9MOL0     C 1145   1.898   5.827   8.325 -0.1372  0.3255  0.3691
    9MOL0     C 1146   1.397   5.744   8.780 -0.3006 -0.1750  0.0092
    9MOL0     C 1147   1.343   5.640   8.857  0.1663  0.0771 -0.1538
    9MOL0     H 1148   0.979   5.323   8.959 -1.3637  0.8080  1.8566
    9MOL0     H 1149   0.904   5.121   9.061  0.9821 -2.7024 -1.9618
    9MOL0     H 1150   1.175   4.854   9.250 -0.4250 -0.9818  0.5408
    9MOL0     H 1151   1.120   4.926   9.399  1.4552 -2.9512  0.6913
    9MOL0     H 1152   0.998   4.685   9.246 -0.1668 -2.2192  1.0868
    9MOL0     H 1153   1.054   4.688   9.410 -1.3265  0.6248  2.5913
    9MOL0     H 1154   0.839   4.872   9.437 -4.1214  0.1810 -0.4448
    9MOL0     H 1155   0.799   4.770   9.302 -0.0966  0.4757  2.1197
    9MOL0     H 1156   0.802   4.568   9.415 -0.8805  0.5502  0.6547
    9MOL0     H 1157   0.904   4.634   9.535  0.8970  0.7901 -0.5185
    9MOL0     H 1158   0.679   4.579   9.614 -3.7374 -0.0557 -1.7789
    9MOL0     H 1159   0.717   4.762   9.628 -0.4549  0.9302  0.1041
    9MOL0     H 1160   0.596   4.803   9.427  2.3271  0.0588  1.4715
    9MOL0     H 1161   0.553   4.633   9.403  2.0573  1.1837 -2.4605
    9MOL0     H 1162   0.423   4.635   9.624 -0.4672 -0.2452 -2.3857
    9MOL0     H 1163   0.478   4.802   9.660 -0.9559 -0.7516  0.7049
    9MOL0     H 1164   0.257   4.802   9.614  2.8262 -1.3214  3.3282
    9MOL0     H 1165   0.284   4.716   9.458  2.2549 -1.5868  0.4110
    9MOL0     H 1166   0.350   4.835   9.237  2.4853 -1.7003  0.2468
    9MOL0     H 1167   0.390   5.171   9.144 -0.5238 -1.1890 -1.5863
    9MOL0     H 1168   0.562   5.151   9.159  0.3399  0.0963  2.9749
    9MOL0     H 1169   0.435   5.058   8.961  0.6187 -2.1144 -1.5488
    9MOL0     H 1170   0.367   4.925   9.065  1.3974 -2.1113  1.7406
    9MOL0     H 1171   0.566   4.817   8.969  3.7157 -0.3310 -0.9090
    9MOL0     H 1172   0.627   4.885   9.124  0.2504 -1.5039  0.4695
    9MOL0     H 1173   0.789   4.958   8.960 -0.1594  1.8605  2.7166
    9MOL0     H 1174   0.690   5.091   8.972  4.0992  0.7290 -1.1157
    9MOL0     H 1175   0.545   4.978   8.581 -1.9203  3.0254 -0.5241
    9MOL0     H 1176   0.695   4.982   8.271  0.0231  0.2698  0.2727
    9MOL0     H 1177   0.530   4.990   8.342 -0.4069 -0.1341  0.9039
    9MOL0     H 1178   0.596   5.133   8.287 -2.3307 -0.6113  0.2571
    9MOL0     H 1179   1.239   4.952   8.350 -0.6712 -0.5957 -0.3987
    9MOL0     H 1180   1.445   5.005   8.214 -0.8996 -0.1643 -1.5314
    9MOL0     H 1181   1.624   5.056   8.062  0.2460  1.3821 -0.2923
    9MOL0     H 1182   1.468   5.016   7.980 -0.1207 -1.1384  4.1528
    9MOL0     H 1183   1.692   5.201   7.867 -2.8050  2.2599  0.7061
    9MOL0     H 1184   1.680   5.028   7.843  4.0199  3.5943 -6.0039
    9MOL0     H 1185   1.473   5.035   7.727 -1.2028 -0.1779  0.7500
    9MOL0     H 1186   1.594   5.136   7.657 -3.2280  1.6138 -1.6801
    9MOL0     H 1187   1.347   5.236   7.823 -0.7524  0.3279 -0.0670
    9MOL0     H 1188   1.491   5.333   7.792 -1.2397  0.6524  0.0447
    9MOL0     H 1189   1.311   5.196   7.573 -1.5345  1.3183 -1.7854
    9MOL0     H 1190   1.460   5.291   7.544 -0.6293 -2.2058 -2.2041
    9MOL0     H 1191   1.247   5.412   7.694 -0.6486  0.7745 -0.3231
    9MOL0     H 1192   1.394   5.488   7.632 -0.9356  1.6117 -0.4223
    9MOL0     H 1193   1.296   5.393   7.407  3.7333 -0.4162  2.7895
    9MOL0     H 1194   1.300   5.566   7.460 -0.1728 -0.5174 -0.8588
    9MOL0     H 1195   1.064   5.367   7.499  1.0835 -1.6710 -2.8208
    9MOL0     H 1196   1.059   5.516   7.395  0.2530  1.0981  0.9076
    9MOL0     H 1197   1.267   5.356   8.070 -1.2011 -1.3767 -1.4176
    9MOL0     H 1198   1.058   5.304   8.221 -0.8432 -0.2607  2.4661
    9MOL0     H 1199   0.980   5.204   8.603 -0.2100  0.9917  0.9759
    9MOL0     H 1200   0.867   5.111   8.815 -0.2175  1.0026  0.2919
    9MOL0     H 1201   1.249   5.072   9.297  1.6388  2.8617  1.3919
    9MOL0     H 1202   1.331   5.292   9.204  0.1648 -1.0726 -0.2966
    9MOL0     H 1203   1.405   5.772   9.166  2.6698 -3.2388  0.8796
    9MOL0     H 1204   1.510   5.947   9.019 -1.0048  1.2531 -0.2883
    9MOL0     H 1205   1.553   6.128   8.859 -0.4069 -0.4332  0.8333
    9MOL0     H 1206   1.670   6.000   8.875  1.0028  3.5967  1.6966
    9MOL0     H 1207   1.757   6.173   8.702 -0.8063 -0.8855  2.4906
    9MOL0     H 1208   1.593   6.187   8.634 -0.5374 -0.2490 -0.0754
    9MOL0     H 1209   1.614   6.008   8.504 -1.5862  4.1871  2.3679
    9MOL0     H 1210   1.719   5.910   8.605 -3.5359 -1.3289 -1.0208
    9MOL0     H 1211   1.911   6.077   8.534 -0.2152  2.8353 -1.4995
    9MOL0     H 1212   1.800   6.122   8.407 -3.8803 -0.6486  0.9789
    9MOL0     H 1213   1.915   5.755   8.247 -2.2294  2.4359 -2.2335
    9MOL0     H 1214   1.390   5.746   8.672  1.6681  1.1817 -0.1433
    9MOL0     H 1215   1.295   5.554   8.811  1.1373 -1.0437  0.8667
   10MOL0     O 1216   6.421   7.877  10.760  0.2049  0.0398  0.2343
   10MOL0     C 1217   6.356   7.972  10.714  0.6534  0.9754 -0.4548
   10MOL0     O 1218   6.377   8.101  10.744  0.1456 -0.5726 -0.5468
   10MOL0     C 1219   6.438   8.126  10.864 -0.0259 -0.0539  0.1619
   10MOL0     C 1220   6.384   8.082  10.981 -0.7304 -0.8069 -0.5275
   10MOL0     C 1221   6.461   8.123  11.099 -0.5480  0.7768  0.1007
   10MOL0     C 1222   6.564   8.219  11.102  0.1655 -0.0267  0.3738
   10MOL0     O 1223   6.629   8.248  11.217  0.6591  0.1121 -0.4686
   10MOL0     C 1224   6.556   8.318  11.317  0.3820 -0.4074 -0.6912
   10MOL0     C 1225   6.650   8.380  11.419 -0.4697  0.1707 -0.0327
   10MOL0     C 1226   6.574   8.462  11.532 -0.5173  0.9693 -0.3709
   10MOL0     C 1227   6.567   8.605  11.473  0.2614 -0.3973  0.0447
   10MOL0     C 1228   6.494   8.700  11.561  1.0998  0.0854  0.1599
   10MOL0     C 1229   6.467   8.832  11.479  0.6606  0.7909 -1.0004
   10MOL0     C 1230   6.442   8.937  11.574 -0.4654  0.2888 -0.2360
   10MOL0     C 1231   6.402   9.072  11.515 -0.2429  0.2694 -0.1240
   10MOL0     N 1232   6.356   9.161  11.621  0.1198  0.2016 -0.3468
   10MOL0     C 1233   6.219   9.188  11.653 -0.2051  0.3608 -0.2121
   10MOL0     C 1234   6.216   9.300  11.718 -0.7336 -1.1047 -0.3912
   10MOL0     C 1235   6.081   9.372  11.746 -0.0159  0.7351 -0.4076
   10MOL0     C 1236   6.038   9.475  11.644  0.0720 -0.2360  0.3291
   10MOL0     C 1237   6.059   9.445  11.499  0.1572  0.3199  0.3096
   10MOL0     C 1238   5.984   9.316  11.451  0.6552 -0.3773  0.7971
   10MOL0     O 1239   5.843   9.335  11.408 -0.4172  0.8642  0.1665
   10MOL0     C 1240   5.826   9.365  11.278 -0.6519 -0.3431  1.3917
   10MOL0     C 1241   5.852   9.266  11.180 -0.0895  0.2466  0.7925
   10MOL0     C 1242   5.820   9.287  11.044  0.6885 -0.1211 -1.1989
   10MOL0     C 1243   5.825   9.167  10.947 -0.0499  0.4897 -0.1279
   10MOL0     C 1244   5.776   9.419  11.001 -0.7670 -0.2374 -0.2115
   10MOL0     C 1245   5.746   9.445  10.859 -0.1747  0.0726 -0.6583
   10MOL0     O 1246   5.832   9.516  10.796 -0.4800  0.6827  0.8619
   10MOL0     C 1247   5.821   9.537  10.656  0.7883 -0.3271 -0.0911
   10MOL0     C 1248   5.711   9.615  10.605  0.5006 -0.5729  0.2027
   10MOL0     C 1249   5.709   9.652  10.469  0.7414 -0.2153  0.6258
   10MOL0     C 1250   5.816   9.617  10.391 -0.8037 -0.1811 -0.1372
   10MOL0     O 1251   5.806   9.648  10.256  0.6396  0.0760  0.3612
   10MOL0     C 1252   5.884   9.586  10.151 -0.6780  0.3859 -0.8134
   10MOL0     C 1253   5.837   9.599  10.001 -0.5838  0.0922 -0.2784
   10MOL0     C 1254   5.855   9.734   9.950 -0.0178  0.0609  0.6189
   10MOL0     C 1255   5.755   9.833  10.004  0.2068 -0.3998  0.1008
   10MOL0     C 1256   5.735   9.960   9.918  0.8388  0.3878 -0.6400
   10MOL0     C 1257   5.659  10.080   9.981 -1.1010  0.6537  0.1276
   10MOL0     C 1258   5.514  10.045  10.000  0.3606  0.4955 -0.8975
   10MOL0     C 1259   5.423  10.058   9.878 -0.4101  0.1051  0.5965
   10MOL0    Cl 1260   5.416  10.222   9.812  0.5143  0.2677  0.3383
   10MOL0     C 1261   5.932   9.547  10.440  0.1292  0.5496  0.5740
   10MOL0     C 1262   5.931   9.509  10.577  0.2704  0.4960  0.0714
   10MOL0     O 1263   5.657   9.377  10.812 -0.4283  0.4226  0.0645
   10MOL0     C 1264   5.764   9.519  11.104 -0.5299 -0.1974  0.3305
   10MOL0     C 1265   5.780   9.491  11.237  0.6252  0.8833 -0.3174
   10MOL0     N 1266   6.344   9.344  11.732  1.2966  0.1137  0.1580
   10MOL0     N 1267   6.424   9.262  11.679 -0.8061 -0.0425  0.3823
   10MOL0     C 1268   6.606   8.269  10.975  0.2814 -0.7047 -0.1292
   10MOL0     C 1269   6.545   8.216  10.860  0.2741 -1.2090 -0.3499
   10MOL0     C 1270   6.244   7.942  10.631 -0.6421 -0.8009 -0.3923
   10MOL0     C 1271   6.226   7.808  10.590  0.2236 -0.2544 -0.1478
   10MOL0     C 1272   6.106   7.770  10.533  1.1244 -0.5482  0.2220
   10MOL0     C 1273   6.013   7.872  10.492 -0.7217  0.3088 -0.1078
   10MOL0     O 1274   5.894   7.842  10.437 -0.1297  0.9009  0.4422
   10MOL0     C 1275   5.892   7.723  10.361 -0.4472  0.4587 -0.4204
   10MOL0     C 1276   5.772   7.712  10.274  0.3591 -0.0524 -1.0530
   10MOL0     C 1277   5.636   7.674  10.368 -0.3943 -0.0649 -0.7223
   10MOL0     C 1278   5.521   7.652  10.270 -0.6455  0.5675 -1.3795
   10MOL0     C 1279   5.388   7.682  10.324  0.5599  0.5357  0.0119
   10MOL0     C 1280   5.283   7.706  10.371 -0.2742  0.6828 -0.4600
   10MOL0     C 1281   6.044   8.007  10.510 -0.1123 -0.1724 -0.5208
   10MOL0     C 1282   6.155   8.044  10.587 -0.5172 -0.1909  0.2151
   10MOL0     H 1283   6.307   8.005  10.980 -0.2740 -1.2871  0.4096
   10MOL0     H 1284   6.426   8.087  11.195  0.2633  0.0673  0.1401
   10MOL0     H 1285   6.488   8.393  11.277 -1.1305 -0.1480  2.0705
   10MOL0     H 1286   6.486   8.250  11.367 -0.0571  0.5794  0.0690
   10MOL0     H 1287   6.707   8.298  11.464 -0.8485 -2.1582 -3.4173
   10MOL0     H 1288   6.702   8.458  11.364 -3.8654  2.9656  0.3352
   10MOL0     H 1289   6.470   8.430  11.543 -0.5560  1.9067  2.9490
   10MOL0     H 1290   6.612   8.463  11.635 -4.4173 -2.0567  1.3339
   10MOL0     H 1291   6.664   8.649  11.450 -1.3261  1.8674 -3.0374
   10MOL0     H 1292   6.515   8.599  11.377 -1.2358  4.2419  0.3428
   10MOL0     H 1293   6.399   8.653  11.588  0.6305  0.3375 -0.9686
   10MOL0     H 1294   6.543   8.720  11.656 -0.7648  1.4956  0.8896
   10MOL0     H 1295   6.564   8.851  11.433  0.3358  0.3082 -1.8902
   10MOL0     H 1296   6.378   8.827  11.417  2.5675 -2.3267 -3.8275
   10MOL0     H 1297   6.360   8.914  11.643  1.3440  1.0786  2.3525
   10MOL0     H 1298   6.531   8.939  11.637 -2.3829 -1.2143  2.7481
   10MOL0     H 1299   6.327   9.060  11.436 -0.0323 -3.2254  0.0557
   10MOL0     H 1300   6.495   9.110  11.472  0.6814 -0.2467  1.3634
   10MOL0     H 1301   6.132   9.131  11.623  1.6066 -1.2196 -2.9824
   10MOL0     H 1302   6.010   9.292  11.766 -0.4426  1.1846 -0.0968
   10MOL0     H 1303   6.097   9.420  11.843  1.9072  2.4303 -1.4658
   10MOL0     H 1304   6.097   9.564  11.666  1.0549  0.2123 -3.4466
   10MOL0     H 1305   5.936   9.500  11.674 -0.4371 -0.5080 -1.0797
   10MOL0     H 1306   6.169   9.440  11.496  0.1996 -0.9462  2.4563
   10MOL0     H 1307   6.034   9.530  11.435 -1.4080 -1.4842 -1.5945
   10MOL0     H 1308   5.980   9.241  11.530  3.8175 -0.2816  1.1767
   10MOL0     H 1309   6.045   9.277  11.369  0.8056  0.1510  0.6551
   10MOL0     H 1310   5.876   9.164  11.208 -3.7190 -0.7484  0.7038
   10MOL0     H 1311   5.880   9.197  10.857  2.3903 -1.6844  0.5043
   10MOL0     H 1312   5.884   9.087  10.993  0.4313 -0.1522 -1.7778
   10MOL0     H 1313   5.723   9.134  10.926  0.7511 -0.7844 -2.4348
   10MOL0     H 1314   5.620   9.637  10.658 -0.5095 -4.5648  0.4492
   10MOL0     H 1315   5.631   9.716  10.428  0.8741  1.2732  2.5562
   10MOL0     H 1316   5.985   9.626  10.168  0.9301 -3.0198 -1.5621
   10MOL0     H 1317   5.892   9.479  10.172 -3.0977  0.7433  3.2163
   10MOL0     H 1318   5.907   9.532   9.950  1.0080  1.8505 -0.5161
   10MOL0     H 1319   5.735   9.561   9.992 -0.0845 -1.1085 -1.1643
   10MOL0     H 1320   5.854   9.748   9.841 -2.2623  1.8645  0.7893
   10MOL0     H 1321   5.954   9.767   9.982  0.3475 -1.7434  1.4579
   10MOL0     H 1322   5.658   9.785  10.014  0.5011 -0.9487  0.3538
   10MOL0     H 1323   5.787   9.874  10.100  0.6877  0.8025 -0.5452
   10MOL0     H 1324   5.691   9.923   9.824  1.3057  1.3789 -1.2683
   10MOL0     H 1325   5.830   9.997   9.879  2.0881 -0.9054  1.0150
   10MOL0     H 1326   5.708  10.107  10.075  1.3343 -2.3911 -0.1112
   10MOL0     H 1327   5.670  10.171   9.922 -1.9837  0.9175  0.3467
   10MOL0     H 1328   5.481  10.120  10.072  2.3738  1.9066 -1.3520
   10MOL0     H 1329   5.496   9.946  10.041  1.4625  0.7921  0.3544
   10MOL0     H 1330   5.322  10.030   9.910  0.9640 -2.2186  3.2863
   10MOL0     H 1331   5.446   9.978   9.807 -0.5001  0.9727 -0.4525
   10MOL0     H 1332   6.022   9.542  10.380 -0.7230  3.8386 -1.2619
   10MOL0     H 1333   6.013   9.455  10.625  1.1739  0.3866 -1.5146
   10MOL0     H 1334   5.753   9.623  11.074  3.5412  0.3949  0.3335
   10MOL0     H 1335   5.768   9.568  11.314 -0.2698  0.2551  0.1858
   10MOL0     H 1336   6.691   8.337  10.972  0.1995 -0.6123 -0.3444
   10MOL0     H 1337   6.591   8.256  10.769  2.2457  1.3222  1.5985
   10MOL0     H 1338   6.300   7.731  10.608 -0.7858 -1.3993 -0.7418
   10MOL0     H 1339   6.086   7.664  10.518 -0.5310  0.1106 -2.9127
   10MOL0     H 1340   5.982   7.713  10.299 -0.5169  2.0032 -0.8185
   10MOL0     H 1341   5.888   7.643  10.435 -1.1763  1.6012  0.8192
   10MOL0     H 1342   5.780   7.636  10.195 -1.9993  0.3713 -1.7604
   10MOL0     H 1343   5.756   7.805  10.219 -4.1923 -0.4560 -0.7908
   10MOL0     H 1344   5.611   7.753  10.439  1.8439 -1.6589  2.0666
   10MOL0     H 1345   5.666   7.585  10.424  1.3038  0.5710 -0.5385
   10MOL0     H 1346   5.527   7.551  10.230 -1.2924 -0.9968  2.1018
   10MOL0     H 1347   5.521   7.718  10.183 -0.0486 -1.3412 -2.8901
   10MOL0     H 1348   5.193   7.738  10.420 -0.6554  3.1554 -2.5191
   10MOL0     H 1349   5.984   8.087  10.467  0.3653  1.2388  1.2756
   10MOL0     H 1350   6.191   8.146  10.596  1.9927 -0.9787 -0.0973
   11MOL0     O 1351   7.710   3.190   3.866  0.3597  0.4561 -0.8021
   11MOL0     C 1352   7.826   3.231   3.878  0.2729 -0.0919  0.1507
   11MOL0     O 1353   7.881   3.292   3.989  0.0251  0.4453  0.5467
   11MOL0     C 1354   7.805   3.326   4.100  0.5772 -0.3816 -0.3809
   11MOL0     C 1355   7.761   3.219   4.183  0.0290 -0.3933  0.1405
   11MOL0     C 1356   7.722   3.245   4.312  0.4387 -1.4619  0.4443
   11MOL0     C 1357   7.714   3.374   4.358  0.3267 -0.7212  0.9751
   11MOL0     O 1358   7.667   3.405   4.491  0.0205  0.0177  0.1595
   11MOL0     C 1359   7.605   3.293   4.565  0.2571 -0.3747  0.3406
   11MOL0     C 1360   7.502   3.373   4.645  1.2252 -0.4450  0.0346
   11MOL0     C 1361   7.396   3.279   4.709 -0.1034  0.0399 -0.1632
   11MOL0     C 1362   7.293   3.356   4.794  0.2483 -0.1741  0.1503
   11MOL0     C 1363   7.222   3.256   4.885 -0.2617  0.6259 -0.1607
   11MOL0     C 1364   7.178   3.338   4.998  0.7794  0.4156  0.0001
   11MOL0     C 1365   7.059   3.251   5.068  0.2436  0.6854  0.7681
   11MOL0     C 1366   7.022   3.282   5.219  0.0223 -0.1566  1.0352
   11MOL0     N 1367   7.130   3.238   5.311 -0.1477 -0.2403 -0.5596
   11MOL0     C 1368   7.176   3.111   5.326  0.8845 -0.2636 -0.5189
   11MOL0     C 1369   7.268   3.122   5.415  0.2680 -0.1569  0.6617
   11MOL0     C 1370   7.378   3.022   5.444  0.1433  0.8360  0.2373
   11MOL0     C 1371   7.463   2.998   5.318 -0.1860 -0.9172 -0.3638
   11MOL0     C 1372   7.584   2.919   5.366 -1.1869 -0.3638 -0.4887
   11MOL0     C 1373   7.560   2.774   5.414 -0.3478 -0.2322  0.0084
   11MOL0     O 1374   7.498   2.776   5.546  0.1912  1.1479 -0.3363
   11MOL0     C 1375   7.420   2.667   5.572  0.6995 -0.2883 -0.6881
   11MOL0     C 1376   7.310   2.623   5.501  0.1547 -0.2350  0.3468
   11MOL0     C 1377   7.246   2.503   5.547  0.7841 -0.2331 -0.0286
   11MOL0     C 1378   7.131   2.458   5.457 -0.5391  0.3254 -0.0534
   11MOL0     C 1379   7.278   2.451   5.674 -0.2057  0.0823 -0.3987
   11MOL0     C 1380   7.198   2.343   5.737 -0.0090  0.5715  0.0052
   11MOL0     O 1381   7.129   2.254   5.651 -0.0572  0.3234  0.1639
   11MOL0     C 1382   7.018   2.180   5.676 -0.4457  0.0744  1.2434
   11MOL0     C 1383   6.962   2.128   5.556 -0.0550  1.0762  0.6515
   11MOL0     C 1384   6.836   2.063   5.569  0.0273  0.2646 -0.0243
   11MOL0     C 1385   6.766   2.060   5.694 -0.5690  0.0985  1.3726
   11MOL0     O 1386   6.639   2.005   5.708  0.1116 -0.2027  0.6565
   11MOL0     C 1387   6.605   1.908   5.610  0.2293 -0.0695 -0.2371
   11MOL0     C 1388   6.467   1.856   5.633 -0.2100 -0.5006 -0.3456
   11MOL0     C 1389   6.364   1.972   5.621  0.6238 -0.1066 -0.0979
   11MOL0     C 1390   6.227   1.935   5.685 -0.2965  0.3359 -0.3642
   11MOL0     C 1391   6.120   2.052   5.669  0.9896 -1.0334 -0.1510
   11MOL0     C 1392   6.002   2.023   5.756  0.8087  0.6254 -0.8579
   11MOL0     C 1393   5.878   2.108   5.714  0.6360 -1.0382  0.6733
   11MOL0     C 1394   5.800   2.053   5.608  0.7720  1.3370  0.2868
   11MOL0    Cl 1395   5.655   2.150   5.589 -0.5013  0.3384 -0.0540
   11MOL0     C 1396   6.823   2.125   5.809 -0.9054  0.3155  1.1077
   11MOL0     C 1397   6.951   2.182   5.796  0.5953 -0.0339  0.6760
   11MOL0     O 1398   7.188   2.339   5.862  0.4118 -0.2855 -0.0202
   11MOL0     C 1399   7.378   2.512   5.745 -0.2139  0.4405 -0.1200
   11MOL0     C 1400   7.458   2.615   5.696  0.1920 -0.7571 -0.2563
   11MOL0     N 1401   7.290   3.256   5.451  0.2835  0.3967  0.2546
   11MOL0     N 1402   7.194   3.316   5.396  0.4864 -0.8829  0.6655
   11MOL0     C 1403   7.769   3.477   4.283  0.0288 -1.2783 -0.4373
   11MOL0     C 1404   7.811   3.458   4.149  0.0767 -0.1038  0.4416
   11MOL0     C 1405   7.900   3.196   3.755  0.5431 -0.0579 -0.5891
   11MOL0     C 1406   8.032   3.151   3.770  0.5655  0.8158 -0.4151
   11MOL0     C 1407   8.119   3.119   3.664  0.2927  0.3273  0.5159
   11MOL0     C 1408   8.067   3.124   3.532  0.5306 -0.1936 -0.8853
   11MOL0     O 1409   8.127   3.090   3.419  0.1552 -0.1682 -0.0874
   11MOL0     C 1410   8.230   2.991   3.420 -0.2357  0.3398 -1.0137
   11MOL0     C 1411   8.202   2.920   3.289 -0.1509  0.2356  1.0429
   11MOL0     C 1412   8.269   2.777   3.284 -0.7295 -1.0810 -0.9041
   11MOL0     C 1413   8.175   2.677   3.222 -1.1551 -0.1886 -0.8857
   11MOL0     C 1414   8.178   2.680   3.069 -0.5799  0.1435 -0.9663
   11MOL0     C 1415   8.168   2.705   2.950  0.3876  0.2587 -0.4663
   11MOL0     C 1416   7.934   3.164   3.520  0.2315 -0.7788 -0.4114
   11MOL0     C 1417   7.853   3.197   3.633  0.0003  0.2218  0.7975
   11MOL0     H 1418   7.751   3.124   4.131  0.1568  0.7755 -2.1144
   11MOL0     H 1419   7.689   3.169   4.382 -1.2838 -0.0842  1.1996
   11MOL0     H 1420   7.554   3.210   4.514  1.5549 -1.5558  0.9105
   11MOL0     H 1421   7.678   3.247   4.632  0.0456  0.0486  0.8681
   11MOL0     H 1422   7.555   3.420   4.729  1.9224  1.2853 -1.3311
   11MOL0     H 1423   7.440   3.435   4.581 -0.2898 -1.1127  0.7993
   11MOL0     H 1424   7.323   3.238   4.638 -1.5228  0.7145  0.8440
   11MOL0     H 1425   7.439   3.188   4.753 -0.8053 -0.8250 -1.1960
   11MOL0     H 1426   7.339   3.437   4.852  0.8810 -0.2776 -0.1946
   11MOL0     H 1427   7.217   3.410   4.736 -1.9744 -0.6203  2.4709
   11MOL0     H 1428   7.135   3.213   4.834  0.1989 -1.5990  0.8486
   11MOL0     H 1429   7.291   3.177   4.914 -1.4398  0.6621  3.1242
   11MOL0     H 1430   7.255   3.372   5.067  2.5606  0.9896 -2.1697
   11MOL0     H 1431   7.131   3.429   4.958  0.3628 -1.0273 -3.0580
   11MOL0     H 1432   6.969   3.271   5.009  2.2541  0.9476 -2.4352
   11MOL0     H 1433   7.084   3.146   5.056  1.2662  0.8028  1.6997
   11MOL0     H 1434   6.928   3.233   5.246 -1.8783  1.1366 -2.5165
   11MOL0     H 1435   7.002   3.389   5.231 -2.8318 -0.2909 -1.3878
   11MOL0     H 1436   7.163   3.021   5.266  0.1887 -0.4876 -0.0512
   11MOL0     H 1437   7.437   3.059   5.528 -0.0005 -0.3176  0.8666
   11MOL0     H 1438   7.328   2.934   5.484 -0.3684  2.2896  3.0503
   11MOL0     H 1439   7.499   3.086   5.263  1.5582 -0.9319  0.6961
   11MOL0     H 1440   7.405   2.938   5.248  1.4078 -1.4354 -1.2855
   11MOL0     H 1441   7.637   2.967   5.448 -0.4903 -0.0250 -1.1216
   11MOL0     H 1442   7.652   2.923   5.280 -1.1007  2.2756 -0.3733
   11MOL0     H 1443   7.656   2.721   5.422  0.7902  1.6220 -0.6458
   11MOL0     H 1444   7.499   2.725   5.338 -2.3494  2.2353 -0.0785
   11MOL0     H 1445   7.274   2.672   5.411  1.3043  0.1265  0.0606
   11MOL0     H 1446   7.038   2.437   5.512 -0.4748 -1.2456 -0.4848
   11MOL0     H 1447   7.110   2.526   5.375  1.0453  1.0580  0.1151
   11MOL0     H 1448   7.167   2.366   5.409  0.2472 -0.2971  1.6423
   11MOL0     H 1449   7.016   2.139   5.462 -0.7327  0.4449  0.1810
   11MOL0     H 1450   6.786   2.020   5.484  1.2323 -1.3312  0.0377
   11MOL0     H 1451   6.606   1.949   5.509  1.0372  0.1037 -0.1659
   11MOL0     H 1452   6.674   1.823   5.609  0.3163 -0.0317 -2.8822
   11MOL0     H 1453   6.434   1.799   5.546  0.2840  2.0188 -2.2755
   11MOL0     H 1454   6.454   1.789   5.719 -1.4186 -0.2205 -0.2844
   11MOL0     H 1455   6.353   2.005   5.518 -3.0810  1.1754  0.5852
   11MOL0     H 1456   6.393   2.061   5.677  0.0579 -0.5925  0.9900
   11MOL0     H 1457   6.191   1.844   5.636  0.5496  1.3340 -3.0162
   11MOL0     H 1458   6.244   1.899   5.787  0.2493 -1.8426 -1.1489
   11MOL0     H 1459   6.093   2.059   5.564 -0.3209  1.4353  0.2832
   11MOL0     H 1460   6.150   2.153   5.697 -1.7441 -0.4419  0.8996
   11MOL0     H 1461   5.986   1.915   5.763 -2.2476  1.0873  1.2888
   11MOL0     H 1462   6.037   2.043   5.858 -3.3445  0.6563  0.7433
   11MOL0     H 1463   5.924   2.205   5.691  1.5647 -1.1418  1.9603
   11MOL0     H 1464   5.809   2.128   5.796  1.6471  1.8739  0.9490
   11MOL0     H 1465   5.778   1.947   5.626  0.6470  1.3473  0.1952
   11MOL0     H 1466   5.859   2.049   5.516  2.0907 -0.2842  1.1506
   11MOL0     H 1467   6.768   2.121   5.902  1.9966  0.7934  2.9838
   11MOL0     H 1468   6.977   2.231   5.889 -0.5864 -0.5474  1.3050
   11MOL0     H 1469   7.412   2.466   5.837  0.6374  1.4703  0.0965
   11MOL0     H 1470   7.532   2.668   5.756 -2.2934  1.5146  1.0201
   11MOL0     H 1471   7.750   3.579   4.317 -1.8770 -1.0521 -1.9846
   11MOL0     H 1472   7.837   3.540   4.083  0.2712  1.0765  1.9173
   11MOL0     H 1473   8.073   3.144   3.870  1.2865 -0.8212 -0.7777
   11MOL0     H 1474   8.218   3.081   3.688  0.1540  0.0222  0.6006
   11MOL0     H 1475   8.326   3.041   3.437 -0.7626  0.6726  1.1640
   11MOL0     H 1476   8.234   2.926   3.508  2.5772  1.7731  0.0477
   11MOL0     H 1477   8.248   2.983   3.212 -2.7920  2.5407  1.1948
   11MOL0     H 1478   8.096   2.921   3.265  0.0202  1.5207  0.2217
   11MOL0     H 1479   8.290   2.737   3.384 -0.3833 -3.2514 -1.7980
   11MOL0     H 1480   8.364   2.778   3.231  0.1506 -0.5260  0.6247
   11MOL0     H 1481   8.074   2.691   3.263 -1.2745 -2.2615 -0.3704
   11MOL0     H 1482   8.204   2.575   3.248  0.2725  0.0104 -1.6359
   11MOL0     H 1483   8.146   2.719   2.846  2.4785 -3.4199 -1.5979
   11MOL0     H 1484   7.886   3.177   3.424 -0.0115  0.5601 -0.1283
   11MOL0     H 1485   7.748   3.217   3.621  0.5990  3.1197 -0.1675
   12MOL0     O 1486   9.522   7.430   0.085 -0.3252 -0.5513  0.4164
   12MOL0     C 1487   9.584   7.334   0.130 -0.0083 -1.0471  0.5706
   12MOL0     O 1488   9.536   7.212   0.144  0.4141 -0.3765 -0.7032
   12MOL0     C 1489   9.423   7.168   0.079 -0.9355 -0.3160  0.7879
   12MOL0     C 1490   9.294   7.208   0.105 -0.2650  0.6226  0.3170
   12MOL0     C 1491   9.187   7.164   0.017 -0.7001  1.0499  0.8504
   12MOL0     C 1492   9.210   7.073  -0.084  0.0115 -0.0962 -0.4380
   12MOL0     O 1493   9.121   7.024  -0.167  0.3601  0.2603  0.2006
   12MOL0     C 1494   8.981   7.065  -0.159  0.2565  0.5071 -0.8090
   12MOL0     C 1495   8.901   6.975  -0.250 -0.3929  0.0322 -0.6211
   12MOL0     C 1496   8.768   7.038  -0.291 -0.9645  0.6320 -0.9560
   12MOL0     C 1497   8.794   7.146  -0.398  0.8837  0.4160  0.4670
   12MOL0     C 1498   8.663   7.186  -0.477 -0.3437 -0.2237  0.1192
   12MOL0     C 1499   8.700   7.309  -0.558 -0.0535 -0.0312  0.6639
   12MOL0     C 1500   8.600   7.360  -0.658 -0.8413 -0.8886 -0.3240
   12MOL0     C 1501   8.642   7.484  -0.740 -0.5160  0.6509 -0.1369
   12MOL0     N 1502   8.564   7.599  -0.692 -0.5618  0.6767 -0.6655
   12MOL0     C 1503   8.615   7.696  -0.611  0.7864 -0.1640 -0.6774
   12MOL0     C 1504   8.524   7.799  -0.631 -0.7218 -0.5919 -0.2570
   12MOL0     C 1505   8.555   7.931  -0.565  0.1881  0.3101  0.5711
   12MOL0     C 1506   8.654   7.926  -0.447  0.3860  1.2173 -0.8236
   12MOL0     C 1507   8.696   8.051  -0.359  0.0288  1.2522  0.3606
   12MOL0     C 1508   8.571   8.119  -0.308  0.1260  0.1770  0.0533
   12MOL0     O 1509   8.614   8.213  -0.202 -0.2540  0.6526  0.0249
   12MOL0     C 1510   8.513   8.262  -0.119 -0.5844 -0.2607  0.7346
   12MOL0     C 1511   8.382   8.298  -0.162 -0.3465  0.3879  0.1658
   12MOL0     C 1512   8.288   8.354  -0.073  0.4956 -0.4729 -0.3746
   12MOL0     C 1513   8.161   8.404  -0.142 -0.5573  0.1614  0.1521
   12MOL0     C 1514   8.328   8.378   0.062  0.8232  0.4561 -0.6515
   12MOL0     C 1515   8.237   8.449   0.172  0.0842  0.2505 -0.2673
   12MOL0     O 1516   8.277   8.451   0.309 -0.2113 -0.7259 -0.2576
   12MOL0     C 1517   8.183   8.503   0.396  0.1343 -0.8667  0.9288
   12MOL0     C 1518   8.207   8.636   0.416  0.3525 -0.2963  0.3513
   12MOL0     C 1519   8.109   8.715   0.475 -0.2013 -0.3549  0.2141
   12MOL0     C 1520   7.989   8.658   0.511 -0.3375 -0.0921  0.0104
   12MOL0     O 1521   7.893   8.747   0.549 -0.4990 -0.3613 -0.1304
   12MOL0     C 1522   7.826   8.817   0.439  0.0530 -0.8479 -0.4428
   12MOL0     C 1523   7.715   8.900   0.496  0.0557  0.3796  0.1558
   12MOL0     C 1524   7.616   8.807   0.568 -1.5844  0.4312  0.4557
   12MOL0     C 1525   7.493   8.883   0.619  0.7283  0.3798  0.4814
   12MOL0     C 1526   7.383   8.788   0.672  0.4997  0.9796 -0.4943
   12MOL0     C 1527   7.234   8.838   0.673 -0.0673  0.5003  0.0540
   12MOL0     C 1528   7.215   8.957   0.766 -0.1033  0.7442  0.2938
   12MOL0     C 1529   7.076   9.009   0.778  0.7919 -0.3567 -0.7848
   12MOL0    Cl 1530   7.017   9.083   0.625 -0.2158 -0.6117  0.5308
   12MOL0     C 1531   7.962   8.522   0.493  0.3462 -0.0767  0.1264
   12MOL0     C 1532   8.064   8.447   0.429  0.2095  0.7273  0.4185
   12MOL0     O 1533   8.134   8.514   0.132  0.6068  0.3206 -0.4825
   12MOL0     C 1534   8.450   8.338   0.105  0.1330 -0.2279  0.3173
   12MOL0     C 1535   8.551   8.294   0.015 -0.5176 -0.7479  0.2996
   12MOL0     N 1536   8.427   7.763  -0.718 -0.4678 -0.1011 -0.0107
   12MOL0     N 1537   8.459   7.644  -0.752 -0.2467 -0.6675 -0.8099
   12MOL0     C 1538   9.341   7.038  -0.112 -0.2969  0.9722  0.5271
   12MOL0     C 1539   9.449   7.088  -0.031 -0.2612 -0.7618  0.3550
   12MOL0     C 1540   9.729   7.361   0.133  0.5697  0.4239  0.7827
   12MOL0     C 1541   9.806   7.253   0.184 -0.1488 -0.0452  0.0617
   12MOL0     C 1542   9.943   7.263   0.199 -0.3651 -0.8499  0.1566
   12MOL0     C 1543  10.003   7.373   0.147 -0.1746 -0.0535 -0.2433
   12MOL0     O 1544  10.140   7.396   0.155  0.6560  0.9998 -0.2095
   12MOL0     C 1545  10.230   7.289   0.201  0.3613  0.0391 -0.1771
   12MOL0     C 1546  10.360   7.346   0.250 -0.5628  0.5501  1.3036
   12MOL0     C 1547  10.428   7.423   0.131  0.0304  0.7692  0.7178
   12MOL0     C 1548  10.555   7.486   0.176  0.3494 -0.6214 -0.0313
   12MOL0     C 1549  10.623   7.540   0.059 -0.4777 -1.3973  0.1241
   12MOL0     C 1550  10.679   7.576  -0.049  0.1919 -0.7337  0.9014
   12MOL0     C 1551   9.926   7.478   0.096 -0.1082 -0.0305 -0.2921
   12MOL0     C 1552   9.785   7.479   0.091 -0.2511  1.3974  0.7073
   12MOL0     H 1553   9.265   7.273   0.186  3.8218  1.9907  0.9438
   12MOL0     H 1554   9.089   7.204   0.040 -1.6174  2.3098 -4.0771
   12MOL0     H 1555   8.942   7.051  -0.058 -1.5209  2.0193 -1.2351
   12MOL0     H 1556   8.971   7.171  -0.185 -0.3889  0.3444 -1.2639
   12MOL0     H 1557   8.977   6.958  -0.326  2.2242 -1.6991  2.1881
   12MOL0     H 1558   8.895   6.879  -0.199 -0.9963  1.3946  2.0609
   12MOL0     H 1559   8.704   6.954  -0.320 -0.8230  0.3549 -0.4728
   12MOL0     H 1560   8.720   7.081  -0.203 -2.3309 -0.6849 -0.9985
   12MOL0     H 1561   8.832   7.231  -0.339  4.6041 -1.8688  1.6912
   12MOL0     H 1562   8.865   7.107  -0.470 -1.1576 -4.3782  0.6998
   12MOL0     H 1563   8.616   7.116  -0.547  1.2802 -0.9628 -0.2884
   12MOL0     H 1564   8.592   7.216  -0.400 -2.7755 -4.7134 -0.0257
   12MOL0     H 1565   8.737   7.390  -0.494  0.2423 -0.8223  1.5284
   12MOL0     H 1566   8.790   7.283  -0.614  1.7224  1.3720  2.6883
   12MOL0     H 1567   8.583   7.279  -0.730 -3.2252 -2.2532  1.5986
   12MOL0     H 1568   8.511   7.379  -0.598  0.2606  0.7189  0.8762
   12MOL0     H 1569   8.618   7.446  -0.839 -2.9103 -3.4684  1.7676
   12MOL0     H 1570   8.750   7.498  -0.740 -0.0300 -2.5574 -0.4667
   12MOL0     H 1571   8.699   7.689  -0.543  0.7686 -0.6030 -0.6924
   12MOL0     H 1572   8.582   8.010  -0.637  0.3985  0.2827  0.6198
   12MOL0     H 1573   8.461   7.974  -0.528 -1.2940  0.5799 -3.0626
   12MOL0     H 1574   8.749   7.894  -0.492  1.8674  3.7940  0.2446
   12MOL0     H 1575   8.630   7.844  -0.378 -1.5364  3.0158  0.7596
   12MOL0     H 1576   8.761   8.113  -0.422  1.1143  0.7119  0.9333
   12MOL0     H 1577   8.751   8.013  -0.273  0.1317 -1.2816 -0.7475
   12MOL0     H 1578   8.493   8.047  -0.281  1.1491 -1.4158 -1.0330
   12MOL0     H 1579   8.521   8.170  -0.391  0.2984 -3.2663 -2.3781
   12MOL0     H 1580   8.348   8.300  -0.265  0.2016  4.5301 -0.1098
   12MOL0     H 1581   8.073   8.407  -0.078 -1.9709 -1.6430 -1.5975
   12MOL0     H 1582   8.170   8.509  -0.173  1.4241  0.4196  1.4407
   12MOL0     H 1583   8.132   8.334  -0.221 -1.2286 -3.2066  3.1310
   12MOL0     H 1584   8.302   8.676   0.382  0.8844 -1.6419  0.1709
   12MOL0     H 1585   8.121   8.822   0.470 -2.9590  0.1277 -6.4659
   12MOL0     H 1586   7.903   8.870   0.384  0.8470  1.3723  2.5077
   12MOL0     H 1587   7.784   8.739   0.375  2.0279 -1.0705 -1.5107
   12MOL0     H 1588   7.759   8.979   0.557  3.8394 -0.4140 -1.2881
   12MOL0     H 1589   7.658   8.945   0.413  2.1295 -2.1239 -2.8577
   12MOL0     H 1590   7.671   8.768   0.655  0.2913  0.6507 -0.5779
   12MOL0     H 1591   7.583   8.722   0.507  1.5722 -0.1284 -0.6654
   12MOL0     H 1592   7.516   8.953   0.699  1.6186  0.6616 -0.0071
   12MOL0     H 1593   7.458   8.935   0.529  0.1193  0.9482  1.0482
   12MOL0     H 1594   7.399   8.743   0.770 -0.9891  1.2255 -0.1140
   12MOL0     H 1595   7.378   8.699   0.608 -3.2365  0.9517 -0.3856
   12MOL0     H 1596   7.201   8.861   0.572  1.9407 -1.0083 -1.0156
   12MOL0     H 1597   7.172   8.755   0.709 -0.0008  0.3978 -0.0699
   12MOL0     H 1598   7.283   9.033   0.728 -1.2914 -0.1031 -4.1302
   12MOL0     H 1599   7.248   8.916   0.861  2.2674 -0.8693 -1.1049
   12MOL0     H 1600   7.075   9.082   0.859  2.6525  0.3652 -1.3482
   12MOL0     H 1601   7.008   8.928   0.806  0.6396  0.9494  3.2805
   12MOL0     H 1602   7.864   8.482   0.516 -0.0079 -1.6665 -3.4437
   12MOL0     H 1603   8.048   8.343   0.401 -2.5074  1.6868 -2.2755
   12MOL0     H 1604   8.496   8.352   0.203  3.7706 -1.8335 -0.9722
   12MOL0     H 1605   8.649   8.274   0.057 -0.3927  0.5500  0.6521
   12MOL0     H 1606   9.348   6.971  -0.197 -0.7251  0.0414  1.2090
   12MOL0     H 1607   9.556   7.082  -0.052 -0.4297 -3.2432 -0.2050
   12MOL0     H 1608   9.755   7.167   0.227  1.3664 -0.8864  0.2582
   12MOL0     H 1609  10.003   7.180   0.233 -1.9760 -1.7231  0.9715
   12MOL0     H 1610  10.194   7.228   0.284  0.5020 -2.1893 -1.6808
   12MOL0     H 1611  10.232   7.210   0.125  0.5907  0.4499 -0.6079
   12MOL0     H 1612  10.429   7.267   0.280  1.0504  1.9141  1.3261
   12MOL0     H 1613  10.348   7.411   0.338 -2.5821 -0.1281  1.6020
   12MOL0     H 1614  10.369   7.494   0.073 -0.5331 -0.7601 -0.6689
   12MOL0     H 1615  10.443   7.333   0.071 -1.5330  0.3212  0.9487
   12MOL0     H 1616  10.614   7.422   0.242 -0.7435  0.2728  1.9027
   12MOL0     H 1617  10.524   7.575   0.232 -0.2716  1.0067 -2.7500
   12MOL0     H 1618  10.742   7.605  -0.130 -2.5840  2.4597 -0.3529
   12MOL0     H 1619   9.992   7.557   0.062 -1.3202  0.9324 -0.4838
   12MOL0     H 1620   9.737   7.572   0.063 -2.3325 -0.7822 -3.9548
   13MOL0     O 1621   8.126   4.546   5.259 -0.1681 -0.0410 -0.3440
   13MOL0     C 1622   8.168   4.613   5.157  0.2406  0.2630 -0.4765
   13MOL0     O 1623   8.295   4.620   5.113 -0.4318 -0.3292 -0.7596
   13MOL0     C 1624   8.376   4.532   5.169 -0.4831  0.2589 -0.1389
   13MOL0     C 1625   8.362   4.391   5.141 -0.1845 -0.5359 -0.3814
   13MOL0     C 1626   8.449   4.300   5.194  1.4713  0.2638  0.2313
   13MOL0     C 1627   8.555   4.340   5.271  0.5759 -1.4462 -1.4488
   13MOL0     O 1628   8.640   4.253   5.331  0.2645 -0.1111 -0.4843
   13MOL0     C 1629   8.586   4.184   5.451  0.3767 -0.2752  0.6255
   13MOL0     C 1630   8.658   4.057   5.479 -0.1935 -0.3176  0.0547
   13MOL0     C 1631   8.629   3.950   5.367 -0.0225 -0.7013 -0.3995
   13MOL0     C 1632   8.701   3.829   5.406  0.0802  0.8758 -1.1122
   13MOL0     C 1633   8.721   3.718   5.305  0.7805 -0.3487  1.1362
   13MOL0     C 1634   8.808   3.603   5.353 -0.0800  0.3916 -1.2492
   13MOL0     C 1635   8.818   3.498   5.240 -0.1394  0.1052 -0.3092
   13MOL0     C 1636   8.937   3.527   5.146 -0.7342  0.5818  0.4485
   13MOL0     N 1637   8.999   3.414   5.087  0.6116 -0.6179  0.1901
   13MOL0     C 1638   9.050   3.314   5.165  0.0706  0.7037  0.2099
   13MOL0     C 1639   9.079   3.219   5.072  0.5791 -0.1117  0.0599
   13MOL0     C 1640   9.111   3.072   5.091  0.1414 -0.0571 -0.0886
   13MOL0     C 1641   9.237   3.024   5.005  0.1575 -1.3225  0.4125
   13MOL0     C 1642   9.260   2.875   5.019 -0.3102 -0.7094 -0.1041
   13MOL0     C 1643   9.393   2.814   4.962 -0.2377  0.5849  0.1736
   13MOL0     O 1644   9.360   2.793   4.828  0.7176 -0.8211 -0.6489
   13MOL0     C 1645   9.446   2.715   4.755 -0.2559  1.0485  0.0395
   13MOL0     C 1646   9.406   2.707   4.623  0.1707 -0.3406  0.2730
   13MOL0     C 1647   9.487   2.673   4.521 -0.5650  0.5898 -1.1615
   13MOL0     C 1648   9.430   2.688   4.385  0.8677 -0.4604 -0.0431
   13MOL0     C 1649   9.619   2.628   4.552 -1.0392  0.0480  0.8519
   13MOL0     C 1650   9.718   2.567   4.447  1.0626  0.3004  0.3855
   13MOL0     O 1651   9.848   2.557   4.490 -0.3127  0.8971  0.2163
   13MOL0     C 1652   9.947   2.548   4.392 -0.3900  0.4669 -0.1134
   13MOL0     C 1653  10.054   2.641   4.407 -0.6109 -0.3213 -0.0286
   13MOL0     C 1654  10.163   2.640   4.317  0.6011 -0.2842 -1.5811
   13MOL0     C 1655  10.172   2.544   4.218  0.2785  0.5197  0.0887
   13MOL0     O 1656  10.286   2.556   4.143  0.1673  0.6634  0.3970
   13MOL0     C 1657  10.317   2.446   4.059  0.0113 -0.6914 -0.2518
   13MOL0     C 1658  10.355   2.316   4.140  0.2428 -0.2270  0.1372
   13MOL0     C 1659  10.401   2.203   4.054 -0.4694  0.3706  0.1440
   13MOL0     C 1660  10.296   2.152   3.955  0.3241 -0.3835  0.3153
   13MOL0     C 1661  10.299   2.000   3.939 -0.4675 -0.1022  0.8737
   13MOL0     C 1662  10.177   1.962   3.862 -0.2795 -0.2276  0.2167
   13MOL0     C 1663  10.190   1.824   3.807  0.8092 -0.4646  0.0299
   13MOL0     C 1664  10.250   1.818   3.659 -0.7924 -0.4154 -1.2343
   13MOL0    Cl 1665  10.314   1.649   3.643 -0.4572  0.0517  0.5764
   13MOL0     C 1666  10.075   2.448   4.202  0.7851  0.5909  0.2065
   13MOL0     C 1667   9.961   2.453   4.294  0.0128 -0.1507 -0.5567
   13MOL0     O 1668   9.672   2.545   4.336 -0.5193  0.2282 -0.4921
   13MOL0     C 1669   9.663   2.636   4.689 -0.5931  0.1193  1.1999
   13MOL0     C 1670   9.570   2.672   4.790 -0.9371 -0.3497 -0.1533
   13MOL0     N 1671   9.050   3.267   4.948 -0.2167  1.0525  0.4367
   13MOL0     N 1672   9.004   3.381   4.957  0.2560 -0.6279 -0.4946
   13MOL0     C 1673   8.568   4.483   5.299  0.4074  0.4272  0.6432
   13MOL0     C 1674   8.476   4.578   5.249  0.5317 -1.2874 -0.4182
   13MOL0     C 1675   8.060   4.698   5.090 -0.6524  0.4880  0.3972
   13MOL0     C 1676   7.917   4.679   5.104  0.3350  0.1283 -0.7863
   13MOL0     C 1677   7.823   4.762   5.042 -0.2956  0.3012  0.3735
   13MOL0     C 1678   7.864   4.863   4.955 -0.1231 -1.0075  0.6253
   13MOL0     O 1679   7.762   4.946   4.908  0.4279 -0.2099 -0.0351
   13MOL0     C 1680   7.761   5.078   4.941  0.9065  0.2163  0.2040
   13MOL0     C 1681   7.634   5.157   4.905  0.1530  0.1565 -0.2063
   13MOL0     C 1682   7.634   5.186   4.753  0.1111  0.4758 -0.8011
   13MOL0     C 1683   7.496   5.223   4.698 -0.2957 -0.2274  0.7736
   13MOL0     C 1684   7.499   5.319   4.588  0.2633 -0.7963 -0.3697
   13MOL0     C 1685   7.528   5.407   4.507 -0.7151  0.3486  0.5391
   13MOL0     C 1686   7.995   4.889   4.943  1.2138  0.9817  0.5691
   13MOL0     C 1687   8.092   4.807   4.999 -1.1524  0.6064 -0.5666
   13MOL0     H 1688   8.276   4.360   5.084 -0.5445 -3.7418  1.6544
   13MOL0     H 1689   8.440   4.195   5.168  2.7360  0.0814  0.4331
   13MOL0     H 1690   8.593   4.243   5.543  0.5871  1.0882 -0.2233
   13MOL0     H 1691   8.482   4.157   5.430  0.8397 -3.2014  1.6751
   13MOL0     H 1692   8.765   4.078   5.481  0.0838 -1.6761  0.2609
   13MOL0     H 1693   8.636   4.035   5.584  3.4547 -1.8468  0.6321
   13MOL0     H 1694   8.522   3.925   5.368 -0.1968 -0.3334  3.1278
   13MOL0     H 1695   8.648   3.976   5.262 -1.0350  0.4518 -0.3187
   13MOL0     H 1696   8.800   3.865   5.436 -1.0632  2.8440  0.5215
   13MOL0     H 1697   8.657   3.787   5.496 -0.5205  2.1750 -0.7727
   13MOL0     H 1698   8.620   3.686   5.282  1.3242 -2.4662  1.5078
   13MOL0     H 1699   8.778   3.758   5.220  1.1206 -4.1937 -0.6302
   13MOL0     H 1700   8.905   3.643   5.384 -1.8627  2.8811  1.5933
   13MOL0     H 1701   8.762   3.557   5.440  1.5318  2.3449  0.7502
   13MOL0     H 1702   8.828   3.398   5.282  1.0921  0.5065  0.4119
   13MOL0     H 1703   8.728   3.497   5.179  1.0448 -0.3408 -2.1395
   13MOL0     H 1704   9.016   3.586   5.192 -0.5173 -1.4236  2.8466
   13MOL0     H 1705   8.896   3.585   5.063 -0.2583 -0.1745 -0.3289
   13MOL0     H 1706   9.063   3.297   5.271 -0.0285 -3.9767 -0.3182
   13MOL0     H 1707   9.137   3.063   5.197 -1.6137 -1.7662  0.2694
   13MOL0     H 1708   9.023   3.007   5.084  1.1865 -1.6681  1.0301
   13MOL0     H 1709   9.326   3.074   5.043  0.2709 -3.5803  3.4299
   13MOL0     H 1710   9.226   3.066   4.904  2.9886  0.8018  0.8388
   13MOL0     H 1711   9.177   2.829   4.965 -1.0176 -0.0957  0.4354
   13MOL0     H 1712   9.259   2.861   5.127 -4.2654 -2.2577 -0.1933
   13MOL0     H 1713   9.421   2.724   5.017  2.9011  0.2828 -1.6804
   13MOL0     H 1714   9.475   2.886   4.966 -1.2418  1.8288 -0.6861
   13MOL0     H 1715   9.304   2.742   4.608 -0.4706 -2.1457  0.1838
   13MOL0     H 1716   9.514   2.730   4.328  2.8931 -0.1406  2.9539
   13MOL0     H 1717   9.406   2.587   4.350 -1.8414  0.7821 -2.0738
   13MOL0     H 1718   9.342   2.750   4.372  0.3072 -1.2011  0.1489
   13MOL0     H 1719  10.039   2.712   4.487 -1.6638  0.9124 -1.2650
   13MOL0     H 1720  10.240   2.716   4.320  1.3074 -0.9961 -0.8688
   13MOL0     H 1721  10.228   2.423   3.998 -0.8546 -0.2794  0.8176
   13MOL0     H 1722  10.400   2.475   3.994 -0.0335  0.1860  0.0672
   13MOL0     H 1723  10.445   2.338   4.198  0.5029 -0.1363 -0.2960
   13MOL0     H 1724  10.268   2.284   4.198 -0.6631 -2.2112 -2.1392
   13MOL0     H 1725  10.425   2.115   4.114 -2.5586 -2.1486 -2.3882
   13MOL0     H 1726  10.492   2.227   3.997 -1.0548 -2.7682 -2.4346
   13MOL0     H 1727  10.198   2.179   3.996  0.1130 -0.6750  0.0138
   13MOL0     H 1728  10.305   2.215   3.866  2.2713  0.1661  0.8440
   13MOL0     H 1729  10.318   1.945   4.031 -0.9526  1.2450  1.7997
   13MOL0     H 1730  10.386   1.961   3.884  0.1481  0.0659  1.7146
   13MOL0     H 1731  10.094   1.965   3.934 -0.1287 -2.9594  0.6228
   13MOL0     H 1732  10.162   2.039   3.786  1.5812 -1.5185 -1.5657
   13MOL0     H 1733  10.087   1.791   3.789  1.4454 -2.0981 -0.7985
   13MOL0     H 1734  10.236   1.751   3.874 -0.3527  1.6388  3.4037
   13MOL0     H 1735  10.329   1.890   3.638 -1.4030  0.5179 -0.4361
   13MOL0     H 1736  10.168   1.838   3.589 -0.6261  2.1885 -0.7914
   13MOL0     H 1737  10.080   2.372   4.126  1.2658  1.6717 -0.8811
   13MOL0     H 1738   9.882   2.384   4.267 -0.3045 -0.6291  1.4279
   13MOL0     H 1739   9.770   2.632   4.704  0.1024  2.5764 -1.9023
   13MOL0     H 1740   9.613   2.691   4.888 -3.0358  2.1046  0.4130
   13MOL0     H 1741   8.645   4.506   5.372 -0.2410 -1.0498  1.8738
   13MOL0     H 1742   8.491   4.683   5.271 -2.9209 -1.1397  2.0273
   13MOL0     H 1743   7.876   4.605   5.173  0.1416 -0.1828 -1.2347
   13MOL0     H 1744   7.715   4.757   5.049 -0.3519  1.2583  0.3707
   13MOL0     H 1745   7.768   5.085   5.050 -1.7915  1.9168  0.3724
   13MOL0     H 1746   7.848   5.131   4.902  1.1882 -1.5420 -1.7380
   13MOL0     H 1747   7.629   5.263   4.932 -5.6932  0.6387 -1.7268
   13MOL0     H 1748   7.540   5.110   4.936  0.6979 -1.0042 -0.2879
   13MOL0     H 1749   7.676   5.110   4.687 -0.4731  0.4416 -1.1332
   13MOL0     H 1750   7.699   5.273   4.739  1.1664 -0.1936 -0.1682
   13MOL0     H 1751   7.425   5.265   4.770 -0.3398  1.1229 -0.0319
   13MOL0     H 1752   7.451   5.141   4.641 -1.7144  0.8766  0.2471
   13MOL0     H 1753   7.568   5.487   4.449 -1.8571 -0.4303 -1.4123
   13MOL0     H 1754   8.030   4.967   4.876  0.4996 -0.4408 -1.5704
   13MOL0     H 1755   8.195   4.826   4.971 -2.2566  1.9750 -4.2451
   14MOL0     O 1756   7.969   4.261   0.874  0.4730  0.5839  0.1148
   14MOL0     C 1757   7.862   4.297   0.817 -0.1350 -0.3753  0.3268
   14MOL0     O 1758   7.749   4.337   0.880  0.1996 -0.6050  0.1529
   14MOL0     C 1759   7.760   4.349   1.015 -0.4842  0.4702 -0.2035
   14MOL0     C 1760   7.691   4.261   1.102 -0.6142 -0.2242  0.0878
   14MOL0     C 1761   7.693   4.281   1.235 -0.4683 -0.3229 -0.0391
   14MOL0     C 1762   7.763   4.385   1.297  0.3061  0.2114 -0.0443
   14MOL0     O 1763   7.767   4.368   1.430 -0.0159 -0.2208 -0.0116
   14MOL0     C 1764   7.866   4.435   1.514 -0.6566 -0.2898  0.8049
   14MOL0     C 1765   7.858   4.399   1.657 -0.1978 -0.2658 -0.5521
   14MOL0     C 1766   7.748   4.479   1.718  0.2354 -0.8295  0.7153
   14MOL0     C 1767   7.679   4.431   1.848 -0.2249  0.0654  0.5485
   14MOL0     C 1768   7.546   4.498   1.868  0.5929 -0.2090 -0.6666
   14MOL0     C 1769   7.455   4.419   1.963 -0.1198 -0.4126 -0.1735
   14MOL0     C 1770   7.477   4.448   2.112 -0.3216 -0.4391 -0.2465
   14MOL0     C 1771   7.377   4.383   2.213  0.7916 -0.0241 -0.8354
   14MOL0     N 1772   7.358   4.236   2.184 -0.3503 -0.3642 -0.2899
   14MOL0     C 1773   7.299   4.178   2.072  1.1704 -0.1951 -0.1310
   14MOL0     C 1774   7.297   4.051   2.101  0.3873  0.2358  0.4207
   14MOL0     C 1775   7.231   3.940   2.027  0.1889  0.0971 -0.0180
   14MOL0     C 1776   7.072   3.962   2.023  0.3002  0.3546  0.6601
   14MOL0     C 1777   6.986   3.958   2.153 -0.3226 -0.1626 -0.0891
   14MOL0     C 1778   6.974   4.092   2.224  0.4236 -0.3477 -0.6286
   14MOL0     O 1779   6.901   4.173   2.128 -0.3151 -0.1043 -0.6815
   14MOL0     C 1780   6.838   4.288   2.182  0.1755  0.6573 -0.1090
   14MOL0     C 1781   6.917   4.365   2.265  0.4278  0.0673 -0.1965
   14MOL0     C 1782   6.851   4.465   2.353  0.4799  0.6374  0.3848
   14MOL0     C 1783   6.927   4.533   2.457  0.1631 -0.6395 -0.2362
   14MOL0     C 1784   6.713   4.478   2.343  0.8465  0.1298  0.6722
   14MOL0     C 1785   6.623   4.553   2.431  0.5005 -0.4222 -0.4582
   14MOL0     O 1786   6.565   4.665   2.380 -1.2926  1.6849  0.6959
   14MOL0     C 1787   6.447   4.722   2.424 -0.0870 -0.2634  0.3974
   14MOL0     C 1788   6.368   4.681   2.538  0.0841 -0.7049 -0.4311
   14MOL0     C 1789   6.255   4.750   2.581  0.1408  0.7310  0.5192
   14MOL0     C 1790   6.206   4.856   2.507 -0.1088  0.0772 -0.3522
   14MOL0     O 1791   6.101   4.931   2.555  0.6892  0.7008 -0.1927
   14MOL0     C 1792   6.059   5.051   2.484  0.3572  0.7283  0.2739
   14MOL0     C 1793   5.925   5.101   2.547  0.6310  0.0694 -0.4255
   14MOL0     C 1794   5.930   5.174   2.690  0.2964  0.2474 -0.4277
   14MOL0     C 1795   5.781   5.185   2.745 -0.5282 -0.1641 -0.6017
   14MOL0     C 1796   5.779   5.260   2.869 -0.8796 -0.5099  0.4105
   14MOL0     C 1797   5.861   5.190   2.983  0.7756 -0.1506 -0.7800
   14MOL0     C 1798   5.849   5.254   3.119 -0.5615  0.2650 -0.4310
   14MOL0     C 1799   5.897   5.400   3.127  0.1029 -0.6707 -0.0629
   14MOL0    Cl 1800   6.035   5.452   3.024 -0.1908 -0.0080  0.5980
   14MOL0     C 1801   6.286   4.902   2.402  0.3961  0.1513  0.7044
   14MOL0     C 1802   6.391   4.831   2.349  0.5015  1.3797  0.8319
   14MOL0     O 1803   6.596   4.514   2.545 -0.1161 -0.2544 -0.7995
   14MOL0     C 1804   6.639   4.391   2.259  0.0044 -0.7154 -0.4878
   14MOL0     C 1805   6.700   4.301   2.171 -0.5925  0.4330 -0.6094
   14MOL0     N 1806   7.353   4.024   2.230 -0.4786 -0.0633  0.1241
   14MOL0     N 1807   7.389   4.135   2.277 -0.7594 -0.1767  0.0261
   14MOL0     C 1808   7.831   4.476   1.217  0.4660 -0.4574 -1.1042
   14MOL0     C 1809   7.820   4.463   1.075  0.2002 -0.1861  0.2631
   14MOL0     C 1810   7.849   4.280   0.666  0.4898 -0.6126 -0.9362
   14MOL0     C 1811   7.950   4.214   0.594  0.1002 -0.2965  0.3111
   14MOL0     C 1812   7.933   4.202   0.455  0.7732 -0.3380  0.0273
   14MOL0     C 1813   7.836   4.272   0.383 -0.8167 -0.1088 -0.3251
   14MOL0     O 1814   7.826   4.255   0.245 -1.1623 -0.0995 -0.2580
   14MOL0     C 1815   7.752   4.136   0.199  0.0195 -0.4472 -0.1437
   14MOL0     C 1816   7.601   4.159   0.200 -0.2124 -0.5585  0.5049
   14MOL0     C 1817   7.547   4.289   0.135  0.3391 -0.8136  0.0904
   14MOL0     C 1818   7.581   4.299  -0.010 -0.4609 -0.1463  0.5351
   14MOL0     C 1819   7.527   4.419  -0.077  0.3599  0.5624  0.7338
   14MOL0     C 1820   7.511   4.522  -0.142  0.3371 -0.5047  0.3021
   14MOL0     C 1821   7.739   4.345   0.451 -0.7280 -0.5139  0.3145
   14MOL0     C 1822   7.747   4.345   0.596 -0.1484 -0.2851  0.6350
   14MOL0     H 1823   7.635   4.177   1.063  1.8547 -1.8547 -0.2011
   14MOL0     H 1824   7.649   4.209   1.303 -1.7258  2.5669  2.4682
   14MOL0     H 1825   7.961   4.397   1.475 -0.2435  3.1477 -2.1212
   14MOL0     H 1826   7.867   4.543   1.498 -1.2935 -0.5673 -1.5214
   14MOL0     H 1827   7.851   4.293   1.684  0.1719  0.2408  1.8248
   14MOL0     H 1828   7.953   4.420   1.707 -0.9605  2.3877 -0.1093
   14MOL0     H 1829   7.790   4.579   1.725 -0.6861 -0.2442 -1.3633
   14MOL0     H 1830   7.669   4.484   1.642  1.5898 -1.4999 -0.7799
   14MOL0     H 1831   7.683   4.323   1.862  2.0891 -0.4967 -2.9806
   14MOL0     H 1832   7.737   4.465   1.934 -0.2478  1.0252  0.1932
   14MOL0     H 1833   7.534   4.607   1.866  0.1615 -0.2258  0.2794
   14MOL0     H 1834   7.501   4.475   1.771  1.2455  1.0549 -1.2888
   14MOL0     H 1835   7.353   4.435   1.930 -0.0327 -3.8484 -2.6639
   14MOL0     H 1836   7.466   4.313   1.936  2.8315 -0.8049  1.9257
   14MOL0     H 1837   7.578   4.414   2.135  0.0978 -2.2182 -4.0347
   14MOL0     H 1838   7.475   4.556   2.133  2.2652 -0.1650 -1.1200
   14MOL0     H 1839   7.283   4.439   2.205  1.1988  0.5000 -2.4967
   14MOL0     H 1840   7.407   4.404   2.316  1.5194  0.1948 -1.0865
   14MOL0     H 1841   7.263   4.231   1.985  1.4172 -1.0585 -0.7790
   14MOL0     H 1842   7.277   3.944   1.928 -2.0444 -2.1248 -1.2659
   14MOL0     H 1843   7.252   3.842   2.072 -2.6241 -0.9051 -0.6766
   14MOL0     H 1844   7.023   3.882   1.968  2.1150 -2.7711  3.2539
   14MOL0     H 1845   7.041   4.054   1.971 -2.8469 -1.3081 -0.6602
   14MOL0     H 1846   7.017   3.880   2.223 -0.3597  0.1551  0.2868
   14MOL0     H 1847   6.884   3.933   2.123  0.5169 -2.6816 -1.1284
   14MOL0     H 1848   7.070   4.134   2.257  1.1380 -1.3793 -1.3101
   14MOL0     H 1849   6.906   4.073   2.307  1.6872 -1.1372  0.2740
   14MOL0     H 1850   7.023   4.341   2.264  0.9579  2.1474 -2.0520
   14MOL0     H 1851   7.019   4.570   2.411 -0.7408 -2.1818 -3.5335
   14MOL0     H 1852   6.869   4.613   2.506 -1.0248 -2.2438  1.1074
   14MOL0     H 1853   6.956   4.468   2.540  1.4102  0.2329  0.0531
   14MOL0     H 1854   6.404   4.601   2.601 -0.3427  0.3227  1.2090
   14MOL0     H 1855   6.205   4.702   2.664  0.0749 -0.5879 -0.2576
   14MOL0     H 1856   6.135   5.129   2.475  0.8076  0.2444 -0.1622
   14MOL0     H 1857   6.039   5.015   2.382  2.5015  0.7437 -0.1950
   14MOL0     H 1858   5.889   5.174   2.475  1.1126 -1.5313 -2.3719
   14MOL0     H 1859   5.858   5.015   2.543 -1.6296  1.7810 -0.8246
   14MOL0     H 1860   5.967   5.277   2.684 -2.2654  1.2217 -1.2267
   14MOL0     H 1861   5.997   5.115   2.753 -0.4826 -2.5149 -2.0312
   14MOL0     H 1862   5.728   5.239   2.666 -2.6900 -5.2190 -3.0317
   14MOL0     H 1863   5.731   5.088   2.746  0.9609 -1.0162 -2.4382
   14MOL0     H 1864   5.673   5.279   2.887 -0.5839  3.6445 -1.1903
   14MOL0     H 1865   5.826   5.357   2.856  1.7979 -1.5367  1.6141
   14MOL0     H 1866   5.821   5.088   2.992  0.6439 -0.0711 -0.4549
   14MOL0     H 1867   5.966   5.169   2.962  0.6017 -1.1370 -0.6975
   14MOL0     H 1868   5.912   5.185   3.175 -4.2359 -4.2457 -1.2255
   14MOL0     H 1869   5.743   5.250   3.144 -1.1126  1.1337 -2.4359
   14MOL0     H 1870   5.919   5.433   3.229 -2.0944  2.1841 -0.3777
   14MOL0     H 1871   5.811   5.461   3.097  0.8734  0.5660  0.1911
   14MOL0     H 1872   6.255   4.996   2.357 -0.6922 -0.7488 -0.5100
   14MOL0     H 1873   6.453   4.856   2.263  2.6135 -2.1258  1.1407
   14MOL0     H 1874   6.531   4.398   2.254 -0.0288 -1.8859 -2.4636
   14MOL0     H 1875   6.653   4.222   2.114  0.6414 -0.7496 -0.0366
   14MOL0     H 1876   7.894   4.551   1.264 -0.3550 -0.4447  0.0043
   14MOL0     H 1877   7.872   4.530   1.007 -1.0565 -2.4574 -3.2050
   14MOL0     H 1878   8.045   4.183   0.636  0.5915 -1.0315 -1.2748
   14MOL0     H 1879   8.019   4.142   0.427  1.1512 -0.4452  1.3281
   14MOL0     H 1880   7.795   4.105   0.104  0.8372  0.0929  0.0445
   14MOL0     H 1881   7.775   4.046   0.259 -0.2039 -1.7703 -1.9608
   14MOL0     H 1882   7.578   4.151   0.306  4.7058 -2.4352  1.6839
   14MOL0     H 1883   7.551   4.070   0.159  0.0051 -1.3063  1.8189
   14MOL0     H 1884   7.578   4.375   0.194 -0.1480 -1.2325  0.9965
   14MOL0     H 1885   7.440   4.290   0.159 -0.1238  2.1740 -1.6495
   14MOL0     H 1886   7.554   4.207  -0.062  2.9094 -0.7637 -0.3480
   14MOL0     H 1887   7.689   4.313  -0.002 -0.7005  4.5824 -0.9124
   14MOL0     H 1888   7.469   4.606  -0.193  0.2515 -2.2063 -2.6862
   14MOL0     H 1889   7.661   4.401   0.402 -0.1752  0.4104  0.4662
   14MOL0     H 1890   7.676   4.411   0.645 -0.1454  1.8022 -1.9591
   15MOL0     O 1891   9.260   1.350   5.046 -0.3068  0.2607 -0.5299
   15MOL0     C 1892   9.153   1.314   4.989  0.2703 -0.3874 -0.4665
   15MOL0     O 1893   9.114   1.367   4.863 -0.0681 -0.1056  0.6042
   15MOL0     C 1894   9.214   1.373   4.770 -0.0387 -0.2400 -0.7214
   15MOL0     C 1895   9.200   1.470   4.667  0.1077  0.0852  0.9799
   15MOL0     C 1896   9.297   1.495   4.567  0.0556  0.0008  0.5727
   15MOL0     C 1897   9.416   1.411   4.565  1.2990 -0.5448 -0.5794
   15MOL0     O 1898   9.508   1.429   4.470 -0.0633 -0.8579  0.3498
   15MOL0     C 1899   9.533   1.564   4.411  0.2883  0.6089  0.1174
   15MOL0     C 1900   9.565   1.670   4.512 -0.6915 -0.9403 -0.2923
   15MOL0     C 1901   9.716   1.653   4.558 -0.8279  0.3733  0.6038
   15MOL0     C 1902   9.770   1.760   4.659 -0.3662 -0.2715 -0.1149
   15MOL0     C 1903   9.688   1.777   4.791  0.7622 -0.7247  0.0237
   15MOL0     C 1904   9.731   1.656   4.874 -0.8892  0.5663  0.1910
   15MOL0     C 1905   9.700   1.672   5.019  0.5713 -0.3375 -0.2711
   15MOL0     C 1906   9.567   1.620   5.072  0.1852  0.7159  0.3533
   15MOL0     N 1907   9.556   1.659   5.211 -0.9572 -0.6721  0.4708
   15MOL0     C 1908   9.466   1.736   5.273 -0.3695  0.8100  0.9190
   15MOL0     C 1909   9.509   1.755   5.405 -0.6659 -0.0167  0.1976
   15MOL0     C 1910   9.427   1.798   5.519 -0.2299 -0.9922  0.4947
   15MOL0     C 1911   9.415   1.952   5.531 -0.2966  0.0568 -0.2888
   15MOL0     C 1912   9.338   2.008   5.646 -0.4162  0.6538  0.2617
   15MOL0     C 1913   9.192   1.949   5.656 -0.1348 -0.0740 -0.3400
   15MOL0     O 1914   9.111   1.947   5.543  0.3864 -0.1718  0.1902
   15MOL0     C 1915   8.995   1.871   5.551  0.3492 -0.4051 -0.2940
   15MOL0     C 1916   8.886   1.905   5.472 -0.1427 -0.2960  0.2063
   15MOL0     C 1917   8.766   1.833   5.472  1.5227  0.0203  0.5406
   15MOL0     C 1918   8.654   1.891   5.387 -0.0341  0.4301 -0.8771
   15MOL0     C 1919   8.760   1.712   5.552 -0.6524 -0.3478 -0.9509
   15MOL0     C 1920   8.630   1.632   5.576  0.0286 -0.1644 -1.0669
   15MOL0     O 1921   8.506   1.688   5.548  0.3750 -0.9912  0.6845
   15MOL0     C 1922   8.377   1.639   5.586 -0.7812 -0.5246  0.0098
   15MOL0     C 1923   8.259   1.692   5.521  0.1489  0.3552  0.5201
   15MOL0     C 1924   8.130   1.655   5.549 -0.8031  0.0468 -0.3294
   15MOL0     C 1925   8.112   1.552   5.639  0.7452  0.2816 -1.1336
   15MOL0     O 1926   7.986   1.528   5.679  0.0834  0.2731 -0.4229
   15MOL0     C 1927   7.955   1.394   5.721 -0.4979  0.1760 -0.8956
   15MOL0     C 1928   7.803   1.369   5.730  0.4733 -0.1399 -0.5989
   15MOL0     C 1929   7.725   1.399   5.610  0.2074  0.9213 -0.5317
   15MOL0     C 1930   7.749   1.288   5.496  0.4879  0.0370 -0.6706
   15MOL0     C 1931   7.722   1.343   5.355  0.0725  0.4554 -0.2252
   15MOL0     C 1932   7.842   1.418   5.289  0.1728  0.3796 -0.0033
   15MOL0     C 1933   7.783   1.498   5.175  0.0328  0.2253 -0.3755
   15MOL0     C 1934   7.890   1.588   5.102  1.4284  0.0899 -0.2344
   15MOL0    Cl 1935   8.000   1.672   5.217  0.3879  0.0807  0.1246
   15MOL0     C 1936   8.223   1.490   5.709  0.6262  0.0109 -0.5097
   15MOL0     C 1937   8.356   1.542   5.688  0.0390  0.0567  0.1039
   15MOL0     O 1938   8.639   1.522   5.627 -0.3230  0.6121 -0.2129
   15MOL0     C 1939   8.871   1.675   5.629 -0.5630  0.7861  0.6494
   15MOL0     C 1940   8.978   1.756   5.633  1.1657  0.1738  0.0857
   15MOL0     N 1941   9.625   1.694   5.415 -0.5765  0.9147  0.0907
   15MOL0     N 1942   9.666   1.647   5.299  0.0898 -0.1498  0.8016
   15MOL0     C 1943   9.426   1.306   4.657 -0.2248 -0.6738 -0.7184
   15MOL0     C 1944   9.322   1.289   4.754 -0.2060 -0.2649 -0.1908
   15MOL0     C 1945   9.064   1.211   5.049  0.0924  0.2691 -0.2238
   15MOL0     C 1946   9.059   1.173   5.184 -0.6410 -0.0510 -1.0107
   15MOL0     C 1947   8.970   1.069   5.224  0.1915  0.6494  0.4473
   15MOL0     C 1948   8.882   1.007   5.142  0.0141 -0.1059  1.1466
   15MOL0     O 1949   8.795   0.916   5.194  0.3072  0.3003 -0.5489
   15MOL0     C 1950   8.658   0.936   5.152  0.4019  0.5719 -0.5003
   15MOL0     C 1951   8.601   0.820   5.072 -0.6704  0.7500 -0.7702
   15MOL0     C 1952   8.609   0.690   5.149  0.0921 -0.5208  0.3574
   15MOL0     C 1953   8.479   0.643   5.210 -0.5684  0.3882  0.2748
   15MOL0     C 1954   8.375   0.731   5.273 -0.7113 -1.2323  0.2048
   15MOL0     C 1955   8.303   0.809   5.327 -0.1773 -0.4268 -0.3590
   15MOL0     C 1956   8.872   1.059   5.004 -0.5941 -0.7418  0.7096
   15MOL0     C 1957   8.969   1.155   4.963  0.2533 -0.7142 -0.6396
   15MOL0     H 1958   9.107   1.524   4.680  1.4451  2.2559  1.9078
   15MOL0     H 1959   9.272   1.574   4.498 -2.2367  0.4206  1.7764
   15MOL0     H 1960   9.618   1.557   4.343 -0.6701 -1.1895 -0.9888
   15MOL0     H 1961   9.442   1.581   4.353  0.3995 -2.0269 -0.9922
   15MOL0     H 1962   9.552   1.768   4.467 -2.0852 -1.9774 -2.2828
   15MOL0     H 1963   9.492   1.679   4.592  0.0250 -2.7101  0.6359
   15MOL0     H 1964   9.738   1.557   4.604  3.3217 -1.3130 -4.0105
   15MOL0     H 1965   9.777   1.644   4.467 -0.0539 -0.9505  1.2349
   15MOL0     H 1966   9.877   1.743   4.677 -0.3906  0.8323  1.2936
   15MOL0     H 1967   9.792   1.854   4.607  2.7930 -1.0670 -0.4645
   15MOL0     H 1968   9.702   1.872   4.844 -1.4257 -1.2692  1.7048
   15MOL0     H 1969   9.582   1.791   4.765  1.0345  0.7690 -0.3760
   15MOL0     H 1970   9.674   1.571   4.836  0.6732 -0.5236  0.1991
   15MOL0     H 1971   9.839   1.641   4.862 -0.6157  0.6556  2.2257
   15MOL0     H 1972   9.788   1.645   5.078 -0.8760  0.9124  2.6695
   15MOL0     H 1973   9.703   1.780   5.032  2.2520 -0.6170  2.5073
   15MOL0     H 1974   9.579   1.512   5.062 -0.1822  0.8310 -1.5972
   15MOL0     H 1975   9.487   1.666   5.014 -0.4219 -1.3969 -0.5910
   15MOL0     H 1976   9.369   1.774   5.242  1.4461  4.4431 -1.0145
   15MOL0     H 1977   9.325   1.762   5.506 -1.3955  2.5981 -1.9147
   15MOL0     H 1978   9.459   1.756   5.615  0.8055 -1.6412 -0.1162
   15MOL0     H 1979   9.370   1.982   5.436  0.5599 -2.9082 -1.7387
   15MOL0     H 1980   9.516   1.994   5.534 -0.6208  0.8253  0.1846
   15MOL0     H 1981   9.348   2.117   5.642  0.7457  0.5933  0.9909
   15MOL0     H 1982   9.399   1.985   5.734  1.0583  2.3079 -0.2714
   15MOL0     H 1983   9.152   2.014   5.734  1.7877  0.6767  0.0747
   15MOL0     H 1984   9.203   1.847   5.693 -0.5402 -1.3433 -3.4084
   15MOL0     H 1985   8.900   1.996   5.414  0.3239 -0.3175  0.2794
   15MOL0     H 1986   8.577   1.935   5.451  0.1123 -2.0558  1.1744
   15MOL0     H 1987   8.693   1.971   5.322  0.4288 -0.5503 -1.8406
   15MOL0     H 1988   8.612   1.815   5.321 -0.0785 -0.0876 -0.2605
   15MOL0     H 1989   8.277   1.761   5.439  2.4464  0.5917  1.1480
   15MOL0     H 1990   8.047   1.703   5.497  0.8938  1.2876 -2.0092
   15MOL0     H 1991   8.005   1.327   5.651 -0.9103 -1.6148  0.4546
   15MOL0     H 1992   7.999   1.373   5.819 -2.6005 -0.4726 -0.0351
   15MOL0     H 1993   7.794   1.270   5.775 -2.7165  0.5201  0.5386
   15MOL0     H 1994   7.771   1.435   5.812 -0.8681 -1.1096 -0.3179
   15MOL0     H 1995   7.741   1.501   5.573 -0.0006  2.2359  2.6504
   15MOL0     H 1996   7.622   1.392   5.647  0.4373  4.1387  1.0982
   15MOL0     H 1997   7.843   1.237   5.518  1.0901  2.1271  2.3285
   15MOL0     H 1998   7.676   1.214   5.528  1.1761 -0.3987 -0.0927
   15MOL0     H 1999   7.625   1.390   5.372 -0.2254 -0.4165  0.6126
   15MOL0     H 2000   7.696   1.264   5.284 -0.5078 -1.0132  1.5534
   15MOL0     H 2001   7.900   1.475   5.362  0.3529  1.3453 -0.8808
   15MOL0     H 2002   7.909   1.338   5.254 -0.0986  1.2236 -2.6973
   15MOL0     H 2003   7.701   1.567   5.200 -1.1847 -1.7023  1.3544
   15MOL0     H 2004   7.731   1.431   5.106 -1.6330  1.4847 -0.4209
   15MOL0     H 2005   7.839   1.665   5.045  0.1576 -1.7077 -1.6310
   15MOL0     H 2006   7.953   1.520   5.043 -0.2602  0.1401 -2.2019
   15MOL0     H 2007   8.206   1.422   5.792  0.8159  1.9556  1.2097
   15MOL0     H 2008   8.432   1.497   5.752 -0.5607 -1.5954 -0.2834
   15MOL0     H 2009   8.862   1.581   5.683  0.4738 -0.2218 -0.8630
   15MOL0     H 2010   9.060   1.714   5.691  0.3505 -0.3983  0.8347
   15MOL0     H 2011   9.513   1.244   4.642  0.3919  0.6587 -3.1266
   15MOL0     H 2012   9.318   1.198   4.813 -1.1037 -0.6133 -0.7609
   15MOL0     H 2013   9.103   1.227   5.268 -2.2908  0.2097 -0.2792
   15MOL0     H 2014   8.973   1.038   5.327  0.7353  0.4373  0.3682
   15MOL0     H 2015   8.596   0.928   5.242 -0.7785  0.5918 -1.3018
   15MOL0     H 2016   8.640   1.038   5.118  2.1632  1.3826  0.7991
   15MOL0     H 2017   8.669   0.802   4.989  0.4982 -3.6702  0.8345
   15MOL0     H 2018   8.495   0.829   5.047 -1.4023 -1.5600  1.1289
   15MOL0     H 2019   8.684   0.687   5.228  0.2492 -2.6407  0.1874
   15MOL0     H 2020   8.645   0.605   5.091 -1.2381 -2.0350  1.6628
   15MOL0     H 2021   8.508   0.564   5.279  1.7817  1.5009  0.6740
   15MOL0     H 2022   8.422   0.597   5.129  2.5013 -0.1342 -1.7679
   15MOL0     H 2023   8.233   0.878   5.369  1.3430  0.8156  0.2504
   15MOL0     H 2024   8.802   1.017   4.932  1.1469 -2.5306 -0.0519
   15MOL0     H 2025   8.970   1.180   4.858 -0.6401  0.2673 -0.4251
   16MOL0     O 2026   5.861  11.420   5.672  0.5024  0.1484  0.1319
   16MOL0     C 2027   5.813  11.494   5.581  0.6182 -0.2155 -0.6365
   16MOL0     O 2028   5.689  11.480   5.528  0.3273  0.1379  0.0255
   16MOL0     C 2029   5.601  11.372   5.559 -0.3896 -0.0728  0.5840
   16MOL0     C 2030   5.644  11.226   5.584  0.5989 -0.9482  0.4360
   16MOL0     C 2031   5.542  11.127   5.608 -0.5671  0.6606  0.4578
   16MOL0     C 2032   5.408  11.156   5.593 -0.3800 -0.9598  1.5934
   16MOL0     O 2033   5.323  11.055   5.628 -0.3907 -0.3420 -0.8906
   16MOL0     C 2034   5.188  11.080   5.591 -0.2558  0.9175  0.1473
   16MOL0     C 2035   5.104  10.952   5.589  0.1293  0.4084  0.4396
   16MOL0     C 2036   5.151  10.846   5.486  0.1926  0.3087 -0.9732
   16MOL0     C 2037   5.089  10.706   5.510 -0.3872 -0.1756 -0.1684
   16MOL0     C 2038   5.156  10.593   5.440 -0.6193 -0.3344  0.4336
   16MOL0     C 2039   5.124  10.444   5.482 -0.0570 -0.3176 -0.2291
   16MOL0     C 2040   5.158  10.390   5.626  0.4168  0.2966  0.3577
   16MOL0     C 2041   5.095  10.258   5.669  0.2524 -0.0673  0.4224
   16MOL0     N 2042   5.160  10.153   5.587  0.0055  0.1267  0.1201
   16MOL0     C 2043   5.268  10.080   5.628 -0.1995  0.2640  0.4934
   16MOL0     C 2044   5.305  10.008   5.517 -1.0549  0.6700 -0.8620
   16MOL0     C 2045   5.397   9.893   5.526 -0.7752  0.0974  0.5503
   16MOL0     C 2046   5.473   9.908   5.386 -0.0896 -0.2707 -0.3556
   16MOL0     C 2047   5.581   9.799   5.363  0.2493  0.5741 -0.3033
   16MOL0     C 2048   5.534   9.650   5.377  0.0631 -0.1812  0.6635
   16MOL0     O 2049   5.508   9.600   5.514  0.5136  0.0529  0.1520
   16MOL0     C 2050   5.608   9.553   5.595 -0.5725  0.1814  0.0681
   16MOL0     C 2051   5.577   9.499   5.727  0.0185  0.0094 -0.2726
   16MOL0     C 2052   5.674   9.449   5.817  0.4070 -0.1295 -0.2006
   16MOL0     C 2053   5.633   9.395   5.955  0.7694 -0.2190  0.7195
   16MOL0     C 2054   5.818   9.460   5.779  0.1601 -0.0561 -0.7898
   16MOL0     C 2055   5.944   9.422   5.863  0.8137  0.7732 -0.6271
   16MOL0     O 2056   6.068   9.442   5.809 -0.1788  0.2280 -0.7438
   16MOL0     C 2057   6.188   9.396   5.855 -0.1395 -0.8027 -0.7275
   16MOL0     C 2058   6.284   9.487   5.912 -0.4673  0.0266  0.1220
   16MOL0     C 2059   6.407   9.446   5.966 -0.5822 -0.1252  0.7946
   16MOL0     C 2060   6.441   9.311   5.953 -0.0290 -0.7629  0.6535
   16MOL0     O 2061   6.562   9.276   6.010  0.3078 -0.1570 -0.1273
   16MOL0     C 2062   6.547   9.174   6.109 -0.2838 -0.4143 -0.2660
   16MOL0     C 2063   6.642   9.204   6.220 -0.0172 -0.2183  0.3521
   16MOL0     C 2064   6.612   9.111   6.341  0.0260  0.1747 -0.9105
   16MOL0     C 2065   6.693   9.141   6.462 -0.3665  0.0577 -1.2056
   16MOL0     C 2066   6.662   9.074   6.596  0.6455 -0.6547  0.4722
   16MOL0     C 2067   6.530   9.138   6.661 -0.3324  0.3522 -0.3276
   16MOL0     C 2068   6.498   9.289   6.671  0.3347 -0.4278 -0.2847
   16MOL0     C 2069   6.353   9.321   6.714 -1.7574 -0.3902  0.5683
   16MOL0    Cl 2070   6.236   9.309   6.599  0.2695  0.0054  0.6106
   16MOL0     C 2071   6.347   9.221   5.912 -0.3237 -0.2012  0.7318
   16MOL0     C 2072   6.221   9.265   5.859  0.8274 -1.1846  0.5680
   16MOL0     O 2073   5.925   9.374   5.978 -0.2195 -0.4251  0.2348
   16MOL0     C 2074   5.840   9.510   5.648 -0.0914 -0.6938  0.2155
   16MOL0     C 2075   5.741   9.548   5.559  0.3547  0.2764 -0.3363
   16MOL0     N 2076   5.211  10.030   5.420  0.6907  0.3834 -0.0733
   16MOL0     N 2077   5.125  10.118   5.460  0.0028 -0.2785 -0.5654
   16MOL0     C 2078   5.370  11.296   5.568 -0.2450 -0.9897 -0.3720
   16MOL0     C 2079   5.461  11.396   5.551  0.2932 -0.0308  0.6164
   16MOL0     C 2080   5.906  11.602   5.524  0.0710 -0.7520  0.9612
   16MOL0     C 2081   5.856  11.686   5.424  0.8625  0.1160  0.1504
   16MOL0     C 2082   5.930  11.786   5.373 -0.2980 -0.9857  0.5072
   16MOL0     C 2083   6.065  11.803   5.409  0.5548 -0.0940 -0.9010
   16MOL0     O 2084   6.122  11.916   5.353 -0.0990 -0.7220  0.6294
   16MOL0     C 2085   6.261  11.938   5.353  0.3668 -0.5616  0.4255
   16MOL0     C 2086   6.335  11.846   5.253  0.3676  0.5102 -0.1391
   16MOL0     C 2087   6.483  11.840   5.288 -0.1034 -0.5106 -0.9492
   16MOL0     C 2088   6.569  11.966   5.279 -0.5285 -0.1458 -0.0745
   16MOL0     C 2089   6.704  11.933   5.325 -0.0169  0.1339 -0.5726
   16MOL0     C 2090   6.813  11.906   5.360 -0.0870  0.8228 -0.8532
   16MOL0     C 2091   6.117  11.720   5.500  0.1064  0.9795 -0.1843
   16MOL0     C 2092   6.042  11.616   5.556  0.6268 -0.2504  0.5257
   16MOL0     H 2093   5.751  11.211   5.588  1.1524  0.7301 -3.2639
   16MOL0     H 2094   5.578  11.031   5.643  1.4868  1.9874  2.2412
   16MOL0     H 2095   5.145  11.149   5.664 -2.9626  0.0955 -0.5514
   16MOL0     H 2096   5.170  11.127   5.493 -0.2279  2.1775  0.7219
   16MOL0     H 2097   5.109  10.904   5.687 -2.2762  0.9158  0.8743
   16MOL0     H 2098   4.998  10.975   5.571 -0.8364 -0.8020  3.7998
   16MOL0     H 2099   5.126  10.866   5.381 -0.2724 -1.1067 -1.1567
   16MOL0     H 2100   5.260  10.841   5.487  0.2734  1.6516 -1.1860
   16MOL0     H 2101   5.116  10.685   5.614  1.1750 -0.0296 -0.5113
   16MOL0     H 2102   4.980  10.710   5.498 -0.3104  2.5193 -0.6961
   16MOL0     H 2103   5.144  10.602   5.331  1.3061 -3.5151 -0.1704
   16MOL0     H 2104   5.264  10.602   5.456 -0.3179 -0.8461 -1.0606
   16MOL0     H 2105   5.018  10.430   5.463  0.2555 -1.1663 -1.5013
   16MOL0     H 2106   5.167  10.383   5.402 -0.3288  1.1016 -1.5055
   16MOL0     H 2107   5.267  10.384   5.631  0.4903 -1.3721 -1.7364
   16MOL0     H 2108   5.124  10.469   5.694 -2.6454 -1.9830  1.6716
   16MOL0     H 2109   4.991  10.250   5.637  0.0807 -2.1545  1.3801
   16MOL0     H 2110   5.111  10.250   5.777  2.1691 -3.9507 -0.0021
   16MOL0     H 2111   5.308  10.087   5.729  0.5171 -1.3097  0.3423
   16MOL0     H 2112   5.475   9.905   5.601 -0.9106 -1.8669  1.0523
   16MOL0     H 2113   5.334   9.806   5.543 -2.6873  1.5518  1.1675
   16MOL0     H 2114   5.512  10.009   5.377  4.0560 -1.2312  3.1521
   16MOL0     H 2115   5.400   9.887   5.308 -0.2769  1.5914 -0.7264
   16MOL0     H 2116   5.659   9.814   5.438  0.9767 -3.0676 -0.1759
   16MOL0     H 2117   5.622   9.806   5.262  2.7728 -3.1138  0.2757
   16MOL0     H 2118   5.620   9.600   5.331  1.2751  0.0860  2.5661
   16MOL0     H 2119   5.437   9.626   5.332 -0.6711 -0.5690  2.3559
   16MOL0     H 2120   5.471   9.492   5.748 -0.3496  4.0720 -0.0629
   16MOL0     H 2121   5.526   9.407   5.973  0.7957  0.9333  0.2714
   16MOL0     H 2122   5.641   9.286   5.956 -2.6757 -0.6489 -1.2682
   16MOL0     H 2123   5.694   9.438   6.035  0.8065  1.9235 -0.3507
   16MOL0     H 2124   6.264   9.594   5.921 -2.0045 -0.2562  0.4082
   16MOL0     H 2125   6.491   9.514   5.982  0.9923 -0.4383 -4.2225
   16MOL0     H 2126   6.446   9.177   6.152  0.5326  0.6816  1.7175
   16MOL0     H 2127   6.568   9.075   6.070  2.7868 -0.4515  1.1825
   16MOL0     H 2128   6.743   9.197   6.179 -0.3335 -2.1648 -0.1621
   16MOL0     H 2129   6.629   9.311   6.239 -0.4556 -0.0990 -0.5431
   16MOL0     H 2130   6.623   9.007   6.306 -2.8382  0.0505 -1.6887
   16MOL0     H 2131   6.505   9.121   6.360  0.1518 -1.4220  0.9799
   16MOL0     H 2132   6.790   9.104   6.427  2.4431  1.4124  3.9814
   16MOL0     H 2133   6.718   9.247   6.475  1.9686 -0.2594 -2.5195
   16MOL0     H 2134   6.748   9.080   6.663  0.8629 -0.3319  0.1718
   16MOL0     H 2135   6.638   8.968   6.585 -2.5104 -0.0085  0.1732
   16MOL0     H 2136   6.451   9.085   6.606 -0.6233 -0.9838  1.3055
   16MOL0     H 2137   6.536   9.123   6.769 -3.1655  2.6615  0.2968
   16MOL0     H 2138   6.497   9.327   6.569  0.8030  0.0654 -0.1051
   16MOL0     H 2139   6.568   9.348   6.730 -1.0471  0.0616  0.9237
   16MOL0     H 2140   6.355   9.426   6.745 -2.6959  0.5669 -2.3468
   16MOL0     H 2141   6.326   9.269   6.807 -3.5532  1.0529  0.9235
   16MOL0     H 2142   6.369   9.115   5.901 -1.8301 -0.4330 -0.5429
   16MOL0     H 2143   6.150   9.187   5.835 -0.7620  0.1409  0.7723
   16MOL0     H 2144   5.940   9.526   5.610 -0.6307  3.1012 -0.0493
   16MOL0     H 2145   5.763   9.560   5.453 -1.3380 -3.8724 -1.3307
   16MOL0     H 2146   5.267  11.328   5.558 -0.2802 -1.8017 -4.1217
   16MOL0     H 2147   5.419  11.493   5.528  0.1227 -0.0341  0.8966
   16MOL0     H 2148   5.758  11.656   5.389  1.2847 -3.4352  1.5384
   16MOL0     H 2149   5.889  11.866   5.312  4.3001  1.1294 -0.2448
   16MOL0     H 2150   6.288  12.043   5.337  3.8709 -1.0934  1.8191
   16MOL0     H 2151   6.300  11.929   5.455 -0.6121 -2.8302  0.6548
   16MOL0     H 2152   6.313  11.867   5.148 -0.3225 -1.3374 -0.3996
   16MOL0     H 2153   6.304  11.742   5.269 -2.1314  1.3082  0.6515
   16MOL0     H 2154   6.522  11.768   5.214 -0.9258 -2.2460  0.2233
   16MOL0     H 2155   6.487  11.798   5.389 -1.4326  1.8795  0.1658
   16MOL0     H 2156   6.520  12.046   5.335  0.5710  0.3693  0.1975
   16MOL0     H 2157   6.589  11.996   5.175  1.9740  0.3296  0.4697
   16MOL0     H 2158   6.899  11.865   5.409 -1.8729  1.0995  2.8419
   16MOL0     H 2159   6.222  11.744   5.518 -0.1250  1.8071  0.0739
   16MOL0     H 2160   6.091  11.550   5.627  0.6595 -1.1328 -0.3096
   17MOL0     O 2161  10.742   9.813   5.689 -0.2115 -0.6609 -0.2191
   17MOL0     C 2162  10.829   9.731   5.661 -0.3650 -0.4372  0.3267
   17MOL0     O 2163  10.912   9.673   5.751  0.2333 -0.5286 -0.6365
   17MOL0     C 2164  10.906   9.717   5.875 -0.0851  0.1028 -1.2726
   17MOL0     C 2165  10.879   9.636   5.989 -0.3218 -0.8572  0.1240
   17MOL0     C 2166  10.872   9.695   6.119 -0.3188  0.2181 -0.5727
   17MOL0     C 2167  10.892   9.831   6.141 -0.0906  0.5041  0.9897
   17MOL0     O 2168  10.877   9.867   6.265 -0.2840 -0.2072 -0.1904
   17MOL0     C 2169  10.894  10.015   6.301 -0.1054  0.9743 -0.1964
   17MOL0     C 2170  11.042  10.053   6.321  0.8393 -0.4896  0.4084
   17MOL0     C 2171  11.052  10.175   6.397  0.0044  0.0665  0.0524
   17MOL0     C 2172  11.195  10.225   6.425  0.2478  0.0811 -0.7378
   17MOL0     C 2173  11.260  10.317   6.319 -0.5141 -0.4646 -0.3575
   17MOL0     C 2174  11.395  10.344   6.370  0.1927 -0.2770  0.7747
   17MOL0     C 2175  11.462  10.443   6.274 -0.1407 -0.0972  0.8317
   17MOL0     C 2176  11.548  10.374   6.162 -0.2118  0.2451 -0.1864
   17MOL0     N 2177  11.570  10.477   6.061 -0.7652 -0.0376 -1.5329
   17MOL0     C 2178  11.474  10.512   5.968  0.6467  0.2181  0.5548
   17MOL0     C 2179  11.533  10.614   5.900  0.3463 -0.6092  0.4364
   17MOL0     C 2180  11.471  10.711   5.808  0.4206  0.3594 -0.6007
   17MOL0     C 2181  11.455  10.639   5.671  0.7261  0.0238 -0.6198
   17MOL0     C 2182  11.398  10.733   5.569 -0.4141  0.4235  0.9853
   17MOL0     C 2183  11.518  10.810   5.513 -0.8979  0.7477  0.0235
   17MOL0     O 2184  11.532  10.941   5.573 -0.3089 -0.1589  0.1979
   17MOL0     C 2185  11.464  11.045   5.503  0.3012  0.0230 -0.2803
   17MOL0     C 2186  11.355  11.033   5.416  0.6383  0.1274 -0.4089
   17MOL0     C 2187  11.281  11.152   5.379  0.5396 -0.4504 -0.1480
   17MOL0     C 2188  11.163  11.140   5.289  0.0601  0.2877  0.7012
   17MOL0     C 2189  11.332  11.281   5.412 -0.2759  0.9974  0.1710
   17MOL0     C 2190  11.286  11.413   5.356 -1.0084 -0.0122  1.1227
   17MOL0     O 2191  11.342  11.525   5.402 -0.5911 -0.0067  0.5472
   17MOL0     C 2192  11.326  11.648   5.348  0.0231  1.2094 -0.1645
   17MOL0     C 2193  11.374  11.682   5.217  0.5842  0.1562 -1.6461
   17MOL0     C 2194  11.361  11.816   5.167 -0.1840 -0.4934 -0.1633
   17MOL0     C 2195  11.315  11.917   5.247 -0.2964 -0.1001  0.3241
   17MOL0     O 2196  11.314  12.052   5.205  0.5121  0.9301 -0.2915
   17MOL0     C 2197  11.425  12.115   5.132  0.2037  0.0840 -0.5086
   17MOL0     C 2198  11.566  12.084   5.170 -0.6578 -0.0807  0.2666
   17MOL0     C 2199  11.669  12.183   5.107  0.2575 -0.4414 -0.1399
   17MOL0     C 2200  11.676  12.157   4.954  0.0625 -0.2902 -0.1067
   17MOL0     C 2201  11.804  12.230   4.894  0.1290  0.0815  0.4225
   17MOL0     C 2202  11.937  12.170   4.923  0.0991  0.2584  0.6918
   17MOL0     C 2203  12.056  12.244   4.864  0.3236  0.0360 -0.1681
   17MOL0     C 2204  12.189  12.201   4.928 -0.9303 -0.8662  0.6701
   17MOL0    Cl 2205  12.197  12.295   5.084 -0.2805 -0.0151  0.5576
   17MOL0     C 2206  11.273  11.875   5.377  0.6684  0.0255  0.2678
   17MOL0     C 2207  11.279  11.749   5.429  0.4840  0.4632  0.6040
   17MOL0     O 2208  11.210  11.417   5.261  0.1597  0.1283 -1.0576
   17MOL0     C 2209  11.447  11.289   5.493 -1.2755 -0.2744  0.6611
   17MOL0     C 2210  11.505  11.173   5.541  0.2203  0.7523 -0.0956
   17MOL0     N 2211  11.664  10.628   5.942 -0.1814 -0.4047 -0.0506
   17MOL0     N 2212  11.680  10.550   6.038 -0.1597  0.0691  1.2229
   17MOL0     C 2213  10.931   9.905   6.032 -0.2508 -0.4675 -0.8808
   17MOL0     C 2214  10.941   9.850   5.902 -0.6461 -0.7139  0.0627
   17MOL0     C 2215  10.831   9.674   5.522 -1.2307 -0.8716 -0.3208
   17MOL0     C 2216  10.731   9.702   5.435  0.8681 -0.4767 -0.4495
   17MOL0     C 2217  10.728   9.640   5.309  0.4781 -0.4081 -0.3415
   17MOL0     C 2218  10.838   9.568   5.260  0.4566 -0.3614  0.0208
   17MOL0     O 2219  10.838   9.519   5.130  0.8486  0.4348 -0.8194
   17MOL0     C 2220  10.926   9.406   5.098  0.1277  0.6961 -0.1703
   17MOL0     C 2221  10.883   9.333   4.975 -0.3175 -0.5458  0.5760
   17MOL0     C 2222  10.911   9.418   4.843  0.0246  0.1359 -0.2237
   17MOL0     C 2223  10.835   9.363   4.719 -0.8941  0.3030 -0.3139
   17MOL0     C 2224  10.880   9.220   4.710  0.7607 -1.3624  0.7639
   17MOL0     C 2225  10.909   9.105   4.694 -0.1348  0.0282 -0.0582
   17MOL0     C 2226  10.940   9.549   5.344 -0.0321 -0.4230 -0.3705
   17MOL0     C 2227  10.943   9.586   5.481  0.0778  0.2072  0.8543
   17MOL0     H 2228  10.859   9.530   5.978 -5.6783 -0.0048 -1.0223
   17MOL0     H 2229  10.847   9.634   6.205  3.0545 -0.3373  0.1737
   17MOL0     H 2230  10.852  10.083   6.226  1.7735 -0.3864 -2.6227
   17MOL0     H 2231  10.841  10.034   6.395 -0.5682  1.2234 -0.5008
   17MOL0     H 2232  11.088   9.970   6.376 -1.3476 -1.8323  0.3296
   17MOL0     H 2233  11.093  10.070   6.226 -0.4301  3.8867  0.3226
   17MOL0     H 2234  11.014  10.262   6.342  2.2073  0.6495 -0.6777
   17MOL0     H 2235  11.005  10.168   6.495  0.7318  0.7903  0.4663
   17MOL0     H 2236  11.190  10.283   6.518  2.2851 -0.0975 -0.4513
   17MOL0     H 2237  11.268  10.146   6.445  3.2865  2.7872 -0.2576
   17MOL0     H 2238  11.260  10.270   6.221 -0.0456  1.0184 -1.0951
   17MOL0     H 2239  11.210  10.414   6.308 -0.9099 -0.8841 -2.7226
   17MOL0     H 2240  11.388  10.392   6.468  2.5205 -0.3050  0.9942
   17MOL0     H 2241  11.455  10.254   6.390  0.1760 -0.5980 -0.5452
   17MOL0     H 2242  11.386  10.510   6.233 -0.3555 -1.6277 -1.4629
   17MOL0     H 2243  11.530  10.498   6.340  1.1057  0.1245 -0.5744
   17MOL0     H 2244  11.493  10.291   6.117  0.4870  1.0704 -2.7050
   17MOL0     H 2245  11.641  10.339   6.209  0.3098  1.4820 -0.2641
   17MOL0     H 2246  11.371  10.480   5.952  1.0526 -0.8093 -0.1045
   17MOL0     H 2247  11.374  10.747   5.843 -1.3187  0.4838 -4.9170
   17MOL0     H 2248  11.535  10.800   5.803  0.4157  0.3370 -1.2614
   17MOL0     H 2249  11.387  10.554   5.684  0.4345  0.3138 -0.2083
   17MOL0     H 2250  11.554  10.596   5.653  0.6543 -0.9811  1.1485
   17MOL0     H 2251  11.324  10.806   5.604  1.6210  1.8980  2.4667
   17MOL0     H 2252  11.352  10.668   5.494  1.2895 -1.6574  1.6285
   17MOL0     H 2253  11.504  10.834   5.407 -0.8903  0.4031 -0.0548
   17MOL0     H 2254  11.601  10.742   5.533 -4.2988 -2.8374  4.0823
   17MOL0     H 2255  11.324  10.935   5.382 -0.2989  0.8049 -1.5654
   17MOL0     H 2256  11.086  11.214   5.311 -0.5862  0.1812 -1.0839
   17MOL0     H 2257  11.186  11.161   5.184 -1.4999  2.4107  0.7335
   17MOL0     H 2258  11.125  11.038   5.278  1.5912 -0.1499 -1.1466
   17MOL0     H 2259  11.412  11.602   5.154  5.8981  1.5632 -0.7077
   17MOL0     H 2260  11.380  11.837   5.062  0.6281 -0.2629  0.0248
   17MOL0     H 2261  11.412  12.082   5.029  3.0848  0.7713 -1.1572
   17MOL0     H 2262  11.409  12.223   5.136 -0.2953 -0.0149  0.7913
   17MOL0     H 2263  11.569  12.081   5.279 -0.7336 -0.9497  0.2574
   17MOL0     H 2264  11.601  11.986   5.135 -0.3471 -0.4511  1.5541
   17MOL0     H 2265  11.766  12.168   5.155 -0.1311 -4.8549 -0.3728
   17MOL0     H 2266  11.631  12.285   5.117 -0.7110 -0.7639 -0.4368
   17MOL0     H 2267  11.692  12.052   4.928 -1.2123 -1.0398  1.9515
   17MOL0     H 2268  11.587  12.192   4.902 -0.3547 -2.2672 -0.8055
   17MOL0     H 2269  11.815  12.334   4.926  1.8953  0.6715 -1.7836
   17MOL0     H 2270  11.794  12.245   4.786  0.5786 -0.0847  0.3525
   17MOL0     H 2271  11.952  12.164   5.032  1.4266 -0.2965  0.5032
   17MOL0     H 2272  11.941  12.066   4.891 -0.0694  0.5962 -0.4427
   17MOL0     H 2273  12.058  12.353   4.858  1.4081  0.0906  0.8830
   17MOL0     H 2274  12.065  12.224   4.757 -0.0164 -3.3975  0.3339
   17MOL0     H 2275  12.269  12.234   4.861 -2.8321 -0.0694 -1.3338
   17MOL0     H 2276  12.195  12.092   4.938 -2.5908 -0.8169  2.8907
   17MOL0     H 2277  11.219  11.940   5.445 -0.8841 -1.7517  0.8302
   17MOL0     H 2278  11.254  11.728   5.532 -1.8545  2.1339  0.4494
   17MOL0     H 2279  11.495  11.381   5.526  0.1773 -0.7385 -0.0533
   17MOL0     H 2280  11.574  11.185   5.624 -0.8864  1.0629  0.8020
   17MOL0     H 2281  10.966  10.008   6.039 -2.1724  0.1055  1.2376
   17MOL0     H 2282  10.943   9.924   5.823 -1.3568 -2.0469 -1.2460
   17MOL0     H 2283  10.649   9.767   5.463  1.1107 -0.6110  0.5932
   17MOL0     H 2284  10.640   9.661   5.251  0.0510 -1.8250 -0.2559
   17MOL0     H 2285  11.032   9.436   5.098  1.6735 -3.7588 -2.8550
   17MOL0     H 2286  10.923   9.325   5.171 -2.7635  0.8965  0.0399
   17MOL0     H 2287  10.776   9.311   4.987 -1.2079  3.2015  0.6219
   17MOL0     H 2288  10.952   9.249   4.976 -0.8934 -1.0286  0.8059
   17MOL0     H 2289  11.019   9.402   4.832  0.7925  0.2522  4.6386
   17MOL0     H 2290  10.885   9.520   4.871  2.7301  0.3607  1.8679
   17MOL0     H 2291  10.858   9.424   4.631 -2.3005 -0.3419 -1.1672
   17MOL0     H 2292  10.726   9.364   4.724 -0.8365  1.6949  2.2432
   17MOL0     H 2293  10.949   9.006   4.688 -3.0359 -1.2051 -0.3840
   17MOL0     H 2294  11.023   9.489   5.307 -0.8728 -1.5273 -0.5279
   17MOL0     H 2295  11.025   9.560   5.547 -1.3859  0.1844  2.7669
   18MOL0     O 2296   1.203  10.930   3.300  0.1963  0.4127  0.9460
   18MOL0     C 2297   1.218  10.981   3.192 -1.2024 -1.1035 -0.1393
   18MOL0     O 2298   1.214  10.935   3.064 -0.5727  0.4729 -1.0222
   18MOL0     C 2299   1.196  10.799   3.056  0.4696  1.2188  0.8436
   18MOL0     C 2300   1.082  10.748   3.001  0.9351 -0.1499  0.1642
   18MOL0     C 2301   1.051  10.613   2.989  0.2639 -0.0243 -0.3861
   18MOL0     C 2302   1.145  10.522   3.027 -1.4088  0.0845 -0.4467
   18MOL0     O 2303   1.114  10.390   3.012 -0.2319 -0.5814  0.2985
   18MOL0     C 2304   1.196  10.279   3.039  0.5689 -0.3465 -0.6492
   18MOL0     C 2305   1.099  10.165   3.058 -0.3378  0.1409 -0.4983
   18MOL0     C 2306   1.012  10.177   3.186  0.9621 -0.1848  0.4670
   18MOL0     C 2307   0.934  10.047   3.208  0.8276  0.5304 -0.3018
   18MOL0     C 2308   0.833  10.053   3.319 -0.0609 -0.3793 -0.7822
   18MOL0     C 2309   0.727   9.943   3.310  0.0278  0.0841  0.7149
   18MOL0     C 2310   0.625   9.966   3.417 -0.7551  0.0327  0.2692
   18MOL0     C 2311   0.662   9.946   3.564  0.0144 -0.6650  0.2693
   18MOL0     N 2312   0.621   9.812   3.595  0.3573  0.5257  0.0955
   18MOL0     C 2313   0.495   9.759   3.583  0.1073  0.2492 -0.0309
   18MOL0     C 2314   0.519   9.624   3.604  0.3838  0.9396  0.1474
   18MOL0     C 2315   0.408   9.515   3.622 -1.3293 -0.6743 -0.1645
   18MOL0     C 2316   0.437   9.398   3.712 -0.2140 -0.2650 -0.2064
   18MOL0     C 2317   0.555   9.311   3.669 -0.0470  0.9287  0.1643
   18MOL0     C 2318   0.521   9.163   3.679  0.2885  0.4093 -0.8494
   18MOL0     O 2319   0.499   9.117   3.811 -0.3797 -0.4927 -0.3433
   18MOL0     C 2320   0.460   8.988   3.834  0.1255 -0.3240 -0.9470
   18MOL0     C 2321   0.476   8.944   3.971  0.1323  0.5131  0.5265
   18MOL0     C 2322   0.444   8.812   4.006  0.0223  0.2979  0.5877
   18MOL0     C 2323   0.458   8.776   4.148 -0.2518 -0.5462  0.1449
   18MOL0     C 2324   0.383   8.721   3.904  0.1133 -0.6448  0.0264
   18MOL0     C 2325   0.341   8.588   3.937  0.5680 -0.6292 -0.1564
   18MOL0     O 2326   0.428   8.512   4.009 -0.6441 -0.0439 -0.4818
   18MOL0     C 2327   0.408   8.386   4.047  0.2056 -0.0311  0.1610
   18MOL0     C 2328   0.454   8.336   4.171  0.1274 -1.0748 -0.6717
   18MOL0     C 2329   0.473   8.198   4.191 -0.6183  0.6024  0.2074
   18MOL0     C 2330   0.439   8.102   4.090  0.1753 -0.3477  1.4342
   18MOL0     O 2331   0.454   7.969   4.125 -0.0413  0.6200 -0.5851
   18MOL0     C 2332   0.423   7.860   4.031 -0.0490  0.5832  0.6393
   18MOL0     C 2333   0.511   7.740   4.070  0.3467 -0.6612 -0.2477
   18MOL0     C 2334   0.492   7.640   3.961  0.1580  0.1455  0.1710
   18MOL0     C 2335   0.613   7.543   3.945  0.6079 -0.1162  0.3837
   18MOL0     C 2336   0.592   7.440   3.834  0.5030  0.8909 -0.1628
   18MOL0     C 2337   0.722   7.370   3.808  0.2830 -0.2116  0.3457
   18MOL0     C 2338   0.707   7.236   3.737  0.0088 -0.4880  0.0358
   18MOL0     C 2339   0.835   7.156   3.764  0.1698 -0.0997 -0.1106
   18MOL0    Cl 2340   0.837   7.003   3.692 -0.5940 -0.1049  0.2505
   18MOL0     C 2341   0.401   8.149   3.964 -0.2899  0.6903 -0.1249
   18MOL0     C 2342   0.382   8.286   3.948 -0.4822  1.0114  0.8346
   18MOL0     O 2343   0.228   8.556   3.898 -0.0234  0.5318  0.3690
   18MOL0     C 2344   0.372   8.768   3.772  0.0086 -0.4181  0.4632
   18MOL0     C 2345   0.411   8.900   3.742  1.1177  0.4179  0.1067
   18MOL0     N 2346   0.653   9.609   3.624  0.4361  0.1078  0.7246
   18MOL0     N 2347   0.713   9.721   3.623 -1.0317  0.4204  0.5831
   18MOL0     C 2348   1.259  10.563   3.090  0.4735  0.5217  0.1202
   18MOL0     C 2349   1.282  10.701   3.110 -0.4152 -1.2466 -1.0170
   18MOL0     C 2350   1.274  11.125   3.198  1.4399  0.8304 -0.6507
   18MOL0     C 2351   1.260  11.215   3.088  0.2659  0.3452  0.6129
   18MOL0     C 2352   1.291  11.348   3.109 -0.2307 -0.9141 -0.2901
   18MOL0     C 2353   1.356  11.389   3.224  0.9085 -0.9844 -0.0487
   18MOL0     O 2354   1.398  11.520   3.239  0.7889  0.1188  0.0533
   18MOL0     C 2355   1.358  11.620   3.139  0.1468  0.4598  0.6371
   18MOL0     C 2356   1.411  11.749   3.189 -0.9569 -0.5247 -0.3870
   18MOL0     C 2357   1.569  11.750   3.203 -0.3442 -0.7246  1.1675
   18MOL0     C 2358   1.631  11.762   3.059 -0.2140 -0.4858 -0.4167
   18MOL0     C 2359   1.620  11.899   3.001 -0.1066  0.1011 -0.1904
   18MOL0     C 2360   1.628  12.010   2.953  0.6729  0.6827 -0.1570
   18MOL0     C 2361   1.383  11.303   3.328 -0.2880  0.2510  0.1476
   18MOL0     C 2362   1.344  11.166   3.317 -0.0303  0.5770  0.4997
   18MOL0     H 2363   0.995  10.810   2.978 -2.4193 -3.9686  1.4266
   18MOL0     H 2364   0.957  10.576   2.950 -0.1091  0.4783  0.0328
   18MOL0     H 2365   1.252  10.258   2.948  0.6077  2.1391 -1.2683
   18MOL0     H 2366   1.257  10.298   3.128  1.5145  1.6125 -1.6373
   18MOL0     H 2367   1.033  10.159   2.971 -0.9114  0.4418 -0.0975
   18MOL0     H 2368   1.166  10.078   3.062 -0.7153 -0.1193  1.2882
   18MOL0     H 2369   1.088  10.185   3.264  0.2593 -0.4528  1.1891
   18MOL0     H 2370   0.941  10.259   3.178  2.2440  0.8541 -0.8858
   18MOL0     H 2371   0.867  10.046   3.121  0.5154  1.2639 -0.0830
   18MOL0     H 2372   1.001   9.961   3.210 -1.2898 -1.1782  1.2825
   18MOL0     H 2373   0.889  10.043   3.413 -0.0975  0.0428 -0.7122
   18MOL0     H 2374   0.780  10.148   3.314 -1.6429 -1.1723  0.2103
   18MOL0     H 2375   0.672   9.958   3.216  0.9474 -1.7771 -0.1588
   18MOL0     H 2376   0.778   9.847   3.317  1.7917  0.9151 -0.0214
   18MOL0     H 2377   0.604  10.073   3.421  0.9071  0.4828 -1.6758
   18MOL0     H 2378   0.531   9.920   3.387  1.1377 -2.3860 -2.5664
   18MOL0     H 2379   0.597  10.017   3.617 -1.6777 -0.8052 -1.4875
   18MOL0     H 2380   0.766   9.975   3.584 -0.0267 -0.9227  0.8807
   18MOL0     H 2381   0.400   9.808   3.566 -0.5199 -1.5786 -2.3102
   18MOL0     H 2382   0.318   9.564   3.661 -1.6152 -1.1984 -0.1565
   18MOL0     H 2383   0.392   9.481   3.520  3.7824 -0.1269 -1.4039
   18MOL0     H 2384   0.340   9.347   3.714 -0.3336 -0.2724 -2.9329
   18MOL0     H 2385   0.458   9.430   3.814  2.4968 -2.6353  0.1217
   18MOL0     H 2386   0.642   9.336   3.730  0.5193  1.0919 -0.7024
   18MOL0     H 2387   0.595   9.329   3.569  1.0350  1.9456  0.7594
   18MOL0     H 2388   0.612   9.111   3.645 -0.1556  0.4311 -2.1196
   18MOL0     H 2389   0.439   9.132   3.615  2.0834  0.1732 -3.1911
   18MOL0     H 2390   0.518   9.010   4.046  0.5326  3.1849 -1.8562
   18MOL0     H 2391   0.522   8.849   4.197  2.3431 -0.0071 -3.6118
   18MOL0     H 2392   0.358   8.773   4.193  0.3822  0.0944  1.6726
   18MOL0     H 2393   0.504   8.680   4.170  4.1280  0.6062 -2.7631
   18MOL0     H 2394   0.473   8.414   4.244 -0.6037 -1.0722 -0.4756
   18MOL0     H 2395   0.513   8.175   4.289 -1.9175  0.6529  0.7715
   18MOL0     H 2396   0.322   7.822   4.048  0.6747 -1.4723  0.6157
   18MOL0     H 2397   0.456   7.896   3.933  2.0737  0.8430  1.3944
   18MOL0     H 2398   0.613   7.780   4.071  0.1669 -0.0341  3.0212
   18MOL0     H 2399   0.490   7.703   4.170  2.0370  1.7961  1.1290
   18MOL0     H 2400   0.473   7.694   3.868 -0.1439  0.6441  0.5114
   18MOL0     H 2401   0.400   7.584   3.983  0.8689 -0.0175  3.1267
   18MOL0     H 2402   0.705   7.598   3.924 -1.3986  2.9474 -1.0894
   18MOL0     H 2403   0.642   7.495   4.039  1.8914  1.3063  0.7433
   18MOL0     H 2404   0.556   7.496   3.748 -1.4514  0.5992  0.4083
   18MOL0     H 2405   0.512   7.370   3.860  0.9167  0.1037 -0.9326
   18MOL0     H 2406   0.777   7.443   3.748  0.4592  1.9652  2.9479
   18MOL0     H 2407   0.772   7.362   3.905 -1.2203  1.7974  1.3699
   18MOL0     H 2408   0.695   7.243   3.628 -0.8536 -2.2021 -0.0263
   18MOL0     H 2409   0.626   7.184   3.789 -0.5089 -1.5556 -1.7530
   18MOL0     H 2410   0.846   7.147   3.873  1.5769 -0.3179 -0.2422
   18MOL0     H 2411   0.928   7.209   3.741 -0.1140 -0.3353 -1.9839
   18MOL0     H 2412   0.387   8.078   3.883  0.0371  1.2947 -0.7224
   18MOL0     H 2413   0.361   8.329   3.850  0.6982 -1.6536 -0.6915
   18MOL0     H 2414   0.345   8.708   3.685  0.5882  1.3773 -1.0116
   18MOL0     H 2415   0.392   8.936   3.641 -1.9929  0.0880  0.4775
   18MOL0     H 2416   1.331  10.495   3.136  1.6941 -0.5749 -3.1022
   18MOL0     H 2417   1.378  10.735   3.147  0.1775 -1.5642 -2.2046
   18MOL0     H 2418   1.204  11.177   3.003 -3.1162 -0.8915  3.1415
   18MOL0     H 2419   1.266  11.414   3.028  0.5293 -0.4502 -0.1590
   18MOL0     H 2420   1.405  11.591   3.044 -1.5025  0.3032 -0.1634
   18MOL0     H 2421   1.250  11.618   3.123  0.2410  0.8853 -0.1188
   18MOL0     H 2422   1.372  11.770   3.289 -0.5793  3.0215 -0.8440
   18MOL0     H 2423   1.395  11.834   3.122  3.9123  0.4002 -0.7433
   18MOL0     H 2424   1.604  11.653   3.240  0.7551 -0.2658  1.3750
   18MOL0     H 2425   1.600  11.830   3.270  2.2048 -0.3069 -0.3811
   18MOL0     H 2426   1.585  11.694   2.987  1.5988 -0.6791 -1.4607
   18MOL0     H 2427   1.736  11.733   3.059 -0.1710 -0.3571 -1.1870
   18MOL0     H 2428   1.647  12.104   2.905 -1.1548  1.0979 -0.1523
   18MOL0     H 2429   1.445  11.329   3.413 -2.0187  0.2502  1.4723
   18MOL0     H 2430   1.371  11.094   3.394  0.9953 -0.6280 -0.9230
   19MOL0     O 2431  10.548  10.621   3.976  0.3978  0.5078  0.5225
   19MOL0     C 2432  10.662  10.623   3.929  0.9836 -0.0775  0.1463
   19MOL0     O 2433  10.692  10.630   3.797  0.0650  0.1699  0.2810
   19MOL0     C 2434  10.589  10.624   3.711  0.1476  0.8220 -0.0404
   19MOL0     C 2435  10.517  10.736   3.686  0.0834  0.2321 -1.2491
   19MOL0     C 2436  10.412  10.733   3.589 -0.2103 -0.3617  0.8327
   19MOL0     C 2437  10.370  10.609   3.531 -0.8006  0.4106 -0.5965
   19MOL0     O 2438  10.269  10.632   3.450 -0.0753 -0.1626 -0.3106
   19MOL0     C 2439  10.186  10.521   3.402  0.3372  0.0954 -0.2211
   19MOL0     C 2440  10.169  10.496   3.254 -0.0302  0.8514  0.1971
   19MOL0     C 2441  10.078  10.608   3.185 -0.0290  0.3735 -0.4508
   19MOL0     C 2442   9.925  10.599   3.208 -0.1250 -0.2192  0.4249
   19MOL0     C 2443   9.845  10.706   3.129  0.8194  0.7934  0.0261
   19MOL0     C 2444   9.788  10.809   3.226  0.5684  0.3236 -0.0272
   19MOL0     C 2445   9.706  10.921   3.155 -0.5851 -0.1241 -0.2645
   19MOL0     C 2446   9.687  11.049   3.239  0.6296 -0.3629 -0.6148
   19MOL0     N 2447   9.652  11.022   3.380  0.7104 -1.2549 -0.7423
   19MOL0     C 2448   9.531  10.963   3.421  0.6068  0.5056  0.6318
   19MOL0     C 2449   9.548  10.929   3.557 -0.5665 -0.3701  0.2043
   19MOL0     C 2450   9.446  10.850   3.647  0.0474  0.4394 -0.3178
   19MOL0     C 2451   9.467  10.704   3.628 -0.9372 -0.7346 -0.1066
   19MOL0     C 2452   9.403  10.612   3.728  0.3639 -0.2983  0.5520
   19MOL0     C 2453   9.260  10.652   3.771 -0.9452 -0.0582  0.0020
   19MOL0     O 2454   9.193  10.533   3.795 -0.4534 -0.1623  0.4008
   19MOL0     C 2455   9.058  10.541   3.810  0.4828 -0.3572 -0.6271
   19MOL0     C 2456   8.985  10.423   3.814 -0.3842  0.2002  0.1192
   19MOL0     C 2457   8.845  10.409   3.818 -1.1650  1.1026  0.4837
   19MOL0     C 2458   8.799  10.273   3.842  0.1421 -0.3267 -0.3440
   19MOL0     C 2459   8.767  10.528   3.821 -0.0083 -0.5408  0.1266
   19MOL0     C 2460   8.610  10.536   3.855  0.1864 -0.4162  0.2748
   19MOL0     O 2461   8.546  10.664   3.827  0.0767  0.0398 -0.3394
   19MOL0     C 2462   8.408  10.673   3.846  1.5075  0.2294  0.1075
   19MOL0     C 2463   8.336  10.638   3.972 -0.4572  0.1773  0.4808
   19MOL0     C 2464   8.200  10.646   3.979  0.1100 -1.4789  1.2453
   19MOL0     C 2465   8.131  10.707   3.875  0.4425 -0.0948 -0.0075
   19MOL0     O 2466   7.988  10.717   3.894 -0.2853  0.3692 -0.9488
   19MOL0     C 2467   7.906  10.660   3.787 -0.2261 -0.5633  0.4659
   19MOL0     C 2468   7.818  10.760   3.705  0.3174  0.5654  0.3975
   19MOL0     C 2469   7.742  10.698   3.581  0.1995  0.1318 -0.5268
   19MOL0     C 2470   7.701  10.542   3.598 -0.1716  0.0552 -1.1517
   19MOL0     C 2471   7.599  10.488   3.494 -0.2990 -0.2509 -0.8841
   19MOL0     C 2472   7.574  10.342   3.514  0.8997  1.5741  0.3255
   19MOL0     C 2473   7.473  10.282   3.412 -0.8909  0.3051 -0.4944
   19MOL0     C 2474   7.330  10.294   3.465  0.0773  1.1630  0.4520
   19MOL0    Cl 2475   7.286  10.164   3.583  0.0819 -0.0808  0.4408
   19MOL0     C 2476   8.199  10.736   3.748  0.2084  1.4584  0.1600
   19MOL0     C 2477   8.332  10.721   3.740 -0.6107  0.1786 -0.7617
   19MOL0     O 2478   8.546  10.434   3.877  0.2707 -0.6184  0.5400
   19MOL0     C 2479   8.839  10.650   3.825  0.1254 -0.3333  0.1664
   19MOL0     C 2480   8.981  10.651   3.836 -1.4285  0.3336 -0.4385
   19MOL0     N 2481   9.676  10.966   3.591 -0.0852 -0.0507 -0.3712
   19MOL0     N 2482   9.732  11.019   3.487 -0.2721  0.5387 -0.4673
   19MOL0     C 2483  10.441  10.494   3.560 -0.0962 -0.0064  0.0323
   19MOL0     C 2484  10.556  10.502   3.651  1.0473  0.3756  1.6405
   19MOL0     C 2485  10.774  10.630   4.024 -0.1644 -0.3630 -0.5206
   19MOL0     C 2486  10.754  10.619   4.166 -0.3995 -0.4766 -0.3725
   19MOL0     C 2487  10.870  10.622   4.247  0.0542  0.4696 -0.8547
   19MOL0     C 2488  10.995  10.648   4.200  0.6326  0.8500  1.1724
   19MOL0     O 2489  11.095  10.648   4.298  0.7422  0.1641 -0.4705
   19MOL0     C 2490  11.179  10.760   4.320 -0.2273  0.1806 -0.2963
   19MOL0     C 2491  11.253  10.743   4.455  0.8262  0.0267  0.4841
   19MOL0     C 2492  11.367  10.844   4.475 -0.2500 -0.1562 -0.2350
   19MOL0     C 2493  11.419  10.831   4.617  0.5005 -0.2968  0.9877
   19MOL0     C 2494  11.544  10.888   4.645  0.4447 -0.1783 -0.4801
   19MOL0     C 2495  11.640  10.948   4.682 -0.0411  0.0184  0.0498
   19MOL0     C 2496  11.017  10.663   4.061  0.5487  0.2696 -0.0101
   19MOL0     C 2497  10.905  10.657   3.973 -0.1790 -0.9447  0.6418
   19MOL0     H 2498  10.553  10.833   3.720 -0.8363  0.3614 -0.6119
   19MOL0     H 2499  10.369  10.828   3.559  0.2686  0.1889  1.8258
   19MOL0     H 2500  10.212  10.429   3.455  0.6604  2.5009  4.2534
   19MOL0     H 2501  10.089  10.546   3.446 -0.0331 -0.8746 -0.4537
   19MOL0     H 2502  10.275  10.488   3.225 -0.4813  2.1219 -2.0312
   19MOL0     H 2503  10.123  10.398   3.234 -2.1350  1.8073  0.1181
   19MOL0     H 2504  10.116  10.699   3.232  1.3033  1.0240 -2.6665
   19MOL0     H 2505  10.107  10.611   3.080 -0.1799 -1.7136 -0.6068
   19MOL0     H 2506   9.886  10.503   3.174  1.0844  0.0709 -2.0136
   19MOL0     H 2507   9.906  10.613   3.314  1.4132  0.8848  0.5881
   19MOL0     H 2508   9.908  10.753   3.053 -0.0467  0.4958 -0.8889
   19MOL0     H 2509   9.764  10.653   3.079  1.7830 -0.1395 -0.6003
   19MOL0     H 2510   9.725  10.749   3.292  0.0516 -1.2065 -1.8303
   19MOL0     H 2511   9.862  10.854   3.293 -0.1211  0.4233  0.6928
   19MOL0     H 2512   9.757  10.948   3.062  0.6453 -0.0411  0.4244
   19MOL0     H 2513   9.607  10.884   3.127  0.1906 -3.3711  0.9359
   19MOL0     H 2514   9.609  11.104   3.186 -1.4904 -1.1916  1.4929
   19MOL0     H 2515   9.786  11.097   3.242 -0.4010  1.8496  1.9669
   19MOL0     H 2516   9.443  10.946   3.359  0.0862  1.2276  1.1575
   19MOL0     H 2517   9.462  10.878   3.752  2.2126  0.5422 -0.6236
   19MOL0     H 2518   9.342  10.868   3.620 -0.0514  1.1378  0.4587
   19MOL0     H 2519   9.575  10.687   3.641 -0.7386 -0.8565 -1.6194
   19MOL0     H 2520   9.428  10.680   3.528  1.8282 -2.8019 -0.8372
   19MOL0     H 2521   9.469  10.617   3.815 -0.2210  0.4445  0.9622
   19MOL0     H 2522   9.404  10.516   3.676 -0.6031  0.3530 -0.7203
   19MOL0     H 2523   9.212  10.705   3.689 -0.9770 -0.6978 -0.3974
   19MOL0     H 2524   9.277  10.711   3.862  0.0894  2.3852 -1.6818
   19MOL0     H 2525   9.038  10.332   3.786  1.7078  1.4350 -0.1446
   19MOL0     H 2526   8.701  10.253   3.800 -1.3450  1.0363  2.2355
   19MOL0     H 2527   8.865  10.194   3.803  1.4576  0.1222  0.8674
   19MOL0     H 2528   8.792  10.254   3.950 -0.3496 -1.5156 -0.5774
   19MOL0     H 2529   8.392  10.605   4.059  2.5250  0.6462 -1.1100
   19MOL0     H 2530   8.139  10.608   4.060 -1.7409 -1.5249 -0.0984
   19MOL0     H 2531   7.960  10.590   3.724  0.0320  0.1225 -0.0851
   19MOL0     H 2532   7.843  10.593   3.846  0.4156 -2.0967 -0.5532
   19MOL0     H 2533   7.742  10.807   3.770  0.2980  0.2256  0.6207
   19MOL0     H 2534   7.884  10.842   3.674  2.6435 -0.9983  0.9701
   19MOL0     H 2535   7.806  10.712   3.494  2.4297 -2.9696  0.4621
   19MOL0     H 2536   7.649  10.755   3.571  0.2770  0.1092 -1.5358
   19MOL0     H 2537   7.795  10.486   3.593  1.3589  2.2754  0.6314
   19MOL0     H 2538   7.670  10.535   3.702  1.4007  0.9313 -0.5820
   19MOL0     H 2539   7.644  10.508   3.397  3.7528 -1.3191  0.5746
   19MOL0     H 2540   7.509  10.549   3.499 -1.3630 -1.8660  1.6401
   19MOL0     H 2541   7.670  10.290   3.510  0.7044  1.1397  1.0100
   19MOL0     H 2542   7.536  10.323   3.615 -0.5356 -1.3124 -0.6342
   19MOL0     H 2543   7.509  10.180   3.397  1.9033  1.0342  0.7204
   19MOL0     H 2544   7.485  10.340   3.319  0.5213  0.1162 -0.4443
   19MOL0     H 2545   7.258  10.291   3.382  1.6219 -0.2956 -0.8831
   19MOL0     H 2546   7.310  10.383   3.526 -3.0206  2.6936 -2.4040
   19MOL0     H 2547   8.148  10.771   3.659 -2.0562 -2.7449 -0.4314
   19MOL0     H 2548   8.384  10.739   3.647  0.2744  0.5773 -0.2078
   19MOL0     H 2549   8.788  10.746   3.829  0.9178  0.3468 -2.9332
   19MOL0     H 2550   9.033  10.745   3.853  0.9966 -0.8230 -0.9957
   19MOL0     H 2551  10.430  10.405   3.498 -0.0898  0.9573 -1.4045
   19MOL0     H 2552  10.614  10.410   3.655 -0.0899 -0.5598 -0.8566
   19MOL0     H 2553  10.655  10.604   4.207  0.5030 -0.1394  2.1211
   19MOL0     H 2554  10.857  10.598   4.352 -0.1679  0.7856 -0.8087
   19MOL0     H 2555  11.252  10.761   4.238  1.4667 -2.9724  1.0185
   19MOL0     H 2556  11.123  10.854   4.317  0.4970  0.6664  0.7319
   19MOL0     H 2557  11.305  10.646   4.462  0.3615 -0.1259  2.1055
   19MOL0     H 2558  11.175  10.748   4.531  0.2111 -4.4274  0.4517
   19MOL0     H 2559  11.320  10.942   4.490 -0.6982 -0.4344  0.1871
   19MOL0     H 2560  11.441  10.832   4.396 -0.8404 -2.2294 -0.5085
   19MOL0     H 2561  11.425  10.728   4.652  2.4395 -0.8890 -0.8524
   19MOL0     H 2562  11.348  10.880   4.684 -0.4454  0.1021 -0.2699
   19MOL0     H 2563  11.720  11.007   4.722  0.4335 -1.4867  1.4281
   19MOL0     H 2564  11.121  10.677   4.032  0.8456 -2.0818 -0.2569
   19MOL0     H 2565  10.929  10.666   3.868 -1.5573 -0.2319  0.3552
   20MOL0     O 2566   3.560   8.518   5.724 -0.2159 -0.6093  0.0327
   20MOL0     C 2567   3.606   8.613   5.784 -0.1643 -0.8261 -0.5201
   20MOL0     O 2568   3.679   8.721   5.728  0.0475 -0.0121  0.1762
   20MOL0     C 2569   3.671   8.738   5.593  0.4887  0.0398 -0.0141
   20MOL0     C 2570   3.791   8.785   5.532 -0.2082 -0.9550 -0.0401
   20MOL0     C 2571   3.812   8.810   5.400 -0.3924 -0.1548  0.5968
   20MOL0     C 2572   3.694   8.776   5.316 -0.7625 -0.2782 -0.8787
   20MOL0     O 2573   3.695   8.802   5.182  0.5988 -0.4410 -0.4429
   20MOL0     C 2574   3.668   8.948   5.172  0.0890  0.1419  0.1771
   20MOL0     C 2575   3.662   8.991   5.022  0.2727  0.2565  0.3437
   20MOL0     C 2576   3.598   9.133   5.031 -0.2545  0.0371 -0.2969
   20MOL0     C 2577   3.554   9.186   4.894 -0.3023 -0.2477 -0.3972
   20MOL0     C 2578   3.548   9.335   4.904 -0.4063 -0.7520  1.0905
   20MOL0     C 2579   3.478   9.400   4.784 -0.2867  0.6714  0.3447
   20MOL0     C 2580   3.475   9.545   4.807 -0.1703  0.3028 -0.0889
   20MOL0     C 2581   3.440   9.619   4.676 -0.8212  0.3841 -0.0123
   20MOL0     N 2582   3.302   9.581   4.630  0.5620  0.3745  0.3267
   20MOL0     C 2583   3.270   9.461   4.570 -0.6832  0.1376  0.3989
   20MOL0     C 2584   3.137   9.470   4.536 -0.4199  0.2009  0.0576
   20MOL0     C 2585   3.074   9.356   4.454 -0.4230  0.3418  0.2073
   20MOL0     C 2586   3.053   9.398   4.319 -0.2040 -0.1212  0.7997
   20MOL0     C 2587   3.039   9.277   4.225 -0.9052  0.0168  1.1462
   20MOL0     C 2588   2.900   9.219   4.239  1.3436 -0.1486  0.3718
   20MOL0     O 2589   2.875   9.146   4.116 -0.1700  0.1150  0.3252
   20MOL0     C 2590   2.917   9.012   4.110 -0.1140 -1.0912 -0.3354
   20MOL0     C 2591   2.904   8.956   3.978 -0.0127 -0.4768 -0.3287
   20MOL0     C 2592   2.956   8.831   3.944 -0.0242  0.5423 -0.4192
   20MOL0     C 2593   2.939   8.772   3.811  0.1326  0.6943 -0.4815
   20MOL0     C 2594   3.022   8.754   4.041  0.4771  0.0469  0.3389
   20MOL0     C 2595   3.054   8.611   4.032 -0.8865 -0.0514  0.5542
   20MOL0     O 2596   3.048   8.544   4.147  0.0571 -0.8560 -0.4846
   20MOL0     C 2597   3.055   8.404   4.134  0.2173  0.6480 -0.0383
   20MOL0     C 2598   2.954   8.321   4.078 -0.4218  0.4549  0.3609
   20MOL0     C 2599   2.958   8.187   4.083  0.2404  0.1863  0.5968
   20MOL0     C 2600   3.057   8.115   4.141 -1.4256  0.4907 -0.2113
   20MOL0     O 2601   3.038   7.979   4.146  0.8897  0.6318  0.2455
   20MOL0     C 2602   3.139   7.914   4.211 -0.3301 -0.1447 -0.2896
   20MOL0     C 2603   3.112   7.761   4.236  0.7844  0.0474  0.5596
   20MOL0     C 2604   2.995   7.758   4.333  0.5864  0.2737 -0.3756
   20MOL0     C 2605   2.962   7.614   4.370  0.1330  1.3372  0.1129
   20MOL0     C 2606   2.866   7.618   4.491  0.1931  0.3079  0.0070
   20MOL0     C 2607   2.787   7.489   4.507 -0.3687 -0.4080 -0.7423
   20MOL0     C 2608   2.885   7.371   4.552  0.2244 -0.1232 -0.4459
   20MOL0     C 2609   2.838   7.289   4.671 -0.1134  0.3890  0.8207
   20MOL0    Cl 2610   2.977   7.190   4.717  0.6738  0.0768  0.3799
   20MOL0     C 2611   3.168   8.190   4.189  0.2106 -0.9423 -0.3539
   20MOL0     C 2612   3.159   8.334   4.197 -1.5950  0.0434  1.3965
   20MOL0     O 2613   3.092   8.566   3.925  0.0627 -0.2458  0.7346
   20MOL0     C 2614   3.044   8.818   4.169 -0.2903  0.3439 -0.4363
   20MOL0     C 2615   2.991   8.943   4.206 -0.2469 -0.0285  0.4442
   20MOL0     N 2616   3.083   9.581   4.609 -0.0727 -0.2804  1.2305
   20MOL0     N 2617   3.182   9.655   4.651 -0.1922  0.3160 -0.3796
   20MOL0     C 2618   3.581   8.718   5.361 -0.2099  0.3708 -0.5571
   20MOL0     C 2619   3.579   8.691   5.499  0.2006 -0.4299 -0.5118
   20MOL0     C 2620   3.592   8.603   5.927 -0.8827  0.4465 -0.6812
   20MOL0     C 2621   3.614   8.713   6.014  0.5132 -0.0831 -0.8062
   20MOL0     C 2622   3.587   8.709   6.149 -1.1366  0.3943  0.1070
   20MOL0     C 2623   3.515   8.595   6.206  0.0973 -0.4032 -0.4905
   20MOL0     O 2624   3.486   8.590   6.341  0.3923  0.0316 -0.0274
   20MOL0     C 2625   3.551   8.689   6.430 -0.0471  0.4042  0.1796
   20MOL0     C 2626   3.569   8.631   6.570  0.0223  0.3190 -1.3029
   20MOL0     C 2627   3.441   8.591   6.637  0.8587 -0.2495  1.2482
   20MOL0     C 2628   3.449   8.557   6.784  0.2002 -0.7018 -0.1934
   20MOL0     C 2629   3.317   8.501   6.823  1.1158  0.4137  0.0749
   20MOL0     C 2630   3.203   8.454   6.841 -0.3410  0.0740  0.5883
   20MOL0     C 2631   3.508   8.483   6.126 -0.6327 -0.0105 -0.4993
   20MOL0     C 2632   3.537   8.484   5.990 -0.2223  0.0541 -0.1607
   20MOL0     H 2633   3.874   8.804   5.600 -2.4581  0.3459  2.5065
   20MOL0     H 2634   3.905   8.854   5.366  0.7112 -3.1589 -0.6832
   20MOL0     H 2635   3.567   8.963   5.212 -1.0814  0.0389 -2.5129
   20MOL0     H 2636   3.744   9.004   5.228  1.2436  2.0250 -3.0056
   20MOL0     H 2637   3.764   8.982   4.984 -0.5341 -1.4886 -1.6350
   20MOL0     H 2638   3.591   8.936   4.960 -0.9615  2.1640 -0.0239
   20MOL0     H 2639   3.504   9.145   5.086 -1.1667  1.4293 -2.0718
   20MOL0     H 2640   3.679   9.190   5.077  1.9310 -1.8617 -1.5709
   20MOL0     H 2641   3.635   9.161   4.824  3.1605  0.6673  2.9512
   20MOL0     H 2642   3.461   9.141   4.859  0.7244 -0.5634 -2.9246
   20MOL0     H 2643   3.496   9.384   4.987 -0.5105  0.6169  0.2584
   20MOL0     H 2644   3.654   9.360   4.909 -0.4757 -0.2732  0.3930
   20MOL0     H 2645   3.544   9.381   4.699  1.4197 -0.9416  1.9329
   20MOL0     H 2646   3.376   9.361   4.781  0.1146 -0.3473 -0.9171
   20MOL0     H 2647   3.397   9.566   4.880 -0.9947  1.1842 -1.1867
   20MOL0     H 2648   3.570   9.584   4.844 -0.3250  2.0853 -1.4310
   20MOL0     H 2649   3.508   9.590   4.596  1.7348 -0.3399  2.2767
   20MOL0     H 2650   3.441   9.726   4.699  0.4250 -0.2582  3.4959
   20MOL0     H 2651   3.336   9.391   4.520 -4.2254 -1.9298 -1.8124
   20MOL0     H 2652   3.128   9.262   4.469  0.1641  0.9234  2.0038
   20MOL0     H 2653   2.976   9.326   4.493 -0.9183  1.8035  0.1781
   20MOL0     H 2654   3.135   9.451   4.270  2.0939 -0.6041  3.8543
   20MOL0     H 2655   2.963   9.460   4.309 -1.0410 -1.5281 -7.1752
   20MOL0     H 2656   3.112   9.197   4.239 -2.0398 -1.3520 -0.4106
   20MOL0     H 2657   3.043   9.315   4.123 -2.9073  1.9464  1.7037
   20MOL0     H 2658   2.834   9.306   4.245  1.6037  0.0564  0.2586
   20MOL0     H 2659   2.894   9.169   4.336 -1.0467 -0.7707 -0.0175
   20MOL0     H 2660   2.851   9.016   3.904  3.7594  0.3334 -2.6624
   20MOL0     H 2661   3.027   8.772   3.746 -0.7284 -2.7392 -1.8729
   20MOL0     H 2662   2.896   8.672   3.819 -2.0478  1.5537 -0.6496
   20MOL0     H 2663   2.866   8.834   3.758 -1.0501 -0.5170 -0.3179
   20MOL0     H 2664   2.865   8.365   4.035 -0.6799 -0.0678  0.3578
   20MOL0     H 2665   2.883   8.131   4.028  1.9537 -1.0904 -0.5419
   20MOL0     H 2666   3.231   7.918   4.151  1.4919  2.6796  2.3694
   20MOL0     H 2667   3.158   7.962   4.307  4.6285 -1.0734 -0.5336
   20MOL0     H 2668   3.076   7.719   4.142 -3.1805  0.8278  1.5595
   20MOL0     H 2669   3.203   7.716   4.278  1.5903  0.8488 -0.2852
   20MOL0     H 2670   2.910   7.808   4.287  1.9293  4.6448  1.3552
   20MOL0     H 2671   3.016   7.815   4.424 -1.8451 -1.4513  1.4043
   20MOL0     H 2672   2.924   7.559   4.284 -0.9718 -1.3311  2.1676
   20MOL0     H 2673   3.055   7.562   4.396  0.7548  0.5302 -3.2771
   20MOL0     H 2674   2.790   7.695   4.479 -0.1779 -0.0312  0.1690
   20MOL0     H 2675   2.924   7.643   4.581  0.7292 -0.8403 -0.0040
   20MOL0     H 2676   2.710   7.505   4.583  0.5715  0.8869 -0.0224
   20MOL0     H 2677   2.736   7.458   4.415 -1.7848 -0.8642  0.1669
   20MOL0     H 2678   2.984   7.412   4.573  0.8066 -0.6359 -2.0227
   20MOL0     H 2679   2.905   7.307   4.465  1.5829  1.8552 -1.6557
   20MOL0     H 2680   2.740   7.243   4.657 -0.8012  1.1795  2.6856
   20MOL0     H 2681   2.818   7.355   4.756 -0.5126 -0.9194  1.7892
   20MOL0     H 2682   3.255   8.143   4.233  2.0890  1.1336 -1.6214
   20MOL0     H 2683   3.236   8.388   4.251 -2.8064  3.3345  0.0562
   20MOL0     H 2684   3.068   8.759   4.257  0.4963  2.9172  1.1931
   20MOL0     H 2685   3.010   8.988   4.303  1.9233  0.3152 -0.0778
   20MOL0     H 2686   3.500   8.697   5.292 -1.3004  1.3208  0.3954
   20MOL0     H 2687   3.484   8.649   5.532 -0.3596  2.9167  2.8420
   20MOL0     H 2688   3.660   8.798   5.965  0.2493  0.0998 -0.7370
   20MOL0     H 2689   3.622   8.799   6.199 -0.2662  0.4723 -0.6332
   20MOL0     H 2690   3.654   8.710   6.400  0.1395  0.1549  0.6452
   20MOL0     H 2691   3.499   8.785   6.436 -0.2773  0.1968  1.7208
   20MOL0     H 2692   3.614   8.710   6.630 -1.4353 -0.2062  0.5910
   20MOL0     H 2693   3.636   8.545   6.561 -1.2079 -0.9716  1.0565
   20MOL0     H 2694   3.390   8.514   6.579 -1.9556  2.4514 -0.1807
   20MOL0     H 2695   3.378   8.680   6.628  0.3374 -0.7402 -0.0968
   20MOL0     H 2696   3.461   8.647   6.845 -4.6862  0.8972 -1.1599
   20MOL0     H 2697   3.534   8.495   6.814 -2.4982 -3.6475  2.0611
   20MOL0     H 2698   3.102   8.418   6.844 -1.0861  2.0906  2.7273
   20MOL0     H 2699   3.465   8.389   6.159 -0.6792  1.0224  2.7072
   20MOL0     H 2700   3.516   8.397   5.929 -1.9592 -0.5501  1.2218
   21MOL0     O 2701   9.956  11.286   4.722  0.3782  0.2376  0.1763
   21MOL0     C 2702  10.054  11.272   4.793 -1.0454  0.2209  0.5224
   21MOL0     O 2703  10.068  11.191   4.902 -0.2146  0.4252  0.0600
   21MOL0     C 2704   9.974  11.101   4.945  0.4864  0.6971  0.2287
   21MOL0     C 2705  10.018  10.980   5.006  0.3940 -0.2637  0.3374
   21MOL0     C 2706   9.934  10.888   5.071  0.3424 -0.7089  0.2016
   21MOL0     C 2707   9.801  10.913   5.073  0.0049  0.8581 -0.2210
   21MOL0     O 2708   9.696  10.852   5.137 -0.6851 -0.2304  0.2282
   21MOL0     C 2709   9.715  10.701   5.156  0.0959 -0.9950 -1.2211
   21MOL0     C 2710   9.576  10.636   5.167 -0.3538 -0.0309  0.4059
   21MOL0     C 2711   9.470  10.650   5.051  0.6575  0.5269 -0.9106
   21MOL0     C 2712   9.323  10.624   5.105 -0.2262 -0.7539 -0.2592
   21MOL0     C 2713   9.289  10.487   5.166 -0.6715 -0.1128  0.4921
   21MOL0     C 2714   9.143  10.469   5.177  1.1653  0.1956 -0.0865
   21MOL0     C 2715   9.086  10.380   5.295 -0.2193  0.1896  0.1208
   21MOL0     C 2716   9.078  10.434   5.437  0.5314 -0.8846 -0.5046
   21MOL0     N 2717   8.939  10.467   5.468 -0.7501 -1.3578 -0.4319
   21MOL0     C 2718   8.823  10.391   5.509  0.7927 -0.1686  0.6736
   21MOL0     C 2719   8.720  10.479   5.544 -0.2821  1.0076 -1.0903
   21MOL0     C 2720   8.569  10.442   5.581 -0.4223  0.0673 -0.2219
   21MOL0     C 2721   8.470  10.567   5.562 -0.1045  0.2333  0.1214
   21MOL0     C 2722   8.452  10.621   5.423  0.5388 -0.5007 -0.2974
   21MOL0     C 2723   8.443  10.521   5.308 -0.2635  0.0163  0.5658
   21MOL0     O 2724   8.358  10.413   5.345 -1.1176  0.1444  0.9085
   21MOL0     C 2725   8.226  10.423   5.332  0.3857 -0.4238 -0.0957
   21MOL0     C 2726   8.146  10.310   5.355 -0.3193  0.4467  0.5456
   21MOL0     C 2727   8.001  10.308   5.363 -0.7028  0.8603 -0.8494
   21MOL0     C 2728   7.940  10.173   5.389  0.1640  1.1189  0.1752
   21MOL0     C 2729   7.932  10.434   5.353 -0.1541 -0.0089 -0.3226
   21MOL0     C 2730   7.795  10.455   5.395 -0.2762 -0.8627  0.2571
   21MOL0     O 2731   7.754  10.588   5.412  0.3973 -0.5746 -0.0007
   21MOL0     C 2732   7.629  10.610   5.460  0.1004  0.9305  0.5972
   21MOL0     C 2733   7.531  10.626   5.360  0.4197  0.1909 -0.0603
   21MOL0     C 2734   7.400  10.678   5.398  0.7600 -0.2857  0.5372
   21MOL0     C 2735   7.366  10.714   5.527  0.4949  0.3703 -0.1829
   21MOL0     O 2736   7.238  10.751   5.559 -0.0554 -0.3543 -0.2933
   21MOL0     C 2737   7.177  10.842   5.472  0.3410 -0.7572  0.8802
   21MOL0     C 2738   7.045  10.786   5.405 -0.0407  0.2189 -0.5967
   21MOL0     C 2739   6.987  10.895   5.308  0.5745 -0.3633  0.3675
   21MOL0     C 2740   6.845  10.852   5.259  0.2581 -0.2566  0.0704
   21MOL0     C 2741   6.798  10.949   5.151 -0.2842  1.0743 -0.0790
   21MOL0     C 2742   6.646  10.943   5.132 -1.1636  0.0870  0.7219
   21MOL0     C 2743   6.597  11.024   5.005 -0.3559  0.0431  0.4679
   21MOL0     C 2744   6.449  11.073   5.009  0.2617 -0.6993  1.2252
   21MOL0    Cl 2745   6.444  11.237   5.099 -0.1932 -0.1444  0.2500
   21MOL0     C 2746   7.463  10.684   5.617 -0.1870 -0.7288 -0.8249
   21MOL0     C 2747   7.594  10.635   5.586 -0.6631  0.1722  0.4453
   21MOL0     O 2748   7.725  10.359   5.428 -0.3826  0.6299  0.2240
   21MOL0     C 2749   8.002  10.542   5.311 -1.2818 -0.3276 -1.0476
   21MOL0     C 2750   8.150  10.542   5.307 -0.4636  0.0043 -1.1340
   21MOL0     N 2751   8.779  10.608   5.529  0.0991  0.8078  0.7395
   21MOL0     N 2752   8.908  10.595   5.501 -0.5344  0.9942 -0.1198
   21MOL0     C 2753   9.758  11.030   5.003 -0.3348  0.7146  0.6534
   21MOL0     C 2754   9.839  11.124   4.951  0.1437  0.2679  0.2688
   21MOL0     C 2755  10.177  11.349   4.756 -0.8608 -0.1958 -0.4164
   21MOL0     C 2756  10.303  11.317   4.822 -0.0977  0.0753 -0.1239
   21MOL0     C 2757  10.425  11.371   4.790  0.2980  0.2902 -0.4831
   21MOL0     C 2758  10.432  11.477   4.697 -0.3663  0.2725  0.2605
   21MOL0     O 2759  10.549  11.542   4.665 -0.5675 -0.6612  0.7071
   21MOL0     C 2760  10.682  11.504   4.712 -0.1373  0.0504 -0.1987
   21MOL0     C 2761  10.791  11.562   4.617 -0.4935  0.5849  0.1854
   21MOL0     C 2762  10.785  11.708   4.582  0.3115 -0.2111  0.6031
   21MOL0     C 2763  10.921  11.761   4.523  0.5960  0.6740 -0.2672
   21MOL0     C 2764  11.027  11.755   4.622  0.9870  0.2123  0.5404
   21MOL0     C 2765  11.112  11.767   4.710 -1.6290 -0.0172  0.6121
   21MOL0     C 2766  10.311  11.505   4.624 -0.5425  0.0601  0.2007
   21MOL0     C 2767  10.191  11.446   4.652 -0.1695  0.0563 -0.3737
   21MOL0     H 2768  10.124  10.953   5.006  0.6692  0.6279  2.3412
   21MOL0     H 2769   9.989  10.809   5.121  0.4207 -1.4247 -0.9691
   21MOL0     H 2770   9.790  10.663   5.086  1.6583 -2.8364  1.2770
   21MOL0     H 2771   9.772  10.676   5.246  2.0631  0.7953 -1.8850
   21MOL0     H 2772   9.590  10.530   5.192  0.1939 -0.0646 -0.0204
   21MOL0     H 2773   9.529  10.683   5.253 -0.4964 -0.1224  0.3787
   21MOL0     H 2774   9.478  10.748   5.004  1.4228 -0.0272 -1.9982
   21MOL0     H 2775   9.481  10.573   4.974 -1.7529 -2.3177  1.3659
   21MOL0     H 2776   9.298  10.688   5.190  0.9249 -1.0225  0.2996
   21MOL0     H 2777   9.263  10.651   5.017 -1.2599  0.1429  0.6930
   21MOL0     H 2778   9.321  10.404   5.102  0.4169  1.8977 -1.7017
   21MOL0     H 2779   9.346  10.474   5.259 -2.2514 -2.4553  1.2346
   21MOL0     H 2780   9.103  10.570   5.187 -1.2386 -0.5528 -1.4308
   21MOL0     H 2781   9.104  10.430   5.083  0.7477 -0.5786  0.3933
   21MOL0     H 2782   8.983  10.346   5.281  0.0207  0.6865 -4.3228
   21MOL0     H 2783   9.140  10.285   5.290 -2.3375 -1.1775  1.7452
   21MOL0     H 2784   9.146  10.519   5.441  2.3987 -2.3366  0.8403
   21MOL0     H 2785   9.116  10.361   5.510 -2.1475  0.0745  2.0333
   21MOL0     H 2786   8.814  10.283   5.499  1.9084 -0.1432 -0.8792
   21MOL0     H 2787   8.523  10.376   5.507 -0.1622 -0.3840  0.0123
   21MOL0     H 2788   8.563  10.406   5.684 -2.4274 -0.7897 -0.5856
   21MOL0     H 2789   8.504  10.646   5.630 -0.9393  2.8241 -2.2465
   21MOL0     H 2790   8.371  10.536   5.596 -0.0886 -0.6276 -0.5693
   21MOL0     H 2791   8.533  10.686   5.387  1.4880 -0.8603  1.1043
   21MOL0     H 2792   8.358  10.676   5.432  0.8679 -0.0795  0.6612
   21MOL0     H 2793   8.544  10.483   5.293 -0.8115 -0.5989 -2.0855
   21MOL0     H 2794   8.411  10.570   5.215  0.5917  0.9821  0.7585
   21MOL0     H 2795   8.209  10.222   5.350  0.8720  1.3347 -0.9526
   21MOL0     H 2796   7.911  10.155   5.493  2.4181  0.5115  0.7720
   21MOL0     H 2797   7.861  10.153   5.316  2.3326 -0.1274 -1.9887
   21MOL0     H 2798   8.012  10.095   5.362  0.8473  0.6970  2.8961
   21MOL0     H 2799   7.553  10.607   5.256 -1.4437 -2.7093 -0.0568
   21MOL0     H 2800   7.331  10.698   5.316  1.5058 -0.0853 -0.0468
   21MOL0     H 2801   7.151  10.930   5.532  2.7525  0.3164  0.4580
   21MOL0     H 2802   7.239  10.882   5.392 -0.9584 -0.6856 -0.1151
   21MOL0     H 2803   7.084  10.708   5.339  0.6678  0.9051 -0.9971
   21MOL0     H 2804   6.966  10.756   5.475  1.4318  0.3739  1.2080
   21MOL0     H 2805   7.056  10.915   5.226  0.4415  3.7631  1.0591
   21MOL0     H 2806   6.982  10.995   5.352  2.5678  0.0850 -0.3237
   21MOL0     H 2807   6.830  10.750   5.222 -1.1488  0.6816 -2.1777
   21MOL0     H 2808   6.777  10.858   5.345 -3.0055 -1.1019 -2.2306
   21MOL0     H 2809   6.841  10.916   5.057 -3.3563 -1.0584 -0.8985
   21MOL0     H 2810   6.819  11.054   5.176  0.2948  1.3984 -1.8350
   21MOL0     H 2811   6.617  10.839   5.115 -3.1027  0.9435 -1.8871
   21MOL0     H 2812   6.600  10.980   5.224 -2.0515  0.7020  0.0525
   21MOL0     H 2813   6.606  10.952   4.922 -0.1041  0.3627  0.2116
   21MOL0     H 2814   6.662  11.112   4.999 -1.9378  1.5403  3.4344
   21MOL0     H 2815   6.392  10.999   5.065  0.0421 -0.2015  1.6675
   21MOL0     H 2816   6.410  11.090   4.908  4.3462  2.3379 -0.1049
   21MOL0     H 2817   7.448  10.704   5.723 -0.3013 -2.6676 -0.4233
   21MOL0     H 2818   7.679  10.635   5.654 -1.0977 -1.9956  1.0686
   21MOL0     H 2819   7.962  10.643   5.303  0.0464  0.1292 -2.6138
   21MOL0     H 2820   8.199  10.635   5.280 -0.1426  1.0389  2.4739
   21MOL0     H 2821   9.654  11.060   5.007 -1.1133 -1.8407  1.9513
   21MOL0     H 2822   9.805  11.214   4.899  0.7440 -0.0119 -0.6448
   21MOL0     H 2823  10.306  11.246   4.903 -1.5410 -4.1682 -3.4219
   21MOL0     H 2824  10.514  11.349   4.848  0.1238 -2.0286 -1.0199
   21MOL0     H 2825  10.694  11.533   4.817 -0.0499 -0.1043 -0.1641
   21MOL0     H 2826  10.697  11.396   4.726 -0.4738  0.1115  0.6775
   21MOL0     H 2827  10.799  11.504   4.524  0.4402 -2.3980  1.9708
   21MOL0     H 2828  10.875  11.535   4.682 -0.1283 -0.2697 -0.6100
   21MOL0     H 2829  10.766  11.767   4.672 -0.7999  1.8943 -0.9079
   21MOL0     H 2830  10.709  11.741   4.510  1.6803  2.2399  0.2043
   21MOL0     H 2831  10.908  11.868   4.503  2.2628  0.8234 -0.6982
   21MOL0     H 2832  10.946  11.703   4.434 -2.6075 -0.8270 -0.3318
   21MOL0     H 2833  11.182  11.783   4.789  1.1445 -0.8177 -1.5300
   21MOL0     H 2834  10.333  11.577   4.546  4.5407 -0.5822  0.7066
   21MOL0     H 2835  10.102  11.483   4.603  0.3180  0.0005 -1.3321
   22MOL0     O 2836   4.570   1.314   6.417 -0.1902 -0.0911  0.1820
   22MOL0     C 2837   4.523   1.402   6.349  0.9765 -0.5054  0.0499
   22MOL0     O 2838   4.584   1.462   6.249  0.1550 -0.2079  0.5393
   22MOL0     C 2839   4.708   1.402   6.208 -1.1210 -0.4577 -0.4234
   22MOL0     C 2840   4.713   1.334   6.087 -0.0677 -0.0952  0.0308
   22MOL0     C 2841   4.837   1.263   6.062  0.2710 -0.0204  0.4296
   22MOL0     C 2842   4.948   1.279   6.137  0.1076  0.1086  0.1893
   22MOL0     O 2843   5.056   1.207   6.110 -0.1012 -0.1346  0.3631
   22MOL0     C 2844   5.080   1.088   6.187 -0.7482 -0.0675 -0.5062
   22MOL0     C 2845   5.163   0.997   6.101  0.9883  0.2860 -0.9963
   22MOL0     C 2846   5.083   0.948   5.978  0.3191 -0.0574  0.1520
   22MOL0     C 2847   5.165   0.830   5.913  0.1949 -0.4125 -0.9051
   22MOL0     C 2848   5.093   0.758   5.806 -0.2323 -0.2103 -1.2734
   22MOL0     C 2849   4.964   0.690   5.849  0.3343 -0.8238  0.5120
   22MOL0     C 2850   4.983   0.595   5.959 -0.1308 -0.8423 -0.5335
   22MOL0     C 2851   5.064   0.464   5.923  0.1745 -0.4263 -0.7237
   22MOL0     N 2852   5.018   0.392   5.802 -0.0301  1.2611 -0.2564
   22MOL0     C 2853   5.097   0.387   5.686 -0.3193  0.6437  0.0562
   22MOL0     C 2854   5.023   0.320   5.591  0.0106  0.1720 -0.5634
   22MOL0     C 2855   5.091   0.291   5.468 -1.0172  0.1509 -0.1197
   22MOL0     C 2856   5.122   0.143   5.471 -0.2616  0.1858 -0.3759
   22MOL0     C 2857   5.008   0.072   5.388  1.5292 -0.7412  0.4401
   22MOL0     C 2858   5.019  -0.067   5.403 -1.3441  0.6016 -0.1251
   22MOL0     O 2859   4.955  -0.129   5.288 -0.2876  0.1586  0.6043
   22MOL0     C 2860   4.905  -0.253   5.307 -0.0039 -0.0567  0.0088
   22MOL0     C 2861   4.926  -0.340   5.202 -0.0586  0.0297  0.0422
   22MOL0     C 2862   4.872  -0.471   5.202  1.1260 -0.0053  0.2341
   22MOL0     C 2863   4.887  -0.559   5.076 -0.2428 -1.0638 -0.3219
   22MOL0     C 2864   4.810  -0.516   5.325  0.8114  1.1045  0.3898
   22MOL0     C 2865   4.768  -0.659   5.359 -1.7872 -0.1196 -0.4834
   22MOL0     O 2866   4.696  -0.685   5.472 -0.1569  0.0568  0.3654
   22MOL0     C 2867   4.692  -0.811   5.529 -0.9235  0.9357  0.0657
   22MOL0     C 2868   4.678  -0.933   5.441 -0.5014  0.7514 -0.6958
   22MOL0     C 2869   4.677  -1.052   5.507  0.8222 -0.0661  0.2513
   22MOL0     C 2870   4.701  -1.066   5.646 -0.6989  0.1828  0.1557
   22MOL0     O 2871   4.715  -1.194   5.699  0.3668  0.0170  0.5111
   22MOL0     C 2872   4.615  -1.222   5.798  0.0168  0.3566 -0.1971
   22MOL0     C 2873   4.467  -1.225   5.743 -0.2947 -1.1630  0.3442
   22MOL0     C 2874   4.361  -1.295   5.829  0.1130  0.6061 -0.0527
   22MOL0     C 2875   4.319  -1.202   5.944 -0.2118  0.5301  0.7218
   22MOL0     C 2876   4.216  -1.281   6.021  0.4409  0.5623  0.0937
   22MOL0     C 2877   4.147  -1.182   6.115 -0.1572 -0.4062 -0.0418
   22MOL0     C 2878   4.010  -1.238   6.156 -0.2516 -0.4726  0.6324
   22MOL0     C 2879   3.929  -1.143   6.247  1.0098 -0.9299  0.2768
   22MOL0    Cl 2880   3.882  -0.994   6.161 -0.3285 -0.2555 -0.1705
   22MOL0     C 2881   4.709  -0.956   5.723 -0.1033 -0.8848 -0.4315
   22MOL0     C 2882   4.699  -0.827   5.669  0.4838 -0.1544 -0.5652
   22MOL0     O 2883   4.843  -0.746   5.310 -0.1828  0.0383  0.7855
   22MOL0     C 2884   4.799  -0.434   5.434  0.3753  0.1613 -0.1219
   22MOL0     C 2885   4.842  -0.301   5.421  0.0932 -0.4771  0.1360
   22MOL0     N 2886   4.905   0.282   5.656 -0.2997 -0.1626  0.7298
   22MOL0     N 2887   4.903   0.320   5.782  0.1468 -0.2030  0.2395
   22MOL0     C 2888   4.940   1.359   6.255  0.5603  0.1767  0.3276
   22MOL0     C 2889   4.823   1.411   6.291 -0.1470  0.2977 -0.1289
   22MOL0     C 2890   4.393   1.451   6.406 -0.5428 -0.0380  0.1789
   22MOL0     C 2891   4.331   1.397   6.524  0.5581 -0.6567  0.8190
   22MOL0     C 2892   4.200   1.436   6.549  0.8479 -0.1489  0.3160
   22MOL0     C 2893   4.130   1.531   6.478  0.9779 -0.9339  0.0524
   22MOL0     O 2894   4.008   1.564   6.538  0.2542 -0.3384 -0.5018
   22MOL0     C 2895   3.947   1.684   6.487 -0.2449  0.5593 -0.4638
   22MOL0     C 2896   3.846   1.640   6.380 -0.2019  0.5883  0.1486
   22MOL0     C 2897   3.825   1.767   6.290  1.0880  0.7224 -0.5562
   22MOL0     C 2898   3.732   1.745   6.168 -0.0282  0.6845 -0.3020
   22MOL0     C 2899   3.587   1.747   6.188  0.2379 -0.4733 -0.0855
   22MOL0     C 2900   3.470   1.722   6.202  0.8144  0.7057  0.8774
   22MOL0     C 2901   4.200   1.583   6.367 -0.9116 -0.0193 -1.0069
   22MOL0     C 2902   4.326   1.544   6.327 -0.2557 -0.2213 -0.9062
   22MOL0     H 2903   4.625   1.325   6.024 -0.1385 -0.8916  0.2199
   22MOL0     H 2904   4.857   1.204   5.974 -0.1072 -0.8024  0.8611
   22MOL0     H 2905   5.143   1.122   6.269  1.6202  1.2036 -2.7010
   22MOL0     H 2906   4.985   1.050   6.224 -1.8653  1.4260 -1.6916
   22MOL0     H 2907   5.256   1.035   6.057  0.2568  2.6804 -0.6299
   22MOL0     H 2908   5.187   0.909   6.162 -3.2605 -0.6343 -0.3388
   22MOL0     H 2909   4.995   0.910   6.030 -0.8405  1.8672 -0.3127
   22MOL0     H 2910   5.047   1.014   5.898  0.8257 -2.0819 -1.8252
   22MOL0     H 2911   5.248   0.886   5.868 -0.8272  2.3562  0.3840
   22MOL0     H 2912   5.207   0.770   5.994  0.8960  1.0154 -0.1764
   22MOL0     H 2913   5.086   0.829   5.723  1.0012 -0.0345 -1.2446
   22MOL0     H 2914   5.159   0.682   5.762 -0.2089  0.2655 -2.0806
   22MOL0     H 2915   4.888   0.754   5.895 -0.1707  0.4887 -1.9675
   22MOL0     H 2916   4.912   0.639   5.767  0.0076 -0.7033  0.6433
   22MOL0     H 2917   5.049   0.637   6.035  0.6203 -0.8647 -1.1646
   22MOL0     H 2918   4.887   0.559   5.999 -0.7906 -0.5365 -1.7918
   22MOL0     H 2919   5.062   0.392   6.005  4.3833 -0.6246 -0.5641
   22MOL0     H 2920   5.169   0.495   5.915 -0.3009  1.5899  0.2074
   22MOL0     H 2921   5.196   0.418   5.656 -0.8002  1.0491 -1.1697
   22MOL0     H 2922   5.026   0.300   5.381  2.1823 -1.3956 -2.9547
   22MOL0     H 2923   5.177   0.358   5.455 -2.3224  2.2219  1.3570
   22MOL0     H 2924   5.120   0.106   5.574  0.5573  2.6517  0.5877
   22MOL0     H 2925   5.218   0.114   5.427  0.3149 -1.8920  1.9980
   22MOL0     H 2926   5.019   0.093   5.282 -2.0765 -3.7436 -0.7370
   22MOL0     H 2927   4.911   0.110   5.423  1.7811  1.6096 -1.1931
   22MOL0     H 2928   4.973  -0.090   5.499 -1.1653 -1.0159 -0.3871
   22MOL0     H 2929   5.127  -0.084   5.406 -1.0213  2.3645 -0.5943
   22MOL0     H 2930   4.991  -0.300   5.125 -0.9935 -1.8307 -1.8045
   22MOL0     H 2931   4.811  -0.637   5.080 -0.2983 -0.9986  2.4278
   22MOL0     H 2932   4.884  -0.508   4.980 -3.6890  2.1071  1.1734
   22MOL0     H 2933   4.981  -0.614   5.080  1.3409  1.4628 -0.7071
   22MOL0     H 2934   4.675  -0.920   5.333 -0.8402  0.8815 -0.6741
   22MOL0     H 2935   4.659  -1.140   5.446  0.2915  0.3952 -0.2698
   22MOL0     H 2936   4.643  -1.314   5.849 -3.8180 -0.3467  0.9175
   22MOL0     H 2937   4.618  -1.159   5.888 -1.4392 -1.5390  1.2574
   22MOL0     H 2938   4.439  -1.121   5.721 -2.2605 -1.5752  0.7220
   22MOL0     H 2939   4.460  -1.265   5.641 -2.4694  1.0045 -0.4580
   22MOL0     H 2940   4.408  -1.382   5.877 -1.7359 -0.4754 -0.0805
   22MOL0     H 2941   4.276  -1.325   5.767 -1.6471  2.0753  1.5011
   22MOL0     H 2942   4.408  -1.172   6.001 -0.1758  1.1392  0.3515
   22MOL0     H 2943   4.280  -1.114   5.892 -5.7269 -1.7553  0.3064
   22MOL0     H 2944   4.262  -1.365   6.072 -2.3803 -1.4634 -0.4534
   22MOL0     H 2945   4.148  -1.332   5.952  2.4553 -1.3834 -0.5622
   22MOL0     H 2946   4.224  -1.171   6.192  0.0159  1.9242 -0.4912
   22MOL0     H 2947   4.128  -1.091   6.057 -1.4787 -0.3107  0.4989
   22MOL0     H 2948   4.023  -1.336   6.202  2.8002 -2.0535 -3.1405
   22MOL0     H 2949   3.958  -1.262   6.063  0.7049  3.1956 -1.0207
   22MOL0     H 2950   3.981  -1.114   6.340  0.8052  1.0649 -0.1884
   22MOL0     H 2951   3.835  -1.194   6.266  2.5049 -3.9000  0.2453
   22MOL0     H 2952   4.720  -0.975   5.829 -3.1310 -2.0573 -0.2471
   22MOL0     H 2953   4.689  -0.733   5.723  2.5379 -0.1985 -0.0156
   22MOL0     H 2954   4.746  -0.470   5.522 -0.4339  0.6681 -0.3862
   22MOL0     H 2955   4.833  -0.232   5.504  4.9940  2.0462 -1.0731
   22MOL0     H 2956   5.035   1.373   6.306  0.8667 -0.2456 -0.1105
   22MOL0     H 2957   4.821   1.461   6.387  0.8376  0.8024 -0.3550
   22MOL0     H 2958   4.368   1.312   6.581  2.8880 -0.3795 -0.1717
   22MOL0     H 2959   4.152   1.388   6.633 -3.7869  3.1393 -0.0274
   22MOL0     H 2960   3.909   1.732   6.578  2.2409 -3.1997  2.9172
   22MOL0     H 2961   4.028   1.753   6.463  1.7046 -1.2856  0.4258
   22MOL0     H 2962   3.750   1.617   6.428 -0.3906 -0.9243 -0.8949
   22MOL0     H 2963   3.876   1.553   6.321  3.2730  2.7797 -1.6662
   22MOL0     H 2964   3.925   1.789   6.253  1.0443  1.3657 -0.3083
   22MOL0     H 2965   3.785   1.855   6.341 -1.5589  0.3213 -1.7775
   22MOL0     H 2966   3.776   1.653   6.129  1.4162  1.7595 -1.3692
   22MOL0     H 2967   3.748   1.829   6.100  1.4916  2.3086  1.9049
   22MOL0     H 2968   3.367   1.691   6.201  0.9875 -0.0406 -1.8758
   22MOL0     H 2969   4.152   1.663   6.310  0.4224  0.3605 -1.6322
   22MOL0     H 2970   4.370   1.584   6.237  3.9491  0.4448  1.2012
   23MOL0     O 2971  10.188   7.669   3.336  0.1905  0.0632  0.7496
   23MOL0     C 2972  10.142   7.756   3.270 -0.5875 -0.7779  0.5579
   23MOL0     O 2973  10.055   7.744   3.168  1.2056  0.5559 -0.4016
   23MOL0     C 2974  10.010   7.621   3.141  0.0273  0.1248 -0.2891
   23MOL0     C 2975  10.026   7.558   3.019  0.1909  0.1625  0.1975
   23MOL0     C 2976   9.981   7.425   3.000  0.2096  1.0460  0.0014
   23MOL0     C 2977   9.912   7.349   3.098 -0.1361 -0.8294 -0.6185
   23MOL0     O 2978   9.861   7.219   3.090  0.1585  0.5223 -0.1019
   23MOL0     C 2979   9.810   7.164   2.969 -1.1775 -0.6038  0.0026
   23MOL0     C 2980   9.699   7.233   2.905  0.9062 -0.6559 -0.0957
   23MOL0     C 2981   9.605   7.144   2.818  0.2108 -1.1548 -0.5932
   23MOL0     C 2982   9.468   7.206   2.792 -0.9123  0.7758  0.6992
   23MOL0     C 2983   9.372   7.133   2.709 -0.6690  0.8395 -0.0657
   23MOL0     C 2984   9.297   7.013   2.771 -0.4055 -0.4516  0.4530
   23MOL0     C 2985   9.200   7.057   2.876  0.2666  0.8443 -0.0001
   23MOL0     C 2986   9.237   7.010   3.020  0.6739  0.8132 -1.0734
   23MOL0     N 2987   9.353   7.080   3.079  0.3826 -0.4096  0.1282
   23MOL0     C 2988   9.369   7.207   3.130 -0.1286 -0.2311  0.1444
   23MOL0     C 2989   9.488   7.207   3.187  0.4031 -0.6396 -0.1177
   23MOL0     C 2990   9.559   7.324   3.263  1.3789  0.3429 -0.2201
   23MOL0     C 2991   9.531   7.336   3.409  0.8085  0.0929  0.1477
   23MOL0     C 2992   9.399   7.415   3.423 -0.3215  0.1042  0.1146
   23MOL0     C 2993   9.368   7.419   3.577  0.9811 -0.1178 -0.3638
   23MOL0     O 2994   9.250   7.502   3.583 -0.0231 -0.2981  0.0058
   23MOL0     C 2995   9.161   7.508   3.685  1.5468 -0.6387  0.1488
   23MOL0     C 2996   9.154   7.419   3.796  0.5881  0.6418 -0.0804
   23MOL0     C 2997   9.036   7.402   3.873  0.3179  0.8816  0.8611
   23MOL0     C 2998   9.034   7.297   3.982 -0.3490  0.0197  0.1540
   23MOL0     C 2999   8.922   7.477   3.842  0.6411 -1.2266  0.5563
   23MOL0     C 3000   8.786   7.469   3.893  0.3206 -0.6837 -0.0668
   23MOL0     O 3001   8.751   7.350   3.957  0.5473 -0.4913  0.3097
   23MOL0     C 3002   8.616   7.320   3.941 -1.4388 -0.5711  0.1112
   23MOL0     C 3003   8.543   7.283   4.053  0.5625  1.0742 -0.4865
   23MOL0     C 3004   8.405   7.245   4.039  0.2602 -0.1315  0.2959
   23MOL0     C 3005   8.345   7.250   3.913  0.5728 -0.8111  0.3919
   23MOL0     O 3006   8.209   7.235   3.892  0.0963  0.1962 -0.3750
   23MOL0     C 3007   8.144   7.169   3.995 -0.2087 -0.1617  0.6902
   23MOL0     C 3008   8.008   7.126   3.950 -0.3503  0.1219  0.5215
   23MOL0     C 3009   7.936   7.232   3.872  0.7007  0.1357 -0.6064
   23MOL0     C 3010   7.784   7.212   3.877  0.5404 -0.2952  0.3447
   23MOL0     C 3011   7.718   7.277   4.002 -0.7647  0.6463 -0.8473
   23MOL0     C 3012   7.564   7.274   4.001  0.4483 -0.4870 -0.1499
   23MOL0     C 3013   7.508   7.331   4.127  0.2140 -0.2751  0.9233
   23MOL0     C 3014   7.364   7.320   4.126 -0.4641  0.1772  0.0287
   23MOL0    Cl 3015   7.321   7.140   4.139 -0.2456 -0.3935 -0.0346
   23MOL0     C 3016   8.425   7.287   3.800 -0.4970 -0.4203 -0.1218
   23MOL0     C 3017   8.553   7.320   3.817  0.4025 -0.7385  0.0138
   23MOL0     O 3018   8.708   7.562   3.872  0.4222  0.4230  1.0668
   23MOL0     C 3019   8.931   7.583   3.751 -1.2753  0.8052  0.8507
   23MOL0     C 3020   9.051   7.599   3.678  0.0433  0.4072  0.3547
   23MOL0     N 3021   9.541   7.076   3.177  0.0768  0.1801 -0.2271
   23MOL0     N 3022   9.466   7.011   3.096 -0.1694 -0.1320  0.1989
   23MOL0     C 3023   9.905   7.415   3.218 -0.4909  0.4038 -1.1566
   23MOL0     C 3024   9.942   7.558   3.234 -0.4942  1.3654 -0.6390
   23MOL0     C 3025  10.196   7.895   3.295 -0.2834  1.0468  0.0702
   23MOL0     C 3026  10.294   7.916   3.398  0.9756  0.3874 -0.1096
   23MOL0     C 3027  10.356   8.040   3.424 -0.0329  0.3186 -0.2082
   23MOL0     C 3028  10.325   8.152   3.340 -0.9698 -0.0246  0.8642
   23MOL0     O 3029  10.381   8.281   3.351 -0.1408 -0.4358 -0.0758
   23MOL0     C 3030  10.466   8.311   3.460 -1.0204  0.2619 -0.8625
   23MOL0     C 3031  10.519   8.454   3.447 -0.7685 -0.3823 -0.5368
   23MOL0     C 3032  10.596   8.471   3.320 -0.0450 -0.2895  0.3612
   23MOL0     C 3033  10.664   8.605   3.303  0.2600 -0.3183 -0.5960
   23MOL0     C 3034  10.745   8.626   3.180  0.1337 -0.0950  0.4452
   23MOL0     C 3035  10.809   8.649   3.075 -0.0813  0.7380  0.8033
   23MOL0     C 3036  10.236   8.132   3.242 -0.3723 -0.8035 -0.2977
   23MOL0     C 3037  10.171   8.012   3.215 -0.5309  0.0973  0.9367
   23MOL0     H 3038  10.084   7.609   2.943  0.9312  1.5678  1.6539
   23MOL0     H 3039   9.993   7.379   2.902 -0.8794 -0.6866  0.6354
   23MOL0     H 3040   9.889   7.151   2.894 -2.1491 -2.8357 -0.7219
   23MOL0     H 3041   9.789   7.059   2.992  3.1777 -1.6511  0.1614
   23MOL0     H 3042   9.633   7.275   2.982 -0.8523 -0.9573 -1.3646
   23MOL0     H 3043   9.735   7.315   2.843  0.4736 -0.5875 -0.2562
   23MOL0     H 3044   9.651   7.105   2.727 -0.6690 -2.8258 -0.3732
   23MOL0     H 3045   9.591   7.044   2.861  1.4603 -0.7248  0.8750
   23MOL0     H 3046   9.426   7.249   2.884  0.0486 -1.3879  2.2229
   23MOL0     H 3047   9.482   7.301   2.739  0.4968  0.4806  0.5255
   23MOL0     H 3048   9.294   7.206   2.685 -1.7587 -0.3288 -0.2415
   23MOL0     H 3049   9.424   7.110   2.615 -0.1244  1.4877  0.0759
   23MOL0     H 3050   9.261   6.951   2.688  2.1615 -0.3953 -0.7944
   23MOL0     H 3051   9.370   6.948   2.820 -0.1329  1.0443  2.1515
   23MOL0     H 3052   9.188   7.165   2.869 -1.6418  0.5693 -2.7193
   23MOL0     H 3053   9.107   7.016   2.837  1.2926  0.5395 -2.3186
   23MOL0     H 3054   9.250   6.902   3.027 -1.7140  0.5196 -0.3981
   23MOL0     H 3055   9.155   7.028   3.091  1.2828 -1.2920  0.2341
   23MOL0     H 3056   9.305   7.295   3.119 -0.1750 -0.2531  0.2381
   23MOL0     H 3057   9.661   7.307   3.228  0.1734 -3.3164 -2.5169
   23MOL0     H 3058   9.519   7.413   3.213 -0.7100 -0.7158 -0.5736
   23MOL0     H 3059   9.624   7.377   3.449  1.2134 -1.6414  1.0784
   23MOL0     H 3060   9.531   7.237   3.455  1.1172  0.7430  1.5977
   23MOL0     H 3061   9.331   7.368   3.352  0.6993 -2.5389  0.7570
   23MOL0     H 3062   9.402   7.516   3.381  0.5840 -0.4485 -1.2341
   23MOL0     H 3063   9.457   7.462   3.624  1.0330 -1.3018  0.6827
   23MOL0     H 3064   9.361   7.328   3.638  1.1762  0.9342  1.3095
   23MOL0     H 3065   9.237   7.351   3.808 -0.6492 -0.7534  0.9250
   23MOL0     H 3066   9.133   7.261   4.011 -0.0393  1.8913  1.5993
   23MOL0     H 3067   8.997   7.334   4.078 -0.1268 -3.9207  1.9555
   23MOL0     H 3068   8.976   7.208   3.956 -2.3881  0.7800  1.8043
   23MOL0     H 3069   8.601   7.261   4.143 -1.3577 -0.4926  0.4626
   23MOL0     H 3070   8.348   7.223   4.129 -0.3362 -0.0752 -0.0661
   23MOL0     H 3071   8.185   7.071   4.022  2.8058  0.9756  0.6665
   23MOL0     H 3072   8.130   7.225   4.088  0.2179 -2.9286  2.5271
   23MOL0     H 3073   8.023   7.036   3.890 -1.9945  1.4162 -2.0008
   23MOL0     H 3074   7.954   7.086   4.036  1.1396  0.3783  1.6244
   23MOL0     H 3075   7.973   7.223   3.770  3.9035 -0.7327  0.5186
   23MOL0     H 3076   7.957   7.328   3.920  0.6392 -0.4146  0.5610
   23MOL0     H 3077   7.740   7.277   3.800  1.1555  0.9159  0.9924
   23MOL0     H 3078   7.751   7.110   3.854  0.1928 -0.2246  0.5166
   23MOL0     H 3079   7.752   7.380   4.017  3.9281 -0.9421  1.7614
   23MOL0     H 3080   7.751   7.217   4.088  0.6897  0.9179 -1.1886
   23MOL0     H 3081   7.534   7.356   3.935  0.0606  0.8150  1.5714
   23MOL0     H 3082   7.536   7.171   3.976  0.0354  0.2311 -3.0009
   23MOL0     H 3083   7.534   7.437   4.130 -0.9060  0.1287 -1.4674
   23MOL0     H 3084   7.557   7.293   4.217  0.5540 -0.2744  0.7380
   23MOL0     H 3085   7.340   7.350   4.024 -0.3715 -3.2352 -1.1333
   23MOL0     H 3086   7.326   7.390   4.201 -0.8767 -1.3164  1.2760
   23MOL0     H 3087   8.398   7.274   3.696  1.7172 -0.2904 -0.7627
   23MOL0     H 3088   8.611   7.340   3.728 -0.6453 -0.2141 -0.5583
   23MOL0     H 3089   8.860   7.655   3.711  0.9482  0.5732 -4.3715
   23MOL0     H 3090   9.049   7.673   3.598 -1.3510 -0.4357 -0.4242
   23MOL0     H 3091   9.848   7.374   3.300 -2.6957  0.1335 -2.7294
   23MOL0     H 3092   9.932   7.598   3.335 -2.0970 -0.8193  0.1681
   23MOL0     H 3093  10.329   7.841   3.468 -0.7150  0.7408  1.1850
   23MOL0     H 3094  10.422   8.041   3.510 -1.2299  1.0396  0.7509
   23MOL0     H 3095  10.411   8.312   3.554 -0.9814  1.2689 -0.8381
   23MOL0     H 3096  10.552   8.245   3.477  0.6391  2.3123 -0.7949
   23MOL0     H 3097  10.583   8.472   3.534  0.7378  0.0770 -1.7041
   23MOL0     H 3098  10.428   8.515   3.444 -0.6890  0.1458  2.8757
   23MOL0     H 3099  10.549   8.435   3.227  0.3849 -0.1174  0.0728
   23MOL0     H 3100  10.672   8.396   3.340 -0.6792 -1.1772 -0.4428
   23MOL0     H 3101  10.740   8.624   3.380  0.4867 -1.1388 -0.6037
   23MOL0     H 3102  10.596   8.690   3.314 -0.0705 -0.6285 -0.1945
   23MOL0     H 3103  10.868   8.660   2.987 -1.2622 -1.1197 -0.2994
   23MOL0     H 3104  10.209   8.218   3.182 -1.3616 -0.0073  1.2169
   23MOL0     H 3105  10.099   8.000   3.135 -0.8284  1.2371  1.0219
   24MOL0     O 3106   0.042   0.788  10.346 -0.1789 -0.1760  0.5427
   24MOL0     C 3107  -0.034   0.709  10.292  0.4723 -1.0830  0.3090
   24MOL0     O 3108  -0.002   0.631  10.188 -0.9707  0.7596  0.4379
   24MOL0     C 3109   0.116   0.666  10.124 -0.6865  0.3400 -0.6989
   24MOL0     C 3110   0.250   0.631  10.168  0.4000  0.7010  0.3402
   24MOL0     C 3111   0.356   0.690  10.101  0.7001  0.1596 -0.0353
   24MOL0     C 3112   0.344   0.760   9.980 -0.6775  0.6260 -0.9116
   24MOL0     O 3113   0.462   0.820   9.925  0.2869 -0.3125  0.2553
   24MOL0     C 3114   0.459   0.909   9.810  0.0449  0.0978  0.9023
   24MOL0     C 3115   0.430   1.055   9.859  0.2177 -0.4070 -1.1723
   24MOL0     C 3116   0.411   1.158   9.742  0.9715  0.3111  0.0493
   24MOL0     C 3117   0.373   1.287   9.809 -0.6922  0.4563  0.0536
   24MOL0     C 3118   0.340   1.407   9.721 -0.3738 -0.6256  0.8626
   24MOL0     C 3119   0.299   1.533   9.798 -0.0830 -0.6281 -0.6941
   24MOL0     C 3120   0.231   1.646   9.724 -0.2843  0.1590 -0.1948
   24MOL0     C 3121   0.106   1.706   9.801  0.5909  0.8406  0.3926
   24MOL0     N 3122   0.055   1.828   9.736  0.2742 -0.5895 -0.7926
   24MOL0     C 3123   0.107   1.915   9.636 -0.4402 -0.0656 -0.4101
   24MOL0     C 3124   0.014   2.006   9.630  0.6962  0.2767  0.4510
   24MOL0     C 3125   0.025   2.129   9.543  0.5664 -0.5830 -0.5236
   24MOL0     C 3126   0.029   2.108   9.393  0.6058  0.6959 -0.1951
   24MOL0     C 3127  -0.103   2.046   9.321  0.0449 -0.8219 -0.5394
   24MOL0     C 3128  -0.233   2.103   9.368  0.0814 -0.2490  0.1273
   24MOL0     O 3129  -0.343   2.032   9.301 -0.3065 -1.7755  0.5359
   24MOL0     C 3130  -0.383   1.908   9.346  0.6848 -0.5355  0.9666
   24MOL0     C 3131  -0.499   1.858   9.288 -0.1536 -0.2926  0.2463
   24MOL0     C 3132  -0.541   1.724   9.313  0.1296 -0.7273  0.5541
   24MOL0     C 3133  -0.655   1.673   9.223 -0.4806 -0.1815  0.0616
   24MOL0     C 3134  -0.474   1.645   9.409  0.0290 -0.3006 -0.4308
   24MOL0     C 3135  -0.516   1.511   9.457 -0.3778 -0.3815  0.7923
   24MOL0     O 3136  -0.459   1.469   9.574  0.4335  0.1022  0.4472
   24MOL0     C 3137  -0.522   1.370   9.643 -0.6215  0.4647  0.9153
   24MOL0     C 3138  -0.656   1.381   9.685  0.3623  0.8370 -0.2183
   24MOL0     C 3139  -0.714   1.282   9.758  0.8547 -0.1212  0.8166
   24MOL0     C 3140  -0.644   1.166   9.803  0.4440 -0.7340 -0.4897
   24MOL0     O 3141  -0.695   1.067   9.882 -0.2284  0.9208  0.8693
   24MOL0     C 3142  -0.838   1.061   9.882 -0.0555 -0.7111 -0.1203
   24MOL0     C 3143  -0.878   0.959   9.986  0.1069 -0.5902  0.5108
   24MOL0     C 3144  -1.035   0.946   9.996 -0.2065 -0.0278  0.3225
   24MOL0     C 3145  -1.078   0.835   9.910  0.9844 -0.0901  1.2425
   24MOL0     C 3146  -1.224   0.798   9.928  0.2666  0.2934  0.6935
   24MOL0     C 3147  -1.281   0.723  10.052 -1.3679 -0.8312 -0.5961
   24MOL0     C 3148  -1.424   0.710  10.044  0.5592 -0.3487  0.4698
   24MOL0     C 3149  -1.471   0.618  10.159  0.1039 -0.6340 -1.0367
   24MOL0    Cl 3150  -1.636   0.542  10.126 -0.1776  0.1059  0.5738
   24MOL0     C 3151  -0.512   1.154   9.766  1.0771 -0.3121  0.8751
   24MOL0     C 3152  -0.447   1.255   9.685 -0.3054  0.0241 -0.3336
   24MOL0     O 3153  -0.596   1.439   9.391  0.3512 -0.8470 -0.0792
   24MOL0     C 3154  -0.370   1.711   9.477 -0.6035  0.5214 -0.1836
   24MOL0     C 3155  -0.323   1.839   9.452 -0.9291  0.8576 -0.5358
   24MOL0     N 3156  -0.105   1.976   9.707 -0.4068 -0.5026 -0.4229
   24MOL0     N 3157  -0.070   1.873   9.773 -0.1442 -0.3598  0.5422
   24MOL0     C 3158   0.217   0.768   9.921  0.7597 -0.6706  0.1962
   24MOL0     C 3159   0.104   0.739  10.002 -1.0087  0.2518 -0.1879
   24MOL0     C 3160  -0.169   0.703  10.352 -0.1179  0.5513 -0.2512
   24MOL0     C 3161  -0.209   0.790  10.455  0.1725 -0.0883  0.7111
   24MOL0     C 3162  -0.338   0.783  10.495  0.6591  0.8795 -0.4492
   24MOL0     C 3163  -0.431   0.695  10.440  0.9468  0.1795 -1.1434
   24MOL0     O 3164  -0.549   0.712  10.505  0.1919  0.3310  0.0518
   24MOL0     C 3165  -0.657   0.612  10.500 -1.0752  1.2704  0.4044
   24MOL0     C 3166  -0.755   0.657  10.607 -0.8124  1.0396  1.0188
   24MOL0     C 3167  -0.857   0.557  10.649 -1.0181 -0.2436 -0.1113
   24MOL0     C 3168  -0.956   0.516  10.542  0.4628 -0.3963 -0.0927
   24MOL0     C 3169  -0.967   0.598  10.425  0.6748 -0.4737 -0.0617
   24MOL0     C 3170  -0.977   0.666  10.320 -0.0832  0.1939  0.3569
   24MOL0     C 3171  -0.392   0.601  10.355  0.5036  1.3626  0.7347
   24MOL0     C 3172  -0.260   0.606  10.313  0.0522  0.3704 -0.1572
   24MOL0     H 3173   0.272   0.588  10.265 -0.6075 -1.8450 -0.4681
   24MOL0     H 3174   0.458   0.680  10.135  0.8106 -7.3705 -0.9445
   24MOL0     H 3175   0.558   0.908   9.765  0.1837 -0.7901  1.2129
   24MOL0     H 3176   0.385   0.871   9.739  2.1447  1.7888 -2.4916
   24MOL0     H 3177   0.339   1.044   9.918  1.5919 -0.5352  1.0240
   24MOL0     H 3178   0.510   1.090   9.924 -1.1074 -0.3167  0.4763
   24MOL0     H 3179   0.504   1.172   9.687  1.3489 -1.8692  0.0355
   24MOL0     H 3180   0.330   1.130   9.674  0.0795 -0.7528  1.4789
   24MOL0     H 3181   0.285   1.266   9.870 -1.2245 -0.3469 -0.9710
   24MOL0     H 3182   0.457   1.317   9.873 -1.3570  0.0594  1.1373
   24MOL0     H 3183   0.428   1.428   9.661 -0.2552 -0.9354  0.9267
   24MOL0     H 3184   0.262   1.379   9.650 -1.4824  1.2616  1.2610
   24MOL0     H 3185   0.225   1.505   9.873  1.0144 -0.4656  0.4904
   24MOL0     H 3186   0.383   1.576   9.854 -1.3286 -0.4920  1.1499
   24MOL0     H 3187   0.302   1.729   9.721 -1.0802  0.9556  1.6301
   24MOL0     H 3188   0.203   1.612   9.624 -0.3734 -0.3309 -0.0088
   24MOL0     H 3189   0.137   1.722   9.905 -1.5219 -2.2139  1.6436
   24MOL0     H 3190   0.028   1.629   9.805  1.7256 -0.3096  2.9385
   24MOL0     H 3191   0.207   1.921   9.596 -0.9712 -0.8466 -1.9451
   24MOL0     H 3192  -0.050   2.204   9.571  0.4218 -1.3821  1.4120
   24MOL0     H 3193   0.118   2.182   9.562 -1.5069  2.9179  0.9959
   24MOL0     H 3194   0.100   2.025   9.391 -2.3247 -2.0175 -0.1425
   24MOL0     H 3195   0.059   2.195   9.334  0.6440 -0.3396 -1.7670
   24MOL0     H 3196  -0.105   1.938   9.338 -1.0910 -1.6751 -4.7581
   24MOL0     H 3197  -0.097   2.048   9.212 -0.3322 -3.0096 -0.6431
   24MOL0     H 3198  -0.244   2.209   9.345  1.2968 -0.1903 -0.2354
   24MOL0     H 3199  -0.242   2.102   9.477 -2.2567  2.4002  0.0626
   24MOL0     H 3200  -0.547   1.912   9.207  0.5171 -1.3158 -0.8712
   24MOL0     H 3201  -0.624   1.582   9.171 -1.7711 -0.7473  0.2429
   24MOL0     H 3202  -0.750   1.666   9.277 -1.3045 -1.6154 -1.4976
   24MOL0     H 3203  -0.678   1.746   9.145  0.5702 -1.2281 -1.2872
   24MOL0     H 3204  -0.718   1.465   9.657 -2.6511 -1.1177  0.0776
   24MOL0     H 3205  -0.813   1.309   9.795  0.4665 -0.7938  0.2858
   24MOL0     H 3206  -0.889   1.151   9.917 -0.3267 -1.6267  1.9543
   24MOL0     H 3207  -0.883   1.028   9.788 -0.4433 -0.8191  0.1005
   24MOL0     H 3208  -0.828   0.865   9.963 -1.9795 -1.8806  1.0349
   24MOL0     H 3209  -0.839   0.989  10.084  1.3780 -2.9364  0.7992
   24MOL0     H 3210  -1.075   1.047   9.988  0.5965  0.3874  1.2774
   24MOL0     H 3211  -1.048   0.923  10.103 -1.3001 -1.0260 -0.0049
   24MOL0     H 3212  -1.079   0.869   9.806  1.4637 -0.4451  1.1199
   24MOL0     H 3213  -1.021   0.743   9.923 -1.2567 -1.6464  0.7489
   24MOL0     H 3214  -1.248   0.731   9.844  2.3581 -0.3609  0.5707
   24MOL0     H 3215  -1.283   0.889   9.916  1.7054  1.0801 -0.6023
   24MOL0     H 3216  -1.240   0.621  10.058  3.7554  0.8932 -0.9581
   24MOL0     H 3217  -1.242   0.782  10.135  4.2112  0.4309 -3.5544
   24MOL0     H 3218  -1.453   0.671   9.946  1.0733 -1.4844  0.7474
   24MOL0     H 3219  -1.479   0.804  10.046 -1.2273 -1.2821 -1.4091
   24MOL0     H 3220  -1.481   0.683  10.247 -0.1526  0.0188 -1.5394
   24MOL0     H 3221  -1.398   0.539  10.179  0.4245 -0.5417 -1.8004
   24MOL0     H 3222  -0.457   1.066   9.799 -0.5960 -1.3928  0.8855
   24MOL0     H 3223  -0.339   1.248   9.672  0.3760  0.5458  3.6301
   24MOL0     H 3224  -0.317   1.656   9.554 -1.6862  0.0239  0.2264
   24MOL0     H 3225  -0.241   1.885   9.507 -0.7920  0.9851 -0.8435
   24MOL0     H 3226   0.206   0.830   9.833  1.0698  2.3646  2.1233
   24MOL0     H 3227   0.003   0.765   9.973 -0.1785  3.5620 -0.5377
   24MOL0     H 3228  -0.141   0.856  10.508 -0.7071  0.8123  0.7249
   24MOL0     H 3229  -0.378   0.834  10.582 -0.2373 -3.1240  1.7312
   24MOL0     H 3230  -0.695   0.603  10.398  3.6916 -0.8850 -1.4779
   24MOL0     H 3231  -0.616   0.517  10.536 -1.2552  0.9729 -0.1727
   24MOL0     H 3232  -0.805   0.744  10.564  0.9282  1.4159 -0.3391
   24MOL0     H 3233  -0.711   0.687  10.702 -2.3835  3.7354  0.9934
   24MOL0     H 3234  -0.911   0.602  10.733 -3.0760 -1.8905 -0.4580
   24MOL0     H 3235  -0.803   0.473  10.694  1.4408  1.3922  0.2003
   24MOL0     H 3236  -1.053   0.518  10.593  1.1243  0.8206  1.1723
   24MOL0     H 3237  -0.936   0.415  10.505  0.7987  0.2382 -1.6823
   24MOL0     H 3238  -0.990   0.727  10.233 -0.0158 -2.1609 -1.3996
   24MOL0     H 3239  -0.470   0.530  10.332  0.3969  1.4996  0.6753
   24MOL0     H 3240  -0.233   0.530  10.240 -1.7046 -0.9081  0.4635
   25MOL0     O 3241   0.431   7.511   7.516 -0.0841 -0.3121  1.2583
   25MOL0     C 3242   0.324   7.561   7.540  0.5902  0.4128  0.0186
   25MOL0     O 3243   0.302   7.695   7.538  0.1480 -0.1289  0.3586
   25MOL0     C 3244   0.409   7.784   7.514  1.4962  0.3011 -0.3136
   25MOL0     C 3245   0.525   7.785   7.591  0.6362  0.6645  0.0881
   25MOL0     C 3246   0.613   7.897   7.571 -0.5211 -0.3365 -1.1003
   25MOL0     C 3247   0.584   7.999   7.483  0.0101  1.2542  0.9522
   25MOL0     O 3248   0.683   8.087   7.472 -0.6393 -0.4348 -0.8782
   25MOL0     C 3249   0.704   8.162   7.351  0.5812  0.4144  0.4083
   25MOL0     C 3250   0.800   8.280   7.380  0.9559  0.2962  0.7243
   25MOL0     C 3251   0.810   8.387   7.274 -0.0099 -1.1677  0.7536
   25MOL0     C 3252   0.864   8.527   7.327  0.4437  0.3042 -0.9802
   25MOL0     C 3253   0.895   8.622   7.211  0.1212  0.1608  1.0209
   25MOL0     C 3254   0.902   8.763   7.248  0.6391 -0.5928  0.1330
   25MOL0     C 3255   0.977   8.795   7.382 -0.4638  0.5767  0.4027
   25MOL0     C 3256   1.121   8.772   7.364 -0.6259 -1.0460 -0.3854
   25MOL0     N 3257   1.176   8.856   7.259  0.5277 -0.3736 -0.4674
   25MOL0     C 3258   1.207   8.984   7.274 -0.4483  0.0708  0.2870
   25MOL0     C 3259   1.253   9.017   7.150  0.0135  0.0563  0.8338
   25MOL0     C 3260   1.273   9.163   7.115 -0.0729  0.0850  0.2054
   25MOL0     C 3261   1.417   9.201   7.075  0.7627  0.2976  0.0648
   25MOL0     C 3262   1.514   9.201   7.196  0.4718  0.7480  0.1745
   25MOL0     C 3263   1.654   9.218   7.139 -0.1678 -0.2341  0.3526
   25MOL0     O 3264   1.673   9.359   7.134  1.0788  0.1221 -0.1677
   25MOL0     C 3265   1.798   9.409   7.106 -0.7145 -0.6392 -0.7605
   25MOL0     C 3266   1.816   9.546   7.132 -0.1847 -0.4297 -0.4424
   25MOL0     C 3267   1.929   9.613   7.102  0.4037  0.5222  0.2350
   25MOL0     C 3268   1.930   9.761   7.131  0.9931 -0.4854 -0.1202
   25MOL0     C 3269   2.036   9.542   7.048  0.7334 -0.9741  0.9477
   25MOL0     C 3270   2.175   9.600   7.017  0.0828  0.4938 -0.1682
   25MOL0     O 3271   2.282   9.505   6.987  0.3284  0.3983 -0.5076
   25MOL0     C 3272   2.378   9.534   6.894  0.8423 -0.2448 -0.3967
   25MOL0     C 3273   2.509   9.542   6.933 -0.2229 -0.8279  0.3051
   25MOL0     C 3274   2.597   9.592   6.837 -0.6276  0.5241 -0.7046
   25MOL0     C 3275   2.565   9.634   6.707 -0.0857  0.4749  0.3918
   25MOL0     O 3276   2.654   9.688   6.620  0.3381  0.0716  0.5139
   25MOL0     C 3277   2.741   9.787   6.672 -0.2253  1.1033 -1.0876
   25MOL0     C 3278   2.674   9.918   6.705  0.2849 -0.1526 -0.6973
   25MOL0     C 3279   2.704  10.023   6.592  0.1525  0.2944 -0.3410
   25MOL0     C 3280   2.604  10.004   6.471 -0.1208  0.4091 -0.4408
   25MOL0     C 3281   2.627  10.116   6.372 -0.3622  0.2448  0.5204
   25MOL0     C 3282   2.579  10.256   6.431 -0.7174  0.2057 -0.6403
   25MOL0     C 3283   2.556  10.370   6.335 -0.0799  0.7348  0.1246
   25MOL0     C 3284   2.459  10.472   6.402 -1.2750 -0.2509 -0.1127
   25MOL0    Cl 3285   2.431  10.601   6.284  0.2498 -0.1690  0.4645
   25MOL0     C 3286   2.435   9.610   6.664 -0.4043  0.4717 -0.6384
   25MOL0     C 3287   2.340   9.574   6.762 -0.5645 -0.0220 -0.9567
   25MOL0     O 3288   2.188   9.723   6.986  0.0948 -0.1545  0.2817
   25MOL0     C 3289   2.020   9.406   7.018  0.5892 -0.9776 -0.5898
   25MOL0     C 3290   1.897   9.343   7.050 -0.1348  1.0199  0.8194
   25MOL0     N 3291   1.262   8.910   7.066  0.0606 -0.3290 -0.3938
   25MOL0     N 3292   1.213   8.807   7.135 -0.3850 -0.3859  0.3578
   25MOL0     C 3293   0.472   7.993   7.406 -0.4538  0.0272  0.1968
   25MOL0     C 3294   0.387   7.887   7.422 -0.0932  0.5854  0.1240
   25MOL0     C 3295   0.209   7.469   7.573 -0.1680 -0.2073  0.1632
   25MOL0     C 3296   0.229   7.329   7.563  0.7888 -0.7498  0.4818
   25MOL0     C 3297   0.124   7.239   7.580  0.6156 -0.2756  0.1895
   25MOL0     C 3298   0.002   7.291   7.615  0.0552 -0.1353  0.3782
   25MOL0     O 3299  -0.103   7.209   7.630  0.2927 -0.7406  0.4315
   25MOL0     C 3300  -0.133   7.130   7.508  0.4307  0.0763 -0.1286
   25MOL0     C 3301  -0.283   7.140   7.492  0.2031  0.3804  0.0006
   25MOL0     C 3302  -0.326   7.064   7.361  0.6043  0.0088  0.1770
   25MOL0     C 3303  -0.478   7.077   7.329 -0.4672  0.6062 -0.4231
   25MOL0     C 3304  -0.543   7.194   7.367  0.5359 -1.0010  1.1836
   25MOL0     C 3305  -0.586   7.306   7.398  0.2266 -0.0985  0.1716
   25MOL0     C 3306  -0.016   7.428   7.642  0.6790  0.2988  0.0947
   25MOL0     C 3307   0.088   7.520   7.617 -0.0032  0.1787  0.3211
   25MOL0     H 3308   0.529   7.703   7.662 -2.5842  0.5269  0.2588
   25MOL0     H 3309   0.706   7.907   7.626 -0.5683 -0.2707 -1.0313
   25MOL0     H 3310   0.741   8.102   7.268 -4.5463  0.8859 -2.6612
   25MOL0     H 3311   0.618   8.218   7.312  0.0695 -0.8503 -0.3628
   25MOL0     H 3312   0.765   8.322   7.474 -0.3064  2.9975 -0.8519
   25MOL0     H 3313   0.898   8.246   7.414  0.5047 -0.6806  1.1020
   25MOL0     H 3314   0.880   8.363   7.193  1.9769 -0.2363  2.1172
   25MOL0     H 3315   0.709   8.396   7.233  0.6402 -1.2527 -0.9649
   25MOL0     H 3316   0.775   8.564   7.378  0.7822 -0.5742  0.2983
   25MOL0     H 3317   0.933   8.515   7.411  0.3016 -2.0669 -1.1420
   25MOL0     H 3318   0.982   8.585   7.157 -3.0025 -0.8207 -3.9136
   25MOL0     H 3319   0.815   8.611   7.138  0.4473 -3.3027  1.0069
   25MOL0     H 3320   0.939   8.838   7.178  0.3281  0.5216  1.1348
   25MOL0     H 3321   0.798   8.790   7.269  0.2762 -0.5401 -1.5469
   25MOL0     H 3322   0.958   8.896   7.419 -2.0370  0.5194 -0.1718
   25MOL0     H 3323   0.940   8.731   7.463  0.0381  0.5913  0.6475
   25MOL0     H 3324   1.146   8.671   7.329 -1.1417 -1.1261 -0.5175
   25MOL0     H 3325   1.169   8.786   7.462  1.5318 -1.7306 -1.2760
   25MOL0     H 3326   1.177   9.049   7.356 -2.3777  0.6749 -0.8236
   25MOL0     H 3327   1.216   9.183   7.024  1.6216 -3.0140 -1.7614
   25MOL0     H 3328   1.234   9.222   7.198  1.0662 -0.1448  0.9250
   25MOL0     H 3329   1.411   9.297   7.022  1.0549 -1.0465 -2.5347
   25MOL0     H 3330   1.456   9.149   6.988 -0.4141 -0.8732  0.2041
   25MOL0     H 3331   1.527   9.098   7.229  2.9560  1.1333  0.6185
   25MOL0     H 3332   1.499   9.276   7.274  1.2505  1.9590 -0.8079
   25MOL0     H 3333   1.664   9.182   7.037  1.2112  2.8356 -0.7125
   25MOL0     H 3334   1.725   9.170   7.207 -1.6876 -0.7630  1.6402
   25MOL0     H 3335   1.736   9.610   7.167 -1.6545 -1.9557 -0.9386
   25MOL0     H 3336   1.860   9.781   7.213 -0.4114  0.0799 -1.4158
   25MOL0     H 3337   2.027   9.784   7.175  0.7091 -2.2685  1.5686
   25MOL0     H 3338   1.903   9.825   7.047  0.1008  1.0251  1.2549
   25MOL0     H 3339   2.545   9.516   7.032  0.6339  1.4397  0.6641
   25MOL0     H 3340   2.704   9.582   6.849 -0.6579 -1.1961 -1.5845
   25MOL0     H 3341   2.787   9.749   6.764 -0.4542  1.8487 -0.6560
   25MOL0     H 3342   2.835   9.791   6.617  1.6986 -2.4749  1.4754
   25MOL0     H 3343   2.567   9.906   6.724 -0.0959  0.1840 -2.4490
   25MOL0     H 3344   2.716   9.950   6.800 -0.7927 -4.4968  1.5243
   25MOL0     H 3345   2.809  10.021   6.562  0.1460 -3.1950 -0.5504
   25MOL0     H 3346   2.679  10.123   6.629  0.2192  0.9507 -1.9932
   25MOL0     H 3347   2.635   9.910   6.426  4.3637  0.7371  1.4186
   25MOL0     H 3348   2.497  10.008   6.496 -0.2454  1.5888 -1.0747
   25MOL0     H 3349   2.569  10.107   6.280 -1.3941 -1.1909  1.2743
   25MOL0     H 3350   2.733  10.100   6.349 -1.1898 -2.5087 -1.9235
   25MOL0     H 3351   2.490  10.237   6.491 -0.1297  0.6787  0.4193
   25MOL0     H 3352   2.644  10.293   6.510 -4.3335  0.3497  2.5482
   25MOL0     H 3353   2.512  10.334   6.241 -1.2835  1.9015  0.2090
   25MOL0     H 3354   2.647  10.428   6.317 -0.4201  1.3695  0.4368
   25MOL0     H 3355   2.504  10.501   6.498 -3.6435  4.9281 -0.2040
   25MOL0     H 3356   2.372  10.411   6.426 -1.5838 -0.1508 -0.9474
   25MOL0     H 3357   2.407   9.640   6.563  0.3191  0.5992 -0.8047
   25MOL0     H 3358   2.236   9.565   6.730 -0.4526  0.1081 -1.3635
   25MOL0     H 3359   2.103   9.350   6.977  0.9534  0.8027 -2.4268
   25MOL0     H 3360   1.879   9.241   7.018  3.9665 -1.4410  5.1787
   25MOL0     H 3361   0.452   8.070   7.332 -0.7935 -2.6664 -2.6941
   25MOL0     H 3362   0.300   7.888   7.357 -1.2221 -0.3373  1.5486
   25MOL0     H 3363   0.312   7.273   7.522 -0.3172 -2.3106  0.2575
   25MOL0     H 3364   0.129   7.131   7.577  1.2958 -0.2520  0.4346
   25MOL0     H 3365  -0.080   7.155   7.416 -0.4755 -2.0222 -1.3063
   25MOL0     H 3366  -0.116   7.025   7.532 -0.6593 -0.2238 -0.6089
   25MOL0     H 3367  -0.325   7.242   7.493 -2.7938 -0.6898 -2.3479
   25MOL0     H 3368  -0.327   7.097   7.582 -2.3319  0.9055 -0.8818
   25MOL0     H 3369  -0.286   6.963   7.368 -0.3872 -0.5936 -1.9981
   25MOL0     H 3370  -0.271   7.102   7.274  1.0309 -0.2830  0.3150
   25MOL0     H 3371  -0.538   6.997   7.374 -2.6274  1.8911 -0.8607
   25MOL0     H 3372  -0.469   7.086   7.220 -2.2611 -0.3495 -0.6875
   25MOL0     H 3373  -0.633   7.394   7.437  1.2980  2.1090 -3.0700
   25MOL0     H 3374  -0.111   7.471   7.673  0.6769  3.6114 -3.6734
   25MOL0     H 3375   0.057   7.622   7.634 -1.2658 -0.3963  1.7304
   26MOL0     O 3376   3.454  11.108   0.423  0.2738  0.5291 -0.3066
   26MOL0     C 3377   3.506  11.163   0.329 -0.1809 -0.2733  0.2786
   26MOL0     O 3378   3.463  11.289   0.279  0.9025 -0.0133  0.6307
   26MOL0     C 3379   3.389  11.360   0.353  1.5253 -0.4921 -0.6989
   26MOL0     C 3380   3.255  11.369   0.320 -0.3460 -0.8460  0.4990
   26MOL0     C 3381   3.169  11.428   0.405  0.5604 -0.3564 -0.5638
   26MOL0     C 3382   3.217  11.478   0.529 -0.1342 -0.8224  0.0263
   26MOL0     O 3383   3.151  11.529   0.631 -0.0269  0.2494  0.6947
   26MOL0     C 3384   3.008  11.500   0.656 -0.9207  0.0417  0.3959
   26MOL0     C 3385   2.971  11.603   0.756 -1.1364  0.0936  0.3659
   26MOL0     C 3386   2.820  11.602   0.786 -0.1334  0.0201  0.1543
   26MOL0     C 3387   2.778  11.733   0.848  0.0843 -0.2534 -0.2440
   26MOL0     C 3388   2.632  11.777   0.801 -0.6592 -0.8891 -0.6963
   26MOL0     C 3389   2.624  11.795   0.645 -0.3402  0.0009  1.0581
   26MOL0     C 3390   2.505  11.877   0.594  0.1769  0.4881 -0.4951
   26MOL0     C 3391   2.493  11.882   0.433  0.3105 -0.4777 -0.2814
   26MOL0     N 3392   2.625  11.908   0.365 -0.3440  0.6255  0.3252
   26MOL0     C 3393   2.705  11.802   0.336  0.5097  0.2119 -0.4687
   26MOL0     C 3394   2.815  11.861   0.278  0.2743  0.5256  0.0562
   26MOL0     C 3395   2.922  11.788   0.208  0.7448 -0.5565  1.1421
   26MOL0     C 3396   3.053  11.758   0.288 -0.7013 -0.3965 -0.0622
   26MOL0     C 3397   3.160  11.682   0.210 -0.1270  0.0052 -0.6441
   26MOL0     C 3398   3.242  11.745   0.095  1.0915 -0.6753 -0.8704
   26MOL0     O 3399   3.355  11.675   0.048 -0.4891  0.0209  0.2346
   26MOL0     C 3400   3.470  11.669   0.125  0.5671  0.0920  0.7883
   26MOL0     C 3401   3.571  11.621   0.046 -0.4918 -0.4353  0.5520
   26MOL0     C 3402   3.706  11.637   0.082 -0.3538  0.2208  1.1270
   26MOL0     C 3403   3.808  11.590  -0.022 -0.0763  0.1121  1.2218
   26MOL0     C 3404   3.741  11.708   0.202 -0.6441  0.2989 -0.4364
   26MOL0     C 3405   3.880  11.711   0.262 -0.9690  0.1751  0.0290
   26MOL0     O 3406   3.891  11.694   0.397 -0.3215  0.1778  0.4093
   26MOL0     C 3407   4.012  11.715   0.459  0.2086  0.4148  0.5583
   26MOL0     C 3408   4.142  11.690   0.399  0.5538 -0.9907 -0.2077
   26MOL0     C 3409   4.260  11.725   0.466 -0.2960 -0.2699  0.2596
   26MOL0     C 3410   4.249  11.775   0.599  0.2099 -0.5558  0.7233
   26MOL0     O 3411   4.369  11.789   0.664 -0.2994  0.5456 -0.4579
   26MOL0     C 3412   4.365  11.820   0.803 -0.7031  0.2334 -0.2978
   26MOL0     C 3413   4.334  11.963   0.831 -0.1079  0.3565  0.5426
   26MOL0     C 3414   4.254  11.992   0.948 -0.0876 -0.1481 -0.2948
   26MOL0     C 3415   4.329  11.996   1.083 -0.8896  0.1604  0.0602
   26MOL0     C 3416   4.268  12.028   1.214  0.6520 -0.3531 -0.2773
   26MOL0     C 3417   4.132  11.959   1.257 -1.0761  0.6020  0.1094
   26MOL0     C 3418   4.176  11.814   1.289  0.7123 -0.2653 -0.4929
   26MOL0     C 3419   4.164  11.787   1.440 -0.0560  0.1600 -0.7039
   26MOL0    Cl 3420   4.215  11.618   1.470  0.3638  0.1242  0.8086
   26MOL0     C 3421   4.121  11.784   0.659 -0.5890 -0.7005 -0.0262
   26MOL0     C 3422   4.005  11.760   0.592  0.2712  0.7146  1.1773
   26MOL0     O 3423   3.966  11.746   0.177  0.3849 -0.9240 -0.5431
   26MOL0     C 3424   3.640  11.754   0.288  0.8732 -0.1236  1.2257
   26MOL0     C 3425   3.504  11.730   0.245 -0.0322  0.5677 -0.2543
   26MOL0     N 3426   2.803  12.003   0.293 -0.9634 -0.1772 -0.5771
   26MOL0     N 3427   2.691  12.026   0.347 -0.2094  0.4586  0.3840
   26MOL0     C 3428   3.358  11.477   0.552  0.5283  0.1410  0.4833
   26MOL0     C 3429   3.437  11.420   0.464 -0.0356  0.8703  0.6773
   26MOL0     C 3430   3.628  11.109   0.259 -0.1662 -0.1883 -0.1020
   26MOL0     C 3431   3.671  10.980   0.284  0.1695  0.0772 -0.6543
   26MOL0     C 3432   3.788  10.931   0.224  0.7704 -0.7643  0.2492
   26MOL0     C 3433   3.869  11.012   0.141 -0.2108 -0.1512  0.6778
   26MOL0     O 3434   3.969  10.954   0.068 -0.4589 -0.0662  0.1466
   26MOL0     C 3435   3.918  10.864  -0.037 -1.1120  0.3884  0.4437
   26MOL0     C 3436   4.019  10.863  -0.152  0.3313 -0.5572 -0.0895
   26MOL0     C 3437   3.991  10.735  -0.228 -0.5981 -0.3980  0.0764
   26MOL0     C 3438   3.847  10.707  -0.274 -0.3489  0.9064 -0.4610
   26MOL0     C 3439   3.787  10.822  -0.342  0.4446 -0.2443  0.0575
   26MOL0     C 3440   3.722  10.912  -0.389  0.6579  0.5656  0.1956
   26MOL0     C 3441   3.828  11.144   0.111  1.3767 -0.2883 -0.7414
   26MOL0     C 3442   3.710  11.187   0.175  0.2269 -0.2998  0.1262
   26MOL0     H 3443   3.205  11.331   0.231 -1.9962  1.9395  0.1401
   26MOL0     H 3444   3.063  11.431   0.382  0.7881 -1.3243 -1.8108
   26MOL0     H 3445   2.958  11.498   0.559  1.8981 -2.3610 -1.1710
   26MOL0     H 3446   2.999  11.405   0.710 -0.3916 -0.2246  0.0274
   26MOL0     H 3447   3.032  11.579   0.844  1.9781 -1.8374 -2.0922
   26MOL0     H 3448   3.004  11.703   0.728  0.3488 -1.3977 -4.1274
   26MOL0     H 3449   2.767  11.589   0.691 -1.0874 -1.0001  0.8043
   26MOL0     H 3450   2.808  11.509   0.842  2.3906 -0.2720  0.3053
   26MOL0     H 3451   2.785  11.726   0.957  2.9321  0.0668 -0.3465
   26MOL0     H 3452   2.853  11.806   0.817 -0.6454  0.7459  0.2864
   26MOL0     H 3453   2.564  11.698   0.833  3.0431 -3.4855  1.5934
   26MOL0     H 3454   2.610  11.870   0.854  1.4561 -1.4281  1.2484
   26MOL0     H 3455   2.715  11.842   0.606 -1.3381 -0.0259 -1.5727
   26MOL0     H 3456   2.622  11.696   0.597 -3.5119 -1.0158  2.9340
   26MOL0     H 3457   2.422  11.832   0.648  0.1460 -1.2961 -1.9389
   26MOL0     H 3458   2.512  11.979   0.633  1.6409  0.2906 -0.2138
   26MOL0     H 3459   2.426  11.965   0.406 -1.2925  0.5051  5.4382
   26MOL0     H 3460   2.447  11.792   0.390  0.6457  0.6014 -3.1810
   26MOL0     H 3461   2.684  11.697   0.321 -0.0108 -0.3691  3.2454
   26MOL0     H 3462   2.888  11.694   0.164 -1.6055  1.6058 -2.1192
   26MOL0     H 3463   2.960  11.851   0.127  1.6547  0.6179  2.4404
   26MOL0     H 3464   3.031  11.700   0.378 -2.2241  0.0011 -0.1422
   26MOL0     H 3465   3.106  11.842   0.333 -1.0292  2.7725 -4.7998
   26MOL0     H 3466   3.117  11.589   0.171  1.8369 -0.9489 -0.6827
   26MOL0     H 3467   3.238  11.658   0.283 -1.1664  1.3009  0.9589
   26MOL0     H 3468   3.264  11.847   0.127  0.3696 -0.9121  0.4328
   26MOL0     H 3469   3.167  11.773   0.020 -1.9014 -0.3451  2.0699
   26MOL0     H 3470   3.555  11.580  -0.053  1.3224 -1.8225  0.7654
   26MOL0     H 3471   3.770  11.512  -0.089  1.5350 -1.2911  1.8913
   26MOL0     H 3472   3.837  11.679  -0.078  0.1901 -0.3921  0.5531
   26MOL0     H 3473   3.890  11.541   0.031  1.8609 -0.3578 -1.9521
   26MOL0     H 3474   4.136  11.639   0.304 -2.0487 -1.1217 -0.0571
   26MOL0     H 3475   4.358  11.715   0.419 -1.0475  0.5375 -1.6012
   26MOL0     H 3476   4.290  11.764   0.860 -1.4282  0.1566 -1.2859
   26MOL0     H 3477   4.463  11.787   0.838 -0.4752 -2.3484 -2.9692
   26MOL0     H 3478   4.430  12.016   0.843 -0.0232 -0.3881  5.2918
   26MOL0     H 3479   4.288  12.011   0.744  0.4123  5.6390  2.8315
   26MOL0     H 3480   4.171  11.921   0.948  1.2987 -1.9055 -2.3898
   26MOL0     H 3481   4.212  12.092   0.939 -0.9546 -0.6893 -2.8998
   26MOL0     H 3482   4.380  11.900   1.094 -1.3955 -0.0663  0.4635
   26MOL0     H 3483   4.395  12.080   1.060 -0.2970 -1.1542 -3.6715
   26MOL0     H 3484   4.243  12.134   1.223 -1.4318 -0.8662  0.6035
   26MOL0     H 3485   4.348  12.010   1.287 -1.9371  0.5912  3.0641
   26MOL0     H 3486   4.069  12.011   1.329  0.0188 -1.5583  2.7863
   26MOL0     H 3487   4.070  11.952   1.167  0.7278  0.4299 -1.1676
   26MOL0     H 3488   4.274  11.780   1.255 -0.8484 -4.4952 -1.2620
   26MOL0     H 3489   4.096  11.757   1.240 -2.6057  2.1891  1.5872
   26MOL0     H 3490   4.062  11.810   1.472  0.9633  1.4459  1.9615
   26MOL0     H 3491   4.229  11.854   1.496  1.6797 -2.2294  0.3107
   26MOL0     H 3492   4.117  11.809   0.765  2.7487 -3.1858  0.8896
   26MOL0     H 3493   3.911  11.772   0.644 -1.1803 -1.7519 -0.6416
   26MOL0     H 3494   3.651  11.801   0.385 -0.2218  1.4602  0.6262
   26MOL0     H 3495   3.435  11.773   0.317 -1.3184  1.2620 -1.8286
   26MOL0     H 3496   3.411  11.521   0.636  3.5533  2.2017 -2.2306
   26MOL0     H 3497   3.540  11.415   0.497  0.0768  3.9293  1.0451
   26MOL0     H 3498   3.601  10.924   0.345  0.4959  4.1686  4.0887
   26MOL0     H 3499   3.806  10.824   0.236 -2.7461 -1.6956 -1.3563
   26MOL0     H 3500   3.905  10.759  -0.009 -2.7335 -0.5380 -3.1234
   26MOL0     H 3501   3.826  10.905  -0.080 -0.6789  0.0239 -0.8636
   26MOL0     H 3502   4.115  10.860  -0.101 -0.5243 -1.0217  1.5779
   26MOL0     H 3503   4.017  10.949  -0.219  2.1621 -1.3420 -1.2040
   26MOL0     H 3504   4.028  10.653  -0.167  4.2832 -1.0282 -3.1603
   26MOL0     H 3505   4.057  10.734  -0.315 -1.1973 -0.0378 -0.3926
   26MOL0     H 3506   3.792  10.685  -0.182 -0.5582  0.0520 -0.7793
   26MOL0     H 3507   3.841  10.619  -0.340 -0.1670 -0.3921  1.1775
   26MOL0     H 3508   3.655  10.992  -0.410 -1.3554 -1.4689 -1.6291
   26MOL0     H 3509   3.883  11.206   0.041  0.4509  1.0753 -0.2923
   26MOL0     H 3510   3.673  11.282   0.139  1.7301  0.3508  0.2031
   27MOL0     O 3511   1.106   1.340   8.142  0.7430  0.3608  0.1856
   27MOL0     C 3512   0.995   1.336   8.198  0.1301 -0.3056  0.3122
   27MOL0     O 3513   0.972   1.330   8.332 -0.1459 -0.3241 -0.9912
   27MOL0     C 3514   1.075   1.380   8.415 -0.4157 -0.1700  0.3917
   27MOL0     C 3515   1.061   1.502   8.486 -1.3104  0.5381  0.5026
   27MOL0     C 3516   1.168   1.554   8.564 -0.0924 -0.9913  0.5440
   27MOL0     C 3517   1.274   1.469   8.592  0.1638 -0.1119 -1.6982
   27MOL0     O 3518   1.354   1.517   8.688 -0.3073 -0.0868 -0.3288
   27MOL0     C 3519   1.490   1.471   8.704  0.8219  0.2248  0.0872
   27MOL0     C 3520   1.546   1.557   8.816 -0.2426 -0.3433  0.2253
   27MOL0     C 3521   1.567   1.707   8.783 -0.1705  0.2774 -0.6845
   27MOL0     C 3522   1.453   1.800   8.824 -0.0562 -0.1161  0.8093
   27MOL0     C 3523   1.488   1.943   8.790  0.3181  0.1984  0.7925
   27MOL0     C 3524   1.391   1.997   8.685  1.2071  0.3786  0.3187
   27MOL0     C 3525   1.251   2.019   8.727  0.2293  0.2300  0.5441
   27MOL0     C 3526   1.217   2.169   8.739  0.5418  0.1358 -0.0871
   27MOL0     N 3527   1.072   2.173   8.767  0.5213 -1.1572 -0.7437
   27MOL0     C 3528   1.012   2.156   8.883  0.2094  0.4738  0.3402
   27MOL0     C 3529   0.877   2.172   8.863 -0.1858  0.5215  0.7944
   27MOL0     C 3530   0.769   2.157   8.959 -0.3061  0.0383  0.1840
   27MOL0     C 3531   0.630   2.145   8.900  0.3968  0.7670  0.2468
   27MOL0     C 3532   0.518   2.162   9.002  0.0537 -0.5753  0.3194
   27MOL0     C 3533   0.380   2.127   8.923  0.1135  0.0630  0.6514
   27MOL0     O 3534   0.262   2.093   9.001 -1.6399 -0.1474  0.4268
   27MOL0     C 3535   0.138   2.113   8.932  0.3391 -0.9982 -0.1544
   27MOL0     C 3536   0.036   2.186   8.985 -0.1259  0.5659 -0.7830
   27MOL0     C 3537  -0.076   2.221   8.918  0.2175  0.3782 -0.8020
   27MOL0     C 3538  -0.174   2.311   8.999  0.1689  0.5770  0.3156
   27MOL0     C 3539  -0.081   2.194   8.785 -0.0551  0.4608  0.0842
   27MOL0     C 3540  -0.208   2.229   8.702  0.2739  0.3659  0.2991
   27MOL0     O 3541  -0.222   2.166   8.583 -0.3655 -0.2448 -0.5930
   27MOL0     C 3542  -0.339   2.173   8.519  0.4625 -0.0810  0.1952
   27MOL0     C 3543  -0.395   2.052   8.501  0.7163 -0.0902 -0.1067
   27MOL0     C 3544  -0.519   2.029   8.436  0.6772  0.2191  0.0947
   27MOL0     C 3545  -0.583   2.148   8.382  1.3093 -0.3073  0.1837
   27MOL0     O 3546  -0.706   2.147   8.312  0.2004  0.2211  0.8329
   27MOL0     C 3547  -0.801   2.045   8.348  0.1121  0.0049 -0.2188
   27MOL0     C 3548  -0.911   2.059   8.256  0.3833  0.4458  0.5589
   27MOL0     C 3549  -1.045   2.008   8.318 -0.7641  0.1486  0.3779
   27MOL0     C 3550  -1.036   1.864   8.360 -1.0685 -0.2678 -0.8596
   27MOL0     C 3551  -1.169   1.796   8.384  1.3161  0.2446 -0.4719
   27MOL0     C 3552  -1.167   1.656   8.428  0.1917  0.0821 -0.4635
   27MOL0     C 3553  -1.260   1.605   8.539 -0.8074  0.2924 -0.5435
   27MOL0     C 3554  -1.413   1.641   8.523 -0.5719 -0.1761  0.4207
   27MOL0    Cl 3555  -1.489   1.506   8.433 -0.4428 -0.1868  0.1469
   27MOL0     C 3556  -0.526   2.271   8.402  0.3667 -0.2786  0.4605
   27MOL0     C 3557  -0.398   2.288   8.461 -0.4236 -0.0798 -0.3139
   27MOL0     O 3558  -0.277   2.321   8.739  0.1484  0.2713  0.1813
   27MOL0     C 3559   0.023   2.128   8.725  0.4962  0.2204  1.0517
   27MOL0     C 3560   0.131   2.084   8.794 -0.6636  0.2823  0.0570
   27MOL0     N 3561   0.857   2.175   8.726 -0.1941 -0.3656  0.0556
   27MOL0     N 3562   0.974   2.169   8.672 -1.0444 -0.9299 -0.7025
   27MOL0     C 3563   1.286   1.348   8.536 -0.2081 -0.1660 -0.1444
   27MOL0     C 3564   1.197   1.314   8.437  0.1366  0.0123  0.0159
   27MOL0     C 3565   0.874   1.323   8.113 -0.2956  0.2685  0.0093
   27MOL0     C 3566   0.753   1.385   8.156 -0.0347 -0.3630 -1.0226
   27MOL0     C 3567   0.625   1.363   8.085 -0.8503  0.3319 -0.3630
   27MOL0     C 3568   0.626   1.301   7.962 -0.0824  0.6042 -0.8548
   27MOL0     O 3569   0.506   1.292   7.895  0.1805  0.3550  0.4477
   27MOL0     C 3570   0.500   1.242   7.753 -1.0384 -0.0122 -0.6144
   27MOL0     C 3571   0.378   1.289   7.685 -0.9499  0.1769  0.6902
   27MOL0     C 3572   0.238   1.233   7.736 -1.1002 -0.3322 -0.6171
   27MOL0     C 3573   0.141   1.241   7.622  0.0916  0.3691 -0.3492
   27MOL0     C 3574   0.013   1.174   7.644 -0.2921 -0.7107  1.3822
   27MOL0     C 3575  -0.092   1.115   7.643 -0.2760 -0.1678  0.7306
   27MOL0     C 3576   0.746   1.241   7.917 -0.5045  0.1747 -0.3839
   27MOL0     C 3577   0.868   1.249   7.991  1.0756 -0.6882  0.2309
   27MOL0     H 3578   0.976   1.565   8.461 -1.7137 -0.7205 -1.4698
   27MOL0     H 3579   1.162   1.654   8.606  0.4843 -0.6973 -0.0629
   27MOL0     H 3580   1.483   1.364   8.725 -0.6777  0.0544 -1.1284
   27MOL0     H 3581   1.537   1.479   8.606 -1.7774 -1.7172 -1.4584
   27MOL0     H 3582   1.487   1.536   8.906 -1.9400 -0.7631 -0.9351
   27MOL0     H 3583   1.641   1.506   8.836 -1.0573 -3.7711 -3.3980
   27MOL0     H 3584   1.663   1.739   8.825  0.7167 -1.7426 -1.0317
   27MOL0     H 3585   1.584   1.712   8.675 -0.5872 -0.4216 -0.7913
   27MOL0     H 3586   1.363   1.767   8.771  1.2748 -2.1741 -0.2823
   27MOL0     H 3587   1.420   1.798   8.928 -4.1372  0.0578 -0.2926
   27MOL0     H 3588   1.471   1.999   8.883  1.1925  0.8246  0.5870
   27MOL0     H 3589   1.590   1.952   8.753 -0.6255 -1.5819 -2.6675
   27MOL0     H 3590   1.422   2.091   8.638 -1.2276  1.0501 -0.0964
   27MOL0     H 3591   1.390   1.924   8.604  2.2123 -0.1126  0.7254
   27MOL0     H 3592   1.190   1.968   8.651  1.8768 -0.6391 -0.2464
   27MOL0     H 3593   1.231   1.966   8.821  2.4381  1.4676  1.7996
   27MOL0     H 3594   1.234   2.208   8.638  0.4945  0.2038 -0.0685
   27MOL0     H 3595   1.273   2.227   8.813 -0.0650  0.6928 -0.0524
   27MOL0     H 3596   1.068   2.147   8.976  1.0193  1.8351  0.0103
   27MOL0     H 3597   0.788   2.059   9.004  0.9975 -1.1990 -2.8220
   27MOL0     H 3598   0.773   2.231   9.040  1.0274 -0.3561  0.4966
   27MOL0     H 3599   0.612   2.048   8.853  3.6137  0.3542 -0.3606
   27MOL0     H 3600   0.612   2.216   8.818  3.1207  0.0537 -1.0833
   27MOL0     H 3601   0.507   2.265   9.037  1.8782  0.3787 -1.6551
   27MOL0     H 3602   0.533   2.087   9.080  1.5568 -1.5896 -0.9036
   27MOL0     H 3603   0.393   2.035   8.867  1.5153  0.9310 -0.4962
   27MOL0     H 3604   0.352   2.207   8.854  1.0704  2.6006  2.9617
   27MOL0     H 3605   0.054   2.203   9.091 -0.2573  0.2874 -0.7154
   27MOL0     H 3606  -0.144   2.290   9.102 -0.2436 -0.7737  0.1746
   27MOL0     H 3607  -0.154   2.417   8.980  0.8220  0.5591  0.8391
   27MOL0     H 3608  -0.279   2.285   8.981  0.7832 -1.7069 -0.4101
   27MOL0     H 3609  -0.351   1.962   8.544  2.6569 -1.0795 -3.8114
   27MOL0     H 3610  -0.563   1.931   8.421  1.0924  0.3182 -2.0891
   27MOL0     H 3611  -0.752   1.949   8.328 -0.9715 -0.8796  1.1693
   27MOL0     H 3612  -0.818   2.048   8.456  2.1018 -1.8522  0.2105
   27MOL0     H 3613  -0.928   2.166   8.238  0.2835  0.3880  0.3110
   27MOL0     H 3614  -0.889   1.996   8.169 -1.4380  0.1371  0.2830
   27MOL0     H 3615  -1.119   2.010   8.238  1.1595 -2.0024 -1.6255
   27MOL0     H 3616  -1.079   2.079   8.393 -3.6828  0.5886 -1.2249
   27MOL0     H 3617  -0.972   1.815   8.287  2.2742 -2.2685  2.9942
   27MOL0     H 3618  -0.978   1.857   8.453 -1.5094 -1.9125 -0.6840
   27MOL0     H 3619  -1.245   1.809   8.306 -2.9917 -2.3342  2.7894
   27MOL0     H 3620  -1.219   1.842   8.470  2.2194 -0.3582  0.3902
   27MOL0     H 3621  -1.154   1.582   8.349  2.4241  2.1079 -2.1610
   27MOL0     H 3622  -1.071   1.651   8.480 -0.3199 -2.7332  0.3545
   27MOL0     H 3623  -1.220   1.647   8.632  1.1048 -1.3704 -0.5488
   27MOL0     H 3624  -1.243   1.498   8.552 -1.2389  0.3007  0.1329
   27MOL0     H 3625  -1.413   1.737   8.470 -1.3767  0.0114  0.7285
   27MOL0     H 3626  -1.465   1.643   8.620 -5.0701 -3.4456 -1.5844
   27MOL0     H 3627  -0.578   2.359   8.364  1.1306 -0.4681 -1.0819
   27MOL0     H 3628  -0.359   2.388   8.477  4.6318 -1.4478 -2.2035
   27MOL0     H 3629   0.019   2.087   8.624 -2.0828  0.2405  1.0878
   27MOL0     H 3630   0.212   2.037   8.740 -1.5246  0.1182 -1.1372
   27MOL0     H 3631   1.370   1.284   8.561  1.0991  1.4182 -0.3104
   27MOL0     H 3632   1.211   1.219   8.387 -0.1830 -1.9056  3.2752
   27MOL0     H 3633   0.754   1.434   8.253 -3.9292 -0.1415 -0.9408
   27MOL0     H 3634   0.532   1.414   8.109  0.0719  2.3932 -0.9493
   27MOL0     H 3635   0.586   1.267   7.691 -0.3462 -2.7305 -0.8665
   27MOL0     H 3636   0.501   1.133   7.749  2.1784 -0.0337 -2.4705
   27MOL0     H 3637   0.398   1.266   7.580  3.3928 -1.5599  1.6721
   27MOL0     H 3638   0.377   1.397   7.701  2.4290 -0.1844  6.4278
   27MOL0     H 3639   0.198   1.285   7.824  2.6513  0.5310  0.7747
   27MOL0     H 3640   0.241   1.124   7.742  2.2313 -0.2701  0.6149
   27MOL0     H 3641   0.187   1.166   7.557 -0.6885 -2.0744  1.7179
   27MOL0     H 3642   0.127   1.336   7.570 -0.9496  0.4124 -0.0094
   27MOL0     H 3643  -0.172   1.046   7.627 -0.3847  0.2172 -0.5377
   27MOL0     H 3644   0.739   1.180   7.828  1.5724 -2.0505  0.8541
   27MOL0     H 3645   0.939   1.182   7.944  0.0106 -1.0208 -0.9800
   28MOL0     O 3646   5.425   8.713   2.773 -0.4706  0.1401  0.3777
   28MOL0     C 3647   5.405   8.688   2.897  0.3486  0.5983  0.3609
   28MOL0     O 3648   5.403   8.564   2.958 -0.6680 -0.1191  0.2374
   28MOL0     C 3649   5.413   8.452   2.879  0.1182 -0.4958  0.2746
   28MOL0     C 3650   5.356   8.423   2.756 -0.1356  0.0097  0.1264
   28MOL0     C 3651   5.369   8.296   2.689  0.8864 -0.5959 -0.0827
   28MOL0     C 3652   5.423   8.187   2.761 -0.9647 -0.0459 -0.1882
   28MOL0     O 3653   5.421   8.058   2.715  0.3260 -0.9989 -0.4295
   28MOL0     C 3654   5.290   8.001   2.704 -0.2603 -0.3599 -0.0143
   28MOL0     C 3655   5.266   7.901   2.821  0.4898 -0.7768  0.5811
   28MOL0     C 3656   5.274   7.949   2.972 -0.6070 -0.8455  0.0415
   28MOL0     C 3657   5.291   7.832   3.069 -0.1959  1.5319  0.2855
   28MOL0     C 3658   5.278   7.868   3.222 -0.6160 -0.5612  0.3128
   28MOL0     C 3659   5.365   7.968   3.283 -0.7883 -0.6734 -0.4678
   28MOL0     C 3660   5.327   7.997   3.430  0.3828 -0.6068 -0.6868
   28MOL0     C 3661   5.435   8.092   3.484  0.0415  0.0303 -0.0934
   28MOL0     N 3662   5.433   8.227   3.438 -0.7378  0.0905 -0.7829
   28MOL0     C 3663   5.327   8.315   3.452 -1.0727  0.3826 -0.6698
   28MOL0     C 3664   5.376   8.441   3.420  0.3454  0.4146 -0.0939
   28MOL0     C 3665   5.304   8.570   3.409 -0.2204 -0.4539 -0.9743
   28MOL0     C 3666   5.208   8.597   3.535  0.3615 -0.0341 -0.9098
   28MOL0     C 3667   5.133   8.733   3.530  0.3305 -0.2528 -0.8816
   28MOL0     C 3668   5.035   8.740   3.409  1.2181  0.7505  0.5019
   28MOL0     O 3669   4.947   8.852   3.431  0.7879  0.3845  0.2020
   28MOL0     C 3670   4.873   8.902   3.325 -0.0486  0.1206 -0.1079
   28MOL0     C 3671   4.799   9.012   3.353  0.5067 -1.1148 -0.5055
   28MOL0     C 3672   4.714   9.070   3.254 -0.1023 -0.1147 -0.4567
   28MOL0     C 3673   4.635   9.202   3.293 -0.4281  0.8998 -0.8136
   28MOL0     C 3674   4.707   9.005   3.124 -0.6039 -0.1815  0.3839
   28MOL0     C 3675   4.636   9.054   3.012  0.2312  0.5062  0.3013
   28MOL0     O 3676   4.557   8.965   2.951  0.3165  0.8363  0.0255
   28MOL0     C 3677   4.499   8.982   2.823 -0.3195  0.3577 -0.3531
   28MOL0     C 3678   4.438   8.858   2.772 -0.6836 -0.6917 -0.4564
   28MOL0     C 3679   4.360   8.871   2.658 -1.0446  0.7023  0.7200
   28MOL0     C 3680   4.322   8.991   2.604  0.7458  0.2464  0.0592
   28MOL0     O 3681   4.242   9.012   2.497 -0.1996  0.1359  0.2051
   28MOL0     C 3682   4.283   8.941   2.380 -0.0059  0.1556  0.5686
   28MOL0     C 3683   4.421   8.982   2.311  0.1562  0.4668 -0.4803
   28MOL0     C 3684   4.389   9.108   2.231 -0.0394  0.3748 -0.0991
   28MOL0     C 3685   4.525   9.181   2.197 -0.3977  0.0646 -0.7284
   28MOL0     C 3686   4.585   9.268   2.299 -0.6386 -0.4245 -0.4531
   28MOL0     C 3687   4.484   9.358   2.373 -0.1378  0.4601  0.0993
   28MOL0     C 3688   4.560   9.472   2.453 -0.4355  0.4029 -0.7278
   28MOL0     C 3689   4.458   9.546   2.537  0.6075 -0.3893 -0.0608
   28MOL0    Cl 3690   4.523   9.701   2.584 -0.2757  0.2559  0.0697
   28MOL0     C 3691   4.377   9.101   2.661 -0.5000  0.0345  0.3832
   28MOL0     C 3692   4.473   9.096   2.760 -0.2553 -0.6386 -0.0081
   28MOL0     O 3693   4.631   9.174   2.990  0.7244  0.5521  0.1880
   28MOL0     C 3694   4.780   8.894   3.103 -0.6936 -0.3592 -0.1553
   28MOL0     C 3695   4.864   8.844   3.199  0.0928 -0.3117  0.6326
   28MOL0     N 3696   5.508   8.427   3.375  0.0783 -0.1085  0.6113
   28MOL0     N 3697   5.538   8.298   3.391 -0.2321  0.4609  0.0042
   28MOL0     C 3698   5.481   8.215   2.880 -0.5413 -0.2279 -0.4575
   28MOL0     C 3699   5.478   8.344   2.931 -0.1504  0.1252 -0.4482
   28MOL0     C 3700   5.371   8.805   2.984  0.1413 -0.3551  0.7079
   28MOL0     C 3701   5.332   8.934   2.927  0.9838 -0.0462  0.8344
   28MOL0     C 3702   5.299   9.036   3.010 -0.0877  0.5409  0.3202
   28MOL0     C 3703   5.287   9.021   3.150 -0.0201 -0.7521 -0.0694
   28MOL0     O 3704   5.253   9.116   3.243 -0.0825  0.5743  0.2738
   28MOL0     C 3705   5.218   9.253   3.200 -0.5351  0.5702 -0.0348
   28MOL0     C 3706   5.073   9.249   3.150 -0.5083 -0.5480  0.0457
   28MOL0     C 3707   5.023   9.375   3.095  0.0531 -0.6013 -0.5294
   28MOL0     C 3708   5.004   9.486   3.197 -0.4338  0.2650 -0.5181
   28MOL0     C 3709   4.888   9.565   3.158  0.1756  0.1800  0.4262
   28MOL0     C 3710   4.793   9.636   3.142  0.1022 -0.8277 -0.0796
   28MOL0     C 3711   5.320   8.892   3.201 -0.1662 -0.3856 -0.3149
   28MOL0     C 3712   5.360   8.793   3.123  0.2165  0.4933  0.1282
   28MOL0     H 3713   5.315   8.505   2.698  3.2394  1.1685 -0.8298
   28MOL0     H 3714   5.318   8.280   2.594 -0.3509  1.8602  0.0901
   28MOL0     H 3715   5.206   8.072   2.705 -3.2961 -3.6513 -1.2189
   28MOL0     H 3716   5.280   7.951   2.608  0.3087 -0.4965 -0.0050
   28MOL0     H 3717   5.164   7.861   2.814  0.7661 -1.5365  0.7342
   28MOL0     H 3718   5.325   7.809   2.808 -0.7592 -1.6270  0.7029
   28MOL0     H 3719   5.363   8.009   2.995 -1.7941  1.3674 -0.8477
   28MOL0     H 3720   5.183   8.007   2.988 -0.1473 -0.0617 -0.0878
   28MOL0     H 3721   5.206   7.765   3.053  1.8800 -1.3978  0.5790
   28MOL0     H 3722   5.386   7.779   3.056 -0.1565  0.7863  2.9890
   28MOL0     H 3723   5.179   7.914   3.234 -0.9082 -0.8384 -0.8965
   28MOL0     H 3724   5.278   7.776   3.282  0.8477 -0.0826  1.0854
   28MOL0     H 3725   5.469   7.935   3.273  0.0252  1.4131  0.4320
   28MOL0     H 3726   5.355   8.064   3.232 -0.1564 -1.3684 -1.9604
   28MOL0     H 3727   5.224   8.033   3.426  0.4470 -0.5509 -3.0914
   28MOL0     H 3728   5.331   7.901   3.482 -0.2911 -0.4042 -0.2446
   28MOL0     H 3729   5.535   8.054   3.461 -0.2806  0.9411 -3.4416
   28MOL0     H 3730   5.442   8.094   3.594  4.1127  3.3011 -0.1892
   28MOL0     H 3731   5.228   8.287   3.487 -2.2063  0.3918 -3.5970
   28MOL0     H 3732   5.376   8.652   3.403  2.6487 -2.7929 -1.2748
   28MOL0     H 3733   5.245   8.562   3.318  0.8909 -2.6084 -1.5789
   28MOL0     H 3734   5.268   8.603   3.627  0.8284 -1.5085 -1.0928
   28MOL0     H 3735   5.134   8.519   3.555  1.9265 -0.8026  2.7626
   28MOL0     H 3736   5.202   8.818   3.526 -1.0252  0.8618 -2.0950
   28MOL0     H 3737   5.063   8.743   3.613 -2.1178 -1.8607 -2.6224
   28MOL0     H 3738   4.979   8.647   3.398  2.8899 -0.2806  0.3785
   28MOL0     H 3739   5.083   8.748   3.312  0.5758  2.7352  0.2979
   28MOL0     H 3740   4.784   9.052   3.453 -0.9783 -0.9796 -0.7487
   28MOL0     H 3741   4.659   9.288   3.231  0.7626  1.3145  0.1720
   28MOL0     H 3742   4.528   9.179   3.295 -0.0189 -1.9001 -3.5430
   28MOL0     H 3743   4.672   9.224   3.394  1.4775  0.1573 -1.2881
   28MOL0     H 3744   4.456   8.757   2.807 -2.7261 -0.2166  2.3332
   28MOL0     H 3745   4.323   8.777   2.619 -1.3804  1.0441  0.1864
   28MOL0     H 3746   4.289   8.833   2.402  0.7595 -0.0223 -0.4787
   28MOL0     H 3747   4.199   8.952   2.311 -0.5920 -2.3364  0.7623
   28MOL0     H 3748   4.495   8.998   2.390  0.3825 -1.7517 -0.1860
   28MOL0     H 3749   4.462   8.898   2.254  0.2361 -0.4840  0.9295
   28MOL0     H 3750   4.322   9.179   2.280 -1.6291 -0.8589 -0.4127
   28MOL0     H 3751   4.337   9.090   2.136  1.8231  2.6342 -1.6662
   28MOL0     H 3752   4.601   9.109   2.166  1.4464  2.0864 -1.1560
   28MOL0     H 3753   4.495   9.248   2.116 -1.0871  2.2944  1.2502
   28MOL0     H 3754   4.657   9.326   2.241 -0.0144 -0.3853  0.3430
   28MOL0     H 3755   4.634   9.207   2.376 -3.5267  0.9272  2.7522
   28MOL0     H 3756   4.411   9.399   2.303 -1.6585 -1.6712  0.3335
   28MOL0     H 3757   4.434   9.294   2.447  4.5583 -1.5817  1.8807
   28MOL0     H 3758   4.611   9.543   2.388  3.1806 -0.9805  0.3815
   28MOL0     H 3759   4.641   9.434   2.516  0.1901 -1.1105 -2.3666
   28MOL0     H 3760   4.441   9.479   2.622 -1.7720 -0.2141 -0.3302
   28MOL0     H 3761   4.357   9.563   2.499 -0.0682  0.7497  2.1140
   28MOL0     H 3762   4.344   9.201   2.632 -1.8280 -0.4518  0.1157
   28MOL0     H 3763   4.504   9.193   2.797  2.0229 -0.8057 -1.3225
   28MOL0     H 3764   4.778   8.848   3.004  0.5686  2.0040 -1.3596
   28MOL0     H 3765   4.930   8.761   3.175  4.2101  1.7507  3.5975
   28MOL0     H 3766   5.528   8.134   2.936  2.0375  1.3438 -0.1617
   28MOL0     H 3767   5.534   8.360   3.023  1.3548  3.6582 -1.8108
   28MOL0     H 3768   5.324   8.943   2.820  0.6754  1.8412  0.9862
   28MOL0     H 3769   5.280   9.139   2.981 -0.4885  1.0109  2.1355
   28MOL0     H 3770   5.225   9.321   3.285 -0.0194  2.2537 -1.3564
   28MOL0     H 3771   5.278   9.283   3.114 -0.8282 -2.3302 -1.3577
   28MOL0     H 3772   5.018   9.226   3.242  0.2316  2.4123  1.3451
   28MOL0     H 3773   5.064   9.163   3.083  1.7880 -0.6955 -0.1584
   28MOL0     H 3774   4.927   9.352   3.047 -0.2032  1.9077 -1.3882
   28MOL0     H 3775   5.079   9.432   3.020  0.2004 -0.0770 -0.0230
   28MOL0     H 3776   5.092   9.550   3.200  0.6321 -1.1647 -0.4145
   28MOL0     H 3777   4.994   9.451   3.300  0.6204  0.7710 -0.2329
   28MOL0     H 3778   4.705   9.693   3.123  0.1669  1.4601  4.9082
   28MOL0     H 3779   5.310   8.877   3.308 -1.7729  0.0897 -0.3760
   28MOL0     H 3780   5.367   8.694   3.167 -1.4094  1.6789  3.3140
   29MOL0     O 3781  11.284   4.452   8.828  0.1052  0.5496  0.7022
   29MOL0     C 3782  11.352   4.513   8.753  0.1289  0.0286  0.4620
   29MOL0     O 3783  11.440   4.454   8.664 -0.2369 -0.1672 -0.6409
   29MOL0     C 3784  11.443   4.317   8.649  1.3270 -0.1538 -0.3522
   29MOL0     C 3785  11.457   4.229   8.762 -0.0459 -0.3447  0.7961
   29MOL0     C 3786  11.489   4.097   8.741  0.0686 -0.1041 -0.1545
   29MOL0     C 3787  11.493   4.050   8.609 -0.3813 -0.1140  0.1638
   29MOL0     O 3788  11.538   3.922   8.578 -0.0197  0.2559 -0.2216
   29MOL0     C 3789  11.564   3.829   8.685  0.2170  0.3362 -0.6146
   29MOL0     C 3790  11.549   3.686   8.630 -0.7829  0.4762  0.3230
   29MOL0     C 3791  11.561   3.569   8.733  0.1023 -0.4395 -0.2623
   29MOL0     C 3792  11.609   3.437   8.667 -0.2741 -0.0379 -1.0491
   29MOL0     C 3793  11.519   3.392   8.562 -0.0512  0.1148  0.1575
   29MOL0     C 3794  11.560   3.256   8.505  0.1061 -0.2696 -0.1920
   29MOL0     C 3795  11.649   3.250   8.382  0.0965  0.1994 -0.4934
   29MOL0     C 3796  11.800   3.289   8.423  0.7249 -0.0753 -0.1512
   29MOL0     N 3797  11.898   3.251   8.319 -0.3042 -0.3034 -0.5500
   29MOL0     C 3798  12.027   3.293   8.327  0.3774  0.2785  0.4854
   29MOL0     C 3799  12.095   3.222   8.235  0.0534  0.3854 -0.3979
   29MOL0     C 3800  12.239   3.252   8.190 -0.3486 -0.4772 -0.3411
   29MOL0     C 3801  12.258   3.350   8.072  0.1323  0.0658  0.0728
   29MOL0     C 3802  12.156   3.469   8.088 -0.4085 -0.3186 -0.2775
   29MOL0     C 3803  12.214   3.579   8.173 -0.4895  0.2393 -0.3361
   29MOL0     O 3804  12.233   3.535   8.305  0.0818 -0.0863  0.7025
   29MOL0     C 3805  12.326   3.589   8.386 -0.1047 -1.2696 -0.3023
   29MOL0     C 3806  12.430   3.674   8.358 -1.0928 -0.8846  0.6184
   29MOL0     C 3807  12.524   3.711   8.459 -0.0356  0.0402  0.7723
   29MOL0     C 3808  12.636   3.805   8.418 -0.3629  0.4523  0.5145
   29MOL0     C 3809  12.504   3.669   8.601 -0.1748 -0.3978  0.3179
   29MOL0     C 3810  12.601   3.690   8.711 -0.2264 -0.6269  0.3428
   29MOL0     O 3811  12.586   3.625   8.831 -0.8153 -0.4758 -0.5987
   29MOL0     C 3812  12.693   3.631   8.921 -0.4617  0.0725  0.9224
   29MOL0     C 3813  12.817   3.579   8.885 -0.5240  0.6747  0.1976
   29MOL0     C 3814  12.923   3.587   8.972 -0.1521  0.1841 -0.0253
   29MOL0     C 3815  12.912   3.645   9.095  0.4061 -0.2799 -0.6046
   29MOL0     O 3816  13.018   3.639   9.181  0.2734 -0.4219  0.3310
   29MOL0     C 3817  13.009   3.666   9.319  0.5380 -0.1482  0.0114
   29MOL0     C 3818  13.129   3.612   9.394  0.6899  1.2891 -0.4489
   29MOL0     C 3819  13.265   3.659   9.352  0.3313 -0.6670  0.5581
   29MOL0     C 3820  13.381   3.636   9.451  0.6334  0.0655  0.8167
   29MOL0     C 3821  13.499   3.727   9.434  0.2549  0.6809 -0.2413
   29MOL0     C 3822  13.579   3.661   9.321 -0.0469  0.5008 -1.4202
   29MOL0     C 3823  13.700   3.734   9.265  0.2626  0.1476  0.1856
   29MOL0     C 3824  13.755   3.654   9.147  0.9166  0.4677 -1.3362
   29MOL0    Cl 3825  13.893   3.746   9.076  0.6798  0.0750 -0.1958
   29MOL0     C 3826  12.789   3.710   9.128 -0.0556 -0.1371 -0.3536
   29MOL0     C 3827  12.687   3.700   9.040 -0.5745  0.5913  0.6911
   29MOL0     O 3828  12.697   3.762   8.691 -0.1902 -0.0121 -0.3558
   29MOL0     C 3829  12.404   3.578   8.622 -0.0591  0.1351  0.6215
   29MOL0     C 3830  12.313   3.540   8.520  0.6815 -0.4503  1.0651
   29MOL0     N 3831  12.016   3.130   8.170  0.6077 -0.0796 -0.9775
   29MOL0     N 3832  11.900   3.150   8.231  0.6046  0.2590  0.3244
   29MOL0     C 3833  11.472   4.127   8.490 -0.6693 -1.2384 -0.3649
   29MOL0     C 3834  11.461   4.265   8.518  1.0679  0.7421 -0.8233
   29MOL0     C 3835  11.337   4.659   8.746 -1.1976 -0.2957  0.6066
   29MOL0     C 3836  11.297   4.729   8.863  0.6974  0.3491 -0.0627
   29MOL0     C 3837  11.266   4.865   8.850  0.5718  0.6257  0.0084
   29MOL0     C 3838  11.276   4.927   8.726  0.2321 -0.7250  0.2887
   29MOL0     O 3839  11.253   5.054   8.693 -0.3806 -0.8696 -0.1249
   29MOL0     C 3840  11.210   5.155   8.788 -0.2155 -1.0231  0.2173
   29MOL0     C 3841  11.260   5.289   8.736  0.3871 -0.4436 -0.4764
   29MOL0     C 3842  11.180   5.402   8.801 -0.0570 -0.3226  0.9966
   29MOL0     C 3843  11.212   5.543   8.738 -0.1271  0.1832  0.0059
   29MOL0     C 3844  11.118   5.640   8.801  0.1024 -0.1526  1.1146
   29MOL0     C 3845  11.037   5.725   8.840  0.2521  0.5769 -0.4298
   29MOL0     C 3846  11.321   4.854   8.609 -0.8702 -0.0768 -0.8839
   29MOL0     C 3847  11.347   4.716   8.620  0.7649 -0.9838  0.3396
   29MOL0     H 3848  11.449   4.257   8.867  2.2888 -1.0935  1.2365
   29MOL0     H 3849  11.495   4.029   8.826 -1.4020  0.0283  0.0956
   29MOL0     H 3850  11.666   3.840   8.724 -0.6042  3.2466  1.0015
   29MOL0     H 3851  11.490   3.836   8.765 -0.7474 -2.1112 -1.2075
   29MOL0     H 3852  11.451   3.660   8.588  0.4017 -0.8867 -1.8175
   29MOL0     H 3853  11.625   3.666   8.554 -1.4527 -3.6966  0.4749
   29MOL0     H 3854  11.652   3.600   8.786  1.7077 -0.1733 -2.9787
   29MOL0     H 3855  11.473   3.562   8.797  1.4697  1.8821  2.1015
   29MOL0     H 3856  11.710   3.451   8.628  0.5306  2.1658  1.5500
   29MOL0     H 3857  11.607   3.367   8.750 -2.2692  0.3758 -0.6968
   29MOL0     H 3858  11.417   3.384   8.599  0.3162  2.1152  1.8379
   29MOL0     H 3859  11.507   3.464   8.480 -0.7941  0.1348  0.2763
   29MOL0     H 3860  11.603   3.199   8.588 -1.6639  1.1029  1.7729
   29MOL0     H 3861  11.465   3.208   8.482 -0.2945  0.6284 -0.4455
   29MOL0     H 3862  11.650   3.149   8.339 -1.8658 -0.0964  0.0615
   29MOL0     H 3863  11.611   3.321   8.308 -0.2045 -0.9593 -1.4733
   29MOL0     H 3864  11.842   3.253   8.518 -0.6401  0.7910  0.8190
   29MOL0     H 3865  11.801   3.398   8.431  0.6507 -0.0735 -0.1703
   29MOL0     H 3866  12.072   3.370   8.388  0.9129 -1.3280  2.2034
   29MOL0     H 3867  12.294   3.295   8.274 -0.5599 -1.4676  0.3239
   29MOL0     H 3868  12.283   3.153   8.176  1.4432  0.3059 -0.5673
   29MOL0     H 3869  12.243   3.279   7.990  1.8460  0.0522 -0.2644
   29MOL0     H 3870  12.360   3.381   8.048  0.0227 -0.5548 -1.2518
   29MOL0     H 3871  12.052   3.449   8.113 -0.8309  1.0534 -0.8479
   29MOL0     H 3872  12.158   3.519   7.990  0.5213  1.2839  0.5278
   29MOL0     H 3873  12.161   3.673   8.161  0.3929  0.6608 -1.0747
   29MOL0     H 3874  12.312   3.605   8.131  0.2198 -1.3336  0.2403
   29MOL0     H 3875  12.450   3.713   8.258 -1.3007  0.8433  1.2103
   29MOL0     H 3876  12.613   3.854   8.323 -0.2134 -0.4537  0.0098
   29MOL0     H 3877  12.654   3.889   8.487  1.9031  0.3765  0.0785
   29MOL0     H 3878  12.735   3.762   8.402  1.4815  4.2524  0.6848
   29MOL0     H 3879  12.828   3.536   8.787  1.4752 -1.4708  1.2700
   29MOL0     H 3880  13.011   3.526   8.952  0.3319  0.4735  1.1551
   29MOL0     H 3881  13.020   3.775   9.326 -0.4187  0.0008 -0.5405
   29MOL0     H 3882  12.918   3.638   9.373 -0.4145 -0.3076 -1.5903
   29MOL0     H 3883  13.117   3.645   9.498 -0.4691  1.2158 -0.5479
   29MOL0     H 3884  13.131   3.503   9.384  0.6708  0.7450  3.8541
   29MOL0     H 3885  13.258   3.767   9.336 -2.2421 -0.7337  0.8335
   29MOL0     H 3886  13.281   3.609   9.256  2.1734 -0.0275  0.4946
   29MOL0     H 3887  13.349   3.661   9.552  2.3953  0.2596  1.3499
   29MOL0     H 3888  13.398   3.528   9.462 -0.8168 -0.0808  1.9284
   29MOL0     H 3889  13.566   3.719   9.520  2.9533 -1.7744 -2.3526
   29MOL0     H 3890  13.468   3.827   9.401 -2.4336  0.3184  0.9469
   29MOL0     H 3891  13.614   3.568   9.367 -0.8405  0.9439  0.1570
   29MOL0     H 3892  13.514   3.629   9.238 -1.1850 -1.5394  0.1705
   29MOL0     H 3893  13.769   3.736   9.350  4.4156 -0.3614 -2.8786
   29MOL0     H 3894  13.664   3.834   9.241 -1.9273 -1.0689 -2.1640
   29MOL0     H 3895  13.686   3.641   9.063  0.3854 -4.8990 -0.4661
   29MOL0     H 3896  13.779   3.553   9.183 -3.0387  0.3476  1.5730
   29MOL0     H 3897  12.774   3.761   9.223 -1.8037 -0.1630 -0.5834
   29MOL0     H 3898  12.599   3.760   9.063 -0.2841  0.8334  1.1950
   29MOL0     H 3899  12.389   3.533   8.719 -2.9199 -0.6214 -0.0593
   29MOL0     H 3900  12.229   3.474   8.541 -1.7325  2.6029  1.7818
   29MOL0     H 3901  11.472   4.105   8.384 -0.9746  0.6874 -0.7992
   29MOL0     H 3902  11.458   4.323   8.427  1.5852 -1.2036 -2.1322
   29MOL0     H 3903  11.288   4.683   8.961  0.1658  1.5347  0.4624
   29MOL0     H 3904  11.232   4.924   8.934 -0.3506 -0.1962  0.2225
   29MOL0     H 3905  11.102   5.149   8.796 -0.5757 -1.8822 -3.4723
   29MOL0     H 3906  11.256   5.131   8.884  1.8039 -1.9960 -0.9228
   29MOL0     H 3907  11.239   5.299   8.629 -2.2547  2.2759  0.1477
   29MOL0     H 3908  11.366   5.306   8.755  0.1920  1.5045 -0.8956
   29MOL0     H 3909  11.211   5.392   8.905  1.8675 -4.4219  0.2435
   29MOL0     H 3910  11.073   5.379   8.798  0.4612 -3.1003 -1.6872
   29MOL0     H 3911  11.189   5.544   8.631  0.5800  0.6994 -0.1474
   29MOL0     H 3912  11.318   5.558   8.759  0.2567 -2.5967  0.5142
   29MOL0     H 3913  10.985   5.816   8.867  1.1613  0.6235  1.2886
   29MOL0     H 3914  11.339   4.904   8.515 -0.7854 -1.4018 -1.5977
   29MOL0     H 3915  11.395   4.663   8.538 -1.8342 -3.6494  0.3813
   30MOL0     O 3916   8.305  10.816   6.522 -0.1037  0.1000 -0.0190
   30MOL0     C 3917   8.404  10.786   6.585 -0.3081 -0.5454  0.0302
   30MOL0     O 3918   8.477  10.870   6.664 -0.0721 -0.3204  1.1820
   30MOL0     C 3919   8.445  11.006   6.653 -0.1943  0.0738 -0.5783
   30MOL0     C 3920   8.447  11.064   6.528  0.0123  0.0053 -0.2451
   30MOL0     C 3921   8.420  11.196   6.501  0.2814 -0.8460  0.2956
   30MOL0     C 3922   8.394  11.284   6.604 -0.0858  0.1025  0.0468
   30MOL0     O 3923   8.348  11.414   6.602 -0.2911 -0.0758 -0.3217
   30MOL0     C 3924   8.368  11.478   6.473  0.0968  0.0699  0.3526
   30MOL0     C 3925   8.351  11.630   6.501  0.1291 -0.1002  1.3370
   30MOL0     C 3926   8.407  11.705   6.377  0.5857 -0.8980  0.7797
   30MOL0     C 3927   8.355  11.852   6.391  0.1332  0.5109 -1.0343
   30MOL0     C 3928   8.426  11.936   6.280 -0.8389 -0.2257 -0.9092
   30MOL0     C 3929   8.334  12.059   6.252  0.1993 -0.4434 -0.0252
   30MOL0     C 3930   8.413  12.183   6.197  0.1683 -0.3920 -0.2490
   30MOL0     C 3931   8.322  12.284   6.135  0.2297 -0.3757  0.0518
   30MOL0     N 3932   8.389  12.375   6.039  0.5213  0.4436  0.2101
   30MOL0     C 3933   8.440  12.338   5.914 -0.2215 -0.1847 -0.1905
   30MOL0     C 3934   8.474  12.458   5.853 -0.1267  0.0905 -0.3141
   30MOL0     C 3935   8.521  12.453   5.707 -0.4314 -0.8148 -0.1413
   30MOL0     C 3936   8.580  12.584   5.656  0.6295  0.7742 -0.5435
   30MOL0     C 3937   8.580  12.580   5.502  0.5231 -0.3685  0.0669
   30MOL0     C 3938   8.670  12.697   5.461  0.6385 -0.7005 -0.6675
   30MOL0     O 3939   8.652  12.727   5.327 -0.4812 -0.0710 -0.3137
   30MOL0     C 3940   8.731  12.834   5.280 -0.2021  0.7098 -0.2179
   30MOL0     C 3941   8.702  12.857   5.146 -0.6748 -0.6704  0.5629
   30MOL0     C 3942   8.780  12.942   5.066 -0.5633  0.5643  0.2032
   30MOL0     C 3943   8.751  12.933   4.919 -0.0019 -0.1210  0.1474
   30MOL0     C 3944   8.869  13.037   5.136  0.4876 -0.2255  0.6445
   30MOL0     C 3945   8.940  13.148   5.070 -0.4247  0.1421 -0.7325
   30MOL0     O 3946   9.024  13.215   5.145  0.4874  0.0436 -0.4838
   30MOL0     C 3947   9.119  13.294   5.088 -0.0765 -0.0038 -1.0362
   30MOL0     C 3948   9.195  13.257   4.979  0.4469  0.8006  0.6102
   30MOL0     C 3949   9.301  13.335   4.932  0.7941 -0.3447  0.0592
   30MOL0     C 3950   9.311  13.463   4.973 -0.8498 -0.5395 -0.0545
   30MOL0     O 3951   9.409  13.541   4.918  0.1418 -0.3547  0.2588
   30MOL0     C 3952   9.429  13.673   4.970 -0.0066 -0.0439  0.4011
   30MOL0     C 3953   9.504  13.682   5.102 -0.7360  0.1442  0.1636
   30MOL0     C 3954   9.619  13.585   5.123 -0.2507  0.6621  0.6825
   30MOL0     C 3955   9.681  13.614   5.259 -0.0555 -0.1403  0.2410
   30MOL0     C 3956   9.788  13.513   5.287 -0.2742  1.0306 -0.1114
   30MOL0     C 3957   9.850  13.538   5.413 -0.6347  0.2889 -0.8513
   30MOL0     C 3958   9.897  13.682   5.443 -0.0323  0.3031  0.4459
   30MOL0     C 3959  10.001  13.690   5.562  1.1284 -0.4536  0.4124
   30MOL0    Cl 3960  10.036  13.862   5.603 -0.2000 -0.2585  0.1381
   30MOL0     C 3961   9.232  13.502   5.080  0.1797 -0.6501 -0.5187
   30MOL0     C 3962   9.135  13.413   5.142 -0.9014 -0.6951 -0.8309
   30MOL0     O 3963   8.902  13.189   4.962 -0.3270 -0.2761 -0.1727
   30MOL0     C 3964   8.886  13.019   5.279 -0.0215 -0.7037 -0.1345
   30MOL0     C 3965   8.818  12.922   5.353  0.1029 -0.1842 -0.3075
   30MOL0     N 3966   8.445  12.567   5.941  0.2239  0.3518 -0.1740
   30MOL0     N 3967   8.388  12.511   6.044 -0.6284 -0.5643 -0.3736
   30MOL0     C 3968   8.398  11.237   6.736  0.5040 -0.4259  0.0048
   30MOL0     C 3969   8.417  11.101   6.760 -0.2669 -0.1710  0.3550
   30MOL0     C 3970   8.453  10.650   6.589  0.2403  0.0195  0.5407
   30MOL0     C 3971   8.389  10.546   6.506  0.0273 -0.6367 -0.6692
   30MOL0     C 3972   8.448  10.417   6.496  0.9186 -0.3226  0.8648
   30MOL0     C 3973   8.536  10.376   6.591 -1.0701  0.1485 -0.1199
   30MOL0     O 3974   8.577  10.246   6.579  0.3761 -0.5249  0.2233
   30MOL0     C 3975   8.625  10.185   6.697  0.9551 -0.3536 -0.1978
   30MOL0     C 3976   8.679  10.047   6.675 -0.6619  0.2714  0.1396
   30MOL0     C 3977   8.725   9.979   6.810 -1.2487 -0.5943  0.0420
   30MOL0     C 3978   8.779   9.844   6.774  0.5460 -1.0007  0.4892
   30MOL0     C 3979   8.901   9.868   6.697 -0.3582  1.0569 -0.4820
   30MOL0     C 3980   9.007   9.906   6.650  0.3314  0.0200 -0.2493
   30MOL0     C 3981   8.596  10.471   6.678 -0.7138 -0.1474  0.0961
   30MOL0     C 3982   8.557  10.608   6.670  0.0285 -0.0653  0.3105
   30MOL0     H 3983   8.465  11.001   6.441 -1.4636 -2.6648  1.2448
   30MOL0     H 3984   8.407  11.221   6.396  2.6363 -0.1257  0.1079
   30MOL0     H 3985   8.471  11.470   6.437  0.8737  0.1946  2.4218
   30MOL0     H 3986   8.295  11.452   6.396  1.6421  1.3852 -1.6799
   30MOL0     H 3987   8.245  11.640   6.523  0.4115 -2.6912  4.8506
   30MOL0     H 3988   8.400  11.671   6.589  0.3758  0.3236  1.0067
   30MOL0     H 3989   8.515  11.705   6.365  0.4975 -2.2654 -0.4649
   30MOL0     H 3990   8.392  11.650   6.283  1.3275  0.7565 -0.3397
   30MOL0     H 3991   8.250  11.853   6.360 -0.6739 -2.7801  1.0535
   30MOL0     H 3992   8.376  11.899   6.488 -0.6072  1.6955 -1.4345
   30MOL0     H 3993   8.530  11.965   6.300 -0.4654 -1.8661 -0.3394
   30MOL0     H 3994   8.431  11.873   6.191  0.4109 -3.1781  1.0938
   30MOL0     H 3995   8.257  12.019   6.186  1.0086 -0.1200 -1.1919
   30MOL0     H 3996   8.284  12.087   6.345  0.0013 -2.7279  0.5964
   30MOL0     H 3997   8.478  12.234   6.269  0.5793 -0.7623 -0.3492
   30MOL0     H 3998   8.490  12.147   6.128  1.2157  2.3602 -0.6580
   30MOL0     H 3999   8.291  12.339   6.224 -0.3915 -0.4480 -0.1137
   30MOL0     H 4000   8.228  12.242   6.099 -0.6276  1.7598 -0.3885
   30MOL0     H 4001   8.445  12.236   5.876  0.3377 -0.3372  0.2655
   30MOL0     H 4002   8.597  12.375   5.697 -2.8527 -3.1240 -1.7205
   30MOL0     H 4003   8.431  12.428   5.650 -0.4637 -3.1108  0.7884
   30MOL0     H 4004   8.680  12.602   5.697  1.6906 -2.4489 -1.4411
   30MOL0     H 4005   8.508  12.660   5.689  0.1947 -0.8664  2.6677
   30MOL0     H 4006   8.484  12.600   5.454 -0.2211  2.6528  2.5392
   30MOL0     H 4007   8.634  12.492   5.464  3.0258  0.5894  1.1785
   30MOL0     H 4008   8.777  12.684   5.483  0.9950 -0.5197 -2.2239
   30MOL0     H 4009   8.641  12.791   5.510  4.0077 -0.6593  1.6451
   30MOL0     H 4010   8.617  12.806   5.102 -2.1099  1.0131  1.3020
   30MOL0     H 4011   8.677  13.006   4.883 -0.5813 -0.8904 -0.2519
   30MOL0     H 4012   8.843  12.939   4.861  0.5655 -2.3544  0.7406
   30MOL0     H 4013   8.706  12.837   4.893  1.0901 -2.1795  4.9415
   30MOL0     H 4014   9.174  13.166   4.924 -2.1986  0.8372  1.4342
   30MOL0     H 4015   9.374  13.302   4.859  1.5922  1.3652  0.0347
   30MOL0     H 4016   9.496  13.715   4.895 -1.4640 -0.9474 -1.4936
   30MOL0     H 4017   9.338  13.733   4.954 -0.5612 -1.3233 -1.5829
   30MOL0     H 4018   9.537  13.786   5.092  2.4902 -0.7628  0.1086
   30MOL0     H 4019   9.431  13.689   5.184  0.6790 -1.0517  1.6024
   30MOL0     H 4020   9.697  13.605   5.049  2.9747 -1.6742  3.1866
   30MOL0     H 4021   9.588  13.481   5.107 -2.5530  1.4500 -0.5351
   30MOL0     H 4022   9.733  13.709   5.267 -0.0655 -0.3056  4.5166
   30MOL0     H 4023   9.607  13.614   5.339 -0.7495  1.3174 -0.3579
   30MOL0     H 4024   9.867  13.524   5.212  1.0403 -1.1985  0.8413
   30MOL0     H 4025   9.751  13.411   5.271 -1.3235  1.4609 -0.5535
   30MOL0     H 4026   9.779  13.512   5.492  3.2791 -0.2438  2.8824
   30MOL0     H 4027   9.933  13.469   5.434 -1.4594 -0.5167 -0.1098
   30MOL0     H 4028   9.820  13.759   5.458  2.2890  2.6135  1.1044
   30MOL0     H 4029   9.950  13.716   5.354  0.6298  0.3132  0.8389
   30MOL0     H 4030  10.087  13.635   5.521  0.7425 -0.7497 -0.0257
   30MOL0     H 4031   9.951  13.631   5.640 -1.2266  1.2684  0.2890
   30MOL0     H 4032   9.244  13.597   5.131  1.9834 -0.4291 -1.2757
   30MOL0     H 4033   9.078  13.440   5.230 -2.6671  2.3874 -2.7513
   30MOL0     H 4034   8.948  13.089   5.335  0.0841 -0.2514 -0.8025
   30MOL0     H 4035   8.826  12.899   5.458  0.3506  1.8967  0.1617
   30MOL0     H 4036   8.388  11.315   6.810  0.2625  1.0796 -1.5766
   30MOL0     H 4037   8.414  11.054   6.857  0.8230 -1.6120 -0.2633
   30MOL0     H 4038   8.299  10.561   6.448  0.5949  1.5946 -1.0543
   30MOL0     H 4039   8.406  10.341   6.432  0.0080  2.5018 -2.1814
   30MOL0     H 4040   8.713  10.234   6.741  2.3318 -1.4628 -1.6298
   30MOL0     H 4041   8.552  10.186   6.778  2.5269  0.9923  1.2941
   30MOL0     H 4042   8.765  10.061   6.609  1.8035  2.8492  3.5556
   30MOL0     H 4043   8.597   9.988   6.634  0.5157 -1.7984  0.6277
   30MOL0     H 4044   8.635   9.973   6.872 -0.4645  0.7422  1.3983
   30MOL0     H 4045   8.803  10.031   6.868 -2.7827 -2.6591  4.4205
   30MOL0     H 4046   8.700   9.791   6.720  1.5174 -1.8035 -0.1815
   30MOL0     H 4047   8.809   9.789   6.863 -1.5614 -0.3867  1.6550
   30MOL0     H 4048   9.097   9.942   6.606  0.0267 -1.6021 -2.3322
   30MOL0     H 4049   8.671  10.440   6.751 -1.4701  0.4179  1.1374
   30MOL0     H 4050   8.627  10.669   6.725 -0.9950 -0.1578  1.7630
   31MOL0     O 4051   7.977   3.024   0.430 -0.2313  0.3149 -0.5416
   31MOL0     C 4052   7.952   3.118   0.357  1.0308 -0.5230  0.8137
   31MOL0     O 4053   8.010   3.245   0.357 -0.3934 -0.3534 -0.4793
   31MOL0     C 4054   8.125   3.253   0.439  0.5978 -0.7780 -0.0777
   31MOL0     C 4055   8.230   3.162   0.440 -0.1044  0.3023  0.5731
   31MOL0     C 4056   8.351   3.199   0.503  0.9209 -0.1736  0.2531
   31MOL0     C 4057   8.362   3.323   0.569 -0.3572 -0.1286  0.2504
   31MOL0     O 4058   8.480   3.376   0.637 -0.9162  0.5439  0.1674
   31MOL0     C 4059   8.600   3.297   0.633  0.1721  0.5713 -0.3361
   31MOL0     C 4060   8.700   3.377   0.706 -0.1653 -0.3240 -0.2024
   31MOL0     C 4061   8.738   3.329   0.849 -0.2048 -0.2347  0.3512
   31MOL0     C 4062   8.851   3.412   0.913  0.2076 -0.6578 -0.4217
   31MOL0     C 4063   8.836   3.362   1.063 -0.8759  0.1774 -0.7229
   31MOL0     C 4064   8.929   3.446   1.147 -0.2188 -0.1986  0.9511
   31MOL0     C 4065   8.924   3.418   1.298  0.8446  1.1493  0.3157
   31MOL0     C 4066   9.021   3.488   1.378  0.8232  0.3820  0.4185
   31MOL0     N 4067   9.011   3.634   1.360 -0.5301 -0.4293  0.6141
   31MOL0     C 4068   8.948   3.712   1.449 -0.6070 -0.2191  0.2673
   31MOL0     C 4069   8.974   3.838   1.410 -0.2145  0.5528  0.3257
   31MOL0     C 4070   8.928   3.975   1.464 -0.0276 -0.3086  0.5084
   31MOL0     C 4071   9.014   4.015   1.583 -0.2648  0.3730  0.4807
   31MOL0     C 4072   9.171   4.018   1.557  0.6345 -0.1898  0.0509
   31MOL0     C 4073   9.195   4.132   1.446 -0.3704  0.7605  0.7082
   31MOL0     O 4074   9.327   4.187   1.464  0.4803 -0.2377  0.0623
   31MOL0     C 4075   9.434   4.161   1.379 -0.3099  0.9243  1.0034
   31MOL0     C 4076   9.424   4.080   1.260 -0.5040 -0.0251  0.6317
   31MOL0     C 4077   9.534   4.043   1.189 -0.7993 -0.5584 -0.6654
   31MOL0     C 4078   9.509   3.970   1.059  0.3884 -0.0517  0.4264
   31MOL0     C 4079   9.667   4.080   1.241  0.2244 -0.3245  0.0718
   31MOL0     C 4080   9.792   4.051   1.166 -0.7472 -1.3672  0.4202
   31MOL0     O 4081   9.774   3.987   1.047  0.4909  0.0526  0.0465
   31MOL0     C 4082   9.876   3.954   0.971 -1.2800  0.3178 -0.0936
   31MOL0     C 4083   9.961   4.052   0.920 -0.5312 -0.2228 -0.4821
   31MOL0     C 4084  10.064   4.006   0.834 -0.1315 -0.3583 -0.0239
   31MOL0     C 4085  10.080   3.872   0.801  0.5497 -0.0138  0.2643
   31MOL0     O 4086  10.177   3.850   0.706 -0.1028  0.2895  0.2835
   31MOL0     C 4087  10.211   3.714   0.681  1.5431 -0.2340  0.4414
   31MOL0     C 4088  10.306   3.736   0.563 -0.2996  0.1243 -0.0367
   31MOL0     C 4089  10.373   3.603   0.524  0.1725 -0.4999  0.1715
   31MOL0     C 4090  10.384   3.592   0.370  0.8758 -0.1036 -0.2556
   31MOL0     C 4091  10.462   3.471   0.311 -0.2364  1.0465  0.8701
   31MOL0     C 4092  10.415   3.330   0.352 -0.7432  0.2575 -0.3548
   31MOL0     C 4093  10.470   3.295   0.493  0.0713  0.2643 -0.4551
   31MOL0     C 4094  10.483   3.136   0.486 -0.5124  0.5826 -0.1976
   31MOL0    Cl 4095  10.571   3.071   0.620 -0.1614 -0.7463 -0.4201
   31MOL0     C 4096  10.001   3.771   0.866 -0.1680 -1.2054  0.3075
   31MOL0     C 4097   9.895   3.819   0.945 -0.0149  0.6995  0.4053
   31MOL0     O 4098   9.903   4.073   1.213 -0.3119  0.0791  0.9771
   31MOL0     C 4099   9.671   4.147   1.368  0.5549  0.5117 -0.1736
   31MOL0     C 4100   9.557   4.187   1.435  0.4777 -0.0330  0.2738
   31MOL0     N 4101   9.049   3.837   1.296  0.3845  0.0538 -0.0814
   31MOL0     N 4102   9.078   3.719   1.271  0.1137  0.1120  1.2337
   31MOL0     C 4103   8.258   3.419   0.561 -0.3676 -0.4577  0.2291
   31MOL0     C 4104   8.139   3.382   0.493  0.4632 -0.5235 -0.1235
   31MOL0     C 4105   7.828   3.108   0.276 -0.4271 -0.1263  0.4971
   31MOL0     C 4106   7.775   3.216   0.198  0.4380  0.2150  0.7763
   31MOL0     C 4107   7.654   3.201   0.131  0.4935  1.4453  0.3489
   31MOL0     C 4108   7.590   3.077   0.136  0.7539 -0.4285 -0.4433
   31MOL0     O 4109   7.476   3.075   0.061  0.3881 -0.2556 -1.2205
   31MOL0     C 4110   7.471   2.977  -0.039  0.0936 -0.7521  1.0385
   31MOL0     C 4111   7.578   3.007  -0.152 -0.1777  0.7420  0.1970
   31MOL0     C 4112   7.537   3.128  -0.242  1.0676 -0.5477 -0.0404
   31MOL0     C 4113   7.589   3.104  -0.381  0.2483  0.4240  0.1549
   31MOL0     C 4114   7.734   3.090  -0.372 -0.3752  0.6293 -0.2583
   31MOL0     C 4115   7.854   3.077  -0.355 -0.2373  0.1144 -1.2761
   31MOL0     C 4116   7.629   2.972   0.211 -0.1274 -0.4233 -0.3050
   31MOL0     C 4117   7.750   2.987   0.283 -0.6015 -0.6934 -0.8001
   31MOL0     H 4118   8.223   3.067   0.387  0.2679 -0.3197  1.6093
   31MOL0     H 4119   8.424   3.120   0.514  1.5525  0.2347 -0.9121
   31MOL0     H 4120   8.581   3.206   0.691  3.9430  0.7933  1.5302
   31MOL0     H 4121   8.632   3.279   0.530  2.2586 -1.8830  0.6179
   31MOL0     H 4122   8.795   3.356   0.657  1.0635  2.7448  0.6119
   31MOL0     H 4123   8.685   3.485   0.690  2.4620  0.0948 -0.2232
   31MOL0     H 4124   8.652   3.344   0.914  0.6351  0.7098  1.2864
   31MOL0     H 4125   8.757   3.222   0.843  0.7109 -0.0339 -0.6999
   31MOL0     H 4126   8.955   3.397   0.882  0.7748 -0.8219  1.4406
   31MOL0     H 4127   8.824   3.515   0.888  2.1667 -0.3750 -1.5398
   31MOL0     H 4128   8.734   3.352   1.102 -1.3724 -2.0818 -2.4139
   31MOL0     H 4129   8.879   3.262   1.068  0.4618  0.7744  0.3255
   31MOL0     H 4130   9.032   3.448   1.108 -0.6293 -2.7750 -0.5136
   31MOL0     H 4131   8.903   3.550   1.125  2.1951  0.3322  0.2552
   31MOL0     H 4132   8.821   3.444   1.326  1.3484  1.9104  1.5192
   31MOL0     H 4133   8.931   3.309   1.308 -3.0913  0.5605 -1.2128
   31MOL0     H 4134   9.117   3.441   1.354 -0.0036 -2.1132  1.6250
   31MOL0     H 4135   8.997   3.465   1.483 -0.4530 -0.6209 -0.0666
   31MOL0     H 4136   8.899   3.682   1.541  0.4135 -0.8592  0.6259
   31MOL0     H 4137   8.943   4.056   1.392  0.2499 -0.3762  0.4914
   31MOL0     H 4138   8.822   3.964   1.491 -0.6463 -1.1702 -2.0042
   31MOL0     H 4139   8.990   3.942   1.660  2.5474 -3.3808 -1.8325
   31MOL0     H 4140   8.984   4.116   1.614  0.4866  0.3917  1.2003
   31MOL0     H 4141   9.212   3.924   1.519  2.2834  0.7134 -0.4958
   31MOL0     H 4142   9.225   4.052   1.645  1.9923  1.3328 -1.3143
   31MOL0     H 4143   9.126   4.215   1.462  0.2374  1.6624 -1.0471
   31MOL0     H 4144   9.185   4.096   1.343  4.2977 -0.0135  0.3247
   31MOL0     H 4145   9.331   4.039   1.224 -0.4986  0.1112  0.4651
   31MOL0     H 4146   9.581   3.890   1.038  0.1635 -0.3514  0.7903
   31MOL0     H 4147   9.419   3.909   1.052  1.9340 -2.3150 -2.1287
   31MOL0     H 4148   9.503   4.048   0.983  2.2464 -0.5159 -0.2499
   31MOL0     H 4149   9.947   4.157   0.941  1.0792  0.0575 -0.6887
   31MOL0     H 4150  10.114   4.082   0.774 -0.0086 -2.7126 -3.1395
   31MOL0     H 4151  10.269   3.670   0.762 -0.4578 -0.5714  1.7750
   31MOL0     H 4152  10.124   3.660   0.643  1.1114  0.6815  0.0804
   31MOL0     H 4153  10.259   3.791   0.481 -0.6801  0.0898  0.1555
   31MOL0     H 4154  10.389   3.801   0.592  1.1151 -1.3416 -0.6585
   31MOL0     H 4155  10.300   3.529   0.558 -1.4167  1.6811  1.7517
   31MOL0     H 4156  10.469   3.598   0.577  0.5055  1.1403 -0.2296
   31MOL0     H 4157  10.281   3.580   0.336  1.6911 -2.8367 -2.0941
   31MOL0     H 4158  10.430   3.681   0.327 -1.3027  0.9009 -0.6193
   31MOL0     H 4159  10.568   3.489   0.333 -0.0819 -0.6163  1.6144
   31MOL0     H 4160  10.449   3.486   0.203  0.0745 -1.5635  0.4105
   31MOL0     H 4161  10.306   3.332   0.342 -0.8041 -0.6147  0.0477
   31MOL0     H 4162  10.456   3.259   0.279  3.5734  0.1330  1.8630
   31MOL0     H 4163  10.408   3.336   0.573  0.7749 -4.0279  2.7071
   31MOL0     H 4164  10.571   3.338   0.500 -1.2949  3.7406 -0.0270
   31MOL0     H 4165  10.537   3.107   0.396 -0.2868  0.4985 -0.0381
   31MOL0     H 4166  10.388   3.083   0.469  1.1246 -2.1266 -1.5634
   31MOL0     H 4167  10.025   3.668   0.842  2.2974 -0.6960  0.3098
   31MOL0     H 4168   9.826   3.747   0.987  0.0982  1.1141  1.3379
   31MOL0     H 4169   9.770   4.161   1.411  0.9145 -2.5218  0.1940
   31MOL0     H 4170   9.546   4.254   1.520  2.1811 -0.2596  0.7194
   31MOL0     H 4171   8.267   3.518   0.605 -1.1069  1.4973 -3.5895
   31MOL0     H 4172   8.068   3.463   0.481  1.9081  0.6417 -1.1969
   31MOL0     H 4173   7.831   3.309   0.197 -1.7194  1.5926 -0.0496
   31MOL0     H 4174   7.625   3.274   0.056  1.5064  2.0295  0.5125
   31MOL0     H 4175   7.484   2.876   0.001 -0.1106 -1.8886 -1.5984
   31MOL0     H 4176   7.368   2.979  -0.076 -0.4307 -2.8222  2.2448
   31MOL0     H 4177   7.579   2.912  -0.205 -1.9602 -0.0646  1.4976
   31MOL0     H 4178   7.676   3.019  -0.106  0.0162 -1.2135  0.3626
   31MOL0     H 4179   7.572   3.226  -0.209  2.4980 -0.7683 -0.8180
   31MOL0     H 4180   7.428   3.138  -0.236  1.1008  0.2269 -0.6984
   31MOL0     H 4181   7.564   3.179  -0.456  3.3756  1.8705  0.4140
   31MOL0     H 4182   7.551   3.009  -0.421  2.5183 -2.5283  4.1547
   31MOL0     H 4183   7.960   3.079  -0.341 -0.2745  3.1052 -0.6911
   31MOL0     H 4184   7.572   2.880   0.217  0.2591 -0.7804 -1.6251
   31MOL0     H 4185   7.778   2.907   0.350  1.7186 -0.5048 -1.4637
   32MOL0     O 4186   2.632   5.195   8.791 -0.0708  0.4984  0.3022
   32MOL0     C 4187   2.568   5.101   8.735 -0.8559 -0.3433  0.1908
   32MOL0     O 4188   2.552   5.088   8.598 -0.3294 -0.1080 -0.0294
   32MOL0     C 4189   2.638   5.156   8.513 -1.0099  0.1850 -0.1120
   32MOL0     C 4190   2.585   5.210   8.395  0.8943 -0.0320  0.6475
   32MOL0     C 4191   2.669   5.269   8.302 -0.6482  0.2749  0.4826
   32MOL0     C 4192   2.805   5.295   8.324  0.8173  0.8140 -0.2824
   32MOL0     O 4193   2.895   5.364   8.246  0.0938 -0.1351  0.0610
   32MOL0     C 4194   2.870   5.384   8.103 -0.4091  0.9316  0.3617
   32MOL0     C 4195   2.964   5.298   8.020  0.3660  0.0898 -0.8626
   32MOL0     C 4196   2.990   5.353   7.880 -0.2452 -0.2461 -1.0297
   32MOL0     C 4197   3.098   5.455   7.879 -0.0308 -0.8787  0.0458
   32MOL0     C 4198   3.104   5.530   7.747 -0.3769 -0.7554  1.3025
   32MOL0     C 4199   3.246   5.606   7.724  0.0801  0.7561  0.0347
   32MOL0     C 4200   3.215   5.701   7.601 -0.2988  1.1391  0.5282
   32MOL0     C 4201   3.333   5.776   7.531 -0.0572 -0.2408 -0.8722
   32MOL0     N 4202   3.288   5.821   7.398 -0.0998 -0.3125 -0.4995
   32MOL0     C 4203   3.196   5.925   7.364 -0.4533 -0.1761 -0.3640
   32MOL0     C 4204   3.188   5.917   7.232  0.6553  0.6710 -0.4020
   32MOL0     C 4205   3.110   6.013   7.148 -0.1105 -0.2720  0.2732
   32MOL0     C 4206   3.169   6.154   7.158  0.2417  0.0696 -0.0907
   32MOL0     C 4207   3.102   6.247   7.060  0.1237 -0.5974 -0.6924
   32MOL0     C 4208   2.946   6.265   7.081 -0.8355 -0.2380  1.4312
   32MOL0     O 4209   2.904   6.345   7.196  0.0976 -0.5657 -0.5227
   32MOL0     C 4210   2.769   6.331   7.232  0.3257 -0.5380 -1.4169
   32MOL0     C 4211   2.721   6.436   7.309 -0.0937 -0.1934 -0.4094
   32MOL0     C 4212   2.581   6.462   7.351 -0.3809  0.6459 -1.3245
   32MOL0     C 4213   2.559   6.577   7.440  0.2453 -0.0821  0.1504
   32MOL0     C 4214   2.489   6.368   7.307 -0.4832 -0.0970 -0.9858
   32MOL0     C 4215   2.342   6.383   7.338  0.3815  0.9614 -0.6965
   32MOL0     O 4216   2.256   6.292   7.271 -0.6308  1.5634 -0.1073
   32MOL0     C 4217   2.128   6.270   7.302  0.1209  0.0944  1.5577
   32MOL0     C 4218   2.066   6.187   7.206 -1.0228 -0.1718  0.0140
   32MOL0     C 4219   1.942   6.137   7.233  0.4097 -0.3674  0.1612
   32MOL0     C 4220   1.861   6.178   7.342 -0.1403  1.0271 -0.2074
   32MOL0     O 4221   1.734   6.133   7.350  0.5213 -0.7739 -0.4395
   32MOL0     C 4222   1.634   6.230   7.380  0.0374 -0.4770  0.1012
   32MOL0     C 4223   1.597   6.316   7.257  0.0586  0.6666  0.6091
   32MOL0     C 4224   1.473   6.405   7.264  0.4692 -0.2724  0.5444
   32MOL0     C 4225   1.354   6.322   7.215 -0.2675  0.0808 -0.1317
   32MOL0     C 4226   1.232   6.414   7.197 -0.4483  0.6931  0.5544
   32MOL0     C 4227   1.238   6.511   7.078  0.8307 -0.3457 -0.6056
   32MOL0     C 4228   1.143   6.471   6.961  0.0982  0.3819 -0.1032
   32MOL0     C 4229   1.189   6.338   6.897  0.1109 -0.2841  0.4528
   32MOL0    Cl 4230   1.349   6.351   6.832 -0.2332  0.2202 -0.2779
   32MOL0     C 4231   1.927   6.261   7.434 -0.2713 -0.2861  0.3244
   32MOL0     C 4232   2.060   6.312   7.408 -0.0199 -0.1377  0.5573
   32MOL0     O 4233   2.296   6.473   7.411 -0.0968 -0.0817  0.3458
   32MOL0     C 4234   2.535   6.258   7.230  0.6748  0.1501  0.5624
   32MOL0     C 4235   2.671   6.241   7.184  0.3550  0.4813  0.4281
   32MOL0     N 4236   3.257   5.809   7.187 -0.3083  0.3697 -0.4724
   32MOL0     N 4237   3.326   5.750   7.285 -0.5100  0.8912  0.7180
   32MOL0     C 4238   2.854   5.249   8.449  0.9516 -0.4098  0.8095
   32MOL0     C 4239   2.777   5.178   8.540  0.0274 -0.4531  0.0942
   32MOL0     C 4240   2.513   4.986   8.809 -0.5735 -0.3088 -0.1466
   32MOL0     C 4241   2.470   4.870   8.735 -0.7636 -0.0012  0.7896
   32MOL0     C 4242   2.443   4.760   8.801  0.7743  0.2152 -0.8639
   32MOL0     C 4243   2.436   4.756   8.942  0.2447  0.4734  0.1404
   32MOL0     O 4244   2.409   4.648   9.015  0.1555 -0.1587 -1.1179
   32MOL0     C 4245   2.452   4.523   8.971  0.8666  0.3010 -0.3394
   32MOL0     C 4246   2.524   4.468   9.097 -0.0631 -0.2069 -1.6241
   32MOL0     C 4247   2.427   4.427   9.215  1.3108 -0.2259 -0.1576
   32MOL0     C 4248   2.482   4.323   9.313  0.5004 -0.2015  0.2025
   32MOL0     C 4249   2.595   4.373   9.390  0.1315  0.0367  0.2765
   32MOL0     C 4250   2.685   4.426   9.453  0.4998  0.3532 -0.2323
   32MOL0     C 4251   2.462   4.874   9.013  0.2575  0.1719 -0.4633
   32MOL0     C 4252   2.503   4.988   8.955 -0.1824 -0.4380 -0.8513
   32MOL0     H 4253   2.484   5.184   8.363  1.0484 -2.6911  2.0079
   32MOL0     H 4254   2.619   5.290   8.208  1.1074  0.9496 -0.3397
   32MOL0     H 4255   2.766   5.365   8.075 -1.0109  3.8851  0.2680
   32MOL0     H 4256   2.882   5.490   8.079  1.1408  0.2996 -1.9723
   32MOL0     H 4257   3.053   5.273   8.078 -1.5905 -3.7117  0.8794
   32MOL0     H 4258   2.909   5.204   8.008 -0.5395  0.7284 -2.0171
   32MOL0     H 4259   3.018   5.273   7.811  0.8731 -0.8246  0.0473
   32MOL0     H 4260   2.908   5.407   7.831  2.1383 -0.5636 -5.8724
   32MOL0     H 4261   3.074   5.528   7.957 -5.4970 -1.6547 -0.5380
   32MOL0     H 4262   3.195   5.405   7.893  0.1158 -0.4684  0.5216
   32MOL0     H 4263   3.075   5.462   7.666  1.5637 -1.5276  1.2159
   32MOL0     H 4264   3.032   5.611   7.762 -0.4407 -0.7300  0.8728
   32MOL0     H 4265   3.277   5.668   7.808  0.3933  2.1709 -1.0855
   32MOL0     H 4266   3.332   5.539   7.710  0.3187  1.4354 -2.2493
   32MOL0     H 4267   3.187   5.626   7.526  2.4164  1.1493 -0.5747
   32MOL0     H 4268   3.138   5.771   7.636 -2.3206 -0.5720 -0.2969
   32MOL0     H 4269   3.417   5.710   7.509  1.2967  1.6767 -1.7136
   32MOL0     H 4270   3.369   5.854   7.599  0.2427 -0.5971 -0.6165
   32MOL0     H 4271   3.138   5.984   7.434  0.9951  0.5106  0.3043
   32MOL0     H 4272   3.119   5.965   7.050  3.4335 -0.9729  0.7976
   32MOL0     H 4273   3.005   6.018   7.177 -0.5855  1.2552 -1.4973
   32MOL0     H 4274   3.272   6.155   7.123  0.7601  1.7875  1.3466
   32MOL0     H 4275   3.168   6.192   7.261  0.3773  0.3214 -0.1828
   32MOL0     H 4276   3.137   6.227   6.958  0.6475 -0.7731 -0.4822
   32MOL0     H 4277   3.141   6.341   7.100 -3.4777  0.2763  1.2231
   32MOL0     H 4278   2.894   6.169   7.070  0.8481 -1.0447  0.0616
   32MOL0     H 4279   2.904   6.318   6.995  2.0799  0.4085  0.3109
   32MOL0     H 4280   2.813   6.484   7.341  0.6131 -1.8324  0.1276
   32MOL0     H 4281   2.489   6.656   7.409 -0.6497 -0.2302  1.6576
   32MOL0     H 4282   2.509   6.541   7.530 -0.5576  1.4019  0.3322
   32MOL0     H 4283   2.653   6.623   7.471  0.1811  0.9754 -1.1485
   32MOL0     H 4284   2.118   6.165   7.113 -0.7497  0.9062 -0.1078
   32MOL0     H 4285   1.886   6.076   7.163 -0.0302  0.2436 -0.0253
   32MOL0     H 4286   1.542   6.179   7.410 -1.0622  1.3137 -0.0803
   32MOL0     H 4287   1.674   6.299   7.455 -0.2667 -0.0551 -0.1214
   32MOL0     H 4288   1.675   6.391   7.245 -0.8817  1.6988  0.7872
   32MOL0     H 4289   1.591   6.245   7.174 -0.6978  0.1317  1.1071
   32MOL0     H 4290   1.488   6.485   7.190  1.0029 -0.7766  0.0906
   32MOL0     H 4291   1.460   6.447   7.364 -0.7936  0.2617  0.1664
   32MOL0     H 4292   1.379   6.260   7.128  1.4009 -1.3307  1.2538
   32MOL0     H 4293   1.332   6.247   7.292  0.2535 -0.3709 -0.4116
   32MOL0     H 4294   1.210   6.463   7.292 -1.5897 -1.0108  1.2272
   32MOL0     H 4295   1.145   6.351   7.175  0.7280 -0.8030 -0.0193
   32MOL0     H 4296   1.193   6.603   7.116  0.9684 -0.8091  0.7425
   32MOL0     H 4297   1.342   6.522   7.046  1.3487  5.4682  1.7692
   32MOL0     H 4298   1.142   6.551   6.887 -0.8655 -1.5336 -2.2663
   32MOL0     H 4299   1.048   6.443   7.007 -0.5337  0.0419 -1.5869
   32MOL0     H 4300   1.125   6.299   6.818  1.4933 -4.2191  1.0927
   32MOL0     H 4301   1.191   6.260   6.973 -1.2455  0.9283  1.8122
   32MOL0     H 4302   1.874   6.293   7.523 -4.2865 -0.7346 -1.6871
   32MOL0     H 4303   2.110   6.362   7.490  1.6124 -0.1960 -0.3453
   32MOL0     H 4304   2.467   6.180   7.195  2.2845 -0.9341 -0.2699
   32MOL0     H 4305   2.689   6.157   7.118 -2.3332  1.1646 -1.3421
   32MOL0     H 4306   2.957   5.275   8.469  0.5701  3.1779 -1.0140
   32MOL0     H 4307   2.822   5.159   8.637 -1.8102 -3.2861  0.5037
   32MOL0     H 4308   2.470   4.878   8.626 -2.8096  3.7496  0.9203
   32MOL0     H 4309   2.416   4.678   8.735 -2.2457  2.6970 -3.0381
   32MOL0     H 4310   2.359   4.471   8.948 -0.8828  2.3580  1.6203
   32MOL0     H 4311   2.525   4.509   8.890  1.6544  0.2283  0.3645
   32MOL0     H 4312   2.593   4.541   9.140 -3.8065  1.6433  1.9095
   32MOL0     H 4313   2.583   4.378   9.077 -1.0810 -0.8381 -1.8550
   32MOL0     H 4314   2.334   4.391   9.170  2.5185 -0.8627 -2.2828
   32MOL0     H 4315   2.392   4.513   9.273  0.0516 -0.6295 -0.3029
   32MOL0     H 4316   2.529   4.240   9.259  1.5514 -2.7344  4.5183
   32MOL0     H 4317   2.410   4.284   9.385  0.0797  0.9205  0.4046
   32MOL0     H 4318   2.761   4.482   9.504 -1.2394  2.0909  0.6155
   32MOL0     H 4319   2.463   4.865   9.121 -2.6156 -1.4074 -0.4610
   32MOL0     H 4320   2.533   5.061   9.029 -0.1204 -2.5281  1.2777
   33MOL0     O 4321   3.952   2.089  11.421 -0.5609 -0.3694  0.3165
   33MOL0     C 4322   3.952   2.128  11.306 -0.0933  0.6166  0.9411
   33MOL0     O 4323   4.064   2.148  11.229 -0.7339  0.2724 -0.2190
   33MOL0     C 4324   4.185   2.181  11.293 -0.4846  0.6795 -0.0148
   33MOL0     C 4325   4.300   2.149  11.228 -0.0647  0.0988  0.8852
   33MOL0     C 4326   4.427   2.176  11.290  0.3376  0.1575  0.0687
   33MOL0     C 4327   4.439   2.244  11.416  0.6178 -0.4554  0.3390
   33MOL0     O 4328   4.558   2.259  11.478  0.0416  1.4208  0.2297
   33MOL0     C 4329   4.661   2.304  11.391  0.1233 -0.4162 -1.2311
   33MOL0     C 4330   4.780   2.318  11.477 -0.7546  0.0556 -0.4894
   33MOL0     C 4331   4.859   2.185  11.480  0.8943  0.0422  0.0564
   33MOL0     C 4332   4.975   2.195  11.577  0.3708  0.4237  0.6043
   33MOL0     C 4333   5.065   2.075  11.553 -0.1189  0.1032  0.3100
   33MOL0     C 4334   5.187   2.076  11.642  1.4570 -0.6788  1.3036
   33MOL0     C 4335   5.304   1.994  11.579 -0.1850 -0.6246  0.1528
   33MOL0     C 4336   5.435   1.995  11.664  0.1279  0.3367 -0.0054
   33MOL0     N 4337   5.524   1.896  11.606  0.6315 -0.0870 -0.0893
   33MOL0     C 4338   5.634   1.916  11.531 -0.5452  0.4196  0.4324
   33MOL0     C 4339   5.694   1.794  11.514 -0.4127 -0.2594  0.1955
   33MOL0     C 4340   5.825   1.766  11.436  0.7014  0.1093 -0.1616
   33MOL0     C 4341   5.773   1.751  11.296  0.0710  0.6922  0.1042
   33MOL0     C 4342   5.895   1.712  11.211 -0.1963 -0.3106 -0.5243
   33MOL0     C 4343   5.859   1.658  11.077 -0.3413  0.0927  0.2125
   33MOL0     O 4344   5.799   1.771  11.009  0.5470  0.1776  0.0882
   33MOL0     C 4345   5.675   1.768  10.952  1.5030 -0.0371 -0.4888
   33MOL0     C 4346   5.592   1.872  10.977  0.9987 -1.5384  0.5492
   33MOL0     C 4347   5.455   1.874  10.942  0.7467  0.7013 -0.7682
   33MOL0     C 4348   5.383   1.999  10.981 -0.4151  0.7226  1.1319
   33MOL0     C 4349   5.402   1.759  10.871 -0.1998  0.0213 -0.6436
   33MOL0     C 4350   5.258   1.731  10.847  0.9033  0.6285 -0.1070
   33MOL0     O 4351   5.225   1.618  10.789  0.1956  0.9956 -0.3231
   33MOL0     C 4352   5.100   1.560  10.795  1.2066 -0.7070  0.0058
   33MOL0     C 4353   5.020   1.563  10.688 -0.3479 -0.0185 -0.3011
   33MOL0     C 4354   4.891   1.503  10.698  0.6453 -0.2524  0.9765
   33MOL0     C 4355   4.850   1.431  10.809 -0.0177  0.4700  1.2960
   33MOL0     O 4356   4.727   1.367  10.783  0.4642 -0.3505  1.4380
   33MOL0     C 4357   4.706   1.241  10.862 -0.3823 -0.8461  1.6112
   33MOL0     C 4358   4.563   1.207  10.859 -0.0910 -0.1789  0.3916
   33MOL0     C 4359   4.475   1.315  10.933 -0.7758  0.0883  0.6360
   33MOL0     C 4360   4.320   1.280  10.913 -1.3467  0.6310 -1.2790
   33MOL0     C 4361   4.222   1.376  10.966  0.6020 -0.7909 -0.2292
   33MOL0     C 4362   4.085   1.320  10.939  0.1382 -0.7483  0.1098
   33MOL0     C 4363   3.984   1.405  11.010  0.1304  0.2996  1.1306
   33MOL0     C 4364   3.847   1.343  10.966 -0.0407 -0.5117  0.5172
   33MOL0    Cl 4365   3.706   1.443  11.032 -0.2893  0.2238  0.2757
   33MOL0     C 4366   4.932   1.432  10.914 -0.1795  0.0018  1.0907
   33MOL0     C 4367   5.053   1.496  10.911 -0.3008  0.0495  0.0111
   33MOL0     O 4368   5.166   1.805  10.886  0.2926  0.8423  0.0570
   33MOL0     C 4369   5.494   1.664  10.828 -0.3785 -0.7359 -0.6354
   33MOL0     C 4370   5.625   1.670  10.873  0.5209 -0.0073  0.1818
   33MOL0     N 4371   5.623   1.699  11.586 -0.5232 -0.6075  0.0501
   33MOL0     N 4372   5.518   1.758  11.624  0.4257 -0.1669  0.2964
   33MOL0     C 4373   4.321   2.279  11.475 -0.4631 -1.5607 -0.6215
   33MOL0     C 4374   4.199   2.240  11.421  0.0087  0.8104  0.9036
   33MOL0     C 4375   3.820   2.136  11.245  0.7787 -0.2661 -1.4850
   33MOL0     C 4376   3.703   2.109  11.321  0.3057  0.2656  0.2833
   33MOL0     C 4377   3.579   2.116  11.257 -0.9285  0.1361  0.1507
   33MOL0     C 4378   3.563   2.151  11.122 -0.3143 -0.5927 -0.2339
   33MOL0     O 4379   3.438   2.147  11.067 -0.8188  0.1141  0.6093
   33MOL0     C 4380   3.421   2.170  10.926 -0.3125  0.6121 -0.1597
   33MOL0     C 4381   3.268   2.215  10.896  0.2052 -0.6530  0.1448
   33MOL0     C 4382   3.229   2.214  10.746  0.5721  0.1052 -0.4354
   33MOL0     C 4383   3.074   2.214  10.720  0.6094  0.3788 -0.3503
   33MOL0     C 4384   3.004   2.338  10.761 -0.6087  0.6560  0.5356
   33MOL0     C 4385   2.961   2.445  10.803  0.3042 -1.3784  0.1611
   33MOL0     C 4386   3.682   2.178  11.053 -1.5369 -0.3062  0.1709
   33MOL0     C 4387   3.802   2.164  11.115 -0.8177 -0.7131  0.9936
   33MOL0     H 4388   4.295   2.076  11.147  3.2015  0.6191  0.0603
   33MOL0     H 4389   4.515   2.146  11.234  0.9667 -0.9397  1.5752
   33MOL0     H 4390   4.672   2.253  11.295  0.0328  1.1644 -2.1187
   33MOL0     H 4391   4.628   2.405  11.366 -0.9931 -0.5835 -0.5283
   33MOL0     H 4392   4.837   2.397  11.427 -1.3264  0.8850  0.1361
   33MOL0     H 4393   4.753   2.350  11.579  3.1249  1.1287  0.3658
   33MOL0     H 4394   4.785   2.114  11.519 -0.5863  1.3924 -0.2052
   33MOL0     H 4395   4.895   2.155  11.381 -0.3170 -0.0841 -0.3582
   33MOL0     H 4396   5.027   2.291  11.572  0.5372  0.7373  4.5893
   33MOL0     H 4397   4.943   2.211  11.681 -0.5310  1.1232  0.2360
   33MOL0     H 4398   5.002   1.988  11.574  1.6863 -1.2099  0.4762
   33MOL0     H 4399   5.098   2.091  11.450 -3.0586  3.5774 -0.3231
   33MOL0     H 4400   5.221   2.178  11.659 -2.3672  1.3559 -1.6814
   33MOL0     H 4401   5.162   2.043  11.743 -1.9387  1.9777  1.4853
   33MOL0     H 4402   5.263   1.892  11.577 -2.7470  0.2845  1.4934
   33MOL0     H 4403   5.319   2.018  11.473 -2.4472 -0.4030 -0.1700
   33MOL0     H 4404   5.410   1.967  11.767  1.1101 -2.6429 -0.4712
   33MOL0     H 4405   5.483   2.093  11.661  1.9605 -0.5208 -0.2756
   33MOL0     H 4406   5.660   2.018  11.503 -1.6438  0.2908 -1.1322
   33MOL0     H 4407   5.892   1.851  11.447  0.0129  0.4179  2.5056
   33MOL0     H 4408   5.878   1.677  11.471 -0.9804 -0.7091  0.4211
   33MOL0     H 4409   5.727   1.846  11.265 -1.8590 -0.1040  0.3539
   33MOL0     H 4410   5.698   1.671  11.301  2.4483 -1.5382  2.8817
   33MOL0     H 4411   5.959   1.640  11.262  0.1551  1.3038  1.4366
   33MOL0     H 4412   5.954   1.802  11.194  0.1666 -0.4027  0.2035
   33MOL0     H 4413   5.794   1.571  11.085 -4.4481  3.0088  2.0293
   33MOL0     H 4414   5.952   1.628  11.028  0.5188  1.8335  0.6552
   33MOL0     H 4415   5.637   1.939  11.050  1.5886 -0.3085 -0.8913
   33MOL0     H 4416   5.450   2.084  10.994  1.6776 -0.6419 -0.0079
   33MOL0     H 4417   5.317   2.023  10.897 -0.6769  1.0409  1.4250
   33MOL0     H 4418   5.332   1.980  11.075 -0.0327  1.4128  1.4857
   33MOL0     H 4419   5.057   1.609  10.596 -2.2236 -3.3533 -2.9589
   33MOL0     H 4420   4.834   1.520  10.607  0.0781  4.4910  1.9729
   33MOL0     H 4421   4.758   1.162  10.808 -0.8580  0.8032 -1.5093
   33MOL0     H 4422   4.741   1.239  10.965 -0.7918 -1.6507  1.7426
   33MOL0     H 4423   4.531   1.210  10.755  3.2566  1.1819 -0.7235
   33MOL0     H 4424   4.554   1.106  10.901  0.4216 -1.5544 -2.5973
   33MOL0     H 4425   4.488   1.419  10.899 -4.0208  0.1813 -0.6417
   33MOL0     H 4426   4.498   1.308  11.040 -1.5927 -0.1526  0.8019
   33MOL0     H 4427   4.300   1.266  10.806 -1.5416  2.1490 -1.4642
   33MOL0     H 4428   4.310   1.183  10.962  2.5536  0.1049 -1.2342
   33MOL0     H 4429   4.244   1.471  10.916 -1.7085 -0.9180 -1.6507
   33MOL0     H 4430   4.237   1.384  11.074 -0.4655  2.6041 -0.2121
   33MOL0     H 4431   4.064   1.318  10.832 -0.2638 -0.8760  0.1887
   33MOL0     H 4432   4.086   1.217  10.976  1.7322 -0.7765  0.0561
   33MOL0     H 4433   3.996   1.510  10.983  3.7634  0.1189  1.5918
   33MOL0     H 4434   4.007   1.397  11.117  2.1889 -0.6104  0.6614
   33MOL0     H 4435   3.831   1.244  11.011  2.2594  0.5149  4.0613
   33MOL0     H 4436   3.830   1.342  10.858 -3.7067  0.8002  0.9338
   33MOL0     H 4437   4.903   1.386  11.008  0.7139 -0.5649  1.1073
   33MOL0     H 4438   5.119   1.512  10.996  3.4518  0.7781 -2.7431
   33MOL0     H 4439   5.487   1.578  10.762  2.2728 -2.3932  1.0430
   33MOL0     H 4440   5.696   1.595  10.839  1.9449  0.6524  1.5561
   33MOL0     H 4441   4.339   2.318  11.574  3.9365 -4.0873 -0.1599
   33MOL0     H 4442   4.118   2.268  11.488 -0.6755  1.2142 -0.0710
   33MOL0     H 4443   3.697   2.106  11.429  4.0117  2.9466  0.7440
   33MOL0     H 4444   3.490   2.084  11.312  0.7026 -0.0292  2.8680
   33MOL0     H 4445   3.482   2.255  10.894 -1.7370  2.2565  1.2567
   33MOL0     H 4446   3.437   2.082  10.863  0.7948  1.7003 -1.4773
   33MOL0     H 4447   3.245   2.312  10.941 -2.3077  0.1693 -2.5704
   33MOL0     H 4448   3.197   2.142  10.936 -1.2621  0.6610  0.0717
   33MOL0     H 4449   3.275   2.130  10.693 -0.7787 -0.4793 -0.7232
   33MOL0     H 4450   3.269   2.309  10.709 -0.3305  1.6573  2.3362
   33MOL0     H 4451   3.035   2.122  10.764  0.5552  0.1830 -0.8010
   33MOL0     H 4452   3.057   2.205  10.612  3.8836  3.7549 -1.3844
   33MOL0     H 4453   2.915   2.518  10.866  1.6977 -0.7893  0.5256
   33MOL0     H 4454   3.688   2.205  10.947  0.2445 -1.3222 -0.0363
   33MOL0     H 4455   3.887   2.184  11.051  1.0389  3.4889  4.3051
   34MOL0     O 4456  11.413   1.922   1.884  0.4278 -0.1808 -0.4294
   34MOL0     C 4457  11.294   1.916   1.919  0.5755 -0.6950  0.5604
   34MOL0     O 4458  11.205   2.028   1.944 -0.4839 -0.1290  0.9431
   34MOL0     C 4459  11.235   2.162   1.907 -0.0657  0.0125 -0.4266
   34MOL0     C 4460  11.359   2.221   1.906  0.2420 -0.6462 -0.1976
   34MOL0     C 4461  11.376   2.357   1.891  0.3565 -1.6384  0.0914
   34MOL0     C 4462  11.265   2.448   1.865  0.2200 -0.5259 -0.2686
   34MOL0     O 4463  11.269   2.581   1.829  0.0166 -0.1459  0.5328
   34MOL0     C 4464  11.404   2.654   1.836 -0.0567 -0.6802 -0.6073
   34MOL0     C 4465  11.389   2.792   1.774 -0.0858  0.1894 -0.4485
   34MOL0     C 4466  11.379   2.804   1.621 -0.0203 -0.7276 -0.1299
   34MOL0     C 4467  11.486   2.734   1.543  0.4691 -0.8628 -0.0650
   34MOL0     C 4468  11.498   2.808   1.398 -0.9481 -0.8930 -0.0092
   34MOL0     C 4469  11.372   2.808   1.310 -0.2076 -0.1431 -0.5438
   34MOL0     C 4470  11.315   2.667   1.291  0.2780  0.1710  0.4717
   34MOL0     C 4471  11.238   2.648   1.156 -0.5613 -0.4762  0.2428
   34MOL0     N 4472  11.142   2.756   1.114  0.7120 -0.1308  0.0674
   34MOL0     C 4473  11.003   2.739   1.126 -0.3579 -0.1206 -0.9761
   34MOL0     C 4474  10.942   2.841   1.063 -0.4030 -0.3416 -0.3565
   34MOL0     C 4475  10.793   2.856   1.051 -0.6250  0.8250  0.2768
   34MOL0     C 4476  10.718   2.843   1.187 -0.9985  0.2587  0.4890
   34MOL0     C 4477  10.565   2.866   1.147 -0.3499  0.8868 -0.4377
   34MOL0     C 4478  10.506   2.740   1.083  0.3681  0.0685  0.4475
   34MOL0     O 4479  10.365   2.775   1.073  0.3326  1.1573  0.4634
   34MOL0     C 4480  10.272   2.674   1.070  1.2765  0.0162  0.2712
   34MOL0     C 4481  10.147   2.692   1.129  0.4224 -0.4896 -0.9364
   34MOL0     C 4482  10.057   2.582   1.153 -0.9489  0.6136  0.4901
   34MOL0     C 4483   9.928   2.607   1.228  0.6481 -0.4309 -0.5183
   34MOL0     C 4484  10.104   2.450   1.118  0.4374 -0.1271 -0.1594
   34MOL0     C 4485  10.026   2.321   1.130  0.2436 -0.1435  0.0754
   34MOL0     O 4486  10.072   2.199   1.077 -0.7588 -0.8273  0.2703
   34MOL0     C 4487  10.026   2.090   1.147 -0.7708 -0.3789  1.0828
   34MOL0     C 4488  10.105   2.049   1.254  0.5133 -0.0611  0.0457
   34MOL0     C 4489  10.064   1.945   1.340  0.1957 -0.9328 -0.2266
   34MOL0     C 4490   9.936   1.887   1.311  0.2446  0.2577 -0.7200
   34MOL0     O 4491   9.899   1.781   1.388  0.4532  0.3865  0.6326
   34MOL0     C 4492   9.802   1.813   1.485 -0.2609 -0.5262 -0.6295
   34MOL0     C 4493   9.764   1.681   1.569 -0.5941 -0.5123  0.1929
   34MOL0     C 4494   9.638   1.701   1.663  0.4684  0.0927  0.2481
   34MOL0     C 4495   9.594   1.844   1.695 -0.1726  0.1632  0.2392
   34MOL0     C 4496   9.455   1.844   1.767  0.6929  0.8624 -0.1202
   34MOL0     C 4497   9.426   1.754   1.891 -0.4755 -0.4507 -0.5357
   34MOL0     C 4498   9.533   1.767   1.990 -0.0650 -0.7560  0.4580
   34MOL0     C 4499   9.538   1.900   2.072  0.4608 -0.0606  0.3680
   34MOL0    Cl 4500   9.389   1.904   2.166 -0.2363 -0.2785 -0.0937
   34MOL0     C 4501   9.853   1.923   1.203 -0.5013  0.4392  0.1749
   34MOL0     C 4502   9.898   2.022   1.122 -0.0183 -0.1459 -0.1335
   34MOL0     O 4503   9.925   2.326   1.199  0.3357 -0.3190  1.1876
   34MOL0     C 4504  10.219   2.433   1.043  1.7156 -0.3271  0.4025
   34MOL0     C 4505  10.298   2.544   1.018  0.1286  0.6042 -0.0515
   34MOL0     N 4506  11.048   2.924   1.022 -0.2025  0.2089  0.1619
   34MOL0     N 4507  11.163   2.871   1.036  0.9668 -0.4434 -0.3842
   34MOL0     C 4508  11.143   2.381   1.877 -0.2312 -0.3542  0.2779
   34MOL0     C 4509  11.130   2.249   1.893 -0.1961  1.0811 -0.2988
   34MOL0     C 4510  11.237   1.781   1.939 -0.2691  0.3810  0.0939
   34MOL0     C 4511  11.322   1.669   1.941  0.7375 -0.5563  0.6908
   34MOL0     C 4512  11.260   1.544   1.937 -0.0458  0.7022 -0.6571
   34MOL0     C 4513  11.124   1.524   1.958  0.1589 -0.4825  1.0194
   34MOL0     O 4514  11.076   1.396   1.948  0.6532 -0.3675 -0.7631
   34MOL0     C 4515  10.944   1.362   1.993 -0.1823  0.4382 -1.2236
   34MOL0     C 4516  10.941   1.358   2.141 -0.1753 -0.0627 -1.0148
   34MOL0     C 4517  10.801   1.312   2.177  1.3306  0.1802 -0.2192
   34MOL0     C 4518  10.811   1.206   2.283  0.4563  0.1488 -0.6123
   34MOL0     C 4519  10.701   1.113   2.304  0.5771 -0.4274 -0.9761
   34MOL0     C 4520  10.608   1.036   2.335 -0.0179 -0.3329 -0.0851
   34MOL0     C 4521  11.043   1.635   1.974  0.2203  0.6427 -0.1974
   34MOL0     C 4522  11.102   1.754   1.943 -1.3434 -0.3020  0.3455
   34MOL0     H 4523  11.446   2.156   1.907  0.8752  0.1244 -1.9219
   34MOL0     H 4524  11.475   2.401   1.879 -0.2678  1.5562  4.3257
   34MOL0     H 4525  11.431   2.653   1.942 -2.8065 -0.7311  0.1614
   34MOL0     H 4526  11.483   2.598   1.784 -0.6292 -4.2198  1.9388
   34MOL0     H 4527  11.302   2.831   1.828 -1.6097  0.0989 -2.7126
   34MOL0     H 4528  11.471   2.856   1.809  2.2419 -1.4798 -2.5153
   34MOL0     H 4529  11.277   2.776   1.594 -0.3536  0.9660 -0.7238
   34MOL0     H 4530  11.379   2.911   1.598 -2.1732 -0.3857  1.1984
   34MOL0     H 4531  11.587   2.740   1.586  0.1132  1.6786  0.5144
   34MOL0     H 4532  11.461   2.627   1.537  2.3144 -1.6687  3.7911
   34MOL0     H 4533  11.532   2.910   1.418 -1.5829 -0.7619  0.4796
   34MOL0     H 4534  11.583   2.768   1.343  2.3553  3.1432  1.6527
   34MOL0     H 4535  11.306   2.881   1.359 -0.2396  0.7643 -1.8783
   34MOL0     H 4536  11.400   2.847   1.212  1.3758 -1.4162 -0.6429
   34MOL0     H 4537  11.407   2.607   1.291  0.4713  0.4489  1.5198
   34MOL0     H 4538  11.242   2.644   1.369 -1.6473 -0.0240 -1.3015
   34MOL0     H 4539  11.181   2.555   1.164  1.6982 -1.9279  0.1623
   34MOL0     H 4540  11.312   2.639   1.077 -0.5589  0.1444  0.1722
   34MOL0     H 4541  10.957   2.649   1.167 -3.0151  0.0397 -3.3352
   34MOL0     H 4542  10.781   2.958   1.012 -1.1992  1.6546  2.4676
   34MOL0     H 4543  10.771   2.777   0.979  2.2531  0.0025  0.1643
   34MOL0     H 4544  10.750   2.914   1.264 -0.3393 -0.2487  0.6943
   34MOL0     H 4545  10.741   2.750   1.240  0.4258  0.5180  0.3578
   34MOL0     H 4546  10.561   2.955   1.084  0.2808  0.8432 -0.5522
   34MOL0     H 4547  10.506   2.887   1.237 -3.0663  1.7466 -2.2916
   34MOL0     H 4548  10.523   2.646   1.137  1.4051 -0.5961 -0.9825
   34MOL0     H 4549  10.546   2.731   0.982 -3.4807  3.0862 -1.6429
   34MOL0     H 4550  10.126   2.792   1.165 -4.1527 -1.6351  0.1674
   34MOL0     H 4551   9.924   2.712   1.259  1.2297 -0.3880 -0.5719
   34MOL0     H 4552   9.843   2.585   1.164 -0.7050  4.4006 -0.7679
   34MOL0     H 4553   9.920   2.539   1.314  1.0474 -1.4544 -1.2662
   34MOL0     H 4554  10.194   2.109   1.270  1.1347 -1.1606  0.8740
   34MOL0     H 4555  10.123   1.916   1.426 -2.3115  2.4041  2.8863
   34MOL0     H 4556   9.836   1.882   1.563 -0.7591 -1.0539  0.0722
   34MOL0     H 4557   9.711   1.853   1.441  0.2168 -1.7280 -2.8811
   34MOL0     H 4558   9.717   1.618   1.492 -3.2239 -1.6508  2.5462
   34MOL0     H 4559   9.849   1.623   1.605 -0.3171  0.4346  1.0789
   34MOL0     H 4560   9.664   1.649   1.756  0.0088  0.6042  0.6709
   34MOL0     H 4561   9.553   1.650   1.617  2.6046 -1.6477 -2.0907
   34MOL0     H 4562   9.672   1.901   1.746  1.3883  0.9963 -2.8272
   34MOL0     H 4563   9.582   1.900   1.602 -1.6158  0.6936  0.7228
   34MOL0     H 4564   9.383   1.811   1.692 -0.1145 -0.8870  1.3644
   34MOL0     H 4565   9.430   1.947   1.793 -1.4347  0.0103  1.5189
   34MOL0     H 4566   9.327   1.774   1.935  0.2303 -2.0392  2.0393
   34MOL0     H 4567   9.423   1.648   1.864 -0.9672 -0.6161  0.1193
   34MOL0     H 4568   9.631   1.739   1.952  1.2478  2.1760  1.4116
   34MOL0     H 4569   9.506   1.688   2.061 -2.1098 -1.5212 -1.0743
   34MOL0     H 4570   9.555   1.986   2.006  4.7406 -0.2296  0.9751
   34MOL0     H 4571   9.629   1.904   2.133  1.2747 -0.0759 -0.8225
   34MOL0     H 4572   9.756   1.875   1.199 -1.4091  2.2207 -0.6379
   34MOL0     H 4573   9.832   2.051   1.040  2.6956 -1.1318 -2.8747
   34MOL0     H 4574  10.249   2.340   0.995 -3.5703 -2.5118  0.5876
   34MOL0     H 4575  10.386   2.534   0.956  0.7599  0.8125  0.7822
   34MOL0     H 4576  11.048   2.432   1.874 -0.8994 -1.2721  3.0192
   34MOL0     H 4577  11.033   2.199   1.900 -0.8918  2.2838 -1.0442
   34MOL0     H 4578  11.430   1.679   1.938  0.6448  1.1341  1.8293
   34MOL0     H 4579  11.311   1.449   1.935  1.1267  1.1755  2.1087
   34MOL0     H 4580  10.870   1.437   1.964 -2.1844 -0.1452  1.9061
   34MOL0     H 4581  10.921   1.263   1.954 -0.8186  0.2306 -0.3441
   34MOL0     H 4582  10.952   1.459   2.182 -1.6711 -0.6165  0.8956
   34MOL0     H 4583  11.024   1.303   2.187 -0.5953 -1.5614 -1.9901
   34MOL0     H 4584  10.756   1.254   2.096  2.2692 -2.4561  1.0309
   34MOL0     H 4585  10.729   1.393   2.193  1.0957 -0.3061  1.2927
   34MOL0     H 4586  10.832   1.248   2.382 -1.3466 -1.9615  0.7704
   34MOL0     H 4587  10.898   1.145   2.257  1.6367  0.4606  2.2256
   34MOL0     H 4588  10.513   0.990   2.351 -0.6173  1.0887  0.6331
   34MOL0     H 4589  10.937   1.636   1.998  0.3470 -2.3167  0.9336
   34MOL0     H 4590  11.049   1.848   1.930 -0.2979  0.0117 -2.1218
   35MOL0     O 4591   7.399  10.557   5.935  0.1294 -0.0236  0.8052
   35MOL0     C 4592   7.434  10.661   5.987 -0.5043  0.5613  0.2451
   35MOL0     O 4593   7.558  10.704   6.007 -1.6774 -0.8126 -0.1044
   35MOL0     C 4594   7.669  10.643   5.956 -0.6182 -1.1222  0.0263
   35MOL0     C 4595   7.677  10.505   5.943  0.2009 -0.3395 -0.0857
   35MOL0     C 4596   7.795  10.451   5.889 -0.7833 -0.2881  0.2222
   35MOL0     C 4597   7.903  10.538   5.845 -1.3459  0.1790 -0.3594
   35MOL0     O 4598   8.022  10.486   5.804  0.0372  0.8970  0.7672
   35MOL0     C 4599   8.044  10.361   5.749 -0.9436  0.0339 -0.4718
   35MOL0     C 4600   8.190  10.318   5.780  0.6353  0.4666 -0.1246
   35MOL0     C 4601   8.229  10.187   5.707  0.5250 -0.3266  0.2102
   35MOL0     C 4602   8.368  10.132   5.739  0.0186 -0.6811 -0.5183
   35MOL0     C 4603   8.403  10.032   5.632  0.1556 -0.8129  0.2175
   35MOL0     C 4604   8.542   9.978   5.637  0.8726  0.4714 -0.8193
   35MOL0     C 4605   8.571   9.874   5.534 -0.3741 -0.8722  0.6218
   35MOL0     C 4606   8.629   9.741   5.584 -0.0402 -1.1983  0.8939
   35MOL0     N 4607   8.535   9.646   5.633  0.4047 -0.6834  0.3194
   35MOL0     C 4608   8.409   9.615   5.585  0.0565  0.3346 -0.1562
   35MOL0     C 4609   8.354   9.532   5.670  0.7017  0.2824 -0.7011
   35MOL0     C 4610   8.214   9.481   5.664  0.6103 -0.1769  0.2425
   35MOL0     C 4611   8.194   9.323   5.653 -0.4367 -0.4924 -0.3802
   35MOL0     C 4612   8.271   9.247   5.762  0.1572 -0.0737  0.6404
   35MOL0     C 4613   8.256   9.093   5.740  0.8641 -0.6599  1.2176
   35MOL0     O 4614   8.329   9.030   5.633  1.0230  0.1555  0.4156
   35MOL0     C 4615   8.336   8.894   5.628 -0.6753 -0.8353 -0.2471
   35MOL0     C 4616   8.416   8.849   5.522  0.0280 -0.6964  0.0942
   35MOL0     C 4617   8.426   8.718   5.483 -0.1698  0.2887 -0.8652
   35MOL0     C 4618   8.521   8.682   5.368 -0.2012 -0.1350 -0.3466
   35MOL0     C 4619   8.365   8.616   5.572  0.6701  0.1450 -0.0183
   35MOL0     C 4620   8.364   8.474   5.545 -0.2650  1.6114 -0.2760
   35MOL0     O 4621   8.434   8.416   5.441  0.0372  0.3497  0.0087
   35MOL0     C 4622   8.426   8.282   5.413  0.7527  0.7627  0.3375
   35MOL0     C 4623   8.331   8.182   5.454 -0.1889  0.1719  0.6810
   35MOL0     C 4624   8.345   8.049   5.413  0.2096 -0.6099  1.2754
   35MOL0     C 4625   8.441   8.010   5.319 -0.1798 -0.0813  0.1496
   35MOL0     O 4626   8.463   7.887   5.271  0.5304 -0.6552 -0.4674
   35MOL0     C 4627   8.420   7.778   5.358 -0.1464 -0.1599 -0.4544
   35MOL0     C 4628   8.498   7.662   5.305 -0.3181  0.5145  0.2309
   35MOL0     C 4629   8.636   7.663   5.367 -0.9510  0.3289 -0.2760
   35MOL0     C 4630   8.731   7.590   5.262 -0.7364  0.3365 -0.5872
   35MOL0     C 4631   8.730   7.437   5.260 -0.7595 -0.1612  0.6458
   35MOL0     C 4632   8.691   7.357   5.388  0.4756 -0.2028  0.1946
   35MOL0     C 4633   8.678   7.207   5.375 -0.1928  0.1603 -0.7567
   35MOL0     C 4634   8.795   7.123   5.334  0.6048 -0.3677 -1.6400
   35MOL0    Cl 4635   8.938   7.159   5.446  0.3898 -0.2064  0.1342
   35MOL0     C 4636   8.539   8.114   5.282 -0.2767 -0.0889 -0.7661
   35MOL0     C 4637   8.530   8.243   5.326 -0.3327 -0.1467  0.0247
   35MOL0     O 4638   8.297   8.405   5.623 -0.6594 -0.4112 -0.2034
   35MOL0     C 4639   8.292   8.663   5.688  0.0506 -0.3086  0.4055
   35MOL0     C 4640   8.288   8.802   5.723 -0.3682 -0.5228  0.9113
   35MOL0     N 4641   8.439   9.535   5.780  0.3232 -0.4412  0.0886
   35MOL0     N 4642   8.541   9.601   5.758 -0.5626 -0.4352 -0.1653
   35MOL0     C 4643   7.897  10.673   5.861 -0.4969 -0.6692 -0.8653
   35MOL0     C 4644   7.778  10.728   5.912 -0.0927 -0.0360  0.4367
   35MOL0     C 4645   7.321  10.750   6.029  0.2960 -0.0233  0.1648
   35MOL0     C 4646   7.335  10.851   6.121  0.6428  0.3253  0.4550
   35MOL0     C 4647   7.217  10.925   6.161  0.6633 -0.6070  0.7704
   35MOL0     C 4648   7.089  10.902   6.111 -0.6365 -0.3781  0.5933
   35MOL0     O 4649   6.971  10.963   6.149  0.3843  0.1027  0.2216
   35MOL0     C 4650   6.971  11.070   6.246 -0.6520  0.9519  0.1879
   35MOL0     C 4651   7.007  11.016   6.381  1.7389 -0.0213 -0.1398
   35MOL0     C 4652   6.892  10.961   6.453 -0.4927 -0.1888  0.4413
   35MOL0     C 4653   6.948  10.912   6.591  1.2342 -0.3294  0.5570
   35MOL0     C 4654   6.828  10.913   6.688  0.0460  0.0802 -0.6298
   35MOL0     C 4655   6.745  10.929   6.779  0.5231  0.0580  0.1482
   35MOL0     C 4656   7.080  10.809   6.011  0.6782 -0.4341  0.5213
   35MOL0     C 4657   7.197  10.738   5.967 -0.1035  0.5220  1.3869
   35MOL0     H 4658   7.593  10.446   5.979 -0.8297  1.4634  0.6301
   35MOL0     H 4659   7.793  10.343   5.893 -0.3530 -0.3090 -0.1064
   35MOL0     H 4660   7.988  10.275   5.788  1.3104 -2.0446 -1.5633
   35MOL0     H 4661   8.036  10.380   5.642  3.2989 -3.1451 -1.6396
   35MOL0     H 4662   8.257  10.400   5.752  1.2468 -1.1467 -4.0984
   35MOL0     H 4663   8.203  10.301   5.887 -0.1997 -0.7766 -0.1987
   35MOL0     H 4664   8.155  10.111   5.736  0.1648  0.2464  0.8284
   35MOL0     H 4665   8.218  10.207   5.600  2.4517 -1.3471 -0.2276
   35MOL0     H 4666   8.440  10.214   5.746 -0.9064  0.0017  3.5751
   35MOL0     H 4667   8.375  10.086   5.838  1.6537 -0.6296 -0.5896
   35MOL0     H 4668   8.339   9.943   5.643 -2.7907  1.1465  0.2124
   35MOL0     H 4669   8.386  10.073   5.532 -0.8175  1.4722  1.2466
   35MOL0     H 4670   8.600  10.069   5.619 -1.3966  2.0088 -0.7972
   35MOL0     H 4671   8.565   9.942   5.738 -0.5251  3.7869  0.8408
   35MOL0     H 4672   8.483   9.862   5.470  1.6984 -1.1274 -2.4239
   35MOL0     H 4673   8.651   9.916   5.473 -0.2233  2.3227  2.8336
   35MOL0     H 4674   8.708   9.762   5.657  0.6393 -4.4437  1.2269
   35MOL0     H 4675   8.681   9.696   5.499  1.5617 -1.6462  2.0486
   35MOL0     H 4676   8.363   9.639   5.489  1.5388 -0.2059 -1.0493
   35MOL0     H 4677   8.160   9.520   5.751 -1.4657  3.3691 -2.3461
   35MOL0     H 4678   8.176   9.538   5.579  0.2019  1.7211  1.6436
   35MOL0     H 4679   8.230   9.301   5.552 -0.6928  1.5605 -0.9754
   35MOL0     H 4680   8.087   9.298   5.658  0.1857 -3.2082  2.1594
   35MOL0     H 4681   8.216   9.263   5.856 -1.0887 -1.0791  0.1132
   35MOL0     H 4682   8.376   9.276   5.768  0.1651  0.0797 -0.2044
   35MOL0     H 4683   8.149   9.076   5.726  0.8854  0.4533 -0.5848
   35MOL0     H 4684   8.277   9.037   5.832 -2.9841 -2.1944  1.3870
   35MOL0     H 4685   8.458   8.918   5.449  1.3377 -1.9529 -0.3743
   35MOL0     H 4686   8.578   8.590   5.385 -2.1279 -1.5851 -1.3811
   35MOL0     H 4687   8.448   8.666   5.288 -2.6340 -0.4712  1.7954
   35MOL0     H 4688   8.586   8.762   5.332  0.5810 -0.0851  1.1016
   35MOL0     H 4689   8.252   8.209   5.523 -0.7423  1.8751 -0.5568
   35MOL0     H 4690   8.276   7.971   5.443  0.4216 -2.9026 -3.3017
   35MOL0     H 4691   8.454   7.795   5.461  3.7913 -2.0258 -1.2519
   35MOL0     H 4692   8.313   7.764   5.340 -0.4849  2.1756 -0.6083
   35MOL0     H 4693   8.440   7.573   5.331  1.0413 -0.9787 -1.5471
   35MOL0     H 4694   8.495   7.680   5.197 -2.9249  0.6708  0.2777
   35MOL0     H 4695   8.644   7.616   5.466  0.6759  0.0602 -0.5065
   35MOL0     H 4696   8.669   7.765   5.388  2.5308 -1.1500  2.4000
   35MOL0     H 4697   8.711   7.622   5.159 -1.1363 -1.6281 -1.1724
   35MOL0     H 4698   8.836   7.617   5.275 -0.0545 -2.1582 -0.4242
   35MOL0     H 4699   8.824   7.388   5.233 -1.4694 -2.5371  2.1905
   35MOL0     H 4700   8.657   7.406   5.184 -2.3299 -1.1073  2.4451
   35MOL0     H 4701   8.771   7.378   5.460 -0.6740  1.3075  1.0968
   35MOL0     H 4702   8.600   7.401   5.431  0.8923  3.0378 -1.9102
   35MOL0     H 4703   8.610   7.197   5.289 -1.2074 -0.8017  0.1234
   35MOL0     H 4704   8.618   7.179   5.462 -0.1184  1.5121 -0.2470
   35MOL0     H 4705   8.834   7.146   5.235 -0.8621 -1.1607 -2.4390
   35MOL0     H 4706   8.760   7.019   5.331 -1.3707 -0.0542  2.4638
   35MOL0     H 4707   8.625   8.107   5.215  3.4496  2.1844  3.2629
   35MOL0     H 4708   8.593   8.328   5.299 -0.6291  0.9476  2.5157
   35MOL0     H 4709   8.244   8.593   5.756  0.9629 -1.1202  0.2428
   35MOL0     H 4710   8.235   8.822   5.816  0.5690 -2.1680  1.8408
   35MOL0     H 4711   7.988  10.728   5.839  0.2252 -0.7822  1.5681
   35MOL0     H 4712   7.772  10.834   5.935  1.2946  1.3038 -4.3105
   35MOL0     H 4713   7.432  10.866   6.168  0.1933  3.6300  0.5654
   35MOL0     H 4714   7.239  11.011   6.223  1.0364  2.2881 -2.9808
   35MOL0     H 4715   7.054  11.134   6.214 -0.4485  0.6502  0.0990
   35MOL0     H 4716   6.877  11.126   6.250  0.3393  2.7229 -0.1838
   35MOL0     H 4717   7.056  11.096   6.436  0.0680  1.1505 -0.2799
   35MOL0     H 4718   7.075  10.931   6.365  0.4843 -1.0156 -0.3359
   35MOL0     H 4719   6.849  10.878   6.396 -2.7566  0.8477  0.5442
   35MOL0     H 4720   6.812  11.036   6.460  2.0908  3.0712 -1.5568
   35MOL0     H 4721   7.037  10.966   6.625  3.7014 -3.9154  0.3388
   35MOL0     H 4722   6.987  10.813   6.568  1.5045  0.1431 -1.1965
   35MOL0     H 4723   6.673  10.957   6.853 -0.1614  2.8327 -1.4153
   35MOL0     H 4724   6.986  10.787   5.961  0.4462 -1.5426  1.4202
   35MOL0     H 4725   7.187  10.672   5.881 -0.7200  1.4590  0.7051
   36MOL0     O 4726  10.380   6.405  11.451 -0.1144  0.1724  0.0645
   36MOL0     C 4727  10.322   6.515  11.444 -0.7826 -0.1478  0.0388
   36MOL0     O 4728  10.239   6.544  11.333 -0.1751 -0.2065  0.1888
   36MOL0     C 4729  10.252   6.459  11.226 -0.0754  0.4672  0.0060
   36MOL0     C 4730  10.349   6.481  11.127  0.9045  1.1728 -0.5123
   36MOL0     C 4731  10.357   6.395  11.013  0.0024  0.8326  0.2933
   36MOL0     C 4732  10.258   6.297  10.985 -0.3207  0.6445  0.0460
   36MOL0     O 4733  10.293   6.207  10.881 -0.3916 -0.2586  0.3116
   36MOL0     C 4734  10.189   6.194  10.783  0.0886  0.9295  0.1681
   36MOL0     C 4735  10.206   6.044  10.746 -0.6534  0.1536 -0.2340
   36MOL0     C 4736  10.346   6.007  10.702 -0.3798  0.2891  0.1061
   36MOL0     C 4737  10.369   5.862  10.665  0.5988  0.5076 -0.9060
   36MOL0     C 4738  10.353   5.759  10.778  0.3422 -0.1361  0.3958
   36MOL0     C 4739  10.441   5.783  10.897 -0.5826 -0.6686 -0.0444
   36MOL0     C 4740  10.598   5.803  10.871 -0.1313  0.7817  0.0959
   36MOL0     C 4741  10.678   5.801  10.994  0.3030  0.4831 -0.2448
   36MOL0     N 4742  10.822   5.821  10.973  0.5648  0.3183  0.0740
   36MOL0     C 4743  10.898   5.933  10.937  0.7320  0.0714  0.1803
   36MOL0     C 4744  11.022   5.899  10.964  0.4210 -0.0790  1.0195
   36MOL0     C 4745  11.143   5.983  10.937 -0.6872  0.2009  1.0190
   36MOL0     C 4746  11.154   6.127  10.999  0.2311 -0.0299 -0.3809
   36MOL0     C 4747  11.127   6.143  11.141 -0.4257 -0.3916 -0.0313
   36MOL0     C 4748  11.207   6.261  11.188  1.1890 -0.1133  0.1467
   36MOL0     O 4749  11.351   6.231  11.208  0.0405 -1.1479  0.3804
   36MOL0     C 4750  11.448   6.328  11.210 -0.3311 -1.0499 -0.4100
   36MOL0     C 4751  11.584   6.300  11.202 -0.6799 -0.2368 -0.0055
   36MOL0     C 4752  11.686   6.393  11.193 -0.3316  0.3348 -0.4444
   36MOL0     C 4753  11.827   6.341  11.187  1.1696  0.6626  0.6627
   36MOL0     C 4754  11.661   6.524  11.193 -0.3722  0.2208 -0.3057
   36MOL0     C 4755  11.764   6.640  11.199  0.1989  1.2267  0.5649
   36MOL0     O 4756  11.715   6.750  11.264  0.1118  0.0407  0.5168
   36MOL0     C 4757  11.796   6.848  11.307 -0.8644 -0.2893 -0.2375
   36MOL0     C 4758  11.800   6.866  11.441 -0.0144  0.6519 -0.1199
   36MOL0     C 4759  11.865   6.979  11.496 -1.1196 -0.1334 -0.0054
   36MOL0     C 4760  11.934   7.063  11.408  0.3946  0.2121 -0.3182
   36MOL0     O 4761  12.003   7.170  11.475  0.9055 -0.1047  0.0720
   36MOL0     C 4762  12.120   7.222  11.413  0.7189 -1.1509 -0.0483
   36MOL0     C 4763  12.166   7.346  11.484 -0.7570  0.1090 -0.4998
   36MOL0     C 4764  12.067   7.463  11.454  0.5157 -0.9667 -0.0645
   36MOL0     C 4765  12.146   7.577  11.382  0.6697  1.4386 -0.2719
   36MOL0     C 4766  12.141   7.563  11.224 -0.0991 -0.5086  0.1580
   36MOL0     C 4767  12.232   7.673  11.169 -0.1297 -0.2199  0.9377
   36MOL0     C 4768  12.220   7.661  11.017 -0.3780 -0.3069  0.2338
   36MOL0     C 4769  12.318   7.741  10.943 -0.8243  0.5917 -1.0590
   36MOL0    Cl 4770  12.482   7.678  10.945 -0.0897  0.2821  0.3766
   36MOL0     C 4771  11.925   7.045  11.268 -0.3129 -0.4245  0.3785
   36MOL0     C 4772  11.843   6.940  11.215  0.2591  0.1823 -0.3795
   36MOL0     O 4773  11.880   6.631  11.147 -0.3678  0.0862 -0.4894
   36MOL0     C 4774  11.523   6.556  11.191  0.0603  0.6259  0.3681
   36MOL0     C 4775  11.420   6.461  11.188  0.2439  0.9286  0.4785
   36MOL0     N 4776  11.036   5.769  11.002  0.4272  0.2734 -0.8427
   36MOL0     N 4777  10.911   5.723  11.011 -0.1083  0.2430 -0.0609
   36MOL0     C 4778  10.160   6.281  11.084  0.2454  2.2662  2.0810
   36MOL0     C 4779  10.159   6.355  11.198  0.5107 -0.4802 -0.3364
   36MOL0     C 4780  10.330   6.611  11.549  0.5824  0.6745  1.4873
   36MOL0     C 4781  10.303   6.749  11.527 -0.9965 -0.2562 -0.2097
   36MOL0     C 4782  10.338   6.845  11.621 -0.2558 -0.0357 -0.9644
   36MOL0     C 4783  10.403   6.808  11.739 -0.1774  0.0302 -0.6415
   36MOL0     O 4784  10.449   6.916  11.810 -0.4449 -0.1331  0.5219
   36MOL0     C 4785  10.534   6.891  11.922 -0.0698 -0.4075 -0.5946
   36MOL0     C 4786  10.565   7.032  11.985  1.2448 -0.1250  0.5218
   36MOL0     C 4787  10.437   7.088  12.052 -0.3279 -0.5125 -0.0186
   36MOL0     C 4788  10.463   7.225  12.120 -0.7266  0.9142  0.4322
   36MOL0     C 4789  10.343   7.279  12.182  0.1882 -0.0032 -0.3934
   36MOL0     C 4790  10.259   7.328  12.240 -0.2001 -0.0433  0.5032
   36MOL0     C 4791  10.438   6.672  11.764  0.0093 -0.9331  0.5272
   36MOL0     C 4792  10.407   6.576  11.664  0.3897 -0.0089  0.1278
   36MOL0     H 4793  10.419   6.563  11.138  1.3160  0.8740 -0.8567
   36MOL0     H 4794  10.445   6.398  10.949 -0.5020 -1.2298 -0.6090
   36MOL0     H 4795  10.100   6.204  10.845  0.7605 -2.5400  1.9699
   36MOL0     H 4796  10.192   6.256  10.693 -0.1269  0.4504 -0.1759
   36MOL0     H 4797  10.193   5.988  10.839  2.2497  1.0181  0.7915
   36MOL0     H 4798  10.133   6.017  10.669 -0.5245  1.3907 -0.8232
   36MOL0     H 4799  10.372   6.070  10.616  0.5665 -1.2485 -0.7771
   36MOL0     H 4800  10.414   6.050  10.775 -2.2440  0.2292  1.9751
   36MOL0     H 4801  10.286   5.836  10.599  0.1074  3.8781 -1.8177
   36MOL0     H 4802  10.462   5.846  10.611  0.3974  0.0851 -1.1318
   36MOL0     H 4803  10.248   5.759  10.810 -0.0179  0.5104 -0.7032
   36MOL0     H 4804  10.377   5.661  10.736  0.9451 -0.1530  0.7738
   36MOL0     H 4805  10.405   5.878  10.937 -1.0409 -0.7507 -0.2578
   36MOL0     H 4806  10.432   5.710  10.978 -1.2226  0.3414  0.8215
   36MOL0     H 4807  10.621   5.716  10.808  0.1059  0.0681  1.1380
   36MOL0     H 4808  10.616   5.900  10.824  0.7012  1.5614  1.9360
   36MOL0     H 4809  10.660   5.704  11.041 -2.2624  1.4443  0.9522
   36MOL0     H 4810  10.633   5.868  11.068  1.3908  0.3752  0.5382
   36MOL0     H 4811  10.857   6.025  10.896  1.6350  1.7364  2.7841
   36MOL0     H 4812  11.228   5.926  10.973  0.1825  0.4525 -0.5318
   36MOL0     H 4813  11.157   5.987  10.828  1.1718  2.3550  1.2624
   36MOL0     H 4814  11.089   6.195  10.943 -0.1984 -1.2855 -1.4683
   36MOL0     H 4815  11.258   6.150  10.973 -0.1699 -1.5259 -4.0637
   36MOL0     H 4816  11.147   6.049  11.192 -0.7028  0.0721  0.9628
   36MOL0     H 4817  11.020   6.158  11.157 -0.9755  0.5644 -3.7692
   36MOL0     H 4818  11.160   6.306  11.276 -2.6868 -1.4601 -1.0406
   36MOL0     H 4819  11.195   6.334  11.107 -4.2739  0.2865  0.9785
   36MOL0     H 4820  11.612   6.196  11.215 -1.9617 -0.5310  0.4924
   36MOL0     H 4821  11.866   6.325  11.288  0.7152 -4.2672  0.3178
   36MOL0     H 4822  11.820   6.245  11.134 -2.9205  1.8420 -1.3387
   36MOL0     H 4823  11.898   6.395  11.123  0.7740  0.2642 -0.1289
   36MOL0     H 4824  11.752   6.798  11.510  3.3563 -0.4164  1.3684
   36MOL0     H 4825  11.876   7.003  11.601  2.2477  1.7933 -0.6273
   36MOL0     H 4826  12.191   7.140  11.408 -1.9819 -3.6614 -0.1405
   36MOL0     H 4827  12.100   7.255  11.311  2.7088  2.1705  0.4629
   36MOL0     H 4828  12.175   7.321  11.590  1.3959 -0.3037 -0.7161
   36MOL0     H 4829  12.273   7.361  11.463 -0.1299  0.3469  2.4302
   36MOL0     H 4830  12.016   7.502  11.543  0.7818 -1.5089  0.3302
   36MOL0     H 4831  11.987   7.431  11.385 -1.3916 -4.1281  3.2162
   36MOL0     H 4832  12.108   7.671  11.423  0.1679  0.1073  2.5858
   36MOL0     H 4833  12.251   7.578  11.414  1.0694 -0.1370 -1.4108
   36MOL0     H 4834  12.039   7.567  11.185  0.6048  0.5446 -1.6715
   36MOL0     H 4835  12.187   7.468  11.196  0.4747  0.2122 -1.4991
   36MOL0     H 4836  12.231   7.777  11.201  1.3549  0.0648  0.1432
   36MOL0     H 4837  12.332   7.644  11.201  0.5018  0.7002 -0.1653
   36MOL0     H 4838  12.120   7.699  10.995  0.0212  0.6219 -0.0504
   36MOL0     H 4839  12.232   7.559  10.980  1.1897  0.0628 -0.3595
   36MOL0     H 4840  12.314   7.848  10.967  2.1713  1.4693 -3.8427
   36MOL0     H 4841  12.273   7.736  10.843 -2.9363  0.7121 -0.1747
   36MOL0     H 4842  11.975   7.120  11.208  0.5977 -0.6644  0.8203
   36MOL0     H 4843  11.833   6.936  11.107  0.9883  3.1174 -0.6367
   36MOL0     H 4844  11.493   6.657  11.166  3.0754  1.2177 -1.2932
   36MOL0     H 4845  11.318   6.496  11.177 -0.1548  0.6622  2.8257
   36MOL0     H 4846  10.085   6.204  11.070  1.1137  1.2409  2.9083
   36MOL0     H 4847  10.091   6.332  11.280  2.1246  1.2808  1.5986
   36MOL0     H 4848  10.262   6.787  11.434 -0.1243  3.4724  0.7619
   36MOL0     H 4849  10.323   6.950  11.598 -0.2660  0.0401 -0.6172
   36MOL0     H 4850  10.495   6.823  11.998 -0.4330  1.2456  0.7605
   36MOL0     H 4851  10.627   6.854  11.877  0.5087  3.3983 -2.9708
   36MOL0     H 4852  10.601   7.092  11.902 -0.3279  1.4458  0.9115
   36MOL0     H 4853  10.643   7.006  12.057 -1.1853 -2.0692  2.6813
   36MOL0     H 4854  10.398   7.007  12.114  0.3131 -0.2050  0.8042
   36MOL0     H 4855  10.359   7.097  11.976  0.0024 -0.4163 -0.3475
   36MOL0     H 4856  10.508   7.295  12.050  1.6402 -1.9706 -1.1170
   36MOL0     H 4857  10.538   7.204  12.196 -0.9208 -0.2680  0.3119
   36MOL0     H 4858  10.179   7.370  12.296  0.0639  0.1208  0.7568
   36MOL0     H 4859  10.494   6.640  11.851  1.1412 -0.6141 -0.0493
   36MOL0     H 4860  10.456   6.479  11.667 -2.1312 -1.3659  1.3317
   37MOL0     O 4861   1.941   7.071   5.727  0.4546 -0.4526 -0.1036
   37MOL0     C 4862   1.969   7.180   5.786  0.6457 -0.9395 -0.0438
   37MOL0     O 4863   2.046   7.189   5.900  0.0531  0.0506 -0.4427
   37MOL0     C 4864   2.051   7.078   5.983  0.3146 -0.8190 -0.1818
   37MOL0     C 4865   1.949   6.983   5.996 -0.9056  0.2788  0.0049
   37MOL0     C 4866   1.961   6.872   6.079 -0.1621 -0.3933 -0.2337
   37MOL0     C 4867   2.075   6.854   6.154 -0.2611  0.2817 -0.4959
   37MOL0     O 4868   2.097   6.756   6.242 -0.2269 -0.1634 -0.4243
   37MOL0     C 4869   1.991   6.690   6.305  0.9756  0.6396  0.7036
   37MOL0     C 4870   2.061   6.566   6.353 -0.6651  0.1340 -0.7177
   37MOL0     C 4871   1.965   6.498   6.452 -0.6412 -0.7605  0.4128
   37MOL0     C 4872   2.012   6.355   6.484  0.0990 -0.0291  0.4519
   37MOL0     C 4873   1.902   6.260   6.528 -0.2182  0.0464 -0.5905
   37MOL0     C 4874   1.800   6.328   6.620  0.8860 -0.0830 -0.3364
   37MOL0     C 4875   1.688   6.223   6.659 -0.1129 -0.5586 -0.2565
   37MOL0     C 4876   1.750   6.124   6.764 -0.3232 -1.1940  0.5567
   37MOL0     N 4877   1.648   6.031   6.824  1.1822  0.1725  0.5670
   37MOL0     C 4878   1.567   6.074   6.927 -1.0174 -0.6710  0.7961
   37MOL0     C 4879   1.510   5.962   6.980 -0.6569 -0.1078  0.3955
   37MOL0     C 4880   1.425   5.954   7.105 -0.2893  0.0833 -0.3559
   37MOL0     C 4881   1.280   5.986   7.062  0.2704 -0.1039 -0.7871
   37MOL0     C 4882   1.201   5.860   7.018 -0.0590  0.2905 -0.3165
   37MOL0     C 4883   1.066   5.899   6.949  0.0937  0.4818  0.2940
   37MOL0     O 4884   0.970   5.987   7.015 -0.1014  0.0663  0.2118
   37MOL0     C 4885   0.887   5.955   7.118  0.3287 -0.0997  0.3294
   37MOL0     C 4886   0.877   5.831   7.189  0.1762 -0.6071  0.2095
   37MOL0     C 4887   0.796   5.814   7.300  0.0917 -0.7731  0.0320
   37MOL0     C 4888   0.807   5.690   7.370 -0.2645  0.3604 -0.2610
   37MOL0     C 4889   0.723   5.924   7.348 -0.7368 -0.9366  0.5637
   37MOL0     C 4890   0.640   5.913   7.463  0.3255 -0.1688  0.7999
   37MOL0     O 4891   0.540   6.012   7.465  0.2805  0.3339  0.5756
   37MOL0     C 4892   0.468   6.025   7.579  0.1575  0.6160 -0.8158
   37MOL0     C 4893   0.536   6.064   7.693  0.3526  0.0823 -0.0491
   37MOL0     C 4894   0.446   6.078   7.807 -0.8663  0.6220  0.5205
   37MOL0     C 4895   0.308   6.059   7.801 -0.2631  0.3611 -0.4306
   37MOL0     O 4896   0.220   6.060   7.902  0.2110 -0.4561 -0.3724
   37MOL0     C 4897   0.275   6.019   8.032  0.6459  0.9660 -1.1484
   37MOL0     C 4898   0.179   5.948   8.121  0.0515  0.4060 -0.6255
   37MOL0     C 4899   0.257   5.872   8.237  0.9206  0.2323  0.8527
   37MOL0     C 4900   0.342   5.970   8.323 -0.4873  0.3427 -0.0658
   37MOL0     C 4901   0.381   5.913   8.473 -0.0515 -0.1600  0.7777
   37MOL0     C 4902   0.282   5.923   8.588  0.1579  0.2186 -0.8590
   37MOL0     C 4903   0.332   5.863   8.715 -0.8677  0.6203 -0.1208
   37MOL0     C 4904   0.442   5.944   8.788  0.9797 -0.0750 -0.0884
   37MOL0    Cl 4905   0.445   5.905   8.968  0.1856  0.0015 -0.0321
   37MOL0     C 4906   0.255   6.010   7.681 -0.5184 -0.6143 -0.3051
   37MOL0     C 4907   0.332   6.001   7.569  0.2822 -0.0438  0.7098
   37MOL0     O 4908   0.670   5.838   7.552 -0.0376  0.2672  0.0577
   37MOL0     C 4909   0.740   6.053   7.287  0.1886 -0.7132 -0.0628
   37MOL0     C 4910   0.820   6.068   7.176  0.0353 -0.9106  0.0926
   37MOL0     N 4911   1.547   5.853   6.897  0.1880 -0.4305  0.3957
   37MOL0     N 4912   1.617   5.900   6.798  0.5410 -1.0996  0.3174
   37MOL0     C 4913   2.177   6.952   6.142 -0.2471 -0.1417  0.7006
   37MOL0     C 4914   2.167   7.057   6.056 -0.1026 -0.3239 -0.2807
   37MOL0     C 4915   1.916   7.311   5.714 -0.3394  0.9431  0.1853
   37MOL0     C 4916   1.895   7.429   5.784 -0.1403  0.4065 -0.4696
   37MOL0     C 4917   1.864   7.544   5.715 -0.0534 -0.6098  0.5249
   37MOL0     C 4918   1.839   7.542   5.578 -0.1531 -0.3330 -0.1713
   37MOL0     O 4919   1.803   7.650   5.506  0.5770  0.2013  0.3037
   37MOL0     C 4920   1.897   7.753   5.489  0.6395 -0.2710 -0.2091
   37MOL0     C 4921   2.034   7.699   5.442  0.0855  0.4282  0.1417
   37MOL0     C 4922   2.127   7.811   5.389 -0.9175 -0.3903  0.1832
   37MOL0     C 4923   2.264   7.750   5.355  0.1067 -0.2239  0.6695
   37MOL0     C 4924   2.323   7.700   5.474 -0.1603  0.5230  0.1566
   37MOL0     C 4925   2.364   7.649   5.578  1.2211 -0.3418  0.0776
   37MOL0     C 4926   1.853   7.427   5.512 -0.3298  0.4858 -0.4322
   37MOL0     C 4927   1.884   7.309   5.579  0.3181 -0.3779  0.5061
   37MOL0     H 4928   1.858   6.990   5.937  0.0185  0.9952 -1.3877
   37MOL0     H 4929   1.886   6.794   6.079 -0.0765 -0.4874 -1.0052
   37MOL0     H 4930   1.945   6.756   6.378  1.1172  1.4033  0.1095
   37MOL0     H 4931   1.917   6.648   6.237  1.1649 -1.3009  1.6082
   37MOL0     H 4932   2.074   6.502   6.265 -2.0705 -1.1792 -0.0134
   37MOL0     H 4933   2.159   6.593   6.395  0.7255 -2.8242 -1.7317
   37MOL0     H 4934   1.949   6.571   6.531 -2.3853  1.3216 -1.7271
   37MOL0     H 4935   1.871   6.486   6.398  0.2694  1.1663 -1.7401
   37MOL0     H 4936   2.069   6.312   6.401 -2.4124  0.9890 -1.9528
   37MOL0     H 4937   2.087   6.359   6.564 -0.1834 -3.6809  1.0634
   37MOL0     H 4938   1.860   6.213   6.438  1.6531 -2.7205 -0.1082
   37MOL0     H 4939   1.954   6.178   6.577  1.7596  0.2575 -2.1962
   37MOL0     H 4940   1.836   6.357   6.720 -4.7914  2.9901  1.2629
   37MOL0     H 4941   1.763   6.417   6.570  5.2589  1.7892 -0.6871
   37MOL0     H 4942   1.594   6.265   6.696 -1.0149 -2.4139 -0.3229
   37MOL0     H 4943   1.665   6.167   6.568  1.0547  0.8515 -1.4737
   37MOL0     H 4944   1.789   6.182   6.848 -1.8623  1.9442 -0.7217
   37MOL0     H 4945   1.827   6.071   6.707  1.5296  0.1874  1.6828
   37MOL0     H 4946   1.566   6.178   6.957  0.7293 -0.6699  0.9569
   37MOL0     H 4947   1.432   5.852   7.145 -2.5234 -0.1813 -0.5316
   37MOL0     H 4948   1.456   6.026   7.181 -0.1929  1.6359 -1.8034
   37MOL0     H 4949   1.274   6.057   6.979  1.1224 -1.6854 -2.2609
   37MOL0     H 4950   1.245   6.044   7.148  1.3209 -0.6350  0.0339
   37MOL0     H 4951   1.180   5.797   7.105  2.6055 -0.9779 -0.5095
   37MOL0     H 4952   1.259   5.795   6.952  0.2857  0.2453  0.0308
   37MOL0     H 4953   1.012   5.809   6.920 -3.9161  1.1424  4.5261
   37MOL0     H 4954   1.079   5.946   6.851 -0.2158  1.7147  0.8172
   37MOL0     H 4955   0.943   5.753   7.151  1.9597  0.4380  1.0627
   37MOL0     H 4956   0.861   5.711   7.462  1.0722  1.2364 -1.2065
   37MOL0     H 4957   0.711   5.643   7.393  1.1548 -3.0343 -0.6346
   37MOL0     H 4958   0.864   5.618   7.311  0.0686 -1.7723  2.4616
   37MOL0     H 4959   0.644   6.071   7.694  0.4940 -1.1489  2.6988
   37MOL0     H 4960   0.495   6.093   7.903  3.6377 -0.8996 -1.2600
   37MOL0     H 4961   0.345   5.937   8.017 -0.5511 -0.7245  1.7827
   37MOL0     H 4962   0.317   6.099   8.093  2.1859  0.1066 -1.0281
   37MOL0     H 4963   0.116   6.025   8.168  1.6515 -0.2588  2.9752
   37MOL0     H 4964   0.109   5.880   8.071  2.2392 -0.7364 -2.2810
   37MOL0     H 4965   0.312   5.797   8.180 -1.2781  0.4817 -1.8559
   37MOL0     H 4966   0.187   5.821   8.303  1.8378  1.1235  2.5616
   37MOL0     H 4967   0.426   5.992   8.258 -0.6644  1.2613  0.0067
   37MOL0     H 4968   0.291   6.066   8.337 -2.3915 -0.4918 -0.9127
   37MOL0     H 4969   0.477   5.962   8.490  0.3975  0.1575 -2.0643
   37MOL0     H 4970   0.407   5.807   8.463 -3.1379 -0.8163 -2.6015
   37MOL0     H 4971   0.247   6.026   8.597 -0.6951 -0.1170 -0.0854
   37MOL0     H 4972   0.202   5.856   8.558  0.2795 -1.4823  2.2089
   37MOL0     H 4973   0.370   5.766   8.681  1.8271  1.7667 -0.6387
   37MOL0     H 4974   0.248   5.860   8.785 -1.1960  3.4130 -0.2868
   37MOL0     H 4975   0.419   6.049   8.771 -2.7994 -1.0783 -2.1732
   37MOL0     H 4976   0.539   5.922   8.741  1.4184  1.0106  0.2707
   37MOL0     H 4977   0.154   5.969   7.684 -0.6616 -0.5995 -3.0740
   37MOL0     H 4978   0.295   5.972   7.471 -0.1800  2.2368  0.1587
   37MOL0     H 4979   0.690   6.141   7.324  0.5834 -1.3724  2.1923
   37MOL0     H 4980   0.837   6.165   7.130 -0.7699 -0.2485  1.1645
   37MOL0     H 4981   2.277   6.934   6.182 -0.6250 -3.2105  0.5233
   37MOL0     H 4982   2.245   7.132   6.048 -1.6836  1.1937 -2.5902
   37MOL0     H 4983   1.888   7.450   5.890 -3.2869 -1.1007 -0.2830
   37MOL0     H 4984   1.874   7.637   5.771 -2.0912 -0.6797  1.0799
   37MOL0     H 4985   1.847   7.807   5.407 -2.4468 -0.2392  1.5233
   37MOL0     H 4986   1.916   7.823   5.570 -0.8660 -0.0474 -0.0132
   37MOL0     H 4987   2.032   7.623   5.363 -1.8413 -3.7260  3.7615
   37MOL0     H 4988   2.084   7.657   5.530  1.0563  3.9796  1.4498
   37MOL0     H 4989   2.129   7.880   5.474 -2.2229  0.4182 -0.4156
   37MOL0     H 4990   2.095   7.872   5.304 -0.6402  1.2702  1.2308
   37MOL0     H 4991   2.322   7.826   5.303  0.7186  0.3696  2.1478
   37MOL0     H 4992   2.245   7.667   5.287  0.3878 -2.0051  2.6489
   37MOL0     H 4993   2.377   7.583   5.661 -0.5068 -1.5247 -0.5375
   37MOL0     H 4994   1.839   7.419   5.404 -0.7642  1.3995 -0.4556
   37MOL0     H 4995   1.886   7.217   5.520  0.0502  2.6094 -4.8259
   38MOL0     O 4996  11.466   6.530   3.644 -0.4553 -0.8112 -1.0353
   38MOL0     C 4997  11.353   6.504   3.681 -0.7114  0.6958 -0.1523
   38MOL0     O 4998  11.246   6.465   3.596  0.5294  0.4606  0.0007
   38MOL0     C 4999  11.268   6.442   3.465  0.8586  0.2077  0.4182
   38MOL0     C 5000  11.364   6.346   3.421 -0.0030 -0.7070  0.3788
   38MOL0     C 5001  11.386   6.325   3.287  0.6513 -0.2284 -0.2848
   38MOL0     C 5002  11.327   6.400   3.192  0.6416 -0.0211  0.9009
   38MOL0     O 5003  11.338   6.386   3.049 -0.2777 -0.0279  0.3198
   38MOL0     C 5004  11.425   6.279   2.997 -0.0360 -0.3082 -0.4023
   38MOL0     C 5005  11.462   6.300   2.854 -0.1026 -0.1114  0.2338
   38MOL0     C 5006  11.348   6.288   2.749 -0.1230 -0.3707  0.7649
   38MOL0     C 5007  11.234   6.390   2.760 -0.5295  0.3245  0.7003
   38MOL0     C 5008  11.182   6.438   2.626 -0.3212  0.4680  0.3983
   38MOL0     C 5009  11.064   6.536   2.647 -0.1810 -0.7689  0.3190
   38MOL0     C 5010  11.066   6.660   2.564 -0.7457  0.0395  0.8847
   38MOL0     C 5011  10.937   6.729   2.578 -0.3543 -0.3877  0.0699
   38MOL0     N 5012  10.910   6.832   2.478 -0.1068  0.2602  0.6095
   38MOL0     C 5013  10.807   6.918   2.499 -0.1127 -1.1210  1.8325
   38MOL0     C 5014  10.844   7.014   2.414 -0.7008  1.0407  0.3530
   38MOL0     C 5015  10.791   7.157   2.402  0.0013 -0.8026  0.0374
   38MOL0     C 5016  10.887   7.252   2.483  0.7429 -0.2857 -0.1385
   38MOL0     C 5017  10.847   7.401   2.480  0.6105 -0.1999  0.4241
   38MOL0     C 5018  10.836   7.456   2.338  0.0531  0.4694  0.8828
   38MOL0     O 5019  10.831   7.592   2.351 -0.5915 -0.5488 -0.3152
   38MOL0     C 5020  10.810   7.673   2.240  0.6980  0.1916 -0.3021
   38MOL0     C 5021  10.886   7.795   2.210 -0.5692  0.0580  0.1686
   38MOL0     C 5022  10.859   7.872   2.098  0.2865 -0.0174 -0.4968
   38MOL0     C 5023  10.958   7.983   2.067  0.5391 -0.0283 -0.4931
   38MOL0     C 5024  10.758   7.822   2.005 -0.6602 -0.5030 -0.2540
   38MOL0     C 5025  10.714   7.906   1.885  0.2735  0.0432 -0.6629
   38MOL0     O 5026  10.794   7.997   1.835  0.1717 -0.1608 -0.6892
   38MOL0     C 5027  10.732   8.092   1.758 -1.1658 -0.3029  0.4353
   38MOL0     C 5028  10.692   8.073   1.621 -0.2204  0.6661  0.4721
   38MOL0     C 5029  10.617   8.166   1.554  0.6080  0.3963 -0.8049
   38MOL0     C 5030  10.567   8.281   1.621  0.0937 -0.0526 -0.0582
   38MOL0     O 5031  10.503   8.373   1.541 -0.6220  0.5015 -0.5108
   38MOL0     C 5032  10.424   8.480   1.609 -0.0401 -0.6391  0.7966
   38MOL0     C 5033  10.282   8.427   1.630  0.0151 -0.0701 -0.5907
   38MOL0     C 5034  10.214   8.394   1.499 -0.2189  0.2414  0.0507
   38MOL0     C 5035  10.147   8.505   1.422 -0.2464  0.5941  0.2086
   38MOL0     C 5036  10.106   8.461   1.270 -0.4164  0.5557 -0.0379
   38MOL0     C 5037  10.030   8.569   1.201 -0.4756 -0.2918 -0.0543
   38MOL0     C 5038  10.015   8.548   1.055 -0.1286 -0.9742  0.3096
   38MOL0     C 5039   9.940   8.664   0.999 -0.3246  0.7176  0.0117
   38MOL0    Cl 5040   9.964   8.687   0.825 -0.2437 -0.3126 -0.1894
   38MOL0     C 5041  10.604   8.296   1.758  0.1997 -0.0062 -0.6524
   38MOL0     C 5042  10.681   8.201   1.826  0.7563 -0.3836  0.5284
   38MOL0     O 5043  10.602   7.872   1.850  0.0777  0.2137  0.1101
   38MOL0     C 5044  10.687   7.701   2.040 -0.3252 -0.4523  0.2734
   38MOL0     C 5045  10.710   7.634   2.148 -0.4256  0.3473 -0.3732
   38MOL0     N 5046  10.951   6.988   2.339  0.6654  0.1487 -0.2628
   38MOL0     N 5047  10.995   6.879   2.381  0.0186 -0.9400  0.1485
   38MOL0     C 5048  11.227   6.495   3.233 -0.0901 -0.9812 -1.1069
   38MOL0     C 5049  11.190   6.513   3.376  0.4277 -0.0373  0.0469
   38MOL0     C 5050  11.314   6.506   3.827  0.4723 -0.7529  1.6405
   38MOL0     C 5051  11.409   6.498   3.925 -0.7239  0.2624 -1.0008
   38MOL0     C 5052  11.362   6.480   4.061 -0.1049 -0.1674  0.4286
   38MOL0     C 5053  11.230   6.469   4.092  0.5605  0.2630  0.0254
   38MOL0     O 5054  11.199   6.459   4.226 -0.4407 -0.7447  0.5324
   38MOL0     C 5055  11.085   6.369   4.250 -0.1472 -0.3297 -0.0209
   38MOL0     C 5056  11.062   6.345   4.404  0.4023 -0.4291  0.0791
   38MOL0     C 5057  10.978   6.464   4.468 -0.0901 -1.1184  0.0099
   38MOL0     C 5058  10.831   6.458   4.453  0.3298 -0.6199  0.6248
   38MOL0     C 5059  10.775   6.597   4.456 -0.0125 -0.0144 -0.4100
   38MOL0     C 5060  10.723   6.703   4.447  0.4948  0.3014 -0.5794
   38MOL0     C 5061  11.134   6.481   3.988  0.1130  0.9413 -0.0438
   38MOL0     C 5062  11.174   6.507   3.861  0.5796 -0.3577 -0.0890
   38MOL0     H 5063  11.411   6.293   3.504 -2.2707 -0.2246  2.0530
   38MOL0     H 5064  11.450   6.237   3.281 -0.5152 -1.1394  0.1662
   38MOL0     H 5065  11.519   6.272   3.054 -0.2112  2.5987  0.3810
   38MOL0     H 5066  11.369   6.185   3.001 -0.0176 -0.2922  0.4237
   38MOL0     H 5067  11.499   6.402   2.843 -1.7314  0.5737  0.8251
   38MOL0     H 5068  11.548   6.238   2.825 -0.9817 -1.6293  0.7830
   38MOL0     H 5069  11.400   6.298   2.654  2.3364 -0.0985  2.0473
   38MOL0     H 5070  11.304   6.188   2.745 -0.8438 -0.3044  4.1042
   38MOL0     H 5071  11.154   6.340   2.816 -0.1790  0.5887  1.4423
   38MOL0     H 5072  11.272   6.479   2.811  1.3404  0.0542 -0.1612
   38MOL0     H 5073  11.266   6.499   2.592 -1.0138  2.3905  1.9265
   38MOL0     H 5074  11.146   6.358   2.560  1.1031  0.0052  0.1405
   38MOL0     H 5075  10.973   6.477   2.631  0.2445 -0.9031 -1.9521
   38MOL0     H 5076  11.056   6.571   2.750 -2.8384  1.2236 -0.4481
   38MOL0     H 5077  11.141   6.734   2.592  0.1625 -0.5954  0.1969
   38MOL0     H 5078  11.074   6.638   2.457  2.6252  1.1672  0.7732
   38MOL0     H 5079  10.928   6.775   2.677  1.3110  0.1697 -0.0016
   38MOL0     H 5080  10.857   6.654   2.575 -2.2396  1.4472  1.4091
   38MOL0     H 5081  10.735   6.928   2.580 -3.1482  0.4216 -0.8127
   38MOL0     H 5082  10.778   7.192   2.299 -1.9358  0.9710  0.8097
   38MOL0     H 5083  10.694   7.175   2.450  1.0142  1.6927  1.3468
   38MOL0     H 5084  10.986   7.243   2.438  1.1064  1.3052  0.2608
   38MOL0     H 5085  10.888   7.205   2.581 -1.2811 -0.8522 -0.3424
   38MOL0     H 5086  10.914   7.459   2.544  0.4655  1.9717 -1.2823
   38MOL0     H 5087  10.748   7.409   2.525  0.4757  4.4862 -0.2760
   38MOL0     H 5088  10.760   7.411   2.274  2.6702 -0.7663 -1.6128
   38MOL0     H 5089  10.932   7.434   2.289  1.2781  2.5447  2.2135
   38MOL0     H 5090  10.962   7.832   2.278  0.4601 -1.2630 -0.2280
   38MOL0     H 5091  10.910   8.081   2.072 -1.2241 -0.9121  0.8107
   38MOL0     H 5092  11.034   7.981   2.145 -2.5598  0.3623  2.7840
   38MOL0     H 5093  10.999   7.971   1.966  2.5103 -1.4484  0.4299
   38MOL0     H 5094  10.717   7.985   1.563 -1.2231  1.4957 -1.3244
   38MOL0     H 5095  10.598   8.145   1.449 -1.1134 -1.2536 -0.2123
   38MOL0     H 5096  10.478   8.513   1.698 -1.3637 -2.8508  2.5189
   38MOL0     H 5097  10.427   8.563   1.537  0.2118  2.7037  4.3413
   38MOL0     H 5098  10.278   8.332   1.683 -4.3094  0.1866 -0.0732
   38MOL0     H 5099  10.228   8.507   1.683  1.4393  1.0116 -0.6914
   38MOL0     H 5100  10.136   8.321   1.519  0.6637 -0.8412 -0.3782
   38MOL0     H 5101  10.284   8.340   1.434  0.1878 -0.6338  1.1800
   38MOL0     H 5102  10.054   8.531   1.474 -0.6299 -1.3668  0.5824
   38MOL0     H 5103  10.212   8.593   1.429 -0.1169  0.9388 -3.4770
   38MOL0     H 5104  10.047   8.370   1.282 -0.6513  0.5116 -1.4025
   38MOL0     H 5105  10.190   8.440   1.203 -0.6815  0.7604 -0.4410
   38MOL0     H 5106   9.932   8.585   1.246  0.2430  3.6538  0.4800
   38MOL0     H 5107  10.087   8.662   1.209  0.7743 -1.0918  0.6924
   38MOL0     H 5108   9.966   8.455   1.023 -2.0469  0.6112 -1.6633
   38MOL0     H 5109  10.112   8.537   1.006  0.1560  2.4484 -0.1367
   38MOL0     H 5110   9.962   8.756   1.054 -1.5000  0.1169  1.5351
   38MOL0     H 5111   9.837   8.637   1.023  0.5967 -3.1392  0.2944
   38MOL0     H 5112  10.572   8.386   1.810 -1.5796 -1.4371  0.8605
   38MOL0     H 5113  10.713   8.207   1.929  3.6268 -2.5336 -0.0965
   38MOL0     H 5114  10.614   7.666   1.969 -0.5956  1.8770 -0.7037
   38MOL0     H 5115  10.648   7.545   2.158  2.6935 -1.7209  3.4796
   38MOL0     H 5116  11.162   6.536   3.156  0.7036 -1.9519 -2.3408
   38MOL0     H 5117  11.123   6.591   3.413  1.4314  0.2011  1.4678
   38MOL0     H 5118  11.517   6.498   3.916 -0.5134  2.4901  0.5642
   38MOL0     H 5119  11.434   6.485   4.142  0.4957  2.3531 -0.1409
   38MOL0     H 5120  10.992   6.409   4.211 -1.5623 -2.6947  0.7499
   38MOL0     H 5121  11.102   6.270   4.206 -0.0989 -0.2847 -0.1037
   38MOL0     H 5122  11.154   6.327   4.460  0.1228  0.8743  0.9818
   38MOL0     H 5123  11.000   6.256   4.419 -0.6670  0.4420  1.0166
   38MOL0     H 5124  10.998   6.556   4.413 -3.5652  0.3032  0.8503
   38MOL0     H 5125  11.009   6.484   4.571  1.9643  0.5723 -0.8552
   38MOL0     H 5126  10.790   6.401   4.537 -2.7703 -0.0389 -0.3724
   38MOL0     H 5127  10.806   6.401   4.363  0.4023  1.4459 -0.7803
   38MOL0     H 5128  10.675   6.797   4.430 -0.9440 -0.2265  0.3626
   38MOL0     H 5129  11.028   6.465   4.002  0.5180 -1.5962  0.5283
   38MOL0     H 5130  11.102   6.524   3.782  0.7581 -1.6642 -0.5554
   39MOL0     O 5131   6.794  11.166   2.304  0.0619  0.0382 -0.2396
   39MOL0     C 5132   6.848  11.271   2.344 -0.3239  0.9187 -0.5374
   39MOL0     O 5133   6.930  11.358   2.279 -0.4073  0.7369 -0.2742
   39MOL0     C 5134   6.949  11.324   2.144 -0.1322  0.0909 -0.7173
   39MOL0     C 5135   6.850  11.334   2.046  0.5842 -0.3209  0.2360
   39MOL0     C 5136   6.870  11.306   1.908  0.5900  0.2103  0.5628
   39MOL0     C 5137   7.000  11.259   1.869  0.0550 -0.0703  0.8091
   39MOL0     O 5138   7.046  11.228   1.741  0.2367  0.7561  0.0812
   39MOL0     C 5139   6.940  11.194   1.650  0.9509 -0.1945  0.3388
   39MOL0     C 5140   7.002  11.110   1.542  0.2481 -0.3956  0.6982
   39MOL0     C 5141   6.906  11.059   1.425 -0.4376 -0.5151  0.2779
   39MOL0     C 5142   6.975  10.948   1.351  0.4939  0.2425  1.1317
   39MOL0     C 5143   6.913  10.812   1.372  0.6076  0.6091 -0.4851
   39MOL0     C 5144   6.926  10.721   1.245  0.1544 -0.1551 -0.4423
   39MOL0     C 5145   6.835  10.595   1.254  1.2892  0.1195 -0.4623
   39MOL0     C 5146   6.865  10.501   1.134  0.1990  0.6415 -0.2580
   39MOL0     N 5147   6.821  10.546   1.002 -0.0204 -0.3513 -0.3277
   39MOL0     C 5148   6.694  10.566   0.973  0.1335 -1.5392 -0.2520
   39MOL0     C 5149   6.709  10.606   0.844  0.0602  0.2530 -0.3408
   39MOL0     C 5150   6.593  10.643   0.743 -0.9362 -0.1399 -0.3327
   39MOL0     C 5151   6.591  10.558   0.609 -0.6550 -0.3642 -0.2717
   39MOL0     C 5152   6.611  10.403   0.629  0.6237  0.4349 -0.1613
   39MOL0     C 5153   6.645  10.342   0.486 -0.4644 -0.3169  0.4366
   39MOL0     O 5154   6.549  10.403   0.400 -0.0209 -0.4141 -0.2168
   39MOL0     C 5155   6.595  10.429   0.275 -0.1569  0.6470 -0.0485
   39MOL0     C 5156   6.689  10.346   0.218  0.7719  0.2369 -0.3636
   39MOL0     C 5157   6.736  10.357   0.084 -0.6287  0.3282  0.4604
   39MOL0     C 5158   6.828  10.251   0.031 -0.5576  0.8811  0.2623
   39MOL0     C 5159   6.705  10.474   0.013  0.0835 -0.9878  0.8354
   39MOL0     C 5160   6.767  10.517  -0.114 -0.3623  0.1123  0.5180
   39MOL0     O 5161   6.767  10.656  -0.150  0.3330  0.1504 -0.7595
   39MOL0     C 5162   6.832  10.688  -0.258  0.4958  0.3944 -0.9227
   39MOL0     C 5163   6.967  10.699  -0.261 -0.1210 -0.6857  0.6941
   39MOL0     C 5164   7.025  10.708  -0.389 -0.2596  0.1040 -0.2665
   39MOL0     C 5165   6.955  10.695  -0.510 -0.0285 -0.5406 -1.0532
   39MOL0     O 5166   7.034  10.709  -0.617  0.1204  0.0735  0.6517
   39MOL0     C 5167   6.991  10.638  -0.734  0.0365  0.4168  0.5714
   39MOL0     C 5168   6.889  10.726  -0.814  0.3643  0.6522 -0.1223
   39MOL0     C 5169   6.803  10.644  -0.914 -0.6882 -0.4087 -0.0954
   39MOL0     C 5170   6.716  10.737  -1.005 -0.6727 -0.0305 -0.6384
   39MOL0     C 5171   6.601  10.654  -1.079  0.6371 -0.1465 -0.9324
   39MOL0     C 5172   6.653  10.543  -1.173  0.2707  0.4653  0.1807
   39MOL0     C 5173   6.539  10.488  -1.264 -0.8729  0.7621  0.4722
   39MOL0     C 5174   6.469  10.594  -1.348 -0.9439 -0.6494 -0.3839
   39MOL0    Cl 5175   6.589  10.726  -1.400  0.3818 -0.6303  0.2651
   39MOL0     C 5176   6.818  10.682  -0.505  0.6392  0.4459 -0.4807
   39MOL0     C 5177   6.757  10.676  -0.373 -0.0142 -0.9793 -0.3164
   39MOL0     O 5178   6.803  10.424  -0.193 -0.8554 -0.7279 -0.0930
   39MOL0     C 5179   6.604  10.559   0.075  0.8764 -0.1074  0.1893
   39MOL0     C 5180   6.554  10.537   0.205  0.7262 -0.3153  1.0260
   39MOL0     N 5181   6.839  10.596   0.803  1.0477  0.3760  1.3809
   39MOL0     N 5182   6.907  10.562   0.901 -0.3897 -0.4125 -0.2049
   39MOL0     C 5183   7.106  11.257   1.967  0.1845  0.0166 -0.2974
   39MOL0     C 5184   7.081  11.286   2.103 -0.0501  0.2777 -0.1163
   39MOL0     C 5185   6.820  11.309   2.490  0.0369  0.4852  0.1055
   39MOL0     C 5186   6.717  11.240   2.568  0.5010 -0.4960 -0.0423
   39MOL0     C 5187   6.687  11.279   2.696 -0.3766  0.0670 -0.6433
   39MOL0     C 5188   6.744  11.395   2.761 -0.0717 -0.0570 -0.0570
   39MOL0     O 5189   6.701  11.431   2.885  0.2049 -0.2049 -0.7070
   39MOL0     C 5190   6.797  11.503   2.964 -0.4603  0.2666 -0.6760
   39MOL0     C 5191   6.762  11.651   2.961  0.3341 -0.3841 -0.2775
   39MOL0     C 5192   6.618  11.692   2.997  0.7248  0.0925  0.2952
   39MOL0     C 5193   6.605  11.845   2.961  0.4484  0.3263  0.5210
   39MOL0     C 5194   6.475  11.912   2.985  0.1064  0.0937  1.7206
   39MOL0     C 5195   6.370  11.969   3.021 -0.3609  0.1836  0.3793
   39MOL0     C 5196   6.838  11.464   2.684 -0.0337  0.4334  0.8687
   39MOL0     C 5197   6.879  11.415   2.556  0.6557 -0.8562  0.0105
   39MOL0     H 5198   6.754  11.378   2.070 -0.6436 -0.9349 -3.0153
   39MOL0     H 5199   6.793  11.323   1.833  2.3503  0.5788 -1.2488
   39MOL0     H 5200   6.853  11.139   1.689 -0.7627  1.9969 -0.2170
   39MOL0     H 5201   6.906  11.281   1.593  2.1396  0.4655  0.6128
   39MOL0     H 5202   7.078  11.170   1.490  1.6965 -2.5227  0.1905
   39MOL0     H 5203   7.061  11.029   1.587 -0.2382 -0.8139  0.5946
   39MOL0     H 5204   6.809  11.033   1.467  0.0058  0.1590  1.7776
   39MOL0     H 5205   6.889  11.140   1.354 -0.9054 -0.3825  0.5381
   39MOL0     H 5206   6.978  10.970   1.244 -3.0741 -0.2286  0.8095
   39MOL0     H 5207   7.081  10.935   1.373  0.8093  0.4402 -0.2007
   39MOL0     H 5208   6.969  10.769   1.456 -2.3779 -3.1391 -0.1308
   39MOL0     H 5209   6.806  10.820   1.393  0.5040 -0.8697 -0.3549
   39MOL0     H 5210   6.893  10.770   1.153 -1.3010 -2.4182 -1.2010
   39MOL0     H 5211   7.029  10.687   1.231 -0.0637 -1.2745  0.4584
   39MOL0     H 5212   6.851  10.556   1.355 -0.4654 -0.5757 -0.4257
   39MOL0     H 5213   6.729  10.620   1.246  1.2946  1.7559  2.8055
   39MOL0     H 5214   6.829  10.398   1.144  3.7702 -0.7776 -0.3640
   39MOL0     H 5215   6.974  10.488   1.130 -0.1572 -4.1264 -0.5691
   39MOL0     H 5216   6.596  10.568   1.019  0.1520  2.0833 -0.0986
   39MOL0     H 5217   6.494  10.616   0.781 -1.2117  0.5677 -0.5429
   39MOL0     H 5218   6.614  10.748   0.721  3.5057 -0.5485  0.8514
   39MOL0     H 5219   6.673  10.586   0.542  1.4799 -1.4348  1.7398
   39MOL0     H 5220   6.493  10.574   0.563 -0.8851  1.6795  0.8006
   39MOL0     H 5221   6.516  10.358   0.662 -1.3956  2.8360 -2.2197
   39MOL0     H 5222   6.688  10.379   0.703 -1.1309  1.9714  2.3660
   39MOL0     H 5223   6.622  10.235   0.486 -1.2148 -0.1640 -0.0844
   39MOL0     H 5224   6.752  10.342   0.467 -1.0865 -1.9693 -4.2827
   39MOL0     H 5225   6.720  10.259   0.276  2.4837 -0.1825 -1.8341
   39MOL0     H 5226   6.864  10.180   0.106  3.0201  2.7137  0.5487
   39MOL0     H 5227   6.785  10.197  -0.053 -1.4485 -0.3416  1.4726
   39MOL0     H 5228   6.926  10.294   0.006  0.9528 -2.0073  0.7183
   39MOL0     H 5229   7.036  10.719  -0.180  1.8827  0.1176 -1.1011
   39MOL0     H 5230   7.133  10.723  -0.389 -0.4312  1.5130 -1.2585
   39MOL0     H 5231   7.078  10.619  -0.797  1.9724  1.6963  2.7291
   39MOL0     H 5232   6.953  10.539  -0.709 -0.1090  0.5110  0.7263
   39MOL0     H 5233   6.816  10.775  -0.749 -1.1238 -0.1138 -1.1502
   39MOL0     H 5234   6.944  10.807  -0.863 -0.2397  0.4700 -1.1185
   39MOL0     H 5235   6.736  10.576  -0.861  0.2140 -1.4787 -0.2857
   39MOL0     H 5236   6.873  10.586  -0.975  2.1907  1.3829  1.2271
   39MOL0     H 5237   6.670  10.816  -0.945  2.5804  2.3268 -0.9864
   39MOL0     H 5238   6.777  10.786  -1.080 -1.2018  0.1052 -0.9862
   39MOL0     H 5239   6.539  10.725  -1.134  1.8651  2.6819  1.1220
   39MOL0     H 5240   6.552  10.592  -1.003  1.7749 -0.9441 -0.8162
   39MOL0     H 5241   6.724  10.591  -1.241 -0.9462  1.2491 -0.5732
   39MOL0     H 5242   6.699  10.455  -1.128 -1.3629 -0.0973  0.8250
   39MOL0     H 5243   6.459  10.438  -1.209 -1.5168 -0.4613 -1.4547
   39MOL0     H 5244   6.598  10.420  -1.327 -1.0153  1.0704  0.0038
   39MOL0     H 5245   6.397  10.641  -1.281  1.0981  0.3143  1.2600
   39MOL0     H 5246   6.420  10.559  -1.439  1.0090  0.8924 -2.1450
   39MOL0     H 5247   6.746  10.671  -0.586 -2.4634  0.2150  2.0947
   39MOL0     H 5248   6.649  10.666  -0.360  0.2151 -0.6865  2.1476
   39MOL0     H 5249   6.575  10.646   0.016  0.0184 -2.4415 -3.0732
   39MOL0     H 5250   6.474  10.604   0.234  0.6903  0.8590 -1.5635
   39MOL0     H 5251   7.203  11.222   1.933  0.3265 -1.4148  1.4261
   39MOL0     H 5252   7.160  11.277   2.176 -1.3177  1.3588  1.4496
   39MOL0     H 5253   6.663  11.160   2.518 -0.7234  1.9855 -3.0053
   39MOL0     H 5254   6.611  11.216   2.740 -0.8802  1.8891  1.2778
   39MOL0     H 5255   6.800  11.464   3.066  2.6334 -1.1675 -1.2221
   39MOL0     H 5256   6.898  11.497   2.923 -1.0381  2.0789 -2.5171
   39MOL0     H 5257   6.770  11.677   2.855 -2.4587 -1.5796 -0.8956
   39MOL0     H 5258   6.840  11.702   3.018 -0.6993 -0.6613  1.4538
   39MOL0     H 5259   6.604  11.672   3.104  2.7695 -0.1273  0.5666
   39MOL0     H 5260   6.551  11.641   2.928 -1.0027  1.3181  1.0041
   39MOL0     H 5261   6.641  11.865   2.860  1.1251 -2.9539 -0.0088
   39MOL0     H 5262   6.685  11.892   3.019  1.3356  0.1206 -0.5156
   39MOL0     H 5263   6.275  12.007   3.054  0.9505  2.3172  1.9453
   39MOL0     H 5264   6.907  11.546   2.700  0.9635  0.3347 -2.2049
   39MOL0     H 5265   6.948  11.484   2.509 -1.9059  0.6780 -1.7130
   40MOL0     O 5266   6.606   7.832   7.915  0.8178 -0.1212 -0.3470
   40MOL0     C 5267   6.611   7.952   7.882 -0.4234  0.1556 -0.2858
   40MOL0     O 5268   6.547   8.054   7.949  0.6509  0.4237 -0.2219
   40MOL0     C 5269   6.493   8.018   8.066  0.6360  0.6172 -0.2643
   40MOL0     C 5270   6.363   7.963   8.077  0.5891 -1.1499  0.1230
   40MOL0     C 5271   6.310   7.931   8.204 -0.8116 -0.7053 -0.4190
   40MOL0     C 5272   6.381   7.974   8.319 -0.0689  0.2464  0.3699
   40MOL0     O 5273   6.338   7.950   8.444 -0.3411 -0.0328 -0.5046
   40MOL0     C 5274   6.280   7.817   8.473 -0.0014  0.3646 -0.1783
   40MOL0     C 5275   6.311   7.788   8.621  0.4176  0.0282 -0.4542
   40MOL0     C 5276   6.459   7.764   8.654  0.3733  0.2398  0.4443
   40MOL0     C 5277   6.485   7.740   8.802 -0.1075 -0.1574 -0.2527
   40MOL0     C 5278   6.629   7.693   8.843 -0.0079  0.1169  0.6193
   40MOL0     C 5279   6.737   7.804   8.805  0.4570 -0.2621  1.3826
   40MOL0     C 5280   6.877   7.730   8.817  0.6289  0.7013 -0.9153
   40MOL0     C 5281   6.975   7.820   8.890 -1.0216 -0.5526  0.0299
   40MOL0     N 5282   7.085   7.730   8.927 -0.2466 -0.0885  0.1205
   40MOL0     C 5283   7.205   7.701   8.864  0.9124  0.6326 -0.8755
   40MOL0     C 5284   7.263   7.614   8.948  0.4044 -0.6584 -0.0834
   40MOL0     C 5285   7.404   7.571   8.932  0.2506 -0.1254  0.3845
   40MOL0     C 5286   7.496   7.676   8.982  0.0921 -0.0764 -0.6933
   40MOL0     C 5287   7.637   7.641   8.949  0.1346  0.3863  0.2752
   40MOL0     C 5288   7.744   7.722   9.030 -0.2034  0.3532 -0.1455
   40MOL0     O 5289   7.875   7.713   8.967  0.5770 -0.1216 -0.2907
   40MOL0     C 5290   7.952   7.598   8.983 -0.7109 -0.4666  0.5764
   40MOL0     C 5291   8.015   7.545   8.871 -0.9931  0.0331 -0.4546
   40MOL0     C 5292   8.106   7.445   8.884 -0.0353  0.1669  0.1944
   40MOL0     C 5293   8.161   7.410   8.745 -0.2818 -0.2293 -0.8835
   40MOL0     C 5294   8.143   7.392   9.014  0.7191 -0.4349 -0.3503
   40MOL0     C 5295   8.253   7.290   9.036  0.3744  0.7616 -0.7141
   40MOL0     O 5296   8.241   7.229   9.160 -0.8325 -1.0876  0.0227
   40MOL0     C 5297   8.341   7.152   9.216 -0.0846  0.3146  0.5124
   40MOL0     C 5298   8.390   7.043   9.148  0.4583 -0.1985 -0.2190
   40MOL0     C 5299   8.479   6.955   9.214 -0.3562 -0.3868 -0.3548
   40MOL0     C 5300   8.520   6.983   9.345 -0.4087 -0.0591  0.3967
   40MOL0     O 5301   8.618   6.909   9.408 -0.0815 -0.8391  0.5356
   40MOL0     C 5302   8.729   6.901   9.327 -0.0760 -0.1206  0.3503
   40MOL0     C 5303   8.841   6.842   9.403 -1.0144 -0.6083 -0.1116
   40MOL0     C 5304   8.878   6.935   9.521 -0.7467  0.4532  0.0560
   40MOL0     C 5305   9.029   6.927   9.557  0.5241 -0.7931  0.0694
   40MOL0     C 5306   9.060   6.842   9.690  0.1119 -0.1983  0.0132
   40MOL0     C 5307   9.042   6.701   9.680 -0.0230  0.3578  0.3256
   40MOL0     C 5308   9.125   6.623   9.573  0.3109  0.4609  0.2185
   40MOL0     C 5309   9.275   6.581   9.618  0.6961 -0.1639  0.0748
   40MOL0    Cl 5310   9.396   6.682   9.551 -0.1151 -0.1723 -0.0598
   40MOL0     C 5311   8.478   7.095   9.408  0.2232  0.1732  0.0349
   40MOL0     C 5312   8.385   7.182   9.345 -0.2214  0.3818 -0.7372
   40MOL0     O 5313   8.327   7.265   8.942 -0.0665  0.4371 -0.1478
   40MOL0     C 5314   8.085   7.459   9.129  0.0889  0.2822  0.0512
   40MOL0     C 5315   7.993   7.552   9.111  0.6702  0.1517  0.1930
   40MOL0     N 5316   7.187   7.595   9.056  0.8354 -0.8283  0.5969
   40MOL0     N 5317   7.079   7.654   9.040 -0.0460  0.6560 -0.7300
   40MOL0     C 5318   6.509   8.028   8.304 -0.3170 -0.0063 -0.6731
   40MOL0     C 5319   6.572   8.043   8.183  0.8907 -0.5387  1.5423
   40MOL0     C 5320   6.707   7.986   7.772  1.0588  0.5663 -0.5725
   40MOL0     C 5321   6.683   8.108   7.705 -0.0838 -1.1507 -0.4267
   40MOL0     C 5322   6.771   8.144   7.598  0.6996  1.1582 -0.5753
   40MOL0     C 5323   6.874   8.056   7.559  0.2244 -0.0079  0.7078
   40MOL0     O 5324   6.952   8.100   7.453 -0.9708 -0.1396 -0.8479
   40MOL0     C 5325   7.067   8.025   7.412  0.3193  0.3518 -1.3074
   40MOL0     C 5326   7.127   8.108   7.293  0.2078 -1.0867  1.2363
   40MOL0     C 5327   7.211   8.014   7.210 -0.7089  0.2078  0.2417
   40MOL0     C 5328   7.294   8.093   7.108 -0.6923  0.1244  0.1348
   40MOL0     C 5329   7.215   8.199   7.039  1.5786  0.0582  0.1698
   40MOL0     C 5330   7.142   8.275   6.984  0.3225 -0.0586  0.6574
   40MOL0     C 5331   6.891   7.936   7.621 -0.3509  0.1259 -0.3343
   40MOL0     C 5332   6.800   7.897   7.724  0.4369  1.1269 -0.1310
   40MOL0     H 5333   6.321   7.950   7.978  1.5628 -0.7600 -0.3560
   40MOL0     H 5334   6.208   7.895   8.217 -1.6745  1.1435 -1.6114
   40MOL0     H 5335   6.171   7.817   8.466 -0.0464 -0.1364  0.3854
   40MOL0     H 5336   6.313   7.739   8.404 -3.4418 -2.3862  0.9657
   40MOL0     H 5337   6.281   7.865   8.693 -0.8295  0.8372 -1.7845
   40MOL0     H 5338   6.254   7.699   8.651  1.4847 -1.4548 -2.5425
   40MOL0     H 5339   6.492   7.672   8.604 -0.1829 -0.7521  1.8415
   40MOL0     H 5340   6.517   7.848   8.614  0.9990 -0.6785 -0.6594
   40MOL0     H 5341   6.476   7.837   8.853  3.2946  1.3880 -2.2859
   40MOL0     H 5342   6.406   7.670   8.832  0.9027 -0.2455  2.4830
   40MOL0     H 5343   6.625   7.679   8.951 -1.8887 -0.3906  0.5129
   40MOL0     H 5344   6.651   7.595   8.800  0.2076  0.0277  0.9356
   40MOL0     H 5345   6.716   7.844   8.706 -2.7460  1.3943  2.5887
   40MOL0     H 5346   6.721   7.883   8.879  0.5642 -0.2699  1.4148
   40MOL0     H 5347   6.875   7.640   8.879 -0.6585  0.9427 -0.5754
   40MOL0     H 5348   6.903   7.707   8.713  0.1470 -1.1625 -0.6743
   40MOL0     H 5349   6.947   7.859   8.988  4.0383 -1.7813  2.3326
   40MOL0     H 5350   7.015   7.902   8.831  1.1411 -1.1202  0.6209
   40MOL0     H 5351   7.248   7.742   8.773 -0.0118  1.1051 -1.1157
   40MOL0     H 5352   7.415   7.476   8.985  1.3629  0.3417  1.0159
   40MOL0     H 5353   7.434   7.548   8.829  0.5253 -0.0461  0.4475
   40MOL0     H 5354   7.490   7.661   9.090  1.1170  0.1388 -0.5959
   40MOL0     H 5355   7.464   7.776   8.952 -1.8209 -0.8963 -1.5794
   40MOL0     H 5356   7.660   7.655   8.843 -0.3063  3.4089  0.4940
   40MOL0     H 5357   7.642   7.534   8.973  0.0569  1.0230  3.5776
   40MOL0     H 5358   7.752   7.690   9.135 -0.2223 -0.6349 -0.4414
   40MOL0     H 5359   7.714   7.826   9.016  2.0323  0.8136 -2.0031
   40MOL0     H 5360   7.995   7.599   8.779  1.6320  2.3406  0.2094
   40MOL0     H 5361   8.265   7.444   8.741 -0.4195  0.2044 -0.7995
   40MOL0     H 5362   8.167   7.301   8.755 -0.6209 -0.0542  2.4441
   40MOL0     H 5363   8.095   7.448   8.667  0.1014  2.4309 -0.0105
   40MOL0     H 5364   8.363   7.041   9.043  2.5163  0.8323 -0.8383
   40MOL0     H 5365   8.516   6.879   9.146  0.2273 -0.8849  0.5022
   40MOL0     H 5366   8.710   6.826   9.250  2.3237 -1.2321  0.7580
   40MOL0     H 5367   8.767   6.997   9.289  2.9905 -2.0703 -1.9723
   40MOL0     H 5368   8.820   6.738   9.429 -0.2380 -0.5395  0.8563
   40MOL0     H 5369   8.928   6.837   9.337  0.9794  0.2954  2.2919
   40MOL0     H 5370   8.811   6.921   9.606  0.3413  5.2362  2.0279
   40MOL0     H 5371   8.868   7.039   9.490 -0.6740  1.4639  3.0619
   40MOL0     H 5372   9.095   6.896   9.476  0.8054 -1.7301  0.6365
   40MOL0     H 5373   9.065   7.029   9.577 -1.7290 -0.0024  0.3488
   40MOL0     H 5374   9.021   6.884   9.782  0.6191 -1.6733  0.9322
   40MOL0     H 5375   9.167   6.840   9.711  0.3388 -1.3888 -1.1337
   40MOL0     H 5376   9.051   6.660   9.781  1.8025  2.9154  1.3030
   40MOL0     H 5377   8.935   6.691   9.657 -0.2764  3.0654  0.0199
   40MOL0     H 5378   9.117   6.659   9.470  0.0937  0.5603  0.2690
   40MOL0     H 5379   9.076   6.526   9.558  0.9162  0.4270 -1.8824
   40MOL0     H 5380   9.295   6.476   9.592 -1.9051 -0.7840  0.2657
   40MOL0     H 5381   9.284   6.585   9.727  0.9410  0.1757  0.0416
   40MOL0     H 5382   8.530   7.131   9.496 -0.7375 -1.8034  1.4758
   40MOL0     H 5383   8.355   7.276   9.391  0.8024  0.5886 -0.4475
   40MOL0     H 5384   8.105   7.427   9.231 -3.1000 -2.9924 -0.1121
   40MOL0     H 5385   7.946   7.594   9.199  0.0813  3.1528 -1.4225
   40MOL0     H 5386   6.563   8.057   8.394  0.3529  2.0745 -1.6993
   40MOL0     H 5387   6.671   8.088   8.180  0.4975  0.3176  1.1284
   40MOL0     H 5388   6.614   8.186   7.737  0.1929 -1.2270  0.3693
   40MOL0     H 5389   6.749   8.235   7.543 -2.3744 -0.7483 -2.8668
   40MOL0     H 5390   7.132   7.991   7.494 -1.7992 -0.6249  0.0970
   40MOL0     H 5391   7.032   7.938   7.355  0.1916  1.6073 -3.1904
   40MOL0     H 5392   7.186   8.185   7.343  0.4224 -1.0974  0.9987
   40MOL0     H 5393   7.043   8.150   7.237  0.3464 -3.8516 -1.2821
   40MOL0     H 5394   7.151   7.940   7.156  1.3343  0.3519 -2.4076
   40MOL0     H 5395   7.281   7.952   7.267 -1.2038  2.1680  3.2025
   40MOL0     H 5396   7.332   8.023   7.034 -0.8569  1.5220 -1.3394
   40MOL0     H 5397   7.382   8.124   7.166  0.3365 -2.1301 -0.1329
   40MOL0     H 5398   7.077   8.339   6.928 -1.5814 -1.7849  0.7373
   40MOL0     H 5399   6.951   7.855   7.581  0.2342  0.4753 -0.1867
   40MOL0     H 5400   6.788   7.795   7.760 -2.9866  1.2924 -0.3949
   41MOL0     O 5401   3.906   8.543  11.177  0.3338  0.4684  0.4805
   41MOL0     C 5402   3.887   8.653  11.217  0.7385  0.5726 -0.4824
   41MOL0     O 5403   3.965   8.763  11.219 -0.1559 -0.1431  0.1125
   41MOL0     C 5404   4.018   8.801  11.091  0.3982  0.4470 -0.0363
   41MOL0     C 5405   3.947   8.779  10.973 -0.2259  0.7964 -0.7316
   41MOL0     C 5406   4.005   8.821  10.856 -0.3062  0.1493  0.1568
   41MOL0     C 5407   4.133   8.884  10.848  0.6026  0.8858  0.1872
   41MOL0     O 5408   4.190   8.930  10.732 -0.2124  1.0072 -0.7909
   41MOL0     C 5409   4.103   8.930  10.620  0.2193  0.1609  0.0566
   41MOL0     C 5410   4.178   9.019  10.524 -0.5741  0.7830 -0.7860
   41MOL0     C 5411   4.122   9.043  10.389  0.3859 -0.1029 -0.2666
   41MOL0     C 5412   4.032   9.166  10.391  0.4365 -0.9792  0.7375
   41MOL0     C 5413   3.997   9.220  10.245 -0.0534  0.4274 -0.7405
   41MOL0     C 5414   3.892   9.343  10.252 -0.5501  0.9064 -0.3051
   41MOL0     C 5415   3.943   9.475  10.306 -0.5738 -0.1149  0.5587
   41MOL0     C 5416   3.827   9.560  10.351 -0.6214  0.1165  0.5076
   41MOL0     N 5417   3.753   9.629  10.242 -0.7203  0.7789 -0.2782
   41MOL0     C 5418   3.614   9.659  10.244  0.4088 -0.0588 -0.9985
   41MOL0     C 5419   3.591   9.740  10.137  0.5913 -0.7925  0.0803
   41MOL0     C 5420   3.467   9.802  10.087  0.4636 -1.1795 -0.7443
   41MOL0     C 5421   3.401   9.716   9.974  0.1333 -0.4652  0.9917
   41MOL0     C 5422   3.258   9.771   9.946 -0.6896 -0.1639 -0.5328
   41MOL0     C 5423   3.274   9.878   9.845  0.5173 -0.3940 -0.0435
   41MOL0     O 5424   3.147   9.911   9.808 -0.1521  0.6559  0.8888
   41MOL0     C 5425   3.121  10.030   9.737 -0.0861  0.1027 -0.2425
   41MOL0     C 5426   2.983  10.068   9.737  0.2085 -0.6231  0.6256
   41MOL0     C 5427   2.940  10.177   9.659  0.2198  0.1101  0.5467
   41MOL0     C 5428   2.792  10.210   9.660  0.1196  0.2964  0.1923
   41MOL0     C 5429   3.031  10.243   9.571 -0.4298 -0.4034 -0.3793
   41MOL0     C 5430   2.983  10.356   9.484  0.4268 -0.4092  0.8072
   41MOL0     O 5431   3.084  10.455   9.459  1.3375 -0.4367  0.8249
   41MOL0     C 5432   3.039  10.558   9.380  0.1415  0.2143 -0.2798
   41MOL0     C 5433   2.928  10.636   9.420  0.9758  0.0131  0.6058
   41MOL0     C 5434   2.885  10.738   9.342 -0.0926  0.0976 -0.5147
   41MOL0     C 5435   2.968  10.767   9.231 -0.8948 -0.1647 -0.3131
   41MOL0     O 5436   2.933  10.890   9.170 -0.4964  0.8917 -0.1185
   41MOL0     C 5437   3.004  10.947   9.054 -0.4618  0.1529 -0.8914
   41MOL0     C 5438   3.144  10.995   9.086  0.2644 -0.7105 -0.6927
   41MOL0     C 5439   3.192  11.111   8.994  0.0494  0.6108  0.2783
   41MOL0     C 5440   3.337  11.158   9.025  0.8977 -0.8580  0.0283
   41MOL0     C 5441   3.404  11.228   8.906  0.9509  0.5012 -0.1066
   41MOL0     C 5442   3.527  11.306   8.931  0.5576  0.3666 -0.7880
   41MOL0     C 5443   3.648  11.219   8.967  0.9789 -0.5182 -0.9838
   41MOL0     C 5444   3.783  11.270   8.921 -0.5889 -0.2495 -0.1030
   41MOL0    Cl 5445   3.790  11.449   8.973  0.2035  0.1588 -0.0825
   41MOL0     C 5446   3.079  10.690   9.190 -0.0517  0.3484  0.2583
   41MOL0     C 5447   3.110  10.594   9.272  0.9399  0.6810 -0.0122
   41MOL0     O 5448   2.868  10.357   9.443 -0.6490  0.0449  0.0320
   41MOL0     C 5449   3.167  10.210   9.578  0.3226 -0.2419 -0.0251
   41MOL0     C 5450   3.212  10.105   9.668  0.4314 -0.8037  0.3142
   41MOL0     N 5451   3.707   9.756  10.062 -0.2845 -0.4307 -0.6263
   41MOL0     N 5452   3.795   9.690  10.127 -0.2737 -0.3889  0.2409
   41MOL0     C 5453   4.199   8.900  10.965  0.2011  0.3985  0.6860
   41MOL0     C 5454   4.142   8.859  11.084 -0.4959  0.5891 -1.2663
   41MOL0     C 5455   3.747   8.664  11.281  0.1134  0.5746  0.2661
   41MOL0     C 5456   3.696   8.789  11.318 -0.6153 -0.1752  0.3322
   41MOL0     C 5457   3.571   8.802  11.379  0.9440  0.9094 -0.5640
   41MOL0     C 5458   3.487   8.683  11.406 -0.7056 -0.0825  0.5459
   41MOL0     O 5459   3.363   8.693  11.465 -0.0048  0.2526 -0.3329
   41MOL0     C 5460   3.290   8.821  11.469  0.0256 -0.0059 -0.7933
   41MOL0     C 5461   3.144   8.814  11.514 -0.0259  0.4488  0.0178
   41MOL0     C 5462   3.065   8.725  11.421 -0.5161  0.8091 -0.3627
   41MOL0     C 5463   2.918   8.717  11.450 -0.0761  0.0882 -0.2740
   41MOL0     C 5464   2.842   8.687  11.328  0.9085 -0.4724 -0.4983
   41MOL0     C 5465   2.772   8.667  11.229  0.1608  0.4527  0.2683
   41MOL0     C 5466   3.538   8.563  11.369  0.7654  0.1287 -0.1865
   41MOL0     C 5467   3.666   8.554  11.319  0.1912  0.0333  0.3740
   41MOL0     H 5468   3.846   8.737  10.975 -0.6026  1.6914 -0.3996
   41MOL0     H 5469   3.947   8.805  10.766  0.8585  1.3068 -0.8479
   41MOL0     H 5470   4.093   8.833  10.572 -2.3426  1.4597 -2.3264
   41MOL0     H 5471   4.006   8.978  10.640 -2.4137 -1.8075 -5.8472
   41MOL0     H 5472   4.204   9.110  10.579  0.8694  1.9740 -3.2738
   41MOL0     H 5473   4.273   8.970  10.506  0.1954  2.6653 -2.1953
   41MOL0     H 5474   4.204   9.067  10.321  0.6355 -0.4481 -0.0935
   41MOL0     H 5475   4.072   8.953  10.352  1.9189 -1.2308  0.3053
   41MOL0     H 5476   3.945   9.137  10.450  0.9523 -1.1109  1.4531
   41MOL0     H 5477   4.080   9.255  10.433 -3.0649  0.5414  1.9036
   41MOL0     H 5478   4.094   9.243  10.201  0.1937  1.8372  0.4405
   41MOL0     H 5479   3.957   9.136  10.187 -0.1054 -0.4884  0.5611
   41MOL0     H 5480   3.863   9.356  10.147  0.0676 -2.2139 -0.9651
   41MOL0     H 5481   3.805   9.303  10.305 -0.2177  1.2469  0.4992
   41MOL0     H 5482   4.017   9.461  10.385 -2.4329  0.8615  2.5655
   41MOL0     H 5483   3.994   9.530  10.226 -2.1289  1.3818  0.5445
   41MOL0     H 5484   3.874   9.634  10.417  1.6414  0.8886 -1.8070
   41MOL0     H 5485   3.757   9.498  10.408 -0.0571  0.8250  2.0069
   41MOL0     H 5486   3.541   9.613  10.309 -0.2275 -2.1679 -3.0746
   41MOL0     H 5487   3.399   9.820  10.171  0.1568 -3.3398 -0.4825
   41MOL0     H 5488   3.488   9.908  10.067 -1.1772 -1.0751 -2.1186
   41MOL0     H 5489   3.395   9.612  10.007  0.0327 -0.6111  0.5276
   41MOL0     H 5490   3.456   9.722   9.879 -0.1821 -0.4943  0.8061
   41MOL0     H 5491   3.215   9.814  10.037 -2.1186  0.8422 -1.6324
   41MOL0     H 5492   3.195   9.693   9.903  0.4299 -1.3385 -0.0828
   41MOL0     H 5493   3.313   9.825   9.757 -0.4731 -1.7210  0.2758
   41MOL0     H 5494   3.322   9.970   9.877 -0.2338 -0.5405  1.5855
   41MOL0     H 5495   2.918  10.008   9.799 -0.6318  1.4131  1.8365
   41MOL0     H 5496   2.739  10.149   9.735 -0.2715  0.9970  0.4956
   41MOL0     H 5497   2.784  10.316   9.685  2.3077  0.3820  0.6614
   41MOL0     H 5498   2.755  10.197   9.558 -1.6748  2.8071  0.4331
   41MOL0     H 5499   2.874  10.615   9.512 -2.7866 -1.6548 -1.7343
   41MOL0     H 5500   2.790  10.783   9.367  0.6760  1.4324  0.1370
   41MOL0     H 5501   3.012  10.872   8.975  1.5232  1.1361 -1.6952
   41MOL0     H 5502   2.936  11.021   9.010 -1.3787 -0.1774 -0.0603
   41MOL0     H 5503   3.136  11.043   9.184 -0.0481  0.7219 -1.4084
   41MOL0     H 5504   3.221  10.918   9.097 -1.0234 -1.6720  3.3039
   41MOL0     H 5505   3.130  11.201   8.996  2.3365  2.2698  0.3608
   41MOL0     H 5506   3.187  11.065   8.895  0.3661  3.0509 -0.9550
   41MOL0     H 5507   3.335  11.223   9.114  1.2259 -3.4211  2.0191
   41MOL0     H 5508   3.405  11.073   9.039  2.7996  0.7575  1.3413
   41MOL0     H 5509   3.340  11.291   8.842  0.4513 -0.5526 -0.6682
   41MOL0     H 5510   3.437  11.146   8.842  0.8558  1.2965 -1.2001
   41MOL0     H 5511   3.545  11.360   8.838 -0.8163  1.0775 -0.6731
   41MOL0     H 5512   3.513  11.375   9.016 -0.1191 -3.1083  2.1587
   41MOL0     H 5513   3.623  11.119   8.928  0.0481 -0.5241 -0.4000
   41MOL0     H 5514   3.645  11.209   9.076  0.8423  0.4249 -0.9009
   41MOL0     H 5515   3.798  11.272   8.812  2.0893  0.2842  0.2163
   41MOL0     H 5516   3.872  11.217   8.955  1.1224  2.9766  0.8744
   41MOL0     H 5517   3.135  10.712   9.100 -1.1952 -3.1486 -1.4848
   41MOL0     H 5518   3.202  10.536   9.259  0.2511 -0.3795 -0.3503
   41MOL0     H 5519   3.248  10.267   9.533  2.1163 -2.0320  0.7966
   41MOL0     H 5520   3.319  10.091   9.662  0.3699 -1.1065 -0.1704
   41MOL0     H 5521   4.298   8.944  10.971  0.2735  0.0274  2.5129
   41MOL0     H 5522   4.199   8.868  11.176  0.0877  0.9491 -1.6625
   41MOL0     H 5523   3.746   8.884  11.302  0.1686 -0.7574 -0.7687
   41MOL0     H 5524   3.534   8.900  11.407  1.5882  0.8911  0.3765
   41MOL0     H 5525   3.345   8.882  11.541 -1.9886 -0.7380  1.4887
   41MOL0     H 5526   3.279   8.874  11.374  0.5359 -0.3008 -1.0250
   41MOL0     H 5527   3.112   8.918  11.512 -1.5662  0.0409 -3.2732
   41MOL0     H 5528   3.148   8.779  11.618  0.7255  2.0424  0.5524
   41MOL0     H 5529   3.110   8.625  11.416  0.3200  1.2103 -1.1965
   41MOL0     H 5530   3.074   8.774  11.323 -0.3568  0.8616 -0.3216
   41MOL0     H 5531   2.868   8.810  11.478 -2.1208 -0.8449 -0.6929
   41MOL0     H 5532   2.892   8.640  11.522 -1.7953  1.4244  0.6272
   41MOL0     H 5533   2.699   8.661  11.150 -0.6016 -0.1155  0.9960
   41MOL0     H 5534   3.471   8.482  11.395 -0.1812  0.7726 -0.5673
   41MOL0     H 5535   3.704   8.456  11.294  1.2255 -0.0356  2.0473
   42MOL0     O 5536   4.770   4.331   7.281 -0.3396 -0.3042 -0.3503
   42MOL0     C 5537   4.727   4.445   7.275  0.6723 -0.3020  0.8625
   42MOL0     O 5538   4.658   4.492   7.166 -0.2563  0.6427 -0.7629
   42MOL0     C 5539   4.634   4.419   7.051  0.2716 -0.1834  1.5061
   42MOL0     C 5540   4.590   4.497   6.949 -0.3033 -0.0195  0.2415
   42MOL0     C 5541   4.551   4.459   6.824 -0.6170  0.8492 -0.0984
   42MOL0     C 5542   4.547   4.320   6.802  0.1575  0.3787 -0.4773
   42MOL0     O 5543   4.480   4.284   6.689 -0.8343  0.0010 -1.3443
   42MOL0     C 5544   4.442   4.146   6.669 -0.0587 -1.4274 -0.6699
   42MOL0     C 5545   4.395   4.125   6.528 -0.2670  0.0554  0.0564
   42MOL0     C 5546   4.277   4.221   6.501 -0.2907 -0.4792  0.5589
   42MOL0     C 5547   4.222   4.201   6.356  0.2800  0.4742  0.7893
   42MOL0     C 5548   4.133   4.322   6.301 -0.2775 -0.2655 -0.1402
   42MOL0     C 5549   4.206   4.456   6.277  0.2065  0.1919 -0.0022
   42MOL0     C 5550   4.308   4.449   6.148  0.5108 -0.2963  0.1051
   42MOL0     C 5551   4.344   4.594   6.097 -0.8137  0.3848 -0.6443
   42MOL0     N 5552   4.342   4.596   5.952 -0.4837 -0.0524  0.0846
   42MOL0     C 5553   4.413   4.518   5.870 -0.0018  0.0926  1.1772
   42MOL0     C 5554   4.347   4.519   5.756 -0.2465 -0.5887  1.4692
   42MOL0     C 5555   4.350   4.425   5.635 -0.1941  0.2379 -0.4510
   42MOL0     C 5556   4.363   4.496   5.507 -0.7017  0.3270  0.0534
   42MOL0     C 5557   4.510   4.531   5.476 -0.2220 -0.0085  0.0244
   42MOL0     C 5558   4.568   4.665   5.529 -0.4694 -0.1816 -0.3164
   42MOL0     O 5559   4.526   4.783   5.451 -0.7544  0.0461  0.0723
   42MOL0     C 5560   4.590   4.812   5.327 -0.4471 -0.8186 -0.2203
   42MOL0     C 5561   4.667   4.725   5.251 -0.3719 -0.9218  0.2467
   42MOL0     C 5562   4.731   4.764   5.130  0.4292 -0.2308 -0.9798
   42MOL0     C 5563   4.803   4.657   5.059 -0.1161 -1.0462 -0.1358
   42MOL0     C 5564   4.711   4.899   5.080 -0.7304 -0.4387 -0.1716
   42MOL0     C 5565   4.769   4.949   4.949  0.3111 -0.4141 -0.1357
   42MOL0     O 5566   4.736   5.083   4.920  0.2641  0.1260  0.0500
   42MOL0     C 5567   4.760   5.140   4.797 -1.1029 -0.9311  0.7113
   42MOL0     C 5568   4.665   5.207   4.729  0.4014  0.0730 -0.2863
   42MOL0     C 5569   4.704   5.277   4.613  0.4961  0.3639  0.2910
   42MOL0     C 5570   4.837   5.290   4.577 -0.4488  0.7210 -0.3846
   42MOL0     O 5571   4.885   5.375   4.482 -0.2871  1.0114 -0.3013
   42MOL0     C 5572   4.815   5.482   4.431  0.1368 -0.3776  0.9134
   42MOL0     C 5573   4.857   5.500   4.276 -0.7649 -0.1661 -0.8350
   42MOL0     C 5574   4.788   5.623   4.221 -0.6024 -0.1229 -0.1507
   42MOL0     C 5575   4.773   5.617   4.072 -0.7264  0.5585  0.6786
   42MOL0     C 5576   4.687   5.733   4.010 -0.2792 -0.0081 -0.1041
   42MOL0     C 5577   4.702   5.743   3.846 -0.5753  0.3784 -0.8243
   42MOL0     C 5578   4.654   5.619   3.769 -0.3503  0.4206  0.1662
   42MOL0     C 5579   4.763   5.528   3.696 -0.1718 -0.0331 -0.1052
   42MOL0    Cl 5580   4.862   5.450   3.823  0.6301 -0.4918  0.4425
   42MOL0     C 5581   4.935   5.217   4.646  0.1673 -0.2960  0.0976
   42MOL0     C 5582   4.901   5.147   4.753 -0.4330  0.8119  0.3955
   42MOL0     O 5583   4.851   4.879   4.884  0.3991 -0.5559 -0.1574
   42MOL0     C 5584   4.628   4.985   5.157 -0.1845  0.4791 -0.5277
   42MOL0     C 5585   4.565   4.941   5.276 -1.2950 -0.1794  0.9032
   42MOL0     N 5586   4.229   4.604   5.761 -0.7446 -0.3452 -0.5131
   42MOL0     N 5587   4.230   4.649   5.881 -0.0675 -0.2318  0.6892
   42MOL0     C 5588   4.578   4.229   6.911 -0.0660  0.9351 -0.6493
   42MOL0     C 5589   4.624   4.280   7.032 -0.0632 -0.4512 -0.2140
   42MOL0     C 5590   4.749   4.542   7.381 -0.4328  0.0400 -0.4830
   42MOL0     C 5591   4.790   4.506   7.511  0.3648 -0.6617 -0.0563
   42MOL0     C 5592   4.814   4.588   7.619 -0.0308  0.1359 -0.3626
   42MOL0     C 5593   4.799   4.727   7.599  0.3172  0.4287  0.2968
   42MOL0     O 5594   4.819   4.824   7.701  0.8659 -0.1466 -0.0891
   42MOL0     C 5595   4.858   4.775   7.831  0.0132 -0.6342 -0.3077
   42MOL0     C 5596   4.868   4.883   7.927 -0.1528 -0.9287  0.7141
   42MOL0     C 5597   4.971   4.989   7.869  0.2980  0.2814 -0.9578
   42MOL0     C 5598   4.983   5.103   7.970  0.3006 -0.8867  0.5185
   42MOL0     C 5599   5.020   5.053   8.103 -0.1188  0.4825  0.1838
   42MOL0     C 5600   5.054   5.024   8.220  0.0031 -0.4074  0.0539
   42MOL0     C 5601   4.736   4.766   7.483 -0.2873 -0.3791  0.4395
   42MOL0     C 5602   4.710   4.678   7.379 -0.8670 -0.1867 -0.1076
   42MOL0     H 5603   4.604   4.602   6.973 -0.9205 -0.1758  1.3887
   42MOL0     H 5604   4.525   4.526   6.743 -1.6661 -1.1535 -1.5018
   42MOL0     H 5605   4.514   4.066   6.686 -0.3348 -1.3147  1.2554
   42MOL0     H 5606   4.355   4.137   6.734 -2.4519 -3.1432 -3.7830
   42MOL0     H 5607   4.471   4.140   6.450  0.7254  1.2243  1.2031
   42MOL0     H 5608   4.351   4.025   6.522  0.1140 -0.2648  2.1002
   42MOL0     H 5609   4.192   4.214   6.570 -1.4372  1.0541 -0.6167
   42MOL0     H 5610   4.316   4.323   6.505 -2.8880  0.6823 -0.8178
   42MOL0     H 5611   4.299   4.188   6.279 -1.5255 -0.9245 -0.8699
   42MOL0     H 5612   4.168   4.107   6.351  3.8863 -1.8490  1.5178
   42MOL0     H 5613   4.080   4.290   6.211 -1.8299 -0.7312  0.8950
   42MOL0     H 5614   4.053   4.342   6.374  1.2625  1.6923  1.1164
   42MOL0     H 5615   4.134   4.538   6.270  0.7532  0.5141 -2.7444
   42MOL0     H 5616   4.254   4.473   6.374 -1.8475 -1.7758  1.4775
   42MOL0     H 5617   4.399   4.391   6.166 -1.8625 -3.6202  2.6894
   42MOL0     H 5618   4.255   4.398   6.067 -0.0191 -2.7382  1.8716
   42MOL0     H 5619   4.441   4.620   6.142 -0.3132 -3.4414  0.8310
   42MOL0     H 5620   4.280   4.674   6.134 -2.6448 -0.8850 -0.9277
   42MOL0     H 5621   4.495   4.458   5.907  0.6445  2.5716  4.1800
   42MOL0     H 5622   4.438   4.361   5.645  0.6268  1.3771 -0.2571
   42MOL0     H 5623   4.254   4.373   5.631  0.9798 -2.4355  2.1550
   42MOL0     H 5624   4.305   4.588   5.506  0.0964  0.8574  0.9980
   42MOL0     H 5625   4.320   4.430   5.431 -0.2573  0.2337 -0.1221
   42MOL0     H 5626   4.514   4.542   5.367  1.8481  1.0896  0.1617
   42MOL0     H 5627   4.566   4.440   5.500  0.3961 -0.2623 -2.1786
   42MOL0     H 5628   4.677   4.658   5.521 -0.5170 -1.6596 -0.0447
   42MOL0     H 5629   4.546   4.673   5.636  2.4049  2.0671  0.2397
   42MOL0     H 5630   4.677   4.624   5.288 -1.3063 -0.2524  2.4701
   42MOL0     H 5631   4.761   4.654   4.958 -5.2960 -2.7951  1.7387
   42MOL0     H 5632   4.906   4.690   5.052  0.3170 -2.5206 -1.2380
   42MOL0     H 5633   4.805   4.561   5.112  0.2304 -0.6904  0.4989
   42MOL0     H 5634   4.566   5.211   4.773  0.6109  1.7912  0.1143
   42MOL0     H 5635   4.630   5.318   4.545 -0.8612 -3.6404 -0.9305
   42MOL0     H 5636   4.706   5.471   4.436 -0.1189  2.1190  1.9812
   42MOL0     H 5637   4.850   5.562   4.495  1.2274 -0.8879  0.9752
   42MOL0     H 5638   4.964   5.523   4.283 -0.8034 -0.1014 -0.4429
   42MOL0     H 5639   4.830   5.407   4.227 -3.6248 -2.6514  4.5663
   42MOL0     H 5640   4.850   5.709   4.251 -0.2501  0.1376 -1.5384
   42MOL0     H 5641   4.687   5.627   4.261 -0.8026  0.8421 -0.6981
   42MOL0     H 5642   4.874   5.628   4.030 -1.7019 -1.3749 -2.5497
   42MOL0     H 5643   4.737   5.518   4.044  0.0647  0.4903 -0.1385
   42MOL0     H 5644   4.722   5.826   4.057  0.7761 -1.4634  2.1575
   42MOL0     H 5645   4.584   5.711   4.038 -1.2548  1.9920 -1.8093
   42MOL0     H 5646   4.631   5.821   3.816 -1.5849 -0.9191 -1.9055
   42MOL0     H 5647   4.798   5.776   3.805 -1.1389  0.5445 -2.0695
   42MOL0     H 5648   4.604   5.669   3.686  1.7972  1.7869 -0.3729
   42MOL0     H 5649   4.581   5.565   3.831  0.3706 -0.9081 -0.1121
   42MOL0     H 5650   4.823   5.587   3.625 -0.9668 -0.2262 -0.9489
   42MOL0     H 5651   4.706   5.447   3.650 -0.3140 -0.5221  0.9158
   42MOL0     H 5652   5.039   5.227   4.617  0.5231  0.6072  1.5601
   42MOL0     H 5653   4.978   5.099   4.812 -1.6175 -1.1327  0.4402
   42MOL0     H 5654   4.621   5.089   5.127 -1.5202  0.4906 -0.2196
   42MOL0     H 5655   4.499   5.003   5.337 -1.1926 -0.5962  1.4499
   42MOL0     H 5656   4.572   4.121   6.908 -1.4070  0.8667  1.8330
   42MOL0     H 5657   4.642   4.216   7.117 -0.0984 -1.6042 -1.0560
   42MOL0     H 5658   4.804   4.401   7.536 -0.1107 -1.0822 -1.4511
   42MOL0     H 5659   4.841   4.547   7.716 -0.7659  0.9702  0.2126
   42MOL0     H 5660   4.782   4.704   7.865  1.7239 -1.3176  2.3319
   42MOL0     H 5661   4.958   4.730   7.832  1.4294  2.2766  0.0126
   42MOL0     H 5662   4.898   4.841   8.023  0.8724 -1.7905  0.0452
   42MOL0     H 5663   4.770   4.932   7.933  0.6145  0.9158 -0.7084
   42MOL0     H 5664   4.926   5.031   7.779 -3.9803 -0.3135  0.6927
   42MOL0     H 5665   5.072   4.951   7.847  0.8252  0.5324  0.9078
   42MOL0     H 5666   4.905   5.179   7.970  0.7065 -0.4645  0.3065
   42MOL0     H 5667   5.067   5.166   7.940 -2.9076  2.7859 -1.6806
   42MOL0     H 5668   5.091   4.998   8.316 -0.5006 -1.2549  0.0261
   42MOL0     H 5669   4.714   4.873   7.482 -0.9435 -0.4998 -0.9273
   42MOL0     H 5670   4.659   4.712   7.289 -1.8405 -0.9077  0.1478
   43MOL0     O 5671   1.856   1.296   0.794  0.1770  0.5608 -0.3274
   43MOL0     C 5672   1.756   1.371   0.793 -0.1530  0.6886 -0.3315
   43MOL0     O 5673   1.752   1.509   0.810 -0.3243 -0.3317  0.1373
   43MOL0     C 5674   1.874   1.574   0.840 -1.5003  0.9077  0.0673
   43MOL0     C 5675   1.979   1.510   0.902 -0.6411  0.3105  1.5350
   43MOL0     C 5676   2.092   1.581   0.912 -0.2744 -0.5922  0.3611
   43MOL0     C 5677   2.114   1.705   0.853 -1.0048  0.8230  0.5930
   43MOL0     O 5678   2.225   1.780   0.870  0.4504 -0.0989  0.0059
   43MOL0     C 5679   2.352   1.712   0.877 -0.0562  0.9747  0.6112
   43MOL0     C 5680   2.464   1.810   0.881 -0.6713  0.3044 -0.5109
   43MOL0     C 5681   2.484   1.875   1.021 -0.9110 -0.2067  0.2719
   43MOL0     C 5682   2.606   1.969   1.015 -0.5266 -0.7704  0.1495
   43MOL0     C 5683   2.625   2.036   1.150 -0.3528  0.6784 -0.8825
   43MOL0     C 5684   2.502   2.113   1.211  0.4384  0.6645  0.2363
   43MOL0     C 5685   2.417   2.030   1.317  0.2227  0.4461 -0.4972
   43MOL0     C 5686   2.324   2.118   1.401 -0.9718 -0.6989 -0.3939
   43MOL0     N 5687   2.401   2.221   1.478  1.0110  0.0442 -0.4433
   43MOL0     C 5688   2.527   2.215   1.543 -0.1846  0.4227 -0.7015
   43MOL0     C 5689   2.556   2.334   1.586 -0.0408 -0.3428  0.3860
   43MOL0     C 5690   2.675   2.380   1.663 -1.2062 -0.1493  0.3973
   43MOL0     C 5691   2.775   2.470   1.577 -1.2751 -0.3222  0.5905
   43MOL0     C 5692   2.742   2.625   1.600  0.7838  0.3585  0.2773
   43MOL0     C 5693   2.825   2.704   1.496  1.4828  0.5140  0.2971
   43MOL0     O 5694   2.825   2.841   1.531 -0.4242 -0.5028  0.0664
   43MOL0     C 5695   2.945   2.904   1.538 -0.3304  0.6983  0.4608
   43MOL0     C 5696   2.975   2.961   1.655  0.9165 -0.4517  0.4870
   43MOL0     C 5697   3.097   3.026   1.675 -0.1795 -0.7123  0.5387
   43MOL0     C 5698   3.120   3.088   1.810  0.1715 -0.8122 -0.2681
   43MOL0     C 5699   3.190   3.034   1.571  0.2461  0.4635 -0.3640
   43MOL0     C 5700   3.316   3.116   1.585 -0.1847 -0.0322  0.9270
   43MOL0     O 5701   3.338   3.214   1.677  0.2717  0.2966  0.8942
   43MOL0     C 5702   3.449   3.294   1.673 -1.3643  0.3245  0.0267
   43MOL0     C 5703   3.469   3.387   1.573 -0.0164 -0.3257  0.1552
   43MOL0     C 5704   3.560   3.488   1.591  1.1334  0.0187  0.0165
   43MOL0     C 5705   3.654   3.486   1.693  0.5076 -0.7902  0.7406
   43MOL0     O 5706   3.745   3.590   1.708  0.2208  0.5533  0.2256
   43MOL0     C 5707   3.862   3.561   1.791  1.3613 -0.6335 -0.3598
   43MOL0     C 5708   3.809   3.611   1.929 -0.1605  0.4223 -0.1703
   43MOL0     C 5709   3.826   3.754   1.949 -0.5178  0.0152  0.3448
   43MOL0     C 5710   3.965   3.798   1.985 -0.5016 -0.8401 -0.2879
   43MOL0     C 5711   3.985   3.950   1.956  0.1445 -0.0882  1.0047
   43MOL0     C 5712   3.895   4.038   2.032  0.4643 -0.2862 -0.4286
   43MOL0     C 5713   3.906   4.181   1.980 -0.0581  0.2128 -0.3990
   43MOL0     C 5714   3.826   4.206   1.849 -0.6129 -0.2050  0.0753
   43MOL0    Cl 5715   3.908   4.338   1.759 -0.0302 -0.6071 -0.2467
   43MOL0     C 5716   3.629   3.383   1.792 -0.3349 -0.4380 -0.9594
   43MOL0     C 5717   3.535   3.296   1.785 -0.6318  0.2998  0.8630
   43MOL0     O 5718   3.403   3.087   1.503  0.5630 -0.0253 -0.7711
   43MOL0     C 5719   3.150   2.980   1.452  0.2842 -0.1101  0.7274
   43MOL0     C 5720   3.035   2.909   1.429  0.2477  0.5692  0.1795
   43MOL0     N 5721   2.455   2.415   1.544  0.1278 -0.1386 -0.7432
   43MOL0     N 5722   2.368   2.354   1.480  0.0889 -0.1399  0.3546
   43MOL0     C 5723   2.010   1.767   0.787 -0.1851 -0.9356 -0.1161
   43MOL0     C 5724   1.886   1.701   0.782 -0.0321  0.7931 -0.1828
   43MOL0     C 5725   1.627   1.298   0.772 -0.6943 -0.2218  0.0734
   43MOL0     C 5726   1.524   1.360   0.712  0.9102 -0.4783  0.4751
   43MOL0     C 5727   1.399   1.291   0.697  0.0461  0.5849  0.4492
   43MOL0     C 5728   1.383   1.155   0.737 -0.7445  0.4173 -0.1267
   43MOL0     O 5729   1.258   1.093   0.727 -0.1856 -0.1059  0.8315
   43MOL0     C 5730   1.246   0.950   0.760  0.0598 -0.0094  0.2174
   43MOL0     C 5731   1.112   0.880   0.724 -1.4077 -0.3374 -0.0597
   43MOL0     C 5732   0.995   0.977   0.742  1.1540 -0.0533 -0.6388
   43MOL0     C 5733   0.854   0.905   0.720  0.2372  0.8365  0.1893
   43MOL0     C 5734   0.843   0.849   0.581 -0.2323 -0.5921 -0.0360
   43MOL0     C 5735   0.826   0.804   0.471  0.1720  0.9916 -0.3956
   43MOL0     C 5736   1.503   1.091   0.795  0.4285 -0.5118  0.0578
   43MOL0     C 5737   1.618   1.170   0.821  0.3656  0.1861 -0.3406
   43MOL0     H 5738   1.982   1.412   0.949  0.6536 -0.1498  0.5269
   43MOL0     H 5739   2.165   1.530   0.975 -1.5009 -1.9235  0.7514
   43MOL0     H 5740   2.357   1.633   0.953 -1.7687 -1.2172 -1.4229
   43MOL0     H 5741   2.359   1.655   0.785 -3.3353 -0.2756  0.9915
   43MOL0     H 5742   2.558   1.764   0.850 -0.7412 -0.4155  0.2912
   43MOL0     H 5743   2.452   1.895   0.813 -1.6785  0.5093 -0.1005
   43MOL0     H 5744   2.393   1.929   1.047 -0.6190 -0.0042  0.8822
   43MOL0     H 5745   2.515   1.794   1.088  2.5658  1.9771  1.5768
   43MOL0     H 5746   2.696   1.910   0.992  1.2886  0.8516  2.6058
   43MOL0     H 5747   2.583   2.045   0.941  1.5918 -0.7797 -0.5856
   43MOL0     H 5748   2.648   1.956   1.221 -0.3769  0.6208 -0.9386
   43MOL0     H 5749   2.710   2.104   1.143 -1.0404  2.2917  3.3794
   43MOL0     H 5750   2.542   2.202   1.261 -0.8857  0.9740  0.7793
   43MOL0     H 5751   2.436   2.138   1.127 -1.7728 -1.7951  1.1288
   43MOL0     H 5752   2.353   1.966   1.255  3.7893 -1.6680 -2.3247
   43MOL0     H 5753   2.480   1.971   1.384  1.0015  0.7521 -0.9387
   43MOL0     H 5754   2.255   2.057   1.460 -0.5391 -0.8000  0.0124
   43MOL0     H 5755   2.263   2.173   1.329  0.3001  2.4067  0.7122
   43MOL0     H 5756   2.592   2.130   1.559 -0.7480 -0.1986 -1.6196
   43MOL0     H 5757   2.634   2.441   1.744 -1.0619  0.4817  0.0079
   43MOL0     H 5758   2.728   2.292   1.699 -0.9530 -0.6079 -1.0325
   43MOL0     H 5759   2.771   2.445   1.471  4.4077  0.5562 -0.1603
   43MOL0     H 5760   2.879   2.449   1.604 -1.0183  0.5209  0.3141
   43MOL0     H 5761   2.753   2.670   1.699  2.1110 -0.8442  0.7109
   43MOL0     H 5762   2.634   2.642   1.593  0.6026  0.4541  2.6267
   43MOL0     H 5763   2.776   2.691   1.400  1.1572  0.5758  0.4552
   43MOL0     H 5764   2.926   2.661   1.489  1.5212  0.7808 -0.9588
   43MOL0     H 5765   2.894   2.953   1.727 -1.7628  0.3179 -2.2543
   43MOL0     H 5766   3.043   3.049   1.876 -0.5465 -0.6874 -1.0184
   43MOL0     H 5767   3.215   3.056   1.853  1.6266  1.7638 -1.3508
   43MOL0     H 5768   3.128   3.196   1.794  2.7379 -1.1036 -1.4785
   43MOL0     H 5769   3.399   3.395   1.490  0.7545  0.8075 -0.3990
   43MOL0     H 5770   3.564   3.569   1.519 -1.3382  0.9584  0.8157
   43MOL0     H 5771   3.889   3.455   1.795  2.3844 -0.3845 -0.6142
   43MOL0     H 5772   3.938   3.629   1.752 -2.2969  3.9790 -0.4556
   43MOL0     H 5773   3.702   3.591   1.938  0.0782 -2.0412 -2.0374
   43MOL0     H 5774   3.860   3.558   2.010 -1.5342  0.0345  0.4518
   43MOL0     H 5775   3.768   3.791   2.034 -1.1757  1.4079 -0.6743
   43MOL0     H 5776   3.779   3.803   1.863  0.1199 -3.2084 -2.0183
   43MOL0     H 5777   3.993   3.763   2.085  0.2094 -5.5416 -1.8863
   43MOL0     H 5778   4.035   3.749   1.917 -1.4958 -1.3383 -0.9740
   43MOL0     H 5779   3.979   3.965   1.848 -1.6714  0.6380  1.1839
   43MOL0     H 5780   4.085   3.987   1.982  0.2492  1.1197 -0.9039
   43MOL0     H 5781   3.788   4.016   2.027  0.0759  0.4445  2.7932
   43MOL0     H 5782   3.927   4.041   2.136  1.6732  0.5980 -0.8012
   43MOL0     H 5783   4.012   4.211   1.979  0.5116 -1.6862 -0.4493
   43MOL0     H 5784   3.868   4.250   2.056  0.8192  0.2287  0.0450
   43MOL0     H 5785   3.727   4.245   1.872  0.3417  0.6416  3.3572
   43MOL0     H 5786   3.815   4.121   1.782 -2.5346  1.1707 -1.4610
   43MOL0     H 5787   3.707   3.372   1.866 -0.5077  2.7930 -0.1722
   43MOL0     H 5788   3.508   3.238   1.873 -1.3058  3.1203  2.6399
   43MOL0     H 5789   3.220   2.996   1.371  0.3886 -2.9998  0.1159
   43MOL0     H 5790   3.007   2.878   1.329 -0.8860  0.0720  0.6319
   43MOL0     H 5791   2.028   1.868   0.752  2.3036 -0.4465  2.2201
   43MOL0     H 5792   1.802   1.737   0.723  0.2739 -1.6664 -2.2840
   43MOL0     H 5793   1.528   1.456   0.662  3.9174 -0.7713 -0.0710
   43MOL0     H 5794   1.310   1.334   0.653 -1.6625 -1.5094  1.6088
   43MOL0     H 5795   1.332   0.905   0.708  2.5529  2.3691  2.0092
   43MOL0     H 5796   1.255   0.931   0.867  1.7005 -0.5794  0.0149
   43MOL0     H 5797   1.107   0.810   0.808 -1.8724  0.4113  0.5587
   43MOL0     H 5798   1.115   0.842   0.622 -2.9232 -0.5826 -0.0424
   43MOL0     H 5799   1.006   1.062   0.674 -1.6747  1.9771  1.1851
   43MOL0     H 5800   0.994   1.020   0.843  2.3251 -0.1665 -0.5622
   43MOL0     H 5801   0.771   0.973   0.737 -0.2946  0.4247 -0.6771
   43MOL0     H 5802   0.855   0.823   0.792  2.6413  0.8365  0.2391
   43MOL0     H 5803   0.819   0.760   0.374  0.5432 -0.4923  0.2333
   43MOL0     H 5804   1.484   0.991   0.835 -1.3732  1.0827  3.6011
   43MOL0     H 5805   1.698   1.123   0.878  0.8910  0.2216 -1.0372
   44MOL0     O 5806   9.749   0.391   1.092 -0.2571 -0.1103  0.0063
   44MOL0     C 5807   9.799   0.292   1.154 -1.1785 -0.8132 -0.7830
   44MOL0     O 5808   9.764   0.264   1.285 -0.9556 -0.4746 -0.2377
   44MOL0     C 5809   9.655   0.319   1.343  0.3798 -0.2174  1.0472
   44MOL0     C 5810   9.629   0.460   1.335 -1.0754 -0.7954 -1.0707
   44MOL0     C 5811   9.511   0.507   1.399 -0.1579  0.2120 -0.0525
   44MOL0     C 5812   9.418   0.422   1.465  0.5022 -0.1288  0.6640
   44MOL0     O 5813   9.302   0.468   1.520 -0.0989 -0.2715  1.1249
   44MOL0     C 5814   9.180   0.401   1.465  0.1764  0.0626  0.6990
   44MOL0     C 5815   9.055   0.495   1.432 -0.4275  0.5557 -0.2825
   44MOL0     C 5816   8.993   0.561   1.561 -0.1366  0.6407  0.4479
   44MOL0     C 5817   8.873   0.479   1.610  0.2890  0.0972  0.3956
   44MOL0     C 5818   8.848   0.516   1.753 -0.8265  0.0515 -0.1339
   44MOL0     C 5819   8.741   0.417   1.809 -0.9103  0.7063 -0.8656
   44MOL0     C 5820   8.700   0.476   1.941  0.2575  0.4422  0.4975
   44MOL0     C 5821   8.573   0.404   2.001  0.2050 -0.3912  1.2498
   44MOL0     N 5822   8.583   0.402   2.147 -0.4347 -0.1111 -0.4093
   44MOL0     C 5823   8.564   0.517   2.225  0.4308  0.4697 -0.7477
   44MOL0     C 5824   8.624   0.488   2.340  0.2663  0.5037 -0.2369
   44MOL0     C 5825   8.640   0.591   2.449  0.1601 -0.3835  0.0938
   44MOL0     C 5826   8.734   0.704   2.417  0.2290 -0.3380  0.4100
   44MOL0     C 5827   8.876   0.649   2.376  1.0043 -0.2851  0.8459
   44MOL0     C 5828   8.983   0.748   2.367 -0.2617  0.0841 -0.8014
   44MOL0     O 5829   9.053   0.726   2.249 -0.8264  0.3487 -0.5509
   44MOL0     C 5830   9.138   0.621   2.232  0.4376 -0.5353 -0.2321
   44MOL0     C 5831   9.148   0.575   2.100  0.5635  0.4559 -0.3220
   44MOL0     C 5832   9.245   0.479   2.070  0.3437  0.0982 -0.9772
   44MOL0     C 5833   9.262   0.429   1.923  0.5882 -0.3875  1.1870
   44MOL0     C 5834   9.328   0.423   2.177  0.1936 -0.6788  0.4760
   44MOL0     C 5835   9.431   0.314   2.148  0.5085 -0.0632  0.0960
   44MOL0     O 5836   9.410   0.225   2.039  0.6467 -0.3428 -0.6291
   44MOL0     C 5837   9.493   0.121   2.021  0.0682  0.9159  0.0263
   44MOL0     C 5838   9.497   0.089   1.885  0.6827  0.0517  0.2249
   44MOL0     C 5839   9.557  -0.028   1.840 -0.4205 -0.3661 -0.7381
   44MOL0     C 5840   9.633  -0.099   1.927 -0.3156  0.2841 -1.0809
   44MOL0     O 5841   9.728  -0.181   1.876  0.5767  0.8133 -0.1573
   44MOL0     C 5842   9.674  -0.300   1.830 -0.4863  0.2902  0.0232
   44MOL0     C 5843   9.671  -0.412   1.944 -0.6668 -0.2941  0.0509
   44MOL0     C 5844   9.805  -0.414   2.025  0.0783  0.3758  0.0859
   44MOL0     C 5845   9.800  -0.513   2.143 -0.3650  0.0694  0.7316
   44MOL0     C 5846   9.941  -0.537   2.209  0.8207  0.2440  0.2316
   44MOL0     C 5847   9.924  -0.643   2.317  0.0039  0.1581  0.2990
   44MOL0     C 5848  10.059  -0.694   2.369 -0.3450  0.4167 -0.1456
   44MOL0     C 5849  10.056  -0.806   2.488 -0.3270  0.3543  0.2362
   44MOL0    Cl 5850  10.217  -0.880   2.524  0.2645 -0.2068  0.1122
   44MOL0     C 5851   9.634  -0.070   2.066 -0.4879 -0.5340 -0.1036
   44MOL0     C 5852   9.556   0.031   2.115  0.2561  0.3887 -1.5699
   44MOL0     O 5853   9.528   0.318   2.218  0.2163 -0.3714  0.2539
   44MOL0     C 5854   9.308   0.471   2.310 -0.6455 -1.3106  0.9109
   44MOL0     C 5855   9.224   0.572   2.333  0.1431  0.9900  0.8394
   44MOL0     N 5856   8.667   0.355   2.338  0.1415 -0.6965 -0.0743
   44MOL0     N 5857   8.640   0.305   2.226  0.0562 -0.6884  0.4058
   44MOL0     C 5858   9.447   0.289   1.470  0.1080 -0.3698  0.7920
   44MOL0     C 5859   9.569   0.245   1.416 -0.0352  0.2034  0.4116
   44MOL0     C 5860   9.923   0.232   1.098  0.1877 -0.9466  0.6459
   44MOL0     C 5861  10.007   0.147   1.167 -0.1538 -0.2284 -0.0969
   44MOL0     C 5862  10.119   0.085   1.118  0.3821 -0.1854 -0.6271
   44MOL0     C 5863  10.177   0.146   1.005  0.5651  0.5787 -0.2297
   44MOL0     O 5864  10.296   0.123   0.957 -0.5051  0.0944  0.3624
   44MOL0     C 5865  10.395   0.074   1.052 -0.5540 -0.7423 -0.2665
   44MOL0     C 5866  10.406  -0.076   1.043 -0.0963 -0.6147  0.6122
   44MOL0     C 5867  10.520  -0.143   1.117 -0.2780 -0.9472 -0.0068
   44MOL0     C 5868  10.517  -0.299   1.082  0.8261 -0.5845  0.1197
   44MOL0     C 5869  10.641  -0.355   1.128 -0.2930  0.0700 -0.1484
   44MOL0     C 5870  10.745  -0.393   1.184  0.0854  0.2532 -0.5423
   44MOL0     C 5871  10.092   0.230   0.928 -0.0754  0.0573  0.2545
   44MOL0     C 5872   9.965   0.273   0.967 -0.2498  1.8045 -0.5785
   44MOL0     H 5873   9.700   0.521   1.281  0.6568 -1.5693  0.2280
   44MOL0     H 5874   9.488   0.613   1.395  1.8583  0.6762 -3.1482
   44MOL0     H 5875   9.193   0.351   1.368 -0.6147 -0.4994  0.8705
   44MOL0     H 5876   9.159   0.320   1.536  5.5317  0.8704  3.7664
   44MOL0     H 5877   9.101   0.581   1.381  1.9857  0.0667  0.9237
   44MOL0     H 5878   8.979   0.436   1.379 -0.9813  0.1452  0.9312
   44MOL0     H 5879   9.071   0.566   1.637 -2.0963 -2.3749  2.8952
   44MOL0     H 5880   8.972   0.667   1.540 -1.5635  0.1542 -0.7468
   44MOL0     H 5881   8.784   0.496   1.550  0.6844 -3.5319 -1.5370
   44MOL0     H 5882   8.886   0.370   1.601 -4.1924 -0.4966 -1.4016
   44MOL0     H 5883   8.942   0.509   1.809  1.3006  1.0437 -3.3100
   44MOL0     H 5884   8.825   0.622   1.762  0.2929  0.1772  1.6238
   44MOL0     H 5885   8.661   0.404   1.735  0.3456  1.0458 -2.3489
   44MOL0     H 5886   8.782   0.317   1.825  2.0543  2.0956  1.2861
   44MOL0     H 5887   8.779   0.451   2.012 -0.8495 -3.2796  0.6146
   44MOL0     H 5888   8.681   0.583   1.934 -0.1578  0.2931 -1.2426
   44MOL0     H 5889   8.581   0.302   1.962  3.8715  0.3464 -0.4410
   44MOL0     H 5890   8.482   0.452   1.965  0.3095 -1.9887 -1.4287
   44MOL0     H 5891   8.513   0.611   2.207  0.2388  0.5670  0.2275
   44MOL0     H 5892   8.546   0.632   2.487  0.7636 -1.7926  3.4840
   44MOL0     H 5893   8.683   0.530   2.528 -2.7105  0.1716  2.2490
   44MOL0     H 5894   8.750   0.776   2.497 -0.5548  0.1255  0.1629
   44MOL0     H 5895   8.672   0.752   2.341 -1.5297 -1.4577  1.0822
   44MOL0     H 5896   8.860   0.595   2.282 -0.5032  1.8221 -0.2025
   44MOL0     H 5897   8.921   0.579   2.446  2.5701  0.5383  0.7125
   44MOL0     H 5898   9.040   0.744   2.460 -2.9815  4.6898  1.4126
   44MOL0     H 5899   8.941   0.849   2.370  3.1403  1.7371  4.6922
   44MOL0     H 5900   9.087   0.625   2.026 -0.0131  1.6802  0.9190
   44MOL0     H 5901   9.360   0.448   1.879 -0.2558  0.6600 -0.3193
   44MOL0     H 5902   9.247   0.320   1.919  0.4003 -0.4811  3.1788
   44MOL0     H 5903   9.200   0.484   1.852  4.5407  1.6943 -0.9708
   44MOL0     H 5904   9.443   0.154   1.817  0.3867  0.0446  0.4520
   44MOL0     H 5905   9.567  -0.046   1.734 -1.0063  1.0966 -1.0546
   44MOL0     H 5906   9.574  -0.282   1.791 -0.3241  0.5030 -0.3063
   44MOL0     H 5907   9.741  -0.326   1.747 -0.1010  0.3596  0.3086
   44MOL0     H 5908   9.585  -0.384   2.005 -0.3723 -1.3323  0.9748
   44MOL0     H 5909   9.653  -0.513   1.905  1.2414  0.2002 -2.3668
   44MOL0     H 5910   9.829  -0.316   2.067  1.7199  0.6413 -1.3262
   44MOL0     H 5911   9.884  -0.437   1.953 -0.1317 -1.2268  0.3334
   44MOL0     H 5912   9.727  -0.486   2.220  0.9851 -0.6585  2.3316
   44MOL0     H 5913   9.764  -0.606   2.098  0.8330  0.7742 -1.8606
   44MOL0     H 5914   9.973  -0.447   2.262  2.8938 -1.2498  1.6699
   44MOL0     H 5915  10.018  -0.561   2.136 -1.5826  1.0333 -2.7765
   44MOL0     H 5916   9.866  -0.607   2.403 -1.3892 -1.5562  0.1414
   44MOL0     H 5917   9.867  -0.732   2.288  5.3842 -4.3349  1.6687
   44MOL0     H 5918  10.099  -0.610   2.427  1.4877  2.0545 -3.4703
   44MOL0     H 5919  10.107  -0.740   2.282 -2.6964 -2.2893 -0.1715
   44MOL0     H 5920   9.991  -0.885   2.452  1.0259 -0.1130 -1.2797
   44MOL0     H 5921  10.009  -0.766   2.579  0.7380  1.6744  0.2500
   44MOL0     H 5922   9.696  -0.142   2.119  1.6197 -1.4064 -3.4061
   44MOL0     H 5923   9.538   0.048   2.221  0.2955 -2.1826 -1.0764
   44MOL0     H 5924   9.354   0.421   2.395  2.1351 -0.5685 -0.0524
   44MOL0     H 5925   9.207   0.619   2.430 -2.1605  0.5796  0.6920
   44MOL0     H 5926   9.381   0.219   1.520 -1.7764 -1.3883 -2.7991
   44MOL0     H 5927   9.604   0.143   1.432  0.0931  0.4283  1.6978
   44MOL0     H 5928   9.978   0.112   1.266 -0.9864 -6.5979 -2.1873
   44MOL0     H 5929  10.162   0.008   1.181  0.8745  1.7845  1.5723
   44MOL0     H 5930  10.494   0.115   1.026 -0.2077 -1.0801  0.5008
   44MOL0     H 5931  10.375   0.108   1.153  2.2780  0.6794 -0.0706
   44MOL0     H 5932  10.415  -0.101   0.937  1.7404 -1.3169  0.8996
   44MOL0     H 5933  10.316  -0.127   1.076 -1.6239  1.5431  0.0125
   44MOL0     H 5934  10.498  -0.124   1.222  0.4833  0.9245 -0.1395
   44MOL0     H 5935  10.615  -0.094   1.089 -0.7217  0.4810  0.8712
   44MOL0     H 5936  10.495  -0.315   0.976  2.8718 -2.2501 -0.1165
   44MOL0     H 5937  10.442  -0.356   1.139 -0.5414 -2.9646 -3.6895
   44MOL0     H 5938  10.830  -0.442   1.227  2.2307  1.7116 -2.8712
   44MOL0     H 5939  10.138   0.269   0.837  0.2960 -3.1631 -1.0933
   44MOL0     H 5940   9.922   0.342   0.896 -0.5575 -0.1924 -2.4224
   45MOL0     O 5941   8.189  11.288   1.099  0.3784  0.7086 -0.3569
   45MOL0     C 5942   8.163  11.333   0.988  0.6544 -0.1202  0.1001
   45MOL0     O 5943   8.255  11.368   0.890  0.0251  0.0869  0.2686
   45MOL0     C 5944   8.390  11.370   0.904  0.0718 -0.4815 -0.0414
   45MOL0     C 5945   8.455  11.270   0.965  0.5811  0.6297  1.2429
   45MOL0     C 5946   8.594  11.274   0.993  0.8831 -0.6413  0.6669
   45MOL0     C 5947   8.670  11.373   0.932  0.1362  0.1591  0.1102
   45MOL0     O 5948   8.812  11.377   0.942  0.0038  0.5118 -0.5002
   45MOL0     C 5949   8.886  11.415   0.823  0.4419 -0.7078 -0.2023
   45MOL0     C 5950   9.031  11.376   0.832 -0.7917  0.7036 -0.6283
   45MOL0     C 5951   9.135  11.435   0.729 -0.3627 -0.8009 -0.5832
   45MOL0     C 5952   9.137  11.352   0.600 -0.7077  0.3865 -0.1853
   45MOL0     C 5953   9.021  11.366   0.506 -0.3003 -0.5555  0.1236
   45MOL0     C 5954   9.050  11.291   0.381 -0.5608 -1.4039  0.6241
   45MOL0     C 5955   8.952  11.327   0.259  0.5674  0.0470 -0.6364
   45MOL0     C 5956   8.980  11.466   0.210 -0.5998 -0.5130  0.9115
   45MOL0     N 5957   9.105  11.504   0.150 -0.4690  0.3469 -0.0387
   45MOL0     C 5958   9.172  11.442   0.047  0.2598 -0.4376 -0.2372
   45MOL0     C 5959   9.289  11.514   0.043 -0.9216  0.8913  0.4349
   45MOL0     C 5960   9.388  11.476  -0.078 -0.0066  0.2150  0.9913
   45MOL0     C 5961   9.446  11.606  -0.126  0.0304  1.2703 -0.4443
   45MOL0     C 5962   9.547  11.557  -0.232  0.1672  0.1748  0.6125
   45MOL0     C 5963   9.643  11.671  -0.257 -1.1928 -0.0902  0.1281
   45MOL0     O 5964   9.712  11.658  -0.387 -1.0203  0.0554  0.2885
   45MOL0     C 5965   9.839  11.714  -0.405 -0.1217  0.1758  0.5024
   45MOL0     C 5966   9.899  11.826  -0.338  0.0269  0.0623  0.0083
   45MOL0     C 5967  10.027  11.872  -0.360  0.0140  0.9931  0.8319
   45MOL0     C 5968  10.076  11.986  -0.276 -0.5069 -0.0802  0.3295
   45MOL0     C 5969  10.106  11.801  -0.462 -0.0448 -1.2244 -0.6378
   45MOL0     C 5970  10.241  11.843  -0.495 -0.5552 -0.2964  0.0751
   45MOL0     O 5971  10.336  11.814  -0.393  0.1854 -0.1269 -0.4928
   45MOL0     C 5972  10.468  11.817  -0.421 -0.0426 -0.2161  0.6094
   45MOL0     C 5973  10.521  11.691  -0.467 -0.0768 -0.2472 -0.3545
   45MOL0     C 5974  10.661  11.694  -0.506 -1.4930  0.0817  0.0805
   45MOL0     C 5975  10.749  11.804  -0.484 -0.0597  0.5462  1.1462
   45MOL0     O 5976  10.885  11.782  -0.515  0.1685 -0.5722  0.3312
   45MOL0     C 5977  10.966  11.895  -0.557  0.4389 -0.1939 -0.2522
   45MOL0     C 5978  11.102  11.829  -0.584  0.5622  0.5271  0.1423
   45MOL0     C 5979  11.154  11.757  -0.464  0.2393 -0.0084 -0.4832
   45MOL0     C 5980  11.145  11.848  -0.332  0.7506  0.3674 -0.5987
   45MOL0     C 5981  11.198  11.783  -0.203  0.1928 -0.7787 -0.7521
   45MOL0     C 5982  11.161  11.863  -0.072  0.5512 -0.6959  0.7141
   45MOL0     C 5983  11.182  11.781   0.066  0.0775 -0.5954 -0.1619
   45MOL0     C 5984  11.106  11.849   0.182  0.4554  0.3655 -1.3101
   45MOL0    Cl 5985  11.101  12.039   0.165  0.1062 -0.0223 -0.3122
   45MOL0     C 5986  10.690  11.918  -0.431 -0.2418  0.0281  0.1816
   45MOL0     C 5987  10.550  11.928  -0.402 -0.7691 -0.5479 -0.3156
   45MOL0     O 5988  10.273  11.875  -0.608 -0.8053 -0.1378 -0.4925
   45MOL0     C 5989  10.043  11.700  -0.542  0.5466  0.3570  0.3284
   45MOL0     C 5990   9.913  11.649  -0.507 -0.1938  0.0255  0.4722
   45MOL0     N 5991   9.304  11.599   0.149 -0.4925  0.6270 -0.1428
   45MOL0     N 5992   9.189  11.587   0.213 -0.9103  0.8271  0.2977
   45MOL0     C 5993   8.604  11.477   0.862 -0.1608 -0.6271  0.9765
   45MOL0     C 5994   8.468  11.470   0.848 -0.1779 -0.1719  0.2813
   45MOL0     C 5995   8.019  11.352   0.951  0.3821  0.1069  0.2267
   45MOL0     C 5996   7.923  11.344   1.049 -0.6056 -1.1189  0.4971
   45MOL0     C 5997   7.790  11.366   1.015  0.1311 -0.3367 -0.3378
   45MOL0     C 5998   7.745  11.388   0.889 -0.3696  0.5277 -0.9800
   45MOL0     O 5999   7.607  11.409   0.870 -0.4848  0.2279 -0.6044
   45MOL0     C 6000   7.559  11.437   0.739 -0.1926 -0.8171 -0.3520
   45MOL0     C 6001   7.565  11.584   0.687 -0.4217 -0.6851 -0.2344
   45MOL0     C 6002   7.495  11.690   0.773 -0.5137 -0.1608  0.4441
   45MOL0     C 6003   7.486  11.822   0.715 -1.0518 -0.6410  0.5703
   45MOL0     C 6004   7.394  11.892   0.810  0.1404 -0.1249  0.6149
   45MOL0     C 6005   7.307  11.943   0.869 -0.1609 -0.1785  0.2402
   45MOL0     C 6006   7.841  11.404   0.796 -0.4705  0.3182  0.3497
   45MOL0     C 6007   7.975  11.370   0.819  0.1972  0.0457 -0.5637
   45MOL0     H 6008   8.395  11.184   0.993  2.3930 -0.8259  0.8226
   45MOL0     H 6009   8.646  11.195   1.046  3.4845 -0.1693 -1.0093
   45MOL0     H 6010   8.838  11.384   0.730  0.7785 -0.8659 -0.3260
   45MOL0     H 6011   8.887  11.522   0.800  1.2044 -0.7928 -0.6314
   45MOL0     H 6012   9.066  11.416   0.928  1.0913 -1.2550 -0.4261
   45MOL0     H 6013   9.023  11.268   0.819 -1.1505  0.9475 -2.9636
   45MOL0     H 6014   9.106  11.537   0.702 -0.3416 -0.6955 -0.2183
   45MOL0     H 6015   9.228  11.437   0.787 -2.1673 -0.1773  2.5360
   45MOL0     H 6016   9.225  11.386   0.545 -1.0709  1.5455 -0.0629
   45MOL0     H 6017   9.141  11.248   0.634  1.1910  0.7694  0.8847
   45MOL0     H 6018   8.930  11.334   0.557 -0.1119 -1.5185 -0.1429
   45MOL0     H 6019   9.010  11.473   0.486 -0.0015 -0.8775 -1.9285
   45MOL0     H 6020   9.151  11.321   0.350 -0.6646 -0.2953  1.3247
   45MOL0     H 6021   9.045  11.184   0.404 -2.2695 -1.1209  1.7664
   45MOL0     H 6022   8.952  11.266   0.169 -3.7503 -1.4423  0.1285
   45MOL0     H 6023   8.849  11.316   0.293  0.4797  1.5427 -0.3187
   45MOL0     H 6024   8.966  11.535   0.294  0.0185  0.8599 -0.0738
   45MOL0     H 6025   8.898  11.477   0.138 -0.6070 -0.4096  0.9363
   45MOL0     H 6026   9.131  11.363  -0.016 -0.8092  0.7278 -1.0502
   45MOL0     H 6027   9.464  11.402  -0.054  0.9680  1.8684  3.4154
   45MOL0     H 6028   9.331  11.435  -0.162  0.2622  2.0994 -0.1640
   45MOL0     H 6029   9.493  11.650  -0.038 -1.1573  0.4401  0.6461
   45MOL0     H 6030   9.371  11.676  -0.163 -1.1509 -0.5489 -1.6839
   45MOL0     H 6031   9.509  11.517  -0.326 -1.8491  0.4901  1.2444
   45MOL0     H 6032   9.614  11.479  -0.195  0.8177  0.2954 -0.2679
   45MOL0     H 6033   9.709  11.656  -0.170 -0.2078 -1.1094 -0.7619
   45MOL0     H 6034   9.601  11.771  -0.254  0.0750  0.4573  0.4688
   45MOL0     H 6035   9.840  11.886  -0.270  2.4308 -0.0829  2.3801
   45MOL0     H 6036  10.011  12.072  -0.291 -2.0809 -1.4484 -1.1246
   45MOL0     H 6037  10.101  11.962  -0.172 -1.6445 -0.6686  0.4831
   45MOL0     H 6038  10.172  12.022  -0.315 -1.6453  0.5909 -1.9976
   45MOL0     H 6039  10.460  11.602  -0.468 -0.2860 -0.1020 -0.5299
   45MOL0     H 6040  10.715  11.602  -0.526  2.1627  2.0936 -0.1919
   45MOL0     H 6041  10.928  11.938  -0.650  1.3914 -2.0334 -1.5388
   45MOL0     H 6042  10.960  11.978  -0.485 -0.9030  0.8589 -1.5140
   45MOL0     H 6043  11.085  11.756  -0.663 -3.8370  0.4185  0.9092
   45MOL0     H 6044  11.178  11.900  -0.617  0.6177  0.7890  0.8115
   45MOL0     H 6045  11.258  11.725  -0.478  0.3966 -0.4307  1.3226
   45MOL0     H 6046  11.100  11.663  -0.450 -3.3947  2.0524  0.3385
   45MOL0     H 6047  11.192  11.946  -0.343  0.6016  0.8955  2.4651
   45MOL0     H 6048  11.041  11.870  -0.309  0.8503  0.4309 -0.1966
   45MOL0     H 6049  11.305  11.761  -0.215  0.3532 -0.5703  0.1750
   45MOL0     H 6050  11.156  11.682  -0.194 -0.7640 -0.5791 -2.4934
   45MOL0     H 6051  11.229  11.948  -0.075  0.0542 -0.2933  0.6012
   45MOL0     H 6052  11.056  11.889  -0.089 -0.0958 -2.9453  0.8737
   45MOL0     H 6053  11.289  11.777   0.091 -0.0544 -1.1472  0.3316
   45MOL0     H 6054  11.143  11.680   0.053 -3.1868  0.3336  1.5637
   45MOL0     H 6055  11.148  11.821   0.279  0.0009  0.3935 -1.1055
   45MOL0     H 6056  11.004  11.808   0.180  2.1476 -5.1333  1.9063
   45MOL0     H 6057  10.745  12.009  -0.411  0.8317 -0.7261  0.7197
   45MOL0     H 6058  10.514  12.019  -0.354 -0.2826 -1.7676  2.5871
   45MOL0     H 6059  10.105  11.650  -0.615 -0.0787 -0.5071  0.3735
   45MOL0     H 6060   9.863  11.570  -0.561  0.4500  0.9259 -1.5249
   45MOL0     H 6061   8.652  11.562   0.814 -1.9456  0.3206  0.7812
   45MOL0     H 6062   8.408  11.546   0.799  0.9415  1.0158  0.7041
   45MOL0     H 6063   7.959  11.330   1.151  2.7654  1.2469 -0.1997
   45MOL0     H 6064   7.721  11.374   1.098 -0.8234  1.6965 -1.2445
   45MOL0     H 6065   7.616  11.384   0.662 -1.7842 -0.0610 -2.1477
   45MOL0     H 6066   7.453  11.411   0.732  0.1469 -2.8020  1.1561
   45MOL0     H 6067   7.534  11.591   0.582  0.9556  0.7791 -0.5845
   45MOL0     H 6068   7.669  11.616   0.687 -0.0503 -1.8551 -0.5867
   45MOL0     H 6069   7.530  11.695   0.876 -3.9348  0.3902  1.6923
   45MOL0     H 6070   7.396  11.644   0.774  0.2053 -2.3164 -3.6799
   45MOL0     H 6071   7.451  11.822   0.611 -0.4785 -2.3194  0.3452
   45MOL0     H 6072   7.584  11.869   0.714 -1.5312  0.4428 -1.5410
   45MOL0     H 6073   7.232  11.974   0.939  0.1397  2.9746 -0.7072
   45MOL0     H 6074   7.819  11.414   0.690  0.4765  0.9396  0.1918
   45MOL0     H 6075   8.047  11.391   0.741  0.8267 -2.3813 -0.7249
   46MOL0     O 6076   0.066   7.713   5.411 -0.3848 -0.4839  0.0581
   46MOL0     C 6077   0.120   7.740   5.527 -0.5696  0.3262  0.4823
   46MOL0     O 6078   0.140   7.649   5.626 -0.2449 -0.1105 -0.0833
   46MOL0     C 6079   0.128   7.518   5.604  0.0646  0.2493  0.6037
   46MOL0     C 6080   0.247   7.445   5.573  0.6101  0.1704  0.3408
   46MOL0     C 6081   0.240   7.310   5.539  0.3758  0.7709  0.0812
   46MOL0     C 6082   0.120   7.240   5.544 -1.2599 -0.0502 -0.2989
   46MOL0     O 6083   0.097   7.105   5.522  0.3895  0.7206 -0.0586
   46MOL0     C 6084   0.204   7.010   5.544  0.0929  0.6516  1.0566
   46MOL0     C 6085   0.234   7.005   5.685  1.1300  0.0784 -0.3470
   46MOL0     C 6086   0.114   6.998   5.778 -0.5670 -0.1711  0.1110
   46MOL0     C 6087   0.014   6.885   5.760  0.3014 -0.8595  0.3995
   46MOL0     C 6088   0.055   6.751   5.807 -0.0630 -0.0316 -1.2785
   46MOL0     C 6089   0.017   6.633   5.713  0.5262 -0.4415  0.2177
   46MOL0     C 6090   0.125   6.602   5.607  0.7046  0.2891  0.4368
   46MOL0     C 6091   0.233   6.512   5.671  0.5344 -0.4152  0.3407
   46MOL0     N 6092   0.358   6.574   5.670 -0.8988 -0.4666 -0.2547
   46MOL0     C 6093   0.427   6.627   5.562 -0.1523 -0.5812  0.8315
   46MOL0     C 6094   0.549   6.659   5.611  0.0750  0.7074 -0.7369
   46MOL0     C 6095   0.669   6.719   5.543 -0.1740 -0.1103 -0.8219
   46MOL0     C 6096   0.671   6.869   5.569  0.2079 -0.9078 -0.3384
   46MOL0     C 6097   0.661   6.914   5.713  0.5424  0.3045  0.0807
   46MOL0     C 6098   0.702   7.063   5.710 -0.0984 -1.6742 -0.5659
   46MOL0     O 6099   0.600   7.137   5.638 -0.1713  0.2322  0.0455
   46MOL0     C 6100   0.619   7.275   5.645 -0.8902  0.3278  0.0191
   46MOL0     C 6101   0.536   7.347   5.736 -0.5911  0.1694 -0.4353
   46MOL0     C 6102   0.539   7.489   5.749  0.2771  0.8710  0.1024
   46MOL0     C 6103   0.435   7.544   5.844  0.8368 -0.0049  0.0597
   46MOL0     C 6104   0.605   7.564   5.653 -0.2031 -0.1140  0.6522
   46MOL0     C 6105   0.601   7.716   5.638 -0.2777  0.9598  0.2993
   46MOL0     O 6106   0.666   7.779   5.528  0.5048 -0.0413  0.4720
   46MOL0     C 6107   0.636   7.912   5.495  0.2018  0.2192  0.1283
   46MOL0     C 6108   0.508   7.953   5.473 -0.2051 -0.7379 -0.0482
   46MOL0     C 6109   0.492   8.085   5.424 -0.4251  0.6650  0.7755
   46MOL0     C 6110   0.602   8.169   5.391 -0.2642 -0.4495 -0.1542
   46MOL0     O 6111   0.581   8.301   5.358  0.0960 -0.1890  0.1262
   46MOL0     C 6112   0.678   8.399   5.415  0.1331 -0.4919 -0.0078
   46MOL0     C 6113   0.607   8.534   5.368  0.8509 -0.2321  0.0545
   46MOL0     C 6114   0.668   8.668   5.408 -0.3518 -0.0270 -0.3497
   46MOL0     C 6115   0.601   8.788   5.349 -0.0875 -1.8375 -0.6432
   46MOL0     C 6116   0.680   8.919   5.344  0.0599  0.0494  0.1736
   46MOL0     C 6117   0.592   9.039   5.331 -0.6249 -0.6657  0.1833
   46MOL0     C 6118   0.681   9.162   5.346  0.3556  0.5836 -0.1401
   46MOL0     C 6119   0.618   9.301   5.344 -1.1492  0.0766  0.5606
   46MOL0    Cl 6120   0.527   9.314   5.191  0.0327 -0.0341 -0.3223
   46MOL0     C 6121   0.732   8.116   5.415  0.1490 -0.7519  0.0424
   46MOL0     C 6122   0.745   7.989   5.468  0.0469 -0.1842  0.6830
   46MOL0     O 6123   0.546   7.775   5.725  0.4250  0.1906 -0.1844
   46MOL0     C 6124   0.678   7.490   5.552  0.3637 -0.0886  0.3004
   46MOL0     C 6125   0.683   7.350   5.546  0.2075 -0.4362  1.0858
   46MOL0     N 6126   0.550   6.632   5.752 -0.1721  0.3702 -0.1320
   46MOL0     N 6127   0.437   6.580   5.773  0.0019  0.4166 -0.4052
   46MOL0     C 6128   0.006   7.319   5.584  0.3445  0.4978  0.5980
   46MOL0     C 6129   0.001   7.459   5.610 -0.1550 -0.8309 -0.7996
   46MOL0     C 6130   0.138   7.878   5.564  0.5080  0.1079  0.0892
   46MOL0     C 6131   0.126   7.979   5.466 -0.4784 -1.4920  0.4546
   46MOL0     C 6132   0.159   8.114   5.496 -0.0491 -0.3156  0.0814
   46MOL0     C 6133   0.173   8.144   5.629 -0.1885  0.2780  0.6657
   46MOL0     O 6134   0.189   8.276   5.662 -0.5144  0.2825  0.1573
   46MOL0     C 6135   0.320   8.328   5.628 -0.3615  0.2241 -0.3717
   46MOL0     C 6136   0.430   8.270   5.715 -0.7422 -0.2245 -0.6675
   46MOL0     C 6137   0.435   8.329   5.849  0.4320 -0.6645  0.4268
   46MOL0     C 6138   0.577   8.336   5.910 -0.3158  0.0760 -0.0293
   46MOL0     C 6139   0.654   8.450   5.854  0.0091 -0.4090  0.6319
   46MOL0     C 6140   0.714   8.529   5.785 -0.4986  1.2145  1.0798
   46MOL0     C 6141   0.173   8.053   5.728 -0.2258  0.3705 -0.9041
   46MOL0     C 6142   0.169   7.914   5.693  0.0378  0.7836 -0.0406
   46MOL0     H 6143   0.342   7.493   5.556  1.9918 -2.4509  0.1210
   46MOL0     H 6144   0.339   7.267   5.529  2.0760  3.7426  2.1860
   46MOL0     H 6145   0.185   6.914   5.496  2.5675  0.1384  0.9862
   46MOL0     H 6146   0.294   7.050   5.498  0.8957 -1.3198  0.8359
   46MOL0     H 6147   0.308   6.931   5.716 -0.2328 -0.8958  0.6969
   46MOL0     H 6148   0.300   7.089   5.712  3.0080 -1.2660 -0.5563
   46MOL0     H 6149   0.156   6.986   5.879 -0.3977 -3.7887 -0.2303
   46MOL0     H 6150   0.056   7.090   5.781  0.7716  0.7007  3.2635
   46MOL0     H 6151  -0.068   6.922   5.822 -0.6279  0.3992 -1.5021
   46MOL0     H 6152  -0.010   6.869   5.654  0.4617 -0.7071  0.3404
   46MOL0     H 6153   0.163   6.762   5.815 -0.2774  0.8152  1.6803
   46MOL0     H 6154   0.022   6.738   5.911 -0.2644  0.8500 -1.2254
   46MOL0     H 6155   0.002   6.545   5.775 -1.3132  0.2732  0.8612
   46MOL0     H 6156  -0.074   6.648   5.654 -1.7076 -2.6344  2.8907
   46MOL0     H 6157   0.084   6.548   5.521  0.0058 -2.9950  2.6737
   46MOL0     H 6158   0.165   6.694   5.564  0.9231  0.6750  1.4258
   46MOL0     H 6159   0.228   6.416   5.620  3.6907  0.0937 -1.1785
   46MOL0     H 6160   0.208   6.486   5.774  3.4194  0.5011  1.3685
   46MOL0     H 6161   0.389   6.643   5.462 -0.3404 -0.3586  0.9373
   46MOL0     H 6162   0.758   6.670   5.586  0.8284  0.6314 -1.9871
   46MOL0     H 6163   0.684   6.678   5.443  0.7885 -0.8187 -0.4110
   46MOL0     H 6164   0.587   6.902   5.507  0.7164  3.1520  0.8811
   46MOL0     H 6165   0.763   6.907   5.524  0.6268 -0.7850  0.5825
   46MOL0     H 6166   0.723   6.852   5.779  0.2706 -0.0968 -0.0356
   46MOL0     H 6167   0.557   6.898   5.743 -1.0628  2.8907 -3.4289
   46MOL0     H 6168   0.804   7.071   5.671  0.9563  0.8072  2.3019
   46MOL0     H 6169   0.708   7.101   5.812 -2.9958 -1.1198 -0.4951
   46MOL0     H 6170   0.484   7.293   5.815  2.3973  0.3006  1.8035
   46MOL0     H 6171   0.469   7.611   5.923  1.3307  0.3327 -0.4348
   46MOL0     H 6172   0.362   7.593   5.778 -1.8612 -1.7073  1.5801
   46MOL0     H 6173   0.380   7.472   5.905 -1.9071  2.6438  0.9725
   46MOL0     H 6174   0.425   7.882   5.474  0.4071 -1.5219 -1.4841
   46MOL0     H 6175   0.394   8.130   5.415 -0.5102  0.1291 -1.4178
   46MOL0     H 6176   0.684   8.391   5.524  1.2818 -0.7322 -0.0801
   46MOL0     H 6177   0.777   8.396   5.369 -0.0566 -1.4573 -0.3786
   46MOL0     H 6178   0.600   8.541   5.259  2.8643 -0.9147 -0.1543
   46MOL0     H 6179   0.506   8.532   5.410  0.9089  1.9984  0.3939
   46MOL0     H 6180   0.770   8.674   5.368 -0.7915 -0.5725 -1.6015
   46MOL0     H 6181   0.683   8.676   5.516  3.3368  1.0071 -0.8174
   46MOL0     H 6182   0.555   8.752   5.256  0.6256 -1.9008 -0.9806
   46MOL0     H 6183   0.514   8.814   5.410  1.5274  1.1110  0.5806
   46MOL0     H 6184   0.755   8.906   5.266  0.3334 -3.5791  0.8711
   46MOL0     H 6185   0.752   8.926   5.426  0.3367 -0.5773 -0.0047
   46MOL0     H 6186   0.540   9.023   5.236 -0.2128  0.3592 -0.2259
   46MOL0     H 6187   0.518   9.038   5.412 -0.8069 -3.0503  0.0597
   46MOL0     H 6188   0.749   9.160   5.260 -1.2442  0.2563 -1.4295
   46MOL0     H 6189   0.749   9.156   5.432  2.7562 -1.0675 -2.0087
   46MOL0     H 6190   0.698   9.371   5.369  0.2392 -1.7553  1.4658
   46MOL0     H 6191   0.547   9.313   5.427 -0.2822 -0.6435  1.4315
   46MOL0     H 6192   0.823   8.176   5.408 -1.8322  2.4341 -0.4048
   46MOL0     H 6193   0.844   7.950   5.489  1.7083  1.4107 -3.2407
   46MOL0     H 6194   0.733   7.539   5.472 -1.0520 -1.5677 -1.6713
   46MOL0     H 6195   0.723   7.293   5.464 -1.4852 -0.6164  0.3454
   46MOL0     H 6196  -0.078   7.250   5.579 -0.1655  1.1700 -0.2708
   46MOL0     H 6197  -0.093   7.506   5.634  1.1974  1.8689 -0.3984
   46MOL0     H 6198   0.101   7.955   5.363  2.0650 -1.6863 -0.1705
   46MOL0     H 6199   0.148   8.187   5.415  2.5251 -1.8267 -1.7869
   46MOL0     H 6200   0.345   8.301   5.525  1.5309 -0.4675  0.2313
   46MOL0     H 6201   0.336   8.436   5.629  1.8209 -0.0554 -0.7344
   46MOL0     H 6202   0.522   8.282   5.658  0.3593 -1.5671  0.7523
   46MOL0     H 6203   0.417   8.162   5.733 -1.8588  0.3909  3.2354
   46MOL0     H 6204   0.364   8.278   5.915  0.7110 -1.3077  0.2340
   46MOL0     H 6205   0.399   8.431   5.836  2.4262 -0.1135 -1.2343
   46MOL0     H 6206   0.630   8.246   5.879 -1.9009 -0.9630  0.1414
   46MOL0     H 6207   0.582   8.336   6.019  3.3608 -1.3939 -0.0808
   46MOL0     H 6208   0.777   8.590   5.724 -2.0582  1.0085 -0.8735
   46MOL0     H 6209   0.184   8.087   5.830 -4.2476 -1.1342  0.2242
   46MOL0     H 6210   0.197   7.839   5.767 -1.2682 -1.1361 -1.4129
   47MOL0     O 6211   1.920  11.391   0.431  0.8290 -0.0120  0.2467
   47MOL0     C 6212   1.989  11.489   0.406 -0.0697  0.0118 -0.0585
   47MOL0     O 6213   1.935  11.609   0.368  0.4707  0.4534  0.4069
   47MOL0     C 6214   1.815  11.612   0.321  0.9205  0.6581  1.0129
   47MOL0     C 6215   1.766  11.527   0.214 -0.9904  0.3716 -0.9248
   47MOL0     C 6216   1.643  11.559   0.164  0.6429  0.5096  0.2025
   47MOL0     C 6217   1.555  11.653   0.228  0.0450 -0.2434 -0.9040
   47MOL0     O 6218   1.435  11.661   0.185  0.1690 -0.4838  0.1340
   47MOL0     C 6219   1.403  11.700   0.052  0.4737  0.3159 -0.1196
   47MOL0     C 6220   1.254  11.685   0.038 -0.5189 -0.5934  0.5062
   47MOL0     C 6221   1.162  11.771   0.134 -1.0286  0.2702  0.7397
   47MOL0     C 6222   1.025  11.783   0.083  0.3880  0.3679  0.7062
   47MOL0     C 6223   0.931  11.863   0.186 -1.7029 -0.3938  1.2054
   47MOL0     C 6224   0.798  11.876   0.118  0.2470 -1.1300 -0.1617
   47MOL0     C 6225   0.670  11.869   0.210  0.2477 -1.2260  0.1427
   47MOL0     C 6226   0.680  11.986   0.319 -0.4818  1.1273 -0.6415
   47MOL0     N 6227   0.562  11.990   0.410  1.0782 -0.5740  0.5872
   47MOL0     C 6228   0.562  12.028   0.539 -0.0927  0.0575  0.3065
   47MOL0     C 6229   0.430  12.036   0.563 -0.2575  0.1711  0.1713
   47MOL0     C 6230   0.379  12.083   0.694 -0.4897 -0.2311  0.0606
   47MOL0     C 6231   0.464  12.213   0.753  0.4683  0.8331  0.4983
   47MOL0     C 6232   0.382  12.258   0.880 -0.0457  0.4343  0.3088
   47MOL0     C 6233   0.396  12.408   0.902  0.1491  0.3676  0.5782
   47MOL0     O 6234   0.539  12.437   0.901  1.1986 -0.2785 -0.0450
   47MOL0     C 6235   0.582  12.532   0.988 -0.0206 -0.4241 -0.5283
   47MOL0     C 6236   0.716  12.534   1.040  0.6575  0.2735  0.4747
   47MOL0     C 6237   0.756  12.615   1.139 -0.8945 -0.1518 -0.7501
   47MOL0     C 6238   0.898  12.601   1.201 -0.1160 -0.6653  0.3955
   47MOL0     C 6239   0.667  12.713   1.181 -0.4678 -0.1538 -0.0600
   47MOL0     C 6240   0.698  12.832   1.267  0.7704  0.1194  0.0331
   47MOL0     O 6241   0.821  12.865   1.281 -0.3405 -0.5022 -0.0863
   47MOL0     C 6242   0.880  12.940   1.384 -0.1606 -0.8382  0.4381
   47MOL0     C 6243   1.015  12.961   1.376 -0.2612  0.2278 -0.1877
   47MOL0     C 6244   1.098  13.014   1.478  0.2273 -0.6882 -0.0359
   47MOL0     C 6245   1.040  13.084   1.585 -0.5989 -0.4637  0.0014
   47MOL0     O 6246   1.096  13.174   1.680 -0.4599 -0.3014 -0.1193
   47MOL0     C 6247   1.236  13.221   1.665 -0.0790  1.0980 -0.6961
   47MOL0     C 6248   1.288  13.297   1.786 -0.7797  0.9298  0.4395
   47MOL0     C 6249   1.225  13.435   1.800  0.2530 -0.4442 -0.2778
   47MOL0     C 6250   1.323  13.535   1.742  0.3879  1.2691  0.4955
   47MOL0     C 6251   1.252  13.668   1.698 -0.3071  0.6314  0.3564
   47MOL0     C 6252   1.348  13.785   1.674 -0.2292  0.7619  0.8568
   47MOL0     C 6253   1.443  13.808   1.788  0.5989 -0.1142  0.7266
   47MOL0     C 6254   1.506  13.947   1.785 -0.1963 -0.3133  0.3462
   47MOL0    Cl 6255   1.624  13.977   1.653 -0.1912 -0.1685  0.5005
   47MOL0     C 6256   0.898  13.062   1.597  0.2320  1.1356 -0.0256
   47MOL0     C 6257   0.815  12.994   1.503 -1.5228 -0.1154  0.8596
   47MOL0     O 6258   0.605  12.874   1.337  0.4448  0.1537  0.5009
   47MOL0     C 6259   0.550  12.727   1.123 -0.1535  1.2008  0.4421
   47MOL0     C 6260   0.496  12.637   1.035 -0.4089 -0.1835 -0.2825
   47MOL0     N 6261   0.358  11.994   0.456 -0.9551  0.4455 -0.4156
   47MOL0     N 6262   0.436  11.952   0.368  0.0893 -0.2709  0.0650
   47MOL0     C 6263   1.602  11.723   0.336 -0.0648 -0.3763  0.1286
   47MOL0     C 6264   1.727  11.698   0.381 -0.3428 -0.1552 -0.1082
   47MOL0     C 6265   2.143  11.473   0.417  0.8180  0.3801 -0.3065
   47MOL0     C 6266   2.216  11.564   0.494 -0.3772  0.1222  0.1893
   47MOL0     C 6267   2.358  11.545   0.510  0.2929  0.2466 -0.4849
   47MOL0     C 6268   2.427  11.426   0.465  1.4565  0.3259 -0.9208
   47MOL0     O 6269   2.560  11.419   0.482  0.4559  0.5499  0.5212
   47MOL0     C 6270   2.622  11.289   0.462  0.3199 -0.0698 -0.2294
   47MOL0     C 6271   2.754  11.281   0.542  0.7832  0.2856  0.2834
   47MOL0     C 6272   2.824  11.146   0.500 -0.0079  0.2046  0.1327
   47MOL0     C 6273   2.825  11.053   0.626 -0.6601 -1.0126 -0.0818
   47MOL0     C 6274   2.699  11.006   0.680 -0.0590  0.7972 -0.7527
   47MOL0     C 6275   2.599  10.957   0.731  0.2005 -0.8773 -0.1277
   47MOL0     C 6276   2.343  11.334   0.400  0.7493 -0.3707 -0.0007
   47MOL0     C 6277   2.206  11.359   0.374  0.2204  0.3537 -0.0919
   47MOL0     H 6278   1.837  11.457   0.170 -2.3220 -1.8024  0.2303
   47MOL0     H 6279   1.610  11.504   0.077 -1.0714  1.5907  0.1275
   47MOL0     H 6280   1.450  11.796   0.028  5.9204 -1.4834  1.8851
   47MOL0     H 6281   1.444  11.626  -0.017  1.2841  1.3497 -0.7705
   47MOL0     H 6282   1.224  11.698  -0.067  1.0241 -2.0760 -0.1548
   47MOL0     H 6283   1.221  11.582   0.051  0.8036 -1.0347  0.5176
   47MOL0     H 6284   1.156  11.714   0.227  0.6619  1.8249  1.8620
   47MOL0     H 6285   1.209  11.868   0.149 -2.1964  0.9709  0.0056
   47MOL0     H 6286   1.019  11.829  -0.016 -0.7558 -2.1760 -0.5149
   47MOL0     H 6287   0.977  11.686   0.070 -1.4118  1.0728  1.7658
   47MOL0     H 6288   0.927  11.785   0.264  0.5702 -3.8074 -1.7268
   47MOL0     H 6289   0.982  11.956   0.212  1.4010 -0.6996 -2.7206
   47MOL0     H 6290   0.789  11.970   0.062 -1.3354 -0.3953  1.2404
   47MOL0     H 6291   0.788  11.798   0.042  0.1173 -0.4004 -0.9069
   47MOL0     H 6292   0.577  11.884   0.155 -0.6655  0.1133  1.9397
   47MOL0     H 6293   0.654  11.767   0.246  3.0207 -1.5703  0.6526
   47MOL0     H 6294   0.702  12.078   0.263  2.2657 -0.0221 -1.6097
   47MOL0     H 6295   0.766  11.970   0.383  0.9879  1.5367 -2.4288
   47MOL0     H 6296   0.634  12.060   0.613 -0.0162  1.6781 -0.4222
   47MOL0     H 6297   0.274  12.112   0.685 -0.5540 -0.1984  0.8106
   47MOL0     H 6298   0.377  12.003   0.769 -4.1764 -3.1449 -2.8159
   47MOL0     H 6299   0.466  12.297   0.683 -1.9859  0.1498 -0.4992
   47MOL0     H 6300   0.567  12.186   0.778 -0.7222 -6.3543 -0.2105
   47MOL0     H 6301   0.423  12.200   0.963  1.6268 -0.8533 -1.3358
   47MOL0     H 6302   0.277  12.233   0.862  0.5978 -1.8590 -0.5333
   47MOL0     H 6303   0.347  12.437   0.995 -1.2393  1.6599 -0.4989
   47MOL0     H 6304   0.349  12.474   0.827  0.1725 -1.6314 -1.2895
   47MOL0     H 6305   0.778  12.453   1.002 -0.5263 -1.5071  2.0947
   47MOL0     H 6306   0.907  12.646   1.300 -1.8570 -0.0835  0.3327
   47MOL0     H 6307   0.935  12.498   1.209  2.6812  0.0580 -1.7507
   47MOL0     H 6308   0.966  12.654   1.133  0.1591 -0.7558  0.5982
   47MOL0     H 6309   1.059  12.936   1.279  1.9042 -2.7202  1.3679
   47MOL0     H 6310   1.205  13.032   1.469  0.1795 -1.0000 -1.3819
   47MOL0     H 6311   1.290  13.126   1.652 -0.2581  1.0192 -0.8630
   47MOL0     H 6312   1.245  13.263   1.564  1.4635 -0.4543 -1.2646
   47MOL0     H 6313   1.260  13.238   1.874  2.6113 -1.1946  0.2581
   47MOL0     H 6314   1.397  13.288   1.782 -0.8443  0.4036 -0.9421
   47MOL0     H 6315   1.212  13.472   1.902 -1.6711  1.6018 -1.1835
   47MOL0     H 6316   1.130  13.448   1.747  0.0863  0.8674  0.2946
   47MOL0     H 6317   1.393  13.561   1.822  1.0304  2.4210 -0.4137
   47MOL0     H 6318   1.368  13.493   1.653 -1.2387  1.6490 -0.5606
   47MOL0     H 6319   1.173  13.698   1.768  0.4202  2.2111  0.5472
   47MOL0     H 6320   1.209  13.641   1.601  1.6014  2.7624 -1.1843
   47MOL0     H 6321   1.406  13.766   1.583 -0.8603  0.9809  0.4029
   47MOL0     H 6322   1.287  13.873   1.655 -1.3027 -0.0771  0.3253
   47MOL0     H 6323   1.534  13.751   1.771  1.7145  0.6229  3.6904
   47MOL0     H 6324   1.405  13.804   1.890 -0.6366 -0.8191  0.2586
   47MOL0     H 6325   1.559  13.959   1.880  0.4760  1.7303 -0.2477
   47MOL0     H 6326   1.429  14.024   1.790 -1.0514 -1.1443  0.3378
   47MOL0     H 6327   0.843  13.105   1.681 -0.8630  1.9421 -1.1249
   47MOL0     H 6328   0.711  12.962   1.510 -1.5979 -1.9866 -4.1317
   47MOL0     H 6329   0.487  12.815   1.136 -1.4547  0.8344 -2.5357
   47MOL0     H 6330   0.396  12.644   0.992 -0.4210  1.5494 -0.0381
   47MOL0     H 6331   1.540  11.794   0.389 -2.9395 -2.3746 -0.3402
   47MOL0     H 6332   1.767  11.753   0.466 -1.6692 -0.7761  0.9600
   47MOL0     H 6333   2.155  11.645   0.533 -0.9725 -0.5260  0.6531
   47MOL0     H 6334   2.429  11.614   0.556  0.0595  0.1424  0.0494
   47MOL0     H 6335   2.549  11.214   0.493  1.3622 -0.9168  0.2366
   47MOL0     H 6336   2.636  11.273   0.355  0.1257  0.9615 -0.4258
   47MOL0     H 6337   2.733  11.307   0.646 -0.4124  1.9282 -0.3346
   47MOL0     H 6338   2.827  11.352   0.501  1.7929 -1.4260 -1.0689
   47MOL0     H 6339   2.925  11.153   0.460 -0.4703 -3.3548 -2.0590
   47MOL0     H 6340   2.772  11.096   0.418 -2.2548 -2.2203  2.7960
   47MOL0     H 6341   2.870  11.122   0.697  3.8006 -1.2663 -2.2974
   47MOL0     H 6342   2.893  10.967   0.621  2.3562  1.2307 -0.6286
   47MOL0     H 6343   2.508  10.920   0.774 -0.7217  1.1035 -0.2760
   47MOL0     H 6344   2.387  11.251   0.346 -0.8267 -1.3027  0.1099
   47MOL0     H 6345   2.162  11.287   0.306 -0.0076  0.2645  0.1477
   48MOL0     O 6346   2.186   2.010   9.366 -0.6160  0.5447  0.3289
   48MOL0     C 6347   2.150   2.111   9.302 -1.2526 -1.2235  0.2734
   48MOL0     O 6348   2.180   2.245   9.337  0.7149  0.1282  0.3777
   48MOL0     C 6349   2.283   2.272   9.416 -0.9498 -0.0404  0.3294
   48MOL0     C 6350   2.405   2.205   9.406  0.6302 -0.2729 -0.7884
   48MOL0     C 6351   2.509   2.249   9.489 -1.0858 -0.5180  0.6500
   48MOL0     C 6352   2.503   2.360   9.565  0.5599  0.2562  0.3137
   48MOL0     O 6353   2.603   2.403   9.646 -0.0475 -0.1144  0.7167
   48MOL0     C 6354   2.728   2.332   9.646  0.4959  0.6127 -0.0063
   48MOL0     C 6355   2.811   2.396   9.751 -0.6721 -0.2542 -0.0973
   48MOL0     C 6356   2.964   2.354   9.751 -0.4371  0.0190 -0.2659
   48MOL0     C 6357   3.045   2.433   9.847  0.5392 -0.2113  0.3438
   48MOL0     C 6358   3.193   2.385   9.847 -0.3572  0.3920 -0.2297
   48MOL0     C 6359   3.263   2.441   9.971 -0.5188  0.0183 -0.0019
   48MOL0     C 6360   3.405   2.388   9.981  0.2759  0.9889  0.1560
   48MOL0     C 6361   3.471   2.457  10.093 -0.2771  0.2118 -0.7263
   48MOL0     N 6362   3.615   2.420  10.100  0.2366 -0.8728 -0.0490
   48MOL0     C 6363   3.673   2.301  10.088  0.9873  0.3242  0.2266
   48MOL0     C 6364   3.796   2.325  10.072 -0.0690  0.6784 -0.0202
   48MOL0     C 6365   3.895   2.225  10.036 -0.4253  0.4356  0.0076
   48MOL0     C 6366   3.947   2.125  10.146 -0.6298  0.0755 -0.3109
   48MOL0     C 6367   3.966   2.187  10.282  0.3814 -0.3563  0.5925
   48MOL0     C 6368   4.074   2.295  10.284  0.4358 -0.6445  0.6220
   48MOL0     O 6369   4.098   2.324  10.422 -0.0143  0.1830 -0.0470
   48MOL0     C 6370   4.224   2.368  10.446  0.4064 -0.8054  0.8963
   48MOL0     C 6371   4.275   2.345  10.573 -0.4963 -0.0328 -0.0393
   48MOL0     C 6372   4.400   2.383  10.624  1.1471  0.4562  0.5486
   48MOL0     C 6373   4.442   2.314  10.751  0.7637 -0.1558  0.3968
   48MOL0     C 6374   4.487   2.465  10.545 -0.1745 -0.2775  0.3783
   48MOL0     C 6375   4.624   2.507  10.582 -0.2132  0.3418  1.0172
   48MOL0     O 6376   4.713   2.523  10.482  0.5047 -0.4040 -0.6219
   48MOL0     C 6377   4.809   2.625  10.475  0.4700  0.1302 -0.3461
   48MOL0     C 6378   4.928   2.596  10.408  0.5138  0.1418 -0.2322
   48MOL0     C 6379   5.024   2.693  10.394 -0.1819 -0.4029 -0.0576
   48MOL0     C 6380   4.998   2.822  10.438 -0.2158 -0.5155 -0.4459
   48MOL0     O 6381   5.081   2.928  10.422 -0.5737 -0.7851  0.0515
   48MOL0     C 6382   5.197   2.927  10.350  0.2474  1.2475 -0.4357
   48MOL0     C 6383   5.276   3.047  10.369  0.5838  0.0193  1.1127
   48MOL0     C 6384   5.369   3.050  10.496 -0.0353  0.2682  0.4951
   48MOL0     C 6385   5.523   3.098  10.479  0.5472 -0.2491 -0.1516
   48MOL0     C 6386   5.608   3.082  10.604  0.0658  0.0809 -0.2477
   48MOL0     C 6387   5.545   3.111  10.744  0.2293  0.3735 -0.1352
   48MOL0     C 6388   5.642   3.134  10.862 -0.1626 -0.6960 -0.1808
   48MOL0     C 6389   5.759   3.215  10.827  0.5452 -1.1073  1.1978
   48MOL0    Cl 6390   5.861   3.276  10.954 -0.0126 -0.1367 -0.0946
   48MOL0     C 6391   4.885   2.858  10.509 -0.2232 -0.5414  0.1462
   48MOL0     C 6392   4.779   2.759  10.521  0.4121  0.2579  0.6288
   48MOL0     O 6393   4.651   2.523  10.696 -0.3717  0.9158 -1.0220
   48MOL0     C 6394   4.438   2.492  10.410  0.9489  0.4510 -0.0035
   48MOL0     C 6395   4.309   2.455  10.365 -0.5090 -0.4199 -0.8455
   48MOL0     N 6396   3.826   2.456  10.083 -0.2322 -0.4729 -0.0089
   48MOL0     N 6397   3.714   2.514  10.112  0.3571 -0.0492  0.2166
   48MOL0     C 6398   2.382   2.426   9.567  0.5623 -0.0221  0.2468
   48MOL0     C 6399   2.278   2.389   9.484 -0.1783  0.0332 -0.3419
   48MOL0     C 6400   2.077   2.097   9.177 -0.1204  0.1634  0.7044
   48MOL0     C 6401   2.051   2.210   9.095 -0.7005 -1.1387  0.6206
   48MOL0     C 6402   1.997   2.189   8.967 -0.4362 -0.2373  0.2690
   48MOL0     C 6403   1.960   2.061   8.923 -0.2709 -0.7559  1.5126
   48MOL0     O 6404   1.888   2.047   8.805 -0.1622 -0.3301 -0.0037
   48MOL0     C 6405   1.901   1.928   8.731  0.2361 -0.0685 -0.0886
   48MOL0     C 6406   2.042   1.901   8.669  0.7576 -0.6581 -0.4780
   48MOL0     C 6407   2.068   1.988   8.551  0.0565  0.0221  0.7348
   48MOL0     C 6408   2.191   1.961   8.469 -1.0158  0.6119 -0.7018
   48MOL0     C 6409   2.305   2.023   8.533  0.9103 -0.3895 -0.5417
   48MOL0     C 6410   2.407   2.066   8.589 -0.3736  0.0101  0.8573
   48MOL0     C 6411   1.980   1.953   9.010  0.1974 -1.2782  0.8144
   48MOL0     C 6412   2.045   1.968   9.128  0.4367  0.7269 -0.1682
   48MOL0     H 6413   2.415   2.120   9.340 -2.2917 -0.4589 -1.0973
   48MOL0     H 6414   2.602   2.196   9.472 -0.4241 -0.4545  3.5929
   48MOL0     H 6415   2.716   2.226   9.666  1.2268 -0.2486 -3.4908
   48MOL0     H 6416   2.787   2.345   9.554 -2.4582  1.9783 -1.8662
   48MOL0     H 6417   2.804   2.505   9.742 -0.2716 -0.0951  1.2544
   48MOL0     H 6418   2.771   2.371   9.850 -1.0277 -1.3975 -0.5218
   48MOL0     H 6419   2.978   2.251   9.786 -0.2456  0.7900  2.0910
   48MOL0     H 6420   3.006   2.357   9.650  0.2417  0.2916  0.0177
   48MOL0     H 6421   3.030   2.536   9.813 -1.8273 -1.5883 -3.3167
   48MOL0     H 6422   2.997   2.426   9.945 -1.4074 -1.1303 -0.6282
   48MOL0     H 6423   3.203   2.276   9.851 -0.1814  0.4436  1.7111
   48MOL0     H 6424   3.240   2.416   9.754 -0.1512  0.8947  0.0381
   48MOL0     H 6425   3.273   2.549   9.962  0.7678  0.0719  1.5944
   48MOL0     H 6426   3.200   2.411  10.056 -2.0195 -1.2211 -1.4603
   48MOL0     H 6427   3.398   2.279   9.989  0.1253  1.0650  1.2365
   48MOL0     H 6428   3.468   2.424   9.899  2.1859 -0.3381  0.9729
   48MOL0     H 6429   3.426   2.438  10.192  2.2045 -0.9065  0.2770
   48MOL0     H 6430   3.457   2.564  10.078 -1.2583  0.0847 -0.7940
   48MOL0     H 6431   3.631   2.201  10.084  1.1695  0.2678 -0.3321
   48MOL0     H 6432   3.840   2.164   9.964 -1.2494  0.5767  0.5077
   48MOL0     H 6433   3.972   2.269   9.971 -1.5760  1.1027 -0.9527
   48MOL0     H 6434   4.043   2.075  10.128  0.3320  2.5561 -3.0384
   48MOL0     H 6435   3.861   2.058  10.152 -1.7390  1.5666  1.4865
   48MOL0     H 6436   4.004   2.115  10.356  0.8897  1.0802  1.7880
   48MOL0     H 6437   3.865   2.220  10.308  1.4488  3.2595  0.6489
   48MOL0     H 6438   4.036   2.380  10.225  2.3524  0.9236  1.5282
   48MOL0     H 6439   4.163   2.257  10.232 -0.5367 -1.5531 -0.4424
   48MOL0     H 6440   4.222   2.265  10.623 -1.6090 -0.0603 -1.2126
   48MOL0     H 6441   4.368   2.237  10.773  0.6773  0.4899  2.5394
   48MOL0     H 6442   4.538   2.264  10.738 -0.6134 -3.2432  1.2305
   48MOL0     H 6443   4.446   2.376  10.841  0.9654 -0.1333  0.3740
   48MOL0     H 6444   4.938   2.499  10.361 -0.7474  1.0554 -2.5585
   48MOL0     H 6445   5.112   2.661  10.340 -0.1657  0.3887 -0.5024
   48MOL0     H 6446   5.260   2.838  10.356 -0.5741  0.6942  0.1323
   48MOL0     H 6447   5.171   2.931  10.244  2.5730 -1.9552 -1.2824
   48MOL0     H 6448   5.329   3.079  10.279  2.7265  1.7634  2.8888
   48MOL0     H 6449   5.206   3.126  10.396 -0.7119 -1.2504  1.6130
   48MOL0     H 6450   5.358   2.954  10.547  0.1246  0.0880  0.1918
   48MOL0     H 6451   5.324   3.120  10.567 -2.4144 -2.4425  1.8751
   48MOL0     H 6452   5.566   3.065  10.384  0.2669  0.5498 -0.5623
   48MOL0     H 6453   5.521   3.205  10.461 -0.6832 -0.3478 -0.7362
   48MOL0     H 6454   5.702   3.139  10.603 -1.5859  3.0062  0.1562
   48MOL0     H 6455   5.643   2.978  10.613 -0.4638  0.0487  2.3501
   48MOL0     H 6456   5.490   3.204  10.726  1.6123  1.6300  1.8462
   48MOL0     H 6457   5.478   3.029  10.772  0.0594 -0.7917 -3.4934
   48MOL0     H 6458   5.674   3.040  10.906  3.2364  0.9840  1.3039
   48MOL0     H 6459   5.586   3.186  10.940  1.7943  0.3375  0.5971
   48MOL0     H 6460   5.728   3.295  10.759  2.3882 -3.0320 -2.1990
   48MOL0     H 6461   5.824   3.148  10.770  4.1725  4.4966 -2.2036
   48MOL0     H 6462   4.859   2.955  10.548 -1.1324 -0.1396 -1.3629
   48MOL0     H 6463   4.681   2.791  10.555  0.5875  1.4015  0.1241
   48MOL0     H 6464   4.506   2.541  10.340 -0.2752 -1.3231 -2.5846
   48MOL0     H 6465   4.271   2.484  10.268 -2.0549 -1.2832 -0.5275
   48MOL0     H 6466   2.361   2.505   9.638 -1.8020 -2.1440  2.1449
   48MOL0     H 6467   2.187   2.447   9.474 -0.1327  0.6157  2.1340
   48MOL0     H 6468   2.076   2.311   9.129  1.1599 -1.0464 -0.8768
   48MOL0     H 6469   1.989   2.267   8.893  0.9095 -1.1355 -0.8782
   48MOL0     H 6470   1.893   1.843   8.799  0.2172 -1.1690 -1.4133
   48MOL0     H 6471   1.824   1.915   8.655  1.7212 -1.3387 -1.4819
   48MOL0     H 6472   2.060   1.798   8.637 -1.3323 -1.1663 -0.1814
   48MOL0     H 6473   2.110   1.934   8.749 -0.6123 -0.5847  0.7113
   48MOL0     H 6474   2.083   2.089   8.591  0.8801  1.0519 -1.9417
   48MOL0     H 6475   1.979   1.993   8.489  1.6655  2.5526 -1.6149
   48MOL0     H 6476   2.179   1.998   8.367  1.6143 -0.1897 -1.3889
   48MOL0     H 6477   2.204   1.852   8.469  0.3359  0.7463 -1.7969
   48MOL0     H 6478   2.492   2.113   8.634  0.3429 -0.9004  0.4863
   48MOL0     H 6479   1.964   1.853   8.970  0.8959 -0.7710 -0.8059
   48MOL0     H 6480   2.086   1.885   9.184  0.6331 -0.2953 -1.7442
   49MOL0     O 6481   4.292   1.668   0.311  0.3724  0.4061 -0.3005
   49MOL0     C 6482   4.355   1.626   0.220  0.5326 -0.8885 -0.0861
   49MOL0     O 6483   4.310   1.627   0.088 -0.3221 -0.5521 -0.3012
   49MOL0     C 6484   4.182   1.659   0.047 -0.7968 -0.1082 -0.4328
   49MOL0     C 6485   4.089   1.750   0.116 -0.3941  0.0173 -0.4522
   49MOL0     C 6486   3.964   1.788   0.053 -0.5185 -0.6204  0.1206
   49MOL0     C 6487   3.927   1.732  -0.068 -0.1200 -0.0005  1.1945
   49MOL0     O 6488   3.809   1.772  -0.123 -0.4723 -0.1236 -0.4187
   49MOL0     C 6489   3.709   1.676  -0.160  0.4615  0.7697  0.4845
   49MOL0     C 6490   3.640   1.725  -0.277  0.1154  0.6911  0.7055
   49MOL0     C 6491   3.500   1.649  -0.289 -0.2682 -0.7586  0.3098
   49MOL0     C 6492   3.421   1.688  -0.421  0.6935 -0.5895 -0.6604
   49MOL0     C 6493   3.282   1.614  -0.412 -0.4351  0.0686  0.7338
   49MOL0     C 6494   3.202   1.580  -0.543 -0.2009  0.8631  0.0139
   49MOL0     C 6495   3.277   1.480  -0.634 -0.1433  1.4517 -0.2093
   49MOL0     C 6496   3.216   1.441  -0.764  0.5845 -0.4645 -0.1091
   49MOL0     N 6497   3.081   1.376  -0.749 -0.5798 -1.1279  0.1505
   49MOL0     C 6498   3.075   1.247  -0.708  0.0350  0.5547 -0.9874
   49MOL0     C 6499   2.942   1.216  -0.693  0.9375 -0.4046  0.5149
   49MOL0     C 6500   2.883   1.079  -0.663 -0.5339 -1.0683 -0.0112
   49MOL0     C 6501   2.788   1.071  -0.539  0.5811  0.5902  0.5055
   49MOL0     C 6502   2.854   1.094  -0.411 -0.1036  0.4760 -0.5667
   49MOL0     C 6503   2.963   0.984  -0.377 -0.0163 -0.4688  0.6275
   49MOL0     O 6504   3.018   0.995  -0.244 -0.3579  0.7169 -0.2867
   49MOL0     C 6505   3.152   1.034  -0.221  0.5453 -0.4222  1.4282
   49MOL0     C 6506   3.230   1.081  -0.335  0.5718 -0.3481  0.4171
   49MOL0     C 6507   3.365   1.088  -0.327  0.5081  0.1757  0.2502
   49MOL0     C 6508   3.433   1.103  -0.459 -0.2945 -0.6594  0.2237
   49MOL0     C 6509   3.430   1.082  -0.201 -0.6115  0.5653  1.2147
   49MOL0     C 6510   3.584   1.103  -0.167  0.0935  0.8090 -0.7912
   49MOL0     O 6511   3.635   1.044  -0.051 -0.5708 -0.0398 -0.8103
   49MOL0     C 6512   3.764   1.073  -0.004  0.1147  0.5137 -0.2513
   49MOL0     C 6513   3.845   0.965   0.022  0.2958 -0.1266  0.0613
   49MOL0     C 6514   3.984   0.984   0.061  0.7593 -0.3945 -0.0449
   49MOL0     C 6515   4.030   1.109   0.063  0.0060 -0.6111  0.0861
   49MOL0     O 6516   4.165   1.132   0.087  0.0186  0.0004 -0.2000
   49MOL0     C 6517   4.208   1.264   0.133 -0.3257  1.1148 -0.4655
   49MOL0     C 6518   4.303   1.232   0.260 -0.1364 -0.2544  0.4219
   49MOL0     C 6519   4.432   1.163   0.213 -0.2985 -0.0538 -0.3134
   49MOL0     C 6520   4.523   1.114   0.319  0.5242  0.8040 -0.2402
   49MOL0     C 6521   4.585   1.233   0.393  0.1049 -0.7820 -0.0592
   49MOL0     C 6522   4.706   1.216   0.488  0.5812  0.3275 -0.4581
   49MOL0     C 6523   4.823   1.163   0.408  0.2230  0.0967 -0.5642
   49MOL0     C 6524   4.953   1.198   0.475 -0.0784  0.4639  0.0717
   49MOL0    Cl 6525   5.075   1.120   0.375  0.2239  0.3982  0.5113
   49MOL0     C 6526   3.953   1.215   0.019 -0.4153 -0.2835  0.0073
   49MOL0     C 6527   3.825   1.198  -0.014  1.1237  0.0662 -0.2806
   49MOL0     O 6528   3.652   1.167  -0.242  0.0947 -0.3379 -0.2879
   49MOL0     C 6529   3.356   1.049  -0.096  0.5567 -0.7732 -0.2181
   49MOL0     C 6530   3.217   1.015  -0.098 -0.6390 -0.1292 -0.4305
   49MOL0     N 6531   2.872   1.340  -0.715 -0.9957  0.2915 -0.3860
   49MOL0     N 6532   2.957   1.434  -0.748 -0.1626  0.0496  0.3143
   49MOL0     C 6533   4.021   1.642  -0.135  0.0190  0.6387 -0.6225
   49MOL0     C 6534   4.142   1.606  -0.080 -0.3930  0.2429 -0.3237
   49MOL0     C 6535   4.494   1.583   0.250  0.0664  1.2461  0.2660
   49MOL0     C 6536   4.558   1.615   0.368 -0.3768  0.2488  0.0714
   49MOL0     C 6537   4.692   1.584   0.385  0.1821 -0.8522 -0.0914
   49MOL0     C 6538   4.766   1.522   0.281 -0.0882 -0.3376 -0.0207
   49MOL0     O 6539   4.898   1.501   0.294 -0.4778 -1.0689 -0.1017
   49MOL0     C 6540   4.992   1.584   0.207 -0.0823  0.1571  0.3062
   49MOL0     C 6541   5.012   1.729   0.260  0.2049  0.0006 -0.4506
   49MOL0     C 6542   5.036   1.743   0.412  0.1272 -0.2343  0.2386
   49MOL0     C 6543   5.179   1.693   0.464 -0.1932  1.0753 -0.1640
   49MOL0     C 6544   5.175   1.718   0.603 -0.4622 -0.4051 -0.1212
   49MOL0     C 6545   5.187   1.730   0.722  0.6326  0.4402  0.3672
   49MOL0     C 6546   4.701   1.501   0.160 -0.2291 -1.1647  0.0376
   49MOL0     C 6547   4.567   1.517   0.152  0.1618  0.4306  0.2626
   49MOL0     H 6548   4.107   1.788   0.215 -4.9541  1.9516 -0.1078
   49MOL0     H 6549   3.902   1.867   0.093  0.2025  0.5739 -1.0281
   49MOL0     H 6550   3.747   1.579  -0.195  0.6333  0.8775  0.3726
   49MOL0     H 6551   3.642   1.656  -0.076  0.1270  1.7059  0.4433
   49MOL0     H 6552   3.610   1.830  -0.264  1.2108  1.2166 -0.7598
   49MOL0     H 6553   3.697   1.711  -0.369 -1.7069  1.1565 -0.5623
   49MOL0     H 6554   3.513   1.541  -0.287 -0.1124 -0.7312  0.7177
   49MOL0     H 6555   3.429   1.665  -0.207 -1.7948  0.1870 -1.1181
   49MOL0     H 6556   3.394   1.794  -0.415 -2.4806 -1.3615  0.3698
   49MOL0     H 6557   3.487   1.678  -0.508  1.3420  2.6833 -0.6960
   49MOL0     H 6558   3.307   1.513  -0.378 -0.9041 -0.2657  0.0979
   49MOL0     H 6559   3.216   1.662  -0.339  0.9846  1.4619  1.1708
   49MOL0     H 6560   3.111   1.529  -0.511 -0.0940  1.6742  1.7026
   49MOL0     H 6561   3.175   1.675  -0.589  0.3587  0.4427 -1.2372
   49MOL0     H 6562   3.375   1.526  -0.654  0.9910  0.8342  3.1496
   49MOL0     H 6563   3.301   1.389  -0.578  3.3814  1.2551 -1.7689
   49MOL0     H 6564   3.292   1.375  -0.808  1.7035  0.2469  0.6967
   49MOL0     H 6565   3.212   1.530  -0.827  1.5578  0.0268  0.4919
   49MOL0     H 6566   3.155   1.174  -0.697  0.9414  1.6343 -0.1633
   49MOL0     H 6567   2.821   1.042  -0.744 -2.3581  3.0863 -0.7725
   49MOL0     H 6568   2.963   1.005  -0.657  0.0671 -0.3424  1.6058
   49MOL0     H 6569   2.743   0.971  -0.535 -1.8553  1.5469 -0.6774
   49MOL0     H 6570   2.709   1.147  -0.545  0.7827  0.7507 -0.1750
   49MOL0     H 6571   2.787   1.078  -0.326 -0.0024  1.6691 -0.2510
   49MOL0     H 6572   2.897   1.194  -0.395  0.1557 -0.1551  3.9547
   49MOL0     H 6573   3.034   0.972  -0.459  2.9385  0.3887  2.8949
   49MOL0     H 6574   2.913   0.887  -0.370  0.4477 -0.7159  0.4972
   49MOL0     H 6575   3.184   1.102  -0.431  0.0067  0.0384  0.7638
   49MOL0     H 6576   3.408   1.029  -0.536  0.5466  1.8840 -2.7019
   49MOL0     H 6577   3.400   1.202  -0.492 -2.4186 -1.5383 -0.4308
   49MOL0     H 6578   3.541   1.098  -0.444 -0.5938 -0.9628  2.5418
   49MOL0     H 6579   3.794   0.869   0.023  1.5991 -0.8420  1.3690
   49MOL0     H 6580   4.051   0.900   0.072  1.1470 -0.4961 -2.4540
   49MOL0     H 6581   4.262   1.322   0.057 -0.0788  0.4895 -0.7745
   49MOL0     H 6582   4.124   1.316   0.180 -0.7667 -1.3664  1.7095
   49MOL0     H 6583   4.313   1.330   0.308 -1.2208  0.2965 -0.4177
   49MOL0     H 6584   4.250   1.158   0.321 -1.1975  0.8433  0.8819
   49MOL0     H 6585   4.471   1.232   0.138 -5.7053  1.5084 -2.1294
   49MOL0     H 6586   4.419   1.071   0.155  0.0142 -0.1401 -0.2478
   49MOL0     H 6587   4.465   1.046   0.383 -1.7651 -1.0297 -3.8687
   49MOL0     H 6588   4.605   1.055   0.276  2.9224  4.1002 -0.5411
   49MOL0     H 6589   4.503   1.280   0.449 -0.2239  1.2543 -2.1239
   49MOL0     H 6590   4.615   1.312   0.324  1.1038 -1.3412 -0.2877
   49MOL0     H 6591   4.741   1.313   0.524  3.3760 -0.4715 -0.7987
   49MOL0     H 6592   4.681   1.149   0.570 -0.1380  1.9322  0.6914
   49MOL0     H 6593   4.813   1.207   0.308 -0.5283 -0.3080 -0.6762
   49MOL0     H 6594   4.807   1.055   0.411  1.0888 -0.1320  4.8962
   49MOL0     H 6595   4.952   1.156   0.576 -2.1079  1.6792  0.6138
   49MOL0     H 6596   4.972   1.303   0.499  1.8562  0.1441  0.1209
   49MOL0     H 6597   3.998   1.312   0.002  2.4104 -1.0348  2.3068
   49MOL0     H 6598   3.776   1.290  -0.046 -1.1871 -1.8247 -2.6511
   49MOL0     H 6599   3.408   1.049  -0.001  0.6849 -0.7451 -0.2894
   49MOL0     H 6600   3.160   0.986  -0.010  2.0027 -0.4518  1.2927
   49MOL0     H 6601   4.002   1.609  -0.237 -0.2567 -0.5056 -0.2072
   49MOL0     H 6602   4.212   1.545  -0.136 -0.5654  2.2809 -2.9771
   49MOL0     H 6603   4.507   1.671   0.447  0.7858  3.4942 -1.3096
   49MOL0     H 6604   4.736   1.611   0.481 -0.7326  0.2493  0.0340
   49MOL0     H 6605   5.093   1.543   0.199  0.0700 -0.0558  2.6781
   49MOL0     H 6606   4.951   1.574   0.106  1.2287  1.8460 -0.4325
   49MOL0     H 6607   4.920   1.780   0.229  0.1920  1.3873  1.6851
   49MOL0     H 6608   5.085   1.786   0.203 -1.3136  2.8356  0.2788
   49MOL0     H 6609   4.967   1.682   0.469  2.5354 -0.8935  2.6466
   49MOL0     H 6610   5.027   1.844   0.453  1.3026 -1.7097  4.6814
   49MOL0     H 6611   5.259   1.753   0.419  3.7319 -1.2376  3.0763
   49MOL0     H 6612   5.197   1.590   0.434 -1.7740  1.4949 -2.9274
   49MOL0     H 6613   5.197   1.733   0.829 -2.0878 -1.2278  0.7494
   49MOL0     H 6614   4.742   1.468   0.065 -0.3853 -0.0370 -0.4438
   49MOL0     H 6615   4.532   1.507   0.050 -2.6332  4.1247  0.6506
   50MOL0     O 6616  11.332   9.693   3.558  0.3489 -1.0667 -0.0303
   50MOL0     C 6617  11.377   9.797   3.504 -0.6242  0.3020 -0.2167
   50MOL0     O 6618  11.317   9.923   3.511  0.4690 -0.0852  0.3319
   50MOL0     C 6619  11.220   9.928   3.605 -0.2121 -0.3916  0.1357
   50MOL0     C 6620  11.098   9.872   3.581 -0.0370 -0.6362 -0.1846
   50MOL0     C 6621  10.997   9.890   3.679 -1.2466  0.7116 -0.1174
   50MOL0     C 6622  11.028   9.952   3.802 -0.2303 -0.4551 -0.1859
   50MOL0     O 6623  10.939   9.974   3.908  0.5609  0.4321  0.2253
   50MOL0     C 6624  10.842   9.874   3.918 -0.1881 -0.0704  0.1868
   50MOL0     C 6625  10.778   9.866   4.057 -0.5387 -0.2699 -0.3736
   50MOL0     C 6626  10.698   9.983   4.084 -1.0339 -0.4049  0.4619
   50MOL0     C 6627  10.576   9.948   4.176 -0.6103 -0.3377 -0.2104
   50MOL0     C 6628  10.468   9.880   4.096  0.1152  0.3163 -0.5390
   50MOL0     C 6629  10.348   9.865   4.185  0.1767  0.4918 -0.3926
   50MOL0     C 6630  10.360   9.746   4.273 -0.0096  0.3695  0.1074
   50MOL0     C 6631  10.227   9.713   4.347  0.3897  0.6682  0.6365
   50MOL0     N 6632  10.245   9.576   4.394 -0.1329 -0.0063 -0.7430
   50MOL0     C 6633  10.194   9.461   4.339 -0.6155 -0.2682  0.8077
   50MOL0     C 6634  10.233   9.357   4.417  0.3158 -0.3523 -1.0959
   50MOL0     C 6635  10.187   9.216   4.396 -0.3880 -0.4104 -0.0438
   50MOL0     C 6636  10.261   9.118   4.483 -0.7447  0.4785  0.0210
   50MOL0     C 6637  10.396   9.084   4.420  0.0223 -0.7858 -1.1796
   50MOL0     C 6638  10.503   9.081   4.532  0.2329  0.4470  0.2584
   50MOL0     O 6639  10.624   9.065   4.464  0.7992  0.1883  0.7141
   50MOL0     C 6640  10.690   9.171   4.408  0.6407 -0.3350 -0.4668
   50MOL0     C 6641  10.647   9.309   4.420  0.0338  0.7408 -0.1920
   50MOL0     C 6642  10.715   9.422   4.364 -0.6486 -0.4221 -1.0431
   50MOL0     C 6643  10.650   9.560   4.365 -0.4896  0.3897  0.9248
   50MOL0     C 6644  10.833   9.391   4.294  0.0713  0.7642  0.7001
   50MOL0     C 6645  10.928   9.491   4.227  0.0328  0.8876  1.5449
   50MOL0     O 6646  11.029   9.440   4.147  0.3944  0.3031 -0.0251
   50MOL0     C 6647  11.126   9.523   4.103 -0.9171  0.1640 -0.1082
   50MOL0     C 6648  11.128   9.662   4.062 -0.4361 -0.1629 -0.6613
   50MOL0     C 6649  11.244   9.718   4.012  0.1935  0.0304 -0.0987
   50MOL0     C 6650  11.364   9.649   4.010  0.7876 -0.4135 -0.0715
   50MOL0     O 6651  11.471   9.692   3.933  0.5358  0.1316 -0.4187
   50MOL0     C 6652  11.603   9.666   3.974  1.2111  0.3145  1.0620
   50MOL0     C 6653  11.707   9.775   3.933  0.7298  0.0570  0.6036
   50MOL0     C 6654  11.847   9.730   3.979  0.0820 -0.5034  0.0371
   50MOL0     C 6655  11.942   9.847   3.942  0.1436  0.7065 -1.2090
   50MOL0     C 6656  12.086   9.812   3.979  0.7346 -0.3139 -0.0426
   50MOL0     C 6657  12.181   9.931   3.977  0.6942 -0.3845  0.2305
   50MOL0     C 6658  12.320   9.915   4.035 -0.5283 -0.1501 -0.3398
   50MOL0     C 6659  12.316   9.855   4.177 -0.2942 -0.3721  0.8651
   50MOL0    Cl 6660  12.215   9.935   4.284  0.3272  0.4905  0.1544
   50MOL0     C 6661  11.360   9.514   4.063 -1.2851 -1.0238  0.0341
   50MOL0     C 6662  11.243   9.451   4.106 -0.2151 -0.5109  0.3743
   50MOL0     O 6663  10.901   9.611   4.240 -0.7345  0.2508 -0.0562
   50MOL0     C 6664  10.874   9.256   4.283 -0.1115  0.2178  1.0512
   50MOL0     C 6665  10.809   9.149   4.335  0.9364  0.0281  0.3556
   50MOL0     N 6666  10.298   9.418   4.521 -0.5423  1.0940 -0.5225
   50MOL0     N 6667  10.299   9.538   4.512 -0.1852 -1.3912 -0.6863
   50MOL0     C 6668  11.150  10.008   3.833 -0.6322  0.8895  0.1365
   50MOL0     C 6669  11.244   9.994   3.726  0.2810  0.0543  0.3079
   50MOL0     C 6670  11.487   9.798   3.416 -0.6238 -0.2657  0.6002
   50MOL0     C 6671  11.589   9.701   3.436  0.3236  0.1187  0.1992
   50MOL0     C 6672  11.709   9.699   3.357  0.5425  0.5604 -0.8026
   50MOL0     C 6673  11.728   9.793   3.254 -0.5541 -0.2294 -0.7078
   50MOL0     O 6674  11.845   9.813   3.182  0.5205 -0.3810  0.2525
   50MOL0     C 6675  11.929   9.712   3.136  0.5689  0.3776 -0.3677
   50MOL0     C 6676  12.020   9.643   3.234  0.7029 -0.1567 -0.4969
   50MOL0     C 6677  12.152   9.594   3.173 -0.2700  0.5004  0.2707
   50MOL0     C 6678  12.238   9.523   3.279  0.9131 -0.5657 -0.7376
   50MOL0     C 6679  12.354   9.461   3.222  0.7473  0.2046  0.0956
   50MOL0     C 6680  12.454   9.415   3.172  1.4304  0.8877 -0.1680
   50MOL0     C 6681  11.622   9.885   3.227 -0.6650  0.3752 -0.6138
   50MOL0     C 6682  11.504   9.880   3.307  0.2976 -0.2785  0.2311
   50MOL0     H 6683  11.087   9.821   3.486  0.6916  1.9507 -1.7782
   50MOL0     H 6684  10.896   9.854   3.662 -1.0162 -0.3689  0.6662
   50MOL0     H 6685  10.763   9.891   3.844  1.4172 -2.6664 -2.3773
   50MOL0     H 6686  10.884   9.775   3.901 -1.4483 -0.8454  1.4191
   50MOL0     H 6687  10.711   9.780   4.048 -2.9392  1.3696  0.9248
   50MOL0     H 6688  10.858   9.853   4.131 -0.9818 -0.6342  0.0460
   50MOL0     H 6689  10.755  10.065   4.128 -2.3079  1.0393 -0.4959
   50MOL0     H 6690  10.654  10.022   3.992  0.0789 -2.1590 -0.8843
   50MOL0     H 6691  10.620   9.883   4.252 -0.2621 -2.1220 -1.8691
   50MOL0     H 6692  10.539  10.035   4.231 -1.3011 -1.3437  0.9565
   50MOL0     H 6693  10.447   9.945   4.010 -2.0713  1.1892  0.5779
   50MOL0     H 6694  10.503   9.785   4.055  3.7773  0.6417  1.3716
   50MOL0     H 6695  10.317   9.958   4.234  0.5819  0.5014 -0.1509
   50MOL0     H 6696  10.266   9.828   4.122  0.5770 -1.9139  0.3952
   50MOL0     H 6697  10.383   9.659   4.211 -1.2269 -2.2634  3.0724
   50MOL0     H 6698  10.440   9.779   4.341  1.1857  1.2310 -1.6424
   50MOL0     H 6699  10.141   9.719   4.279 -0.8894  0.5781  2.1793
   50MOL0     H 6700  10.213   9.789   4.424 -5.1720 -0.4534  1.1707
   50MOL0     H 6701  10.140   9.450   4.246  0.5103  0.9783 -0.0254
   50MOL0     H 6702  10.082   9.224   4.425  0.3376 -1.3426  3.3065
   50MOL0     H 6703  10.192   9.186   4.291  1.1175 -1.1372  0.2134
   50MOL0     H 6704  10.201   9.026   4.485 -0.4893  0.1926 -2.4305
   50MOL0     H 6705  10.280   9.143   4.588  0.2727 -0.1727  0.0092
   50MOL0     H 6706  10.425   9.159   4.346 -1.7124 -0.3365 -1.4511
   50MOL0     H 6707  10.380   8.986   4.376  0.1510 -1.3369 -0.0264
   50MOL0     H 6708  10.501   8.998   4.604  1.6235  0.0180 -0.1636
   50MOL0     H 6709  10.494   9.174   4.588 -3.6634  0.0316  0.5758
   50MOL0     H 6710  10.565   9.339   4.484 -1.8336 -1.9773 -1.1234
   50MOL0     H 6711  10.719   9.642   4.388 -1.3377  1.5686 -0.5694
   50MOL0     H 6712  10.603   9.574   4.267 -1.7227  0.4802  1.5071
   50MOL0     H 6713  10.570   9.569   4.439 -1.2105 -0.1775  0.2388
   50MOL0     H 6714  11.036   9.720   4.061 -0.5319 -0.3036 -1.9753
   50MOL0     H 6715  11.247   9.813   3.959 -2.2763  1.6392  2.4426
   50MOL0     H 6716  11.606   9.678   4.083 -3.2342 -3.0316  1.8300
   50MOL0     H 6717  11.627   9.571   3.925  1.9563  2.1328 -2.4499
   50MOL0     H 6718  11.712   9.776   3.824 -0.6122  0.8008  0.5301
   50MOL0     H 6719  11.669   9.869   3.974  1.9039  0.2768  1.2283
   50MOL0     H 6720  11.881   9.635   3.936  0.8638  0.7759 -2.3579
   50MOL0     H 6721  11.853   9.721   4.088  1.2085  0.5074  0.0850
   50MOL0     H 6722  11.922   9.856   3.835 -0.3740  2.5341 -0.9800
   50MOL0     H 6723  11.905   9.942   3.982 -0.1299  0.9299 -1.9912
   50MOL0     H 6724  12.127   9.736   3.913 -1.6450  0.0297 -2.0570
   50MOL0     H 6725  12.079   9.761   4.076  0.6844 -0.6692 -0.2307
   50MOL0     H 6726  12.192   9.944   3.869 -0.7184 -1.8151 -0.1296
   50MOL0     H 6727  12.121  10.013   4.016  2.1760  2.4779 -2.9590
   50MOL0     H 6728  12.373  10.010   4.044  1.8424 -1.3067 -1.3672
   50MOL0     H 6729  12.386   9.853   3.975 -0.8358 -0.7613 -0.0583
   50MOL0     H 6730  12.410   9.836   4.229  0.4915  1.4399  0.1819
   50MOL0     H 6731  12.278   9.752   4.179 -1.0270 -0.1163  0.2765
   50MOL0     H 6732  11.453   9.458   4.057  0.7256  1.6364  2.9694
   50MOL0     H 6733  11.249   9.354   4.155 -0.0349  1.1125  3.8503
   50MOL0     H 6734  10.957   9.220   4.224  1.2421  2.7433  1.2689
   50MOL0     H 6735  10.830   9.045   4.309 -0.3622  0.5881 -3.5920
   50MOL0     H 6736  11.164  10.057   3.929  0.3096  0.2972  0.3147
   50MOL0     H 6737  11.340  10.043   3.740 -0.4928  1.6622  0.2790
   50MOL0     H 6738  11.577   9.629   3.516 -0.1010 -0.6193 -0.5093
   50MOL0     H 6739  11.785   9.627   3.387  0.6476 -0.1601 -2.7208
   50MOL0     H 6740  11.869   9.636   3.085  0.1007 -0.5765  1.5129
   50MOL0     H 6741  11.991   9.761   3.060  1.1132  0.3145  0.0257
   50MOL0     H 6742  11.963   9.562   3.279  1.7062  0.1121  1.3855
   50MOL0     H 6743  12.058   9.718   3.305  2.7600 -1.8056  0.2427
   50MOL0     H 6744  12.205   9.684   3.141 -0.0098  0.1560 -0.3012
   50MOL0     H 6745  12.147   9.524   3.089  3.6516  1.3081 -0.8714
   50MOL0     H 6746  12.172   9.460   3.339 -1.6825  1.6164 -1.1108
   50MOL0     H 6747  12.265   9.602   3.350 -2.1651  1.5762 -1.7452
   50MOL0     H 6748  12.540   9.366   3.130  1.0509 -0.9331  1.0457
   50MOL0     H 6749  11.653   9.974   3.172  1.6937  1.7552  2.6335
   50MOL0     H 6750  11.430   9.959   3.292  1.9342  0.7096 -4.0180
   51MOL0     O 6751   4.935   9.286   6.202  0.1653 -0.0732 -0.6725
   51MOL0     C 6752   4.844   9.347   6.261 -0.6328  0.4917 -0.4051
   51MOL0     O 6753   4.727   9.295   6.310  0.0582 -0.3593  0.2637
   51MOL0     C 6754   4.705   9.162   6.267 -0.4151 -0.4976  0.3271
   51MOL0     C 6755   4.782   9.059   6.323 -0.2878  0.2296  0.6898
   51MOL0     C 6756   4.765   8.930   6.275  0.0096 -0.0045  0.7765
   51MOL0     C 6757   4.662   8.905   6.185 -0.6274  0.3230  0.6434
   51MOL0     O 6758   4.655   8.778   6.142 -0.2437 -0.2566  0.3427
   51MOL0     C 6759   4.542   8.738   6.064  0.2817  0.3159  0.5731
   51MOL0     C 6760   4.571   8.607   5.998 -0.5039  0.4441 -0.1203
   51MOL0     C 6761   4.669   8.610   5.882  0.1477 -1.4094  0.1941
   51MOL0     C 6762   4.706   8.472   5.830 -0.0551 -0.2129  0.3403
   51MOL0     C 6763   4.782   8.394   5.929 -0.4354  0.2891 -0.1036
   51MOL0     C 6764   4.810   8.252   5.872 -0.5477 -0.0678  0.0626
   51MOL0     C 6765   4.927   8.178   5.944  0.2660  0.5180  0.5290
   51MOL0     C 6766   4.932   8.190   6.092  0.3088  0.1381  0.7015
   51MOL0     N 6767   4.996   8.072   6.156  0.0277 -0.2058 -0.5563
   51MOL0     C 6768   5.122   8.054   6.207  0.0288 -0.6242 -0.1259
   51MOL0     C 6769   5.118   7.939   6.261  0.0893 -0.2788 -0.4106
   51MOL0     C 6770   5.239   7.876   6.321 -0.6965  0.4589 -0.1921
   51MOL0     C 6771   5.209   7.850   6.470 -1.3978  0.5065 -0.1639
   51MOL0     C 6772   5.335   7.804   6.546  0.8015  0.3846  0.1509
   51MOL0     C 6773   5.401   7.925   6.620 -0.2011  0.5663 -0.9242
   51MOL0     O 6774   5.519   7.890   6.694 -0.5105 -0.5845  0.8312
   51MOL0     C 6775   5.601   7.793   6.648 -0.0075 -0.0426  0.4683
   51MOL0     C 6776   5.674   7.825   6.531  0.6458  0.7873  0.3354
   51MOL0     C 6777   5.760   7.726   6.468  0.1137  0.0349  0.2839
   51MOL0     C 6778   5.827   7.764   6.338 -0.2588  0.3820 -0.0179
   51MOL0     C 6779   5.761   7.602   6.532 -0.2234  0.1915  0.1867
   51MOL0     C 6780   5.837   7.491   6.467  0.2600  0.5427  0.2320
   51MOL0     O 6781   5.957   7.522   6.409 -0.0094 -0.2656  0.4699
   51MOL0     C 6782   6.064   7.432   6.410 -0.1914  0.5099  0.6220
   51MOL0     C 6783   6.095   7.348   6.519  0.3945 -0.5362  0.4321
   51MOL0     C 6784   6.193   7.249   6.510 -0.6717  0.4098 -0.2813
   51MOL0     C 6785   6.263   7.228   6.397 -0.4049  0.0906  0.8550
   51MOL0     O 6786   6.352   7.120   6.395  0.4416  0.1210  0.4706
   51MOL0     C 6787   6.345   7.033   6.283  0.2137  0.0435 -0.2594
   51MOL0     C 6788   6.384   6.883   6.316  0.3623  0.6100  0.3988
   51MOL0     C 6789   6.271   6.794   6.354  0.2531 -0.2287  1.2014
   51MOL0     C 6790   6.183   6.850   6.471 -0.0945  0.2104  0.6168
   51MOL0     C 6791   6.053   6.914   6.419  0.3879 -0.0905  0.8308
   51MOL0     C 6792   5.972   6.949   6.545  0.7721  0.0028  0.2884
   51MOL0     C 6793   5.847   7.028   6.505  0.2432  0.8544  0.1970
   51MOL0     C 6794   5.747   7.066   6.620 -0.0985 -0.7045  0.2090
   51MOL0    Cl 6795   5.645   6.934   6.687  0.2606  0.2614 -0.1757
   51MOL0     C 6796   6.239   7.318   6.287 -0.5049 -0.0466  0.2013
   51MOL0     C 6797   6.144   7.424   6.295  0.1743  0.2358 -0.9381
   51MOL0     O 6798   5.807   7.377   6.501  0.2638  0.0591 -0.0396
   51MOL0     C 6799   5.684   7.571   6.648  0.1293  0.4074  1.3322
   51MOL0     C 6800   5.612   7.671   6.705  0.0339 -0.0636 -0.7522
   51MOL0     N 6801   4.986   7.885   6.245 -0.3320 -0.7865 -0.1319
   51MOL0     N 6802   4.924   7.963   6.178  0.0223 -0.2313  0.3686
   51MOL0     C 6803   4.591   9.011   6.123  0.0230  0.5035  0.4867
   51MOL0     C 6804   4.612   9.135   6.167 -0.1919 -0.5286 -0.3493
   51MOL0     C 6805   4.860   9.484   6.299 -0.3761  0.0591  1.0020
   51MOL0     C 6806   4.786   9.551   6.389 -0.1194  0.9257 -0.2860
   51MOL0     C 6807   4.804   9.682   6.427 -0.7297  0.1580  0.2427
   51MOL0     C 6808   4.897   9.759   6.358  0.4635  0.4038  0.3646
   51MOL0     O 6809   4.928   9.880   6.414  0.0142 -0.3247  0.8502
   51MOL0     C 6810   5.005   9.866   6.537  0.7316 -0.3889  0.4934
   51MOL0     C 6811   5.150   9.809   6.527 -0.2982 -0.3171  0.0296
   51MOL0     C 6812   5.237   9.912   6.445  0.2248 -0.0411 -0.3583
   51MOL0     C 6813   5.375   9.845   6.415 -0.5889  0.3616 -0.2476
   51MOL0     C 6814   5.365   9.732   6.316 -0.1791 -1.0919 -0.4505
   51MOL0     C 6815   5.375   9.649   6.223 -0.8104 -0.0674 -0.1456
   51MOL0     C 6816   4.983   9.700   6.262 -0.8959 -0.1325 -0.5524
   51MOL0     C 6817   4.976   9.556   6.250  0.2149  0.2232 -0.4340
   51MOL0     H 6818   4.851   9.084   6.403 -0.2000  0.9266  0.4069
   51MOL0     H 6819   4.811   8.840   6.315 -1.1252 -0.9114  0.1089
   51MOL0     H 6820   4.455   8.725   6.128  0.2653 -1.8891  0.1784
   51MOL0     H 6821   4.515   8.811   5.988  3.4455  0.2665 -0.7843
   51MOL0     H 6822   4.596   8.535   6.077 -1.6343 -0.4035 -0.5012
   51MOL0     H 6823   4.478   8.562   5.960 -1.4070  1.6660  0.5676
   51MOL0     H 6824   4.629   8.679   5.808 -0.6155 -3.1270 -1.0608
   51MOL0     H 6825   4.767   8.654   5.906 -0.3681 -0.2686  0.2449
   51MOL0     H 6826   4.605   8.431   5.822  0.1129 -0.2964 -3.4845
   51MOL0     H 6827   4.749   8.481   5.729 -1.3424 -0.2613 -0.2375
   51MOL0     H 6828   4.868   8.461   5.933  0.4267 -0.7568 -0.5185
   51MOL0     H 6829   4.736   8.385   6.028 -0.7884 -1.0933 -0.3721
   51MOL0     H 6830   4.712   8.205   5.874 -3.3253  4.7916 -2.2681
   51MOL0     H 6831   4.832   8.249   5.765 -1.3992  1.3070 -0.1815
   51MOL0     H 6832   4.923   8.073   5.913 -0.8242 -0.5020  3.7420
   51MOL0     H 6833   5.020   8.224   5.912 -0.9504  1.3226 -2.1272
   51MOL0     H 6834   4.826   8.203   6.115  0.6554  0.8705  2.0141
   51MOL0     H 6835   4.963   8.294   6.111  0.1565  0.8309 -2.3833
   51MOL0     H 6836   5.206   8.119   6.188 -0.3986 -0.4824 -1.6611
   51MOL0     H 6837   5.262   7.777   6.281  0.0058  0.0539  1.1635
   51MOL0     H 6838   5.332   7.933   6.311 -1.1101  1.1262 -0.2717
   51MOL0     H 6839   5.134   7.770   6.470 -1.1739  0.2947  0.2423
   51MOL0     H 6840   5.170   7.936   6.525  1.2268 -0.1795  3.0563
   51MOL0     H 6841   5.400   7.746   6.480 -1.6942  1.3394 -3.4668
   51MOL0     H 6842   5.294   7.737   6.622 -1.9665  0.1698 -1.4105
   51MOL0     H 6843   5.332   7.973   6.689 -1.5985 -1.8025 -0.5470
   51MOL0     H 6844   5.430   7.999   6.545  1.0599  2.0587  0.9563
   51MOL0     H 6845   5.670   7.928   6.495 -4.2204  0.4560 -0.8213
   51MOL0     H 6846   5.790   7.859   6.301 -0.5309 -0.1710 -1.2253
   51MOL0     H 6847   5.936   7.768   6.348 -0.0651 -0.8838 -1.2991
   51MOL0     H 6848   5.804   7.677   6.275 -0.3105 -0.4150  1.0579
   51MOL0     H 6849   6.039   7.348   6.612 -0.6708 -0.3088 -0.1826
   51MOL0     H 6850   6.227   7.183   6.589 -3.0799  0.3096  0.7617
   51MOL0     H 6851   6.243   7.028   6.242 -0.1160  0.6604  0.4547
   51MOL0     H 6852   6.417   7.064   6.207  2.2749  1.2025  2.0441
   51MOL0     H 6853   6.446   6.845   6.234  0.5434  0.2954  0.6793
   51MOL0     H 6854   6.445   6.891   6.407 -0.1451  1.2789  0.6934
   51MOL0     H 6855   6.328   6.706   6.386  2.1845  0.0173 -1.2886
   51MOL0     H 6856   6.207   6.774   6.268 -1.4491 -2.7102  2.8879
   51MOL0     H 6857   6.142   6.764   6.524  0.3756 -1.5287 -1.6441
   51MOL0     H 6858   6.244   6.919   6.531 -0.5400 -0.0922  1.4258
   51MOL0     H 6859   5.996   6.846   6.355 -0.8020  0.0630  1.6948
   51MOL0     H 6860   6.076   7.002   6.358 -2.3907 -1.9390 -3.3344
   51MOL0     H 6861   5.940   6.851   6.583 -0.5495 -1.1722 -3.3582
   51MOL0     H 6862   6.032   7.005   6.617  0.0823 -0.4691  1.2672
   51MOL0     H 6863   5.788   6.976   6.429  0.3527 -0.4464  0.9713
   51MOL0     H 6864   5.892   7.117   6.459  0.3804  1.1425  0.8777
   51MOL0     H 6865   5.680   7.149   6.596 -0.1414 -0.4676  1.1110
   51MOL0     H 6866   5.806   7.087   6.709  1.7243 -1.7329 -0.7105
   51MOL0     H 6867   6.289   7.301   6.192  0.1656  3.5757 -0.2131
   51MOL0     H 6868   6.121   7.493   6.214 -2.5941  1.6862  0.9135
   51MOL0     H 6869   5.675   7.472   6.692 -1.3691  1.5437  3.8079
   51MOL0     H 6870   5.560   7.658   6.800  1.0042 -0.8837 -0.3108
   51MOL0     H 6871   4.504   8.987   6.064  0.2843 -1.0584  0.6672
   51MOL0     H 6872   4.561   9.214   6.114  0.4872 -0.7877 -1.4068
   51MOL0     H 6873   4.714   9.487   6.439  1.5007  0.4445  1.5745
   51MOL0     H 6874   4.729   9.722   6.494 -0.2016  0.6405  0.5609
   51MOL0     H 6875   4.998   9.967   6.577 -1.3884 -0.0928 -0.4271
   51MOL0     H 6876   4.950   9.800   6.605  0.1593 -1.1192 -0.6438
   51MOL0     H 6877   5.154   9.713   6.475 -2.0011 -0.6861  0.5061
   51MOL0     H 6878   5.187   9.792   6.629  2.5316  0.2556 -0.8110
   51MOL0     H 6879   5.254  10.002   6.504 -1.7188 -0.9455  1.7082
   51MOL0     H 6880   5.190   9.936   6.349 -1.4938  1.8876  0.8692
   51MOL0     H 6881   5.409   9.796   6.506  1.3169  1.0831 -0.5216
   51MOL0     H 6882   5.456   9.913   6.387 -0.0807 -0.4982 -0.8891
   51MOL0     H 6883   5.356   9.587   6.138 -4.3204 -0.6965  0.9650
   51MOL0     H 6884   5.056   9.757   6.205 -0.6089  0.4545  0.3695
   51MOL0     H 6885   5.055   9.513   6.189 -0.0182 -2.2714  0.9108
   52MOL0     O 6886   2.781   9.046   9.088 -0.7775  0.2097 -0.8445
   52MOL0     C 6887   2.800   8.957   9.165  0.1010  0.7042 -0.4341
   52MOL0     O 6888   2.797   8.970   9.303 -0.4358  0.4742 -0.1547
   52MOL0     C 6889   2.743   9.090   9.340 -0.0584  0.0771 -0.3312
   52MOL0     C 6890   2.624   9.077   9.402  0.4969  0.1498  0.3512
   52MOL0     C 6891   2.564   9.184   9.463  0.6064  0.4577  0.2772
   52MOL0     C 6892   2.626   9.312   9.455  0.1595  0.4618 -0.0550
   52MOL0     O 6893   2.573   9.422   9.516  0.2616  0.9795 -0.2393
   52MOL0     C 6894   2.539   9.411   9.655  0.2194  0.3264 -0.4721
   52MOL0     C 6895   2.469   9.536   9.704  0.0237 -0.3792  0.2920
   52MOL0     C 6896   2.391   9.528   9.827 -0.2897  0.0554  0.4535
   52MOL0     C 6897   2.376   9.672   9.876 -0.0141 -0.3822  0.1368
   52MOL0     C 6898   2.311   9.672  10.012 -0.0521 -0.5134 -0.0592
   52MOL0     C 6899   2.414   9.639  10.126  0.8127 -0.4714  0.4600
   52MOL0     C 6900   2.360   9.642  10.269  0.3269  0.3037  0.4039
   52MOL0     C 6901   2.474   9.659  10.368  1.0878  1.6240  0.8030
   52MOL0     N 6902   2.574   9.554  10.361 -0.2319  0.7239 -0.1906
   52MOL0     C 6903   2.559   9.423  10.399  0.2546  0.6089 -0.2503
   52MOL0     C 6904   2.669   9.368  10.357 -1.8863  0.0273  0.7244
   52MOL0     C 6905   2.691   9.214  10.362 -0.8652 -0.4781  0.6294
   52MOL0     C 6906   2.609   9.153  10.250 -0.2516  0.3837 -0.1484
   52MOL0     C 6907   2.556   9.006  10.269  0.1290 -0.7260 -0.0888
   52MOL0     C 6908   2.509   8.966  10.125  0.5225  0.3553 -0.2837
   52MOL0     O 6909   2.414   9.067  10.084 -0.2551  0.6297  0.1772
   52MOL0     C 6910   2.367   9.042   9.953  0.3772 -0.1301  0.0235
   52MOL0     C 6911   2.275   9.132   9.902  1.1647 -0.3126 -0.3214
   52MOL0     C 6912   2.204   9.114   9.782  0.4104  0.2959 -0.3335
   52MOL0     C 6913   2.124   9.227   9.731  0.2141 -0.7756 -0.1040
   52MOL0     C 6914   2.240   8.999   9.707  1.1687 -0.2524 -0.8684
   52MOL0     C 6915   2.184   8.967   9.569  0.2982 -0.9178  1.3365
   52MOL0     O 6916   2.116   9.062   9.498  0.7364 -0.6801  0.1452
   52MOL0     C 6917   2.090   9.039   9.361  0.3629  0.0429  0.1470
   52MOL0     C 6918   1.952   9.055   9.319 -0.1300 -0.5470  0.4276
   52MOL0     C 6919   1.908   9.009   9.193 -0.7525 -0.6111 -0.4608
   52MOL0     C 6920   2.008   8.972   9.100  0.1895  0.7771  0.4125
   52MOL0     O 6921   1.963   8.953   8.971 -1.1734  0.5540  0.4965
   52MOL0     C 6922   2.022   9.037   8.865 -0.2223  0.3622 -0.8341
   52MOL0     C 6923   2.113   8.953   8.761  0.2786 -0.1472  0.6499
   52MOL0     C 6924   2.062   8.809   8.738  0.1923 -0.1349 -0.1411
   52MOL0     C 6925   2.143   8.729   8.632 -0.1944 -0.7282 -0.3123
   52MOL0     C 6926   2.043   8.638   8.559 -0.7666 -0.0375  0.7905
   52MOL0     C 6927   2.089   8.563   8.439 -0.2158 -0.8673 -0.3521
   52MOL0     C 6928   2.108   8.652   8.311 -0.1575  0.1261  0.7091
   52MOL0     C 6929   2.175   8.571   8.207 -0.2793 -0.2306 -0.1343
   52MOL0    Cl 6930   2.073   8.426   8.190 -0.1731  0.3157 -0.1002
   52MOL0     C 6931   2.147   8.965   9.136 -0.1332  0.5234  0.5501
   52MOL0     C 6932   2.178   8.994   9.274 -0.9347 -0.3157  0.8793
   52MOL0     O 6933   2.207   8.857   9.519  0.0696 -0.5045  0.2415
   52MOL0     C 6934   2.325   8.909   9.758 -0.3014  0.8977 -0.6721
   52MOL0     C 6935   2.385   8.927   9.878  0.0038  0.8569 -0.1721
   52MOL0     N 6936   2.757   9.456  10.301  0.5949  0.0723  0.2474
   52MOL0     N 6937   2.691   9.567  10.301 -0.8086  0.0894  0.4710
   52MOL0     C 6938   2.740   9.331   9.386 -0.6660 -0.2029 -0.2503
   52MOL0     C 6939   2.801   9.219   9.327 -0.9146 -0.1694 -0.9191
   52MOL0     C 6940   2.821   8.823   9.118 -0.8551 -0.1040  0.0114
   52MOL0     C 6941   2.835   8.807   8.981  0.7738  0.2385  0.0468
   52MOL0     C 6942   2.878   8.682   8.928 -0.1131  0.2337  0.4937
   52MOL0     C 6943   2.907   8.575   9.014  0.3122 -0.0584  0.3536
   52MOL0     O 6944   2.971   8.474   8.950 -0.2066  0.5093  0.5636
   52MOL0     C 6945   3.056   8.381   9.025  0.1430  0.3561 -1.0296
   52MOL0     C 6946   3.115   8.271   8.947  0.5959  0.9533  0.0726
   52MOL0     C 6947   3.204   8.192   9.051  0.7330 -0.0459  0.4277
   52MOL0     C 6948   3.263   8.077   8.971 -0.1237 -0.0168  0.3455
   52MOL0     C 6949   3.295   7.958   9.048 -0.1578 -0.2050  0.4137
   52MOL0     C 6950   3.343   7.864   9.115 -0.5826 -0.9717 -0.1916
   52MOL0     C 6951   2.875   8.582   9.148 -0.0028  0.1499  0.2876
   52MOL0     C 6952   2.843   8.709   9.206  1.1046 -0.0598  0.7360
   52MOL0     H 6953   2.577   8.980   9.415 -0.0583  0.6377  2.3921
   52MOL0     H 6954   2.474   9.165   9.521  1.4026  2.7278  2.3815
   52MOL0     H 6955   2.453   9.343   9.659  0.7541 -0.2999  1.7495
   52MOL0     H 6956   2.629   9.383   9.710  0.6867  0.9219 -0.9169
   52MOL0     H 6957   2.539   9.617   9.728 -1.7150  0.9205  1.2401
   52MOL0     H 6958   2.405   9.580   9.627  1.6859  0.6646 -0.5748
   52MOL0     H 6959   2.291   9.485   9.816  0.0054 -1.4970  3.0258
   52MOL0     H 6960   2.440   9.463   9.899  0.4871 -1.9612 -1.7564
   52MOL0     H 6961   2.468   9.731   9.884 -1.2345  1.3866  2.6065
   52MOL0     H 6962   2.310   9.732   9.813  0.9893  2.5117  1.6466
   52MOL0     H 6963   2.259   9.766  10.036  3.1723  0.6125  3.5982
   52MOL0     H 6964   2.245   9.585  10.010  1.1496 -1.4236 -1.0654
   52MOL0     H 6965   2.457   9.541  10.101  2.0300 -0.1449  1.1723
   52MOL0     H 6966   2.489   9.719  10.128 -0.3831  0.6937 -0.2424
   52MOL0     H 6967   2.285   9.721  10.278  1.6772  2.1006 -2.6188
   52MOL0     H 6968   2.305   9.549  10.292  1.0960 -0.4819 -0.8471
   52MOL0     H 6969   2.430   9.657  10.469  2.7670  1.3046  1.5678
   52MOL0     H 6970   2.522   9.757  10.358 -1.1019  2.6914  0.0383
   52MOL0     H 6971   2.484   9.371  10.458  0.0140 -1.4765 -2.2621
   52MOL0     H 6972   2.798   9.193  10.354 -1.2540 -2.2693 -0.4319
   52MOL0     H 6973   2.672   9.169  10.460  3.7181 -3.1844  0.5437
   52MOL0     H 6974   2.667   9.154  10.157 -0.1226 -0.0561 -0.0727
   52MOL0     H 6975   2.527   9.222  10.227 -0.0365  0.2910 -1.2472
   52MOL0     H 6976   2.475   8.999  10.343  0.7328 -2.8552  0.4180
   52MOL0     H 6977   2.639   8.948  10.310  3.4415  4.1054  0.9862
   52MOL0     H 6978   2.467   8.866  10.131  0.0987  0.4745 -1.1764
   52MOL0     H 6979   2.595   8.960  10.057  1.7291  0.9891  1.1229
   52MOL0     H 6980   2.259   9.223   9.960  2.7851  0.2588 -0.7183
   52MOL0     H 6981   2.038   9.197   9.670  0.4834 -0.0581 -0.8582
   52MOL0     H 6982   2.096   9.293   9.813  0.2618  0.4873 -1.0608
   52MOL0     H 6983   2.185   9.284   9.659 -2.0641 -0.0638 -1.6030
   52MOL0     H 6984   1.891   9.106   9.392 -0.9997  1.1504 -1.3735
   52MOL0     H 6985   1.805   9.017   9.162 -1.0473 -0.2676  0.5433
   52MOL0     H 6986   1.933   9.073   8.813 -1.3516 -0.5361  0.4315
   52MOL0     H 6987   2.080   9.118   8.910  1.2303 -1.8071  1.4576
   52MOL0     H 6988   2.101   9.005   8.666 -2.0730  0.6585  1.3300
   52MOL0     H 6989   2.219   8.947   8.790  0.1229  0.2265  1.3256
   52MOL0     H 6990   1.957   8.781   8.730  0.5550 -2.0355  0.9305
   52MOL0     H 6991   2.083   8.761   8.835 -1.6120  0.5318  0.6191
   52MOL0     H 6992   2.186   8.795   8.556  1.2057 -1.1523  0.0745
   52MOL0     H 6993   2.240   8.688   8.662  1.0992  0.2851 -2.7637
   52MOL0     H 6994   1.958   8.700   8.530 -0.7738 -0.0986  0.6834
   52MOL0     H 6995   2.008   8.566   8.634 -0.6681 -0.6034  0.3012
   52MOL0     H 6996   2.183   8.514   8.467 -1.1476 -0.1294  5.1411
   52MOL0     H 6997   2.019   8.479   8.429 -0.5135 -0.8793  1.4682
   52MOL0     H 6998   2.156   8.748   8.333 -1.7777  0.9385  0.8198
   52MOL0     H 6999   2.009   8.682   8.277  0.1765 -0.6772 -1.0989
   52MOL0     H 7000   2.281   8.546   8.224 -0.4206  1.2201  3.9864
   52MOL0     H 7001   2.170   8.621   8.110  3.2828 -0.0340 -0.3661
   52MOL0     H 7002   2.216   8.928   9.062 -0.9503  0.6738 -0.3026
   52MOL0     H 7003   2.281   8.973   9.301 -0.4265  3.5079  2.5072
   52MOL0     H 7004   2.352   8.823   9.697  0.4054  1.4657 -1.1879
   52MOL0     H 7005   2.444   8.844   9.916  2.7577  3.6568  2.2368
   52MOL0     H 7006   2.791   9.427   9.390  1.4793 -1.3167  1.1873
   52MOL0     H 7007   2.900   9.231   9.285 -0.4328 -0.5459  0.0950
   52MOL0     H 7008   2.809   8.892   8.918 -0.0556 -1.0206 -1.3893
   52MOL0     H 7009   2.909   8.679   8.824  0.5908  2.2905  0.6026
   52MOL0     H 7010   3.141   8.433   9.069 -0.3164 -0.9913  1.6366
   52MOL0     H 7011   2.991   8.344   9.106 -0.2325 -1.0355 -1.9219
   52MOL0     H 7012   3.182   8.324   8.880  0.5191  4.1772  2.3141
   52MOL0     H 7013   3.045   8.197   8.907 -0.2771  1.8138 -0.0275
   52MOL0     H 7014   3.155   8.151   9.140 -2.2281  0.9531 -0.6116
   52MOL0     H 7015   3.274   8.260   9.099 -1.3516  0.6865  2.6080
   52MOL0     H 7016   3.353   8.123   8.929 -2.5257  2.8762 -2.1484
   52MOL0     H 7017   3.192   8.042   8.895 -0.0873 -0.5856  0.5754
   52MOL0     H 7018   3.382   7.787   9.178 -2.4158 -1.1104  0.8488
   52MOL0     H 7019   2.874   8.493   9.210  1.0165 -1.0511 -1.3438
   52MOL0     H 7020   2.833   8.724   9.313  0.3393  2.6731  0.3623
   53MOL0     O 7021   7.090   2.034   4.041 -0.0730 -0.1293 -0.3918
   53MOL0     C 7022   7.152   2.134   4.077  0.7085  0.5527 -0.5585
   53MOL0     O 7023   7.097   2.263   4.071 -0.3500  0.6279  0.7604
   53MOL0     C 7024   6.969   2.280   4.033 -0.3641  0.0600 -0.1989
   53MOL0     C 7025   6.941   2.387   3.944  0.6793 -0.7063  0.2349
   53MOL0     C 7026   6.812   2.420   3.903  0.0800 -0.1770  1.2801
   53MOL0     C 7027   6.718   2.337   3.948  0.4864 -0.5063  0.3041
   53MOL0     O 7028   6.587   2.379   3.906 -0.2380  0.1848 -0.2830
   53MOL0     C 7029   6.480   2.341   3.986 -0.2566 -0.5278  0.6992
   53MOL0     C 7030   6.362   2.436   3.951 -0.0938  0.4654 -0.0450
   53MOL0     C 7031   6.297   2.394   3.827 -0.4368 -0.2380  0.4431
   53MOL0     C 7032   6.185   2.289   3.855  0.0840  0.5253 -0.9730
   53MOL0     C 7033   6.101   2.240   3.737  0.1176 -0.2345 -0.1067
   53MOL0     C 7034   6.170   2.141   3.658 -0.8667 -0.7487  0.3595
   53MOL0     C 7035   6.087   2.098   3.536  0.2481 -0.3522 -0.0473
   53MOL0     C 7036   5.974   2.003   3.578 -0.2777  0.3182 -0.1802
   53MOL0     N 7037   6.013   1.864   3.562  0.4758 -0.8121 -0.0238
   53MOL0     C 7038   6.072   1.780   3.648  1.0051  0.0232 -0.9386
   53MOL0     C 7039   6.044   1.654   3.599  0.0847  0.1859  0.0445
   53MOL0     C 7040   6.091   1.531   3.667 -0.1272  0.5482 -0.9636
   53MOL0     C 7041   6.000   1.458   3.777  0.1785 -0.5570  0.0446
   53MOL0     C 7042   5.917   1.341   3.719 -0.8548 -0.5356 -0.1221
   53MOL0     C 7043   5.795   1.403   3.646  0.2685 -0.3261 -0.7838
   53MOL0     O 7044   5.707   1.292   3.616  0.1925  0.1334  0.5372
   53MOL0     C 7045   5.572   1.312   3.590 -0.4154  0.6587  0.6327
   53MOL0     C 7046   5.507   1.439   3.589  0.7844 -0.4072 -0.0649
   53MOL0     C 7047   5.372   1.461   3.568 -0.6532  0.0760  0.0128
   53MOL0     C 7048   5.323   1.600   3.573  0.0025  0.3745 -0.0169
   53MOL0     C 7049   5.289   1.343   3.548  0.7354  0.4570 -0.6091
   53MOL0     C 7050   5.142   1.346   3.527 -0.3602 -0.1003  1.1220
   53MOL0     O 7051   5.078   1.235   3.564 -0.5628  0.7661 -0.3516
   53MOL0     C 7052   4.948   1.198   3.524 -0.0540  0.2604  0.7072
   53MOL0     C 7053   4.857   1.268   3.437 -0.2118  0.1590  0.8923
   53MOL0     C 7054   4.735   1.209   3.396 -0.1794 -0.4182 -0.2744
   53MOL0     C 7055   4.710   1.085   3.451 -0.4674 -0.2591 -0.2143
   53MOL0     O 7056   4.599   1.020   3.388 -0.9894 -0.0571 -0.0708
   53MOL0     C 7057   4.558   0.890   3.429  0.4261 -0.1775  0.2041
   53MOL0     C 7058   4.416   0.864   3.390  0.0780 -0.1136  0.4675
   53MOL0     C 7059   4.414   0.798   3.245 -0.7592  0.0367  0.1665
   53MOL0     C 7060   4.267   0.796   3.200 -0.5665  0.4925  0.5396
   53MOL0     C 7061   4.264   0.700   3.071 -0.1556  0.3816  0.2804
   53MOL0     C 7062   4.113   0.675   3.058  0.4763 -0.0545  0.0430
   53MOL0     C 7063   4.081   0.615   2.921  0.2072  0.2006 -0.0412
   53MOL0     C 7064   3.931   0.599   2.907 -1.0541 -0.0772 -0.2161
   53MOL0    Cl 7065   3.902   0.511   2.751 -0.2971 -0.1423  0.1028
   53MOL0     C 7066   4.790   1.011   3.537 -0.2884 -0.6032  0.3937
   53MOL0     C 7067   4.917   1.071   3.569  0.6961 -0.2164  0.4617
   53MOL0     O 7068   5.081   1.450   3.507 -0.1097 -0.0607  0.2955
   53MOL0     C 7069   5.351   1.215   3.542 -1.3958  0.0059 -0.7463
   53MOL0     C 7070   5.491   1.201   3.565 -0.4280 -0.0102 -0.4864
   53MOL0     N 7071   5.960   1.671   3.486  0.1318 -0.1849 -0.4997
   53MOL0     N 7072   5.942   1.794   3.464 -1.1823 -0.7832 -0.7474
   53MOL0     C 7073   6.735   2.234   4.035  0.9487 -0.6421 -0.4945
   53MOL0     C 7074   6.860   2.200   4.085  0.7299  0.8182 -0.2270
   53MOL0     C 7075   7.289   2.114   4.126  0.4393  0.4735  0.6464
   53MOL0     C 7076   7.352   2.221   4.182  0.2067  0.4676 -0.5724
   53MOL0     C 7077   7.481   2.204   4.234  0.3041 -0.3422 -0.0329
   53MOL0     C 7078   7.544   2.084   4.236 -0.0583  0.1207 -0.7052
   53MOL0     O 7079   7.671   2.087   4.294  0.5021 -0.4423 -0.0655
   53MOL0     C 7080   7.719   1.966   4.360  0.1713 -0.7459 -0.2572
   53MOL0     C 7081   7.791   1.868   4.256 -0.1573  0.3689  0.5730
   53MOL0     C 7082   7.762   1.722   4.290 -0.5439 -1.0125  0.2299
   53MOL0     C 7083   7.852   1.623   4.202 -0.6130 -0.5371  0.0122
   53MOL0     C 7084   7.889   1.505   4.276 -0.2685 -0.5859 -0.3954
   53MOL0     C 7085   7.938   1.409   4.326 -0.0023  0.3218  0.2746
   53MOL0     C 7086   7.477   1.973   4.172 -0.8248  1.0097  0.5301
   53MOL0     C 7087   7.350   1.986   4.129 -0.0730 -0.5061 -0.0249
   53MOL0     H 7088   7.020   2.456   3.917 -0.1695 -0.8290 -2.9205
   53MOL0     H 7089   6.800   2.510   3.844  0.6113 -0.2865  1.0036
   53MOL0     H 7090   6.454   2.237   3.970  1.6802 -0.9252 -0.1693
   53MOL0     H 7091   6.510   2.354   4.091 -0.3877 -0.1581  0.6920
   53MOL0     H 7092   6.286   2.440   4.030 -2.8111 -0.6620 -2.4357
   53MOL0     H 7093   6.401   2.538   3.942 -4.2127  2.1585 -0.7236
   53MOL0     H 7094   6.253   2.483   3.780  2.1516  0.1336 -1.4755
   53MOL0     H 7095   6.366   2.366   3.747  1.2839  2.0108  1.0157
   53MOL0     H 7096   6.229   2.197   3.895  0.4650  1.3384  0.5240
   53MOL0     H 7097   6.113   2.331   3.925 -0.6343 -0.2314 -1.2310
   53MOL0     H 7098   6.011   2.202   3.788 -0.7409 -1.3654 -2.3458
   53MOL0     H 7099   6.061   2.320   3.675  0.0161 -1.1941 -1.3104
   53MOL0     H 7100   6.260   2.188   3.618 -2.2443  2.0819  0.3011
   53MOL0     H 7101   6.192   2.063   3.730  0.4862 -0.2484  0.5125
   53MOL0     H 7102   6.026   2.182   3.499 -0.2883 -0.2090  1.1056
   53MOL0     H 7103   6.155   2.056   3.462 -0.8029  0.4752 -1.5250
   53MOL0     H 7104   5.886   2.024   3.517 -3.5387  1.2032  4.3108
   53MOL0     H 7105   5.941   2.006   3.682  0.5543  1.0696  0.0767
   53MOL0     H 7106   6.131   1.809   3.734  3.4545 -1.6108 -1.9655
   53MOL0     H 7107   6.109   1.450   3.596 -3.6450  1.3514 -2.9882
   53MOL0     H 7108   6.188   1.562   3.705 -1.0515  3.5254 -0.7757
   53MOL0     H 7109   5.945   1.534   3.834 -1.3722 -1.3032 -0.3916
   53MOL0     H 7110   6.058   1.403   3.851  1.2516 -0.5949 -0.8091
   53MOL0     H 7111   5.885   1.282   3.805  2.4615 -0.2402  1.4593
   53MOL0     H 7112   5.981   1.282   3.652 -1.2171 -0.6058 -0.4120
   53MOL0     H 7113   5.827   1.444   3.550  2.3476  2.3123  0.8877
   53MOL0     H 7114   5.744   1.480   3.704  0.0281 -0.2967 -1.0351
   53MOL0     H 7115   5.569   1.527   3.599 -0.4949  0.3784  1.2424
   53MOL0     H 7116   5.334   1.626   3.467 -0.9931  0.2050 -0.1655
   53MOL0     H 7117   5.219   1.605   3.604 -0.1380 -0.6010 -0.3105
   53MOL0     H 7118   5.390   1.657   3.639  3.3326 -2.1736 -0.9158
   53MOL0     H 7119   4.882   1.365   3.394 -0.1670 -1.1919 -2.4089
   53MOL0     H 7120   4.666   1.253   3.325 -0.7825  0.5834  0.9089
   53MOL0     H 7121   4.624   0.810   3.395  1.9766  0.5631  1.3493
   53MOL0     H 7122   4.552   0.879   3.538 -1.1983  1.0655  0.2790
   53MOL0     H 7123   4.374   0.796   3.465 -3.4618  1.2896 -0.0220
   53MOL0     H 7124   4.356   0.954   3.371  1.0899  0.3294 -0.8262
   53MOL0     H 7125   4.463   0.700   3.255  1.1082  0.7763 -1.1460
   53MOL0     H 7126   4.476   0.859   3.179 -1.2993  1.5232  0.9915
   53MOL0     H 7127   4.191   0.765   3.272 -3.4066  1.4229 -1.8685
   53MOL0     H 7128   4.246   0.901   3.182 -1.5706 -0.2279 -3.4922
   53MOL0     H 7129   4.298   0.598   3.087 -2.2466 -0.9852 -3.0002
   53MOL0     H 7130   4.314   0.747   2.986  1.5137 -2.6680 -0.5788
   53MOL0     H 7131   4.080   0.601   3.132 -0.3353 -0.5086 -0.7640
   53MOL0     H 7132   4.058   0.768   3.071 -1.5889 -1.2070 -0.0451
   53MOL0     H 7133   4.134   0.519   2.918 -1.0192 -0.5010  0.1211
   53MOL0     H 7134   4.112   0.681   2.839 -3.0018  0.2994 -1.3135
   53MOL0     H 7135   3.877   0.695   2.907  0.0592  0.5886  1.0082
   53MOL0     H 7136   3.891   0.532   2.983 -0.7676 -1.2194 -1.0501
   53MOL0     H 7137   4.772   0.914   3.582  0.4193  0.5073  3.3334
   53MOL0     H 7138   4.998   1.022   3.622 -0.2384 -0.7826  1.4101
   53MOL0     H 7139   5.303   1.118   3.531  2.0690 -2.0197  0.3694
   53MOL0     H 7140   5.522   1.097   3.577 -2.5811 -0.4612  1.9698
   53MOL0     H 7141   6.654   2.166   4.057  1.5839 -2.5861 -3.4990
   53MOL0     H 7142   6.875   2.123   4.160 -2.3333  1.8306  1.6231
   53MOL0     H 7143   7.309   2.321   4.182  0.6495  0.7567 -3.3880
   53MOL0     H 7144   7.539   2.290   4.266  0.8405  0.1529 -2.1785
   53MOL0     H 7145   7.790   1.984   4.441  1.6647  0.4383 -1.7701
   53MOL0     H 7146   7.634   1.919   4.411 -0.6648 -0.0307 -0.9582
   53MOL0     H 7147   7.899   1.885   4.257 -0.2347  1.3404 -1.6256
   53MOL0     H 7148   7.743   1.888   4.159 -2.1248  4.1622  2.1022
   53MOL0     H 7149   7.654   1.705   4.285 -0.5366 -0.8562 -0.5912
   53MOL0     H 7150   7.778   1.720   4.399  1.5207  1.0430  0.0430
   53MOL0     H 7151   7.938   1.676   4.160 -0.8179 -0.2297 -0.0219
   53MOL0     H 7152   7.797   1.592   4.113 -0.8461  2.6351 -1.0840
   53MOL0     H 7153   7.969   1.320   4.377 -1.7960 -1.3683 -1.4027
   53MOL0     H 7154   7.513   1.872   4.187 -2.3017  0.3095 -0.4599
   53MOL0     H 7155   7.288   1.902   4.100 -0.9910 -0.2667  1.1855
   54MOL0     O 7156   6.856   5.035   7.981  0.0671 -0.1271 -0.1223
   54MOL0     C 7157   6.915   4.946   7.908  0.4214 -0.3147 -1.2224
   54MOL0     O 7158   7.014   4.866   7.950 -0.5037 -0.4446  0.2300
   54MOL0     C 7159   7.076   4.879   8.070 -0.6036 -0.7558  0.6214
   54MOL0     C 7160   7.209   4.848   8.064  0.5290 -0.0359 -0.8354
   54MOL0     C 7161   7.285   4.873   8.177  0.4135 -0.7026  0.2707
   54MOL0     C 7162   7.228   4.905   8.302  0.2527  1.0182 -0.3810
   54MOL0     O 7163   7.292   4.918   8.426  0.2414  0.2477 -0.2906
   54MOL0     C 7164   7.398   5.019   8.431 -0.3102  0.7848 -0.0314
   54MOL0     C 7165   7.403   5.091   8.565 -0.2531  0.8317  0.1130
   54MOL0     C 7166   7.278   5.136   8.627  0.7717 -0.6856  0.2658
   54MOL0     C 7167   7.181   5.230   8.544  0.2426 -0.7437  0.0694
   54MOL0     C 7168   7.069   5.293   8.621 -0.5379  0.8571 -0.3767
   54MOL0     C 7169   6.961   5.194   8.662  0.1542  0.7004  0.0188
   54MOL0     C 7170   6.857   5.267   8.745 -0.2063  0.0935  0.1587
   54MOL0     C 7171   6.754   5.167   8.802  0.3661 -0.2982  0.6878
   54MOL0     N 7172   6.623   5.241   8.832  0.0270  0.2301 -0.3556
   54MOL0     C 7173   6.521   5.196   8.917  0.1667  0.0795  0.3445
   54MOL0     C 7174   6.419   5.291   8.904  0.5872  0.2029 -0.5255
   54MOL0     C 7175   6.282   5.274   8.978 -0.6116 -0.8368 -0.1557
   54MOL0     C 7176   6.300   5.308   9.130 -0.1087  0.3039  0.5475
   54MOL0     C 7177   6.170   5.290   9.215  0.3967  0.0125  0.3807
   54MOL0     C 7178   6.108   5.150   9.229 -0.0020  0.6197 -0.4917
   54MOL0     O 7179   6.214   5.054   9.205 -0.0608 -0.6642  0.0646
   54MOL0     C 7180   6.177   4.923   9.200 -0.4649  0.5979 -0.2448
   54MOL0     C 7181   6.062   4.870   9.245  1.3045  1.2463  0.6074
   54MOL0     C 7182   6.024   4.737   9.226  0.1477 -0.4568  0.3276
   54MOL0     C 7183   5.885   4.689   9.281 -0.6159 -0.1760  0.0265
   54MOL0     C 7184   6.120   4.647   9.175 -0.2187  0.3712  0.8362
   54MOL0     C 7185   6.100   4.501   9.161  0.5266  0.1850  0.5040
   54MOL0     O 7186   6.203   4.427   9.106 -0.2243 -0.0164  0.2151
   54MOL0     C 7187   6.166   4.310   9.052 -0.4144  0.0095 -0.5298
   54MOL0     C 7188   6.215   4.187   9.108 -0.2902 -0.1339  0.7356
   54MOL0     C 7189   6.173   4.068   9.057 -0.9807  0.6472  0.0347
   54MOL0     C 7190   6.086   4.061   8.953 -0.6454  0.1841  0.6737
   54MOL0     O 7191   6.067   3.935   8.911  0.8371  0.4456 -1.0078
   54MOL0     C 7192   5.959   3.911   8.820  0.3075  0.4574 -0.0518
   54MOL0     C 7193   5.958   3.762   8.791 -0.3572  0.4316 -0.0196
   54MOL0     C 7194   6.089   3.714   8.723  0.8740  0.7384  0.5369
   54MOL0     C 7195   6.094   3.564   8.708 -0.7008  0.9759 -0.0161
   54MOL0     C 7196   6.216   3.510   8.623  0.6143  0.8893  0.4443
   54MOL0     C 7197   6.224   3.358   8.587  0.0899  1.0249 -0.1133
   54MOL0     C 7198   6.228   3.278   8.723  0.1473 -1.0510  1.6690
   54MOL0     C 7199   6.240   3.127   8.703  0.2530  0.3292 -0.4817
   54MOL0    Cl 7200   6.403   3.076   8.629  0.3708 -0.3629  0.1782
   54MOL0     C 7201   6.043   4.176   8.890 -0.2818  0.2611  0.3025
   54MOL0     C 7202   6.072   4.304   8.944 -0.5734  0.5519 -0.4268
   54MOL0     O 7203   5.997   4.448   9.201  0.3586  0.2841 -0.0966
   54MOL0     C 7204   6.246   4.705   9.132 -0.1923  0.7264  0.1929
   54MOL0     C 7205   6.278   4.837   9.147  0.8146 -0.2555 -0.3893
   54MOL0     N 7206   6.463   5.382   8.802  0.4615  0.2149 -0.1147
   54MOL0     N 7207   6.578   5.347   8.761  0.0134 -0.7952 -0.3418
   54MOL0     C 7208   7.097   4.908   8.308  0.6221  0.4834 -0.0085
   54MOL0     C 7209   7.014   4.902   8.193 -0.5452 -0.3277 -0.7638
   54MOL0     C 7210   6.885   4.943   7.762  0.0110 -0.5262  0.0353
   54MOL0     C 7211   6.788   5.017   7.707  0.9244 -0.0014 -0.4153
   54MOL0     C 7212   6.774   5.022   7.567 -1.0222 -0.2803 -0.3255
   54MOL0     C 7213   6.842   4.935   7.484  0.9536 -0.1752 -0.2409
   54MOL0     O 7214   6.811   4.913   7.350  0.3282  0.5988 -0.0289
   54MOL0     C 7215   6.696   4.976   7.294  0.2559 -0.6690  0.5421
   54MOL0     C 7216   6.641   4.905   7.170 -0.9535  0.4700  0.0492
   54MOL0     C 7217   6.734   4.892   7.055 -0.0681 -0.3245 -0.4810
   54MOL0     C 7218   6.696   4.829   6.931 -0.2422 -0.3422  0.2871
   54MOL0     C 7219   6.653   4.690   6.953 -0.7654  0.2334  0.0937
   54MOL0     C 7220   6.606   4.580   6.963  0.2816 -0.3306  0.3068
   54MOL0     C 7221   6.927   4.844   7.543 -0.4821 -0.2114 -0.4598
   54MOL0     C 7222   6.957   4.858   7.682  0.4087 -0.0202  0.9914
   54MOL0     H 7223   7.254   4.815   7.971 -1.1407  1.9287 -2.4397
   54MOL0     H 7224   7.393   4.876   8.165  0.4138  2.2362  0.4489
   54MOL0     H 7225   7.501   4.984   8.430 -0.4490  0.0650  2.9267
   54MOL0     H 7226   7.388   5.089   8.347 -0.7411  1.1277  0.2950
   54MOL0     H 7227   7.455   5.021   8.631 -0.6508 -1.8124 -2.2073
   54MOL0     H 7228   7.474   5.174   8.551  0.7611  0.1144  0.8645
   54MOL0     H 7229   7.231   5.040   8.653  2.2203 -1.0687  1.6753
   54MOL0     H 7230   7.304   5.183   8.723 -1.1757  0.2658  0.3949
   54MOL0     H 7231   7.231   5.308   8.486 -3.0389 -0.6426 -2.9399
   54MOL0     H 7232   7.130   5.176   8.463  0.4735  1.6580 -1.7711
   54MOL0     H 7233   7.108   5.345   8.709  1.8759  0.9646 -1.4202
   54MOL0     H 7234   7.020   5.375   8.568  0.4768  2.1524  0.6083
   54MOL0     H 7235   6.918   5.158   8.568 -0.2704  1.3018 -0.0189
   54MOL0     H 7236   6.998   5.108   8.718 -1.7306  0.4212  0.8838
   54MOL0     H 7237   6.891   5.339   8.820  0.8465 -1.5690  1.3414
   54MOL0     H 7238   6.806   5.333   8.673  3.8112  2.0532 -1.1684
   54MOL0     H 7239   6.776   5.114   8.894  0.7585 -3.0893 -0.8959
   54MOL0     H 7240   6.726   5.092   8.726  0.1908  1.7071 -1.3444
   54MOL0     H 7241   6.523   5.120   8.995  0.4848 -1.4612 -1.1063
   54MOL0     H 7242   6.210   5.340   8.929 -0.2842 -1.5677 -1.6817
   54MOL0     H 7243   6.230   5.180   8.959 -2.7915  0.1413  0.6033
   54MOL0     H 7244   6.342   5.407   9.152 -0.2773  0.7291 -0.9301
   54MOL0     H 7245   6.375   5.236   9.163 -3.0479 -2.1398  2.5028
   54MOL0     H 7246   6.099   5.364   9.177 -1.3298 -1.3696  0.7669
   54MOL0     H 7247   6.189   5.321   9.318  1.1628  0.8937 -0.0119
   54MOL0     H 7248   6.039   5.131   9.146  1.5075 -0.4900 -1.5565
   54MOL0     H 7249   6.059   5.134   9.325  2.0611  0.1442  0.5431
   54MOL0     H 7250   5.980   4.937   9.270  0.7107  0.1632  1.6711
   54MOL0     H 7251   5.899   4.618   9.362  0.6745  0.8296  0.7210
   54MOL0     H 7252   5.822   4.772   9.315  0.7053  1.0436 -0.3514
   54MOL0     H 7253   5.832   4.636   9.201 -1.7300  0.3452  0.4022
   54MOL0     H 7254   6.276   4.192   9.198  0.7301  3.1499 -0.0028
   54MOL0     H 7255   6.213   3.982   9.110 -0.1582  1.8425  1.4048
   54MOL0     H 7256   5.865   3.947   8.864 -0.7404 -0.9632 -1.0420
   54MOL0     H 7257   5.966   3.975   8.731  0.6950  1.6288  0.7925
   54MOL0     H 7258   5.939   3.702   8.881  3.4835 -1.6406 -0.3481
   54MOL0     H 7259   5.881   3.747   8.714 -0.2023  0.1864 -0.1306
   54MOL0     H 7260   6.174   3.747   8.784  1.6814 -0.9824  0.4090
   54MOL0     H 7261   6.090   3.754   8.621  1.8514 -2.6528 -0.9322
   54MOL0     H 7262   6.107   3.519   8.806 -1.1755 -1.4188 -0.9875
   54MOL0     H 7263   5.995   3.539   8.668 -0.1534  0.5994 -1.1897
   54MOL0     H 7264   6.306   3.545   8.674  0.7181  1.0233  0.1686
   54MOL0     H 7265   6.203   3.554   8.524  2.0218 -3.2250 -1.7864
   54MOL0     H 7266   6.147   3.323   8.517  0.8982 -4.3836  1.2154
   54MOL0     H 7267   6.321   3.348   8.536  1.1899  0.6343  1.9425
   54MOL0     H 7268   6.135   3.304   8.776  0.8929  0.5181  2.2667
   54MOL0     H 7269   6.318   3.316   8.771  0.2318 -0.5622  1.1319
   54MOL0     H 7270   6.165   3.094   8.630 -1.3454  1.7695  0.4475
   54MOL0     H 7271   6.234   3.066   8.793 -2.0768  2.2225  0.7460
   54MOL0     H 7272   5.967   4.167   8.813 -0.8784 -2.9750  1.1134
   54MOL0     H 7273   6.024   4.392   8.901 -0.5891 -0.6121 -2.9959
   54MOL0     H 7274   6.320   4.638   9.088 -3.5748 -3.5776  0.3592
   54MOL0     H 7275   6.377   4.879   9.128  2.6121 -2.4697  2.9582
   54MOL0     H 7276   7.066   4.929   8.409 -2.1228 -0.9584 -0.4666
   54MOL0     H 7277   6.907   4.918   8.198 -0.3387  0.5794  2.6281
   54MOL0     H 7278   6.740   5.093   7.768  3.3909 -0.6985  2.6475
   54MOL0     H 7279   6.717   5.101   7.518  1.9715  2.4953  0.2809
   54MOL0     H 7280   6.608   4.995   7.355 -0.5839 -1.3001 -0.4443
   54MOL0     H 7281   6.733   5.076   7.268  1.3226 -0.4549  2.6986
   54MOL0     H 7282   6.544   4.942   7.136 -0.5380 -1.5261 -3.9008
   54MOL0     H 7283   6.627   4.799   7.193 -1.7948  0.2757 -1.2799
   54MOL0     H 7284   6.823   4.844   7.095 -0.2202  1.0130  1.6585
   54MOL0     H 7285   6.775   4.990   7.028 -2.2058  0.2867 -1.7868
   54MOL0     H 7286   6.778   4.820   6.859 -0.3261  0.7504  0.0479
   54MOL0     H 7287   6.617   4.895   6.894  2.6083  2.7038 -0.8456
   54MOL0     H 7288   6.550   4.491   6.945 -1.6866  1.1743 -1.6061
   54MOL0     H 7289   6.969   4.766   7.480  2.6623 -1.1594  2.4850
   54MOL0     H 7290   7.045   4.803   7.715  0.9369 -0.6941 -1.3483
   55MOL0     O 7291   7.847   4.055   8.567  0.0232  0.1584 -0.3133
   55MOL0     C 7292   7.949   3.990   8.592 -0.0443 -0.6887 -0.2795
   55MOL0     O 7293   8.070   4.045   8.630 -0.3770 -0.7655 -0.5991
   55MOL0     C 7294   8.091   4.186   8.643 -0.1699 -0.1593 -1.1188
   55MOL0     C 7295   8.020   4.293   8.585  0.3610  0.5119  0.0389
   55MOL0     C 7296   8.055   4.421   8.606  1.2376 -0.3018  0.8090
   55MOL0     C 7297   8.156   4.460   8.688 -0.5622 -0.1407  0.4250
   55MOL0     O 7298   8.203   4.588   8.677  0.4976 -0.3203 -0.6751
   55MOL0     C 7299   8.248   4.648   8.795 -0.1372 -0.2669  0.4611
   55MOL0     C 7300   8.257   4.802   8.785  1.3157 -0.7486  0.0321
   55MOL0     C 7301   8.123   4.877   8.786  0.6291 -0.8265 -0.3502
   55MOL0     C 7302   8.152   5.018   8.740  0.8483 -0.6057 -0.1769
   55MOL0     C 7303   8.024   5.102   8.782  0.6132  0.0202  0.2117
   55MOL0     C 7304   8.046   5.251   8.760  0.3729  0.3527 -1.0978
   55MOL0     C 7305   7.909   5.327   8.752 -0.4784 -0.2781  0.7247
   55MOL0     C 7306   7.869   5.343   8.601 -0.2527 -0.5203 -0.3381
   55MOL0     N 7307   7.878   5.217   8.522  0.0666 -0.3987  0.1119
   55MOL0     C 7308   7.999   5.180   8.459 -0.3314  0.1523 -0.5444
   55MOL0     C 7309   7.968   5.069   8.392 -1.1213  0.6365  0.6617
   55MOL0     C 7310   8.044   5.000   8.282 -0.0171  0.8523 -0.6358
   55MOL0     C 7311   8.179   4.940   8.327 -0.3015 -0.4425  0.3346
   55MOL0     C 7312   8.272   4.907   8.210  0.6908 -0.0817  0.2232
   55MOL0     C 7313   8.400   4.852   8.264  0.4042  0.6701  0.0084
   55MOL0     O 7314   8.384   4.726   8.338  0.1947 -0.3916 -0.7949
   55MOL0     C 7315   8.475   4.627   8.300  0.1829 -0.5009  0.2301
   55MOL0     C 7316   8.424   4.497   8.300  0.4825 -0.4732  0.0370
   55MOL0     C 7317   8.493   4.385   8.270  0.4607  0.4967 -0.3916
   55MOL0     C 7318   8.427   4.257   8.267  0.5013 -0.3610  0.3667
   55MOL0     C 7319   8.628   4.397   8.242 -1.6251 -0.1351 -0.1076
   55MOL0     C 7320   8.710   4.285   8.198  0.8642 -0.1523  0.9571
   55MOL0     O 7321   8.776   4.304   8.077  0.1052 -0.2811 -1.4863
   55MOL0     C 7322   8.899   4.239   8.071 -0.3792  0.2186 -0.7220
   55MOL0     C 7323   8.996   4.249   8.169  0.0990  0.4526 -0.3257
   55MOL0     C 7324   9.117   4.172   8.151  0.3276  0.2473  0.4605
   55MOL0     C 7325   9.131   4.096   8.028  0.8235 -0.5977 -0.2544
   55MOL0     O 7326   9.236   4.017   8.013 -0.5763 -0.0718 -0.3899
   55MOL0     C 7327   9.349   4.088   7.961  0.3564 -0.1745 -0.2209
   55MOL0     C 7328   9.475   4.010   7.935  0.0513  0.0472 -0.4073
   55MOL0     C 7329   9.607   4.092   7.908  0.0109  0.1614 -0.3547
   55MOL0     C 7330   9.712   4.033   7.821  0.5473  0.0702  0.5802
   55MOL0     C 7331   9.834   4.118   7.786 -0.0385 -0.2270 -0.0745
   55MOL0     C 7332   9.922   4.022   7.717 -0.5560 -0.5164 -0.8564
   55MOL0     C 7333  10.023   4.088   7.623 -0.9984  0.2939 -0.1232
   55MOL0     C 7334  10.157   4.017   7.617 -0.6262  0.4727 -0.2933
   55MOL0    Cl 7335  10.121   3.832   7.593 -0.3798  0.2097  0.6056
   55MOL0     C 7336   9.034   4.088   7.929  0.1728 -0.0624  0.4957
   55MOL0     C 7337   8.917   4.155   7.958 -0.5259 -0.0063  0.8981
   55MOL0     O 7338   8.711   4.184   8.266 -0.0438 -0.2145  0.3256
   55MOL0     C 7339   8.689   4.523   8.236  0.1182 -0.3198 -0.4749
   55MOL0     C 7340   8.605   4.636   8.256 -0.0698 -0.1568 -0.0577
   55MOL0     N 7341   7.840   5.028   8.436 -0.7201  0.0629 -0.3915
   55MOL0     N 7342   7.789   5.119   8.518  0.0204  0.3047  0.5805
   55MOL0     C 7343   8.232   4.359   8.751  0.2757  0.1230 -0.1513
   55MOL0     C 7344   8.198   4.228   8.722 -0.3849  0.3227  0.3450
   55MOL0     C 7345   7.955   3.846   8.560  0.7496 -0.0411 -1.0294
   55MOL0     C 7346   7.835   3.776   8.534  0.0555  0.2141  0.0301
   55MOL0     C 7347   7.836   3.647   8.471 -0.3120 -0.7888 -0.3750
   55MOL0     C 7348   7.953   3.581   8.449  0.5723 -0.4062  0.1284
   55MOL0     O 7349   7.939   3.455   8.384  0.4904  0.0359  0.1130
   55MOL0     C 7350   7.998   3.351   8.475 -0.7487  0.3169 -0.1436
   55MOL0     C 7351   7.931   3.216   8.439 -0.3343  1.0332 -0.5279
   55MOL0     C 7352   7.947   3.185   8.292  0.1912 -0.7579 -0.8688
   55MOL0     C 7353   7.895   3.055   8.240 -0.7144 -0.1696  0.3508
   55MOL0     C 7354   7.761   3.026   8.280  0.3457  0.3971 -0.8869
   55MOL0     C 7355   7.649   2.981   8.313 -0.0963 -0.8696 -0.1735
   55MOL0     C 7356   8.077   3.643   8.486  0.4090  1.0785  0.2631
   55MOL0     C 7357   8.075   3.778   8.534 -0.0700 -0.0483 -0.5152
   55MOL0     H 7358   7.930   4.267   8.530  2.0266 -4.8058 -0.7206
   55MOL0     H 7359   7.994   4.504   8.572  2.9906  1.0619  0.8907
   55MOL0     H 7360   8.183   4.626   8.880  1.7033 -1.1248  1.7169
   55MOL0     H 7361   8.348   4.607   8.812 -0.5284 -1.6753 -0.4010
   55MOL0     H 7362   8.317   4.844   8.866  0.7931 -2.3166  1.2901
   55MOL0     H 7363   8.297   4.835   8.689 -3.8293 -1.1142 -2.6004
   55MOL0     H 7364   8.053   4.826   8.718  0.7590 -1.4263 -0.0405
   55MOL0     H 7365   8.081   4.873   8.886  1.0747 -0.5221 -0.1513
   55MOL0     H 7366   8.243   5.048   8.793  1.9553 -3.0726 -0.4999
   55MOL0     H 7367   8.163   5.027   8.631  1.2749 -0.8890 -0.1616
   55MOL0     H 7368   7.936   5.076   8.723 -0.3714  0.8229  1.3022
   55MOL0     H 7369   7.994   5.087   8.886 -1.1758  3.7044  0.3515
   55MOL0     H 7370   8.103   5.284   8.848  1.4165 -0.6105 -1.3831
   55MOL0     H 7371   8.112   5.255   8.673  1.9827 -0.8128  0.0059
   55MOL0     H 7372   7.834   5.265   8.803 -1.7090  2.7271  2.8458
   55MOL0     H 7373   7.909   5.422   8.806 -5.0812 -1.3593  3.1459
   55MOL0     H 7374   7.937   5.413   8.550 -1.3590  0.6579 -0.2321
   55MOL0     H 7375   7.767   5.380   8.586 -0.0923  0.7820  1.5197
   55MOL0     H 7376   8.080   5.252   8.452 -0.3434  0.3115  0.7494
   55MOL0     H 7377   7.996   4.916   8.231  1.2125 -1.0639  1.1990
   55MOL0     H 7378   8.073   5.077   8.210  1.8341 -0.9094 -1.9001
   55MOL0     H 7379   8.160   4.857   8.395  0.2724 -0.8635 -0.0195
   55MOL0     H 7380   8.226   5.016   8.390  0.2812 -1.2330  0.8719
   55MOL0     H 7381   8.307   4.989   8.148  0.2767  1.0005  1.3852
   55MOL0     H 7382   8.213   4.830   8.159 -0.1280  0.3696  0.4723
   55MOL0     H 7383   8.441   4.923   8.336 -2.5554  0.7673  1.7704
   55MOL0     H 7384   8.470   4.845   8.180  0.2134 -0.3696 -0.0786
   55MOL0     H 7385   8.317   4.500   8.320  0.3936  0.8273 -0.5477
   55MOL0     H 7386   8.444   4.193   8.354 -1.3967  1.4992  2.2296
   55MOL0     H 7387   8.318   4.269   8.264  0.5261 -0.0200  0.8222
   55MOL0     H 7388   8.440   4.211   8.169  0.9742  1.6278 -0.5653
   55MOL0     H 7389   8.993   4.299   8.265  2.2339 -0.7390  0.4321
   55MOL0     H 7390   9.203   4.176   8.217  0.8232  0.0591 -0.1578
   55MOL0     H 7391   9.325   4.134   7.864  2.1094  2.7012  0.5861
   55MOL0     H 7392   9.375   4.168   8.032  0.4292 -0.2061 -0.2115
   55MOL0     H 7393   9.487   3.953   8.027 -3.1449 -3.0559 -1.6700
   55MOL0     H 7394   9.451   3.945   7.850 -1.5765  1.8783 -1.4297
   55MOL0     H 7395   9.662   4.102   8.002 -1.8429  0.7298  0.7277
   55MOL0     H 7396   9.567   4.186   7.871 -3.7572 -1.1914 -0.2444
   55MOL0     H 7397   9.734   3.937   7.868  5.0889  0.5605 -0.0757
   55MOL0     H 7398   9.670   4.011   7.722 -1.0734  2.0972  0.7774
   55MOL0     H 7399   9.881   4.167   7.872  0.2195  2.2169 -1.5051
   55MOL0     H 7400   9.795   4.188   7.711 -4.6643 -2.0672  0.2865
   55MOL0     H 7401   9.974   3.964   7.793 -3.8195 -0.1081  1.9528
   55MOL0     H 7402   9.864   3.950   7.657  1.6630 -3.2146  0.0203
   55MOL0     H 7403  10.050   4.192   7.646  1.1086 -0.2461  0.0654
   55MOL0     H 7404   9.986   4.089   7.520 -1.5940  0.2419  0.0853
   55MOL0     H 7405  10.201   4.032   7.716 -2.3933 -1.7454  0.9070
   55MOL0     H 7406  10.223   4.058   7.540 -1.8899  0.1149 -1.6031
   55MOL0     H 7407   9.027   4.043   7.831  1.3932  0.4714  0.1401
   55MOL0     H 7408   8.831   4.162   7.893  0.7954  1.5800 -0.8087
   55MOL0     H 7409   8.797   4.527   8.230  0.1685 -1.4969 -0.6629
   55MOL0     H 7410   8.655   4.732   8.253  0.7718 -0.1886  4.8334
   55MOL0     H 7411   8.325   4.365   8.806 -0.1192 -1.6072  0.7645
   55MOL0     H 7412   8.246   4.144   8.772  0.6440  2.0697  2.4938
   55MOL0     H 7413   7.736   3.812   8.562 -0.9276 -0.0596 -2.7220
   55MOL0     H 7414   7.740   3.608   8.441 -0.9142  0.0513  0.3911
   55MOL0     H 7415   8.104   3.338   8.449 -0.4435 -1.9351  1.8661
   55MOL0     H 7416   7.982   3.376   8.580 -1.2708 -0.7005  0.0298
   55MOL0     H 7417   7.827   3.231   8.470 -0.1398 -0.5597  1.0517
   55MOL0     H 7418   7.968   3.130   8.497  0.6525  1.4202 -0.5639
   55MOL0     H 7419   8.053   3.195   8.267 -0.0906  0.8127 -1.5621
   55MOL0     H 7420   7.900   3.268   8.240  2.7083 -0.3003 -2.6077
   55MOL0     H 7421   7.961   2.971   8.265 -0.2737 -0.3724 -1.3651
   55MOL0     H 7422   7.894   3.063   8.131  0.2987  0.6575  0.3920
   55MOL0     H 7423   7.557   2.932   8.336 -1.6602  0.8663 -2.2178
   55MOL0     H 7424   8.168   3.587   8.469 -0.6155 -0.1654 -1.4574
   55MOL0     H 7425   8.174   3.824   8.534  1.2441 -2.6365 -2.1246
   56MOL0     O 7426  10.451   6.073  10.089  0.5122 -0.8527 -0.6732
   56MOL0     C 7427  10.358   6.077  10.168 -0.3363  1.7527 -0.4447
   56MOL0     O 7428  10.279   5.965  10.194 -0.1195  0.9889 -0.4050
   56MOL0     C 7429  10.307   5.841  10.143 -0.4434 -0.8584  0.1970
   56MOL0     C 7430  10.428   5.799  10.081 -0.1492  0.3882 -0.3767
   56MOL0     C 7431  10.442   5.679  10.022  0.0322  0.2696 -0.3033
   56MOL0     C 7432  10.341   5.578  10.040  0.2403  0.3774  0.4946
   56MOL0     O 7433  10.359   5.450   9.996  0.1813 -0.5316  0.1913
   56MOL0     C 7434  10.493   5.410   9.979  0.6034  0.2840  0.3329
   56MOL0     C 7435  10.497   5.265   9.924 -0.1638 -0.7482 -0.2278
   56MOL0     C 7436  10.629   5.194   9.927  0.3472  0.2595 -0.7134
   56MOL0     C 7437  10.613   5.036   9.920 -0.8069 -0.2287 -0.2576
   56MOL0     C 7438  10.742   4.970   9.864  0.5174 -0.4368  0.2717
   56MOL0     C 7439  10.870   5.019   9.928  0.3347 -0.6183  0.0885
   56MOL0     C 7440  10.997   5.003   9.839  1.0116 -0.3177 -1.1493
   56MOL0     C 7441  11.028   5.091   9.717  0.6996  0.1426  1.0150
   56MOL0     N 7442  10.942   5.062   9.607 -0.2706 -0.1763 -1.1464
   56MOL0     C 7443  10.928   4.944   9.541 -0.2546  0.3520 -0.3208
   56MOL0     C 7444  10.843   4.980   9.439  0.5681 -0.6164 -1.1004
   56MOL0     C 7445  10.766   4.885   9.346 -0.6236  0.0856  0.2398
   56MOL0     C 7446  10.861   4.831   9.233  0.3587  0.6733  0.0843
   56MOL0     C 7447  10.903   4.940   9.133  0.2527 -0.0658 -0.0330
   56MOL0     C 7448  10.793   4.994   9.035 -0.8943  0.5209 -0.4732
   56MOL0     O 7449  10.745   4.880   8.961  0.6732  0.4060 -0.2887
   56MOL0     C 7450  10.639   4.896   8.873  0.6497  0.2219  0.0225
   56MOL0     C 7451  10.573   5.020   8.842 -0.1823  0.1780  0.1424
   56MOL0     C 7452  10.476   5.030   8.744  0.6566 -0.1032 -0.0608
   56MOL0     C 7453  10.388   5.151   8.731  0.7618 -0.0784 -0.3240
   56MOL0     C 7454  10.436   4.908   8.678 -0.3043  0.3032  0.7934
   56MOL0     C 7455  10.322   4.896   8.586  0.2118 -0.3338 -0.2262
   56MOL0     O 7456  10.251   4.781   8.584 -0.1607  0.0621  0.1548
   56MOL0     C 7457  10.119   4.793   8.556 -0.2002  0.1305  0.7731
   56MOL0     C 7458  10.026   4.806   8.662  0.1659 -0.0078  0.4049
   56MOL0     C 7459   9.890   4.813   8.629  1.3700 -0.5226  0.2396
   56MOL0     C 7460   9.844   4.802   8.503  0.1620  1.2347  0.7806
   56MOL0     O 7461   9.710   4.806   8.479  0.1575 -0.4257  0.4218
   56MOL0     C 7462   9.668   4.928   8.422 -0.2451  0.1617 -0.0967
   56MOL0     C 7463   9.617   4.904   8.293  0.6544  0.2882  0.5553
   56MOL0     C 7464   9.636   5.020   8.191 -0.9535 -0.4236 -0.3663
   56MOL0     C 7465   9.774   5.004   8.120  0.6389 -0.0010  0.9416
   56MOL0     C 7466   9.782   4.883   8.022  0.3126  0.6424 -0.5024
   56MOL0     C 7467   9.666   4.890   7.910 -0.0348  0.4542 -0.2664
   56MOL0     C 7468   9.676   4.771   7.805  0.5633  0.4343 -0.3916
   56MOL0     C 7469   9.582   4.799   7.686  0.1054 -0.1792  0.1851
   56MOL0    Cl 7470   9.574   4.964   7.622 -0.5048 -0.2809 -0.2942
   56MOL0     C 7471   9.938   4.792   8.398 -0.0001  0.3480 -0.9246
   56MOL0     C 7472  10.079   4.796   8.425  0.6482  0.1863 -0.5989
   56MOL0     O 7473  10.282   4.998   8.526  0.2380  0.1726 -0.3501
   56MOL0     C 7474  10.500   4.784   8.718 -0.2393 -0.1396  0.1442
   56MOL0     C 7475  10.604   4.776   8.815  0.1669 -0.0876  0.6157
   56MOL0     N 7476  10.793   5.112   9.461  0.0033  1.1463  2.0840
   56MOL0     N 7477  10.846   5.151   9.567  0.3200  0.5830  0.2489
   56MOL0     C 7478  10.220   5.619  10.104 -0.2153  0.2588 -1.0115
   56MOL0     C 7479  10.203   5.752  10.154 -0.4929 -0.4867 -0.6760
   56MOL0     C 7480  10.324   6.202  10.230 -0.2607  0.4854 -0.5398
   56MOL0     C 7481  10.214   6.210  10.314  0.4712 -0.4432 -0.6394
   56MOL0     C 7482  10.170   6.322  10.382  0.0577 -0.3503  0.5406
   56MOL0     C 7483  10.247   6.431  10.370 -0.4506 -0.1872 -0.1162
   56MOL0     O 7484  10.214   6.546  10.430  0.4611 -0.1347  0.2968
   56MOL0     C 7485  10.110   6.547  10.527 -0.4046 -0.0716 -0.6803
   56MOL0     C 7486  10.130   6.684  10.593 -0.2325 -0.2227 -0.6309
   56MOL0     C 7487  10.024   6.706  10.697  0.9059 -0.3886  0.5321
   56MOL0     C 7488   9.895   6.760  10.633 -0.4968  0.2457  0.5632
   56MOL0     C 7489   9.786   6.793  10.726 -0.2526 -1.0580 -0.8211
   56MOL0     C 7490   9.708   6.835  10.808  0.4048  0.3786 -0.8439
   56MOL0     C 7491  10.363   6.433  10.289  0.3564 -0.1751  0.7562
   56MOL0     C 7492  10.407   6.315  10.226 -0.4432 -0.0639 -0.1297
   56MOL0     H 7493  10.514   5.865  10.085  0.2051 -0.1214  0.4788
   56MOL0     H 7494  10.539   5.657   9.979  0.6807 -0.5123  1.4628
   56MOL0     H 7495  10.542   5.474   9.905 -0.8137  1.8724  0.7067
   56MOL0     H 7496  10.553   5.414  10.071  2.7293  3.7017 -0.9932
   56MOL0     H 7497  10.414   5.212   9.973 -0.9970 -0.0227 -0.8282
   56MOL0     H 7498  10.458   5.269   9.822  0.5783 -0.7380 -0.5163
   56MOL0     H 7499  10.697   5.217   9.845  0.9733 -3.3939 -1.4173
   56MOL0     H 7500  10.671   5.215  10.026 -2.2997  0.6784  0.4117
   56MOL0     H 7501  10.602   5.010  10.026 -0.5647 -2.2223 -0.6856
   56MOL0     H 7502  10.531   4.999   9.858 -2.8566  1.5555  1.2203
   56MOL0     H 7503  10.740   4.861   9.860  1.2032 -0.4955 -4.7626
   56MOL0     H 7504  10.739   4.997   9.758 -0.9513  2.9986  1.0405
   56MOL0     H 7505  10.856   5.123   9.957  0.0089  0.0002 -2.1053
   56MOL0     H 7506  10.894   4.958  10.015  1.5438 -3.2741 -1.9518
   56MOL0     H 7507  11.080   5.019   9.908  0.9076  1.5303 -1.4087
   56MOL0     H 7508  11.001   4.896   9.817  0.0631 -0.6291  0.0372
   56MOL0     H 7509  11.134   5.077   9.697  0.7445 -1.9484  2.4002
   56MOL0     H 7510  11.019   5.193   9.756  3.5451  2.6853 -3.9997
   56MOL0     H 7511  10.985   4.854   9.560  0.0792  1.3371  4.5349
   56MOL0     H 7512  10.719   4.799   9.394  0.0318  0.5046  1.6976
   56MOL0     H 7513  10.688   4.948   9.301 -3.0937 -2.0959  1.2434
   56MOL0     H 7514  10.819   4.755   9.167 -1.3417  3.4774 -2.3058
   56MOL0     H 7515  10.955   4.804   9.283  0.0623  1.0037  0.8351
   56MOL0     H 7516  10.978   4.897   9.066 -0.7778 -0.6997 -0.8044
   56MOL0     H 7517  10.942   5.029   9.184  1.8215 -0.5400 -0.3486
   56MOL0     H 7518  10.827   5.080   8.975  1.7873  1.0064  1.5654
   56MOL0     H 7519  10.706   5.034   9.087 -1.9321 -2.1134 -0.0452
   56MOL0     H 7520  10.593   5.111   8.898 -0.5862  0.1065  0.4143
   56MOL0     H 7521  10.285   5.116   8.734  1.9892 -4.1861  0.2955
   56MOL0     H 7522  10.400   5.222   8.813  1.0547 -2.2412  1.5916
   56MOL0     H 7523  10.402   5.215   8.643  3.0752  1.2169  0.8954
   56MOL0     H 7524  10.073   4.799   8.760  3.7609  3.3332 -0.8044
   56MOL0     H 7525   9.828   4.826   8.717  2.8202  4.8019  0.8381
   56MOL0     H 7526   9.590   4.982   8.477 -0.4040 -0.4854  0.3246
   56MOL0     H 7527   9.755   4.994   8.416 -1.7456  2.2340 -0.3064
   56MOL0     H 7528   9.654   4.808   8.255  0.5147 -0.5093  2.3594
   56MOL0     H 7529   9.508   4.895   8.285  0.6864  1.0159 -1.0498
   56MOL0     H 7530   9.636   5.120   8.234 -0.2949 -0.6575  0.1898
   56MOL0     H 7531   9.551   5.025   8.123 -1.5159 -0.3836  0.3336
   56MOL0     H 7532   9.775   5.102   8.071 -1.5920  1.7577  4.0492
   56MOL0     H 7533   9.863   4.989   8.181  2.3396 -1.1910 -1.6231
   56MOL0     H 7534   9.780   4.789   8.079 -0.1395 -0.1366 -1.7497
   56MOL0     H 7535   9.884   4.876   7.982  0.4475 -0.8794  0.0238
   56MOL0     H 7536   9.565   4.886   7.949 -0.4760 -0.7552 -1.4654
   56MOL0     H 7537   9.679   4.990   7.867  1.0888  0.9858  1.2308
   56MOL0     H 7538   9.648   4.677   7.852 -0.0037  1.1917  0.8403
   56MOL0     H 7539   9.777   4.769   7.764  0.1683 -0.3309 -1.3518
   56MOL0     H 7540   9.483   4.763   7.714  0.1731 -1.4587 -1.0949
   56MOL0     H 7541   9.622   4.740   7.603  0.8153  1.3004 -0.5733
   56MOL0     H 7542   9.895   4.773   8.300 -2.2486  1.5031 -0.2131
   56MOL0     H 7543  10.156   4.779   8.350  1.8369  0.4863  0.5080
   56MOL0     H 7544  10.454   4.695   8.676 -0.0038  1.3021 -3.4970
   56MOL0     H 7545  10.649   4.688   8.860 -0.4844 -0.3586  0.7318
   56MOL0     H 7546  10.139   5.553  10.132  1.6952 -0.6399  3.1434
   56MOL0     H 7547  10.105   5.779  10.189  0.7139  0.2632  2.4473
   56MOL0     H 7548  10.135   6.137  10.329 -2.1074  1.9504 -1.5915
   56MOL0     H 7549  10.077   6.306  10.437 -0.6105  0.0264 -0.4397
   56MOL0     H 7550  10.016   6.539  10.471  0.0568 -1.2728 -1.3235
   56MOL0     H 7551  10.116   6.469  10.603 -0.4698 -0.3835 -0.9929
   56MOL0     H 7552  10.120   6.773  10.530 -1.7445  0.7582  0.9178
   56MOL0     H 7553  10.232   6.676  10.632 -0.9672 -0.9009  1.2652
   56MOL0     H 7554  10.056   6.781  10.769  1.1598 -0.0425  0.0652
   56MOL0     H 7555   9.992   6.617  10.752 -3.0252 -1.0899 -2.4496
   56MOL0     H 7556   9.852   6.687  10.563  3.5079 -1.5004 -0.3505
   56MOL0     H 7557   9.923   6.853  10.583 -0.0586 -1.5160 -2.7223
   56MOL0     H 7558   9.632   6.882  10.867  2.2044  0.7940  1.2831
   56MOL0     H 7559  10.434   6.515  10.287 -0.8090  0.8938 -1.9581
   56MOL0     H 7560  10.503   6.327  10.178 -1.2833 -0.7453 -2.0570
   57MOL0     O 7561   9.272   6.286   1.705 -0.0545  0.1707 -0.4216
   57MOL0     C 7562   9.380   6.258   1.645 -0.3376 -0.5369 -0.7534
   57MOL0     O 7563   9.487   6.193   1.713 -0.3771 -0.3348  0.6341
   57MOL0     C 7564   9.456   6.187   1.851 -0.3770 -0.1493  0.0861
   57MOL0     C 7565   9.384   6.075   1.899 -0.5245  0.0107  0.3506
   57MOL0     C 7566   9.364   6.048   2.035  0.3862 -0.1864 -0.1360
   57MOL0     C 7567   9.427   6.128   2.128 -0.3243 -0.5380  0.1810
   57MOL0     O 7568   9.443   6.074   2.252  0.0983 -0.4100  0.6476
   57MOL0     C 7569   9.487   6.157   2.356  0.2336 -0.1906  1.0436
   57MOL0     C 7570   9.472   6.088   2.487  0.4428  0.3658 -0.1611
   57MOL0     C 7571   9.574   6.144   2.585 -0.5822 -0.4012  0.4706
   57MOL0     C 7572   9.572   6.070   2.720 -0.8024  0.3295 -0.0179
   57MOL0     C 7573   9.689   6.094   2.821  0.2976  0.3782 -0.2512
   57MOL0     C 7574   9.706   5.968   2.909 -0.3548 -0.1058 -0.3877
   57MOL0     C 7575   9.577   5.940   2.984 -0.1382 -0.7892 -0.3759
   57MOL0     C 7576   9.602   5.860   3.114 -0.1491 -0.4289  0.0915
   57MOL0     N 7577   9.711   5.922   3.197 -0.2557  0.0569 -0.2402
   57MOL0     C 7578   9.701   6.037   3.273 -0.1791  0.1853 -0.3339
   57MOL0     C 7579   9.804   6.030   3.359  0.4990  1.0367  0.4724
   57MOL0     C 7580   9.818   6.113   3.489  0.3861 -0.1148 -0.8357
   57MOL0     C 7581   9.710   6.093   3.597 -0.4497 -0.5383  0.1772
   57MOL0     C 7582   9.697   6.217   3.696 -0.8428 -0.8620 -0.9103
   57MOL0     C 7583   9.833   6.244   3.768  0.5447  0.8804  0.8165
   57MOL0     O 7584   9.833   6.326   3.881 -0.6055 -0.1642 -0.2094
   57MOL0     C 7585   9.869   6.466   3.876 -0.2297  0.1276 -0.3614
   57MOL0     C 7586   9.887   6.534   3.998 -0.1055  0.3925 -0.0686
   57MOL0     C 7587   9.935   6.668   3.990  0.1856 -0.5494 -0.7815
   57MOL0     C 7588   9.966   6.724   4.126 -0.2910 -0.2353 -0.2292
   57MOL0     C 7589   9.953   6.741   3.867  0.3769  0.4107  0.3434
   57MOL0     C 7590  10.006   6.876   3.846  1.2124 -0.2808  0.6480
   57MOL0     O 7591  10.066   6.935   3.948  0.6288 -0.2914 -0.1840
   57MOL0     C 7592  10.077   7.074   3.961 -0.1528 -0.5511 -0.0056
   57MOL0     C 7593   9.971   7.140   4.012 -0.1561  0.9946 -0.0015
   57MOL0     C 7594   9.981   7.272   4.054 -1.0282  0.7283  0.1146
   57MOL0     C 7595  10.100   7.338   4.045 -1.3650  0.5805  0.1211
   57MOL0     O 7596  10.124   7.458   4.105 -0.5266  0.2185  0.5908
   57MOL0     C 7597  10.036   7.505   4.208  0.3976  0.0308 -0.4037
   57MOL0     C 7598  10.108   7.622   4.275  0.1177 -0.2599 -0.7350
   57MOL0     C 7599  10.161   7.732   4.180 -0.5561 -1.0530  0.1305
   57MOL0     C 7600  10.206   7.865   4.255  0.3476  0.0972  0.2447
   57MOL0     C 7601  10.264   7.960   4.153  0.4226 -0.5382 -0.4480
   57MOL0     C 7602  10.292   8.093   4.228  0.6369 -0.1747  0.3502
   57MOL0     C 7603  10.388   8.089   4.347 -1.0087  0.9592  0.4517
   57MOL0     C 7604  10.403   8.234   4.391 -0.0293 -0.2869  0.0783
   57MOL0    Cl 7605  10.488   8.219   4.547  0.1589 -0.2356  0.1796
   57MOL0     C 7606  10.208   7.276   3.970 -0.3009  0.2591  0.1404
   57MOL0     C 7607  10.195   7.146   3.932 -0.4629  0.3995 -0.1895
   57MOL0     O 7608   9.954   6.934   3.741 -0.0392  0.8673  0.1363
   57MOL0     C 7609   9.920   6.675   3.753  0.5210 -0.4248 -0.0117
   57MOL0     C 7610   9.884   6.545   3.757 -0.1250  0.0208  0.5387
   57MOL0     N 7611   9.890   5.935   3.315 -0.1780  1.4339 -0.7025
   57MOL0     N 7612   9.834   5.879   3.212 -0.7681 -0.3261  0.2290
   57MOL0     C 7613   9.493   6.245   2.088 -0.9762 -0.3905  0.5229
   57MOL0     C 7614   9.513   6.269   1.950 -0.5184 -0.0820 -1.2753
   57MOL0     C 7615   9.393   6.280   1.504 -0.2392  0.1804 -0.8273
   57MOL0     C 7616   9.505   6.226   1.434 -0.2603 -0.1438  0.4376
   57MOL0     C 7617   9.500   6.206   1.291 -0.3127 -0.7748 -0.1447
   57MOL0     C 7618   9.388   6.267   1.217 -0.6721 -0.0930  0.5725
   57MOL0     O 7619   9.397   6.238   1.073  0.0961  0.6327 -0.5103
   57MOL0     C 7620   9.341   6.337   0.986 -0.1160  0.8598  1.0125
   57MOL0     C 7621   9.413   6.470   0.998  0.3818 -0.3884  0.1960
   57MOL0     C 7622   9.571   6.476   1.020  0.3013 -0.4563 -0.1790
   57MOL0     C 7623   9.667   6.425   0.909 -0.1355  0.2237 -1.0517
   57MOL0     C 7624   9.694   6.527   0.807 -0.1383  0.8422  0.6152
   57MOL0     C 7625   9.711   6.612   0.720  0.1573  0.2646 -0.3565
   57MOL0     C 7626   9.284   6.325   1.292 -0.5279  0.6507 -0.0052
   57MOL0     C 7627   9.287   6.340   1.428  0.3381 -0.1957  0.2400
   57MOL0     H 7628   9.349   6.013   1.817  0.9166  0.6952 -0.8240
   57MOL0     H 7629   9.300   5.965   2.063  0.9140 -0.2814  0.8316
   57MOL0     H 7630   9.595   6.168   2.340 -0.0896  0.8370 -0.6990
   57MOL0     H 7631   9.437   6.254   2.349 -3.0647 -1.6728  2.0621
   57MOL0     H 7632   9.376   6.107   2.537  2.2317 -1.5051  4.5486
   57MOL0     H 7633   9.475   5.978   2.483 -0.6108  0.3028  0.3319
   57MOL0     H 7634   9.673   6.137   2.538 -0.4185  6.0185 -1.0910
   57MOL0     H 7635   9.568   6.251   2.606 -1.3529  1.0399 -5.3096
   57MOL0     H 7636   9.474   6.092   2.764 -0.9292 -0.5927  0.1815
   57MOL0     H 7637   9.572   5.963   2.697 -0.7236  0.2970  0.1341
   57MOL0     H 7638   9.785   6.092   2.769  0.8659  1.2950  0.7309
   57MOL0     H 7639   9.672   6.189   2.871 -3.6876 -0.0586 -0.4684
   57MOL0     H 7640   9.740   5.882   2.850  0.6649 -0.0998  0.1772
   57MOL0     H 7641   9.789   5.986   2.977 -0.8355  0.0989  0.1605
   57MOL0     H 7642   9.521   6.031   3.009  0.5802 -1.1920  3.2824
   57MOL0     H 7643   9.516   5.891   2.908  1.1037 -0.4476 -1.6426
   57MOL0     H 7644   9.640   5.767   3.072 -1.6051  0.5829 -3.9148
   57MOL0     H 7645   9.506   5.848   3.166 -1.5600  1.4381 -1.9263
   57MOL0     H 7646   9.623   6.113   3.275 -0.8184 -0.4662  0.4346
   57MOL0     H 7647   9.916   6.091   3.533  0.1397  1.9775  0.9319
   57MOL0     H 7648   9.828   6.217   3.459  2.8396  0.2822  0.9812
   57MOL0     H 7649   9.730   5.999   3.649  0.2237 -0.6773 -0.3211
   57MOL0     H 7650   9.611   6.100   3.551 -0.8209  1.3138  1.1585
   57MOL0     H 7651   9.617   6.207   3.770 -1.6447 -0.4335 -1.7121
   57MOL0     H 7652   9.662   6.308   3.646  1.2531  2.9363  3.7023
   57MOL0     H 7653   9.891   6.277   3.682 -0.1479  0.5891  0.2276
   57MOL0     H 7654   9.874   6.147   3.797 -1.2193 -0.6420 -1.4397
   57MOL0     H 7655   9.865   6.478   4.089 -1.8698  0.5762 -0.3465
   57MOL0     H 7656  10.069   6.717   4.163 -0.7997  1.2057  1.6384
   57MOL0     H 7657   9.941   6.831   4.126  2.8758  0.6153  1.1199
   57MOL0     H 7658   9.901   6.670   4.196 -0.9755 -0.2660 -0.8777
   57MOL0     H 7659   9.889   7.073   4.039 -1.8941  2.0515 -2.2768
   57MOL0     H 7660   9.895   7.318   4.101  0.6811  2.4861  1.6805
   57MOL0     H 7661   9.936   7.520   4.166  1.1657  0.5400 -2.1319
   57MOL0     H 7662  10.013   7.442   4.294 -1.2763  1.6006  0.3644
   57MOL0     H 7663  10.030   7.675   4.330  1.0287  1.2146 -0.8194
   57MOL0     H 7664  10.179   7.574   4.343 -0.7533 -2.0759 -1.0399
   57MOL0     H 7665  10.082   7.745   4.106  0.0558 -1.2312 -0.5697
   57MOL0     H 7666  10.254   7.698   4.133  1.9628  1.3913  2.9083
   57MOL0     H 7667  10.130   7.918   4.313  2.0648  2.6539  0.3524
   57MOL0     H 7668  10.284   7.843   4.328  0.3316  0.6230  0.4274
   57MOL0     H 7669  10.191   7.965   4.072 -1.5549 -0.7196  1.2242
   57MOL0     H 7670  10.356   7.913   4.118  0.1611 -1.4945  0.0910
   57MOL0     H 7671  10.321   8.172   4.158 -1.1641  0.2745  0.0555
   57MOL0     H 7672  10.196   8.122   4.272  1.0990  0.8600  0.7008
   57MOL0     H 7673  10.488   8.052   4.323 -0.9220  0.5614  1.3736
   57MOL0     H 7674  10.348   8.029   4.429  0.9715 -0.9520  0.1000
   57MOL0     H 7675  10.304   8.279   4.406  0.1283 -0.7090  2.8402
   57MOL0     H 7676  10.461   8.288   4.315 -0.2617 -0.1199  0.0179
   57MOL0     H 7677  10.305   7.323   3.960  1.2052 -2.4591  0.7196
   57MOL0     H 7678  10.270   7.096   3.871 -1.7554 -1.3431 -0.4226
   57MOL0     H 7679   9.926   6.724   3.656 -3.2989 -2.6961 -1.6264
   57MOL0     H 7680   9.873   6.494   3.661  2.1755 -0.0544  0.2533
   57MOL0     H 7681   9.552   6.307   2.155 -1.2654  0.1623  0.2761
   57MOL0     H 7682   9.570   6.356   1.918 -0.2170  0.8072  1.4201
   57MOL0     H 7683   9.590   6.178   1.482 -1.2969  1.3696  4.0874
   57MOL0     H 7684   9.590   6.166   1.244 -0.4584  0.8571 -1.9546
   57MOL0     H 7685   9.353   6.294   0.886  1.6522 -0.5018  1.7507
   57MOL0     H 7686   9.238   6.367   1.004  0.0351  1.5411  0.7797
   57MOL0     H 7687   9.363   6.524   1.079  2.8150  2.5550 -0.0719
   57MOL0     H 7688   9.385   6.527   0.909 -0.5009 -0.7884  0.2053
   57MOL0     H 7689   9.585   6.405   1.102 -0.4719 -0.3985  0.0123
   57MOL0     H 7690   9.586   6.580   1.052 -3.6383  0.0533  0.6315
   57MOL0     H 7691   9.621   6.336   0.864  0.1903 -1.0547  1.0001
   57MOL0     H 7692   9.759   6.399   0.962 -1.4150  0.7223  1.5800
   57MOL0     H 7693   9.734   6.686   0.646  2.1737 -0.8954 -0.9746
   57MOL0     H 7694   9.201   6.367   1.235 -0.8782 -0.9196 -0.7089
   57MOL0     H 7695   9.202   6.349   1.494  1.5047 -2.0540  2.1236
   58MOL0     O 7696   9.796   3.191   7.170 -0.8125  1.4860 -0.1733
   58MOL0     C 7697   9.688   3.190   7.214  0.4717 -1.1241 -0.7786
   58MOL0     O 7698   9.606   3.080   7.257 -0.1913 -0.9286 -0.1749
   58MOL0     C 7699   9.662   2.960   7.236 -1.2991 -0.4086  0.4445
   58MOL0     C 7700   9.681   2.898   7.113 -0.7522 -0.1757 -0.0791
   58MOL0     C 7701   9.728   2.764   7.104 -0.1034 -1.2142  0.4487
   58MOL0     C 7702   9.765   2.692   7.206 -0.6471 -0.1345  0.2782
   58MOL0     O 7703   9.810   2.561   7.190 -0.3567 -0.2430  0.6620
   58MOL0     C 7704   9.881   2.485   7.288 -0.0752  0.0890 -0.5221
   58MOL0     C 7705  10.001   2.562   7.339 -0.2160 -0.7648 -0.0707
   58MOL0     C 7706  10.106   2.609   7.225  0.7374  0.5058  0.5826
   58MOL0     C 7707  10.234   2.669   7.289 -1.0514  0.1320  0.1356
   58MOL0     C 7708  10.288   2.765   7.187  0.1853  0.8028 -0.1792
   58MOL0     C 7709  10.419   2.833   7.215 -0.4378 -0.2148  0.0170
   58MOL0     C 7710  10.416   2.934   7.336  0.4620  0.2485 -0.1503
   58MOL0     C 7711  10.546   3.016   7.326 -0.0568  0.9139 -0.5104
   58MOL0     N 7712  10.542   3.125   7.416 -0.2390 -0.5759 -0.0070
   58MOL0     C 7713  10.462   3.239   7.405  0.0329 -0.2080  0.7163
   58MOL0     C 7714  10.475   3.296   7.534  0.5901 -0.3945  0.9223
   58MOL0     C 7715  10.407   3.419   7.588 -0.0226 -0.4790 -0.5120
   58MOL0     C 7716  10.266   3.423   7.526 -0.5055 -0.0602 -0.5100
   58MOL0     C 7717  10.184   3.303   7.567  0.5244 -0.7252 -0.1913
   58MOL0     C 7718  10.054   3.297   7.488 -1.0846  0.2723  0.0204
   58MOL0     O 7719   9.977   3.414   7.497  0.2126  0.0657 -0.2020
   58MOL0     C 7720   9.864   3.412   7.572  0.2896  0.6389  1.3522
   58MOL0     C 7721   9.834   3.326   7.668 -0.2079  0.4130  0.0118
   58MOL0     C 7722   9.722   3.339   7.742  0.3889  0.0023  0.4193
   58MOL0     C 7723   9.717   3.232   7.850  0.7339 -0.7373  0.6039
   58MOL0     C 7724   9.633   3.439   7.715  0.3672  0.4051 -1.0146
   58MOL0     C 7725   9.516   3.456   7.793  0.8059  0.2107  0.1081
   58MOL0     O 7726   9.533   3.487   7.923  0.1993 -0.3814 -0.3922
   58MOL0     C 7727   9.419   3.515   7.994 -0.4179 -0.5150  1.0095
   58MOL0     C 7728   9.366   3.644   7.975  0.6766 -0.0399 -0.2677
   58MOL0     C 7729   9.247   3.681   8.041 -0.4270 -0.3231  0.8011
   58MOL0     C 7730   9.195   3.600   8.136 -0.3103  0.6834 -0.2304
   58MOL0     O 7731   9.079   3.618   8.199  0.6626  0.4642  0.4609
   58MOL0     C 7732   9.026   3.752   8.203  0.1728 -0.0726 -0.4932
   58MOL0     C 7733   8.939   3.773   8.329  0.0277 -0.1548  0.1312
   58MOL0     C 7734   8.849   3.649   8.351 -0.2790  0.7810  0.5080
   58MOL0     C 7735   8.757   3.659   8.470 -0.1125 -0.2281  0.2746
   58MOL0     C 7736   8.641   3.757   8.463 -0.4572  0.5784  0.7281
   58MOL0     C 7737   8.543   3.740   8.576 -0.1792  0.3696 -0.8376
   58MOL0     C 7738   8.428   3.632   8.566  0.0876  0.1805 -0.4740
   58MOL0     C 7739   8.475   3.495   8.531  0.4482  0.2544 -0.2550
   58MOL0    Cl 7740   8.334   3.385   8.533  0.2523  0.3535 -0.0535
   58MOL0     C 7741   9.251   3.474   8.153  0.0218  0.0053  0.5197
   58MOL0     C 7742   9.370   3.428   8.086 -0.1104 -0.7357 -0.7573
   58MOL0     O 7743   9.409   3.435   7.737  0.3808 -0.1333  0.3028
   58MOL0     C 7744   9.660   3.529   7.622 -0.2856 -0.5616 -0.3560
   58MOL0     C 7745   9.776   3.513   7.540  0.0824 -0.1290 -0.4452
   58MOL0     N 7746  10.566   3.219   7.604  0.4642 -0.3016  0.0184
   58MOL0     N 7747  10.609   3.131   7.537  0.6848  0.2545 -1.1489
   58MOL0     C 7748   9.747   2.753   7.335 -0.4145  0.1621  0.5268
   58MOL0     C 7749   9.700   2.887   7.351  0.7477  0.0733  0.0505
   58MOL0     C 7750   9.619   3.322   7.233  0.7647  0.2442 -0.0055
   58MOL0     C 7751   9.536   3.331   7.349 -0.5225  0.2851  0.3436
   58MOL0     C 7752   9.467   3.448   7.380  0.4068 -0.4630 -0.3120
   58MOL0     C 7753   9.473   3.550   7.290  0.9097 -0.3420 -0.3971
   58MOL0     O 7754   9.410   3.667   7.319  0.1304 -0.0269 -0.6441
   58MOL0     C 7755   9.509   3.772   7.339  0.6037  0.5564  0.2080
   58MOL0     C 7756   9.473   3.865   7.459 -0.6727  0.2342  0.0015
   58MOL0     C 7757   9.339   3.933   7.431 -0.7224  0.3119  0.3039
   58MOL0     C 7758   9.287   3.992   7.555 -0.1070  0.2936 -1.0617
   58MOL0     C 7759   9.143   4.010   7.545  0.2843 -0.0187 -1.1060
   58MOL0     C 7760   9.027   4.054   7.535 -0.0822  0.0103  0.1649
   58MOL0     C 7761   9.537   3.532   7.171  0.5606  0.9829 -0.0270
   58MOL0     C 7762   9.614   3.422   7.140  0.2272 -0.8635  0.3883
   58MOL0     H 7763   9.662   2.963   7.028 -1.2477  1.2097  1.0366
   58MOL0     H 7764   9.731   2.733   7.000 -0.7527 -2.6783  0.8393
   58MOL0     H 7765   9.816   2.440   7.364  1.8160 -1.4362  0.2715
   58MOL0     H 7766   9.925   2.399   7.236 -0.2999  1.4165 -3.0129
   58MOL0     H 7767   9.974   2.656   7.390  2.3303 -0.3412  0.6681
   58MOL0     H 7768  10.048   2.501   7.417  0.8468  2.3297  1.9110
   58MOL0     H 7769  10.147   2.528   7.163  2.0162  0.8779  0.9031
   58MOL0     H 7770  10.055   2.671   7.151 -0.3085 -0.6759  0.2853
   58MOL0     H 7771  10.201   2.725   7.377  0.4843  1.6951 -0.2204
   58MOL0     H 7772  10.315   2.601   7.318  1.2819  2.0457 -1.4631
   58MOL0     H 7773  10.299   2.711   7.093  2.5163 -0.3662  0.6804
   58MOL0     H 7774  10.217   2.847   7.173 -1.8558 -0.3038  2.6333
   58MOL0     H 7775  10.495   2.759   7.241 -0.7064 -0.7807 -0.7889
   58MOL0     H 7776  10.447   2.888   7.124  0.7588  0.6226  0.8552
   58MOL0     H 7777  10.334   3.007   7.330 -0.0891 -0.1891  1.4837
   58MOL0     H 7778  10.407   2.883   7.432 -0.1122 -0.5980 -0.6477
   58MOL0     H 7779  10.559   3.055   7.225  1.2400 -0.0335 -0.7391
   58MOL0     H 7780  10.624   2.944   7.350  0.3421  0.6819 -2.3770
   58MOL0     H 7781  10.399   3.257   7.319  0.8664 -0.8935 -0.0722
   58MOL0     H 7782  10.391   3.406   7.696  0.1627  1.0897 -0.2741
   58MOL0     H 7783  10.463   3.510   7.569  1.8119 -1.9748 -2.8295
   58MOL0     H 7784  10.278   3.419   7.417 -0.3252  1.0612 -0.5507
   58MOL0     H 7785  10.215   3.518   7.549  0.1051  0.2545 -0.4252
   58MOL0     H 7786  10.158   3.320   7.672  3.9785 -0.9668  0.8265
   58MOL0     H 7787  10.246   3.213   7.569  1.7146  0.0541  2.4691
   58MOL0     H 7788  10.011   3.197   7.502  1.4771 -0.6068  2.4557
   58MOL0     H 7789  10.091   3.290   7.386 -0.9674  2.5494 -0.1493
   58MOL0     H 7790   9.895   3.238   7.684  0.6873  0.8658 -0.7909
   58MOL0     H 7791   9.612   3.205   7.866  0.3555  1.0057  1.3463
   58MOL0     H 7792   9.758   3.136   7.819  2.0726 -0.3825  1.2072
   58MOL0     H 7793   9.763   3.255   7.946 -1.0451 -0.9266  1.5306
   58MOL0     H 7794   9.411   3.714   7.905 -2.1542  1.9731 -0.2683
   58MOL0     H 7795   9.204   3.775   8.008  0.2436  0.9242  3.2888
   58MOL0     H 7796   9.111   3.820   8.212 -1.1726  1.7135 -0.8217
   58MOL0     H 7797   8.959   3.776   8.119 -2.5527 -1.8683  1.0152
   58MOL0     H 7798   9.013   3.783   8.409  0.1926  1.9050 -0.2116
   58MOL0     H 7799   8.885   3.867   8.316  0.7667  0.2112 -0.3767
   58MOL0     H 7800   8.893   3.550   8.367 -3.8411 -1.2624 -1.0271
   58MOL0     H 7801   8.787   3.636   8.262 -0.7935  0.6102  0.8794
   58MOL0     H 7802   8.710   3.563   8.489 -2.6437  0.7932 -0.4521
   58MOL0     H 7803   8.813   3.693   8.558 -1.3035  1.1033  0.5567
   58MOL0     H 7804   8.576   3.733   8.378  1.1583 -0.1739 -0.3412
   58MOL0     H 7805   8.670   3.862   8.466  0.9088  0.1959  1.4964
   58MOL0     H 7806   8.592   3.712   8.669 -4.2902 -1.3995  1.0649
   58MOL0     H 7807   8.505   3.842   8.588  0.8026  0.4057  3.2897
   58MOL0     H 7808   8.363   3.667   8.485 -1.5898  3.0453  1.9143
   58MOL0     H 7809   8.387   3.635   8.667  4.4945  2.6911  1.5181
   58MOL0     H 7810   8.555   3.455   8.596  1.4253  2.2297 -0.1559
   58MOL0     H 7811   8.518   3.497   8.431  0.9483  0.3345 -0.0438
   58MOL0     H 7812   9.193   3.406   8.214 -1.0985 -2.2401 -2.8040
   58MOL0     H 7813   9.402   3.331   8.122 -4.2352 -1.1326  2.6696
   58MOL0     H 7814   9.589   3.610   7.607 -0.7538 -0.4674  1.9775
   58MOL0     H 7815   9.816   3.570   7.456  2.3433 -1.6053 -0.4397
   58MOL0     H 7816   9.774   2.696   7.423  0.4202 -3.0429 -1.6198
   58MOL0     H 7817   9.695   2.941   7.445  3.4926 -0.6202  0.6659
   58MOL0     H 7818   9.533   3.259   7.431 -1.0445  0.0144  0.0904
   58MOL0     H 7819   9.413   3.466   7.473  1.3937 -0.4113  0.2699
   58MOL0     H 7820   9.606   3.728   7.361 -1.1377 -2.9274  1.7173
   58MOL0     H 7821   9.512   3.824   7.243  3.0517 -3.9760 -2.4884
   58MOL0     H 7822   9.558   3.933   7.467  0.9305 -1.6933  0.2936
   58MOL0     H 7823   9.467   3.797   7.545  0.0739 -0.4981 -0.5115
   58MOL0     H 7824   9.269   3.868   7.378 -0.5417 -2.2615  2.9562
   58MOL0     H 7825   9.351   4.017   7.362  1.8871 -0.9270 -0.9202
   58MOL0     H 7826   9.327   4.093   7.569 -2.3968  1.2727 -1.1202
   58MOL0     H 7827   9.296   3.938   7.649  1.9530  0.6972 -0.9760
   58MOL0     H 7828   8.934   4.104   7.519  1.3403  3.0316  0.5031
   58MOL0     H 7829   9.518   3.614   7.103  4.2162  0.5629 -1.8152
   58MOL0     H 7830   9.670   3.423   7.047  1.0586  5.1106  0.5150
   59MOL0     O 7831   8.555   4.435   9.617  0.1982  0.3106  1.1766
   59MOL0     C 7832   8.565   4.456   9.494  0.1498 -0.7346 -0.1666
   59MOL0     O 7833   8.678   4.501   9.433  0.3479  0.2984 -0.5832
   59MOL0     C 7834   8.779   4.529   9.519 -0.1599  0.2275 -0.4490
   59MOL0     C 7835   8.802   4.662   9.549 -0.5613 -0.4259  1.1703
   59MOL0     C 7836   8.914   4.715   9.624  0.6326  0.5520  0.6332
   59MOL0     C 7837   9.015   4.621   9.659  1.1745  0.1879  1.0051
   59MOL0     O 7838   9.130   4.659   9.726  0.7489  0.2391  0.8687
   59MOL0     C 7839   9.248   4.687   9.647 -0.2398 -0.2729  0.0260
   59MOL0     C 7840   9.369   4.637   9.725 -0.1373  0.1472  0.0967
   59MOL0     C 7841   9.433   4.724   9.816  0.0174 -0.8026 -0.6817
   59MOL0     C 7842   9.530   4.661   9.914  0.0008 -0.0766  0.1889
   59MOL0     C 7843   9.621   4.756  10.002 -0.1653  0.3756  0.1033
   59MOL0     C 7844   9.537   4.853  10.085 -0.0618 -0.8128  0.0853
   59MOL0     C 7845   9.624   4.979  10.111 -0.1024  0.2586 -0.0294
   59MOL0     C 7846   9.742   4.952  10.214  0.1438  0.6531  0.2054
   59MOL0     N 7847   9.711   4.924  10.362 -0.4937 -0.1040  0.1638
   59MOL0     C 7848   9.678   4.800  10.403 -0.6092  0.3188  0.1226
   59MOL0     C 7849   9.618   4.808  10.524 -0.0780 -0.0898 -0.4201
   59MOL0     C 7850   9.565   4.692  10.612 -0.1254  0.3921  0.9647
   59MOL0     C 7851   9.621   4.699  10.755  0.1583  0.4985  0.0594
   59MOL0     C 7852   9.754   4.622  10.761  0.4375 -0.1718  0.4184
   59MOL0     C 7853   9.795   4.596  10.907 -0.9943 -0.0461 -0.1719
   59MOL0     O 7854   9.933   4.546  10.916 -0.3652  0.1902 -0.0122
   59MOL0     C 7855  10.027   4.638  10.912 -0.1501  0.6655 -0.0576
   59MOL0     C 7856  10.012   4.777  10.877  0.5886 -0.4288 -0.2663
   59MOL0     C 7857  10.132   4.846  10.839  0.6101 -0.6099  0.1214
   59MOL0     C 7858  10.104   4.977  10.755  0.2790 -0.7488  0.1725
   59MOL0     C 7859  10.264   4.793  10.860 -0.2960  0.2985  1.3457
   59MOL0     C 7860  10.392   4.868  10.843 -0.1904 -0.1606  0.9888
   59MOL0     O 7861  10.509   4.796  10.826 -0.3404 -0.3545 -0.0282
   59MOL0     C 7862  10.619   4.868  10.810  0.1272 -0.7357 -0.4827
   59MOL0     C 7863  10.642   4.938  10.691 -0.9300 -1.3829 -0.0823
   59MOL0     C 7864  10.771   4.989  10.665 -0.2852 -1.0519  0.9125
   59MOL0     C 7865  10.868   4.981  10.764 -0.1811 -0.1037  1.0161
   59MOL0     O 7866  11.000   5.032  10.741 -0.0037 -0.3915  0.0139
   59MOL0     C 7867  11.047   5.068  10.605 -0.1552  0.2104  0.4751
   59MOL0     C 7868  11.196   5.118  10.618  0.7640  0.8957 -0.3719
   59MOL0     C 7869  11.231   5.176  10.481 -0.2067  0.0042  0.0800
   59MOL0     C 7870  11.267   5.060  10.383  0.1574  0.6111  0.0665
   59MOL0     C 7871  11.284   5.111  10.240  0.2363  0.1358  0.7369
   59MOL0     C 7872  11.353   5.004  10.161  0.7938  0.6627 -0.2181
   59MOL0     C 7873  11.268   4.883  10.128  0.8601 -0.5711  0.6910
   59MOL0     C 7874  11.323   4.819   9.998  0.8703  0.9536  0.5278
   59MOL0    Cl 7875  11.207   4.690   9.930  0.6521 -0.1170  0.0425
   59MOL0     C 7876  10.835   4.928  10.887 -0.7516  0.7561 -0.1100
   59MOL0     C 7877  10.709   4.868  10.912 -0.0306 -0.4328  0.1295
   59MOL0     O 7878  10.383   4.992  10.864 -0.4128  0.7262  0.6634
   59MOL0     C 7879  10.273   4.662  10.897  0.3019  0.7579 -0.1378
   59MOL0     C 7880  10.160   4.590  10.928 -0.2287 -1.4597 -0.3232
   59MOL0     N 7881   9.591   4.946  10.550 -0.3116  0.7063 -0.7075
   59MOL0     N 7882   9.655   5.008  10.455 -0.5317 -1.0517  0.0695
   59MOL0     C 7883   8.994   4.484   9.636 -0.1084  0.6084  0.9347
   59MOL0     C 7884   8.876   4.439   9.565 -0.0560 -0.0539 -0.3587
   59MOL0     C 7885   8.447   4.431   9.397  0.0746  0.3503  0.4065
   59MOL0     C 7886   8.316   4.417   9.443 -0.3995 -1.0706  0.2093
   59MOL0     C 7887   8.212   4.396   9.355  0.0542  0.4384 -0.6619
   59MOL0     C 7888   8.232   4.388   9.216 -0.4073 -0.5545 -0.5581
   59MOL0     O 7889   8.131   4.356   9.125 -0.8042 -0.0183 -0.3804
   59MOL0     C 7890   8.014   4.420   9.149  0.8588 -0.3587  0.2483
   59MOL0     C 7891   7.926   4.404   9.020 -0.6518 -0.4906  0.3599
   59MOL0     C 7892   7.785   4.458   9.047 -0.6129 -0.2266 -0.3421
   59MOL0     C 7893   7.713   4.495   8.921 -0.2407 -0.1560  0.2602
   59MOL0     C 7894   7.680   4.379   8.838  0.0820  0.9363  0.1862
   59MOL0     C 7895   7.637   4.270   8.791 -0.2875 -0.4678  0.7398
   59MOL0     C 7896   8.364   4.396   9.171 -0.2314 -0.3269  0.6031
   59MOL0     C 7897   8.466   4.408   9.261 -0.5846 -0.4642 -0.6197
   59MOL0     H 7898   8.727   4.733   9.517  2.6949  2.1419 -1.6744
   59MOL0     H 7899   8.929   4.821   9.643  0.5690  0.9675 -1.4925
   59MOL0     H 7900   9.236   4.622   9.559  0.4625 -0.7999  0.3079
   59MOL0     H 7901   9.255   4.790   9.610  2.3651  0.1532  1.4775
   59MOL0     H 7902   9.336   4.545   9.773 -2.7252 -0.3408 -2.3191
   59MOL0     H 7903   9.445   4.602   9.654  0.8655  0.5306  0.9526
   59MOL0     H 7904   9.491   4.800   9.763 -0.9828  0.5278  0.0822
   59MOL0     H 7905   9.359   4.784   9.871  2.0376 -0.4888  1.9231
   59MOL0     H 7906   9.487   4.592   9.988  0.5938  1.4881  2.0940
   59MOL0     H 7907   9.593   4.607   9.844 -0.8311 -0.1252 -0.5428
   59MOL0     H 7908   9.679   4.709  10.082 -0.2187  2.0213  1.1526
   59MOL0     H 7909   9.686   4.805   9.929 -0.8808 -0.5613 -1.2018
   59MOL0     H 7910   9.457   4.895  10.023 -0.1181 -1.4491 -0.2839
   59MOL0     H 7911   9.486   4.807  10.170  0.0651 -0.7726  0.1836
   59MOL0     H 7912   9.664   5.012  10.015 -0.7434  1.0513 -0.0400
   59MOL0     H 7913   9.553   5.058  10.140 -0.0427  0.3688 -0.1784
   59MOL0     H 7914   9.808   5.039  10.217  1.3114 -0.2420  1.9823
   59MOL0     H 7915   9.806   4.875  10.170 -0.3093  0.0157  0.6319
   59MOL0     H 7916   9.691   4.705  10.353 -2.3463 -0.6400  1.3820
   59MOL0     H 7917   9.459   4.696  10.636 -0.2081 -3.1495  1.8033
   59MOL0     H 7918   9.582   4.596  10.563  1.5028  1.6143 -1.0371
   59MOL0     H 7919   9.556   4.645  10.823  0.3783  0.5185  0.2844
   59MOL0     H 7920   9.632   4.802  10.792 -1.5947  1.0383 -0.7797
   59MOL0     H 7921   9.831   4.669  10.698  0.8362 -3.6805 -2.0100
   59MOL0     H 7922   9.749   4.524  10.712  0.8319  0.3767 -0.7691
   59MOL0     H 7923   9.727   4.521  10.949  0.3920  0.9581  4.5641
   59MOL0     H 7924   9.789   4.676  10.982 -0.0051 -2.9686  3.3276
   59MOL0     H 7925   9.912   4.819  10.867 -0.0303 -0.7400  3.1637
   59MOL0     H 7926  10.013   4.970  10.695 -0.9334  3.2955  1.2367
   59MOL0     H 7927  10.096   5.067  10.817  2.3177  1.0942 -2.0452
   59MOL0     H 7928  10.174   4.999  10.674 -5.0606  1.5292 -4.5396
   59MOL0     H 7929  10.557   4.930  10.624 -1.4070 -3.8391  0.7028
   59MOL0     H 7930  10.791   5.031  10.567  2.3423 -2.8948  0.5787
   59MOL0     H 7931  11.058   4.972  10.553  0.6038  1.0480 -0.9877
   59MOL0     H 7932  10.983   5.133  10.545  0.1757  1.8636  1.8543
   59MOL0     H 7933  11.204   5.199  10.691  1.3587  1.2598 -0.8383
   59MOL0     H 7934  11.267   5.039  10.643  0.4523  0.8338  0.3622
   59MOL0     H 7935  11.319   5.240  10.476 -0.2415 -0.0414 -1.3171
   59MOL0     H 7936  11.140   5.226  10.447 -1.6295 -2.9905 -0.8761
   59MOL0     H 7937  11.357   5.005  10.411 -0.2001 -0.2027 -0.3523
   59MOL0     H 7938  11.186   4.987  10.375  2.5002 -2.0519 -0.8022
   59MOL0     H 7939  11.339   5.205  10.244 -2.0478  1.6469 -1.1614
   59MOL0     H 7940  11.181   5.120  10.204 -0.8065 -0.6173  3.2798
   59MOL0     H 7941  11.377   5.051  10.065 -0.7312 -0.4061 -1.1543
   59MOL0     H 7942  11.444   4.978  10.215  0.2091  0.1265  0.5308
   59MOL0     H 7943  11.173   4.934  10.107  1.7233  2.1303  2.8150
   59MOL0     H 7944  11.257   4.816  10.215 -3.1367 -0.6762  0.2921
   59MOL0     H 7945  11.425   4.781  10.011  0.8223  1.2298  1.8947
   59MOL0     H 7946  11.334   4.888   9.913  2.8910 -1.3104 -1.1801
   59MOL0     H 7947  10.910   4.914  10.965 -0.8682 -0.5799 -0.2065
   59MOL0     H 7948  10.671   4.813  10.998  0.7922 -1.1154  0.0643
   59MOL0     H 7949  10.372   4.623  10.921  0.6991  2.2329  0.7275
   59MOL0     H 7950  10.180   4.492  10.970  4.2176 -1.4568 -1.9042
   59MOL0     H 7951   9.062   4.411   9.680  1.1977  0.9406 -0.4578
   59MOL0     H 7952   8.869   4.334   9.538  0.0824 -0.1650  0.0321
   59MOL0     H 7953   8.303   4.425   9.550  0.6598 -1.9492  0.4198
   59MOL0     H 7954   8.117   4.402   9.406 -0.7039  0.7328 -2.0485
   59MOL0     H 7955   7.965   4.364   9.229 -0.7405 -0.9869 -1.1251
   59MOL0     H 7956   8.018   4.528   9.168 -1.0647 -0.1231 -0.5390
   59MOL0     H 7957   7.911   4.297   9.003 -2.6615 -0.1590 -0.2204
   59MOL0     H 7958   7.974   4.455   8.936  3.0169 -0.5764  2.1869
   59MOL0     H 7959   7.798   4.549   9.107 -0.9973  0.7988 -1.7661
   59MOL0     H 7960   7.718   4.392   9.102  2.0720 -0.7348  2.5933
   59MOL0     H 7961   7.768   4.571   8.864 -0.2502 -0.7712 -0.5964
   59MOL0     H 7962   7.625   4.552   8.949  0.1544  1.2369 -1.1672
   59MOL0     H 7963   7.588   4.177   8.770  0.9216 -1.1086  0.6900
   59MOL0     H 7964   8.381   4.388   9.064 -0.7289 -2.5723  0.6463
   59MOL0     H 7965   8.570   4.396   9.234 -1.1403 -0.6678 -2.8677
   60MOL0     O 7966   5.765   7.985   8.171 -0.1277 -0.0852 -0.1051
   60MOL0     C 7967   5.881   8.008   8.198  1.2633 -0.8151  0.8892
   60MOL0     O 7968   5.971   8.021   8.097  0.4719  0.1728 -0.3393
   60MOL0     C 7969   5.957   8.007   7.961 -0.0934  0.5452 -0.0097
   60MOL0     C 7970   6.064   8.056   7.881  0.6639 -1.0663 -0.3841
   60MOL0     C 7971   6.074   8.023   7.747  0.1907 -0.6303 -0.4626
   60MOL0     C 7972   5.974   7.953   7.685  0.8886  0.6471  0.0973
   60MOL0     O 7973   5.980   7.926   7.553  0.3434  0.0824 -0.3695
   60MOL0     C 7974   5.960   7.790   7.508 -0.4854  0.7110 -0.8253
   60MOL0     C 7975   5.929   7.800   7.362  0.3286  0.5153  0.6970
   60MOL0     C 7976   5.869   7.681   7.282 -0.8276 -0.0864 -0.2696
   60MOL0     C 7977   5.765   7.735   7.185 -0.4608  0.2362 -0.6298
   60MOL0     C 7978   5.711   7.615   7.106 -0.5244 -0.2109  0.1874
   60MOL0     C 7979   5.653   7.515   7.195  0.8624 -0.0726  0.1439
   60MOL0     C 7980   5.544   7.421   7.133  0.0813 -0.2183 -1.0379
   60MOL0     C 7981   5.413   7.489   7.080 -0.5151  0.1180 -0.8542
   60MOL0     N 7982   5.314   7.388   7.050  0.1795 -0.1114 -0.7203
   60MOL0     C 7983   5.318   7.294   6.949  0.8551 -1.0775  1.0441
   60MOL0     C 7984   5.197   7.226   6.961 -0.3861  0.2836 -0.5216
   60MOL0     C 7985   5.149   7.113   6.885  0.0314  0.7992 -0.2587
   60MOL0     C 7986   5.013   7.125   6.816 -0.5395 -0.5099 -0.2174
   60MOL0     C 7987   4.988   7.024   6.700  0.3946 -0.8322  0.0438
   60MOL0     C 7988   4.951   6.883   6.758  0.8267 -0.0453  0.0916
   60MOL0     O 7989   4.884   6.806   6.660  0.4419 -0.1454 -0.6393
   60MOL0     C 7990   4.747   6.831   6.660 -0.2887 -0.6884  0.4752
   60MOL0     C 7991   4.673   6.745   6.582  0.4953 -0.1422  0.0230
   60MOL0     C 7992   4.543   6.751   6.557  1.0374 -0.4527 -0.4333
   60MOL0     C 7993   4.489   6.655   6.457  0.1831 -0.7870 -0.5888
   60MOL0     C 7994   4.462   6.852   6.606  1.2396  0.0882 -0.1753
   60MOL0     C 7995   4.321   6.875   6.563  0.1792 -0.0704 -0.8262
   60MOL0     O 7996   4.242   6.933   6.653 -0.0058  0.1993 -0.9352
   60MOL0     C 7997   4.109   6.961   6.640 -0.1840 -0.1752 -0.1699
   60MOL0     C 7998   4.022   6.931   6.746  0.3010  0.1040 -0.0122
   60MOL0     C 7999   3.888   6.968   6.734 -0.0478 -0.4703  0.6020
   60MOL0     C 8000   3.846   7.052   6.624 -0.6273 -0.4009 -0.1008
   60MOL0     O 8001   3.716   7.080   6.626 -0.0067 -0.9286 -0.1527
   60MOL0     C 8002   3.645   7.129   6.750  0.5225 -0.8801  0.6045
   60MOL0     C 8003   3.705   7.256   6.810 -0.3816  0.0112 -0.4757
   60MOL0     C 8004   3.727   7.360   6.704  0.0001 -0.5920  0.5258
   60MOL0     C 8005   3.829   7.460   6.758  0.0541  0.4123 -0.5657
   60MOL0     C 8006   3.870   7.548   6.650 -0.3889 -0.0570 -0.2174
   60MOL0     C 8007   4.003   7.611   6.694 -0.2274  0.7116 -0.5300
   60MOL0     C 8008   4.067   7.717   6.603  0.6474  0.3717 -0.0730
   60MOL0     C 8009   4.090   7.849   6.680 -0.5268 -0.5763 -0.6650
   60MOL0    Cl 8010   4.120   7.989   6.580 -0.3954 -0.0384 -0.3063
   60MOL0     C 8011   3.941   7.091   6.533 -0.6424 -0.5970 -0.1899
   60MOL0     C 8012   4.071   7.040   6.538  0.1168 -0.0195 -0.3160
   60MOL0     O 8013   4.304   6.875   6.443 -1.3082  0.5530 -0.4508
   60MOL0     C 8014   4.530   6.951   6.677  0.1311  0.1786 -0.1685
   60MOL0     C 8015   4.674   6.939   6.708 -0.2475  0.8570 -0.0131
   60MOL0     N 8016   5.120   7.293   7.059  0.0075  0.0682  0.5170
   60MOL0     N 8017   5.191   7.378   7.119  0.1101  1.0279  0.6705
   60MOL0     C 8018   5.848   7.926   7.755  0.7883  0.2542  0.0880
   60MOL0     C 8019   5.864   7.936   7.899  1.3052 -0.3642  0.0805
   60MOL0     C 8020   5.911   8.006   8.337 -0.8701  0.5669  0.1192
   60MOL0     C 8021   6.031   8.053   8.381 -0.1340  0.3819 -1.1832
   60MOL0     C 8022   6.067   8.059   8.517  0.3722 -0.7953 -0.1237
   60MOL0     C 8023   5.983   8.000   8.611 -0.5344  0.1251  0.2463
   60MOL0     O 8024   6.035   8.000   8.736 -1.2259  0.5987  0.2276
   60MOL0     C 8025   5.938   7.978   8.844 -0.0646 -0.4555  0.9793
   60MOL0     C 8026   6.018   7.973   8.973 -0.2270  0.5593  0.1675
   60MOL0     C 8027   6.129   7.866   8.973  0.0087 -0.0462 -0.2232
   60MOL0     C 8028   6.193   7.854   9.107 -0.3569 -0.4728  0.0316
   60MOL0     C 8029   6.283   7.732   9.121 -0.1783  0.0532  1.4304
   60MOL0     C 8030   6.357   7.636   9.122 -0.4060  0.2267  0.2658
   60MOL0     C 8031   5.855   7.937   8.567 -0.2203  0.3618  0.9047
   60MOL0     C 8032   5.823   7.950   8.433  0.1915 -0.2441 -0.1581
   60MOL0     H 8033   6.144   8.101   7.938 -0.7631  1.2676 -0.0678
   60MOL0     H 8034   6.175   8.032   7.709  0.6368 -1.0940  0.5818
   60MOL0     H 8035   6.055   7.739   7.528 -0.2993  0.8289 -1.4135
   60MOL0     H 8036   5.885   7.726   7.556 -1.5656  1.4200 -1.5301
   60MOL0     H 8037   5.856   7.881   7.353  1.7318  1.9634  1.7805
   60MOL0     H 8038   6.026   7.821   7.316 -0.2968 -0.0140 -0.9645
   60MOL0     H 8039   5.947   7.631   7.223 -1.9187 -1.7761 -0.3352
   60MOL0     H 8040   5.821   7.616   7.355  0.7661 -0.6506  0.3278
   60MOL0     H 8041   5.686   7.781   7.246  1.1203  1.0471  0.8903
   60MOL0     H 8042   5.809   7.803   7.111 -0.4695  0.4589 -0.4305
   60MOL0     H 8043   5.648   7.667   7.033 -1.0075  0.3864  1.0139
   60MOL0     H 8044   5.786   7.560   7.049 -0.2363  0.3631  0.0057
   60MOL0     H 8045   5.738   7.458   7.234  0.8577 -0.8740 -0.9694
   60MOL0     H 8046   5.611   7.566   7.282 -1.7209 -1.4493 -0.2045
   60MOL0     H 8047   5.594   7.366   7.054  1.0425  1.2895 -1.5104
   60MOL0     H 8048   5.513   7.347   7.208 -0.4512  0.3579 -0.6785
   60MOL0     H 8049   5.425   7.557   6.995 -1.5491 -0.4346 -1.4610
   60MOL0     H 8050   5.399   7.555   7.165  2.1475  0.2918 -0.4696
   60MOL0     H 8051   5.408   7.262   6.898  0.1373 -2.2320  0.4661
   60MOL0     H 8052   5.219   7.083   6.807 -0.7533  0.5175 -0.8652
   60MOL0     H 8053   5.151   7.030   6.956 -3.2315  3.1733  3.0175
   60MOL0     H 8054   5.009   7.230   6.787  0.5787  0.4275  2.6538
   60MOL0     H 8055   4.929   7.114   6.886 -0.3891  1.4307  0.3357
   60MOL0     H 8056   5.077   7.010   6.639  2.0926 -5.1163  2.9938
   60MOL0     H 8057   4.905   7.063   6.640 -1.4817 -2.7601  1.2142
   60MOL0     H 8058   4.907   6.900   6.857 -0.6219  0.1263 -0.5604
   60MOL0     H 8059   5.035   6.816   6.781  3.7204  2.4688 -2.2770
   60MOL0     H 8060   4.733   6.661   6.549  2.4615  0.3553  2.0210
   60MOL0     H 8061   4.515   6.549   6.468 -4.4652 -2.0348  1.0575
   60MOL0     H 8062   4.382   6.648   6.480 -0.6829 -0.2269 -3.9416
   60MOL0     H 8063   4.500   6.703   6.360 -1.8042 -0.4288 -0.6774
   60MOL0     H 8064   4.049   6.865   6.828 -5.0741  0.5218  2.5116
   60MOL0     H 8065   3.813   6.934   6.804  0.2173 -1.2948  0.4977
   60MOL0     H 8066   3.542   7.155   6.722  0.6077 -1.6640 -0.4872
   60MOL0     H 8067   3.641   7.049   6.823 -0.6514 -1.5583 -0.1726
   60MOL0     H 8068   3.633   7.294   6.883 -1.3247 -1.6441 -0.4757
   60MOL0     H 8069   3.802   7.244   6.858  0.2280  3.0606 -0.7855
   60MOL0     H 8070   3.636   7.416   6.682 -0.6291 -2.5904 -2.5066
   60MOL0     H 8071   3.753   7.322   6.604  1.2807 -0.2254  0.6957
   60MOL0     H 8072   3.790   7.522   6.839 -0.9684 -1.0124  0.0804
   60MOL0     H 8073   3.917   7.407   6.799  1.6271  1.5052 -2.3678
   60MOL0     H 8074   3.799   7.631   6.641  1.9698  2.0982 -0.0588
   60MOL0     H 8075   3.886   7.495   6.556  2.6529  4.5266 -2.6087
   60MOL0     H 8076   3.989   7.655   6.793 -1.1589  0.4513 -0.5369
   60MOL0     H 8077   4.077   7.530   6.696 -1.4931 -0.4858 -0.5085
   60MOL0     H 8078   4.003   7.746   6.518 -1.3573  1.6579  1.7522
   60MOL0     H 8079   4.164   7.679   6.571 -0.3253 -0.7624 -1.8054
   60MOL0     H 8080   4.166   7.831   6.756 -1.7195 -1.1351  0.4406
   60MOL0     H 8081   3.995   7.870   6.730 -0.2300  1.7606 -0.9955
   60MOL0     H 8082   3.911   7.173   6.468  1.4554  2.3505  2.3155
   60MOL0     H 8083   4.134   7.074   6.457 -0.3898 -2.3176 -1.8005
   60MOL0     H 8084   4.480   7.045   6.696  1.1439  0.8514 -0.7450
   60MOL0     H 8085   4.721   7.018   6.766  0.0506  0.7238 -0.0695
   60MOL0     H 8086   5.767   7.879   7.702  1.7338 -0.0498 -1.1180
   60MOL0     H 8087   5.786   7.902   7.966 -0.9598  1.8284 -1.2498
   60MOL0     H 8088   6.085   8.115   8.310  3.9786 -0.5762  0.8202
   60MOL0     H 8089   6.155   8.111   8.554 -0.2650  0.1554  0.1226
   60MOL0     H 8090   5.862   8.055   8.862  0.1021 -0.6434  2.6221
   60MOL0     H 8091   5.887   7.882   8.827  1.0562 -0.4282 -4.3140
   60MOL0     H 8092   5.963   7.964   9.067  1.6548 -4.7666  1.1221
   60MOL0     H 8093   6.056   8.075   8.979 -0.6350  0.8005 -1.1380
   60MOL0     H 8094   6.198   7.881   8.889 -0.0515 -1.6718 -0.5989
   60MOL0     H 8095   6.077   7.770   8.958 -0.7650  0.2097  0.7107
   60MOL0     H 8096   6.112   7.832   9.177 -0.7335 -0.5446 -0.4204
   60MOL0     H 8097   6.238   7.951   9.131  0.3605 -0.6428 -0.5727
   60MOL0     H 8098   6.422   7.551   9.109  1.7892  2.0925 -1.8429
   60MOL0     H 8099   5.792   7.889   8.641  0.3555 -1.4339  0.2783
   60MOL0     H 8100   5.727   7.906   8.408  0.9243 -1.6338 -0.6029
   61MOL0     O 8101   2.131  10.331   8.488  0.2758  0.0027  0.0275
   61MOL0     C 8102   2.085  10.272   8.397 -0.1885 -0.0892  0.5865
   61MOL0     O 8103   2.008  10.163   8.393  0.2951 -0.2969 -0.2521
   61MOL0     C 8104   1.988  10.104   8.517  0.1966 -0.5185  0.3123
   61MOL0     C 8105   2.074  10.015   8.564 -1.1376 -0.3592 -1.1137
   61MOL0     C 8106   2.053   9.955   8.689 -0.6361  0.6052 -0.2878
   61MOL0     C 8107   1.952   9.977   8.768  0.1535  0.3179 -0.2117
   61MOL0     O 8108   1.945   9.908   8.889 -1.0574 -0.0864  0.5481
   61MOL0     C 8109   1.831   9.904   8.961 -0.2741 -0.3702 -0.3517
   61MOL0     C 8110   1.873   9.867   9.103 -0.5729 -0.4162 -0.3328
   61MOL0     C 8111   1.756   9.866   9.215 -0.1383 -0.3596 -0.3172
   61MOL0     C 8112   1.633   9.789   9.182  0.5806  0.6221 -0.3029
   61MOL0     C 8113   1.663   9.638   9.160 -0.0049  0.5572 -0.5635
   61MOL0     C 8114   1.755   9.559   9.257 -0.4624 -0.1320 -0.2689
   61MOL0     C 8115   1.687   9.556   9.400  0.6829 -0.2040  0.2141
   61MOL0     C 8116   1.770   9.469   9.497 -0.2018 -0.6573 -0.7149
   61MOL0     N 8117   1.916   9.488   9.505 -0.1554  0.2674  0.3515
   61MOL0     C 8118   1.997   9.434   9.414 -0.3385  0.0748 -0.5107
   61MOL0     C 8119   2.126   9.460   9.453 -0.0429 -0.7429  0.6062
   61MOL0     C 8120   2.248   9.435   9.369  0.2104  0.2570 -0.0796
   61MOL0     C 8121   2.328   9.557   9.325  0.0476  0.3023  0.1033
   61MOL0     C 8122   2.247   9.649   9.224  0.1084 -0.9140  0.2082
   61MOL0     C 8123   2.204   9.582   9.090  0.5566 -0.5441  0.3274
   61MOL0     O 8124   2.318   9.571   9.010  0.4482 -0.5298  0.1415
   61MOL0     C 8125   2.305   9.530   8.880 -1.2715 -0.2891  0.3753
   61MOL0     C 8126   2.210   9.574   8.802 -0.0289  0.8747  0.0954
   61MOL0     C 8127   2.193   9.520   8.678  0.4333 -0.3174 -0.7639
   61MOL0     C 8128   2.072   9.563   8.599  0.0528 -0.2543 -0.1922
   61MOL0     C 8129   2.275   9.418   8.630 -0.0343 -0.3601  0.1556
   61MOL0     C 8130   2.264   9.354   8.497 -0.1241  1.0054  0.5038
   61MOL0     O 8131   2.325   9.231   8.486 -0.4185 -0.2061  0.3012
   61MOL0     C 8132   2.331   9.136   8.383  0.7904 -0.3257  0.2545
   61MOL0     C 8133   2.294   9.151   8.245 -0.0853  0.4656  0.0895
   61MOL0     C 8134   2.336   9.052   8.156 -0.2607  0.9233  0.2602
   61MOL0     C 8135   2.421   8.942   8.203  1.6960  0.0460  0.2502
   61MOL0     O 8136   2.461   8.831   8.120  0.0380 -0.9649  0.1910
   61MOL0     C 8137   2.389   8.818   7.999  0.4312  0.3325 -1.3989
   61MOL0     C 8138   2.424   8.674   7.946 -0.7565  0.4857 -1.2619
   61MOL0     C 8139   2.335   8.623   7.842 -0.3310 -0.7862 -0.4806
   61MOL0     C 8140   2.334   8.469   7.846  0.4455 -0.0502  0.3616
   61MOL0     C 8141   2.225   8.418   7.744 -0.0772 -0.1234 -1.0896
   61MOL0     C 8142   2.079   8.420   7.798 -0.2090  0.1307  0.2695
   61MOL0     C 8143   1.965   8.410   7.696  0.5854 -0.2961  0.1754
   61MOL0     C 8144   1.969   8.273   7.607 -0.0907  0.3476  0.5372
   61MOL0    Cl 8145   2.028   8.132   7.710  0.1474 -0.3122  0.0913
   61MOL0     C 8146   2.433   8.924   8.333 -0.3277  0.0964 -0.9153
   61MOL0     C 8147   2.401   9.023   8.427  0.2789  1.0822  0.5041
   61MOL0     O 8148   2.248   9.425   8.401  0.4140  0.6605 -0.1509
   61MOL0     C 8149   2.381   9.381   8.711 -0.2341 -0.0944  0.1765
   61MOL0     C 8150   2.394   9.438   8.832  0.1573 -0.0883 -0.3233
   61MOL0     N 8151   2.123   9.541   9.567  0.9314  0.5734  0.8389
   61MOL0     N 8152   1.987   9.560   9.600 -0.7076 -0.2469  0.1721
   61MOL0     C 8153   1.863  10.074   8.722  0.6337  0.0937  0.3513
   61MOL0     C 8154   1.878  10.133   8.593 -0.1991  0.5349 -0.8077
   61MOL0     C 8155   2.115  10.321   8.270 -0.7828  0.6634 -0.3556
   61MOL0     C 8156   2.179  10.444   8.261  0.2344 -1.0296  0.8044
   61MOL0     C 8157   2.206  10.503   8.131  0.8620  1.1405 -0.4172
   61MOL0     C 8158   2.186  10.436   8.008 -0.1829  0.3441 -0.0153
   61MOL0     O 8159   2.236  10.496   7.889  0.4507 -0.3163 -0.1394
   61MOL0     C 8160   2.225  10.444   7.758  0.0123  0.2397  0.0117
   61MOL0     C 8161   2.338  10.341   7.721 -0.0931 -0.9542 -0.3368
   61MOL0     C 8162   2.468  10.431   7.729  0.0671  0.5313  0.2523
   61MOL0     C 8163   2.472  10.527   7.613  0.2947 -0.3486  0.1749
   61MOL0     C 8164   2.589  10.610   7.629 -0.4994 -0.7790 -0.0145
   61MOL0     C 8165   2.691  10.669   7.658  0.1022  0.4466  0.0621
   61MOL0     C 8166   2.124  10.313   8.022  0.4110 -0.6348 -0.1939
   61MOL0     C 8167   2.090  10.254   8.148 -0.6321  0.2539  0.0234
   61MOL0     H 8168   2.165   9.984   8.515 -1.1928 -0.0232 -1.4323
   61MOL0     H 8169   2.129   9.880   8.710 -1.8200 -0.3054  0.9170
   61MOL0     H 8170   1.779   9.999   8.967  1.4043  0.6890 -1.6338
   61MOL0     H 8171   1.767   9.828   8.916  1.4591 -0.3986 -2.9917
   61MOL0     H 8172   1.918   9.767   9.097 -1.8577 -0.9906 -0.9136
   61MOL0     H 8173   1.955   9.925   9.144  0.3107 -1.5976 -0.3694
   61MOL0     H 8174   1.784   9.825   9.312  2.7144 -1.8659 -1.6626
   61MOL0     H 8175   1.747   9.974   9.224  3.7508  0.0689 -0.1704
   61MOL0     H 8176   1.571   9.789   9.272 -0.9392  0.4815 -1.3118
   61MOL0     H 8177   1.573   9.825   9.098 -0.0089 -2.0698 -1.1350
   61MOL0     H 8178   1.562   9.596   9.160  0.1215  0.2483 -0.5466
   61MOL0     H 8179   1.712   9.625   9.063  2.0624  0.2179  0.4694
   61MOL0     H 8180   1.749   9.458   9.217 -1.0621 -0.5010  0.7339
   61MOL0     H 8181   1.854   9.605   9.255  0.0620 -1.2427 -1.9071
   61MOL0     H 8182   1.689   9.655   9.446 -0.2929  0.5841 -1.3659
   61MOL0     H 8183   1.580   9.537   9.398  0.5595  0.3884  0.8197
   61MOL0     H 8184   1.748   9.366   9.468 -3.8232 -1.1134  2.7507
   61MOL0     H 8185   1.739   9.492   9.600  2.3344  3.2079 -0.6231
   61MOL0     H 8186   1.968   9.384   9.322 -1.9513  3.3202 -1.9527
   61MOL0     H 8187   2.296   9.373   9.445 -0.4625 -0.6027 -0.3394
   61MOL0     H 8188   2.217   9.378   9.281 -1.0977 -3.1392  2.3749
   61MOL0     H 8189   2.425   9.522   9.288 -0.3575 -2.3538  1.3067
   61MOL0     H 8190   2.355   9.617   9.413 -4.8862  0.5079  1.7710
   61MOL0     H 8191   2.305   9.741   9.210  0.5282 -0.9484  1.6001
   61MOL0     H 8192   2.154   9.679   9.273 -0.4115 -2.4328  0.2023
   61MOL0     H 8193   2.129   9.647   9.044 -1.9170 -3.5131 -0.1742
   61MOL0     H 8194   2.159   9.483   9.104  1.8597 -0.8804  2.8481
   61MOL0     H 8195   2.132   9.640   8.838  0.6111  1.7476 -0.1038
   61MOL0     H 8196   2.117   9.600   8.506  1.3782  0.1135  0.5653
   61MOL0     H 8197   1.998   9.483   8.602  1.7799 -1.8968  0.1371
   61MOL0     H 8198   2.039   9.659   8.641  2.1996  0.6679 -0.4900
   61MOL0     H 8199   2.268   9.253   8.216  2.3896  1.3364  0.6195
   61MOL0     H 8200   2.313   9.055   8.049 -0.1034  1.3886  0.2373
   61MOL0     H 8201   2.288   8.806   8.038  0.6541 -2.3670 -1.4571
   61MOL0     H 8202   2.397   8.902   7.929  1.6613  1.6821  0.2982
   61MOL0     H 8203   2.532   8.671   7.926 -0.9989  1.1601 -2.8135
   61MOL0     H 8204   2.406   8.616   8.037 -1.5054  1.3244 -0.8496
   61MOL0     H 8205   2.364   8.653   7.741  3.4148  1.0148  0.9638
   61MOL0     H 8206   2.230   8.650   7.857 -0.5307 -0.4281 -2.2113
   61MOL0     H 8207   2.429   8.430   7.809 -0.1919 -1.1372 -0.1557
   61MOL0     H 8208   2.299   8.425   7.940 -2.1277 -4.6463 -2.3812
   61MOL0     H 8209   2.244   8.312   7.725 -3.8059 -1.0124 -0.5751
   61MOL0     H 8210   2.239   8.474   7.651 -2.4017 -0.2775 -1.5953
   61MOL0     H 8211   2.079   8.343   7.876  1.7011  0.5062  0.6945
   61MOL0     H 8212   2.056   8.507   7.860  1.3452  3.9001 -3.9299
   61MOL0     H 8213   1.990   8.497   7.634  0.0457 -1.1391 -1.2538
   61MOL0     H 8214   1.870   8.422   7.749  0.8758  0.2814  0.5860
   61MOL0     H 8215   2.037   8.284   7.522 -2.4022  1.0110 -1.3295
   61MOL0     H 8216   1.875   8.248   7.558  0.7956  3.5726 -3.3337
   61MOL0     H 8217   2.494   8.842   8.371  2.2440  1.5241 -1.7043
   61MOL0     H 8218   2.453   9.024   8.522  0.3586  4.4073  0.5569
   61MOL0     H 8219   2.468   9.319   8.692  0.5327 -0.1566  3.3439
   61MOL0     H 8220   2.477   9.414   8.898 -0.0585  0.3015  0.0971
   61MOL0     H 8221   1.778  10.121   8.770 -0.5702  0.2358 -1.7692
   61MOL0     H 8222   1.818  10.222   8.579 -0.0098  1.6756  3.9517
   61MOL0     H 8223   2.203  10.506   8.347  0.9495  0.2278 -0.2731
   61MOL0     H 8224   2.261  10.596   8.125  0.6585  1.2453 -0.6583
   61MOL0     H 8225   2.131  10.389   7.745  0.1704  0.2194 -1.1883
   61MOL0     H 8226   2.219  10.532   7.693  1.4325  1.0434  0.9242
   61MOL0     H 8227   2.328  10.292   7.624  0.1182 -0.8037 -0.4340
   61MOL0     H 8228   2.345  10.265   7.800  3.3218  0.9808  1.4255
   61MOL0     H 8229   2.554  10.363   7.730 -0.4926 -0.1996  1.9381
   61MOL0     H 8230   2.484  10.489   7.820  0.3103  0.8501  0.0103
   61MOL0     H 8231   2.387  10.596   7.614 -0.6644 -1.4498 -1.3732
   61MOL0     H 8232   2.476  10.485   7.512 -1.6738 -2.4019  0.8672
   61MOL0     H 8233   2.792  10.704   7.665  1.4126 -2.6327 -1.4311
   61MOL0     H 8234   2.107  10.257   7.931 -1.6892  2.3136 -1.7865
   61MOL0     H 8235   2.039  10.158   8.143 -0.3276  0.1110 -0.3888
   62MOL0     O 8236   4.053   4.638   4.048  0.2384 -0.1143  0.1479
   62MOL0     C 8237   4.071   4.742   3.980 -1.2306  0.1264  0.7529
   62MOL0     O 8238   4.163   4.842   4.013 -0.1328 -0.0197 -0.1782
   62MOL0     C 8239   4.266   4.829   4.095 -0.3537 -0.6658  0.3607
   62MOL0     C 8240   4.313   4.956   4.139 -1.3905 -0.4032  0.0973
   62MOL0     C 8241   4.420   4.968   4.229  0.3429  0.6602  0.1706
   62MOL0     C 8242   4.485   4.859   4.268  0.8401  0.7730  0.7887
   62MOL0     O 8243   4.560   4.854   4.377 -0.6409  0.3284 -0.3984
   62MOL0     C 8244   4.594   4.967   4.454 -0.2756  1.3052  0.3084
   62MOL0     C 8245   4.475   4.991   4.560  0.2231  0.3440 -0.2219
   62MOL0     C 8246   4.486   4.893   4.681  0.1121  0.0152 -0.0424
   62MOL0     C 8247   4.375   4.924   4.788  0.5393  0.6931  0.0858
   62MOL0     C 8248   4.347   4.784   4.849  0.2054  0.4430  0.3626
   62MOL0     C 8249   4.451   4.747   4.951 -0.3529  0.1114  0.7536
   62MOL0     C 8250   4.426   4.612   5.016 -0.5430 -0.6752  0.1278
   62MOL0     C 8251   4.450   4.494   4.925  0.2493  0.3808  0.7908
   62MOL0     N 8252   4.419   4.366   4.999 -0.0103 -0.7200  0.1400
   62MOL0     C 8253   4.476   4.331   5.119 -0.6587 -0.3254  0.1218
   62MOL0     C 8254   4.430   4.201   5.131 -0.0290  0.9156 -0.0982
   62MOL0     C 8255   4.469   4.108   5.235 -0.2176  0.7090 -0.6067
   62MOL0     C 8256   4.434   4.151   5.383  0.1295 -0.9794 -0.1303
   62MOL0     C 8257   4.483   4.054   5.479  0.1804  0.7678  0.2204
   62MOL0     C 8258   4.392   3.937   5.505 -0.2742  0.0752  0.0017
   62MOL0     O 8259   4.447   3.841   5.590 -0.9381  0.0691  0.1285
   62MOL0     C 8260   4.464   3.874   5.720  0.3903  0.0313 -0.6497
   62MOL0     C 8261   4.404   3.989   5.783 -0.9918 -0.7161  0.4989
   62MOL0     C 8262   4.435   4.031   5.913  0.1385 -0.1875  0.2436
   62MOL0     C 8263   4.356   4.144   5.962 -0.2098  0.5024 -0.3240
   62MOL0     C 8264   4.519   3.950   5.993 -0.1365  1.2910 -0.8691
   62MOL0     C 8265   4.556   3.961   6.133  1.2521  0.1099 -0.0843
   62MOL0     O 8266   4.657   3.893   6.188 -1.0175 -0.2501  0.2947
   62MOL0     C 8267   4.686   3.885   6.322 -0.8408  0.0600  1.6175
   62MOL0     C 8268   4.749   3.998   6.381 -0.3275 -0.3290  0.7158
   62MOL0     C 8269   4.805   3.997   6.508 -0.2244  1.0990 -0.4568
   62MOL0     C 8270   4.801   3.889   6.590  0.2993  0.4306  1.0815
   62MOL0     O 8271   4.857   3.879   6.715  0.6387 -0.1094 -0.5152
   62MOL0     C 8272   4.934   3.990   6.770 -0.1253  0.1219  0.5106
   62MOL0     C 8273   5.011   3.939   6.885 -0.6910 -0.1016  0.0698
   62MOL0     C 8274   4.941   3.892   7.017  0.1735 -0.6633 -0.0071
   62MOL0     C 8275   5.044   3.899   7.139  0.2650 -0.0003 -0.3576
   62MOL0     C 8276   4.978   3.879   7.274 -0.2445 -0.6534  0.6054
   62MOL0     C 8277   4.906   3.744   7.293 -0.0645 -0.5019 -1.3288
   62MOL0     C 8278   4.851   3.739   7.441 -0.7003  0.0920  0.2952
   62MOL0     C 8279   4.723   3.828   7.451 -0.0107  0.9626  0.0597
   62MOL0    Cl 8280   4.720   3.891   7.616 -0.2086 -0.2801 -0.3220
   62MOL0     C 8281   4.738   3.779   6.538 -0.0515  0.1453 -0.0838
   62MOL0     C 8282   4.679   3.774   6.408  0.4034 -0.7304  0.2894
   62MOL0     O 8283   4.462   4.014   6.202 -0.1539 -0.1558 -0.4235
   62MOL0     C 8284   4.582   3.844   5.931 -0.0781  1.1036 -0.8305
   62MOL0     C 8285   4.555   3.813   5.797 -0.5219  0.3122 -0.1099
   62MOL0     N 8286   4.331   4.182   5.038  0.1557  0.1589  0.6020
   62MOL0     N 8287   4.332   4.280   4.957  0.1833  0.3528  0.2785
   62MOL0     C 8288   4.442   4.733   4.215  0.1600  0.3564 -0.2889
   62MOL0     C 8289   4.329   4.719   4.133  0.6896 -0.7337 -0.0226
   62MOL0     C 8290   4.000   4.765   3.856  0.0106  0.2122  0.1217
   62MOL0     C 8291   4.033   4.873   3.771  0.1511 -0.4614  0.1010
   62MOL0     C 8292   3.958   4.877   3.644 -1.4033  0.1403  1.0474
   62MOL0     C 8293   3.862   4.791   3.604  0.6586 -0.0985  0.3937
   62MOL0     O 8294   3.792   4.811   3.486  0.2700  0.2747  0.0692
   62MOL0     C 8295   3.782   4.938   3.424  0.1768 -0.4364 -1.3899
   62MOL0     C 8296   3.889   4.960   3.322 -0.1100 -0.7070 -0.2947
   62MOL0     C 8297   3.908   4.843   3.223 -0.4911 -0.3424 -1.0885
   62MOL0     C 8298   3.788   4.840   3.131  0.1284  0.4133 -0.3245
   62MOL0     C 8299   3.781   4.944   3.032 -1.2818  0.3164  0.0931
   62MOL0     C 8300   3.769   5.021   2.945  0.0570  0.7316  0.6191
   62MOL0     C 8301   3.833   4.685   3.684  0.3386  0.1947 -0.2860
   62MOL0     C 8302   3.898   4.670   3.805 -0.0905 -0.5491 -0.5165
   62MOL0     H 8303   4.259   5.049   4.123 -1.3740 -0.2623  0.8015
   62MOL0     H 8304   4.436   5.060   4.284  0.7406  1.1655 -0.7651
   62MOL0     H 8305   4.690   4.955   4.503 -0.5450 -2.7481  0.1904
   62MOL0     H 8306   4.613   5.047   4.381  1.9535 -3.0537 -4.5566
   62MOL0     H 8307   4.478   5.083   4.618 -4.6649  1.1180 -0.6994
   62MOL0     H 8308   4.377   4.993   4.511 -0.4557 -1.7765  0.8926
   62MOL0     H 8309   4.475   4.791   4.643  0.8133 -0.3003  0.5625
   62MOL0     H 8310   4.582   4.900   4.734  0.9475  0.4246 -1.5586
   62MOL0     H 8311   4.407   4.997   4.863  1.7398  0.6364 -0.3569
   62MOL0     H 8312   4.284   4.959   4.739  1.6142  1.7665 -1.2228
   62MOL0     H 8313   4.249   4.804   4.894 -0.9161  3.4489 -2.9526
   62MOL0     H 8314   4.335   4.704   4.775 -0.4534  1.7341 -0.9771
   62MOL0     H 8315   4.548   4.754   4.902  0.1814 -0.5654  1.6753
   62MOL0     H 8316   4.444   4.824   5.029  0.8703  0.4168  0.5801
   62MOL0     H 8317   4.493   4.591   5.100 -0.9825 -0.7613  0.4638
   62MOL0     H 8318   4.325   4.608   5.060  0.0114  0.4079  1.5675
   62MOL0     H 8319   4.549   4.516   4.883 -0.6549  2.0050 -0.6223
   62MOL0     H 8320   4.383   4.498   4.838 -0.1004  2.3584  1.1000
   62MOL0     H 8321   4.554   4.375   5.180  2.0736 -2.4866 -1.5853
   62MOL0     H 8322   4.438   4.006   5.213  0.5228  0.1859  0.6641
   62MOL0     H 8323   4.578   4.109   5.240 -0.2072 -0.3983  3.9581
   62MOL0     H 8324   4.325   4.153   5.391  0.1337 -0.5501 -0.1871
   62MOL0     H 8325   4.481   4.247   5.406 -0.0108 -1.1777  1.0719
   62MOL0     H 8326   4.491   4.118   5.568  0.1493  0.9130  0.1197
   62MOL0     H 8327   4.583   4.020   5.450  1.1517  1.1270  2.8434
   62MOL0     H 8328   4.370   3.882   5.413 -1.7341 -3.6416  2.3146
   62MOL0     H 8329   4.296   3.978   5.538 -0.1559  1.4526 -1.2766
   62MOL0     H 8330   4.337   4.049   5.723  1.9063  1.6453 -0.6087
   62MOL0     H 8331   4.337   4.218   5.884  0.4537  2.4927  1.3362
   62MOL0     H 8332   4.264   4.111   6.011  0.6817 -4.1751 -1.3365
   62MOL0     H 8333   4.423   4.191   6.034  3.0114 -2.9209 -0.7895
   62MOL0     H 8334   4.754   4.089   6.321 -1.0761 -0.7620 -0.0115
   62MOL0     H 8335   4.853   4.090   6.537  0.4088  1.2574 -1.9199
   62MOL0     H 8336   4.994   4.041   6.693 -1.3440 -1.8846 -1.9382
   62MOL0     H 8337   4.867   4.068   6.807  1.2644  3.0049 -2.4927
   62MOL0     H 8338   5.064   3.852   6.845 -1.7400 -1.4846  1.5260
   62MOL0     H 8339   5.085   4.016   6.911 -2.1372  0.7803  1.8621
   62MOL0     H 8340   4.887   3.797   7.024  0.3154 -0.7049  0.5639
   62MOL0     H 8341   4.862   3.966   7.032  0.6993 -0.4984  2.4330
   62MOL0     H 8342   5.105   3.808   7.136 -1.3622 -1.5779  4.3392
   62MOL0     H 8343   5.097   3.993   7.148  0.5461  0.0242 -1.9915
   62MOL0     H 8344   4.904   3.960   7.272  1.3301  0.8617  1.1125
   62MOL0     H 8345   5.049   3.896   7.356  0.8009  2.4950 -0.8161
   62MOL0     H 8346   4.826   3.742   7.219  0.4239  1.5435 -1.9663
   62MOL0     H 8347   4.984   3.668   7.285  1.6106  0.7121  1.7796
   62MOL0     H 8348   4.929   3.763   7.514  1.8883 -1.5835 -1.7373
   62MOL0     H 8349   4.822   3.635   7.458 -2.1088  0.6037  1.1817
   62MOL0     H 8350   4.631   3.773   7.429 -0.0780  0.9372  0.4001
   62MOL0     H 8351   4.720   3.910   7.378 -2.6091  0.4903 -0.4562
   62MOL0     H 8352   4.724   3.689   6.597  2.0487  0.1885  0.5466
   62MOL0     H 8353   4.626   3.688   6.368 -2.8584  2.1467 -2.1374
   62MOL0     H 8354   4.651   3.780   5.986  0.3093  3.4787  1.6026
   62MOL0     H 8355   4.611   3.743   5.736  3.9078  1.3394  2.3293
   62MOL0     H 8356   4.504   4.651   4.249  2.6570  1.5142 -1.7584
   62MOL0     H 8357   4.287   4.627   4.092 -0.9507 -0.8882  1.8467
   62MOL0     H 8358   4.109   4.943   3.807  0.1785 -1.0344  1.1933
   62MOL0     H 8359   3.990   4.956   3.576 -4.8611  1.5261  0.8083
   62MOL0     H 8360   3.679   4.939   3.388 -0.8566 -1.7058  1.2762
   62MOL0     H 8361   3.791   5.012   3.505 -0.9136  0.6794 -2.2398
   62MOL0     H 8362   3.981   4.982   3.377 -2.5801 -0.1528  4.0531
   62MOL0     H 8363   3.864   5.052   3.269 -1.1453 -0.9931 -0.3190
   62MOL0     H 8364   3.920   4.749   3.277 -0.8060  0.4003  0.3220
   62MOL0     H 8365   4.003   4.862   3.170  2.2510  0.0219  3.4333
   62MOL0     H 8366   3.696   4.821   3.186  0.1646  0.7189 -0.1545
   62MOL0     H 8367   3.799   4.747   3.076 -0.5324 -0.8439  1.5809
   62MOL0     H 8368   3.774   5.099   2.871 -1.8902  0.1473 -0.1954
   62MOL0     H 8369   3.751   4.618   3.662 -0.4349  1.1704 -0.4392
   62MOL0     H 8370   3.868   4.584   3.865 -0.2570 -1.1465 -1.4460
   63MOL0     O 8371   6.528   1.937   5.254 -1.0364  0.0906 -0.4135
   63MOL0     C 8372   6.478   2.050   5.247  0.7751  0.1962  0.9193
   63MOL0     O 8373   6.546   2.165   5.250  0.0396 -0.2586 -0.9832
   63MOL0     C 8374   6.683   2.192   5.242  0.6929  0.9680  0.3590
   63MOL0     C 8375   6.769   2.097   5.183  0.4809  0.7008 -0.4633
   63MOL0     C 8376   6.902   2.127   5.163 -0.1566 -0.1779  0.7454
   63MOL0     C 8377   6.956   2.252   5.195  0.4095  0.0991  0.3518
   63MOL0     O 8378   7.095   2.264   5.198 -0.1049 -0.2125 -0.1193
   63MOL0     C 8379   7.146   2.310   5.076  0.4798  0.0888  0.0319
   63MOL0     C 8380   7.293   2.311   5.081  0.0891 -0.0254 -0.6945
   63MOL0     C 8381   7.358   2.442   5.152  0.8512  0.0879 -0.5303
   63MOL0     C 8382   7.513   2.451   5.175  0.7318 -0.9430 -0.4825
   63MOL0     C 8383   7.598   2.480   5.059  0.1536  0.8680 -0.0503
   63MOL0     C 8384   7.607   2.626   5.015  0.7944  0.0751 -0.2324
   63MOL0     C 8385   7.708   2.654   4.898 -0.2885  0.1674 -0.7455
   63MOL0     C 8386   7.857   2.664   4.926  0.1272 -0.9817 -0.1676
   63MOL0     N 8387   7.899   2.771   5.014  0.0334  0.3164  0.1186
   63MOL0     C 8388   7.899   2.763   5.153  0.3261 -0.8328  0.8009
   63MOL0     C 8389   7.931   2.882   5.207  0.0223 -0.3614  0.4097
   63MOL0     C 8390   7.972   2.912   5.352  0.4156 -0.3762 -0.2534
   63MOL0     C 8391   8.101   2.989   5.366  0.0975  0.1234 -0.0771
   63MOL0     C 8392   8.161   2.986   5.505 -1.0490  0.0097 -0.9819
   63MOL0     C 8393   8.294   3.065   5.507 -0.0480 -0.0510  0.2791
   63MOL0     O 8394   8.363   3.042   5.635  0.5923  0.8633 -0.8164
   63MOL0     C 8395   8.465   3.127   5.674 -0.2731  0.5433  0.6330
   63MOL0     C 8396   8.523   3.086   5.790 -0.3334  0.1295  0.7428
   63MOL0     C 8397   8.636   3.156   5.833 -1.1039 -0.0747  0.2233
   63MOL0     C 8398   8.691   3.110   5.963 -0.2087  0.5561 -0.1222
   63MOL0     C 8399   8.691   3.264   5.762  0.1013  0.1236 -0.4110
   63MOL0     C 8400   8.803   3.351   5.816  0.4104 -0.3279  0.0873
   63MOL0     O 8401   8.813   3.362   5.950  0.1505 -0.7032 -0.0600
   63MOL0     C 8402   8.915   3.436   5.999  1.0030 -0.3476  0.3524
   63MOL0     C 8403   9.017   3.356   6.053  0.5512 -0.8630 -0.9728
   63MOL0     C 8404   9.127   3.421   6.116 -0.6435  0.4486  0.4325
   63MOL0     C 8405   9.141   3.562   6.110  0.1635  0.0978  1.1893
   63MOL0     O 8406   9.246   3.642   6.153 -0.4055  0.8285 -0.2044
   63MOL0     C 8407   9.366   3.566   6.190 -0.1604  0.2958  0.5507
   63MOL0     C 8408   9.496   3.654   6.216  0.5588  0.6129  0.2494
   63MOL0     C 8409   9.600   3.652   6.110 -0.0703  0.1226  0.5604
   63MOL0     C 8410   9.551   3.710   5.973  0.5233  0.8622 -1.1004
   63MOL0     C 8411   9.635   3.702   5.841  0.7337  1.3999  0.3635
   63MOL0     C 8412   9.691   3.563   5.809 -0.1286  0.3136 -0.8421
   63MOL0     C 8413   9.804   3.555   5.703 -0.1959 -0.8858 -0.3693
   63MOL0     C 8414   9.838   3.411   5.670  0.0362  0.4624 -0.4702
   63MOL0    Cl 8415   9.718   3.341   5.556  0.2781  0.6030 -0.4907
   63MOL0     C 8416   9.036   3.634   6.049  0.3227  0.3482  0.4562
   63MOL0     C 8417   8.923   3.575   5.994 -0.5930 -0.2460 -0.3385
   63MOL0     O 8418   8.881   3.400   5.734 -0.1839  0.0335 -0.1029
   63MOL0     C 8419   8.636   3.296   5.640  0.5815 -0.3860  0.9172
   63MOL0     C 8420   8.524   3.236   5.600 -0.4749  1.0728 -0.2657
   63MOL0     N 8421   7.938   2.965   5.098 -0.4684 -0.0494  0.2936
   63MOL0     N 8422   7.917   2.898   4.984 -0.0171 -0.9439 -0.1529
   63MOL0     C 8423   6.866   2.351   5.247 -0.7786  0.4791  0.0136
   63MOL0     C 8424   6.735   2.315   5.276 -0.0717  0.6941 -0.9167
   63MOL0     C 8425   6.322   2.068   5.236 -0.1776 -0.9255 -0.9228
   63MOL0     C 8426   6.242   1.954   5.238  0.4736 -1.2448 -0.2392
   63MOL0     C 8427   6.101   1.978   5.227  0.4856 -0.1534  0.3890
   63MOL0     C 8428   6.047   2.107   5.228  0.0590  0.5061  0.3154
   63MOL0     O 8429   5.911   2.129   5.242 -0.0493 -0.2692 -0.5113
   63MOL0     C 8430   5.815   2.030   5.197  0.0254 -0.3300 -0.0391
   63MOL0     C 8431   5.670   2.084   5.227  0.7355 -0.6115  0.1509
   63MOL0     C 8432   5.577   1.973   5.204  0.3846  0.5385  0.0950
   63MOL0     C 8433   5.559   1.871   5.314  0.1976  0.4537 -0.2224
   63MOL0     C 8434   5.465   1.764   5.283  0.0618 -0.5614  0.0595
   63MOL0     C 8435   5.379   1.687   5.254  0.2801  0.6323 -0.2259
   63MOL0     C 8436   6.129   2.217   5.224  0.5846 -0.8354 -0.6131
   63MOL0     C 8437   6.268   2.204   5.228  0.5809  0.9156 -0.2494
   63MOL0     H 8438   6.734   1.997   5.158  1.4762 -0.7319  3.1705
   63MOL0     H 8439   6.976   2.060   5.121  0.4908  1.5132 -0.9262
   63MOL0     H 8440   7.104   2.257   4.990  2.6393 -3.8676  1.1467
   63MOL0     H 8441   7.106   2.411   5.064  0.1615 -0.0688 -0.2460
   63MOL0     H 8442   7.321   2.218   5.129 -2.2613 -0.8360 -0.7399
   63MOL0     H 8443   7.342   2.315   4.983  2.6692 -2.8269  0.3586
   63MOL0     H 8444   7.330   2.531   5.095 -1.3492 -1.6931 -2.4167
   63MOL0     H 8445   7.315   2.441   5.252 -0.5511  1.0331 -1.0940
   63MOL0     H 8446   7.530   2.523   5.255 -0.8969  0.9262 -1.7459
   63MOL0     H 8447   7.538   2.354   5.220  0.7330 -0.8123 -0.2047
   63MOL0     H 8448   7.697   2.438   5.076 -0.4196 -0.4359  0.1933
   63MOL0     H 8449   7.557   2.416   4.980  1.1939  0.7307 -0.4923
   63MOL0     H 8450   7.505   2.663   5.004  1.3626  2.2062  1.2541
   63MOL0     H 8451   7.639   2.681   5.103  0.8778  2.3355 -1.6001
   63MOL0     H 8452   7.689   2.586   4.815 -0.9754  2.2633 -2.4023
   63MOL0     H 8453   7.672   2.752   4.865 -2.4612 -0.8773 -1.6504
   63MOL0     H 8454   7.900   2.692   4.829  1.2508  0.2574  0.6462
   63MOL0     H 8455   7.903   2.574   4.967 -2.0820 -0.5367  3.7759
   63MOL0     H 8456   7.889   2.673   5.213  4.6539 -1.4284  0.9875
   63MOL0     H 8457   7.888   2.950   5.411  0.7523 -1.5746  1.0604
   63MOL0     H 8458   7.996   2.817   5.401  0.4753  1.2357  3.1425
   63MOL0     H 8459   8.084   3.090   5.328  3.5777  1.2195  0.8249
   63MOL0     H 8460   8.174   2.944   5.299  0.9426  0.1578  0.7845
   63MOL0     H 8461   8.176   2.885   5.544  1.9717  0.6365 -0.2832
   63MOL0     H 8462   8.106   3.036   5.585  0.4237  0.3471 -0.1445
   63MOL0     H 8463   8.271   3.166   5.473 -1.1068 -0.7149 -1.0487
   63MOL0     H 8464   8.355   3.013   5.432 -1.6527 -0.6926 -0.6209
   63MOL0     H 8465   8.482   2.999   5.840 -1.2362  0.6488  0.9219
   63MOL0     H 8466   8.659   3.007   5.982 -0.8816  0.3586 -2.0182
   63MOL0     H 8467   8.799   3.109   5.947 -0.6650  3.1329 -5.8969
   63MOL0     H 8468   8.658   3.185   6.035 -0.1143  2.8360 -2.3271
   63MOL0     H 8469   9.019   3.247   6.057  2.5872 -0.8233  2.2742
   63MOL0     H 8470   9.203   3.360   6.166 -1.9471  0.4458  2.5573
   63MOL0     H 8471   9.352   3.500   6.276 -0.1005  1.6608  1.6383
   63MOL0     H 8472   9.396   3.500   6.108 -2.5291 -0.9119  0.5507
   63MOL0     H 8473   9.463   3.758   6.228  0.6785  0.5100  1.5364
   63MOL0     H 8474   9.547   3.617   6.305 -0.2248 -1.0701  0.0264
   63MOL0     H 8475   9.638   3.549   6.112 -0.9400 -0.1990  1.8504
   63MOL0     H 8476   9.689   3.705   6.143  2.0025 -1.8278 -1.4989
   63MOL0     H 8477   9.459   3.656   5.947 -0.8680  3.3386 -1.6132
   63MOL0     H 8478   9.529   3.815   5.990 -0.5249  0.3085  1.3281
   63MOL0     H 8479   9.723   3.761   5.866  0.8818  0.1217  3.3807
   63MOL0     H 8480   9.578   3.744   5.758  0.1018 -0.0794  0.0198
   63MOL0     H 8481   9.740   3.533   5.902 -3.7926  0.0161  1.1833
   63MOL0     H 8482   9.619   3.483   5.788  0.0911  0.0634 -0.6590
   63MOL0     H 8483   9.886   3.618   5.739 -2.5616  4.3806 -3.1012
   63MOL0     H 8484   9.764   3.607   5.615  1.9793  0.9101 -0.3996
   63MOL0     H 8485   9.842   3.348   5.759  2.6461  1.4781  0.2132
   63MOL0     H 8486   9.932   3.393   5.617 -0.2704 -3.6983  0.0471
   63MOL0     H 8487   9.044   3.742   6.042  0.0407  0.2525 -2.5235
   63MOL0     H 8488   8.836   3.624   5.953 -1.5614 -1.2616  0.4456
   63MOL0     H 8489   8.664   3.383   5.581  1.1665 -0.4847  1.0453
   63MOL0     H 8490   8.470   3.247   5.507  0.5923  0.6781 -0.9523
   63MOL0     H 8491   6.912   2.441   5.288 -0.2284 -0.0908  0.6809
   63MOL0     H 8492   6.669   2.387   5.323  1.9232  1.6280  0.5487
   63MOL0     H 8493   6.281   1.854   5.255 -1.2544 -1.6853  1.5464
   63MOL0     H 8494   6.032   1.895   5.236  1.7255 -1.4133 -1.1599
   63MOL0     H 8495   5.832   2.012   5.091 -1.7801 -2.5213 -0.0380
   63MOL0     H 8496   5.828   1.932   5.244  2.3447 -0.7698 -1.4818
   63MOL0     H 8497   5.644   2.171   5.167  0.7064 -0.4209  0.4330
   63MOL0     H 8498   5.660   2.115   5.332  1.9044 -0.1293  0.1344
   63MOL0     H 8499   5.608   1.916   5.116 -1.3287 -2.0120  1.0222
   63MOL0     H 8500   5.478   2.012   5.179 -0.9013 -3.0413 -1.1344
   63MOL0     H 8501   5.509   1.922   5.397  1.1752  1.7974 -0.4277
   63MOL0     H 8502   5.647   1.817   5.352 -0.2384  1.3355  2.2396
   63MOL0     H 8503   5.311   1.606   5.236  2.7846 -1.3559 -1.3135
   63MOL0     H 8504   6.087   2.317   5.224  1.3885 -0.4272 -2.7641
   63MOL0     H 8505   6.325   2.296   5.227  1.6847  0.2490  0.2438
   64MOL0     O 8506   1.772   8.287  10.128 -0.1468  0.1537 -0.8227
   64MOL0     C 8507   1.817   8.374  10.206  0.1692  0.1508  0.6228
   64MOL0     O 8508   1.927   8.362  10.280 -1.0571  0.7409 -0.4822
   64MOL0     C 8509   1.987   8.240  10.308 -0.0345  0.8779  0.2896
   64MOL0     C 8510   2.082   8.201  10.214  0.1585 -0.4717 -0.1621
   64MOL0     C 8511   2.145   8.073  10.239  0.0687  0.3573 -0.0315
   64MOL0     C 8512   2.126   7.996  10.358 -0.0584 -0.7018  0.7706
   64MOL0     O 8513   2.166   7.872  10.372 -0.3385  0.4501 -0.2006
   64MOL0     C 8514   2.260   7.809  10.280 -0.0506 -0.5464  0.1894
   64MOL0     C 8515   2.181   7.717  10.187  0.5750  0.0445  1.0389
   64MOL0     C 8516   2.116   7.598  10.264 -0.7995 -0.6777 -0.7192
   64MOL0     C 8517   1.976   7.615  10.311  0.5204 -0.2748  0.3794
   64MOL0     C 8518   1.920   7.510  10.421  0.0606 -0.0288  0.9082
   64MOL0     C 8519   1.955   7.365  10.386  0.0760 -0.5525  0.6719
   64MOL0     C 8520   1.886   7.263  10.480 -0.3130  0.5169  0.6963
   64MOL0     C 8521   1.838   7.122  10.435  0.5146 -0.5399  0.2371
   64MOL0     N 8522   1.955   7.041  10.382 -0.4274 -0.2272 -0.1006
   64MOL0     C 8523   1.976   7.035  10.246 -0.2825  0.3589  0.1179
   64MOL0     C 8524   2.058   6.925  10.231 -0.9072 -0.5961  0.1643
   64MOL0     C 8525   2.073   6.851  10.105  0.6230 -0.3436  0.4334
   64MOL0     C 8526   2.005   6.708  10.101 -0.4583  0.4254  0.5400
   64MOL0     C 8527   2.070   6.594  10.184  0.3365  0.0839  1.0176
   64MOL0     C 8528   1.978   6.466  10.172  0.8914 -0.2951 -0.2575
   64MOL0     O 8529   1.962   6.427  10.029  0.9137  0.5500 -0.1080
   64MOL0     C 8530   1.850   6.334  10.010  1.1568 -0.0864  1.0072
   64MOL0     C 8531   1.845   6.225  10.094 -0.1038  0.3625  0.1075
   64MOL0     C 8532   1.739   6.130  10.079  0.0775  0.1563  1.8295
   64MOL0     C 8533   1.737   6.015  10.180 -0.1428 -0.7835  0.3805
   64MOL0     C 8534   1.658   6.143   9.958  0.9410  0.2553  0.3528
   64MOL0     C 8535   1.552   6.040   9.939  1.3315  0.6882 -0.6906
   64MOL0     O 8536   1.481   6.018  10.055  0.4773  0.6215  0.0879
   64MOL0     C 8537   1.397   5.908  10.076 -0.8915 -0.6293  0.4570
   64MOL0     C 8538   1.295   5.913  10.172 -0.0782 -0.3895 -0.0708
   64MOL0     C 8539   1.215   5.807  10.198 -0.3142 -0.2525  0.3370
   64MOL0     C 8540   1.231   5.690  10.131  0.0392  0.2514 -0.1024
   64MOL0     O 8541   1.137   5.590  10.151 -0.0745  0.5848  0.6662
   64MOL0     C 8542   1.120   5.489  10.043  0.7522 -0.2478  0.2909
   64MOL0     C 8543   1.082   5.555   9.913  0.0869  1.0471 -0.3928
   64MOL0     C 8544   0.944   5.629   9.927 -0.6858 -0.1721 -0.2063
   64MOL0     C 8545   0.898   5.653   9.781  0.0366  0.4560 -0.1899
   64MOL0     C 8546   0.767   5.738   9.755 -0.3994  0.0546 -0.6153
   64MOL0     C 8547   0.644   5.658   9.812 -0.3562 -0.0453 -0.0094
   64MOL0     C 8548   0.519   5.740   9.808 -0.0232 -0.6500 -0.0285
   64MOL0     C 8549   0.407   5.670   9.885  0.3529  0.3949 -0.0370
   64MOL0    Cl 8550   0.431   5.679  10.059 -0.4610 -0.2156  0.0269
   64MOL0     C 8551   1.335   5.677  10.039  0.4109 -0.8877 -0.8172
   64MOL0     C 8552   1.423   5.784  10.016  0.4170  0.4924 -0.0719
   64MOL0     O 8553   1.525   5.988   9.834  0.2082  0.0067 -1.1020
   64MOL0     C 8554   1.681   6.250   9.870 -0.0730  0.4139  0.0080
   64MOL0     C 8555   1.771   6.352   9.905  0.1325 -0.7184  0.7037
   64MOL0     N 8556   2.093   6.884  10.355 -0.0209  0.9095 -0.8716
   64MOL0     N 8557   2.037   6.953  10.447  0.6119 -0.4109  0.5001
   64MOL0     C 8558   2.047   8.046  10.454  0.0761 -0.0778 -0.4692
   64MOL0     C 8559   1.972   8.160  10.427  0.8256 -0.1939 -0.3631
   64MOL0     C 8560   1.753   8.503  10.211 -0.7788  0.6740 -0.4586
   64MOL0     C 8561   1.661   8.540  10.109 -0.6355  0.1333  0.2663
   64MOL0     C 8562   1.600   8.664  10.124  0.5793 -1.3015 -0.4726
   64MOL0     C 8563   1.624   8.749  10.235 -0.2314 -0.9868  0.0673
   64MOL0     O 8564   1.555   8.866  10.263  0.1718 -0.5667 -0.5074
   64MOL0     C 8565   1.466   8.903  10.157 -0.4055 -0.2218 -0.4217
   64MOL0     C 8566   1.424   9.055  10.166 -0.0531 -0.5629 -0.4034
   64MOL0     C 8567   1.370   9.093  10.307  0.6954 -0.7118 -0.6055
   64MOL0     C 8568   1.281   9.214  10.303  0.1769  0.2849 -0.4528
   64MOL0     C 8569   1.193   9.202  10.416 -1.1917 -0.1216  1.3654
   64MOL0     C 8570   1.141   9.210  10.523 -0.2606 -0.8230 -0.3533
   64MOL0     C 8571   1.722   8.717  10.326  0.6241 -0.0147 -0.3756
   64MOL0     C 8572   1.790   8.595  10.310  1.0909 -0.1171 -0.3472
   64MOL0     H 8573   2.095   8.260  10.124 -2.3548  2.4073  1.1722
   64MOL0     H 8574   2.202   8.038  10.153 -1.0752  1.2970 -1.2245
   64MOL0     H 8575   2.329   7.878  10.231  1.4316 -1.6404  0.6691
   64MOL0     H 8576   2.334   7.754  10.338  1.8080  1.3277 -0.2797
   64MOL0     H 8577   2.106   7.768  10.127  0.9230 -0.2996  0.2963
   64MOL0     H 8578   2.255   7.671  10.120  0.7090 -0.2354  1.3742
   64MOL0     H 8579   2.112   7.510  10.199 -1.3018 -1.8885  0.8844
   64MOL0     H 8580   2.189   7.583  10.345 -2.0692  0.9785  0.8075
   64MOL0     H 8581   1.975   7.714  10.356  2.4485 -0.1013  0.1393
   64MOL0     H 8582   1.906   7.616  10.227  0.4858 -2.0211  0.3537
   64MOL0     H 8583   1.945   7.534  10.524 -0.7533 -3.3603  2.0206
   64MOL0     H 8584   1.812   7.525  10.413  0.3242  0.8581 -3.5505
   64MOL0     H 8585   1.915   7.347  10.286  0.5739  1.3777  0.0731
   64MOL0     H 8586   2.061   7.343  10.372 -0.1094 -1.3805  0.5415
   64MOL0     H 8587   1.959   7.240  10.558  0.8765 -0.8273 -0.7276
   64MOL0     H 8588   1.800   7.306  10.533  1.4033  1.8506  2.5512
   64MOL0     H 8589   1.756   7.127  10.363 -1.7219 -2.2164  2.5056
   64MOL0     H 8590   1.786   7.078  10.521 -1.3735  0.1525 -0.5003
   64MOL0     H 8591   1.928   7.095  10.169 -0.2004 -2.6679 -2.5242
   64MOL0     H 8592   2.034   6.911  10.023  0.2331 -0.0161  0.8525
   64MOL0     H 8593   2.182   6.847  10.091  0.5592  1.8351 -1.1187
   64MOL0     H 8594   2.020   6.674   9.998  0.4919  0.6419  0.6032
   64MOL0     H 8595   1.900   6.733  10.122 -0.0478  2.6030  0.2487
   64MOL0     H 8596   2.064   6.622  10.290  1.6850  3.1308  0.4204
   64MOL0     H 8597   2.170   6.572  10.143 -0.4117 -0.9765 -0.3157
   64MOL0     H 8598   1.875   6.484  10.206 -0.0936 -0.6476 -2.8589
   64MOL0     H 8599   2.030   6.391  10.233  0.1290  0.0425  0.8403
   64MOL0     H 8600   1.918   6.202  10.171  0.2008  2.1507  0.3853
   64MOL0     H 8601   1.820   6.028  10.250 -0.1934 -0.4010  0.3711
   64MOL0     H 8602   1.655   6.032  10.250  0.6750  0.7154  1.0209
   64MOL0     H 8603   1.753   5.915  10.137  3.9689  1.0911 -3.2418
   64MOL0     H 8604   1.281   5.993  10.244 -1.1093  0.3537 -1.0567
   64MOL0     H 8605   1.132   5.798  10.268 -0.6515 -0.1807 -0.0442
   64MOL0     H 8606   1.203   5.419  10.059 -1.1718 -2.3845  1.7251
   64MOL0     H 8607   1.034   5.429  10.073  1.4853 -1.6084 -0.2303
   64MOL0     H 8608   1.164   5.619   9.880  1.0585 -0.1293 -0.3426
   64MOL0     H 8609   1.073   5.475   9.838 -0.9577  1.3038 -0.5550
   64MOL0     H 8610   0.963   5.727   9.972 -0.4132  0.3626 -1.4293
   64MOL0     H 8611   0.888   5.559   9.989  2.0854 -2.3152  0.0794
   64MOL0     H 8612   0.978   5.699   9.722 -0.1280  1.6733  0.5115
   64MOL0     H 8613   0.883   5.561   9.723  1.1219  0.6734 -0.8283
   64MOL0     H 8614   0.754   5.769   9.651  0.9441 -0.0182 -0.8120
   64MOL0     H 8615   0.781   5.829   9.814  4.8237  0.5999 -2.2228
   64MOL0     H 8616   0.617   5.570   9.753  0.4447  0.7676 -1.6754
   64MOL0     H 8617   0.653   5.627   9.916 -0.9807  0.3223  0.1642
   64MOL0     H 8618   0.488   5.759   9.705  1.6187 -5.2209 -1.5989
   64MOL0     H 8619   0.533   5.837   9.855  1.0878 -0.1223 -1.3933
   64MOL0     H 8620   0.394   5.565   9.858  1.2882  0.5200 -1.0700
   64MOL0     H 8621   0.314   5.724   9.866  0.1082  0.0748  0.2499
   64MOL0     H 8622   1.360   5.582   9.994  5.0815 -0.6074  0.6278
   64MOL0     H 8623   1.520   5.777   9.968 -0.5359 -2.9050 -1.8405
   64MOL0     H 8624   1.625   6.258   9.778  0.4886  1.2725 -0.2684
   64MOL0     H 8625   1.778   6.436   9.838 -2.2367 -1.5492 -0.7144
   64MOL0     H 8626   2.017   7.978  10.533  0.1362  0.2254 -0.1833
   64MOL0     H 8627   1.892   8.192  10.492 -1.4546  1.6513 -3.7547
   64MOL0     H 8628   1.637   8.467  10.033 -0.0834 -1.9808  2.0105
   64MOL0     H 8629   1.535   8.693  10.042  2.0084  2.7933 -0.3518
   64MOL0     H 8630   1.504   8.902  10.055  0.0204  0.0203 -0.2661
   64MOL0     H 8631   1.380   8.835  10.154 -0.3342 -0.2927 -2.7620
   64MOL0     H 8632   1.350   9.069  10.087  1.2569 -0.2162 -1.6049
   64MOL0     H 8633   1.510   9.119  10.147  1.0031 -0.2978  4.0330
   64MOL0     H 8634   1.450   9.114  10.379 -3.0567  6.0744  2.5773
   64MOL0     H 8635   1.312   9.004  10.334  1.6207 -1.0140  0.4624
   64MOL0     H 8636   1.220   9.205  10.213 -0.5403 -0.5795  0.1033
   64MOL0     H 8637   1.327   9.314  10.307 -0.5562  0.6540 -0.9922
   64MOL0     H 8638   1.076   9.229  10.606 -2.5239 -1.5155 -1.8722
   64MOL0     H 8639   1.756   8.786  10.402  2.5820 -1.0773 -0.2170
   64MOL0     H 8640   1.856   8.561  10.389 -1.5414 -0.9858  1.6104
   65MOL0     O 8641   8.271   6.126   1.472 -0.2741 -0.6353 -0.6561
   65MOL0     C 8642   8.284   6.249   1.457  0.0334 -0.1411 -0.6867
   65MOL0     O 8643   8.385   6.314   1.403  0.2612 -0.7641  0.1977
   65MOL0     C 8644   8.488   6.253   1.332  0.0519  1.2350 -0.0094
   65MOL0     C 8645   8.462   6.171   1.221  0.6832  0.0794 -0.1793
   65MOL0     C 8646   8.563   6.120   1.136 -0.1130 -0.0123  0.2842
   65MOL0     C 8647   8.696   6.145   1.162  0.0398 -1.3518  0.4210
   65MOL0     O 8648   8.805   6.095   1.094  0.2146  0.8762  0.1862
   65MOL0     C 8649   8.774   5.964   1.037  0.8080  0.0080 -0.1990
   65MOL0     C 8650   8.894   5.914   0.960 -0.8503  0.1731 -0.1271
   65MOL0     C 8651   9.011   5.867   1.046 -0.5606  0.5071 -0.0638
   65MOL0     C 8652   9.128   5.789   0.973  0.4287 -0.0843  0.2446
   65MOL0     C 8653   9.272   5.831   1.014 -0.8248 -0.8803 -0.6278
   65MOL0     C 8654   9.376   5.794   0.905  0.3531 -0.0756 -0.3575
   65MOL0     C 8655   9.400   5.896   0.800  0.3367  0.7636  0.0027
   65MOL0     C 8656   9.466   5.844   0.678  0.7431 -0.1870 -0.3507
   65MOL0     N 8657   9.483   5.957   0.585  0.4523 -0.1555 -0.6378
   65MOL0     C 8658   9.585   6.043   0.578  0.0646 -0.8428 -0.4823
   65MOL0     C 8659   9.578   6.116   0.461  0.1835  0.3791  0.1861
   65MOL0     C 8660   9.652   6.237   0.418 -0.5629 -0.1353 -0.4772
   65MOL0     C 8661   9.781   6.193   0.338 -0.8995  0.6779  0.0459
   65MOL0     C 8662   9.883   6.133   0.436 -0.1584 -0.8707  0.2030
   65MOL0     C 8663   9.925   6.229   0.543  0.1349 -0.2558 -0.2004
   65MOL0     O 8664  10.028   6.177   0.624 -0.5253  0.3395  0.2338
   65MOL0     C 8665  10.144   6.248   0.644 -0.4353 -0.8058  0.2905
   65MOL0     C 8666  10.224   6.207   0.754  0.5617  0.1303  0.5170
   65MOL0     C 8667  10.357   6.252   0.771 -0.7280 -0.3254 -0.0571
   65MOL0     C 8668  10.437   6.199   0.886  0.1536  0.0437 -0.5000
   65MOL0     C 8669  10.413   6.343   0.676 -0.4252  0.3028  0.2516
   65MOL0     C 8670  10.553   6.384   0.680 -0.1959 -0.7014  0.3574
   65MOL0     O 8671  10.606   6.427   0.562 -0.6809  0.0424 -0.5145
   65MOL0     C 8672  10.735   6.477   0.565 -0.7186  0.6884 -0.7493
   65MOL0     C 8673  10.763   6.609   0.574  1.1444 -0.1788 -0.4860
   65MOL0     C 8674  10.898   6.664   0.580 -0.1586 -0.1632  0.2781
   65MOL0     C 8675  11.006   6.566   0.566  0.7042 -0.2933 -0.8440
   65MOL0     O 8676  11.138   6.597   0.547  0.6915  0.4982  0.2276
   65MOL0     C 8677  11.176   6.722   0.496 -0.4191  0.2829  0.1492
   65MOL0     C 8678  11.327   6.712   0.500 -0.2158 -0.0348 -0.3117
   65MOL0     C 8679  11.393   6.689   0.640  0.0422 -0.6630 -0.4408
   65MOL0     C 8680  11.548   6.720   0.639 -0.2429  0.4235 -0.0671
   65MOL0     C 8681  11.619   6.648   0.755  0.2186 -0.2098  0.1086
   65MOL0     C 8682  11.761   6.701   0.778 -0.1711  0.2582 -0.9452
   65MOL0     C 8683  11.779   6.806   0.895 -0.2459 -0.3949  1.0781
   65MOL0     C 8684  11.737   6.951   0.857 -0.6068  0.0296 -0.0296
   65MOL0    Cl 8685  11.768   7.047   0.998 -0.5712  0.3145 -0.3299
   65MOL0     C 8686  10.970   6.429   0.572 -0.9707 -0.6657 -0.5607
   65MOL0     C 8687  10.842   6.387   0.574  0.1319  0.3116  0.3785
   65MOL0     O 8688  10.608   6.405   0.786 -0.5814 -0.5143 -0.5495
   65MOL0     C 8689  10.334   6.378   0.564 -0.2862 -0.2191 -1.0751
   65MOL0     C 8690  10.207   6.329   0.548  0.4181  0.4480 -0.6077
   65MOL0     N 8691   9.469   6.068   0.399 -0.8467 -0.3133  0.9754
   65MOL0     N 8692   9.411   5.979   0.464 -0.1951  0.3864 -0.3964
   65MOL0     C 8693   8.726   6.233   1.272  0.0698  0.3612  0.2286
   65MOL0     C 8694   8.624   6.281   1.359 -0.9291  0.3276 -0.3517
   65MOL0     C 8695   8.177   6.348   1.512  0.0943  0.7287  0.1263
   65MOL0     C 8696   8.057   6.303   1.565  0.2855  0.0431 -0.9215
   65MOL0     C 8697   7.956   6.382   1.627 -0.2947  0.0631 -0.1005
   65MOL0     C 8698   7.973   6.523   1.623  0.7492  0.0401 -0.7500
   65MOL0     O 8699   7.873   6.602   1.686  0.1617  0.0930  0.1548
   65MOL0     C 8700   7.864   6.745   1.655  0.7196 -0.2675 -0.3489
   65MOL0     C 8701   7.749   6.821   1.712  1.1911 -0.7795  0.0225
   65MOL0     C 8702   7.735   6.823   1.862  0.7144  0.3027 -0.1250
   65MOL0     C 8703   7.616   6.911   1.906 -0.4109  0.5304 -0.4883
   65MOL0     C 8704   7.606   7.045   1.852 -0.8066 -0.1090 -0.3500
   65MOL0     C 8705   7.622   7.158   1.808 -0.7456  0.3267 -0.3778
   65MOL0     C 8706   8.083   6.573   1.564 -0.8360 -0.3548  0.3624
   65MOL0     C 8707   8.188   6.493   1.516 -0.0235 -0.9532  0.0864
   65MOL0     H 8708   8.365   6.143   1.182 -0.1523  1.1193  1.0472
   65MOL0     H 8709   8.525   6.062   1.052  0.3402  0.1778 -0.0565
   65MOL0     H 8710   8.737   5.891   1.110  0.3169  1.1008  0.6681
   65MOL0     H 8711   8.689   5.971   0.969  1.9356  0.4157 -1.6279
   65MOL0     H 8712   8.865   5.828   0.897 -2.7564  0.1177  0.7540
   65MOL0     H 8713   8.931   5.999   0.903 -1.3521  1.0863  0.8804
   65MOL0     H 8714   9.047   5.958   1.094  0.7954  0.2425 -0.5335
   65MOL0     H 8715   8.987   5.816   1.140  1.0443  1.8161  1.1085
   65MOL0     H 8716   9.124   5.681   0.989  3.3959 -0.4139 -0.6539
   65MOL0     H 8717   9.120   5.820   0.869 -0.9203 -2.2723 -0.3526
   65MOL0     H 8718   9.265   5.940   1.015  2.6221 -0.3809 -3.9626
   65MOL0     H 8719   9.294   5.798   1.115  0.4272  1.5022 -0.0643
   65MOL0     H 8720   9.466   5.793   0.967  0.5220  4.4509 -0.2348
   65MOL0     H 8721   9.354   5.692   0.870  1.7044 -1.3274  2.1966
   65MOL0     H 8722   9.300   5.917   0.760 -0.0271 -1.1220 -0.1711
   65MOL0     H 8723   9.431   5.992   0.843  1.9494 -0.6088  2.0670
   65MOL0     H 8724   9.401   5.765   0.640 -4.3062  2.0832  2.4958
   65MOL0     H 8725   9.563   5.798   0.697  0.7520 -0.3347 -0.7472
   65MOL0     H 8726   9.648   6.055   0.666  0.8448 -2.2685 -0.8196
   65MOL0     H 8727   9.584   6.297   0.358 -1.8497 -2.0031 -0.9651
   65MOL0     H 8728   9.678   6.303   0.501 -0.7600  2.3891 -2.3078
   65MOL0     H 8729   9.823   6.285   0.295  1.0425 -0.8101 -1.3909
   65MOL0     H 8730   9.764   6.118   0.260  1.2024  1.9689 -1.7814
   65MOL0     H 8731   9.968   6.105   0.373 -0.2283 -0.9347  0.1380
   65MOL0     H 8732   9.852   6.034   0.472  1.5034 -2.0927 -1.5452
   65MOL0     H 8733   9.849   6.243   0.620 -1.4675 -0.8494 -1.5931
   65MOL0     H 8734   9.956   6.325   0.500  2.0981 -0.5418  0.5014
   65MOL0     H 8735  10.192   6.132   0.825  0.2980  0.1192  0.3878
   65MOL0     H 8736  10.453   6.281   0.957 -3.3055  0.8978 -0.5508
   65MOL0     H 8737  10.379   6.123   0.939 -3.6268  2.4925 -0.7381
   65MOL0     H 8738  10.527   6.152   0.845 -0.8233 -0.4734 -2.1235
   65MOL0     H 8739  10.685   6.684   0.573  0.8272 -0.4278 -3.3718
   65MOL0     H 8740  10.916   6.771   0.579 -2.2411  0.2534  1.3163
   65MOL0     H 8741  11.138   6.753   0.399 -3.8832  1.6592  1.7429
   65MOL0     H 8742  11.139   6.802   0.561  2.8633  0.1498  2.4116
   65MOL0     H 8743  11.351   6.637   0.424  1.3706  1.0801 -0.9346
   65MOL0     H 8744  11.368   6.798   0.448 -0.5442 -1.5600 -3.3328
   65MOL0     H 8745  11.372   6.583   0.658  1.1804 -1.0047 -1.0357
   65MOL0     H 8746  11.340   6.741   0.720 -1.5946 -2.4435 -0.2966
   65MOL0     H 8747  11.586   6.664   0.552  0.5155  2.6154 -1.2101
   65MOL0     H 8748  11.573   6.826   0.638 -2.6170  1.1138  2.4922
   65MOL0     H 8749  11.619   6.540   0.736 -3.2382 -0.4266  0.5702
   65MOL0     H 8750  11.560   6.661   0.847  0.7008 -0.3711  0.4456
   65MOL0     H 8751  11.823   6.613   0.796  3.1561  2.2680 -1.7691
   65MOL0     H 8752  11.804   6.745   0.687  0.7742 -0.5632 -0.9065
   65MOL0     H 8753  11.886   6.812   0.921  0.1616 -1.4692 -0.2442
   65MOL0     H 8754  11.726   6.772   0.984 -1.0892 -1.5002  0.1761
   65MOL0     H 8755  11.632   6.955   0.829 -0.4150  1.4882 -0.6519
   65MOL0     H 8756  11.794   6.973   0.766  1.7368 -2.4391  0.7160
   65MOL0     H 8757  11.060   6.371   0.554 -1.5084 -1.0556 -2.2118
   65MOL0     H 8758  10.821   6.281   0.573 -0.8122  0.4384  2.1129
   65MOL0     H 8759  10.382   6.434   0.485  0.4102  2.3864  1.0462
   65MOL0     H 8760  10.140   6.349   0.465 -2.1274 -0.7422  1.0194
   65MOL0     H 8761   8.830   6.253   1.292  0.5999  0.7121 -2.4830
   65MOL0     H 8762   8.648   6.332   1.452  0.2505 -1.7391  0.5399
   65MOL0     H 8763   8.050   6.194   1.570  1.8872 -0.0549  0.2681
   65MOL0     H 8764   7.868   6.343   1.678 -0.1897 -0.1348 -0.0681
   65MOL0     H 8765   7.954   6.794   1.694  1.4733 -3.2598  2.1050
   65MOL0     H 8766   7.866   6.750   1.545  0.9507  2.0537 -0.2907
   65MOL0     H 8767   7.660   6.779   1.665  2.3466 -2.1456 -1.0201
   65MOL0     H 8768   7.759   6.918   1.662  0.4320  0.5388  2.2807
   65MOL0     H 8769   7.834   6.843   1.904  1.4349 -1.4728 -0.8991
   65MOL0     H 8770   7.711   6.718   1.882  0.8564  0.2535 -0.2076
   65MOL0     H 8771   7.623   6.923   2.015 -2.2249  2.0726 -0.4816
   65MOL0     H 8772   7.521   6.867   1.873 -0.8531  0.0078  1.3445
   65MOL0     H 8773   7.642   7.262   1.792 -0.4634  0.4366  0.6419
   65MOL0     H 8774   8.087   6.680   1.546 -0.2531 -0.8219 -2.9972
   65MOL0     H 8775   8.275   6.538   1.469 -0.3016 -1.1805 -0.6635
   66MOL0     O 8776   0.628   4.872   7.710  0.4663  0.7401 -0.1075
   66MOL0     C 8777   0.570   4.827   7.809 -0.6592  1.6196  0.2805
   66MOL0     O 8778   0.444   4.863   7.849  0.5161 -0.1896  0.0171
   66MOL0     C 8779   0.361   4.927   7.757 -0.3691  0.3144  0.3595
   66MOL0     C 8780   0.315   4.857   7.643 -0.2957  0.6585  0.2290
   66MOL0     C 8781   0.229   4.906   7.550  0.5025  0.0098 -0.3764
   66MOL0     C 8782   0.174   5.027   7.566  0.0193 -0.1960  0.8279
   66MOL0     O 8783   0.102   5.093   7.469  1.0886  0.2429 -0.3665
   66MOL0     C 8784   0.058   5.027   7.349  0.7265 -0.0963 -0.2544
   66MOL0     C 8785  -0.013   5.142   7.263  0.0391  0.1931  0.3841
   66MOL0     C 8786   0.077   5.259   7.234 -0.2549 -0.0408  0.0898
   66MOL0     C 8787   0.084   5.294   7.089  0.7228 -0.6327 -0.0109
   66MOL0     C 8788   0.159   5.175   7.015 -0.3276  0.3730  0.4803
   66MOL0     C 8789   0.147   5.189   6.865 -0.1791 -0.5425  0.1469
   66MOL0     C 8790   0.202   5.075   6.776  0.1437 -0.0949 -0.2672
   66MOL0     C 8791   0.198   5.112   6.631 -0.0829 -0.7296 -0.2033
   66MOL0     N 8792   0.263   5.010   6.557  0.0362  0.6480  0.1733
   66MOL0     C 8793   0.393   5.007   6.522 -0.1197  0.2078  0.2419
   66MOL0     C 8794   0.410   4.924   6.416  0.5333 -0.0272  0.3109
   66MOL0     C 8795   0.547   4.922   6.349  0.6764 -0.4577  0.8017
   66MOL0     C 8796   0.632   4.803   6.379  0.4863  0.7692  0.7357
   66MOL0     C 8797   0.668   4.798   6.527 -0.0459  0.0488 -0.3212
   66MOL0     C 8798   0.755   4.670   6.558 -0.2397 -0.3815  0.8683
   66MOL0     O 8799   0.901   4.696   6.537 -0.5426 -0.2415 -0.6607
   66MOL0     C 8800   0.967   4.704   6.423 -0.2550  0.4915  0.6441
   66MOL0     C 8801   1.084   4.773   6.426 -0.0569  0.0448 -0.5953
   66MOL0     C 8802   1.170   4.769   6.317  0.3047  1.1815  0.9416
   66MOL0     C 8803   1.299   4.854   6.332 -0.3634  0.8944  0.6871
   66MOL0     C 8804   1.131   4.704   6.196  0.2270 -0.4324 -0.4561
   66MOL0     C 8805   1.218   4.710   6.092 -0.8049  0.7075  0.4001
   66MOL0     O 8806   1.159   4.741   5.972 -0.8509  0.6077 -0.0859
   66MOL0     C 8807   1.247   4.801   5.877 -0.1391  0.3294 -0.9934
   66MOL0     C 8808   1.212   4.769   5.749 -0.2853 -0.1456  1.6165
   66MOL0     C 8809   1.278   4.820   5.631 -0.5531 -0.2892  0.3781
   66MOL0     C 8810   1.385   4.903   5.643  0.7198  0.3090  0.6362
   66MOL0     O 8811   1.441   4.954   5.528 -1.1371  0.8265  0.1287
   66MOL0     C 8812   1.587   4.974   5.533  0.1917 -0.5671  1.1078
   66MOL0     C 8813   1.652   4.987   5.388 -0.3772  0.4026  0.3822
   66MOL0     C 8814   1.599   5.104   5.303  0.1490 -1.1076  0.4772
   66MOL0     C 8815   1.637   5.240   5.372  0.1275 -0.3569  0.6836
   66MOL0     C 8816   1.605   5.366   5.287  0.0928  0.2717  0.5086
   66MOL0     C 8817   1.716   5.374   5.171  0.4654  0.2961 -0.9636
   66MOL0     C 8818   1.853   5.421   5.231  0.1955  0.2408 -0.2636
   66MOL0     C 8819   1.974   5.321   5.226 -0.2942  0.1187 -0.5354
   66MOL0    Cl 8820   2.127   5.394   5.292  0.2631 -0.5774  0.0640
   66MOL0     C 8821   1.427   4.931   5.775  0.3492  0.2856 -0.0392
   66MOL0     C 8822   1.356   4.891   5.892  0.5290 -1.0362  0.3365
   66MOL0     O 8823   1.343   4.676   6.103  0.4897 -0.2672 -0.5009
   66MOL0     C 8824   1.006   4.637   6.196 -0.2702  0.1216  0.7450
   66MOL0     C 8825   0.919   4.636   6.306 -0.3290 -0.6342  0.5354
   66MOL0     N 8826   0.292   4.844   6.408 -0.4037 -0.6424  0.3483
   66MOL0     N 8827   0.202   4.910   6.486 -0.0614 -0.4327 -0.2608
   66MOL0     C 8828   0.211   5.104   7.680  0.8237 -1.1850 -0.7514
   66MOL0     C 8829   0.307   5.058   7.776  1.0815 -0.5764 -0.0197
   66MOL0     C 8830   0.644   4.743   7.903 -0.7076 -0.6613 -1.0893
   66MOL0     C 8831   0.777   4.705   7.876  0.1759  1.3028  0.1390
   66MOL0     C 8832   0.860   4.641   7.967  0.0425  0.3503 -0.5468
   66MOL0     C 8833   0.805   4.623   8.097 -0.4839 -1.0665  0.1306
   66MOL0     O 8834   0.878   4.580   8.204  0.0015 -0.2682  0.6647
   66MOL0     C 8835   0.953   4.681   8.261  0.5340  0.4827 -0.4530
   66MOL0     C 8836   1.024   4.631   8.379 -0.4344  0.6913  0.0232
   66MOL0     C 8837   0.954   4.686   8.508  0.3715 -0.0345  0.0085
   66MOL0     C 8838   0.825   4.616   8.541  0.2854  1.3026  0.3790
   66MOL0     C 8839   0.813   4.474   8.549 -0.1193  0.1480 -0.5941
   66MOL0     C 8840   0.784   4.351   8.545 -0.4875  0.6829  0.4429
   66MOL0     C 8841   0.666   4.654   8.124  0.0058  0.0885 -0.5351
   66MOL0     C 8842   0.589   4.723   8.035 -0.5824 -0.1210  0.0955
   66MOL0     H 8843   0.349   4.756   7.620 -2.0400 -0.1946  1.1538
   66MOL0     H 8844   0.219   4.851   7.456  5.6282 -0.3632 -0.9600
   66MOL0     H 8845   0.142   4.995   7.287 -0.2830 -2.2733 -0.6077
   66MOL0     H 8846  -0.002   4.937   7.366  0.1318  0.4487  0.6507
   66MOL0     H 8847  -0.046   5.097   7.169  1.7926  0.3215 -0.3310
   66MOL0     H 8848  -0.101   5.179   7.317  0.3104  0.6357  0.5272
   66MOL0     H 8849   0.041   5.346   7.289  0.4677  0.3412 -0.0316
   66MOL0     H 8850   0.178   5.240   7.272 -0.7590  1.1796  2.2008
   66MOL0     H 8851  -0.011   5.302   7.036  0.6541 -2.6629 -0.2617
   66MOL0     H 8852   0.137   5.389   7.075 -0.2754 -0.4167 -2.8544
   66MOL0     H 8853   0.265   5.180   7.042  0.2757 -1.4507 -1.3344
   66MOL0     H 8854   0.118   5.075   7.026 -1.5658  0.7795 -0.2009
   66MOL0     H 8855   0.041   5.180   6.839 -0.3188 -2.2131  1.1642
   66MOL0     H 8856   0.205   5.269   6.818  1.8781 -1.6419  0.6990
   66MOL0     H 8857   0.304   5.060   6.813  0.1654  2.4040  0.8712
   66MOL0     H 8858   0.144   4.983   6.791  0.0861 -0.6362 -3.1989
   66MOL0     H 8859   0.255   5.202   6.607 -1.9517  0.0258 -2.0950
   66MOL0     H 8860   0.099   5.128   6.588  2.1008 -0.2706 -5.9125
   66MOL0     H 8861   0.477   5.070   6.548  2.0640 -2.2461 -0.3608
   66MOL0     H 8862   0.539   4.932   6.241  2.5592  0.4416  0.7082
   66MOL0     H 8863   0.602   5.007   6.390 -0.0991  0.3510  0.1924
   66MOL0     H 8864   0.725   4.813   6.322  0.2529 -0.4176  0.1268
   66MOL0     H 8865   0.577   4.715   6.346  0.3733  0.7085  1.0875
   66MOL0     H 8866   0.578   4.777   6.585  1.8220 -0.7265  2.4686
   66MOL0     H 8867   0.719   4.883   6.572 -0.0740 -2.1694  4.4527
   66MOL0     H 8868   0.722   4.579   6.508  1.1448 -0.1356 -0.6031
   66MOL0     H 8869   0.752   4.647   6.664  1.1568 -4.5502  0.1860
   66MOL0     H 8870   1.120   4.811   6.521  0.1372  2.5030 -1.5771
   66MOL0     H 8871   1.307   4.929   6.253  1.3122 -1.1914 -1.2519
   66MOL0     H 8872   1.319   4.892   6.432  0.6612 -0.0665  0.8624
   66MOL0     H 8873   1.392   4.801   6.312  1.5541  4.0831  0.5213
   66MOL0     H 8874   1.131   4.700   5.728  1.0818 -1.3870  0.0816
   66MOL0     H 8875   1.236   4.791   5.535  3.1862 -1.9305 -0.9602
   66MOL0     H 8876   1.617   5.062   5.590  0.8700  1.3246 -1.9476
   66MOL0     H 8877   1.639   4.888   5.576 -0.0160 -1.9200 -1.1680
   66MOL0     H 8878   1.760   4.972   5.385 -0.8147 -5.3700  1.2293
   66MOL0     H 8879   1.617   4.899   5.333 -2.6962  0.6708  1.3341
   66MOL0     H 8880   1.493   5.093   5.281  0.9279 -3.2038 -2.8682
   66MOL0     H 8881   1.645   5.107   5.204 -0.4892  0.6940  0.2003
   66MOL0     H 8882   1.584   5.245   5.467 -0.2219 -1.0534  0.5355
   66MOL0     H 8883   1.741   5.237   5.404  0.8777 -4.0995 -1.4024
   66MOL0     H 8884   1.611   5.457   5.347  3.9647  2.0018 -2.0870
   66MOL0     H 8885   1.504   5.349   5.246  0.1137 -0.9628  0.9381
   66MOL0     H 8886   1.729   5.285   5.110  2.1738 -0.1772  0.0286
   66MOL0     H 8887   1.684   5.456   5.105  0.8375 -0.9447 -2.7568
   66MOL0     H 8888   1.842   5.444   5.337 -1.2196 -0.8901 -0.1319
   66MOL0     H 8889   1.880   5.509   5.173 -0.3273  0.9145  0.5027
   66MOL0     H 8890   1.991   5.273   5.129 -0.4175 -2.5102  0.6654
   66MOL0     H 8891   1.956   5.238   5.296  0.9374  1.3646  1.3293
   66MOL0     H 8892   1.514   4.997   5.776 -0.2524  1.2485 -2.7537
   66MOL0     H 8893   1.395   4.928   5.986  1.4387 -0.0105 -0.4069
   66MOL0     H 8894   0.989   4.563   6.118 -1.0002 -1.3059  2.1969
   66MOL0     H 8895   0.826   4.580   6.304  0.7462 -2.5940 -2.0986
   66MOL0     H 8896   0.163   5.199   7.699  0.3262 -1.5663 -0.0344
   66MOL0     H 8897   0.341   5.109   7.865  2.1480  2.0018 -1.7646
   66MOL0     H 8898   0.827   4.711   7.780 -2.7478 -0.6212 -1.6706
   66MOL0     H 8899   0.963   4.610   7.954 -0.3032 -0.8488 -0.5197
   66MOL0     H 8900   1.028   4.729   8.197 -1.7649  4.3439 -0.6112
   66MOL0     H 8901   0.895   4.768   8.292  0.0110 -0.2664  0.7351
   66MOL0     H 8902   1.128   4.664   8.383 -0.1884 -0.0597  0.0355
   66MOL0     H 8903   1.027   4.523   8.397  0.6351  1.1223  3.0913
   66MOL0     H 8904   0.940   4.794   8.495  2.6805  0.1410 -1.6799
   66MOL0     H 8905   1.022   4.664   8.591 -1.5974 -0.0251  1.6966
   66MOL0     H 8906   0.759   4.637   8.457  2.8941  1.1364 -1.8538
   66MOL0     H 8907   0.778   4.669   8.625 -1.3556  4.0064 -2.0488
   66MOL0     H 8908   0.758   4.247   8.548  1.4758  0.1281 -0.3517
   66MOL0     H 8909   0.625   4.628   8.221  1.4871 -0.5406 -0.0572
   66MOL0     H 8910   0.492   4.766   8.061  0.8087  3.3352  0.1564
   67MOL0     O 8911   3.305   2.658   3.630  0.0857  0.3353 -0.2167
   67MOL0     C 8912   3.400   2.630   3.556 -1.4780  0.4087 -0.4397
   67MOL0     O 8913   3.505   2.701   3.529 -0.4122 -0.5677 -0.0931
   67MOL0     C 8914   3.503   2.831   3.572  0.5891  1.1083 -0.1617
   67MOL0     C 8915   3.614   2.879   3.637  0.4815 -0.0368  0.3190
   67MOL0     C 8916   3.620   3.020   3.661 -0.3512  0.2522  0.3426
   67MOL0     C 8917   3.524   3.114   3.594 -0.4525 -0.1262 -0.2798
   67MOL0     O 8918   3.525   3.250   3.629 -1.0586 -0.6249 -0.4453
   67MOL0     C 8919   3.565   3.354   3.541  0.8928  0.3152  0.7328
   67MOL0     C 8920   3.688   3.327   3.452 -0.3545  0.7187  0.0266
   67MOL0     C 8921   3.817   3.364   3.522  0.9440  0.3420  1.0246
   67MOL0     C 8922   3.878   3.256   3.606 -0.0211 -0.0569 -0.4128
   67MOL0     C 8923   4.029   3.277   3.626  0.2088 -0.1861  0.7405
   67MOL0     C 8924   4.086   3.162   3.708 -0.2730  0.3061 -0.5056
   67MOL0     C 8925   4.104   3.029   3.623 -0.2770  0.0377  0.2588
   67MOL0     C 8926   4.148   2.903   3.694 -0.0451  0.0488 -1.1793
   67MOL0     N 8927   4.100   2.781   3.630 -0.1413 -0.3721  0.3346
   67MOL0     C 8928   4.155   2.655   3.650 -0.9818 -0.4208  0.2732
   67MOL0     C 8929   4.056   2.566   3.637  0.3019  0.0291 -0.5565
   67MOL0     C 8930   4.057   2.414   3.653  0.1949 -0.3731 -0.3473
   67MOL0     C 8931   4.088   2.346   3.522  0.1351 -0.1478  0.7362
   67MOL0     C 8932   3.993   2.375   3.395 -0.9289  0.3864  0.2665
   67MOL0     C 8933   3.838   2.352   3.417 -0.2302  0.0951  0.7492
   67MOL0     O 8934   3.793   2.218   3.390  0.2146 -0.4382 -0.3580
   67MOL0     C 8935   3.796   2.147   3.277  0.3721  0.7338  0.3546
   67MOL0     C 8936   3.827   2.195   3.154 -0.2623 -0.8689 -0.5314
   67MOL0     C 8937   3.822   2.112   3.036 -0.0560  0.7128 -0.8645
   67MOL0     C 8938   3.858   2.170   2.906  0.5206  0.2795  0.6198
   67MOL0     C 8939   3.780   1.980   3.045  0.5599 -0.4022 -0.3460
   67MOL0     C 8940   3.777   1.885   2.939 -0.3413 -0.3718 -0.1943
   67MOL0     O 8941   3.656   1.849   2.889 -0.7080  0.1546  0.4246
   67MOL0     C 8942   3.655   1.743   2.801  1.1132  0.4046 -0.5731
   67MOL0     C 8943   3.715   1.749   2.675  0.1222 -0.6779  0.0400
   67MOL0     C 8944   3.711   1.639   2.596 -0.0284  0.5202  0.8244
   67MOL0     C 8945   3.653   1.518   2.632  0.2213  0.6338 -0.4408
   67MOL0     O 8946   3.634   1.410   2.539  0.3426 -0.5284  0.1238
   67MOL0     C 8947   3.497   1.354   2.530 -0.3821  0.6773  0.4886
   67MOL0     C 8948   3.508   1.207   2.470 -0.0182  0.6773  0.1546
   67MOL0     C 8949   3.599   1.198   2.344 -0.0281  0.1028  1.0228
   67MOL0     C 8950   3.514   1.179   2.217 -0.1680  0.0088  0.9212
   67MOL0     C 8951   3.598   1.100   2.123 -0.4016  0.7042 -1.3700
   67MOL0     C 8952   3.559   1.141   1.981 -0.2446  0.8485 -0.4211
   67MOL0     C 8953   3.663   1.100   1.877  0.1746  0.3835 -0.6213
   67MOL0     C 8954   3.592   1.119   1.746 -0.3129 -0.3389  0.7536
   67MOL0    Cl 8955   3.709   1.124   1.615  0.2107 -0.2948 -0.2109
   67MOL0     C 8956   3.595   1.510   2.767 -0.4650  0.6635  0.1256
   67MOL0     C 8957   3.593   1.622   2.841  0.5623  0.3323 -0.3473
   67MOL0     O 8958   3.882   1.845   2.891 -0.0966  0.0273  0.1708
   67MOL0     C 8959   3.744   1.929   3.167 -0.2692 -0.0057  0.5177
   67MOL0     C 8960   3.752   2.017   3.275 -0.8162  0.2682 -0.0618
   67MOL0     N 8961   3.935   2.638   3.612 -0.6209 -0.1860 -0.3518
   67MOL0     N 8962   3.970   2.759   3.597 -0.0247  0.1019  0.1230
   67MOL0     C 8963   3.422   3.060   3.520 -0.6033 -0.0584  0.1624
   67MOL0     C 8964   3.419   2.924   3.500 -0.3942 -0.0862 -0.7487
   67MOL0     C 8965   3.382   2.500   3.490  0.2682  1.1188  1.2547
   67MOL0     C 8966   3.487   2.429   3.427 -0.1699 -1.3737  0.2957
   67MOL0     C 8967   3.469   2.310   3.360  0.3635 -0.3911 -0.1458
   67MOL0     C 8968   3.350   2.242   3.357 -1.0643  0.3860  0.3504
   67MOL0     O 8969   3.346   2.116   3.303  0.8538 -0.5702 -0.1575
   67MOL0     C 8970   3.214   2.061   3.280  1.1848  0.2635  0.6783
   67MOL0     C 8971   3.218   1.939   3.185  0.0298 -0.7658  0.6895
   67MOL0     C 8972   3.335   1.853   3.201  0.0291  0.2211  0.4225
   67MOL0     C 8973   3.318   1.703   3.156  0.2909 -0.2261 -0.5066
   67MOL0     C 8974   3.431   1.617   3.204 -0.0243 -0.2358  0.4568
   67MOL0     C 8975   3.517   1.534   3.218 -0.5256  0.3867  0.8746
   67MOL0     C 8976   3.246   2.304   3.429  0.0408 -0.1726 -0.9740
   67MOL0     C 8977   3.259   2.429   3.488 -0.2368 -0.2484 -0.0824
   67MOL0     H 8978   3.681   2.808   3.683  2.6974  0.4472 -1.9357
   67MOL0     H 8979   3.697   3.052   3.731 -1.0086 -0.1581  1.2829
   67MOL0     H 8980   3.482   3.368   3.471  1.7864  0.8137 -0.2764
   67MOL0     H 8981   3.575   3.438   3.610  1.5741 -0.0379  1.0807
   67MOL0     H 8982   3.684   3.224   3.417  0.2843 -0.0531  2.0723
   67MOL0     H 8983   3.682   3.401   3.371 -0.4105 -0.1976 -0.8159
   67MOL0     H 8984   3.888   3.375   3.439  4.3354 -1.3954  3.4503
   67MOL0     H 8985   3.791   3.450   3.584 -0.2550 -0.4536  1.6685
   67MOL0     H 8986   3.836   3.264   3.706  0.3728 -1.5554 -0.1102
   67MOL0     H 8987   3.858   3.156   3.567 -1.0082  0.0583 -0.2283
   67MOL0     H 8988   4.076   3.297   3.529 -2.3749  1.9166 -0.2110
   67MOL0     H 8989   4.050   3.367   3.684 -1.8719 -0.6977  2.3904
   67MOL0     H 8990   4.177   3.192   3.760  0.5868  0.6697 -2.1473
   67MOL0     H 8991   4.013   3.127   3.781 -0.3826 -3.3744 -2.1031
   67MOL0     H 8992   4.010   3.012   3.570  0.2067 -0.7653 -0.3661
   67MOL0     H 8993   4.176   3.055   3.545  0.0783  1.7603  1.1098
   67MOL0     H 8994   4.080   2.900   3.780 -0.0165 -0.2227 -1.1674
   67MOL0     H 8995   4.251   2.903   3.732 -0.7446  1.9252  0.9462
   67MOL0     H 8996   4.256   2.616   3.662 -0.5389  0.7188  0.4496
   67MOL0     H 8997   4.137   2.397   3.726  0.8046  0.1462 -0.8866
   67MOL0     H 8998   3.960   2.381   3.692  0.5471  0.1999  1.0864
   67MOL0     H 8999   4.082   2.239   3.546 -1.5067 -0.0470  0.8446
   67MOL0     H 9000   4.188   2.374   3.489 -0.6157  2.0244  0.1545
   67MOL0     H 9001   4.028   2.325   3.304 -2.6619  2.9492 -1.9530
   67MOL0     H 9002   4.008   2.482   3.379  1.4782 -0.0870 -1.0664
   67MOL0     H 9003   3.790   2.420   3.346 -0.4559  0.1512  0.9567
   67MOL0     H 9004   3.811   2.391   3.515 -3.1917 -0.7112  0.3502
   67MOL0     H 9005   3.866   2.295   3.141 -0.1625 -0.4282  2.4658
   67MOL0     H 9006   3.763   2.205   2.865  1.9230  4.0317  0.2291
   67MOL0     H 9007   3.927   2.254   2.914 -1.1341  2.0001 -1.7599
   67MOL0     H 9008   3.905   2.101   2.835 -1.9296  2.6510 -3.7141
   67MOL0     H 9009   3.767   1.830   2.625  0.7889 -0.7370  0.6188
   67MOL0     H 9010   3.756   1.629   2.497 -2.3984  0.3722 -0.3227
   67MOL0     H 9011   3.437   1.341   2.621 -1.3183  2.5565  0.1910
   67MOL0     H 9012   3.430   1.401   2.457  2.6846  1.2413 -2.1641
   67MOL0     H 9013   3.546   1.138   2.546 -1.1761  2.4681  2.4815
   67MOL0     H 9014   3.405   1.172   2.458 -1.9116  2.9550  6.0450
   67MOL0     H 9015   3.663   1.111   2.358  1.0173  0.9350  1.6125
   67MOL0     H 9016   3.667   1.283   2.333  1.6173 -1.4044 -0.9629
   67MOL0     H 9017   3.432   1.110   2.242 -0.5340  0.2064  0.2835
   67MOL0     H 9018   3.485   1.277   2.177  0.8851 -1.3738 -3.8237
   67MOL0     H 9019   3.578   0.997   2.153  2.4917  0.3330 -0.4145
   67MOL0     H 9020   3.703   1.123   2.144 -0.3507 -1.3918  1.1375
   67MOL0     H 9021   3.466   1.087   1.965 -0.6612  0.2147  3.3057
   67MOL0     H 9022   3.534   1.246   1.962  0.8974  1.8707  2.9510
   67MOL0     H 9023   3.704   1.000   1.895  1.8581  0.5607 -3.0520
   67MOL0     H 9024   3.748   1.169   1.882  0.3866  0.0562  0.7744
   67MOL0     H 9025   3.542   1.216   1.743  0.5237  0.0774 -0.3673
   67MOL0     H 9026   3.521   1.039   1.721 -1.1426  0.2462  1.1685
   67MOL0     H 9027   3.542   1.423   2.804  0.0440  1.3056  2.4696
   67MOL0     H 9028   3.543   1.609   2.937  1.8177 -0.6655  0.1935
   67MOL0     H 9029   3.717   1.825   3.185  0.6373  0.3413  5.4595
   67MOL0     H 9030   3.726   1.979   3.373 -0.7772  0.9401  0.2122
   67MOL0     H 9031   3.359   3.125   3.460 -1.0207 -2.1174 -1.7752
   67MOL0     H 9032   3.346   2.875   3.435 -0.5823 -0.6333 -0.1369
   67MOL0     H 9033   3.591   2.462   3.420  0.0065 -2.1733 -1.5763
   67MOL0     H 9034   3.553   2.272   3.302  2.7743  2.5416  1.1204
   67MOL0     H 9035   3.180   2.026   3.378  2.2477 -1.6080  0.4225
   67MOL0     H 9036   3.144   2.136   3.242  3.9585  3.1652  0.8259
   67MOL0     H 9037   3.205   1.959   3.079 -0.4057  3.3870  1.3671
   67MOL0     H 9038   3.131   1.876   3.207 -1.9800  1.4567 -0.4185
   67MOL0     H 9039   3.363   1.862   3.307 -0.7623  1.1784  0.5629
   67MOL0     H 9040   3.426   1.879   3.148 -0.0461  4.8156  2.1101
   67MOL0     H 9041   3.305   1.691   3.048  0.3431  2.2597 -0.8459
   67MOL0     H 9042   3.222   1.674   3.197  0.0589  0.7599 -0.3225
   67MOL0     H 9043   3.583   1.450   3.230 -3.9898 -3.2686 -2.7071
   67MOL0     H 9044   3.146   2.263   3.436 -0.4856  1.2853  0.9882
   67MOL0     H 9045   3.172   2.467   3.542  0.9132  0.6026  1.2494
   68MOL0     O 9046   8.968   8.509   0.558  0.2501  0.5777 -0.3053
   68MOL0     C 9047   8.937   8.392   0.537  0.4385  0.1977  0.0261
   68MOL0     O 9048   8.831   8.353   0.461 -0.7513 -0.1861  0.1881
   68MOL0     C 9049   8.761   8.456   0.412  0.2666  0.5925  0.6604
   68MOL0     C 9050   8.767   8.495   0.279  0.4244 -0.3013 -0.1721
   68MOL0     C 9051   8.686   8.602   0.231 -0.1820  0.0601  0.4039
   68MOL0     C 9052   8.605   8.670   0.322 -0.7361 -0.2139 -0.3057
   68MOL0     O 9053   8.526   8.782   0.295 -0.5921  0.9705  0.6118
   68MOL0     C 9054   8.560   8.867   0.181  0.1463 -0.3826 -0.1559
   68MOL0     C 9055   8.464   8.846   0.063 -0.0931 -0.0035 -0.4763
   68MOL0     C 9056   8.327   8.908   0.093 -0.4386  0.1975  0.3132
   68MOL0     C 9057   8.231   8.862  -0.018  0.3859  0.5735  0.6016
   68MOL0     C 9058   8.088   8.869   0.031  0.7096  0.1327 -1.1265
   68MOL0     C 9059   7.992   8.796  -0.072 -0.5853  0.5342 -0.2580
   68MOL0     C 9060   7.848   8.775  -0.008 -0.7102 -0.8472  0.0991
   68MOL0     C 9061   7.720   8.712  -0.082 -0.2285 -1.2412  0.1911
   68MOL0     N 9062   7.726   8.713  -0.227  0.3060  0.9416 -0.8720
   68MOL0     C 9063   7.731   8.818  -0.317  0.2774  0.9970  0.2343
   68MOL0     C 9064   7.748   8.746  -0.435  0.4965  0.3617 -0.5911
   68MOL0     C 9065   7.762   8.799  -0.577  0.8787  1.0925 -0.2246
   68MOL0     C 9066   7.643   8.896  -0.618 -0.2663 -0.5736  0.1901
   68MOL0     C 9067   7.685   9.032  -0.679  0.5475  0.1834 -0.4980
   68MOL0     C 9068   7.565   9.116  -0.719 -0.0024  0.0790 -0.4084
   68MOL0     O 9069   7.561   9.140  -0.864 -0.0878 -0.1747  0.8059
   68MOL0     C 9070   7.440   9.113  -0.922  0.0592  0.0761  0.0804
   68MOL0     C 9071   7.337   9.205  -0.934  0.5982  0.5160 -0.4593
   68MOL0     C 9072   7.212   9.169  -1.000 -0.2935  0.9173  0.8429
   68MOL0     C 9073   7.097   9.278  -0.984 -1.0457  0.1147 -0.5597
   68MOL0     C 9074   7.191   9.046  -1.068 -0.3043  0.5063 -0.2851
   68MOL0     C 9075   7.067   9.000  -1.126 -0.0419 -0.9044  0.1552
   68MOL0     O 9076   7.052   8.871  -1.161  0.0958  0.4020 -0.6778
   68MOL0     C 9077   6.939   8.848  -1.238  0.8652  0.0140 -0.3673
   68MOL0     C 9078   6.816   8.813  -1.176 -0.8760  0.0108  0.4370
   68MOL0     C 9079   6.702   8.790  -1.244 -0.7909  1.2559  0.5304
   68MOL0     C 9080   6.698   8.807  -1.385 -0.5744  0.0548 -0.8599
   68MOL0     O 9081   6.581   8.803  -1.457  0.6606  0.7262  0.4163
   68MOL0     C 9082   6.489   8.701  -1.423  0.3273 -0.3306 -1.3497
   68MOL0     C 9083   6.557   8.573  -1.441 -0.3473 -0.0390  0.9505
   68MOL0     C 9084   6.456   8.454  -1.448 -0.0329  0.1517 -0.6967
   68MOL0     C 9085   6.544   8.339  -1.495  0.2763  0.4218 -0.2986
   68MOL0     C 9086   6.476   8.205  -1.520  0.0125  0.1906 -0.3195
   68MOL0     C 9087   6.450   8.125  -1.390  0.5631  0.6898  0.8914
   68MOL0     C 9088   6.406   7.973  -1.421  0.1971 -0.6520 -0.7438
   68MOL0     C 9089   6.307   7.912  -1.312 -0.5186 -0.6907 -0.7267
   68MOL0    Cl 9090   6.187   7.806  -1.393  0.0414 -0.1536 -0.0482
   68MOL0     C 9091   6.824   8.830  -1.451  1.0479 -0.7570  0.2206
   68MOL0     C 9092   6.940   8.856  -1.372 -0.1947  1.1276  0.1434
   68MOL0     O 9093   6.975   9.079  -1.135 -0.3495  0.1434 -0.4117
   68MOL0     C 9094   7.302   8.950  -1.056 -0.3571  0.6114 -0.6242
   68MOL0     C 9095   7.417   8.993  -0.988 -0.0773  0.5354  0.8435
   68MOL0     N 9096   7.737   8.612  -0.414 -0.0269  0.1006  0.3965
   68MOL0     N 9097   7.729   8.594  -0.290  0.4410  0.7660 -1.1121
   68MOL0     C 9098   8.590   8.624   0.453 -0.3714 -0.0473  0.9779
   68MOL0     C 9099   8.672   8.521   0.501 -0.6603  0.4356 -0.0578
   68MOL0     C 9100   9.018   8.288   0.600 -0.6573 -0.2175 -0.2000
   68MOL0     C 9101   9.052   8.166   0.529 -0.4501 -0.1846 -0.2328
   68MOL0     C 9102   9.121   8.069   0.598  0.0214  0.0721  0.4150
   68MOL0     C 9103   9.141   8.076   0.742  0.5423  0.2729 -1.0748
   68MOL0     O 9104   9.186   7.965   0.813 -1.0875  0.1843  0.3597
   68MOL0     C 9105   9.292   7.882   0.750 -0.4553  0.0422 -0.9021
   68MOL0     C 9106   9.390   7.817   0.851 -0.6552 -0.0335 -0.4773
   68MOL0     C 9107   9.496   7.729   0.780 -0.0269  0.1407  1.1518
   68MOL0     C 9108   9.592   7.671   0.875  0.6001  0.8033 -0.4239
   68MOL0     C 9109   9.680   7.764   0.938 -1.2080 -0.1343  0.2187
   68MOL0     C 9110   9.754   7.836   1.001 -1.2676 -0.5898 -0.5213
   68MOL0     C 9111   9.103   8.193   0.814  0.2785  0.0779  0.5472
   68MOL0     C 9112   9.056   8.297   0.739  0.1809 -0.5970  0.7226
   68MOL0     H 9113   8.847   8.441   0.230  0.4042 -1.4882  1.0500
   68MOL0     H 9114   8.702   8.643   0.132 -1.8532  1.0893  0.5090
   68MOL0     H 9115   8.555   8.973   0.211 -1.6366 -0.5279  0.1604
   68MOL0     H 9116   8.667   8.863   0.160  0.6898  3.5306  0.9343
   68MOL0     H 9117   8.511   8.891  -0.025 -1.3532  0.4528 -0.9327
   68MOL0     H 9118   8.458   8.738   0.049  0.8925 -0.2438  0.7163
   68MOL0     H 9119   8.293   8.900   0.196 -1.2728  1.0169  0.1123
   68MOL0     H 9120   8.340   9.016   0.082 -0.6113  0.4247  2.1264
   68MOL0     H 9121   8.239   8.920  -0.110 -0.9419 -1.2831 -0.7520
   68MOL0     H 9122   8.248   8.757  -0.042  0.9104  0.9994 -0.9863
   68MOL0     H 9123   8.096   8.816   0.126  1.6604 -0.9831 -1.8024
   68MOL0     H 9124   8.052   8.971   0.048 -1.8212 -1.0238  1.2249
   68MOL0     H 9125   7.978   8.866  -0.156 -1.3504  1.8454  0.9065
   68MOL0     H 9126   8.016   8.696  -0.107 -0.8822  1.5643 -3.8916
   68MOL0     H 9127   7.869   8.733   0.091 -1.1265 -0.2432  0.4473
   68MOL0     H 9128   7.813   8.874   0.022  1.6285 -0.7043  2.7590
   68MOL0     H 9129   7.628   8.761  -0.047  0.0445 -0.6504  0.1028
   68MOL0     H 9130   7.705   8.611  -0.043  0.4188 -0.6215  2.1881
   68MOL0     H 9131   7.727   8.923  -0.288 -0.5882  1.1693 -0.4767
   68MOL0     H 9132   7.856   8.855  -0.583  1.0079  0.8826 -0.1558
   68MOL0     H 9133   7.756   8.711  -0.640 -0.4583 -1.0817  2.7174
   68MOL0     H 9134   7.586   8.921  -0.528 -0.2511  1.3087 -0.2994
   68MOL0     H 9135   7.591   8.846  -0.700  2.6592 -0.4826 -1.8666
   68MOL0     H 9136   7.750   9.010  -0.765  2.0890  0.1841  0.6156
   68MOL0     H 9137   7.749   9.091  -0.613  0.4758 -0.5699  0.2781
   68MOL0     H 9138   7.589   9.212  -0.671  2.1832 -0.0572 -1.1107
   68MOL0     H 9139   7.487   9.055  -0.673  2.6443 -2.0855  1.5353
   68MOL0     H 9140   7.350   9.297  -0.877  1.4488 -1.7680  3.4065
   68MOL0     H 9141   7.144   9.348  -0.915  0.4099 -1.7223  0.4203
   68MOL0     H 9142   7.077   9.329  -1.079  1.0793  1.3330 -0.4220
   68MOL0     H 9143   7.010   9.248  -0.926  0.0014  2.0620  2.1980
   68MOL0     H 9144   6.815   8.795  -1.069 -2.1095 -2.1968  0.1009
   68MOL0     H 9145   6.613   8.772  -1.185 -1.0636  2.4674  0.5309
   68MOL0     H 9146   6.467   8.691  -1.317  0.7266 -0.5808 -1.2879
   68MOL0     H 9147   6.393   8.716  -1.473 -0.2192  2.2127  0.2361
   68MOL0     H 9148   6.606   8.573  -1.539 -5.0920 -0.8103 -1.7487
   68MOL0     H 9149   6.638   8.555  -1.370 -1.0332  2.0490  2.3686
   68MOL0     H 9150   6.376   8.472  -1.520  0.1814 -0.6153 -1.1432
   68MOL0     H 9151   6.410   8.440  -1.350 -0.2652  1.0014 -0.6760
   68MOL0     H 9152   6.605   8.371  -1.579 -0.6384  3.8668  0.2272
   68MOL0     H 9153   6.621   8.328  -1.418 -0.2965 -0.3609  0.1774
   68MOL0     H 9154   6.545   8.148  -1.584 -2.2624  0.1386 -2.8772
   68MOL0     H 9155   6.384   8.212  -1.579 -1.0293 -0.2828  1.2102
   68MOL0     H 9156   6.547   8.120  -1.339  2.2758  1.4354 -2.0737
   68MOL0     H 9157   6.372   8.180  -1.336 -0.2212  0.7407 -0.2551
   68MOL0     H 9158   6.492   7.905  -1.426  2.2018  1.4020  2.3692
   68MOL0     H 9159   6.346   7.967  -1.512  1.4007  1.4908 -1.7505
   68MOL0     H 9160   6.257   7.994  -1.260  2.3263  2.6943 -2.8519
   68MOL0     H 9161   6.360   7.844  -1.245 -1.4533 -2.4766 -1.7122
   68MOL0     H 9162   6.827   8.838  -1.559  1.2669  0.2688  0.2911
   68MOL0     H 9163   7.029   8.882  -1.428  3.3748 -4.6142  2.2956
   68MOL0     H 9164   7.292   8.853  -1.103 -2.0560  1.0749 -1.2868
   68MOL0     H 9165   7.505   8.931  -1.007  0.4776  1.0041  1.8169
   68MOL0     H 9166   8.510   8.666   0.514 -1.2691  1.5127 -1.1446
   68MOL0     H 9167   8.669   8.497   0.606  1.5288 -0.7332 -0.1933
   68MOL0     H 9168   9.044   8.140   0.424  0.9878 -0.3742 -0.3181
   68MOL0     H 9169   9.154   7.973   0.559  1.7321  0.5654  0.5399
   68MOL0     H 9170   9.248   7.806   0.685  1.7009 -2.0129 -0.1164
   68MOL0     H 9171   9.354   7.941   0.682  0.4187 -2.9992 -2.9843
   68MOL0     H 9172   9.337   7.764   0.930 -1.0142  3.2275  1.6980
   68MOL0     H 9173   9.441   7.910   0.880 -1.0418  1.0127 -2.9109
   68MOL0     H 9174   9.557   7.785   0.708  1.2718  0.4769  2.4729
   68MOL0     H 9175   9.438   7.648   0.736  0.0653 -0.5851  2.3192
   68MOL0     H 9176   9.670   7.611   0.828  0.5158  1.4002 -1.3665
   68MOL0     H 9177   9.551   7.602   0.949  2.6578 -3.9650 -3.2607
   68MOL0     H 9178   9.808   7.892   1.075 -3.0157 -1.0840  1.2374
   68MOL0     H 9179   9.107   8.204   0.922  1.4512  0.9171  0.4328
   68MOL0     H 9180   9.027   8.387   0.791  2.2817  0.6022 -0.0508
   69MOL0     O 9181  10.231   7.344   4.638  0.2976 -0.2661  0.0167
   69MOL0     C 9182  10.334   7.282   4.612  0.2870  0.4884  0.5357
   69MOL0     O 9183  10.462   7.321   4.623 -0.4892 -0.1235 -0.5637
   69MOL0     C 9184  10.477   7.436   4.683  0.3660  0.3800 -0.2625
   69MOL0     C 9185  10.458   7.547   4.601 -0.1651  0.4657  0.1037
   69MOL0     C 9186  10.494   7.676   4.655  0.2821 -0.2535 -0.6411
   69MOL0     C 9187  10.551   7.682   4.782  0.5467  0.0969 -0.0869
   69MOL0     O 9188  10.596   7.799   4.840 -0.4040  0.5530 -0.1421
   69MOL0     C 9189  10.587   7.927   4.774 -0.4827  0.7647 -0.1017
   69MOL0     C 9190  10.669   8.013   4.862 -0.6446 -0.7309  0.3618
   69MOL0     C 9191  10.727   8.134   4.790 -1.3382 -0.1101  0.1704
   69MOL0     C 9192  10.831   8.216   4.872  0.4058 -0.3943 -0.1754
   69MOL0     C 9193  10.875   8.332   4.772  0.2277 -0.0836  0.4812
   69MOL0     C 9194  10.983   8.422   4.842 -0.7034  0.4421 -0.1865
   69MOL0     C 9195  11.048   8.521   4.746 -0.4017 -0.4899  0.2309
   69MOL0     C 9196  11.169   8.577   4.811 -0.1478 -0.6338  0.8058
   69MOL0     N 9197  11.241   8.683   4.736 -0.6506  0.7296 -0.1277
   69MOL0     C 9198  11.219   8.816   4.746 -0.1941  0.1539 -0.0542
   69MOL0     C 9199  11.295   8.862   4.641 -0.2442  0.2005  0.5018
   69MOL0     C 9200  11.299   9.004   4.601  0.3485 -0.2159 -0.0673
   69MOL0     C 9201  11.290   9.034   4.450  0.8610 -0.7799 -1.3940
   69MOL0     C 9202  11.196   9.153   4.437  0.2808 -0.0980  0.2926
   69MOL0     C 9203  11.244   9.297   4.460 -0.2393 -1.1073 -0.0984
   69MOL0     O 9204  11.321   9.308   4.580  0.7421 -0.4677  0.1094
   69MOL0     C 9205  11.303   9.406   4.669  0.6395  0.3832 -0.0005
   69MOL0     C 9206  11.348   9.382   4.794  0.2094  0.4341  0.6873
   69MOL0     C 9207  11.338   9.478   4.898 -0.0915 -0.4277 -0.5756
   69MOL0     C 9208  11.386   9.441   5.037 -0.1208 -0.9488  0.1075
   69MOL0     C 9209  11.275   9.603   4.867 -0.9279 -0.5623  0.7161
   69MOL0     C 9210  11.272   9.708   4.970  0.2086 -0.0027  0.4664
   69MOL0     O 9211  11.162   9.705   5.054 -0.3553  0.0991  0.5534
   69MOL0     C 9212  11.149   9.805   5.145  1.0892  0.4930  0.3598
   69MOL0     C 9213  11.018   9.870   5.149 -0.2305 -0.6316 -0.5056
   69MOL0     C 9214  10.983   9.950   5.262  0.1873 -0.3941  0.3401
   69MOL0     C 9215  11.081   9.996   5.353  0.1614  0.4290  0.3381
   69MOL0     O 9216  11.060  10.091   5.452 -0.0491  0.3691 -0.1033
   69MOL0     C 9217  10.964  10.192   5.416  0.1997  0.2850 -0.0609
   69MOL0     C 9218  10.836  10.171   5.504 -0.2360 -0.2867  0.7827
   69MOL0     C 9219  10.849  10.243   5.642  1.0166 -0.4199  0.4473
   69MOL0     C 9220  10.715  10.232   5.715 -1.1692  0.0425 -0.4361
   69MOL0     C 9221  10.728  10.271   5.871 -0.3669 -0.3200  0.8362
   69MOL0     C 9222  10.615  10.215   5.961 -0.2647 -0.3049  0.8507
   69MOL0     C 9223  10.584  10.068   5.953 -0.3108  0.2966 -0.4557
   69MOL0     C 9224  10.482  10.023   6.064  0.2494 -0.6908 -0.1959
   69MOL0    Cl 9225  10.341  10.123   6.077 -0.1973 -0.4515  0.2871
   69MOL0     C 9226  11.210   9.939   5.338  0.1740  0.2634  0.2430
   69MOL0     C 9227  11.234   9.842   5.238  0.1603 -0.7178 -0.5695
   69MOL0     O 9228  11.356   9.798   4.968  0.0287  1.2983  0.7290
   69MOL0     C 9229  11.222   9.619   4.740 -1.0099  0.1681  0.0782
   69MOL0     C 9230  11.243   9.523   4.637  0.0475  0.0413 -0.8273
   69MOL0     N 9231  11.367   8.762   4.589  0.5478 -1.2050 -0.0605
   69MOL0     N 9232  11.319   8.648   4.638  0.6754 -0.2615 -0.1015
   69MOL0     C 9233  10.558   7.567   4.865 -0.0937 -0.6752  0.4830
   69MOL0     C 9234  10.512   7.445   4.814 -0.7088 -0.4160  0.3837
   69MOL0     C 9235  10.317   7.144   4.546  0.1900 -0.4480 -0.4588
   69MOL0     C 9236  10.421   7.073   4.488 -0.9368 -0.3900 -0.2847
   69MOL0     C 9237  10.399   6.944   4.438 -0.0040  0.3792 -0.7300
   69MOL0     C 9238  10.280   6.877   4.441 -0.2578 -0.4654 -0.7228
   69MOL0     O 9239  10.256   6.761   4.383 -0.2248 -0.5339 -0.5473
   69MOL0     C 9240  10.290   6.648   4.474  0.1219  1.1337 -0.2744
   69MOL0     C 9241  10.296   6.516   4.396 -0.1325  0.1646  0.0228
   69MOL0     C 9242  10.414   6.528   4.286  0.5460 -0.1441 -0.5548
   69MOL0     C 9243  10.453   6.408   4.209 -0.2637  0.2424 -0.0497
   69MOL0     C 9244  10.347   6.335   4.141  0.7532 -0.2712 -0.9251
   69MOL0     C 9245  10.261   6.284   4.070 -0.2212 -0.3640  0.7134
   69MOL0     C 9246  10.175   6.953   4.501 -0.0140  0.5164  0.0149
   69MOL0     C 9247  10.181   7.088   4.552 -1.4365  0.3487  0.2074
   69MOL0     H 9248  10.437   7.548   4.495  1.2728  0.3512 -0.2005
   69MOL0     H 9249  10.467   7.765   4.599 -1.1790 -0.9365 -1.0869
   69MOL0     H 9250  10.630   7.922   4.674  0.8442 -0.8482  0.5021
   69MOL0     H 9251  10.490   7.975   4.756 -0.0430  0.9251 -2.2463
   69MOL0     H 9252  10.607   8.037   4.950 -2.6544  0.6516 -1.3198
   69MOL0     H 9253  10.755   7.953   4.894 -1.0061 -1.5964 -0.2408
   69MOL0     H 9254  10.786   8.098   4.706 -1.6839 -1.2220  0.3859
   69MOL0     H 9255  10.653   8.202   4.746  1.2071  1.7566 -1.5793
   69MOL0     H 9256  10.779   8.274   4.949 -0.0196  2.7345 -2.5958
   69MOL0     H 9257  10.908   8.147   4.907 -0.5556 -0.6023  1.6514
   69MOL0     H 9258  10.935   8.290   4.690 -2.0455  1.2633 -2.0475
   69MOL0     H 9259  10.800   8.396   4.724  0.2693 -0.5457 -0.2144
   69MOL0     H 9260  10.941   8.464   4.934  1.2462  0.1591  0.8636
   69MOL0     H 9261  11.055   8.348   4.877 -1.5209 -0.2901 -0.0006
   69MOL0     H 9262  11.068   8.471   4.651 -2.2154 -0.8204 -0.0257
   69MOL0     H 9263  10.968   8.590   4.720 -2.2492 -2.1570  1.1886
   69MOL0     H 9264  11.231   8.491   4.836  0.5062 -1.9868 -4.3196
   69MOL0     H 9265  11.134   8.629   4.900  2.1282  2.0638  0.2943
   69MOL0     H 9266  11.145   8.868   4.806 -1.6468  1.1453 -2.5422
   69MOL0     H 9267  11.216   9.054   4.652  1.7404  2.0817  0.0925
   69MOL0     H 9268  11.391   9.049   4.638 -0.3924  1.1782  0.1398
   69MOL0     H 9269  11.260   8.945   4.395 -0.5758 -2.0153  1.2513
   69MOL0     H 9270  11.383   9.057   4.396  1.3914  1.5404  0.3196
   69MOL0     H 9271  11.113   9.127   4.504 -1.4328 -0.4314 -1.8465
   69MOL0     H 9272  11.154   9.157   4.336  3.2287  2.4840 -1.0167
   69MOL0     H 9273  11.161   9.368   4.452 -0.9429 -1.5795  2.2541
   69MOL0     H 9274  11.299   9.313   4.366  0.1873 -0.1104  0.3160
   69MOL0     H 9275  11.414   9.299   4.818  1.4099  1.1729  0.0261
   69MOL0     H 9276  11.316   9.373   5.086  0.0012  0.1689  1.9179
   69MOL0     H 9277  11.480   9.387   5.026  1.6584  1.9640 -0.1363
   69MOL0     H 9278  11.407   9.516   5.114  3.2839 -2.1048  0.4725
   69MOL0     H 9279  10.941   9.836   5.080 -0.7403 -2.5171  0.9051
   69MOL0     H 9280  10.878   9.978   5.268  0.1433 -0.8583  2.4709
   69MOL0     H 9281  11.013  10.280   5.459 -2.8706  0.7642  2.9341
   69MOL0     H 9282  10.942  10.216   5.312 -0.0301 -0.3676 -0.1664
   69MOL0     H 9283  10.744  10.200   5.453  0.6006 -2.5171 -2.2930
   69MOL0     H 9284  10.820  10.063   5.516 -0.2037 -0.2780  0.9117
   69MOL0     H 9285  10.887  10.346   5.642 -1.6024  0.7093 -2.3346
   69MOL0     H 9286  10.918  10.186   5.704 -0.4477 -4.3069 -1.2123
   69MOL0     H 9287  10.642  10.299   5.668 -0.5509  1.7258  0.8987
   69MOL0     H 9288  10.675  10.133   5.693  1.6913 -0.6100 -3.3935
   69MOL0     H 9289  10.747  10.378   5.882  5.4687 -0.7980 -1.1487
   69MOL0     H 9290  10.822  10.230   5.910 -0.1057  1.2249  1.9184
   69MOL0     H 9291  10.661  10.242   6.056  0.3599 -0.4386  0.5878
   69MOL0     H 9292  10.521  10.262   5.929 -0.2654 -0.3682  0.7602
   69MOL0     H 9293  10.677  10.011   5.951  0.3766  0.9970  3.1789
   69MOL0     H 9294  10.547  10.045   5.853  3.6663 -0.3048 -1.9595
   69MOL0     H 9295  10.533  10.030   6.160  0.8663  1.3085 -0.6133
   69MOL0     H 9296  10.452   9.918   6.052 -2.0535 -0.0871 -0.3157
   69MOL0     H 9297  11.285   9.965   5.411  2.0917 -0.5214 -1.3490
   69MOL0     H 9298  11.338   9.815   5.255  0.6476  2.4327  3.0741
   69MOL0     H 9299  11.180   9.719   4.746 -2.0911 -0.3545  1.6224
   69MOL0     H 9300  11.211   9.550   4.537 -1.2974 -0.4227 -0.5383
   69MOL0     H 9301  10.606   7.572   4.962  0.1964  1.3100  0.2671
   69MOL0     H 9302  10.502   7.362   4.883 -0.1570  2.2402  3.9917
   69MOL0     H 9303  10.510   7.127   4.458 -3.1047  1.1970 -4.9463
   69MOL0     H 9304  10.489   6.905   4.393 -0.2437 -1.3604  0.2528
   69MOL0     H 9305  10.384   6.659   4.529  0.8302 -2.6759 -0.4889
   69MOL0     H 9306  10.204   6.642   4.541 -1.1381 -1.6255 -1.9934
   69MOL0     H 9307  10.197   6.492   4.357 -1.0075  3.5291 -0.0619
   69MOL0     H 9308  10.330   6.433   4.459  1.4006  0.5891 -0.1913
   69MOL0     H 9309  10.506   6.570   4.328  0.5829  2.5012 -2.9443
   69MOL0     H 9310  10.379   6.600   4.211  0.3892 -0.3295 -0.6626
   69MOL0     H 9311  10.504   6.334   4.271 -2.8259 -2.1152 -0.5593
   69MOL0     H 9312  10.535   6.443   4.146  2.5088 -3.6850  0.9394
   69MOL0     H 9313  10.211   6.230   3.992  0.0439  1.4770 -0.7877
   69MOL0     H 9314  10.074   6.913   4.503 -0.1371  0.6665 -1.6996
   69MOL0     H 9315  10.100   7.146   4.594 -2.6387 -1.6527  0.7982
   70MOL0     O 9316   2.852   3.962   1.101  0.1648  0.3451 -0.1409
   70MOL0     C 9317   2.929   3.864   1.098 -0.5191 -0.5780 -0.9672
   70MOL0     O 9318   3.062   3.869   1.117  0.5213  0.1509  0.4957
   70MOL0     C 9319   3.112   3.997   1.110  0.7816 -1.2759 -0.7332
   70MOL0     C 9320   3.132   4.070   1.226  0.6639 -0.1284  0.6513
   70MOL0     C 9321   3.179   4.201   1.212 -0.9822 -0.2277  1.0072
   70MOL0     C 9322   3.203   4.261   1.088  0.2634 -0.1578  0.2866
   70MOL0     O 9323   3.239   4.392   1.086 -0.5023 -0.4079  0.3259
   70MOL0     C 9324   3.366   4.426   1.136  0.0293 -0.0853  0.5629
   70MOL0     C 9325   3.342   4.544   1.229  0.5832 -0.8511 -0.2593
   70MOL0     C 9326   3.471   4.573   1.307  0.1041 -0.1584 -0.3115
   70MOL0     C 9327   3.493   4.727   1.354  1.1307  0.5424  0.0964
   70MOL0     C 9328   3.545   4.823   1.246  0.2093  0.1988  0.1328
   70MOL0     C 9329   3.701   4.791   1.238 -0.0082 -0.4829  0.0016
   70MOL0     C 9330   3.771   4.886   1.149  0.0008 -0.1797  1.3355
   70MOL0     C 9331   3.734   4.875   0.998  0.2705  0.0595 -0.3655
   70MOL0     N 9332   3.773   4.742   0.948  0.7432 -0.0978 -0.2542
   70MOL0     C 9333   3.694   4.626   0.929  0.0370  0.2794 -0.5959
   70MOL0     C 9334   3.783   4.532   0.885  0.5741 -0.5814 -0.6972
   70MOL0     C 9335   3.746   4.387   0.878 -0.2496  0.3075  0.1412
   70MOL0     C 9336   3.649   4.357   0.760 -0.7986  0.4937 -0.1330
   70MOL0     C 9337   3.563   4.236   0.780  0.0590  0.5835  0.1660
   70MOL0     C 9338   3.508   4.168   0.655 -0.5794 -0.8226  0.5445
   70MOL0     O 9339   3.598   4.120   0.553  0.7449  0.2833  0.7344
   70MOL0     C 9340   3.532   4.027   0.472 -0.6290 -0.3583  0.2523
   70MOL0     C 9341   3.427   4.066   0.386 -0.3405  0.9064 -0.1981
   70MOL0     C 9342   3.364   3.966   0.301 -0.3020 -0.8877  0.5995
   70MOL0     C 9343   3.255   4.024   0.211 -0.6987 -0.0685  0.6440
   70MOL0     C 9344   3.426   3.836   0.297  1.0443  0.2298  0.0434
   70MOL0     C 9345   3.386   3.732   0.206  0.9820  0.1985 -0.5967
   70MOL0     O 9346   3.463   3.625   0.217 -0.6186 -0.1727 -0.1322
   70MOL0     C 9347   3.447   3.520   0.128 -0.4936 -0.2453 -0.1057
   70MOL0     C 9348   3.393   3.524  -0.011  0.6582 -0.7146  0.0674
   70MOL0     C 9349   3.374   3.411  -0.070  0.5525 -0.4492  0.5156
   70MOL0     C 9350   3.413   3.287  -0.025  0.4610 -0.0345  0.5194
   70MOL0     O 9351   3.385   3.173  -0.100  0.1974  0.3180  0.3138
   70MOL0     C 9352   3.381   3.186  -0.243 -0.1762  0.3303  0.3846
   70MOL0     C 9353   3.397   3.038  -0.298 -0.6527 -0.7802 -0.6947
   70MOL0     C 9354   3.484   3.041  -0.422  0.4531 -0.4192 -1.3366
   70MOL0     C 9355   3.615   2.973  -0.406  0.5017 -0.9350 -0.1329
   70MOL0     C 9356   3.716   3.021  -0.512  0.0360  0.4576 -0.4518
   70MOL0     C 9357   3.659   3.020  -0.651 -0.1119  0.2020  0.2517
   70MOL0     C 9358   3.732   3.131  -0.732 -0.3426 -0.2448  0.3263
   70MOL0     C 9359   3.874   3.091  -0.774  0.5341  0.2614  0.9569
   70MOL0    Cl 9360   3.872   2.937  -0.875  0.6138  0.2216 -0.6818
   70MOL0     C 9361   3.474   3.282   0.101 -0.5022 -0.3396 -0.6495
   70MOL0     C 9362   3.484   3.396   0.183 -0.0765  1.4580  0.4360
   70MOL0     O 9363   3.290   3.747   0.128  0.0537 -0.7696  0.7008
   70MOL0     C 9364   3.530   3.808   0.391  0.7779  0.2182  0.5695
   70MOL0     C 9365   3.579   3.903   0.472  0.4652 -0.6350 -0.1908
   70MOL0     N 9366   3.902   4.595   0.852  1.1659 -0.2901 -0.8639
   70MOL0     N 9367   3.894   4.725   0.889 -0.2607  0.2642  0.3732
   70MOL0     C 9368   3.190   4.179   0.974  0.3464  1.8725  0.3972
   70MOL0     C 9369   3.148   4.053   0.984 -0.2643  0.5690 -1.1561
   70MOL0     C 9370   2.875   3.728   1.051 -0.4795 -0.2848  0.6618
   70MOL0     C 9371   2.740   3.689   1.070 -0.6222 -0.2999 -0.2407
   70MOL0     C 9372   2.689   3.564   1.013 -0.5970 -1.5016  0.5807
   70MOL0     C 9373   2.763   3.490   0.924 -0.6390 -0.6226  0.2803
   70MOL0     O 9374   2.724   3.390   0.846 -0.6599  1.2784 -0.3653
   70MOL0     C 9375   2.590   3.350   0.842 -0.5085 -0.2692 -0.2795
   70MOL0     C 9376   2.554   3.250   0.961 -0.1374 -0.2402 -0.3031
   70MOL0     C 9377   2.412   3.256   1.007  0.3342  0.1122  0.3071
   70MOL0     C 9378   2.319   3.177   0.904  0.5621  0.1549  0.9873
   70MOL0     C 9379   2.180   3.196   0.948 -0.5034 -0.4830  1.2438
   70MOL0     C 9380   2.061   3.216   0.990  0.1539 -0.3721  0.5413
   70MOL0     C 9381   2.897   3.522   0.916 -0.2054 -0.9898  0.3257
   70MOL0     C 9382   2.957   3.636   0.980  0.2860 -0.1516 -1.2092
   70MOL0     H 9383   3.120   4.033   1.327  0.4440  0.6516  0.9191
   70MOL0     H 9384   3.182   4.263   1.301  2.1593  1.3306 -0.0083
   70MOL0     H 9385   3.404   4.332   1.178 -3.5930 -1.7290  0.5544
   70MOL0     H 9386   3.438   4.453   1.058  0.0300  0.8979  0.8917
   70MOL0     H 9387   3.318   4.637   1.178 -1.3575 -1.3732 -0.3838
   70MOL0     H 9388   3.253   4.517   1.286 -2.2980 -0.6748 -4.2529
   70MOL0     H 9389   3.462   4.523   1.404  2.3456 -0.1930 -0.0789
   70MOL0     H 9390   3.552   4.528   1.249 -1.0941 -2.9459  0.0102
   70MOL0     H 9391   3.391   4.758   1.377  0.6443 -1.8205  1.5072
   70MOL0     H 9392   3.549   4.743   1.447  0.0271 -1.6664  1.2004
   70MOL0     H 9393   3.495   4.795   1.153  0.0821 -2.2621  0.8637
   70MOL0     H 9394   3.524   4.930   1.256  4.2065  1.6657 -3.7578
   70MOL0     H 9395   3.748   4.805   1.336  1.0572  3.4702 -0.8766
   70MOL0     H 9396   3.708   4.689   1.199  1.1051  0.2230 -1.7528
   70MOL0     H 9397   3.757   4.990   1.180 -0.6448 -0.3543  1.6475
   70MOL0     H 9398   3.877   4.862   1.159  0.3288  0.5837 -0.0716
   70MOL0     H 9399   3.769   4.963   0.943 -3.4179  1.8255 -0.1690
   70MOL0     H 9400   3.625   4.878   1.001  0.2877  2.6923  1.2775
   70MOL0     H 9401   3.592   4.604   0.956  0.3979 -2.0704 -0.9681
   70MOL0     H 9402   3.842   4.337   0.861 -0.3955 -0.1047  0.4985
   70MOL0     H 9403   3.697   4.349   0.969  0.0586  1.8366  0.9811
   70MOL0     H 9404   3.709   4.343   0.670  1.2527 -1.7000  1.4564
   70MOL0     H 9405   3.592   4.445   0.731 -1.2065 -0.0228 -0.9294
   70MOL0     H 9406   3.481   4.272   0.842  2.8967 -1.6628  5.9641
   70MOL0     H 9407   3.626   4.159   0.826  3.1933  1.0435 -2.8924
   70MOL0     H 9408   3.428   4.227   0.609  1.1745  0.0530 -1.5624
   70MOL0     H 9409   3.467   4.077   0.700  1.3059 -0.0274  4.2954
   70MOL0     H 9410   3.387   4.165   0.367 -0.9861  0.4604 -1.2200
   70MOL0     H 9411   3.283   4.030   0.106 -3.2938 -2.9784 -0.3891
   70MOL0     H 9412   3.172   3.955   0.231 -0.8356  0.2985  1.3788
   70MOL0     H 9413   3.233   4.127   0.239 -1.1591  1.2126 -3.8206
   70MOL0     H 9414   3.361   3.617  -0.058  0.7545 -2.2837 -3.3689
   70MOL0     H 9415   3.328   3.426  -0.167  2.4196 -0.5845 -0.4380
   70MOL0     H 9416   3.280   3.224  -0.262 -1.8607 -3.8206  0.0815
   70MOL0     H 9417   3.463   3.253  -0.272  0.4243 -0.0654  1.1180
   70MOL0     H 9418   3.440   2.971  -0.224 -0.3685  2.8128  2.7530
   70MOL0     H 9419   3.297   2.996  -0.313 -0.9625 -2.1080  3.7818
   70MOL0     H 9420   3.498   3.144  -0.456  1.9280 -0.1216  0.0790
   70MOL0     H 9421   3.434   2.978  -0.496  0.0157 -2.4621  0.6014
   70MOL0     H 9422   3.649   2.991  -0.304 -0.9598 -0.2001  0.2504
   70MOL0     H 9423   3.596   2.868  -0.428 -2.0890 -1.1388  2.4621
   70MOL0     H 9424   3.810   2.965  -0.505 -0.8493 -1.3562 -2.0018
   70MOL0     H 9425   3.743   3.120  -0.475 -1.0936  0.1420  1.3695
   70MOL0     H 9426   3.691   2.923  -0.691  0.2633  1.8882 -4.1315
   70MOL0     H 9427   3.550   3.034  -0.658  0.1367  1.7328 -1.0290
   70MOL0     H 9428   3.734   3.231  -0.689 -3.1614 -0.5009  1.2469
   70MOL0     H 9429   3.674   3.139  -0.825 -0.4650 -1.1517  0.3132
   70MOL0     H 9430   3.947   3.082  -0.693  0.1816 -1.3098  1.1399
   70MOL0     H 9431   3.906   3.170  -0.843  0.5662 -0.9169 -0.4280
   70MOL0     H 9432   3.501   3.182   0.135 -1.2223 -1.0865 -2.1535
   70MOL0     H 9433   3.519   3.374   0.283  0.8177  0.2052 -0.1222
   70MOL0     H 9434   3.556   3.703   0.402 -1.0388 -0.3791 -0.3168
   70MOL0     H 9435   3.652   3.873   0.548  1.9672  1.6430 -0.6213
   70MOL0     H 9436   3.200   4.227   0.877 -1.0870 -0.1391 -0.8275
   70MOL0     H 9437   3.150   3.984   0.900 -0.0287 -3.8882  2.1219
   70MOL0     H 9438   2.671   3.754   1.123 -0.8902  0.4520 -1.4776
   70MOL0     H 9439   2.584   3.541   1.028 -0.6543 -1.4258  0.2995
   70MOL0     H 9440   2.530   3.441   0.843 -1.6189 -0.9680  0.7337
   70MOL0     H 9441   2.577   3.294   0.749 -0.7098 -4.0441  1.7808
   70MOL0     H 9442   2.612   3.265   1.052 -0.1784  0.7087 -0.4240
   70MOL0     H 9443   2.575   3.147   0.928  2.4022 -0.2291  1.0619
   70MOL0     H 9444   2.372   3.358   1.013 -0.0851 -0.0444  0.2140
   70MOL0     H 9445   2.406   3.221   1.111 -1.1298 -0.4799  0.0555
   70MOL0     H 9446   2.345   3.071   0.899  0.3033  0.1454 -0.4879
   70MOL0     H 9447   2.334   3.231   0.810 -0.2897  0.6847  1.1510
   70MOL0     H 9448   1.960   3.228   1.023  0.0541  1.6830 -0.3889
   70MOL0     H 9449   2.956   3.473   0.839 -2.8838 -1.2738 -1.6994
   70MOL0     H 9450   3.064   3.643   0.995  0.4075 -1.7088 -1.1976
   71MOL0     O 9451  10.936   1.959   2.419  0.7648 -0.3181  0.0635
   71MOL0     C 9452  10.873   1.966   2.314 -0.1406  0.8986 -0.2721
   71MOL0     O 9453  10.887   2.067   2.220 -0.1087 -0.4584 -0.5437
   71MOL0     C 9454  10.990   2.159   2.253  0.3195  0.9627  0.2227
   71MOL0     C 9455  10.972   2.294   2.271  0.1980 -0.7906  0.5422
   71MOL0     C 9456  11.083   2.384   2.282  0.2694  0.5766 -0.3387
   71MOL0     C 9457  11.211   2.343   2.274 -1.0518 -0.7279 -0.1893
   71MOL0     O 9458  11.304   2.446   2.291 -0.1839 -0.1655  0.3995
   71MOL0     C 9459  11.444   2.413   2.297 -1.3043 -0.6105  0.2817
   71MOL0     C 9460  11.491   2.363   2.433 -0.0848  0.0714 -0.4442
   71MOL0     C 9461  11.463   2.219   2.474 -0.0741 -0.0026 -0.0301
   71MOL0     C 9462  11.536   2.175   2.602  0.7199  0.4352  0.4062
   71MOL0     C 9463  11.492   2.229   2.738 -0.4962  1.4153 -0.4981
   71MOL0     C 9464  11.351   2.167   2.763 -0.9869  0.6741 -0.2384
   71MOL0     C 9465  11.302   2.220   2.901  0.4381 -0.2516  0.8082
   71MOL0     C 9466  11.179   2.134   2.946 -0.7336  0.2631  0.8582
   71MOL0     N 9467  11.113   2.195   3.066  0.7633  0.7424  0.1370
   71MOL0     C 9468  11.044   2.322   3.062 -1.0541  0.0068 -0.2407
   71MOL0     C 9469  10.969   2.322   3.167  0.8511 -0.6108 -1.2032
   71MOL0     C 9470  10.872   2.441   3.188 -0.9338 -0.4813 -0.3448
   71MOL0     C 9471  10.734   2.399   3.225 -0.0852  0.0999 -0.8236
   71MOL0     C 9472  10.645   2.359   3.107 -0.5844  0.2219  0.2789
   71MOL0     C 9473  10.695   2.238   3.025  1.0566 -0.6159  0.1592
   71MOL0     O 9474  10.591   2.220   2.918  0.2267 -0.0541 -0.2410
   71MOL0     C 9475  10.554   2.092   2.867 -0.1991  0.7919  0.1233
   71MOL0     C 9476  10.577   1.970   2.931  0.0630 -0.9694  0.5306
   71MOL0     C 9477  10.544   1.847   2.862  0.4062  0.7000 -0.4422
   71MOL0     C 9478  10.559   1.723   2.953 -0.0648 -0.0458  0.3825
   71MOL0     C 9479  10.482   1.836   2.736 -0.0376 -0.9117 -0.1664
   71MOL0     C 9480  10.440   1.717   2.658 -0.4295  0.2411 -0.3932
   71MOL0     O 9481  10.493   1.599   2.694  0.2738 -0.0007 -0.3200
   71MOL0     C 9482  10.409   1.492   2.658 -0.6353  0.4348 -0.3927
   71MOL0     C 9483  10.289   1.494   2.717  0.4047  0.2429 -0.0189
   71MOL0     C 9484  10.196   1.390   2.695  0.4042  0.1575  0.3264
   71MOL0     C 9485  10.232   1.269   2.625  0.3291 -0.4638  0.3986
   71MOL0     O 9486  10.128   1.177   2.615  0.2800  0.0988 -0.3209
   71MOL0     C 9487  10.147   1.087   2.504 -0.0409 -0.0767 -0.1259
   71MOL0     C 9488  10.120   1.145   2.357  0.0633 -0.1726  0.3880
   71MOL0     C 9489   9.989   1.213   2.335  0.1015 -0.0148 -0.1116
   71MOL0     C 9490   9.971   1.239   2.174  0.2849  0.7912  0.2343
   71MOL0     C 9491   9.870   1.352   2.155  0.8084 -0.4046  0.3011
   71MOL0     C 9492   9.763   1.315   2.053  0.9679 -0.9245  0.2775
   71MOL0     C 9493   9.669   1.207   2.102  0.2806  0.0216 -0.6958
   71MOL0     C 9494   9.537   1.185   2.019  0.5198 -0.3312 -0.1902
   71MOL0    Cl 9495   9.452   1.348   2.027  0.0111  0.3002 -0.5175
   71MOL0     C 9496  10.365   1.260   2.588 -0.1704 -0.3094 -0.2747
   71MOL0     C 9497  10.444   1.372   2.596 -1.1993  0.0428 -0.0607
   71MOL0     O 9498  10.357   1.744   2.567  0.1154  0.4570  0.4708
   71MOL0     C 9499  10.452   1.966   2.684 -0.6358 -0.4765 -0.7045
   71MOL0     C 9500  10.492   2.087   2.741 -0.4709  0.4221  0.0590
   71MOL0     N 9501  10.982   2.196   3.237 -0.0863  0.5915 -0.7331
   71MOL0     N 9502  11.068   2.120   3.173  0.4575  0.7098  0.9742
   71MOL0     C 9503  11.241   2.203   2.253 -0.3422 -0.8841 -0.5139
   71MOL0     C 9504  11.131   2.117   2.241  0.3239  0.5974  0.5502
   71MOL0     C 9505  10.779   1.860   2.269 -0.3822 -0.2052 -0.8513
   71MOL0     C 9506  10.747   1.843   2.132  0.2572  0.0595 -0.6168
   71MOL0     C 9507  10.652   1.752   2.095 -0.8048  0.1309 -0.5263
   71MOL0     C 9508  10.599   1.660   2.188 -0.5928 -0.0206  0.2082
   71MOL0     O 9509  10.495   1.571   2.157  0.4947  0.0646  0.9948
   71MOL0     C 9510  10.390   1.557   2.253 -1.0474  0.0701  0.1125
   71MOL0     C 9511  10.259   1.548   2.180  0.1840 -0.5060  0.9389
   71MOL0     C 9512  10.139   1.591   2.268 -0.1070  0.4523 -0.3039
   71MOL0     C 9513  10.129   1.745   2.293 -0.2532 -0.7437  0.2168
   71MOL0     C 9514  10.089   1.804   2.163 -0.4528 -0.4147  0.5212
   71MOL0     C 9515  10.045   1.824   2.052  0.0306  1.0338 -0.1074
   71MOL0     C 9516  10.636   1.670   2.319  0.2134 -0.1677 -0.0134
   71MOL0     C 9517  10.721   1.773   2.362  0.0152  0.5878  0.2019
   71MOL0     H 9518  10.869   2.326   2.271 -0.8142 -3.4464 -2.8259
   71MOL0     H 9519  11.068   2.490   2.298 -2.8015  0.1798 -0.1024
   71MOL0     H 9520  11.472   2.347   2.215 -0.4428  1.1685 -0.9133
   71MOL0     H 9521  11.496   2.508   2.280 -0.8409 -0.3637  2.6989
   71MOL0     H 9522  11.600   2.374   2.431 -0.0902  0.1195 -0.4677
   71MOL0     H 9523  11.456   2.433   2.510  0.8807  0.6918 -0.5515
   71MOL0     H 9524  11.355   2.201   2.468  0.4072 -3.1395 -0.7228
   71MOL0     H 9525  11.502   2.149   2.400 -1.1082 -4.4355  3.2114
   71MOL0     H 9526  11.540   2.066   2.602 -1.9119  0.2793  1.1632
   71MOL0     H 9527  11.643   2.198   2.592  0.5622  1.1626  0.2942
   71MOL0     H 9528  11.549   2.189   2.823 -0.7457  1.7575 -0.1647
   71MOL0     H 9529  11.506   2.337   2.751 -0.7124  1.3371  0.4352
   71MOL0     H 9530  11.277   2.198   2.688 -1.2735  2.2004  0.6369
   71MOL0     H 9531  11.345   2.058   2.763 -1.2939  0.6724  0.9853
   71MOL0     H 9532  11.386   2.215   2.971  1.1334 -1.4120 -0.0630
   71MOL0     H 9533  11.276   2.326   2.891 -0.8964 -0.5730  0.5920
   71MOL0     H 9534  11.202   2.031   2.974  2.9157  0.6368 -0.2407
   71MOL0     H 9535  11.109   2.132   2.862  0.8477  1.6492 -0.5877
   71MOL0     H 9536  11.064   2.409   2.999 -0.1333  0.4708  0.6665
   71MOL0     H 9537  10.913   2.516   3.255  0.1378 -1.7499  0.4705
   71MOL0     H 9538  10.854   2.492   3.092  0.3876  2.1359  0.7234
   71MOL0     H 9539  10.679   2.484   3.267 -2.0391 -1.4162 -0.1459
   71MOL0     H 9540  10.739   2.324   3.305 -1.3628 -0.3851 -1.1745
   71MOL0     H 9541  10.620   2.445   3.044 -3.9710  0.5178  1.8011
   71MOL0     H 9542  10.544   2.335   3.143 -1.4732  1.1715 -1.4372
   71MOL0     H 9543  10.712   2.150   3.088  2.3974 -0.5634 -0.1028
   71MOL0     H 9544  10.788   2.259   2.973  0.4799 -0.9773 -1.0444
   71MOL0     H 9545  10.599   1.977   3.037 -0.0501 -0.5925  0.5332
   71MOL0     H 9546  10.463   1.673   2.967 -0.0019 -1.3140 -2.9219
   71MOL0     H 9547  10.622   1.647   2.907  1.5591  1.5262 -0.1206
   71MOL0     H 9548  10.601   1.756   3.049 -1.0898 -0.6707  1.0687
   71MOL0     H 9549  10.252   1.575   2.779  1.2155 -0.5702  1.5886
   71MOL0     H 9550  10.097   1.392   2.739  0.0578 -0.0868 -0.4112
   71MOL0     H 9551  10.248   1.047   2.500 -0.2910 -0.6116 -1.5243
   71MOL0     H 9552  10.076   1.008   2.531  1.9810 -1.4387  1.4404
   71MOL0     H 9553  10.193   1.224   2.340  0.2766 -0.2909  0.7402
   71MOL0     H 9554  10.136   1.059   2.292 -0.5891  0.2165 -0.2980
   71MOL0     H 9555  10.004   1.311   2.383  1.1853  0.7525 -1.9190
   71MOL0     H 9556   9.905   1.160   2.381  1.5974  0.2348  3.2403
   71MOL0     H 9557  10.061   1.257   2.114 -0.6291  1.0172 -1.1145
   71MOL0     H 9558   9.927   1.147   2.136 -0.3482  0.1308  2.3989
   71MOL0     H 9559   9.898   1.450   2.117 -0.0683  0.4398  1.7135
   71MOL0     H 9560   9.821   1.379   2.250 -1.3135  0.3787 -0.9410
   71MOL0     H 9561   9.705   1.402   2.024  0.6175 -0.7739  1.3939
   71MOL0     H 9562   9.819   1.284   1.964 -0.8803  2.2453 -2.1982
   71MOL0     H 9563   9.644   1.231   2.206  3.4943  1.6681 -0.1619
   71MOL0     H 9564   9.726   1.113   2.105 -0.5862 -0.5195 -0.9333
   71MOL0     H 9565   9.475   1.106   2.062 -0.4361  1.2642  1.5452
   71MOL0     H 9566   9.556   1.158   1.915 -2.3603  0.9696 -1.1447
   71MOL0     H 9567  10.418   1.175   2.546  2.3941  1.2726 -0.4688
   71MOL0     H 9568  10.539   1.369   2.543 -1.3706 -0.1925 -0.3607
   71MOL0     H 9569  10.392   1.982   2.595  1.2449  2.4920 -1.5862
   71MOL0     H 9570  10.476   2.177   2.683 -0.4678 -0.3952 -1.2608
   71MOL0     H 9571  11.341   2.162   2.241 -0.4718 -1.2691 -0.2900
   71MOL0     H 9572  11.140   2.015   2.204  1.2370  1.2626 -1.1664
   71MOL0     H 9573  10.796   1.900   2.053 -0.4324 -1.1929 -2.0005
   71MOL0     H 9574  10.625   1.754   1.990 -1.8041  1.6198 -0.2594
   71MOL0     H 9575  10.403   1.461   2.303 -0.4673 -0.5530 -1.1667
   71MOL0     H 9576  10.398   1.639   2.325  4.2874  0.2588 -0.2983
   71MOL0     H 9577  10.238   1.451   2.134 -3.3785  0.6747 -0.2928
   71MOL0     H 9578  10.265   1.611   2.091  2.0335  0.2295  1.5459
   71MOL0     H 9579  10.144   1.537   2.363 -0.5120 -1.5848 -1.3947
   71MOL0     H 9580  10.043   1.555   2.231 -0.1385 -0.5340  0.6890
   71MOL0     H 9581  10.224   1.779   2.335 -1.1373  3.5622 -0.7952
   71MOL0     H 9582  10.055   1.773   2.368 -0.4933 -0.0735 -0.2623
   71MOL0     H 9583  10.008   1.848   1.954  1.3659 -0.3704 -1.0021
   71MOL0     H 9584  10.596   1.591   2.382  1.4664 -1.0377 -0.2652
   71MOL0     H 9585  10.755   1.777   2.465  2.3256 -1.6826 -0.3607
   72MOL0     O 9586  10.047   9.067   3.591  0.1970  0.2638  0.3974
   72MOL0     C 9587  10.091   9.144   3.677 -0.5283  0.1152  0.0950
   72MOL0     O 9588  10.223   9.175   3.699 -0.3849  0.2617  0.8876
   72MOL0     C 9589  10.324   9.124   3.613  0.8579 -0.6964  0.5492
   72MOL0     C 9590  10.357   9.194   3.499  1.1852  0.3708  0.2092
   72MOL0     C 9591  10.473   9.153   3.428  0.2993  0.0088  0.2610
   72MOL0     C 9592  10.545   9.041   3.462 -0.2944 -0.8963  0.8044
   72MOL0     O 9593  10.651   8.993   3.393 -0.5005 -0.2425  0.0026
   72MOL0     C 9594  10.698   9.073   3.282 -0.4095  0.1744 -0.0039
   72MOL0     C 9595  10.838   9.024   3.246 -0.1190  0.1491  0.5049
   72MOL0     C 9596  10.944   9.123   3.291 -0.2798  0.8440 -0.8404
   72MOL0     C 9597  10.942   9.254   3.204  1.2048 -0.0473  0.2593
   72MOL0     C 9598  11.054   9.343   3.241  0.0668  0.6057 -0.3977
   72MOL0     C 9599  11.056   9.473   3.166  0.7371  0.2222  0.6502
   72MOL0     C 9600  11.165   9.570   3.213 -0.1122  1.3261  0.7334
   72MOL0     C 9601  11.198   9.670   3.104 -0.0998 -0.1278  0.7279
   72MOL0     N 9602  11.100   9.776   3.117  0.0541 -0.0179 -0.4602
   72MOL0     C 9603  11.015   9.822   3.016  0.7616 -0.2500  0.1097
   72MOL0     C 9604  10.989   9.952   3.054 -0.8220  0.8002  0.2522
   72MOL0     C 9605  10.918  10.051   2.963  0.1773 -0.0770 -1.0917
   72MOL0     C 9606  11.015  10.150   2.886  0.0430 -0.8220 -0.2395
   72MOL0     C 9607  11.125  10.212   2.963  1.0245 -0.1119 -0.9873
   72MOL0     C 9608  11.254  10.134   2.956  1.1462  1.5432  0.4914
   72MOL0     O 9609  11.368  10.216   2.962 -0.9972 -0.0868 -1.1458
   72MOL0     C 9610  11.428  10.259   3.080  0.9725  0.8945  1.0150
   72MOL0     C 9611  11.370  10.233   3.205  0.0655  0.5426  0.4572
   72MOL0     C 9612  11.442  10.269   3.321 -0.0227 -0.6338 -0.1331
   72MOL0     C 9613  11.360  10.258   3.441 -0.3905 -0.6515  0.2107
   72MOL0     C 9614  11.580  10.309   3.316 -0.1342 -1.3595 -0.9362
   72MOL0     C 9615  11.661  10.350   3.432  0.6550  0.4168 -0.6759
   72MOL0     O 9616  11.788  10.312   3.418 -0.1855 -0.4656  0.5014
   72MOL0     C 9617  11.869  10.293   3.525 -0.0540  0.9558  0.8638
   72MOL0     C 9618  11.824  10.228   3.643 -1.0843 -0.3883 -0.0100
   72MOL0     C 9619  11.915  10.225   3.756  0.0434 -0.1204  0.4788
   72MOL0     C 9620  12.053  10.253   3.740 -0.0032  0.2692  0.7622
   72MOL0     O 9621  12.137  10.224   3.848 -0.2289 -0.2961  0.1625
   72MOL0     C 9622  12.221  10.333   3.892 -0.1214  0.6819 -0.7577
   72MOL0     C 9623  12.137  10.455   3.935 -0.7221  0.2630  0.2517
   72MOL0     C 9624  12.063  10.428   4.071  0.4040  0.1058  0.5871
   72MOL0     C 9625  12.157  10.474   4.186  0.4063  0.2012 -0.0987
   72MOL0     C 9626  12.123  10.373   4.298 -0.0002 -0.2376 -0.4045
   72MOL0     C 9627  12.160  10.433   4.433 -0.7019 -0.5908  0.0959
   72MOL0     C 9628  12.114  10.358   4.551  0.2342  0.9845 -0.1150
   72MOL0     C 9629  12.180  10.400   4.680 -0.6293  0.0254  0.7739
   72MOL0    Cl 9630  12.076  10.338   4.804  0.4104  0.2663 -0.1017
   72MOL0     C 9631  12.097  10.295   3.612 -0.2068 -0.2165 -0.0566
   72MOL0     C 9632  12.000  10.320   3.514  0.2463  0.1517  0.1960
   72MOL0     O 9633  11.601  10.400   3.535 -0.1262 -0.3733 -0.1336
   72MOL0     C 9634  11.635  10.334   3.187  0.1157  0.8945 -0.2328
   72MOL0     C 9635  11.559  10.304   3.074 -0.3630  0.1220  0.9093
   72MOL0     N 9636  11.052   9.973   3.175 -0.2632  0.3957 -0.6476
   72MOL0     N 9637  11.115   9.868   3.213  0.5729  0.2098 -0.3695
   72MOL0     C 9638  10.499   8.969   3.575 -0.0847 -0.4127 -0.5630
   72MOL0     C 9639  10.393   9.012   3.653  0.8366 -0.1424  0.6268
   72MOL0     C 9640  10.003   9.230   3.757 -0.3582 -0.8723 -0.4012
   72MOL0     C 9641  10.043   9.339   3.834  0.7456  0.1555  0.1067
   72MOL0     C 9642   9.957   9.415   3.916  0.0513  0.1529 -0.0599
   72MOL0     C 9643   9.819   9.390   3.919 -0.7947 -0.0797 -0.3472
   72MOL0     O 9644   9.743   9.465   4.009  0.6235 -0.4637  0.9065
   72MOL0     C 9645   9.627   9.530   3.961 -0.1657 -0.0545 -1.1658
   72MOL0     C 9646   9.658   9.624   3.845 -0.0457  0.5635  0.2534
   72MOL0     C 9647   9.734   9.756   3.888 -0.0294 -0.5715  0.9863
   72MOL0     C 9648   9.780   9.852   3.770  0.3661 -0.3886  0.8126
   72MOL0     C 9649   9.902   9.929   3.809 -0.0903  0.1786  0.1755
   72MOL0     C 9650   9.999   9.992   3.848  0.1575  1.3632  0.1666
   72MOL0     C 9651   9.780   9.283   3.846 -0.7667 -0.6975 -0.2622
   72MOL0     C 9652   9.870   9.200   3.769 -0.2547 -0.1582 -0.0748
   72MOL0     H 9653  10.317   9.293   3.477  1.3220  0.6043  0.9936
   72MOL0     H 9654  10.506   9.220   3.349 -1.6829  3.8643  2.3807
   72MOL0     H 9655  10.630   9.053   3.198  0.6762 -0.7377 -0.6902
   72MOL0     H 9656  10.712   9.173   3.324 -0.5979  0.2194 -0.0496
   72MOL0     H 9657  10.848   8.919   3.276 -3.0664 -1.1425 -2.4209
   72MOL0     H 9658  10.836   9.016   3.137  1.2929 -4.3302  0.5797
   72MOL0     H 9659  10.918   9.157   3.392  1.4791 -3.1504  1.2091
   72MOL0     H 9660  11.045   9.083   3.298 -0.7804 -0.2135  1.0634
   72MOL0     H 9661  10.946   9.235   3.096 -3.2731  1.5550 -0.4283
   72MOL0     H 9662  10.846   9.306   3.214  0.8293 -0.6573 -0.1279
   72MOL0     H 9663  11.060   9.347   3.350 -2.9681 -1.4296 -0.0220
   72MOL0     H 9664  11.137   9.278   3.211 -0.9702 -1.6170  1.2855
   72MOL0     H 9665  11.054   9.451   3.059  1.8271 -1.6361  0.9703
   72MOL0     H 9666  10.958   9.519   3.183 -0.0968 -1.6833  1.2537
   72MOL0     H 9667  11.129   9.622   3.302 -1.2676  1.0782  0.4303
   72MOL0     H 9668  11.254   9.512   3.238 -1.2289 -2.0120 -2.1538
   72MOL0     H 9669  11.167   9.624   3.010 -2.9590  0.1251  1.4416
   72MOL0     H 9670  11.299   9.711   3.101 -0.3254  0.4664 -3.2056
   72MOL0     H 9671  11.001   9.777   2.918  0.7400 -0.3570  0.1616
   72MOL0     H 9672  10.848  10.007   2.892 -3.0614  3.7234 -0.6044
   72MOL0     H 9673  10.854  10.123   3.015  0.6547  0.4331 -1.1986
   72MOL0     H 9674  10.967  10.235   2.838  4.7335  0.5745 -3.1630
   72MOL0     H 9675  11.060  10.096   2.803  1.6103 -0.6723  0.4752
   72MOL0     H 9676  11.096  10.238   3.065  0.3428  4.6147 -2.1332
   72MOL0     H 9677  11.142  10.312   2.921  0.3043 -0.0967 -1.2507
   72MOL0     H 9678  11.255  10.072   2.865  1.4220  1.9029  0.2469
   72MOL0     H 9679  11.250  10.060   3.037 -0.7493 -2.4959 -2.8763
   72MOL0     H 9680  11.270  10.190   3.202  0.1341  0.4394 -1.7425
   72MOL0     H 9681  11.274  10.192   3.431  0.9233 -2.2720 -1.0578
   72MOL0     H 9682  11.410  10.212   3.526 -1.7403  0.3032  1.5733
   72MOL0     H 9683  11.312  10.352   3.470 -0.1118  0.2175 -1.9412
   72MOL0     H 9684  11.720  10.197   3.645 -0.5822 -2.1405  1.6839
   72MOL0     H 9685  11.891  10.198   3.858  2.2185 -1.7580  0.6513
   72MOL0     H 9686  12.272  10.299   3.983 -1.5528 -0.9650 -0.5150
   72MOL0     H 9687  12.295  10.348   3.813  1.6502 -0.0415  0.6720
   72MOL0     H 9688  12.211  10.534   3.950  0.5998 -0.6346 -1.2120
   72MOL0     H 9689  12.067  10.484   3.856  1.4021  0.3888 -1.6830
   72MOL0     H 9690  12.048  10.320   4.074 -0.5358  0.2362  0.8444
   72MOL0     H 9691  11.963  10.470   4.087  0.0028 -1.4739  2.6969
   72MOL0     H 9692  12.262  10.474   4.156  0.2619  2.1026 -0.6843
   72MOL0     H 9693  12.136  10.578   4.210 -1.4649  0.1093 -1.1403
   72MOL0     H 9694  12.175  10.277   4.291  0.4093 -0.2947  2.3201
   72MOL0     H 9695  12.014  10.367   4.302 -0.2035  2.7174  1.2578
   72MOL0     H 9696  12.269  10.427   4.440 -0.6085 -0.3361 -0.9437
   72MOL0     H 9697  12.132  10.538   4.449  0.7832  0.1218 -1.6893
   72MOL0     H 9698  12.097  10.251   4.531  3.6620  0.2024  0.4568
   72MOL0     H 9699  12.010  10.390   4.557  0.3748  1.5496 -0.5579
   72MOL0     H 9700  12.206  10.505   4.688 -0.8828  0.2501 -0.9258
   72MOL0     H 9701  12.275  10.348   4.698 -0.6939  0.2481  1.8187
   72MOL0     H 9702  12.205  10.307   3.607  0.0491 -1.7437  0.9892
   72MOL0     H 9703  12.025  10.354   3.414  2.5697 -2.1719 -0.1315
   72MOL0     H 9704  11.731  10.383   3.175 -0.7180  2.6755  0.1183
   72MOL0     H 9705  11.606  10.319   2.978  1.6587 -1.8603  1.5155
   72MOL0     H 9706  10.547   8.878   3.607  1.1523  1.3774  3.3405
   72MOL0     H 9707  10.371   8.971   3.751  1.1518  2.5578  1.9153
   72MOL0     H 9708  10.144   9.378   3.831  0.3770  1.8042  3.5866
   72MOL0     H 9709   9.990   9.494   3.982 -0.4491  0.8506 -0.6151
   72MOL0     H 9710   9.553   9.460   3.919  0.8359 -1.6070 -0.4092
   72MOL0     H 9711   9.581   9.599   4.032  0.4880 -0.0121 -0.7837
   72MOL0     H 9712   9.565   9.654   3.797 -0.8325 -1.1920  0.5891
   72MOL0     H 9713   9.723   9.580   3.768 -0.2571 -1.2993  1.0749
   72MOL0     H 9714   9.825   9.728   3.941  1.3305  0.3305 -0.7959
   72MOL0     H 9715   9.672   9.807   3.962  2.1401  2.2129  1.0142
   72MOL0     H 9716   9.694   9.911   3.736  1.6747  1.0648 -0.1023
   72MOL0     H 9717   9.825   9.798   3.686 -1.8996 -2.5088  0.8453
   72MOL0     H 9718  10.093  10.036   3.875  0.3846  0.9183  0.1050
   72MOL0     H 9719   9.679   9.245   3.850  0.2665 -3.5902  1.1753
   72MOL0     H 9720   9.824   9.125   3.707  0.4435  0.0672 -0.8844
   73MOL0     O 9721   9.748   4.753   6.810  0.1150  0.1357 -0.0805
   73MOL0     C 9722   9.636   4.704   6.835 -0.3809  0.1697 -0.2737
   73MOL0     O 9723   9.571   4.604   6.775 -0.6471  0.5079  0.8445
   73MOL0     C 9724   9.598   4.568   6.650  0.4824 -0.5930  0.3084
   73MOL0     C 9725   9.649   4.655   6.556 -0.7776  0.2100  0.7747
   73MOL0     C 9726   9.677   4.609   6.426  0.2026 -0.3108  0.4507
   73MOL0     C 9727   9.653   4.473   6.394  0.2039  0.9981 -0.2754
   73MOL0     O 9728   9.695   4.420   6.276  0.0410  0.0727  0.0396
   73MOL0     C 9729   9.773   4.480   6.170 -0.2619 -0.5593 -0.5658
   73MOL0     C 9730   9.685   4.520   6.059 -0.0421 -0.2962  0.8664
   73MOL0     C 9731   9.776   4.573   5.943 -0.1762 -0.5890  0.0626
   73MOL0     C 9732   9.698   4.595   5.822  0.6496  0.7959  0.3259
   73MOL0     C 9733   9.788   4.629   5.707 -0.0757 -0.0222  0.6986
   73MOL0     C 9734   9.707   4.707   5.601  0.5857 -0.3500 -1.2963
   73MOL0     C 9735   9.614   4.607   5.518 -1.2236 -0.2526 -0.5199
   73MOL0     C 9736   9.671   4.593   5.373  0.0194  0.0467  0.1436
   73MOL0     N 9737   9.803   4.526   5.369 -0.4241 -0.0076 -0.1381
   73MOL0     C 9738   9.819   4.401   5.329  0.4216  0.1096  0.0681
   73MOL0     C 9739   9.944   4.383   5.297 -1.5047 -0.1648 -0.3724
   73MOL0     C 9740  10.004   4.259   5.234 -0.8771 -0.5195  0.6619
   73MOL0     C 9741  10.051   4.296   5.089 -0.3016  0.7156 -0.3971
   73MOL0     C 9742  10.131   4.189   5.010 -0.9401 -0.0683 -0.2108
   73MOL0     C 9743  10.239   4.120   5.097  0.1526 -0.3113  0.5153
   73MOL0     O 9744  10.324   4.208   5.175  0.2048 -0.1734 -0.5562
   73MOL0     C 9745  10.423   4.144   5.250  0.4081 -0.2035  0.3816
   73MOL0     C 9746  10.437   4.007   5.268  0.1797  0.0862 -0.3791
   73MOL0     C 9747  10.548   3.942   5.344  1.5720 -0.0837 -0.3875
   73MOL0     C 9748  10.549   3.788   5.349 -0.5071 -0.4951 -0.1582
   73MOL0     C 9749  10.645   4.033   5.412 -0.4057 -0.0105  0.3587
   73MOL0     C 9750  10.758   3.976   5.502  0.7418  0.4886  0.0054
   73MOL0     O 9751  10.840   4.067   5.563  0.2600 -0.4837  0.3464
   73MOL0     C 9752  10.947   4.023   5.631  0.4944  0.4526  0.2305
   73MOL0     C 9753  11.042   3.943   5.568 -0.5536  0.6629  0.5791
   73MOL0     C 9754  11.167   3.911   5.629  0.5113 -0.0751  0.3565
   73MOL0     C 9755  11.195   3.961   5.756  0.7286  0.4169  0.9292
   73MOL0     O 9756  11.321   3.925   5.809  0.2607 -0.0881  0.2140
   73MOL0     C 9757  11.353   3.963   5.941 -0.6763 -1.5012 -1.0162
   73MOL0     C 9758  11.404   4.114   5.936 -0.3211  1.0426  0.0001
   73MOL0     C 9759  11.486   4.142   6.062 -0.3122  0.6408 -0.0648
   73MOL0     C 9760  11.525   4.284   6.074 -0.1192 -0.6547  0.0653
   73MOL0     C 9761  11.574   4.317   6.218 -0.5070 -0.0629  0.2049
   73MOL0     C 9762  11.569   4.462   6.259  0.3647  0.3848  0.5529
   73MOL0     C 9763  11.682   4.501   6.349  0.9146  1.0869 -0.6135
   73MOL0     C 9764  11.814   4.541   6.284  0.8612 -0.1033  0.0370
   73MOL0    Cl 9765  11.806   4.639   6.137 -0.0413 -0.6075 -0.1092
   73MOL0     C 9766  11.096   4.042   5.824  0.3627 -0.4647 -0.1288
   73MOL0     C 9767  10.975   4.072   5.757 -0.2519  0.1351  0.0205
   73MOL0     O 9768  10.773   3.854   5.497  0.2772 -0.1619  0.7214
   73MOL0     C 9769  10.630   4.175   5.384 -0.2654  0.9314  0.1074
   73MOL0     C 9770  10.521   4.226   5.310 -0.3002  0.2727  0.2835
   73MOL0     N 9771  10.013   4.492   5.344 -0.3284  0.3466  0.6986
   73MOL0     N 9772   9.927   4.584   5.381  0.5404  0.1712 -0.6968
   73MOL0     C 9773   9.614   4.386   6.496  0.6159 -0.1537 -0.4641
   73MOL0     C 9774   9.576   4.435   6.620 -0.8634 -0.5720  0.2528
   73MOL0     C 9775   9.567   4.754   6.958 -0.1602 -0.0908 -0.8033
   73MOL0     C 9776   9.426   4.745   6.964  0.2194 -0.4001  0.1456
   73MOL0     C 9777   9.353   4.773   7.079 -0.7680 -0.1695  0.0510
   73MOL0     C 9778   9.425   4.828   7.192  0.8353 -0.4563  0.0100
   73MOL0     O 9779   9.360   4.870   7.314 -0.6652 -0.0977 -1.1752
   73MOL0     C 9780   9.286   4.760   7.372 -0.6191  0.1622 -0.9574
   73MOL0     C 9781   9.136   4.779   7.352 -0.9648  0.0539 -0.6189
   73MOL0     C 9782   9.056   4.713   7.468 -0.5962 -0.6972  0.0298
   73MOL0     C 9783   8.914   4.722   7.416 -0.2904  0.0989 -0.4251
   73MOL0     C 9784   8.867   4.860   7.445  0.1985 -0.0549  1.1433
   73MOL0     C 9785   8.831   4.970   7.469  0.1620 -0.3192  1.0911
   73MOL0     C 9786   9.557   4.855   7.183 -0.2758 -0.5820  0.1993
   73MOL0     C 9787   9.631   4.817   7.067 -0.2941 -0.3548 -1.0544
   73MOL0     H 9788   9.661   4.762   6.566 -2.3110  0.7426 -2.0557
   73MOL0     H 9789   9.686   4.680   6.345 -1.5773  0.4094  0.8532
   73MOL0     H 9790   9.834   4.563   6.208  0.3450 -1.0675 -0.3996
   73MOL0     H 9791   9.832   4.393   6.141 -1.1273 -0.8659 -1.4581
   73MOL0     H 9792   9.629   4.436   6.018 -2.5363  2.3178 -1.5340
   73MOL0     H 9793   9.612   4.590   6.101 -0.9645  0.2928 -1.5452
   73MOL0     H 9794   9.831   4.665   5.961 -0.1677 -0.2735 -1.4728
   73MOL0     H 9795   9.844   4.492   5.914  0.3079 -0.5657  1.1001
   73MOL0     H 9796   9.636   4.510   5.789 -0.1603  2.4569 -2.8223
   73MOL0     H 9797   9.621   4.671   5.840 -1.4691 -1.0951 -0.2240
   73MOL0     H 9798   9.863   4.701   5.743  0.0290 -0.3726  1.1791
   73MOL0     H 9799   9.846   4.542   5.676  0.2520 -0.2647  1.9348
   73MOL0     H 9800   9.638   4.777   5.649  0.9455 -0.0535 -1.2098
   73MOL0     H 9801   9.780   4.762   5.542 -0.3080  1.8461 -0.4674
   73MOL0     H 9802   9.593   4.511   5.565  2.1477 -0.3036  1.1773
   73MOL0     H 9803   9.513   4.647   5.512 -0.2966  2.2529 -0.9792
   73MOL0     H 9804   9.675   4.698   5.342  0.9413 -0.1929 -0.5952
   73MOL0     H 9805   9.602   4.536   5.310 -0.7216  0.4340  0.5863
   73MOL0     H 9806   9.741   4.328   5.310  1.0857 -0.0956 -2.2972
   73MOL0     H 9807  10.088   4.237   5.301  0.2429  0.5956 -0.3276
   73MOL0     H 9808   9.951   4.164   5.240 -0.1609 -1.0591 -0.9009
   73MOL0     H 9809  10.115   4.383   5.104  1.0412  0.1256 -2.3919
   73MOL0     H 9810   9.963   4.311   5.026  0.8496 -3.4001 -3.4009
   73MOL0     H 9811  10.187   4.238   4.930  3.0037 -2.1879  0.9715
   73MOL0     H 9812  10.063   4.112   4.971 -0.9113  0.5853 -1.5957
   73MOL0     H 9813  10.298   4.048   5.039 -2.1062 -2.1753  0.4036
   73MOL0     H 9814  10.176   4.057   5.160 -1.5960  0.4462 -0.4042
   73MOL0     H 9815  10.367   3.931   5.234  0.0834  0.8547 -1.9573
   73MOL0     H 9816  10.649   3.768   5.310  0.9078  5.1599 -0.3454
   73MOL0     H 9817  10.537   3.751   5.451  1.8366  1.6066  0.9750
   73MOL0     H 9818  10.488   3.726   5.283  2.6240 -0.3946 -3.4251
   73MOL0     H 9819  11.025   3.930   5.461 -0.0234 -2.7190  0.7825
   73MOL0     H 9820  11.250   3.871   5.570  0.6146  1.5455 -0.6509
   73MOL0     H 9821  11.270   3.944   6.009 -0.0274  0.4413  0.3760
   73MOL0     H 9822  11.436   3.901   5.977  1.0177  0.6393 -1.0197
   73MOL0     H 9823  11.470   4.137   5.852 -0.2633  1.7915  0.2474
   73MOL0     H 9824  11.321   4.184   5.928  0.5800  2.1346 -0.0114
   73MOL0     H 9825  11.574   4.076   6.058 -1.8746 -1.7686  1.9799
   73MOL0     H 9826  11.440   4.103   6.154 -0.8860 -0.5521 -0.8266
   73MOL0     H 9827  11.607   4.303   6.005 -0.0697 -1.5072 -0.1176
   73MOL0     H 9828  11.437   4.350   6.071 -0.7899 -1.3998  1.8092
   73MOL0     H 9829  11.680   4.292   6.217 -0.6054 -0.5388 -1.4334
   73MOL0     H 9830  11.534   4.260   6.302 -1.1477  2.3958  1.6652
   73MOL0     H 9831  11.548   4.536   6.181 -0.8062  1.6367  2.0014
   73MOL0     H 9832  11.485   4.456   6.329  0.1316  0.1679  0.2569
   73MOL0     H 9833  11.700   4.423   6.424 -3.2878  0.7823  0.3439
   73MOL0     H 9834  11.644   4.591   6.398 -1.7728  0.1426 -0.7944
   73MOL0     H 9835  11.850   4.445   6.245  0.0426  1.0454 -4.0246
   73MOL0     H 9836  11.890   4.580   6.352  0.3547 -1.1646  1.2512
   73MOL0     H 9837  11.117   4.094   5.917 -2.0141  2.2050 -0.9368
   73MOL0     H 9838  10.905   4.143   5.800 -1.3774  0.6418 -2.5030
   73MOL0     H 9839  10.704   4.232   5.439  3.0198 -3.1653  0.4209
   73MOL0     H 9840  10.518   4.332   5.289  3.0686  0.4222  0.1677
   73MOL0     H 9841   9.601   4.279   6.485 -2.4412 -0.0436  0.8323
   73MOL0     H 9842   9.543   4.362   6.693  0.7415 -0.0584  1.5551
   73MOL0     H 9843   9.370   4.703   6.881 -0.6344 -0.5417  0.7822
   73MOL0     H 9844   9.244   4.767   7.078 -0.8258 -2.0490  3.4384
   73MOL0     H 9845   9.323   4.659   7.358 -1.7376 -0.4895  0.5086
   73MOL0     H 9846   9.300   4.770   7.480 -0.9801  0.2254 -0.9119
   73MOL0     H 9847   9.116   4.739   7.252  0.5945  0.7954 -1.2738
   73MOL0     H 9848   9.108   4.884   7.343 -2.4744 -0.1194  1.5863
   73MOL0     H 9849   9.073   4.782   7.551  1.9117 -3.5262  2.0622
   73MOL0     H 9850   9.084   4.609   7.487 -0.1219 -0.1406  2.6620
   73MOL0     H 9851   8.854   4.654   7.477 -2.1137 -0.1501 -2.3723
   73MOL0     H 9852   8.903   4.696   7.310 -4.1303 -0.3019 -0.0863
   73MOL0     H 9853   8.799   5.062   7.513  0.2441 -0.0710  0.6421
   73MOL0     H 9854   9.611   4.896   7.268  0.7558  0.8533 -1.0807
   73MOL0     H 9855   9.734   4.849   7.053 -0.8950  1.9304 -0.6579
   74MOL0     O 9856   8.542   8.585  10.288 -0.1474  0.0322  0.3849
   74MOL0     C 9857   8.552   8.464  10.245 -0.2365  0.6758  0.4650
   74MOL0     O 9858   8.449   8.387  10.197  0.4629 -0.4796  0.2518
   74MOL0     C 9859   8.345   8.456  10.130 -0.9343 -0.5000 -0.2134
   74MOL0     C 9860   8.367   8.518  10.000  0.2261  0.1813  0.8088
   74MOL0     C 9861   8.263   8.565   9.919 -0.1023  0.2142  0.2000
   74MOL0     C 9862   8.127   8.554   9.963 -0.1606 -0.1772  0.5886
   74MOL0     O 9863   8.023   8.602   9.885 -0.0872 -0.2309 -0.0301
   74MOL0     C 9864   7.913   8.513   9.845 -1.1182 -0.5877  0.0242
   74MOL0     C 9865   7.963   8.414   9.737  0.0769  0.5592  0.3219
   74MOL0     C 9866   7.864   8.294   9.726 -0.3844  0.4543  0.3347
   74MOL0     C 9867   7.917   8.196   9.625 -0.4923  0.7721  0.9518
   74MOL0     C 9868   7.820   8.075   9.629 -0.0331 -0.1302  0.3017
   74MOL0     C 9869   7.825   8.000   9.495 -0.7050  0.7324 -0.2154
   74MOL0     C 9870   7.955   7.937   9.448  0.6509  0.3593 -0.3089
   74MOL0     C 9871   7.959   7.792   9.505 -0.5482  0.3786 -0.4775
   74MOL0     N 9872   8.092   7.729   9.490  0.1035  0.4271  0.6725
   74MOL0     C 9873   8.198   7.774   9.421  0.2965 -1.0666  0.6716
   74MOL0     C 9874   8.286   7.674   9.412  0.0689  0.0526 -0.3794
   74MOL0     C 9875   8.417   7.670   9.353  0.0641 -1.0078 -0.1164
   74MOL0     C 9876   8.415   7.555   9.247  1.1778  0.2951 -0.1194
   74MOL0     C 9877   8.554   7.534   9.193  0.0635 -0.7202  0.5532
   74MOL0     C 9878   8.638   7.448   9.281 -0.1171  0.3513  0.4646
   74MOL0     O 9879   8.764   7.436   9.211  0.0734  0.0459  0.1489
   74MOL0     C 9880   8.768   7.365   9.081  0.1955 -0.3690 -0.2689
   74MOL0     C 9881   8.688   7.266   9.026 -0.0742 -0.2059  0.4662
   74MOL0     C 9882   8.711   7.203   8.900 -0.4173  0.1098 -0.3477
   74MOL0     C 9883   8.610   7.098   8.851 -0.3051  0.4772 -0.0520
   74MOL0     C 9884   8.803   7.265   8.811 -0.1701  0.1932  0.4902
   74MOL0     C 9885   8.855   7.215   8.685 -0.6199  0.1343 -0.3361
   74MOL0     O 9886   8.902   7.310   8.597 -0.3163 -0.0659  0.4922
   74MOL0     C 9887   8.971   7.256   8.486  0.5393 -0.0946 -0.6846
   74MOL0     C 9888   9.105   7.207   8.515  0.6601  0.0417  0.4492
   74MOL0     C 9889   9.199   7.197   8.410  0.1238 -0.9057  0.4168
   74MOL0     C 9890   9.161   7.234   8.276  0.6798  0.4202 -0.3234
   74MOL0     O 9891   9.232   7.222   8.158 -0.5990  0.0386 -0.1585
   74MOL0     C 9892   9.350   7.135   8.156  0.3055 -0.0147 -0.9165
   74MOL0     C 9893   9.376   7.070   8.019 -0.0728  0.2434  0.4149
   74MOL0     C 9894   9.269   6.978   7.971  0.8373  0.6799 -1.3636
   74MOL0     C 9895   9.324   6.892   7.859 -0.4540 -0.2993  0.0677
   74MOL0     C 9896   9.231   6.794   7.802  0.0586 -0.7886 -0.1716
   74MOL0     C 9897   9.290   6.738   7.678 -0.2152  0.3825  0.4976
   74MOL0     C 9898   9.194   6.621   7.620 -0.0937 -1.0096  0.1006
   74MOL0     C 9899   9.251   6.559   7.497  0.1398  1.0547 -0.4907
   74MOL0    Cl 9900   9.162   6.397   7.474 -0.1605  0.5494 -0.0991
   74MOL0     C 9901   9.032   7.286   8.255 -0.7191  1.0030 -1.0873
   74MOL0     C 9902   8.936   7.306   8.359 -0.2688  0.1266  0.6821
   74MOL0     O 9903   8.880   7.092   8.689  0.0345 -0.9144 -0.0746
   74MOL0     C 9904   8.871   7.380   8.855  0.5672  0.2315  0.1044
   74MOL0     C 9905   8.865   7.417   8.994  0.2089 -0.8660 -0.0070
   74MOL0     N 9906   8.237   7.562   9.488 -0.2735  0.7820  0.7881
   74MOL0     N 9907   8.121   7.601   9.538 -0.2699 -0.4642  0.3139
   74MOL0     C 9908   8.110   8.508  10.095 -0.8426  0.5587  0.4869
   74MOL0     C 9909   8.209   8.453  10.177 -0.4749 -0.3625  1.0234
   74MOL0     C 9910   8.681   8.398  10.274 -0.5355  0.0318 -0.3327
   74MOL0     C 9911   8.704   8.265  10.247 -1.1823 -0.4181  0.5016
   74MOL0     C 9912   8.826   8.207  10.277  0.2053  0.1806  0.5131
   74MOL0     C 9913   8.935   8.273  10.348  1.0470  0.2533 -0.0394
   74MOL0     O 9914   9.051   8.208  10.398  0.0855 -0.2941  0.1058
   74MOL0     C 9915   9.132   8.290  10.482 -0.8405  0.3994 -0.6146
   74MOL0     C 9916   9.250   8.206  10.541 -0.2245  1.0273  0.3592
   74MOL0     C 9917   9.192   8.098  10.628 -0.2211  0.2944  0.1476
   74MOL0     C 9918   9.299   7.995  10.677  0.4872  0.5830 -0.3815
   74MOL0     C 9919   9.410   8.063  10.737  0.4502 -0.3214  0.5504
   74MOL0     C 9920   9.504   8.113  10.797  0.0035 -0.1600  0.4873
   74MOL0     C 9921   8.907   8.414  10.366  0.2133 -0.4996  0.5346
   74MOL0     C 9922   8.787   8.471  10.322 -0.0470  0.6507  0.8610
   74MOL0     H 9923   8.469   8.531   9.967 -0.8485  3.5578 -1.8604
   74MOL0     H 9924   8.285   8.604   9.820 -0.7863  2.1154  0.7420
   74MOL0     H 9925   7.882   8.449   9.929  1.7054  0.2086  1.7946
   74MOL0     H 9926   7.847   8.576   9.785  0.1252 -2.3158 -3.4866
   74MOL0     H 9927   7.962   8.462   9.639 -2.1350  2.7458  1.3131
   74MOL0     H 9928   8.061   8.375   9.766 -2.0366 -3.1637  3.3170
   74MOL0     H 9929   7.863   8.239   9.821 -0.2165  1.1198  0.7295
   74MOL0     H 9930   7.766   8.330   9.694 -0.7000 -2.0830 -1.9318
   74MOL0     H 9931   7.917   8.230   9.521  2.8345 -3.1473 -0.6133
   74MOL0     H 9932   8.013   8.149   9.649 -1.2366 -2.6721 -1.8652
   74MOL0     H 9933   7.830   8.008   9.715 -0.2072 -0.3822  0.1252
   74MOL0     H 9934   7.717   8.110   9.633  0.0379  0.1165  0.0618
   74MOL0     H 9935   7.744   7.927   9.478  0.4160  0.1306 -3.8652
   74MOL0     H 9936   7.803   8.076   9.419 -2.3541 -3.1594 -4.1182
   74MOL0     H 9937   7.954   7.926   9.339 -3.8529 -0.2446 -0.4123
   74MOL0     H 9938   8.038   7.999   9.483  1.2994 -1.4497  1.5889
   74MOL0     H 9939   7.892   7.717   9.462  0.0386  0.7416 -2.0899
   74MOL0     H 9940   7.947   7.796   9.614 -1.5278 -0.5124 -0.5380
   74MOL0     H 9941   8.191   7.873   9.378  0.0772 -1.4351 -0.1634
   74MOL0     H 9942   8.432   7.770   9.311 -0.9095 -2.0608 -3.3342
   74MOL0     H 9943   8.489   7.656   9.434 -0.5826 -2.8905  0.1840
   74MOL0     H 9944   8.346   7.591   9.170 -1.1617 -0.2531  1.5927
   74MOL0     H 9945   8.361   7.465   9.280 -1.0668  0.2218 -3.5192
   74MOL0     H 9946   8.600   7.633   9.183  1.9204 -1.6570 -0.6162
   74MOL0     H 9947   8.546   7.500   9.089 -1.0335  3.0189 -0.7811
   74MOL0     H 9948   8.579   7.356   9.288 -0.9994  0.9432  0.8711
   74MOL0     H 9949   8.645   7.503   9.375 -0.0164  0.8409  0.1749
   74MOL0     H 9950   8.605   7.245   9.093 -1.3506  0.6256 -0.7951
   74MOL0     H 9951   8.661   7.005   8.879 -0.1728  0.0090 -1.7254
   74MOL0     H 9952   8.511   7.099   8.896  0.2169  0.0570  1.1403
   74MOL0     H 9953   8.588   7.123   8.747 -1.9795  0.2233  0.2155
   74MOL0     H 9954   9.136   7.172   8.613  1.7359 -0.0622  0.0875
   74MOL0     H 9955   9.293   7.148   8.434  2.1600  2.3138 -0.3526
   74MOL0     H 9956   9.439   7.189   8.189  0.6006  1.1886 -3.4782
   74MOL0     H 9957   9.337   7.053   8.227 -1.3639 -1.9059 -3.2335
   74MOL0     H 9958   9.388   7.149   7.944 -4.2757 -0.2627 -1.0661
   74MOL0     H 9959   9.469   7.014   8.036 -0.9958 -1.2009  0.8942
   74MOL0     H 9960   9.170   7.019   7.947 -0.4167 -1.4157 -0.0823
   74MOL0     H 9961   9.231   6.917   8.053  1.3944  0.8738 -0.9503
   74MOL0     H 9962   9.355   6.958   7.777 -0.3790  0.6883  0.8725
   74MOL0     H 9963   9.422   6.853   7.888  1.5062  3.2471 -1.2002
   74MOL0     H 9964   9.147   6.848   7.756  0.2175 -1.5738 -1.4349
   74MOL0     H 9965   9.204   6.714   7.871  2.4088 -1.7479 -0.2747
   74MOL0     H 9966   9.321   6.816   7.609 -0.7295  0.9499  0.8964
   74MOL0     H 9967   9.384   6.686   7.698 -0.9461 -1.4287 -0.5545
   74MOL0     H 9968   9.095   6.656   7.591  0.9027  1.1803 -0.8860
   74MOL0     H 9969   9.190   6.540   7.693 -0.0598 -1.1013  0.0028
   74MOL0     H 9970   9.356   6.536   7.517 -0.7381 -2.8621  0.3945
   74MOL0     H 9971   9.246   6.622   7.408  3.2795  2.0743 -0.0556
   74MOL0     H 9972   9.003   7.332   8.161 -0.4471  2.8243 -0.3314
   74MOL0     H 9973   8.841   7.358   8.344  1.2613  2.9054 -0.0137
   74MOL0     H 9974   8.936   7.432   8.787 -0.7377  2.8445  0.7238
   74MOL0     H 9975   8.909   7.512   9.022 -0.2315 -0.5971 -0.2234
   74MOL0     H 9976   8.003   8.498  10.111 -1.3924 -0.1517 -2.8425
   74MOL0     H 9977   8.181   8.433  10.279 -0.6063  0.4088  1.1454
   74MOL0     H 9978   8.625   8.214  10.192 -1.2383  0.0708  0.1154
   74MOL0     H 9979   8.841   8.101  10.262  2.5281  0.3645  1.1507
   74MOL0     H 9980   9.172   8.375  10.426 -1.1151  1.4178  0.6591
   74MOL0     H 9981   9.064   8.322  10.562  0.7956  1.9931  0.2253
   74MOL0     H 9982   9.320   8.272  10.592  1.6520  0.5162 -1.4422
   74MOL0     H 9983   9.303   8.158  10.458 -3.1406 -0.1378 -0.9690
   74MOL0     H 9984   9.118   8.048  10.565 -0.2323  0.3162  0.1439
   74MOL0     H 9985   9.154   8.147  10.718 -0.4682 -0.9355  0.7355
   74MOL0     H 9986   9.329   7.934  10.592 -1.0544 -2.3427  1.0347
   74MOL0     H 9987   9.257   7.929  10.753  0.3575  1.8688  0.6940
   74MOL0     H 9988   9.588   8.155  10.849 -0.1447  1.3581 -0.4406
   74MOL0     H 9989   8.978   8.480  10.415  0.7406 -1.8347  1.6079
   74MOL0     H 9990   8.761   8.576  10.332  0.5139  0.8939 -0.0846
   75MOL0     O 9991   9.388   5.619   3.183  0.7630  0.4606 -0.4475
   75MOL0     C 9992   9.358   5.499   3.154 -0.5655  0.6012 -0.3255
   75MOL0     O 9993   9.447   5.398   3.135  0.4491  0.2164 -0.3574
   75MOL0     C 9994   9.574   5.428   3.141 -0.2147 -0.7690  0.7402
   75MOL0     C 9995   9.662   5.408   3.032  0.3797 -0.1792  0.1810
   75MOL0     C 9996   9.799   5.446   3.043  0.3947  0.3924 -0.1452
   75MOL0     C 9997   9.848   5.488   3.169 -0.8766  0.3441 -0.1728
   75MOL0     O 9998   9.980   5.499   3.210 -0.0800 -0.0811  0.2811
   75MOL0     C 9999  10.079   5.412   3.173 -0.5078  0.7453  0.3979
   75MOL0     C10000  10.216   5.463   3.217  0.6472 -0.3591 -1.4011
   75MOL0     C10001  10.327   5.361   3.200  0.3261 -0.3183  0.1248
   75MOL0     C10002  10.425   5.350   3.314 -0.3446 -0.0975 -0.8750
   75MOL0     C10003  10.517   5.470   3.335 -0.0504 -0.6042 -0.0884
   75MOL0     C10004  10.622   5.474   3.228  0.8847  0.2772  0.1524
   75MOL0     C10005  10.670   5.615   3.203  0.4167 -0.1517  0.1032
   75MOL0     C10006  10.778   5.671   3.290  0.3787 -0.0553 -0.4367
   75MOL0     N10007  10.730   5.679   3.431 -0.0033 -0.2740  0.2381
   75MOL0     C10008  10.639   5.775   3.464 -0.1001 -0.2571 -0.3980
   75MOL0     C10009  10.620   5.748   3.594  0.3556 -0.1758  0.5503
   75MOL0     C10010  10.545   5.836   3.685  0.4447  0.8536 -0.0853
   75MOL0     C10011  10.623   5.959   3.721  0.8100  0.8793 -0.8187
   75MOL0     C10012  10.582   6.021   3.860  0.2899 -0.4251 -0.1536
   75MOL0     C10013  10.629   6.169   3.868 -0.3779  0.1008  0.3689
   75MOL0     O10014  10.541   6.261   3.789 -0.1935 -0.2153  0.2323
   75MOL0     C10015  10.540   6.393   3.828  0.7728 -0.7477 -0.2995
   75MOL0     C10016  10.645   6.454   3.898 -0.7881 -0.6074  0.5719
   75MOL0     C10017  10.630   6.582   3.939 -0.1715  0.6607  0.1183
   75MOL0     C10018  10.737   6.646   4.020  0.3080  0.2946 -0.2258
   75MOL0     C10019  10.516   6.661   3.903 -1.0580  0.5247  0.1205
   75MOL0     C10020  10.493   6.811   3.945 -0.1380  0.4830  0.4984
   75MOL0     O10021  10.577   6.866   4.029  0.0580 -0.1219 -0.6623
   75MOL0     C10022  10.565   6.998   4.068  0.2067  0.5069  0.3467
   75MOL0     C10023  10.455   7.033   4.148 -0.2850 -0.5364 -0.3223
   75MOL0     C10024  10.446   7.170   4.190 -0.3808  0.6839  0.0828
   75MOL0     C10025  10.544   7.265   4.146  0.7173  0.4689 -0.5903
   75MOL0     O10026  10.540   7.391   4.190 -0.6211  0.0211  0.2870
   75MOL0     C10027  10.498   7.490   4.095 -0.7785 -0.3015 -0.1104
   75MOL0     C10028  10.515   7.634   4.141 -0.1943  0.3894  0.0568
   75MOL0     C10029  10.652   7.662   4.194 -0.2329  0.4167  0.5714
   75MOL0     C10030  10.661   7.812   4.240  0.3905  0.3330 -0.0836
   75MOL0     C10031  10.792   7.853   4.300  0.5920  0.4232 -0.3134
   75MOL0     C10032  10.784   8.000   4.356 -0.6664  0.2213  0.6606
   75MOL0     C10033  10.931   8.058   4.379  0.5260  0.0880  1.0790
   75MOL0     C10034  10.905   8.209   4.399  1.6009  0.7426  0.3205
   75MOL0    Cl10035  11.042   8.315   4.385 -0.0300 -0.1618 -0.4966
   75MOL0     C10036  10.646   7.221   4.063  0.2251 -0.7038  0.1879
   75MOL0     C10037  10.659   7.088   4.026 -0.1652  0.0047 -0.1487
   75MOL0     O10038  10.395   6.862   3.902  0.2907 -0.0496  0.1877
   75MOL0     C10039  10.419   6.603   3.826  0.0801 -0.1690  0.1629
   75MOL0     C10040  10.422   6.469   3.790 -0.5214 -0.3318 -1.3567
   75MOL0     N10041  10.715   5.649   3.637 -0.2040  0.8478  0.9540
   75MOL0     N10042  10.777   5.612   3.538 -0.7684  1.3070 -0.3605
   75MOL0     C10043   9.759   5.520   3.279  0.2954  0.3383 -0.5986
   75MOL0     C10044   9.626   5.492   3.263  0.4365 -0.0440 -0.0444
   75MOL0     C10045   9.210   5.466   3.131 -0.6674 -0.2345 -0.4791
   75MOL0     C10046   9.110   5.563   3.158 -0.0103 -0.6109  0.7522
   75MOL0     C10047   8.975   5.532   3.145 -0.0382 -0.0647 -0.1525
   75MOL0     C10048   8.930   5.407   3.110 -0.0967 -0.2241 -0.4287
   75MOL0     O10049   8.806   5.355   3.104 -0.3336 -0.5148  0.5803
   75MOL0     C10050   8.710   5.407   3.194  0.0375  0.4010 -0.5173
   75MOL0     C10051   8.598   5.299   3.211 -0.0860  0.5291 -0.0945
   75MOL0     C10052   8.492   5.289   3.106  0.8850  0.0201  0.4742
   75MOL0     C10053   8.429   5.429   3.070  0.1762  0.1800  0.0887
   75MOL0     C10054   8.349   5.472   3.181  0.0165 -0.4581  0.3333
   75MOL0     C10055   8.286   5.530   3.265  0.6493 -0.5154  0.3276
   75MOL0     C10056   9.027   5.320   3.098  0.4103  0.0666 -0.3745
   75MOL0     C10057   9.166   5.337   3.103 -0.8805 -0.0417 -0.7692
   75MOL0     H10058   9.626   5.352   2.945 -1.6330 -1.1621  1.5737
   75MOL0     H10059   9.862   5.403   2.966  2.6191  1.2627  1.1142
   75MOL0     H10060  10.071   5.311   3.215  2.2338  1.1640  2.1617
   75MOL0     H10061  10.077   5.395   3.065  0.2766 -3.9113  0.8939
   75MOL0     H10062  10.236   5.554   3.160  4.6079 -0.5942 -0.6725
   75MOL0     H10063  10.205   5.492   3.321 -1.5319  1.1741 -1.9845
   75MOL0     H10064  10.270   5.269   3.190 -1.2948  0.7621 -1.3890
   75MOL0     H10065  10.379   5.383   3.106 -0.0196  0.6601  0.1511
   75MOL0     H10066  10.372   5.337   3.409  1.9767 -2.1774  0.2627
   75MOL0     H10067  10.478   5.254   3.308 -3.7437 -2.3649  1.7478
   75MOL0     H10068  10.450   5.556   3.326  0.0011 -0.4703  0.7313
   75MOL0     H10069  10.558   5.466   3.436  0.3588 -0.4971 -0.2503
   75MOL0     H10070  10.704   5.404   3.244  2.3117  0.9802 -3.1414
   75MOL0     H10071  10.574   5.446   3.133  0.1818  1.9299 -0.0175
   75MOL0     H10072  10.707   5.623   3.100 -1.6441  2.3507 -0.5735
   75MOL0     H10073  10.590   5.690   3.197 -0.0691 -0.7149 -0.8146
   75MOL0     H10074  10.805   5.774   3.265  2.4207 -0.4293  0.0675
   75MOL0     H10075  10.866   5.608   3.277 -0.2708 -1.5366  1.8230
   75MOL0     H10076  10.605   5.848   3.391 -3.6609 -3.8576 -2.7488
   75MOL0     H10077  10.451   5.865   3.638 -0.2866  0.2544  0.9667
   75MOL0     H10078  10.514   5.782   3.775  0.2878  1.2771  0.1152
   75MOL0     H10079  10.612   6.032   3.640  1.1197  0.9353 -0.8108
   75MOL0     H10080  10.724   5.917   3.731 -0.2146 -1.6457 -0.2805
   75MOL0     H10081  10.622   5.956   3.938 -0.6538  0.7647  1.3610
   75MOL0     H10082  10.473   6.028   3.861  0.3600  2.7691  2.9105
   75MOL0     H10083  10.735   6.162   3.843 -0.5491  1.7051 -0.9790
   75MOL0     H10084  10.619   6.198   3.973  0.1809 -1.3983  0.8580
   75MOL0     H10085  10.730   6.396   3.932 -1.9183 -2.7841 -0.1006
   75MOL0     H10086  10.697   6.658   4.121 -2.7679 -0.4010 -1.2495
   75MOL0     H10087  10.815   6.570   4.012  1.0109  1.0012 -0.2257
   75MOL0     H10088  10.772   6.739   3.974  0.0616  1.1300  1.2226
   75MOL0     H10089  10.377   6.959   4.164 -2.5121  1.6519 -0.4962
   75MOL0     H10090  10.369   7.200   4.259 -0.9789  1.2904 -0.8200
   75MOL0     H10091  10.562   7.482   4.007  2.9612  1.2560  2.1990
   75MOL0     H10092  10.396   7.481   4.057  1.0994 -1.9365 -5.7568
   75MOL0     H10093  10.507   7.708   4.061  0.3873 -0.6238 -0.9601
   75MOL0     H10094  10.444   7.661   4.220 -3.3543 -0.4359 -2.3106
   75MOL0     H10095  10.726   7.641   4.116 -0.1032 -3.6706  1.5566
   75MOL0     H10096  10.677   7.598   4.279 -1.6590  1.1118  1.5662
   75MOL0     H10097  10.630   7.883   4.163 -1.8444  0.3011  0.7096
   75MOL0     H10098  10.592   7.830   4.323  3.3715 -1.4652  3.0639
   75MOL0     H10099  10.860   7.852   4.214 -0.5409  3.9971 -1.4409
   75MOL0     H10100  10.825   7.784   4.378  2.0743  2.5255  1.0203
   75MOL0     H10101  10.731   8.061   4.282 -0.7171  2.8714  2.7436
   75MOL0     H10102  10.725   7.999   4.448  1.7577 -1.2037  2.3204
   75MOL0     H10103  10.996   8.042   4.293 -0.2328  4.1298 -0.4821
   75MOL0     H10104  10.979   8.019   4.470  1.1869  0.2485  0.8007
   75MOL0     H10105  10.850   8.226   4.492  0.5136  3.4665 -0.7110
   75MOL0     H10106  10.841   8.228   4.312  0.1788 -0.4008  1.1022
   75MOL0     H10107  10.714   7.296   4.024 -1.5683  0.8061 -0.1580
   75MOL0     H10108  10.743   7.058   3.964  0.7755  1.0604  0.5762
   75MOL0     H10109  10.332   6.662   3.799  1.8376  2.4617 -0.0909
   75MOL0     H10110  10.345   6.423   3.729  0.2950 -0.9509 -1.9353
   75MOL0     H10111   9.794   5.558   3.375 -2.1231  1.5587 -0.1167
   75MOL0     H10112   9.552   5.510   3.341  1.1921  2.0935  0.2446
   75MOL0     H10113   9.130   5.661   3.199  0.9988 -1.2607  1.8592
   75MOL0     H10114   8.907   5.609   3.180  0.0163 -1.1217  2.5319
   75MOL0     H10115   8.752   5.422   3.294 -0.6274 -0.6434 -0.0738
   75MOL0     H10116   8.679   5.508   3.167 -0.8366  1.0658  2.5736
   75MOL0     H10117   8.536   5.312   3.300 -3.5912 -1.9959 -1.9262
   75MOL0     H10118   8.656   5.206   3.217 -2.0026 -0.8056 -1.2443
   75MOL0     H10119   8.414   5.214   3.119 -0.3728  1.4913  1.7067
   75MOL0     H10120   8.539   5.249   3.015 -1.3173 -2.1282  0.1654
   75MOL0     H10121   8.364   5.422   2.983 -1.9027 -3.0638  1.7212
   75MOL0     H10122   8.511   5.498   3.046  0.8422 -0.7152 -0.2616
   75MOL0     H10123   8.229   5.593   3.330  2.7696  5.1560 -2.6307
   75MOL0     H10124   8.990   5.220   3.076 -2.3268  0.1229  3.0718
   75MOL0     H10125   9.236   5.257   3.087 -0.1768  0.2989  0.4806
   76MOL0     O10126   0.182   9.225   6.778  0.7122 -0.0415 -0.3569
   76MOL0     C10127   0.063   9.215   6.796 -0.6818  0.1143  0.0639
   76MOL0     O10128  -0.030   9.205   6.693 -0.3582 -0.6919  0.3063
   76MOL0     C10129  -0.001   9.218   6.552 -1.1712  0.3060 -0.1230
   76MOL0     C10130   0.061   9.327   6.503 -0.5575  0.6701  0.7474
   76MOL0     C10131   0.082   9.341   6.366  0.4457  0.3453 -0.2756
   76MOL0     C10132   0.046   9.240   6.274 -0.4798  0.5945  1.5915
   76MOL0     O10133   0.090   9.250   6.138  0.6132 -0.0429 -0.1635
   76MOL0     C10134   0.027   9.156   6.044 -0.2097  0.3598 -0.0463
   76MOL0     C10135   0.020   9.218   5.901 -0.1735  0.5612  1.2854
   76MOL0     C10136  -0.084   9.340   5.902 -0.3519  0.2005 -0.0962
   76MOL0     C10137  -0.137   9.384   5.771 -0.0802  0.1007  0.5923
   76MOL0     C10138  -0.286   9.419   5.765  0.3884  0.2202 -0.5697
   76MOL0     C10139  -0.373   9.287   5.754 -0.1907  0.4349  1.0763
   76MOL0     C10140  -0.525   9.298   5.793  0.9569 -0.3523 -0.5116
   76MOL0     C10141  -0.615   9.175   5.781  0.9526 -0.1000  0.8391
   76MOL0     N10142  -0.651   9.164   5.637  0.5532 -0.1562  0.7371
   76MOL0     C10143  -0.741   9.252   5.574 -0.7670  0.3136  0.2862
   76MOL0     C10144  -0.730   9.213   5.446  0.2508 -0.3832 -0.7091
   76MOL0     C10145  -0.822   9.272   5.342  0.6043  0.1563 -1.1497
   76MOL0     C10146  -0.964   9.213   5.370 -0.1947  0.4268  0.4437
   76MOL0     C10147  -1.067   9.321   5.410 -0.7740 -0.7234  0.0339
   76MOL0     C10148  -1.212   9.269   5.426 -0.4712 -0.2333  0.1910
   76MOL0     O10149  -1.251   9.200   5.306  0.3814  0.4866  0.7845
   76MOL0     C10150  -1.278   9.061   5.310  0.3810 -0.4769  0.8115
   76MOL0     C10151  -1.222   8.966   5.402 -0.0384  0.5191  0.6488
   76MOL0     C10152  -1.260   8.833   5.406  0.3023 -0.0394 -0.1730
   76MOL0     C10153  -1.210   8.754   5.526  0.7659  0.5013 -0.4895
   76MOL0     C10154  -1.354   8.792   5.301  0.3428  0.1214 -0.5967
   76MOL0     C10155  -1.400   8.646   5.294 -0.7577  0.0121 -0.7381
   76MOL0     O10156  -1.513   8.628   5.229 -0.0599  0.0033  0.3636
   76MOL0     C10157  -1.569   8.500   5.207  0.3380  0.4737 -0.3195
   76MOL0     C10158  -1.592   8.451   5.082 -0.7415 -0.8218  0.2431
   76MOL0     C10159  -1.673   8.337   5.058 -0.5803  0.6903 -0.4575
   76MOL0     C10160  -1.735   8.271   5.163 -0.3861 -0.1515 -0.7358
   76MOL0     O10161  -1.830   8.177   5.133  0.1015 -0.0564  0.0601
   76MOL0     C10162  -1.846   8.070   5.233  0.4400 -0.0202  0.0190
   76MOL0     C10163  -1.715   7.989   5.250  0.2769 -0.8316 -0.2940
   76MOL0     C10164  -1.717   7.901   5.126  0.1570 -0.2737  0.3716
   76MOL0     C10165  -1.609   7.794   5.137  0.3377 -0.0190 -0.3326
   76MOL0     C10166  -1.639   7.659   5.216 -0.0371  1.2594 -0.1234
   76MOL0     C10167  -1.734   7.570   5.131 -0.0910  0.0944  0.2381
   76MOL0     C10168  -1.717   7.426   5.178 -0.0246 -0.3435  0.8112
   76MOL0     C10169  -1.813   7.340   5.099 -0.2951 -0.2474  0.6270
   76MOL0    Cl10170  -1.821   7.174   5.147  0.0351  0.4715 -0.3999
   76MOL0     C10171  -1.699   8.308   5.296 -0.5159 -0.6220  0.5505
   76MOL0     C10172  -1.621   8.424   5.314 -0.3766  0.4197  0.0475
   76MOL0     O10173  -1.329   8.555   5.341  0.2344 -0.4180 -0.2102
   76MOL0     C10174  -1.393   8.878   5.193  0.0531 -0.3352 -0.3257
   76MOL0     C10175  -1.363   9.008   5.208  0.3469 -0.6760  0.2501
   76MOL0     N10176  -0.628   9.113   5.423  0.4393  0.6067 -0.5215
   76MOL0     N10177  -0.590   9.081   5.542  1.0286 -0.5685  1.1166
   76MOL0     C10178  -0.016   9.120   6.328  0.2250 -0.1344 -0.2890
   76MOL0     C10179  -0.037   9.112   6.469  1.0467  0.6430  0.6464
   76MOL0     C10180   0.014   9.199   6.930  0.4750  0.3173  0.0901
   76MOL0     C10181  -0.120   9.158   6.960  0.4554  0.0740 -0.2212
   76MOL0     C10182  -0.161   9.138   7.095 -0.5655 -0.1241  0.5477
   76MOL0     C10183  -0.067   9.143   7.190 -0.5037  0.7783 -0.3712
   76MOL0     O10184  -0.090   9.116   7.330  0.1065 -0.5209  0.8181
   76MOL0     C10185  -0.224   9.062   7.342  0.0396 -0.3048  0.2231
   76MOL0     C10186  -0.240   9.029   7.492  0.3537 -0.2445  0.3805
   76MOL0     C10187  -0.142   8.920   7.544  0.2201  0.0862  0.2421
   76MOL0     C10188  -0.016   8.972   7.608  0.1688 -0.7664  0.8238
   76MOL0     C10189  -0.045   9.075   7.710  0.3004 -1.0319  0.6741
   76MOL0     C10190  -0.045   9.161   7.795 -0.5940 -0.1359 -0.2006
   76MOL0     C10191   0.063   9.162   7.160 -0.4033  0.6632 -0.4122
   76MOL0     C10192   0.100   9.201   7.034 -0.3918  0.1181  0.6879
   76MOL0     H10193   0.095   9.400   6.576  0.4852 -2.5989  3.8406
   76MOL0     H10194   0.127   9.429   6.322 -1.2405  1.7557  0.6811
   76MOL0     H10195   0.075   9.058   6.034  1.5848  1.3756 -2.3008
   76MOL0     H10196  -0.073   9.127   6.079 -0.5180  0.1241 -1.0824
   76MOL0     H10197   0.121   9.258   5.884  0.2960 -0.8242  0.6515
   76MOL0     H10198   0.011   9.153   5.814 -0.6076  2.3087 -0.0445
   76MOL0     H10199  -0.168   9.299   5.958 -0.1874  0.2722  0.2014
   76MOL0     H10200  -0.050   9.421   5.967 -4.6700  2.6362 -0.4471
   76MOL0     H10201  -0.087   9.474   5.734  1.0322  0.2917  2.4535
   76MOL0     H10202  -0.121   9.310   5.692  0.5017 -0.1219  0.9075
   76MOL0     H10203  -0.307   9.484   5.851  0.6704  0.7474 -0.8955
   76MOL0     H10204  -0.310   9.468   5.671 -2.2866 -1.9401 -1.1328
   76MOL0     H10205  -0.353   9.264   5.649  1.7161  0.8719  1.2959
   76MOL0     H10206  -0.323   9.214   5.818  0.1914  1.8030  2.4201
   76MOL0     H10207  -0.527   9.330   5.897  1.9974 -1.6687 -0.0561
   76MOL0     H10208  -0.562   9.388   5.743 -0.7883  1.5625  3.7833
   76MOL0     H10209  -0.700   9.168   5.850  1.0995 -0.2402  1.0077
   76MOL0     H10210  -0.552   9.091   5.810  2.5589 -0.2847 -2.6773
   76MOL0     H10211  -0.794   9.336   5.620 -0.4958 -0.5747  2.3158
   76MOL0     H10212  -0.825   9.380   5.353  0.9430  0.0895 -0.3184
   76MOL0     H10213  -0.782   9.253   5.241  4.5258 -1.0929  0.4346
   76MOL0     H10214  -0.969   9.131   5.442 -1.4999 -1.7880 -1.9718
   76MOL0     H10215  -1.002   9.167   5.278 -3.0310 -0.6520  2.0116
   76MOL0     H10216  -1.064   9.404   5.339  1.2441 -0.0440  0.8254
   76MOL0     H10217  -1.028   9.361   5.504 -0.1824  0.8239 -0.8298
   76MOL0     H10218  -1.271   9.361   5.440  1.5037  1.4587 -1.8576
   76MOL0     H10219  -1.221   9.210   5.517 -0.9954 -0.2302  0.1496
   76MOL0     H10220  -1.154   9.000   5.479 -0.2848 -0.4230  1.2927
   76MOL0     H10221  -1.209   8.824   5.610 -3.1712  3.8428 -2.8424
   76MOL0     H10222  -1.283   8.678   5.556 -0.1450 -0.0161 -3.6289
   76MOL0     H10223  -1.110   8.720   5.497  0.1644 -0.1959 -1.8237
   76MOL0     H10224  -1.554   8.517   5.004 -0.1853  0.7891  1.8013
   76MOL0     H10225  -1.712   8.310   4.960  0.9600 -3.2723 -0.1628
   76MOL0     H10226  -1.882   8.106   5.330  2.3214 -2.9401  1.9645
   76MOL0     H10227  -1.929   8.007   5.199 -1.5294  2.7355 -0.5906
   76MOL0     H10228  -1.625   8.051   5.255  1.7875 -2.8465 -1.1507
   76MOL0     H10229  -1.726   7.930   5.342  0.2028 -1.8014 -0.9021
   76MOL0     H10230  -1.695   7.950   5.030  1.5953 -0.9204  0.3561
   76MOL0     H10231  -1.817   7.858   5.116 -0.4763  1.0297  0.7467
   76MOL0     H10232  -1.586   7.763   5.034  0.2795 -1.3417  0.0379
   76MOL0     H10233  -1.521   7.840   5.184 -0.5774  1.3108  0.1410
   76MOL0     H10234  -1.689   7.679   5.312 -0.1343 -4.0933  1.2697
   76MOL0     H10235  -1.546   7.608   5.243 -0.3220  1.7015  1.8817
   76MOL0     H10236  -1.834   7.615   5.141  0.3418  0.8171  1.6512
   76MOL0     H10237  -1.716   7.579   5.024 -3.2241 -0.1233 -0.3907
   76MOL0     H10238  -1.741   7.403   5.282 -3.3269 -2.5924 -0.2690
   76MOL0     H10239  -1.613   7.397   5.162 -0.0011 -1.1138  2.2239
   76MOL0     H10240  -1.798   7.350   4.991 -4.2111 -1.5805 -0.2151
   76MOL0     H10241  -1.911   7.384   5.122 -0.7622 -0.6223 -0.5346
   76MOL0     H10242  -1.738   8.255   5.382 -3.5275  2.0573  1.0239
   76MOL0     H10243  -1.610   8.459   5.417 -0.1896 -1.1407  0.5892
   76MOL0     H10244  -1.447   8.839   5.108  0.1949  2.4500 -1.8199
   76MOL0     H10245  -1.408   9.082   5.143 -0.9714 -0.5323  1.2893
   76MOL0     H10246  -0.054   9.033   6.275 -2.8518  0.1328  1.2612
   76MOL0     H10247  -0.065   9.017   6.513  2.1667 -2.4154 -4.4025
   76MOL0     H10248  -0.184   9.159   6.872 -2.0822 -0.6879  1.5045
   76MOL0     H10249  -0.263   9.102   7.095  0.1253 -2.4638 -2.2058
   76MOL0     H10250  -0.300   9.135   7.312  0.5853 -0.9117 -2.9195
   76MOL0     H10251  -0.245   8.972   7.284 -2.1161  0.7389 -0.7569
   76MOL0     H10252  -0.342   8.991   7.501 -1.4482  3.3234 -2.2699
   76MOL0     H10253  -0.248   9.118   7.555 -2.1468 -1.0111  1.2491
   76MOL0     H10254  -0.107   8.856   7.463 -0.4633  0.5974 -0.4668
   76MOL0     H10255  -0.199   8.866   7.620 -0.8883 -0.5147 -0.9859
   76MOL0     H10256   0.049   9.019   7.534  0.2824 -0.1685  1.2921
   76MOL0     H10257   0.047   8.895   7.653  0.8283  0.3622  1.8744
   76MOL0     H10258  -0.072   9.219   7.881  0.9107  1.0833 -0.5164
   76MOL0     H10259   0.140   9.140   7.233 -1.8646 -3.2032  0.1698
   76MOL0     H10260   0.203   9.219   7.005 -0.5616  0.3927  0.2481
   77MOL0     O10261   2.039   1.617  10.305  0.3454 -0.1592 -0.4669
   77MOL0     C10262   1.950   1.538  10.279  0.8016  0.4383  0.1587
   77MOL0     O10263   1.910   1.500  10.152 -0.1268  0.5892 -0.0742
   77MOL0     C10264   1.997   1.525  10.047  0.5905  0.0117  0.4378
   77MOL0     C10265   2.033   1.425   9.957  0.1024 -0.3467  0.1767
   77MOL0     C10266   2.110   1.462   9.845 -0.1445 -0.3704  0.1710
   77MOL0     C10267   2.143   1.599   9.812 -0.1332  0.5009 -0.6089
   77MOL0     O10268   2.219   1.635   9.705 -0.4798  0.1994 -0.1184
   77MOL0     C10269   2.153   1.694   9.595  0.5328 -0.0862  0.2937
   77MOL0     C10270   2.183   1.623   9.466  1.0637  0.5365 -0.3365
   77MOL0     C10271   2.182   1.472   9.474  0.7609  0.3951  0.4958
   77MOL0     C10272   2.191   1.421   9.333  0.1245 -0.4232  0.1618
   77MOL0     C10273   2.161   1.274   9.344 -0.7656  0.4555 -0.1228
   77MOL0     C10274   2.153   1.207   9.203 -0.0959 -0.0180 -0.1727
   77MOL0     C10275   2.281   1.187   9.137  0.2641 -0.1525 -0.2933
   77MOL0     C10276   2.295   1.067   9.047 -0.1952 -0.2969  1.1529
   77MOL0     N10277   2.221   1.103   8.926 -0.5511  0.3181  0.3306
   77MOL0     C10278   2.270   1.182   8.821  0.2239  0.2381  0.0275
   77MOL0     C10279   2.164   1.182   8.732  0.5419 -0.3206 -0.6630
   77MOL0     C10280   2.163   1.245   8.597 -0.6892  0.5858 -0.5208
   77MOL0     C10281   2.093   1.141   8.502  0.8043  0.7162  0.3767
   77MOL0     C10282   2.070   1.195   8.364 -0.1226  0.3950 -0.3751
   77MOL0     C10283   1.982   1.103   8.274  0.2798  0.1851 -0.0445
   77MOL0     O10284   2.038   0.969   8.256  0.4199 -0.1621  0.1392
   77MOL0     C10285   1.958   0.874   8.191 -0.7885 -1.2709 -0.4654
   77MOL0     C10286   1.836   0.902   8.139  1.3444  0.0359  0.1926
   77MOL0     C10287   1.752   0.808   8.077  0.0406  0.3401 -0.6430
   77MOL0     C10288   1.622   0.854   8.014  0.6020  0.2077  1.0435
   77MOL0     C10289   1.801   0.667   8.072  0.7773 -0.4449  0.2761
   77MOL0     C10290   1.732   0.549   8.004  0.2636 -0.7406 -0.0605
   77MOL0     O10291   1.817   0.454   7.964 -0.5433  0.4131 -0.6757
   77MOL0     C10292   1.793   0.319   7.983  0.8031 -0.1876 -0.3206
   77MOL0     C10293   1.758   0.277   8.113  0.4944 -0.6147 -0.0779
   77MOL0     C10294   1.771   0.141   8.143 -0.2509 -0.3953  0.3365
   77MOL0     C10295   1.808   0.050   8.048  0.3016 -0.0908 -0.5366
   77MOL0     O10296   1.829  -0.081   8.081 -0.0692  0.3011 -0.2823
   77MOL0     C10297   1.788  -0.176   7.979  0.4154 -0.1633 -0.7297
   77MOL0     C10298   1.787  -0.324   8.020 -0.2228  0.3452 -0.3254
   77MOL0     C10299   1.667  -0.364   8.113  0.0203 -0.4751 -0.7333
   77MOL0     C10300   1.719  -0.360   8.260 -0.2951  0.0312  0.6519
   77MOL0     C10301   1.657  -0.459   8.356 -0.0330 -1.2866 -0.4054
   77MOL0     C10302   1.509  -0.432   8.392  0.0182 -0.6710  0.2412
   77MOL0     C10303   1.433  -0.550   8.456  0.1381  0.4232  0.7641
   77MOL0     C10304   1.313  -0.517   8.543 -1.1499  0.4636  0.0085
   77MOL0    Cl10305   1.224  -0.373   8.488  0.4411  0.4349  0.2716
   77MOL0     C10306   1.849   0.092   7.923 -0.4391 -0.3219 -0.0299
   77MOL0     C10307   1.834   0.228   7.891 -0.3393  0.5550 -0.2692
   77MOL0     O10308   1.609   0.546   7.998 -0.0962  0.1538  0.0103
   77MOL0     C10309   1.934   0.644   8.121  0.1972  0.1232  0.0965
   77MOL0     C10310   2.004   0.748   8.181 -0.6863 -1.0660  0.5493
   77MOL0     N10311   2.067   1.086   8.770 -0.7945  0.0262  0.5391
   77MOL0     N10312   2.094   1.043   8.887 -0.0351  0.3178 -0.1991
   77MOL0     C10313   2.084   1.692   9.889  0.2193  0.0279 -0.7691
   77MOL0     C10314   2.022   1.663  10.012 -0.0998  0.3497  0.6427
   77MOL0     C10315   1.847   1.496  10.380  0.4657 -0.3574 -0.3626
   77MOL0     C10316   1.737   1.426  10.332 -0.3008  0.0546  0.3192
   77MOL0     C10317   1.628   1.397  10.414 -0.1016  0.2996 -0.2918
   77MOL0     C10318   1.631   1.423  10.552 -0.1376  0.9826  0.3721
   77MOL0     O10319   1.523   1.410  10.639  0.4835  0.3641 -0.2057
   77MOL0     C10320   1.432   1.301  10.644 -0.4495 -0.4489  0.0770
   77MOL0     C10321   1.476   1.163  10.698 -1.2195  0.1794 -1.0937
   77MOL0     C10322   1.587   1.175  10.808  0.6283 -0.0544  0.6658
   77MOL0     C10323   1.641   1.033  10.810 -0.1027 -0.0161 -0.0331
   77MOL0     C10324   1.764   1.033  10.892  0.5271 -0.1552 -0.2056
   77MOL0     C10325   1.862   1.019  10.961 -0.3193  0.6429 -0.2257
   77MOL0     C10326   1.748   1.480  10.609  0.3055 -0.4287 -0.0592
   77MOL0     C10327   1.854   1.522  10.517 -0.2345 -0.2970 -0.4748
   77MOL0     H10328   2.008   1.321   9.977 -1.7846 -0.5237 -2.5723
   77MOL0     H10329   2.143   1.388   9.773 -0.2845  0.6785 -1.0049
   77MOL0     H10330   2.045   1.687   9.606  0.6489 -0.9121  0.9497
   77MOL0     H10331   2.182   1.800   9.587 -0.2793  0.1206  0.0599
   77MOL0     H10332   2.125   1.661   9.382  1.2296 -0.0797 -0.7384
   77MOL0     H10333   2.284   1.652   9.436  0.0025  1.5027 -3.2835
   77MOL0     H10334   2.272   1.441   9.528  0.2952 -0.0542  1.0185
   77MOL0     H10335   2.096   1.432   9.528 -0.1526  2.6123  0.7831
   77MOL0     H10336   2.108   1.464   9.277  0.4360  1.5328  1.1145
   77MOL0     H10337   2.288   1.443   9.290  1.1889  1.4473  3.1913
   77MOL0     H10338   2.239   1.229   9.406 -1.8060  0.5456  1.3009
   77MOL0     H10339   2.074   1.250   9.406 -1.5979 -0.7391 -1.6851
   77MOL0     H10340   2.103   1.111   9.218  0.1121  0.1613  2.0674
   77MOL0     H10341   2.091   1.265   9.134 -0.4826  2.5753  2.1519
   77MOL0     H10342   2.311   1.274   9.078 -1.1802 -1.1466 -2.6383
   77MOL0     H10343   2.359   1.167   9.211 -1.5278 -3.0500  0.9882
   77MOL0     H10344   2.250   0.980   9.095 -0.2557 -0.4044  0.9020
   77MOL0     H10345   2.396   1.039   9.017  0.2291  0.4403  1.8289
   77MOL0     H10346   2.368   1.229   8.825 -0.7406  2.3366  0.0389
   77MOL0     H10347   2.099   1.334   8.592 -2.1392 -0.3757  0.4943
   77MOL0     H10348   2.264   1.262   8.558 -0.9412 -0.2924 -1.5925
   77MOL0     H10349   1.993   1.126   8.544  0.6031  0.3382 -0.2245
   77MOL0     H10350   2.148   1.047   8.503  3.3998  2.1303  1.3870
   77MOL0     H10351   2.172   1.217   8.330  0.7086  0.3269  1.9383
   77MOL0     H10352   2.014   1.288   8.378 -2.3374 -0.7627 -1.0731
   77MOL0     H10353   1.970   1.150   8.176 -0.0605  3.5170  1.4848
   77MOL0     H10354   1.890   1.080   8.328 -0.5812  1.7278 -0.7891
   77MOL0     H10355   1.799   1.004   8.154  2.0822  0.0807  1.8543
   77MOL0     H10356   1.529   0.845   8.071 -0.0331 -0.3195 -0.0355
   77MOL0     H10357   1.631   0.948   7.957  1.0753 -1.4959 -1.9010
   77MOL0     H10358   1.609   0.785   7.930  1.5204  1.5248 -0.2256
   77MOL0     H10359   1.725   0.348   8.188 -2.0572  0.1114 -1.7622
   77MOL0     H10360   1.764   0.105   8.245  0.3206  0.0039  0.5202
   77MOL0     H10361   1.684  -0.161   7.946 -0.0964  0.2067  0.9375
   77MOL0     H10362   1.853  -0.166   7.892  0.4233 -1.2944 -0.8694
   77MOL0     H10363   1.792  -0.385   7.929  1.3587  0.6119 -0.4428
   77MOL0     H10364   1.882  -0.339   8.071 -0.3363 -3.3094 -0.8785
   77MOL0     H10365   1.650  -0.468   8.082  1.3407 -1.2063  0.8451
   77MOL0     H10366   1.574  -0.314   8.085 -0.8054 -1.4148  0.2549
   77MOL0     H10367   1.826  -0.377   8.268  0.2431  1.7952 -1.5945
   77MOL0     H10368   1.707  -0.256   8.292 -0.2963 -0.1733  1.3392
   77MOL0     H10369   1.700  -0.446   8.455 -0.8600 -0.0950 -0.1818
   77MOL0     H10370   1.681  -0.563   8.331 -0.5187 -1.9454  1.6668
   77MOL0     H10371   1.509  -0.338   8.449  0.1135 -0.7285  0.3343
   77MOL0     H10372   1.459  -0.412   8.296  2.0891 -1.0711 -0.9730
   77MOL0     H10373   1.502  -0.619   8.503  1.4330  0.4003 -1.0624
   77MOL0     H10374   1.385  -0.602   8.373  2.0703 -0.8702  0.4004
   77MOL0     H10375   1.348  -0.496   8.644  1.4206 -0.5370 -0.6055
   77MOL0     H10376   1.243  -0.601   8.537  0.4337 -1.0395  1.4778
   77MOL0     H10377   1.878   0.035   7.836 -1.9518  1.1748 -1.5814
   77MOL0     H10378   1.868   0.269   7.797  4.6090  1.7544  1.7224
   77MOL0     H10379   1.978   0.545   8.121 -0.3739 -0.2421 -2.9209
   77MOL0     H10380   2.108   0.738   8.209  0.3884  3.8504 -0.7734
   77MOL0     H10381   2.078   1.791   9.845 -0.5779 -0.1913 -1.1568
   77MOL0     H10382   1.976   1.744  10.067  0.6606  0.7317  0.7240
   77MOL0     H10383   1.708   1.405  10.229  1.0329  0.9898 -0.2742
   77MOL0     H10384   1.542   1.347  10.370  1.1575 -0.8399 -1.5440
   77MOL0     H10385   1.349   1.331  10.709 -0.6263 -3.9299  1.7008
   77MOL0     H10386   1.391   1.284  10.544 -0.6660 -0.3816  0.1545
   77MOL0     H10387   1.510   1.090  10.623 -2.0938 -1.8750  0.4196
   77MOL0     H10388   1.390   1.107  10.735  0.9498 -4.7060 -2.5131
   77MOL0     H10389   1.537   1.199  10.903 -1.4006 -1.7366  0.1147
   77MOL0     H10390   1.668   1.241  10.777  4.5931 -4.0062  1.7200
   77MOL0     H10391   1.684   0.989  10.719 -0.8675 -0.7966 -0.0327
   77MOL0     H10392   1.566   0.963  10.849 -0.3013  0.8361  1.1485
   77MOL0     H10393   1.945   1.023  11.028  0.2241  0.6111 -0.8949
   77MOL0     H10394   1.738   1.521  10.709 -1.3343  3.4913 -1.6232
   77MOL0     H10395   1.942   1.570  10.559  0.2586  0.2803 -2.1120
   78MOL0     O10396  11.084   0.403   1.087  0.9547  0.0238  0.2470
   78MOL0     C10397  11.101   0.397   0.969 -0.9784  0.7032  0.9492
   78MOL0     O10398  11.053   0.486   0.876  0.2984  0.6781  0.1734
   78MOL0     C10399  10.988   0.607   0.904  0.4230  1.0466  0.1809
   78MOL0     C10400  10.929   0.656   0.787 -0.7647  0.0347  0.1012
   78MOL0     C10401  10.872   0.787   0.780  0.8674  0.2508  0.8693
   78MOL0     C10402  10.854   0.856   0.898 -0.2335  0.2087  0.5311
   78MOL0     O10403  10.778   0.970   0.900  0.0096 -0.2975  0.2521
   78MOL0     C10404  10.672   0.961   0.995 -0.6291 -0.3327  0.3300
   78MOL0     C10405  10.547   1.024   0.921 -0.1465  0.1303 -1.1095
   78MOL0     C10406  10.550   1.173   0.924 -0.8150 -0.2941 -0.2730
   78MOL0     C10407  10.430   1.248   0.865 -0.6114 -0.1183  0.3905
   78MOL0     C10408  10.297   1.214   0.907 -0.1434 -0.2700  0.0510
   78MOL0     C10409  10.187   1.298   0.829  0.3213  0.0001 -0.7790
   78MOL0     C10410  10.152   1.267   0.687 -0.4869  0.3399  0.3961
   78MOL0     C10411  10.083   1.133   0.676 -0.5652  0.7044  0.3927
   78MOL0     N10412   9.950   1.142   0.746  0.0964  0.5116  0.4919
   78MOL0     C10413   9.832   1.197   0.696  0.3753  0.0912  0.0185
   78MOL0     C10414   9.738   1.138   0.780  0.1774  0.4500  0.5808
   78MOL0     C10415   9.585   1.139   0.762  0.8219 -0.2505 -0.1690
   78MOL0     C10416   9.523   1.227   0.877 -0.0102  0.4465  0.3011
   78MOL0     C10417   9.367   1.238   0.888 -0.9455  0.0795  0.2298
   78MOL0     C10418   9.288   1.113   0.860  0.3072 -1.1124 -0.2383
   78MOL0     O10419   9.303   1.046   0.983  0.0458 -0.2824  0.1792
   78MOL0     C10420   9.192   0.980   1.026 -0.4728 -0.3290 -1.0751
   78MOL0     C10421   9.134   1.012   1.145  0.0364  0.0246 -0.3093
   78MOL0     C10422   9.038   0.934   1.205 -0.6112  0.1236 -0.4574
   78MOL0     C10423   8.996   0.970   1.345 -0.4901  0.0734 -0.5364
   78MOL0     C10424   8.978   0.821   1.131  0.4806 -0.9077  0.1494
   78MOL0     C10425   8.856   0.737   1.164 -0.1957 -0.3496  0.0233
   78MOL0     O10426   8.810   0.651   1.071  0.6589  0.6205 -0.9296
   78MOL0     C10427   8.721   0.556   1.091  0.6530 -0.4616 -0.0570
   78MOL0     C10428   8.585   0.582   1.130 -0.5209  0.0699  1.3068
   78MOL0     C10429   8.497   0.480   1.129 -0.2814 -0.2465  0.3389
   78MOL0     C10430   8.538   0.345   1.098  0.6939 -1.8658  0.1993
   78MOL0     O10431   8.462   0.237   1.094  0.0660  0.3785  0.8571
   78MOL0     C10432   8.319   0.225   1.133  0.6454 -0.1377  0.1709
   78MOL0     C10433   8.238   0.278   1.016 -0.2382  0.5282  0.9253
   78MOL0     C10434   8.084   0.251   1.032  0.2965 -0.0756  0.3389
   78MOL0     C10435   8.002   0.305   0.910  1.1455 -0.7609 -0.3968
   78MOL0     C10436   7.936   0.434   0.947 -0.0963 -0.0135  0.0869
   78MOL0     C10437   7.869   0.490   0.817  0.5959 -0.2104  0.4618
   78MOL0     C10438   7.854   0.646   0.832 -0.5985  1.1928  0.6028
   78MOL0     C10439   7.852   0.698   0.692 -0.7124  0.1107 -0.0952
   78MOL0    Cl10440   7.709   0.647   0.600 -0.1514 -0.0164  0.6186
   78MOL0     C10441   8.669   0.326   1.058  1.1947  0.8964 -0.6147
   78MOL0     C10442   8.760   0.426   1.062  0.4889 -0.5022  0.0862
   78MOL0     O10443   8.797   0.757   1.272 -0.2126 -0.1648 -0.6203
   78MOL0     C10444   9.045   0.788   1.006  0.2278 -0.3224 -0.6674
   78MOL0     C10445   9.145   0.868   0.950  0.4140  0.5183  0.4178
   78MOL0     N10446   9.796   1.062   0.873 -0.5114 -0.3417 -0.9977
   78MOL0     N10447   9.922   1.060   0.851  0.5438 -0.2929  0.0238
   78MOL0     C10448  10.922   0.806   1.020 -0.7079 -0.0367 -0.1419
   78MOL0     C10449  10.993   0.686   1.015 -0.0243 -0.7587 -0.4535
   78MOL0     C10450  11.177   0.281   0.903  0.7097  0.0680  1.0056
   78MOL0     C10451  11.223   0.171   0.978  0.1272 -0.9318 -0.4546
   78MOL0     C10452  11.298   0.072   0.923 -0.0370  0.3145  0.3538
   78MOL0     C10453  11.345   0.076   0.790 -0.4736  0.4399 -1.0532
   78MOL0     O10454  11.443  -0.020   0.744  0.3891 -0.6747  0.5472
   78MOL0     C10455  11.552  -0.064   0.831 -0.2928 -0.7005 -0.3617
   78MOL0     C10456  11.651   0.050   0.855 -0.2612 -0.7925 -0.4326
   78MOL0     C10457  11.724   0.082   0.725 -0.0141  1.2422  0.1392
   78MOL0     C10458  11.869   0.107   0.742 -0.0004 -0.9087 -0.0979
   78MOL0     C10459  11.934   0.114   0.604 -0.5521 -0.1901 -0.2854
   78MOL0     C10460  11.975   0.112   0.491 -0.2013 -0.4996 -0.6741
   78MOL0     C10461  11.306   0.187   0.716  0.0354  0.1022  0.1853
   78MOL0     C10462  11.225   0.288   0.768 -0.2685 -0.4903  0.6459
   78MOL0     H10463  10.929   0.596   0.697  1.8572 -0.6555  0.4983
   78MOL0     H10464  10.817   0.819   0.691  1.7179  0.0626  0.2637
   78MOL0     H10465  10.642   0.859   1.022 -0.5821 -0.1931  0.9299
   78MOL0     H10466  10.692   1.025   1.081 -1.1234  3.7511 -2.3080
   78MOL0     H10467  10.548   0.980   0.821  0.0030  2.0466 -2.0121
   78MOL0     H10468  10.454   0.982   0.961  0.1533 -0.8991 -1.4735
   78MOL0     H10469  10.573   1.207   1.025 -2.7679  3.7219 -0.9854
   78MOL0     H10470  10.632   1.206   0.859 -0.5739  1.1835  0.7258
   78MOL0     H10471  10.445   1.356   0.879 -0.9099 -0.0961  0.5427
   78MOL0     H10472  10.445   1.221   0.760  2.7881 -0.0818  0.7508
   78MOL0     H10473  10.276   1.108   0.896 -0.1430 -0.2923  0.2716
   78MOL0     H10474  10.299   1.233   1.014  1.4041 -1.5009  0.2704
   78MOL0     H10475  10.101   1.297   0.895  1.3601 -1.5593  0.6367
   78MOL0     H10476  10.214   1.404   0.838 -0.0863  0.2027 -1.8010
   78MOL0     H10477  10.086   1.346   0.648 -2.3703 -1.5235 -0.4172
   78MOL0     H10478  10.243   1.268   0.627 -2.6960  0.5456 -3.2446
   78MOL0     H10479  10.137   1.048   0.718 -1.7141 -1.0227 -1.3814
   78MOL0     H10480  10.076   1.114   0.568 -0.5667  1.0449  0.3323
   78MOL0     H10481   9.803   1.248   0.605 -2.2594 -0.6150  0.3811
   78MOL0     H10482   9.562   1.183   0.665  0.5526 -4.1932 -2.1289
   78MOL0     H10483   9.540   1.040   0.775 -0.3398  0.4276  1.2666
   78MOL0     H10484   9.560   1.328   0.860 -1.2734  0.7234 -0.9479
   78MOL0     H10485   9.564   1.193   0.973  1.3827 -0.3031 -0.5251
   78MOL0     H10486   9.328   1.319   0.825  1.9815 -0.9106 -3.1696
   78MOL0     H10487   9.352   1.268   0.992  2.5639  1.2364  0.5136
   78MOL0     H10488   9.323   1.051   0.778 -1.4282 -2.0011 -0.3469
   78MOL0     H10489   9.182   1.139   0.850  0.5538  1.3610  2.1319
   78MOL0     H10490   9.175   1.095   1.202  2.7675 -1.3537 -0.1016
   78MOL0     H10491   9.071   1.038   1.387  0.3645 -0.6183 -0.9098
   78MOL0     H10492   8.903   1.028   1.342 -0.1869  0.5476 -0.7793
   78MOL0     H10493   8.980   0.878   1.402 -0.3622  1.0014  1.0674
   78MOL0     H10494   8.549   0.684   1.140 -1.6370  0.1524 -2.1506
   78MOL0     H10495   8.393   0.509   1.133  0.2324  1.6650  0.7982
   78MOL0     H10496   8.288   0.122   1.155  1.2229 -0.6262 -1.2417
   78MOL0     H10497   8.290   0.286   1.219 -3.6060 -0.9187 -0.4954
   78MOL0     H10498   8.267   0.382   1.000  0.4149 -0.2635 -5.4637
   78MOL0     H10499   8.269   0.225   0.926  0.7219 -1.2235  2.2258
   78MOL0     H10500   8.052   0.293   1.128  0.1363 -2.6233  1.4895
   78MOL0     H10501   8.067   0.143   1.035 -0.4556  0.0517  2.0124
   78MOL0     H10502   8.053   0.310   0.814 -0.9874 -0.5959 -1.5820
   78MOL0     H10503   7.917   0.240   0.890 -0.7382  1.3665  0.1869
   78MOL0     H10504   8.018   0.495   0.986  1.5769 -3.1103  1.8216
   78MOL0     H10505   7.867   0.432   1.032  1.0716 -2.9977  1.1031
   78MOL0     H10506   7.927   0.468   0.726 -1.1391 -2.0685 -0.2722
   78MOL0     H10507   7.774   0.438   0.799  1.2166 -1.3465  0.3958
   78MOL0     H10508   7.933   0.689   0.893  2.2285 -0.9284 -1.3183
   78MOL0     H10509   7.761   0.662   0.887 -1.6473 -2.4728  0.1790
   78MOL0     H10510   7.946   0.663   0.648  0.1305  0.5003  1.3235
   78MOL0     H10511   7.846   0.806   0.702  1.0514  0.5398 -2.6897
   78MOL0     H10512   8.691   0.225   1.025  2.6000  2.4951 -5.2398
   78MOL0     H10513   8.859   0.401   1.025 -0.2219 -1.7977 -1.0452
   78MOL0     H10514   9.006   0.707   0.945  3.5110 -2.3488 -0.3162
   78MOL0     H10515   9.210   0.837   0.869 -0.9873 -1.4735 -0.0103
   78MOL0     H10516  10.917   0.867   1.109  0.3980 -0.4864  0.2446
   78MOL0     H10517  11.036   0.668   1.112 -1.0906 -3.3194 -0.3763
   78MOL0     H10518  11.196   0.173   1.083  1.1904 -0.4570 -0.1778
   78MOL0     H10519  11.321  -0.011   0.990 -2.1826  0.8749  1.9258
   78MOL0     H10520  11.509  -0.088   0.929 -0.5900  0.6044 -0.1616
   78MOL0     H10521  11.601  -0.155   0.794 -1.8204 -1.3426 -0.8996
   78MOL0     H10522  11.717   0.003   0.929  0.1322 -0.4959 -0.5908
   78MOL0     H10523  11.608   0.143   0.892  1.7715 -0.3572  0.9883
   78MOL0     H10524  11.670   0.163   0.675 -0.5810  0.9924  0.3338
   78MOL0     H10525  11.710  -0.004   0.660 -3.6042  0.8847  1.1745
   78MOL0     H10526  11.920   0.031   0.802  1.2704 -2.3064 -2.7189
   78MOL0     H10527  11.883   0.206   0.785 -1.0405 -0.8441  0.1133
   78MOL0     H10528  12.019   0.124   0.394 -0.0366 -2.2273 -0.8488
   78MOL0     H10529  11.342   0.191   0.614 -1.7402  0.3337 -0.4722
   78MOL0     H10530  11.211   0.379   0.710 -1.2900  0.8636  2.8725
   79MOL0     O10531   6.968   9.913   3.286 -0.3819 -0.6411 -0.7340
   79MOL0     C10532   6.991   9.923   3.406  0.7588 -0.4665  0.7752
   79MOL0     O10533   6.912   9.997   3.489 -0.7308 -0.7097 -0.2112
   79MOL0     C10534   6.827  10.106   3.439 -0.2109  0.3212  0.5037
   79MOL0     C10535   6.842  10.224   3.508  0.1111  0.2357 -0.4020
   79MOL0     C10536   6.765  10.332   3.461 -0.0997  0.7845 -0.0574
   79MOL0     C10537   6.667  10.322   3.358 -0.4282  0.0275 -0.6465
   79MOL0     O10538   6.602  10.435   3.330  0.1809 -0.0968 -0.3523
   79MOL0     C10539   6.598  10.471   3.183 -0.4018  0.2061  1.0848
   79MOL0     C10540   6.520  10.598   3.147  0.0863  0.6056 -0.1893
   79MOL0     C10541   6.387  10.579   3.219 -0.6082 -0.4851  0.6978
   79MOL0     C10542   6.299  10.700   3.209 -0.5826  0.4348  1.0062
   79MOL0     C10543   6.170  10.696   3.286  0.0066 -0.5215 -0.1069
   79MOL0     C10544   6.113  10.841   3.285 -0.6550 -0.1658  0.3671
   79MOL0     C10545   6.006  10.850   3.400  0.2495  0.3700 -1.0103
   79MOL0     C10546   6.073  10.846   3.538  0.1712 -0.5838 -0.4797
   79MOL0     N10547   5.964  10.907   3.619  0.4065 -0.7255 -0.2173
   79MOL0     C10548   5.841  10.848   3.648  0.0473 -0.6196 -0.0023
   79MOL0     C10549   5.787  10.936   3.735 -0.1533  0.4472  0.7311
   79MOL0     C10550   5.648  10.915   3.806  0.5402  1.0806 -1.0590
   79MOL0     C10551   5.590  11.054   3.855 -0.5180 -0.1160  0.0885
   79MOL0     C10552   5.455  11.037   3.917 -0.2291  0.0091 -0.5957
   79MOL0     C10553   5.380  11.165   3.929  0.0562 -0.1415  0.7169
   79MOL0     O10554   5.355  11.212   3.798 -0.1042 -0.9448  0.7995
   79MOL0     C10555   5.247  11.163   3.725 -0.0555 -0.8301  0.6242
   79MOL0     C10556   5.257  11.164   3.583  0.6136 -0.4767 -0.3710
   79MOL0     C10557   5.141  11.121   3.502 -0.1336 -0.5368 -0.0234
   79MOL0     C10558   5.168  11.132   3.356 -0.6517  0.4774  0.6198
   79MOL0     C10559   5.020  11.083   3.569  1.0045 -0.3479 -0.1220
   79MOL0     C10560   4.900  11.040   3.487 -0.4348  0.3418 -0.2607
   79MOL0     O10561   4.913  10.998   3.354 -0.2321 -0.4652  0.0189
   79MOL0     C10562   4.798  10.945   3.305 -0.1094  0.2497  0.1410
   79MOL0     C10563   4.766  10.817   3.334 -0.3869 -0.0583  0.6424
   79MOL0     C10564   4.641  10.761   3.291 -0.8187  0.3770 -0.3400
   79MOL0     C10565   4.556  10.839   3.217  0.0263  0.0441  0.5187
   79MOL0     O10566   4.432  10.787   3.174 -0.1193 -0.2422 -0.0071
   79MOL0     C10567   4.391  10.830   3.045 -0.0804 -0.4254  0.5712
   79MOL0     C10568   4.335  10.704   2.979  0.5205 -0.1660 -0.2537
   79MOL0     C10569   4.252  10.738   2.854  0.1088  0.6326  0.0650
   79MOL0     C10570   4.136  10.645   2.832 -0.5486  0.3957 -0.5301
   79MOL0     C10571   4.066  10.675   2.704 -0.5640  0.0768  0.0785
   79MOL0     C10572   3.951  10.581   2.677  0.3350  0.0553  0.3861
   79MOL0     C10573   3.966  10.439   2.630 -0.9351 -0.6259 -0.4478
   79MOL0     C10574   3.850  10.332   2.617  0.3796 -0.3267 -1.0384
   79MOL0    Cl10575   3.767  10.314   2.769  0.2220  0.1111 -0.3174
   79MOL0     C10576   4.588  10.972   3.198 -0.5716 -0.3576 -0.0583
   79MOL0     C10577   4.712  11.025   3.241  0.6827 -0.7056 -0.7634
   79MOL0     O10578   4.794  11.056   3.546 -0.7301  0.2639 -0.2653
   79MOL0     C10579   5.016  11.098   3.709  0.5990 -1.0193 -0.5265
   79MOL0     C10580   5.121  11.146   3.780  0.2469  0.7828 -0.1237
   79MOL0     N10581   5.877  11.032   3.777 -0.9559  0.5630  0.4302
   79MOL0     N10582   5.984  11.011   3.700 -0.6641 -0.1429 -0.2178
   79MOL0     C10583   6.657  10.201   3.282  0.5408  0.0839 -0.2032
   79MOL0     C10584   6.740  10.092   3.326  0.9603  0.2954  0.4286
   79MOL0     C10585   7.093   9.836   3.471  0.3676  0.1781 -0.8530
   79MOL0     C10586   7.105   9.823   3.612  0.4696  1.0280  0.0058
   79MOL0     C10587   7.210   9.743   3.664  0.2927  0.1565 -0.4391
   79MOL0     C10588   7.298   9.671   3.574  0.1006 -0.5709  0.8430
   79MOL0     O10589   7.423   9.605   3.600  0.5692 -0.8062  0.1989
   79MOL0     C10590   7.465   9.581   3.734  0.2730 -0.6975 -0.0329
   79MOL0     C10591   7.520   9.711   3.807 -1.2463  0.0294  1.0432
   79MOL0     C10592   7.606   9.669   3.921  1.1837  0.5161  0.7109
   79MOL0     C10593   7.758   9.650   3.879  0.7017 -0.1253  0.5682
   79MOL0     C10594   7.828   9.622   4.009 -0.2449  0.0587  0.1557
   79MOL0     C10595   7.880   9.598   4.116 -0.5548 -0.4045  0.0359
   79MOL0     C10596   7.264   9.676   3.442 -0.2392 -0.8284 -0.4940
   79MOL0     C10597   7.174   9.763   3.388 -0.4499 -0.4901  0.2235
   79MOL0     H10598   6.915  10.229   3.589 -0.3788  1.7815 -0.0345
   79MOL0     H10599   6.778  10.436   3.489 -3.0253  1.6285 -1.4708
   79MOL0     H10600   6.699  10.475   3.140 -1.7903 -3.1644 -3.2875
   79MOL0     H10601   6.554  10.390   3.124  1.6876  1.5071 -2.6043
   79MOL0     H10602   6.572  10.693   3.166  0.3501  0.6525 -1.0886
   79MOL0     H10603   6.495  10.594   3.040  0.3685  0.6457 -0.2579
   79MOL0     H10604   6.331  10.492   3.183 -0.2826 -1.2190  1.8962
   79MOL0     H10605   6.410  10.564   3.325 -1.0639 -2.1004  0.5963
   79MOL0     H10606   6.357  10.790   3.231  1.6877 -0.1584 -1.9032
   79MOL0     H10607   6.263  10.704   3.105 -1.4965  2.3185  1.3547
   79MOL0     H10608   6.096  10.623   3.253 -0.8409 -0.0758  0.7573
   79MOL0     H10609   6.203  10.669   3.387  0.6724  0.8733  0.0878
   79MOL0     H10610   6.182  10.926   3.293 -2.7469  1.4967  1.9290
   79MOL0     H10611   6.074  10.863   3.186  0.0797  0.0159  0.1103
   79MOL0     H10612   5.967  10.952   3.395 -0.4114  0.1740 -0.0868
   79MOL0     H10613   5.936  10.766   3.399  1.3412 -0.6904  1.4206
   79MOL0     H10614   6.161  10.912   3.531 -0.7237  0.4586 -2.7372
   79MOL0     H10615   6.109  10.747   3.568  2.9651  0.4768  0.0423
   79MOL0     H10616   5.796  10.759   3.605 -0.5441 -1.7560  2.7699
   79MOL0     H10617   5.574  10.878   3.734 -3.0081 -1.3492  3.2784
   79MOL0     H10618   5.666  10.842   3.885 -0.7782  1.0943 -0.7251
   79MOL0     H10619   5.581  11.124   3.771  0.8063  1.6003  1.2975
   79MOL0     H10620   5.657  11.109   3.922  0.0489  1.0935 -1.4127
   79MOL0     H10621   5.468  11.003   4.020  1.9609 -0.4119 -0.9624
   79MOL0     H10622   5.398  10.964   3.860  2.0804 -1.4217 -1.1835
   79MOL0     H10623   5.440  11.247   3.969  0.2472 -0.2750  0.7019
   79MOL0     H10624   5.288  11.144   3.985  0.1633 -1.6397  0.3848
   79MOL0     H10625   5.354  11.170   3.536  1.5523 -1.2776  1.3619
   79MOL0     H10626   5.257  11.194   3.342  0.7134 -1.5523 -0.1567
   79MOL0     H10627   5.199  11.034   3.317  1.8290  2.1858 -2.1107
   79MOL0     H10628   5.089  11.155   3.284 -1.6754 -0.2904  1.4562
   79MOL0     H10629   4.829  10.757   3.399 -1.2184 -2.5671 -0.7483
   79MOL0     H10630   4.603  10.664   3.322 -1.9228  0.3829 -1.6059
   79MOL0     H10631   4.325  10.917   3.056  1.9160  1.1891  0.4587
   79MOL0     H10632   4.473  10.861   2.979 -2.6359  1.8375 -1.8036
   79MOL0     H10633   4.411  10.627   2.961 -0.2574 -1.7835  2.6741
   79MOL0     H10634   4.261  10.665   3.050  1.2203  1.6809  1.6034
   79MOL0     H10635   4.317  10.713   2.769 -0.1451 -1.0661  0.3384
   79MOL0     H10636   4.222  10.843   2.843 -2.0050  0.0244 -0.4067
   79MOL0     H10637   4.154  10.538   2.820  2.4034  0.5777  1.2595
   79MOL0     H10638   4.068  10.670   2.915  0.6335 -0.2065  0.6513
   79MOL0     H10639   4.131  10.668   2.616 -0.2763  0.5659  0.2468
   79MOL0     H10640   4.032  10.779   2.701  3.1397  1.4410 -1.0230
   79MOL0     H10641   3.891  10.578   2.768 -3.1980  0.2653 -1.7319
   79MOL0     H10642   3.886  10.626   2.601  0.9146 -0.3469 -0.3716
   79MOL0     H10643   4.039  10.389   2.694  1.7765  0.9157 -2.1570
   79MOL0     H10644   4.014  10.444   2.532  1.2819  1.1077  0.6328
   79MOL0     H10645   3.882  10.229   2.601 -0.0786 -0.6998  0.3111
   79MOL0     H10646   3.779  10.350   2.536  0.9506 -1.9477 -1.9500
   79MOL0     H10647   4.526  11.048   3.151  1.1684  0.2395 -1.5227
   79MOL0     H10648   4.748  11.127   3.229  4.7565 -2.0383 -1.5217
   79MOL0     H10649   4.921  11.096   3.762  0.6649 -0.1000 -0.3452
   79MOL0     H10650   5.107  11.163   3.886  0.0745  1.1582 -0.2039
   79MOL0     H10651   6.575  10.198   3.211 -1.8885 -0.6988  2.4226
   79MOL0     H10652   6.721   9.998   3.274  0.8739 -1.3284  3.2093
   79MOL0     H10653   7.042   9.891   3.669 -1.9289 -1.6472  0.7972
   79MOL0     H10654   7.231   9.742   3.770 -2.2152 -2.7717  0.1467
   79MOL0     H10655   7.389   9.530   3.794  0.5498  0.0927  1.0157
   79MOL0     H10656   7.543   9.504   3.729  0.1023 -0.7842 -1.9381
   79MOL0     H10657   7.424   9.754   3.837 -1.0552 -0.3826  2.2905
   79MOL0     H10658   7.572   9.775   3.735 -2.0671 -1.9200 -1.4522
   79MOL0     H10659   7.573   9.574   3.963  1.4265  1.3373  2.9455
   79MOL0     H10660   7.587   9.740   4.003  0.0663  2.5428 -1.1896
   79MOL0     H10661   7.788   9.741   3.826  0.9168  0.5173  1.7351
   79MOL0     H10662   7.774   9.567   3.811 -0.8627  0.1815 -0.2102
   79MOL0     H10663   7.930   9.569   4.207 -1.3477 -1.8858  0.0325
   79MOL0     H10664   7.320   9.614   3.372 -0.2228 -2.7073  1.0973
   79MOL0     H10665   7.178   9.759   3.280  1.1530 -2.4179  0.2976
   80MOL0     O10666   9.972   0.392   2.834  0.0740  0.1801  0.7231
   80MOL0     C10667   9.903   0.485   2.805  0.3553  0.1388 -0.5214
   80MOL0     O10668   9.928   0.584   2.720 -0.2018  0.1683 -0.2490
   80MOL0     C10669  10.058   0.616   2.682 -0.6203  0.1188 -0.3132
   80MOL0     C10670  10.068   0.680   2.556  0.8926  0.3670 -0.6871
   80MOL0     C10671  10.194   0.708   2.497  0.2293 -0.8772 -0.0307
   80MOL0     C10672  10.315   0.694   2.560 -0.0093  0.2191  0.7124
   80MOL0     O10673  10.433   0.739   2.499  0.2909  0.2818 -0.1281
   80MOL0     C10674  10.547   0.649   2.517  0.8957  0.1642 -0.0865
   80MOL0     C10675  10.621   0.642   2.388 -0.2579  0.0545 -0.1624
   80MOL0     C10676  10.774   0.637   2.400  0.2017 -0.0160 -0.5707
   80MOL0     C10677  10.816   0.513   2.490  0.0656  0.0824  0.5615
   80MOL0     C10678  10.963   0.492   2.478 -0.8964 -0.1342  0.6070
   80MOL0     C10679  11.010   0.412   2.345  0.1283 -0.6864 -0.1743
   80MOL0     C10680  11.161   0.424   2.316  0.2610 -0.2813  0.2262
   80MOL0     C10681  11.179   0.398   2.161 -0.7132 -0.3038  0.2750
   80MOL0     N10682  11.112   0.270   2.121 -0.1332  0.5317 -1.3264
   80MOL0     C10683  11.147   0.142   2.160 -0.4546  1.2464  0.6622
   80MOL0     C10684  11.059   0.054   2.095 -1.1620 -0.4788 -0.3708
   80MOL0     C10685  11.061  -0.102   2.118 -0.3735 -0.2525 -0.2655
   80MOL0     C10686  11.172  -0.166   2.031 -0.7321 -1.3616 -0.3201
   80MOL0     C10687  11.168  -0.122   1.887 -0.6086 -0.0132  0.6313
   80MOL0     C10688  11.310  -0.162   1.829  0.1827  0.8008 -0.9091
   80MOL0     O10689  11.325  -0.129   1.690  0.5127 -0.2348 -0.1451
   80MOL0     C10690  11.451  -0.149   1.645 -0.2255  0.5876 -0.6443
   80MOL0     C10691  11.559  -0.074   1.697 -0.2163  0.2178  0.0301
   80MOL0     C10692  11.698  -0.091   1.659  0.6288 -0.5878 -0.8427
   80MOL0     C10693  11.790   0.003   1.724 -1.0133  0.3754  0.4475
   80MOL0     C10694  11.729  -0.194   1.569 -0.8303 -0.2084 -0.5611
   80MOL0     C10695  11.872  -0.231   1.540 -0.4688 -0.9364  0.5987
   80MOL0     O10696  11.968  -0.128   1.511 -0.2346 -0.2547  0.2410
   80MOL0     C10697  12.090  -0.164   1.470  0.1444 -0.0301 -0.6366
   80MOL0     C10698  12.127  -0.245   1.362 -0.1395  0.0692 -0.5677
   80MOL0     C10699  12.262  -0.285   1.340  0.2562  0.3786  0.2251
   80MOL0     C10700  12.366  -0.226   1.412  0.4710  0.7753  0.0968
   80MOL0     O10701  12.495  -0.262   1.382 -0.0573 -0.0803 -0.5488
   80MOL0     C10702  12.608  -0.182   1.425  0.4524 -0.0353 -0.2363
   80MOL0     C10703  12.740  -0.255   1.397 -0.8941 -1.0543 -0.1976
   80MOL0     C10704  12.776  -0.225   1.256 -0.3719  0.6345 -0.1893
   80MOL0     C10705  12.911  -0.295   1.246  0.3055 -1.5639  1.1660
   80MOL0     C10706  12.951  -0.308   1.091  0.4898 -0.4360  0.1031
   80MOL0     C10707  13.096  -0.342   1.073  1.1536 -0.1005  0.0504
   80MOL0     C10708  13.131  -0.473   1.145 -0.5003 -0.4805  0.0204
   80MOL0     C10709  13.277  -0.526   1.106 -0.1998 -0.4132  0.5327
   80MOL0    Cl10710  13.270  -0.538   0.927  0.4669  0.0587 -0.1360
   80MOL0     C10711  12.335  -0.122   1.497 -0.7088  0.3687 -0.0619
   80MOL0     C10712  12.202  -0.103   1.540 -0.3300 -0.1675 -0.2231
   80MOL0     O10713  11.900  -0.347   1.550 -0.1818  1.0128 -0.6090
   80MOL0     C10714  11.618  -0.270   1.520  0.1290  0.6353 -1.0655
   80MOL0     C10715  11.483  -0.251   1.564 -0.2409  0.6815  0.2009
   80MOL0     N10716  10.973   0.135   2.028  0.2161 -0.2105  0.4160
   80MOL0     N10717  11.000   0.261   2.049  0.3545 -0.6934 -1.6599
   80MOL0     C10718  10.304   0.636   2.692 -0.9984  0.4368  0.1743
   80MOL0     C10719  10.179   0.605   2.754  0.3410  1.0639 -0.0671
   80MOL0     C10720   9.773   0.489   2.879  0.2064 -1.0623  0.1704
   80MOL0     C10721   9.737   0.379   2.950  0.9037 -0.1676 -0.0662
   80MOL0     C10722   9.612   0.363   3.010 -0.4313  0.2203 -0.6316
   80MOL0     C10723   9.524   0.471   3.009  0.3065 -0.9474 -0.2626
   80MOL0     O10724   9.392   0.448   3.051 -0.2016  0.8796 -0.1294
   80MOL0     C10725   9.303   0.561   3.050 -0.3101 -0.0292 -0.0859
   80MOL0     C10726   9.164   0.525   3.121 -0.1359 -0.5547 -0.1746
   80MOL0     C10727   9.182   0.454   3.260 -0.0130  0.3540 -0.4340
   80MOL0     C10728   9.055   0.376   3.315 -0.2704 -0.6573  0.1901
   80MOL0     C10729   8.942   0.466   3.293 -0.2659  0.8054 -0.1668
   80MOL0     C10730   8.851   0.535   3.257  0.0758  0.0228  0.3123
   80MOL0     C10731   9.567   0.590   2.958 -0.0038 -0.0941 -0.6424
   80MOL0     C10732   9.687   0.608   2.890 -0.2126  0.8252 -0.0368
   80MOL0     H10733   9.988   0.712   2.489  1.1106  2.1085 -0.1784
   80MOL0     H10734  10.197   0.742   2.393  2.8069 -1.4356 -0.2030
   80MOL0     H10735  10.609   0.700   2.591  2.1637  1.9307 -2.2504
   80MOL0     H10736  10.528   0.546   2.549 -1.2649  0.3561 -0.6070
   80MOL0     H10737  10.591   0.545   2.346  0.3602 -1.1336  2.0236
   80MOL0     H10738  10.589   0.722   2.321 -0.7807 -2.8687 -3.7651
   80MOL0     H10739  10.827   0.642   2.304  1.8849 -0.3057  0.2936
   80MOL0     H10740  10.813   0.726   2.450  3.0339 -1.9731  1.0382
   80MOL0     H10741  10.797   0.533   2.596  1.4650 -2.1703  1.3085
   80MOL0     H10742  10.753   0.424   2.479 -2.0670  0.5502  6.0321
   80MOL0     H10743  11.008   0.591   2.494  0.5332 -0.6094 -0.2487
   80MOL0     H10744  10.998   0.427   2.559  0.5183  0.2687  0.3575
   80MOL0     H10745  10.975   0.311   2.368 -4.0786  0.2104 -1.8273
   80MOL0     H10746  10.948   0.446   2.262  2.6177  3.8228 -0.5224
   80MOL0     H10747  11.211   0.521   2.332 -1.3134  0.6523 -0.2405
   80MOL0     H10748  11.205   0.352   2.385  1.8385  0.0478 -0.4138
   80MOL0     H10749  11.282   0.396   2.124 -1.1621 -1.3980 -0.9881
   80MOL0     H10750  11.134   0.484   2.110 -0.1077  1.4751  2.5947
   80MOL0     H10751  11.231   0.116   2.224  0.0369  0.7130 -0.1831
   80MOL0     H10752  11.079  -0.114   2.225 -0.5865  0.4656 -0.1432
   80MOL0     H10753  10.965  -0.146   2.091 -1.0180 -1.2380  3.1634
   80MOL0     H10754  11.170  -0.275   2.033 -0.8170 -1.3527  0.1055
   80MOL0     H10755  11.257  -0.125   2.087  0.6272 -3.0592 -1.0323
   80MOL0     H10756  11.157  -0.014   1.871 -1.6235 -0.1163  0.5683
   80MOL0     H10757  11.090  -0.175   1.831  1.0496 -1.3997 -0.4852
   80MOL0     H10758  11.316  -0.269   1.846  1.9601  1.0504  0.3402
   80MOL0     H10759  11.385  -0.115   1.893  0.8815 -1.5142  0.0528
   80MOL0     H10760  11.526   0.003   1.766 -0.0404 -0.7647  1.2397
   80MOL0     H10761  11.894  -0.029   1.730 -0.9467  0.5213  0.0922
   80MOL0     H10762  11.791   0.099   1.673  2.3084 -0.7017 -1.7943
   80MOL0     H10763  11.770   0.015   1.831 -0.5168  4.4541  0.2324
   80MOL0     H10764  12.041  -0.279   1.305 -1.9021  3.3715 -0.1283
   80MOL0     H10765  12.274  -0.363   1.266  1.2596  1.7670 -1.1679
   80MOL0     H10766  12.610  -0.078   1.389 -2.2725  0.4710  0.8443
   80MOL0     H10767  12.607  -0.184   1.534 -0.5532 -0.7347 -0.2432
   80MOL0     H10768  12.826  -0.214   1.451  0.0881 -3.2413  0.0313
   80MOL0     H10769  12.732  -0.362   1.419  1.6427 -1.6019 -1.5672
   80MOL0     H10770  12.789  -0.118   1.239 -1.3410  0.5251 -1.8578
   80MOL0     H10771  12.708  -0.261   1.178  0.4954  2.2509 -1.7847
   80MOL0     H10772  12.986  -0.245   1.308  1.2947  0.1552 -1.2651
   80MOL0     H10773  12.896  -0.398   1.282 -0.0802 -1.5511  1.0487
   80MOL0     H10774  12.918  -0.215   1.044  1.1284  1.5555  3.2255
   80MOL0     H10775  12.895  -0.381   1.032  2.2704 -2.4812  0.8353
   80MOL0     H10776  13.115  -0.337   0.965 -2.1721 -0.3523 -0.6474
   80MOL0     H10777  13.163  -0.269   1.120 -0.8335 -1.2922  5.4334
   80MOL0     H10778  13.053  -0.545   1.120 -0.2096 -0.0897 -2.2176
   80MOL0     H10779  13.152  -0.447   1.250  1.5730 -1.4220 -0.1046
   80MOL0     H10780  13.285  -0.626   1.151  1.7444  0.8851  3.3768
   80MOL0     H10781  13.363  -0.467   1.139  0.8726  1.0531 -4.2104
   80MOL0     H10782  12.411  -0.077   1.560  0.2764 -1.4077  0.0647
   80MOL0     H10783  12.169  -0.047   1.627  1.0757 -0.9808  0.8878
   80MOL0     H10784  11.636  -0.339   1.438  0.2267  1.6568 -1.9249
   80MOL0     H10785  11.402  -0.310   1.521 -0.0991 -0.2568  1.1721
   80MOL0     H10786  10.396   0.603   2.739 -0.1358  2.2092 -0.1847
   80MOL0     H10787  10.187   0.574   2.857 -0.7938  0.2255 -0.2225
   80MOL0     H10788   9.805   0.295   2.952  0.2263 -0.7480  2.7015
   80MOL0     H10789   9.584   0.266   3.049  0.1867  0.5458  0.6640
   80MOL0     H10790   9.355   0.643   3.101  1.2648  1.1651 -3.3078
   80MOL0     H10791   9.278   0.600   2.950  0.0865  2.2330  0.6278
   80MOL0     H10792   9.114   0.453   3.056 -4.1030  2.1938 -0.4542
   80MOL0     H10793   9.096   0.610   3.126 -1.0013 -1.2733  0.4360
   80MOL0     H10794   9.201   0.525   3.342 -1.1333  1.1949 -0.8832
   80MOL0     H10795   9.266   0.385   3.259  1.3585  1.8231  1.9265
   80MOL0     H10796   9.071   0.341   3.418 -1.5674  1.0045  1.0066
   80MOL0     H10797   9.043   0.283   3.259 -0.8122 -0.6447  0.2725
   80MOL0     H10798   8.771   0.586   3.207 -0.3979 -0.2170  0.8167
   80MOL0     H10799   9.491   0.668   2.952 -0.7230 -0.7441 -0.2664
   80MOL0     H10800   9.721   0.705   2.853  3.7024 -0.0833  0.8265
   81MOL0     O10801   5.091   8.738   8.174 -0.4732  0.3984 -0.3096
   81MOL0     C10802   5.185   8.821   8.170  0.1262  0.7750 -0.2268
   81MOL0     O10803   5.210   8.891   8.057 -0.6976 -0.0235  0.0174
   81MOL0     C10804   5.114   8.896   7.962 -0.2588  0.6750 -0.0658
   81MOL0     C10805   5.154   8.869   7.835 -1.3182 -0.1086  0.5330
   81MOL0     C10806   5.062   8.894   7.726 -0.7774  0.1167 -0.2606
   81MOL0     C10807   4.927   8.930   7.748 -0.1664  0.5564 -0.3166
   81MOL0     O10808   4.847   8.939   7.637  0.0771  0.0713  0.0482
   81MOL0     C10809   4.704   8.974   7.650 -0.1050  0.0044  0.0370
   81MOL0     C10810   4.698   9.128   7.619 -0.1126  0.2153 -0.5892
   81MOL0     C10811   4.577   9.185   7.529 -0.2790  0.3769 -0.1996
   81MOL0     C10812   4.450   9.097   7.547 -0.3025 -1.4303 -0.2070
   81MOL0     C10813   4.323   9.167   7.510  1.0255 -0.3217 -0.7625
   81MOL0     C10814   4.212   9.067   7.470  0.1187  0.4696 -0.8238
   81MOL0     C10815   4.083   9.143   7.421  0.0908  0.3802 -0.0159
   81MOL0     C10816   3.969   9.050   7.387  0.5049  0.7294 -0.1969
   81MOL0     N10817   3.853   9.111   7.329  0.2878  0.0495  0.2734
   81MOL0     C10818   3.720   9.097   7.374 -0.2009  0.1214  0.1072
   81MOL0     C10819   3.655   9.185   7.296  0.5094  0.6277 -1.1801
   81MOL0     C10820   3.510   9.204   7.267  0.4469 -0.2089  1.3084
   81MOL0     C10821   3.460   9.356   7.236 -0.6191  0.1329  0.0802
   81MOL0     C10822   3.300   9.340   7.224 -0.1542 -0.1299  0.6378
   81MOL0     C10823   3.238   9.345   7.363  0.4348 -0.2352 -0.1214
   81MOL0     O10824   3.102   9.385   7.364 -0.2687 -0.4023 -0.0992
   81MOL0     C10825   3.057   9.431   7.484  0.0068  0.5903 -0.3357
   81MOL0     C10826   2.954   9.523   7.474  0.4452 -0.9501 -0.7538
   81MOL0     C10827   2.903   9.591   7.588  0.1932  0.6203  0.2236
   81MOL0     C10828   2.805   9.704   7.550  0.4699 -0.2165 -0.3696
   81MOL0     C10829   2.938   9.547   7.717  0.2233  0.6065  0.4497
   81MOL0     C10830   2.865   9.588   7.836 -0.7816 -0.0454  0.7326
   81MOL0     O10831   2.899   9.509   7.941 -0.4451 -0.0518 -0.3286
   81MOL0     C10832   2.852   9.541   8.066  0.0914 -0.2090 -0.4724
   81MOL0     C10833   2.924   9.634   8.139  0.5077  0.2387  1.0516
   81MOL0     C10834   2.857   9.707   8.239  0.0150 -0.8777  0.4825
   81MOL0     C10835   2.734   9.671   8.281  0.3429  0.3328 -0.4751
   81MOL0     O10836   2.677   9.741   8.394  0.0477 -0.1297  0.1049
   81MOL0     C10837   2.543   9.718   8.445 -0.0645 -0.1055 -0.1732
   81MOL0     C10838   2.424   9.761   8.354 -0.5600  0.7028 -0.3268
   81MOL0     C10839   2.427   9.910   8.322 -0.5834  0.2819 -0.1721
   81MOL0     C10840   2.319   9.970   8.241 -0.1921  0.1191 -0.3350
   81MOL0     C10841   2.319   9.920   8.086 -0.1894 -0.7946 -0.1905
   81MOL0     C10842   2.450   9.975   8.011 -0.9300  0.0729  0.2628
   81MOL0     C10843   2.421   9.958   7.859  0.0651  1.5494 -0.6320
   81MOL0     C10844   2.563   9.958   7.796 -0.1644 -0.6578  0.5129
   81MOL0    Cl10845   2.556   9.980   7.621  0.3182 -0.4928 -0.0647
   81MOL0     C10846   2.667   9.558   8.222 -0.2044 -0.0421  0.6275
   81MOL0     C10847   2.724   9.501   8.108 -0.1957 -0.4210 -0.0231
   81MOL0     O10848   2.778   9.674   7.835 -0.0784  0.3848  0.3490
   81MOL0     C10849   3.037   9.440   7.717  0.2300 -0.6657 -0.6448
   81MOL0     C10850   3.098   9.393   7.609 -0.8804  0.6051  0.8594
   81MOL0     N10851   3.744   9.256   7.220 -0.2346 -0.8808  0.1462
   81MOL0     N10852   3.862   9.213   7.233 -0.2666  1.0554  0.7868
   81MOL0     C10853   4.891   8.954   7.875  0.4965  0.7708  0.3391
   81MOL0     C10854   4.981   8.932   7.985 -0.5333  0.5687  1.0791
   81MOL0     C10855   5.276   8.843   8.284 -0.0419 -0.5403  0.2704
   81MOL0     C10856   5.216   8.818   8.412  0.2377 -0.2352 -0.0878
   81MOL0     C10857   5.303   8.832   8.522  0.4604  0.3601 -0.3846
   81MOL0     C10858   5.435   8.869   8.519 -0.4536  0.6086  0.3443
   81MOL0     O10859   5.505   8.881   8.635  0.1751 -0.1136 -1.0402
   81MOL0     C10860   5.613   8.972   8.638  0.2908 -0.1101 -0.0059
   81MOL0     C10861   5.644   9.007   8.781  0.6161  1.0917  0.1345
   81MOL0     C10862   5.664   8.878   8.872 -0.1008 -0.0038  0.2973
   81MOL0     C10863   5.727   8.908   9.004  0.6468  0.5443  1.2581
   81MOL0     C10864   5.733   8.777   9.076  0.8421  0.1275  0.0566
   81MOL0     C10865   5.749   8.670   9.141  0.0281 -0.3265 -0.4014
   81MOL0     C10866   5.486   8.894   8.395  0.0970 -0.4319  0.5304
   81MOL0     C10867   5.413   8.875   8.272 -0.5840 -0.6001  0.0288
   81MOL0     H10868   5.259   8.852   7.814 -1.0071  0.7103  1.3596
   81MOL0     H10869   5.093   8.869   7.625 -0.0976  3.3900 -0.9523
   81MOL0     H10870   4.661   8.915   7.568  1.9707 -0.1628 -1.0121
   81MOL0     H10871   4.646   8.953   7.740  0.8202  2.0238  1.1590
   81MOL0     H10872   4.698   9.179   7.716 -0.6965  0.2265 -0.5917
   81MOL0     H10873   4.793   9.153   7.571  1.6067 -2.0698  1.3467
   81MOL0     H10874   4.553   9.286   7.565  0.9575  1.2501 -1.7218
   81MOL0     H10875   4.602   9.205   7.425 -2.7931 -0.2484 -0.9842
   81MOL0     H10876   4.463   9.002   7.494 -1.7706 -1.5341 -0.4317
   81MOL0     H10877   4.445   9.065   7.652  3.5611 -2.4960 -0.2090
   81MOL0     H10878   4.285   9.229   7.592 -1.9220 -1.9486 -0.7992
   81MOL0     H10879   4.346   9.231   7.424  2.3808  0.8004  0.3684
   81MOL0     H10880   4.249   8.998   7.393 -1.8822 -1.1125 -0.4755
   81MOL0     H10881   4.193   8.996   7.551  2.3339  2.0081  1.1771
   81MOL0     H10882   4.033   9.221   7.479 -0.8491  1.5409 -2.2488
   81MOL0     H10883   4.105   9.195   7.328 -2.1762  4.1063  1.3232
   81MOL0     H10884   3.942   8.985   7.471  0.2211  1.3769  0.2243
   81MOL0     H10885   4.010   8.989   7.306 -0.6084 -0.2951 -0.0208
   81MOL0     H10886   3.684   9.010   7.428 -2.7721  1.3482  0.5100
   81MOL0     H10887   3.484   9.148   7.176 -2.3266  3.6130 -0.5475
   81MOL0     H10888   3.470   9.169   7.363 -1.3192  3.0901  1.9009
   81MOL0     H10889   3.495   9.384   7.136 -1.3992 -0.4250 -0.3655
   81MOL0     H10890   3.485   9.438   7.304 -2.4163  0.6314  0.2006
   81MOL0     H10891   3.267   9.249   7.174  3.3244 -0.9962 -0.3676
   81MOL0     H10892   3.253   9.414   7.158 -1.3717 -1.0919  0.3920
   81MOL0     H10893   3.294   9.427   7.408 -1.7763  1.5631 -0.4706
   81MOL0     H10894   3.245   9.251   7.419 -1.6249 -0.1409  0.3993
   81MOL0     H10895   2.920   9.545   7.373  1.2243  1.0584 -0.6314
   81MOL0     H10896   2.700   9.686   7.577 -0.3840  2.0275 -1.8635
   81MOL0     H10897   2.837   9.794   7.602 -1.8282  0.1589  0.5235
   81MOL0     H10898   2.791   9.720   7.442 -1.4509 -1.0926 -0.3026
   81MOL0     H10899   3.015   9.668   8.092  0.4458  0.4571  1.0892
   81MOL0     H10900   2.887   9.799   8.289 -0.6164  0.6695 -1.8511
   81MOL0     H10901   2.544   9.610   8.462  3.6822 -0.3058 -0.7905
   81MOL0     H10902   2.520   9.775   8.536 -1.4593 -0.5296 -0.2264
   81MOL0     H10903   2.421   9.710   8.258  0.4794 -0.6937  0.3531
   81MOL0     H10904   2.329   9.748   8.406 -0.9534  1.4691 -0.8271
   81MOL0     H10905   2.520   9.935   8.272 -1.3880 -0.1205 -1.9613
   81MOL0     H10906   2.415   9.951   8.422  1.0292 -1.8819  0.9953
   81MOL0     H10907   2.220   9.952   8.283 -0.1672 -1.9182 -1.0369
   81MOL0     H10908   2.341  10.077   8.239  0.9007 -0.0782  0.3136
   81MOL0     H10909   2.232   9.967   8.040 -0.5442  1.0886  2.1969
   81MOL0     H10910   2.308   9.811   8.086 -1.8307 -0.6813  1.2646
   81MOL0     H10911   2.470  10.081   8.024  2.5066 -0.0867 -2.3188
   81MOL0     H10912   2.539   9.927   8.053 -0.5358  1.9196  1.6038
   81MOL0     H10913   2.347  10.032   7.826 -1.6801 -0.1679 -0.7339
   81MOL0     H10914   2.367   9.863   7.864  2.2482  0.2455 -0.2684
   81MOL0     H10915   2.617   9.866   7.818  3.1617  0.8001 -0.8328
   81MOL0     H10916   2.619  10.043   7.836  0.9097 -0.6330 -0.9438
   81MOL0     H10917   2.572   9.516   8.253  0.8885 -3.6173 -0.4444
   81MOL0     H10918   2.663   9.427   8.057 -0.9336  0.6302 -0.6879
   81MOL0     H10919   3.056   9.403   7.817  0.7793 -0.8010 -0.8013
   81MOL0     H10920   3.180   9.322   7.620 -0.6837  1.0670  2.6216
   81MOL0     H10921   4.793   8.991   7.903  0.7954  2.5046 -0.7603
   81MOL0     H10922   4.957   8.957   8.087  1.7364  4.4511  0.8590
   81MOL0     H10923   5.115   8.781   8.428  0.1480  0.1435  0.2732
   81MOL0     H10924   5.271   8.811   8.624  0.0694 -0.5671 -0.6872
   81MOL0     H10925   5.692   8.916   8.588 -0.8612 -2.5852  0.7711
   81MOL0     H10926   5.603   9.072   8.596  2.1463  0.0681 -0.0859
   81MOL0     H10927   5.576   9.081   8.824  1.8112  1.5812  1.2619
   81MOL0     H10928   5.745   9.050   8.774  1.2411 -0.5947 -3.7046
   81MOL0     H10929   5.726   8.805   8.818  1.3226  0.6600  0.9672
   81MOL0     H10930   5.564   8.840   8.894 -1.2890  3.5380  1.6495
   81MOL0     H10931   5.673   8.981   9.064 -0.6109 -2.0568  3.5055
   81MOL0     H10932   5.831   8.939   8.985  0.7985 -0.8893 -0.5899
   81MOL0     H10933   5.740   8.579   9.197 -0.3459 -1.0519 -1.5956
   81MOL0     H10934   5.589   8.927   8.384 -0.7579  2.1474 -0.4369
   81MOL0     H10935   5.458   8.874   8.174 -1.5042  0.5982 -0.4385
   82MOL0     O10936   6.313   1.884   3.902 -0.2284 -0.0094 -0.2057
   82MOL0     C10937   6.435   1.907   3.901  0.8355 -0.1080 -0.5814
   82MOL0     O10938   6.504   1.996   3.826 -0.0789 -0.9091  0.2559
   82MOL0     C10939   6.489   1.978   3.691 -0.7719  0.4774  0.8319
   82MOL0     C10940   6.512   2.097   3.627 -1.0354  0.7920  0.5609
   82MOL0     C10941   6.480   2.112   3.486  0.5601 -0.2311 -0.4104
   82MOL0     C10942   6.421   2.002   3.415  0.4357  0.5968 -0.1780
   82MOL0     O10943   6.375   2.023   3.287  0.3049  0.0631  0.6367
   82MOL0     C10944   6.361   1.908   3.202 -0.0581 -0.1184  0.0412
   82MOL0     C10945   6.221   1.887   3.160 -0.0466  0.0085 -0.2481
   82MOL0     C10946   6.182   1.749   3.106 -0.4246  0.9532  0.6131
   82MOL0     C10947   6.046   1.740   3.040 -0.1902  0.9472 -0.0097
   82MOL0     C10948   5.969   1.611   3.041  0.0519  0.8498 -0.3539
   82MOL0     C10949   5.916   1.591   3.179  0.7114 -0.5890 -0.4924
   82MOL0     C10950   5.781   1.675   3.208 -0.5363 -0.2638 -0.3722
   82MOL0     C10951   5.689   1.609   3.323 -1.0436 -0.0104  0.4283
   82MOL0     N10952   5.601   1.506   3.264  0.5291 -0.4322  0.4573
   82MOL0     C10953   5.638   1.382   3.232  0.3363  1.0520  0.5645
   82MOL0     C10954   5.533   1.328   3.165 -0.2099  0.5731 -0.9592
   82MOL0     C10955   5.546   1.199   3.094  0.5461 -0.9043  0.2069
   82MOL0     C10956   5.472   1.095   3.181  0.4334 -1.0991  0.4070
   82MOL0     C10957   5.468   0.958   3.110 -0.0142 -0.1792  0.9981
   82MOL0     C10958   5.603   0.895   3.106 -0.3939  0.9767 -0.2457
   82MOL0     O10959   5.679   0.880   3.233 -0.1290  0.2167 -1.0271
   82MOL0     C10960   5.787   0.959   3.253  0.4865 -0.0950  0.0378
   82MOL0     C10961   5.892   0.970   3.157  0.1912 -0.9512 -0.4685
   82MOL0     C10962   6.006   1.048   3.182  0.6941 -0.6081  0.6514
   82MOL0     C10963   6.121   1.041   3.087 -0.1819  0.0943 -0.1840
   82MOL0     C10964   6.018   1.110   3.302  0.2384 -0.3675  0.5045
   82MOL0     C10965   6.119   1.222   3.331 -0.5817 -0.0693  0.5969
   82MOL0     O10966   6.177   1.294   3.224  0.7293 -0.4977 -0.3597
   82MOL0     C10967   6.293   1.373   3.238 -0.2292 -0.3781  0.1103
   82MOL0     C10968   6.366   1.415   3.351  0.0157  0.3464 -0.0817
   82MOL0     C10969   6.470   1.512   3.340 -0.1787 -0.0998 -0.2689
   82MOL0     C10970   6.525   1.551   3.214 -0.3515 -0.5592  0.8428
   82MOL0     O10971   6.626   1.635   3.190 -0.4461  0.8038 -0.2103
   82MOL0     C10972   6.695   1.697   3.297 -0.2976  0.4613 -0.1766
   82MOL0     C10973   6.754   1.824   3.223  0.5131 -0.6160  0.2294
   82MOL0     C10974   6.800   1.930   3.319  0.3617  0.4067 -0.3629
   82MOL0     C10975   6.849   2.051   3.232 -0.0076  0.5732  0.4548
   82MOL0     C10976   6.929   2.150   3.312  0.1997 -0.1044 -0.3215
   82MOL0     C10977   6.847   2.222   3.421 -0.1195  0.5178  1.1372
   82MOL0     C10978   6.941   2.285   3.520  0.2887  0.3238 -0.2846
   82MOL0     C10979   7.026   2.408   3.469  0.3328 -0.0615  0.7816
   82MOL0    Cl10980   7.068   2.512   3.606 -0.2596 -1.0002 -0.2932
   82MOL0     C10981   6.455   1.498   3.105  0.5677  0.0346  0.7526
   82MOL0     C10982   6.341   1.410   3.120 -0.6053 -0.2385  0.7149
   82MOL0     O10983   6.158   1.225   3.447  0.3753  0.0965  0.1101
   82MOL0     C10984   5.914   1.091   3.400 -0.4359  0.5941 -0.2246
   82MOL0     C10985   5.802   1.015   3.373 -0.4849 -0.2607  0.4504
   82MOL0     N10986   5.430   1.422   3.176 -0.0294 -0.3475 -0.7852
   82MOL0     N10987   5.466   1.521   3.256  0.7899  0.1314  0.2104
   82MOL0     C10988   6.394   1.876   3.485  0.2949 -1.2561 -0.6083
   82MOL0     C10989   6.438   1.865   3.618  0.8934 -0.0761 -1.0024
   82MOL0     C10990   6.505   1.853   4.015  0.8781 -0.3605  0.2328
   82MOL0     C10991   6.633   1.894   4.051  0.0491  0.8682 -0.1743
   82MOL0     C10992   6.705   1.837   4.158 -0.7512  0.5608  0.4662
   82MOL0     C10993   6.641   1.753   4.250  0.0093 -0.0692  0.6043
   82MOL0     O10994   6.706   1.700   4.361  0.6677  0.6333  0.0663
   82MOL0     C10995   6.817   1.765   4.422 -0.4074 -0.6084  0.3901
   82MOL0     C10996   6.920   1.650   4.437  0.6435 -0.1954  0.6918
   82MOL0     C10997   7.012   1.595   4.325 -0.5293  0.1918 -0.3931
   82MOL0     C10998   7.101   1.689   4.259 -0.1080 -1.1792  0.4356
   82MOL0     C10999   7.220   1.683   4.350 -0.3874 -0.2273  0.6799
   82MOL0     C11000   7.303   1.677   4.434 -0.0862  0.4940 -0.3321
   82MOL0     C11001   6.510   1.704   4.209 -0.8458 -0.3484 -0.0302
   82MOL0     C11002   6.448   1.748   4.091 -0.1832  0.2429  0.9440
   82MOL0     H11003   6.547   2.181   3.687  2.4192 -0.1679  0.1314
   82MOL0     H11004   6.482   2.205   3.430  1.6498 -1.2470 -2.1737
   82MOL0     H11005   6.424   1.912   3.112 -1.6992 -4.8257 -1.6453
   82MOL0     H11006   6.399   1.817   3.248  2.5837 -0.3580 -2.3314
   82MOL0     H11007   6.165   1.902   3.252  2.5493 -0.1139  1.4544
   82MOL0     H11008   6.192   1.960   3.083  2.3643 -1.4027 -2.6811
   82MOL0     H11009   6.256   1.720   3.030  0.2159 -1.5451  2.0742
   82MOL0     H11010   6.183   1.684   3.194 -0.8233  1.8162  1.2598
   82MOL0     H11011   5.974   1.816   3.074  1.0181  1.7603  0.8202
   82MOL0     H11012   6.073   1.761   2.936  1.9092 -0.3781  0.2332
   82MOL0     H11013   5.891   1.631   2.967  1.4603 -0.5289 -2.3202
   82MOL0     H11014   6.023   1.528   2.995  2.0997  2.0471 -0.2221
   82MOL0     H11015   5.901   1.483   3.191 -0.5066 -0.5684 -1.5685
   82MOL0     H11016   5.998   1.622   3.245 -0.5457  1.0482  0.4091
   82MOL0     H11017   5.818   1.773   3.239 -1.8919  0.5985 -1.4197
   82MOL0     H11018   5.718   1.680   3.119 -1.5066 -0.2114  0.3098
   82MOL0     H11019   5.635   1.690   3.372  2.1530  2.4269  0.3238
   82MOL0     H11020   5.752   1.558   3.397 -0.2579 -1.1003 -0.9428
   82MOL0     H11021   5.738   1.339   3.238  0.2393  0.5498 -0.9878
   82MOL0     H11022   5.515   1.203   2.989  1.1808 -1.9765 -0.0283
   82MOL0     H11023   5.652   1.174   3.089  1.3462  2.3017 -1.6338
   82MOL0     H11024   5.371   1.125   3.210  1.0336  0.2947  1.1517
   82MOL0     H11025   5.522   1.070   3.276 -1.0563 -2.1620  0.9480
   82MOL0     H11026   5.432   0.971   3.008 -0.7468  1.6333  1.4481
   82MOL0     H11027   5.392   0.904   3.168  0.5764  1.6915  3.7406
   82MOL0     H11028   5.662   0.962   3.043 -0.6011  4.0375  2.5080
   82MOL0     H11029   5.584   0.797   3.062  1.5440  0.2633  0.4066
   82MOL0     H11030   5.871   0.912   3.067  0.8804 -1.8281 -0.0726
   82MOL0     H11031   6.104   0.956   3.021  1.4712 -1.2095  0.9742
   82MOL0     H11032   6.130   1.128   3.021 -0.2641  0.4263  0.2383
   82MOL0     H11033   6.222   1.026   3.128  0.0296  0.3776 -0.5887
   82MOL0     H11034   6.332   1.395   3.452 -1.2381 -0.8983 -0.7231
   82MOL0     H11035   6.521   1.548   3.429 -3.8118  1.8606  1.2395
   82MOL0     H11036   6.626   1.723   3.378 -2.0926 -2.4390 -0.6311
   82MOL0     H11037   6.776   1.640   3.344 -0.7301  0.5500  0.6977
   82MOL0     H11038   6.837   1.798   3.157  1.0247  2.2384 -0.3891
   82MOL0     H11039   6.672   1.856   3.158  1.2428 -1.9527 -1.4073
   82MOL0     H11040   6.883   1.890   3.379 -0.5876 -0.3516  0.4712
   82MOL0     H11041   6.719   1.951   3.389  1.6977 -1.5256  1.9251
   82MOL0     H11042   6.924   2.017   3.160 -0.2912  2.3787 -0.7389
   82MOL0     H11043   6.775   2.092   3.163  1.0682  1.2903 -0.2893
   82MOL0     H11044   6.969   2.228   3.246 -0.3138 -1.5002 -2.3793
   82MOL0     H11045   7.024   2.110   3.348  1.6246  1.7724 -1.7976
   82MOL0     H11046   6.789   2.301   3.373  2.3243  1.1754 -0.9428
   82MOL0     H11047   6.775   2.154   3.468  1.2177 -1.8030  0.0240
   82MOL0     H11048   7.002   2.203   3.558 -0.0380 -0.2086 -0.8814
   82MOL0     H11049   6.880   2.315   3.605 -0.6868 -2.1770 -0.0171
   82MOL0     H11050   6.962   2.464   3.401 -1.1444 -1.5397  0.8727
   82MOL0     H11051   7.112   2.369   3.414 -1.6428 -4.6164  0.4582
   82MOL0     H11052   6.474   1.529   3.003 -2.6867 -0.9869 -0.2784
   82MOL0     H11053   6.287   1.393   3.027 -0.0405 -1.8920  0.6602
   82MOL0     H11054   5.902   1.146   3.493  0.2561 -0.7690  0.7086
   82MOL0     H11055   5.720   1.013   3.443  0.1298 -0.4977  1.1802
   82MOL0     H11056   6.334   1.803   3.433  2.4908 -0.4357 -4.6898
   82MOL0     H11057   6.406   1.776   3.671 -6.1541 -1.3027 -5.9538
   82MOL0     H11058   6.688   1.967   3.993  0.6333  1.9505  1.6632
   82MOL0     H11059   6.808   1.873   4.156 -1.5064  2.9218 -1.7362
   82MOL0     H11060   6.846   1.857   4.371  1.4443 -0.3520  1.7824
   82MOL0     H11061   6.772   1.794   4.518 -0.2233  0.9531  0.0373
   82MOL0     H11062   6.870   1.558   4.469  0.0085  0.2134  0.8924
   82MOL0     H11063   6.988   1.693   4.511  1.5129 -0.4804  0.0887
   82MOL0     H11064   6.953   1.543   4.249  2.8421 -4.6637 -0.1659
   82MOL0     H11065   7.070   1.510   4.364  1.6947  0.9036 -1.9181
   82MOL0     H11066   7.056   1.787   4.240  4.3210  0.6305 -2.0655
   82MOL0     H11067   7.122   1.642   4.163  0.0324  3.0451 -1.8194
   82MOL0     H11068   7.381   1.672   4.507  0.3530  4.4495 -0.3175
   82MOL0     H11069   6.472   1.621   4.266 -2.7852 -0.0658 -0.8529
   82MOL0     H11070   6.354   1.701   4.066 -0.6519  0.6211  1.9447
   83MOL0     O11071   6.388   1.281   0.203 -0.6877 -0.1720  0.1964
   83MOL0     C11072   6.393   1.248   0.089 -0.8092 -0.8961  0.8102
   83MOL0     O11073   6.297   1.250  -0.006 -0.2754 -0.0020 -0.1185
   83MOL0     C11074   6.168   1.268   0.028  0.8817  0.3491  0.0814
   83MOL0     C11075   6.122   1.384   0.089  0.0821  0.9968 -0.0771
   83MOL0     C11076   5.989   1.390   0.137 -0.2610  0.4327 -0.6445
   83MOL0     C11077   5.908   1.272   0.129 -0.5686 -0.7150 -0.7940
   83MOL0     O11078   5.780   1.266   0.179  0.1849  0.2259  0.1923
   83MOL0     C11079   5.737   1.349   0.291  0.3564 -0.4406 -0.1153
   83MOL0     C11080   5.601   1.396   0.288 -0.8715  0.2760  0.4830
   83MOL0     C11081   5.502   1.291   0.242 -0.4376  0.1808 -0.6946
   83MOL0     C11082   5.395   1.364   0.155  0.2632 -0.2500 -0.8389
   83MOL0     C11083   5.280   1.267   0.145 -0.2553 -0.5868  0.3182
   83MOL0     C11084   5.192   1.320   0.027 -0.1506 -0.3957 -0.0288
   83MOL0     C11085   5.062   1.250   0.004  0.2537 -0.2556 -1.0164
   83MOL0     C11086   5.017   1.243  -0.139 -1.2400  1.1724 -0.3355
   83MOL0     N11087   4.875   1.239  -0.163  0.9229  0.8214 -0.0474
   83MOL0     C11088   4.792   1.124  -0.166  0.1394 -0.6275 -0.8260
   83MOL0     C11089   4.671   1.174  -0.201 -0.5026  0.1924 -1.1335
   83MOL0     C11090   4.555   1.088  -0.228  0.2250 -0.0769  0.2669
   83MOL0     C11091   4.560   0.960  -0.147 -0.5569 -0.6479  0.5775
   83MOL0     C11092   4.446   0.863  -0.162 -0.5847 -0.0016  0.7692
   83MOL0     C11093   4.313   0.928  -0.200  0.3036 -0.2085 -0.9732
   83MOL0     O11094   4.284   0.924  -0.335  0.1480  0.2402  0.0292
   83MOL0     C11095   4.158   0.925  -0.370 -0.1056  0.0593 -0.2779
   83MOL0     C11096   4.127   0.891  -0.504  0.0882 -0.2334  1.1150
   83MOL0     C11097   4.004   0.902  -0.572  0.4135  0.5349 -0.7495
   83MOL0     C11098   3.988   0.869  -0.713 -0.6073  0.3574 -0.1560
   83MOL0     C11099   3.894   0.928  -0.482  0.8687 -0.1019  0.2182
   83MOL0     C11100   3.753   0.930  -0.533  0.2933  0.1812  0.1936
   83MOL0     O11101   3.728   0.953  -0.663 -1.0692  0.5185  0.0171
   83MOL0     C11102   3.602   0.922  -0.714  0.2742  0.3080  0.4371
   83MOL0     C11103   3.524   1.027  -0.785  0.6631 -0.6909  0.1955
   83MOL0     C11104   3.400   0.996  -0.845 -0.1255  0.3995 -1.0456
   83MOL0     C11105   3.344   0.853  -0.834 -0.4685 -0.3340 -0.6900
   83MOL0     O11106   3.222   0.820  -0.891 -0.6319  0.3734 -0.4699
   83MOL0     C11107   3.155   0.916  -0.967  0.6874  0.4078  0.3557
   83MOL0     C11108   3.048   0.838  -1.048 -0.9987 -0.6263  0.1380
   83MOL0     C11109   2.970   0.933  -1.150 -0.8927  0.0331 -0.3154
   83MOL0     C11110   2.849   0.862  -1.207  0.6322 -1.0354 -0.3579
   83MOL0     C11111   2.782   0.913  -1.332  0.3885 -0.5858 -0.3026
   83MOL0     C11112   2.669   0.823  -1.384  0.1808  0.4678 -0.2033
   83MOL0     C11113   2.623   0.866  -1.522 -0.5634 -0.4188 -0.5742
   83MOL0     C11114   2.523   0.766  -1.572  0.9280  0.1668 -0.1628
   83MOL0    Cl11115   2.449   0.808  -1.725  0.3706  0.0627  0.1004
   83MOL0     C11116   3.416   0.764  -0.752 -0.6719 -0.7377  0.4478
   83MOL0     C11117   3.547   0.789  -0.700 -0.1831 -0.3695 -0.3530
   83MOL0     O11118   3.672   0.886  -0.448 -0.1543 -0.3380 -0.1155
   83MOL0     C11119   3.910   0.949  -0.351  0.1208  0.0900  0.3530
   83MOL0     C11120   4.038   0.957  -0.297  0.2109 -0.0289  0.5484
   83MOL0     N11121   4.683   1.309  -0.221 -0.7253 -0.4524 -0.4288
   83MOL0     N11122   4.805   1.348  -0.193 -0.2584  0.3417 -0.9779
   83MOL0     C11123   5.957   1.157   0.066 -0.0513  1.3219 -0.3712
   83MOL0     C11124   6.085   1.157   0.006 -0.3519 -1.0143 -0.0000
   83MOL0     C11125   6.528   1.206   0.033 -0.2693  1.0964  0.3793
   83MOL0     C11126   6.638   1.196   0.113 -0.1790  0.1418 -0.1191
   83MOL0     C11127   6.761   1.153   0.057 -0.6254  0.8369 -0.0434
   83MOL0     C11128   6.771   1.130  -0.080  0.2221 -0.4584  1.3366
   83MOL0     O11129   6.888   1.081  -0.126  0.5690  0.6458 -0.0629
   83MOL0     C11130   6.974   1.170  -0.204  0.7480  0.1219 -0.1719
   83MOL0     C11131   7.061   1.266  -0.122  0.1563 -0.8201  0.3609
   83MOL0     C11132   7.175   1.184  -0.056  0.8494  0.0280  1.1164
   83MOL0     C11133   7.252   1.268   0.045  0.0197  0.3683  1.2030
   83MOL0     C11134   7.212   1.234   0.177  0.7003  0.7375 -0.1830
   83MOL0     C11135   7.173   1.188   0.286 -0.2876  0.0990  0.5703
   83MOL0     C11136   6.665   1.143  -0.161  0.2381 -0.3676  0.3608
   83MOL0     C11137   6.537   1.177  -0.104  0.0742 -0.5000 -0.5739
   83MOL0     H11138   6.191   1.461   0.121  1.4390  1.1104 -2.9325
   83MOL0     H11139   5.965   1.483   0.187  1.5286  1.0965 -0.9388
   83MOL0     H11140   5.749   1.298   0.387  4.0532  1.1317  0.4261
   83MOL0     H11141   5.805   1.433   0.309 -0.3217  1.4449 -4.8671
   83MOL0     H11142   5.586   1.431   0.391  1.5130  1.2672  0.5626
   83MOL0     H11143   5.599   1.486   0.227 -0.2334  1.1272  1.6856
   83MOL0     H11144   5.543   1.207   0.185  0.9411  1.1623 -1.2134
   83MOL0     H11145   5.461   1.250   0.334  0.6504 -0.4926 -0.4978
   83MOL0     H11146   5.355   1.458   0.194 -2.1686 -0.2078 -3.1200
   83MOL0     H11147   5.443   1.380   0.058  1.5076  0.5194 -0.1298
   83MOL0     H11148   5.315   1.164   0.147 -0.2521 -0.6552  3.9509
   83MOL0     H11149   5.217   1.287   0.232  2.2146  0.7286  1.9356
   83MOL0     H11150   5.158   1.424   0.027 -1.4944 -0.7819 -1.5990
   83MOL0     H11151   5.252   1.317  -0.065  0.8262 -0.9081  0.6069
   83MOL0     H11152   5.079   1.151   0.047  0.1248 -0.3436 -1.1671
   83MOL0     H11153   4.991   1.314   0.056 -3.2685 -3.3230 -1.6198
   83MOL0     H11154   5.058   1.151  -0.179 -2.3377  0.1931  0.7021
   83MOL0     H11155   5.061   1.336  -0.178  2.0907  0.5365  1.5353
   83MOL0     H11156   4.811   1.021  -0.136  3.2847  0.1980  0.4136
   83MOL0     H11157   4.465   1.147  -0.206  0.5415 -0.0015  1.4025
   83MOL0     H11158   4.571   1.058  -0.332  3.3862  1.5626  0.1660
   83MOL0     H11159   4.558   0.994  -0.043 -2.2554 -0.1003  0.4061
   83MOL0     H11160   4.651   0.905  -0.173  1.4945  2.5024  0.6490
   83MOL0     H11161   4.451   0.802  -0.070  1.5860 -2.3239 -0.7363
   83MOL0     H11162   4.469   0.789  -0.240 -2.4798 -0.3421  0.4905
   83MOL0     H11163   4.295   1.030  -0.163 -2.5070 -0.7070 -0.7685
   83MOL0     H11164   4.231   0.878  -0.149  1.2916  0.1816  1.1274
   83MOL0     H11165   4.207   0.863  -0.572 -1.1942  0.3689 -0.7129
   83MOL0     H11166   3.930   0.777  -0.720  1.6050 -1.1979  0.7317
   83MOL0     H11167   3.937   0.953  -0.762 -0.2500  0.2815 -0.6718
   83MOL0     H11168   4.086   0.843  -0.756 -1.4317 -0.9762 -1.3104
   83MOL0     H11169   3.570   1.124  -0.802  2.2472 -1.6489 -1.3380
   83MOL0     H11170   3.340   1.070  -0.897 -1.3443 -0.4589 -0.8989
   83MOL0     H11171   3.097   0.980  -0.900  0.5263 -1.6765  2.3441
   83MOL0     H11172   3.223   0.957  -1.042  1.2395 -0.6443  0.2549
   83MOL0     H11173   3.090   0.749  -1.094  1.4779  0.5070  0.0463
   83MOL0     H11174   2.975   0.804  -0.974 -3.6718  2.3595 -0.8849
   83MOL0     H11175   3.043   0.941  -1.231  2.6211  1.7762  2.7287
   83MOL0     H11176   2.947   1.032  -1.110  1.0976 -0.0263  1.1293
   83MOL0     H11177   2.889   0.766  -1.240  0.3585 -0.1973 -3.4163
   83MOL0     H11178   2.771   0.868  -1.131  0.5269  3.1782 -0.5454
   83MOL0     H11179   2.855   0.909  -1.413 -0.8619  3.1312 -1.8277
   83MOL0     H11180   2.733   1.009  -1.312 -0.6443 -1.1979  0.1783
   83MOL0     H11181   2.710   0.722  -1.390  0.3241  0.5889 -1.8071
   83MOL0     H11182   2.587   0.826  -1.312 -0.2641 -2.2638 -0.5155
   83MOL0     H11183   2.711   0.860  -1.588  0.8371 -0.8074  1.2512
   83MOL0     H11184   2.590   0.970  -1.517  2.9619  0.7898  2.8711
   83MOL0     H11185   2.442   0.763  -1.498 -0.8203  2.7829 -1.8082
   83MOL0     H11186   2.572   0.669  -1.582 -2.2786 -1.7455  1.2528
   83MOL0     H11187   3.378   0.668  -0.719 -1.5846  0.1281  2.0266
   83MOL0     H11188   3.597   0.714  -0.640  0.0339  1.1639  1.4700
   83MOL0     H11189   3.830   0.982  -0.286  2.0933  1.5627  2.1888
   83MOL0     H11190   4.049   0.979  -0.191  2.3116 -1.3213  0.6626
   83MOL0     H11191   5.894   1.069   0.062  0.5590  0.8738 -0.1007
   83MOL0     H11192   6.128   1.074  -0.049 -0.2668 -1.1341  0.2455
   83MOL0     H11193   6.626   1.225   0.217 -0.1545 -0.8850  0.1873
   83MOL0     H11194   6.842   1.131   0.126 -0.0551 -1.1598 -1.2658
   83MOL0     H11195   7.050   1.108  -0.253  2.4744  0.3592  2.0620
   83MOL0     H11196   6.913   1.223  -0.277  1.6844 -0.8468 -1.7183
   83MOL0     H11197   7.001   1.321  -0.049  3.0065  1.4891  1.1678
   83MOL0     H11198   7.102   1.348  -0.181  0.8162 -1.0174  0.5355
   83MOL0     H11199   7.245   1.146  -0.131 -1.6965 -0.8038 -0.9820
   83MOL0     H11200   7.143   1.091  -0.009  1.8791 -1.2538 -0.6063
   83MOL0     H11201   7.239   1.374   0.021 -4.0775 -0.4767 -1.3750
   83MOL0     H11202   7.357   1.242   0.030 -0.4082 -2.7369  2.7778
   83MOL0     H11203   7.154   1.141   0.380  0.0427 -1.5705 -0.1537
   83MOL0     H11204   6.672   1.106  -0.263 -0.7741 -1.6632  0.7373
   83MOL0     H11205   6.460   1.166  -0.179 -1.6978  1.7409  0.7911
   84MOL0     O11206   7.523   1.046   9.231  0.4162 -0.9665  0.4622
   84MOL0     C11207   7.444   1.106   9.170  0.9633 -0.3726  0.0758
   84MOL0     O11208   7.402   1.072   9.051 -0.8490 -0.5272  1.0662
   84MOL0     C11209   7.453   0.973   8.972  0.1720 -0.8188  1.2075
   84MOL0     C11210   7.358   0.938   8.875 -0.3865  0.5997  0.8733
   84MOL0     C11211   7.398   0.872   8.758 -0.3753 -0.9549  0.3042
   84MOL0     C11212   7.529   0.818   8.742 -0.2682  0.5466 -0.2126
   84MOL0     O11213   7.560   0.730   8.639 -0.2187  0.5134 -0.6988
   84MOL0     C11214   7.638   0.790   8.535 -0.6110  0.1033  0.1907
   84MOL0     C11215   7.592   0.738   8.399  0.4075 -0.1080  0.6108
   84MOL0     C11216   7.669   0.608   8.346 -0.1856  0.0605  0.4921
   84MOL0     C11217   7.827   0.602   8.361  0.1794  0.0734  0.4187
   84MOL0     C11218   7.872   0.470   8.311 -0.7170 -0.3793 -0.5234
   84MOL0     C11219   7.860   0.362   8.422 -0.6366 -0.2860  0.5766
   84MOL0     C11220   7.958   0.246   8.399  0.8711 -0.5698  0.5208
   84MOL0     C11221   8.090   0.262   8.480  0.4042  0.2257 -0.4391
   84MOL0     N11222   8.152   0.391   8.490 -0.6274  0.0978  0.1994
   84MOL0     C11223   8.214   0.460   8.394 -0.3352 -0.6807  0.2605
   84MOL0     C11224   8.271   0.571   8.452 -1.1952 -0.0306 -0.8629
   84MOL0     C11225   8.340   0.690   8.389 -0.9408  0.0774  0.3870
   84MOL0     C11226   8.297   0.826   8.439  0.0838  0.2200 -0.1763
   84MOL0     C11227   8.147   0.843   8.407  0.1457  0.2807  0.0598
   84MOL0     C11228   8.107   0.850   8.261  0.5257  0.1308  0.2435
   84MOL0     O11229   8.197   0.921   8.176 -0.0249  0.2611 -0.3958
   84MOL0     C11230   8.146   0.986   8.063 -0.5332 -0.0742 -0.0988
   84MOL0     C11231   8.022   1.056   8.053 -0.2455  0.8864 -0.5861
   84MOL0     C11232   7.988   1.155   7.966  0.6862  0.1001  0.8306
   84MOL0     C11233   7.850   1.227   7.983 -0.0419  0.1744 -0.2584
   84MOL0     C11234   8.075   1.181   7.860 -0.1401  0.9536  0.1125
   84MOL0     C11235   8.048   1.290   7.762 -0.1936 -0.9031 -0.3182
   84MOL0     O11236   7.919   1.327   7.723  0.4893 -0.0960  0.9692
   84MOL0     C11237   7.897   1.384   7.598  0.9293  0.9347 -0.1055
   84MOL0     C11238   7.927   1.314   7.477  1.2012 -0.3439  0.4421
   84MOL0     C11239   7.891   1.365   7.353  0.2007 -0.5667 -0.4418
   84MOL0     C11240   7.820   1.487   7.350 -0.3793 -0.2910  0.4112
   84MOL0     O11241   7.780   1.536   7.230 -0.5352 -0.4909 -0.5108
   84MOL0     C11242   7.797   1.455   7.104  0.5745 -0.0651 -0.3199
   84MOL0     C11243   7.738   1.523   6.978 -0.1103 -0.6300 -0.5006
   84MOL0     C11244   7.746   1.435   6.854 -0.6259 -0.2219  0.1922
   84MOL0     C11245   7.712   1.502   6.722  1.7782 -0.1232  0.4667
   84MOL0     C11246   7.702   1.395   6.617  0.9808  0.1242  0.8628
   84MOL0     C11247   7.712   1.443   6.473 -0.0077 -0.3093  1.1767
   84MOL0     C11248   7.670   1.328   6.387  0.2148 -0.4377 -0.0510
   84MOL0     C11249   7.711   1.333   6.235 -0.4815 -0.0874  1.0622
   84MOL0    Cl11250   7.628   1.463   6.153 -0.0516 -0.4609 -0.0897
   84MOL0     C11251   7.794   1.557   7.467  0.6102 -0.1219 -0.7320
   84MOL0     C11252   7.828   1.506   7.595  0.2705  0.7668 -0.6513
   84MOL0     O11253   8.147   1.337   7.716 -0.0998 -0.5835 -0.2610
   84MOL0     C11254   8.194   1.111   7.861  0.2759  0.3612 -0.5031
   84MOL0     C11255   8.230   1.019   7.959 -0.0466 -1.0235  0.5893
   84MOL0     N11256   8.256   0.558   8.591 -0.1832 -0.0824  0.4954
   84MOL0     N11257   8.183   0.452   8.607  0.6123  0.1953  0.8091
   84MOL0     C11258   7.619   0.843   8.848  0.5649  0.3559 -0.0169
   84MOL0     C11259   7.576   0.919   8.956  0.2760  0.7023  0.6747
   84MOL0     C11260   7.381   1.214   9.240  0.5742 -0.6878 -0.7893
   84MOL0     C11261   7.341   1.212   9.378 -0.7396 -0.4169 -0.0642
   84MOL0     C11262   7.279   1.326   9.434 -0.8493 -0.0077 -0.1271
   84MOL0     C11263   7.256   1.440   9.366 -0.6878  0.1386 -0.2215
   84MOL0     O11264   7.196   1.540   9.437 -0.3821 -0.1091  0.3069
   84MOL0     C11265   7.159   1.655   9.356 -0.3389  0.3546 -0.1297
   84MOL0     C11266   7.067   1.729   9.453 -0.6807  0.1986 -0.3694
   84MOL0     C11267   7.051   1.868   9.421  0.6984 -0.4901  0.7011
   84MOL0     C11268   6.947   1.899   9.311  0.1171  0.4733 -0.8865
   84MOL0     C11269   7.017   1.888   9.181  0.2148  1.0551  0.0776
   84MOL0     C11270   7.062   1.859   9.071  0.4957 -0.0246 -0.7213
   84MOL0     C11271   7.288   1.442   9.228  0.4051 -1.0207 -0.6292
   84MOL0     C11272   7.357   1.333   9.171 -0.2734 -0.7518 -0.8678
   84MOL0     H11273   7.254   0.968   8.864  0.0044  1.6798 -0.0730
   84MOL0     H11274   7.347   0.871   8.662  4.6748  0.0577 -2.7920
   84MOL0     H11275   7.615   0.896   8.521 -1.5825 -0.0384  0.6324
   84MOL0     H11276   7.745   0.782   8.558 -0.6994 -0.8320  0.3294
   84MOL0     H11277   7.486   0.713   8.393  0.1878  1.0885 -1.8168
   84MOL0     H11278   7.601   0.824   8.333  2.7531 -1.9367 -1.6641
   84MOL0     H11279   7.630   0.530   8.412  3.3192 -1.3832  1.0289
   84MOL0     H11280   7.641   0.584   8.244  0.4222 -1.0368  0.5761
   84MOL0     H11281   7.861   0.669   8.282 -1.9314 -1.6173 -2.0898
   84MOL0     H11282   7.855   0.632   8.463 -0.2880  0.9425  0.3026
   84MOL0     H11283   7.823   0.430   8.222 -1.2111  2.1680 -1.4980
   84MOL0     H11284   7.978   0.489   8.294 -0.9121  0.0762 -1.3190
   84MOL0     H11285   7.876   0.400   8.523 -1.1185  2.4140 -0.2621
   84MOL0     H11286   7.757   0.326   8.408 -0.0805 -1.0523 -2.1481
   84MOL0     H11287   7.912   0.153   8.432  2.2877 -1.2614  0.6446
   84MOL0     H11288   7.976   0.238   8.292 -0.1894  2.1945  0.0527
   84MOL0     H11289   8.164   0.195   8.436  1.6390  0.8910  0.5756
   84MOL0     H11290   8.074   0.222   8.580  3.9285 -0.7021 -0.1281
   84MOL0     H11291   8.208   0.455   8.285  0.5779  1.5816  0.0400
   84MOL0     H11292   8.446   0.678   8.417 -0.4266  1.9633 -0.6168
   84MOL0     H11293   8.324   0.677   8.282 -1.3447 -2.4169  0.6931
   84MOL0     H11294   8.342   0.911   8.386 -0.8122 -0.1550 -1.5982
   84MOL0     H11295   8.325   0.843   8.543  0.4709  3.7388 -0.7192
   84MOL0     H11296   8.118   0.940   8.446  3.4275  1.1406  0.6835
   84MOL0     H11297   8.080   0.777   8.462  0.1764 -0.1739 -0.4385
   84MOL0     H11298   8.007   0.891   8.249 -0.6152 -2.1669  1.1981
   84MOL0     H11299   8.097   0.747   8.226 -0.9967  0.0419  0.8460
   84MOL0     H11300   7.954   1.042   8.137  1.2391 -0.1211  0.5107
   84MOL0     H11301   7.807   1.191   8.077  1.4556 -2.9210 -0.6259
   84MOL0     H11302   7.865   1.335   7.985  0.8886  0.0526 -0.1222
   84MOL0     H11303   7.783   1.200   7.901 -2.1352  0.3071  1.3401
   84MOL0     H11304   7.965   1.213   7.483 -1.2057 -1.3372 -0.1183
   84MOL0     H11305   7.917   1.298   7.271  1.3402 -2.0384  1.0593
   84MOL0     H11306   7.902   1.435   7.082  0.9175  0.2262  0.9838
   84MOL0     H11307   7.739   1.365   7.125 -1.4333  1.3300  0.4281
   84MOL0     H11308   7.631   1.538   6.996  0.0176 -1.0957  0.6603
   84MOL0     H11309   7.787   1.617   6.949  1.5883 -1.8498 -1.8304
   84MOL0     H11310   7.673   1.353   6.856 -0.1508 -0.7102 -1.1448
   84MOL0     H11311   7.843   1.385   6.850  0.2167  1.3192  0.6953
   84MOL0     H11312   7.613   1.549   6.730  1.4649 -0.4789 -1.0419
   84MOL0     H11313   7.785   1.577   6.691 -0.0701  1.1688 -0.9462
   84MOL0     H11314   7.607   1.342   6.618  2.6008 -3.3141 -2.4934
   84MOL0     H11315   7.777   1.321   6.644 -0.7099 -0.7520  3.4389
   84MOL0     H11316   7.653   1.529   6.439  1.2517 -0.0770 -0.5766
   84MOL0     H11317   7.815   1.469   6.447 -0.4028  0.1858  0.0330
   84MOL0     H11318   7.564   1.305   6.401 -0.2448  2.7006  3.0311
   84MOL0     H11319   7.718   1.236   6.422  3.2182 -0.0986 -2.8380
   84MOL0     H11320   7.698   1.234   6.192  1.2376 -0.0385  0.3388
   84MOL0     H11321   7.819   1.349   6.233 -0.6507  1.4701  2.1808
   84MOL0     H11322   7.743   1.653   7.460  1.0510  0.3973  2.2098
   84MOL0     H11323   7.813   1.573   7.678  2.8402 -2.3732  2.6769
   84MOL0     H11324   8.262   1.122   7.776  0.6199 -0.9583 -0.4123
   84MOL0     H11325   8.328   0.974   7.967  1.5593  1.7258 -1.9257
   84MOL0     H11326   7.714   0.791   8.849 -0.2385 -1.3453 -2.2688
   84MOL0     H11327   7.643   0.931   9.040 -0.2308  0.9144  1.0537
   84MOL0     H11328   7.367   1.127   9.440  4.5122  0.8288 -0.0953
   84MOL0     H11329   7.248   1.314   9.537  2.1307  1.2608  1.0311
   84MOL0     H11330   7.248   1.714   9.332 -1.2755  1.2761 -1.5463
   84MOL0     H11331   7.110   1.622   9.264  0.2352  1.2656 -0.7852
   84MOL0     H11332   7.115   1.714   9.550  0.9010 -1.1318 -1.3049
   84MOL0     H11333   6.970   1.681   9.468 -0.7189 -0.6597 -2.9000
   84MOL0     H11334   7.140   1.919   9.384 -1.0794  2.6910  0.4382
   84MOL0     H11335   7.029   1.912   9.519  1.4527 -0.2031  0.7546
   84MOL0     H11336   6.918   2.004   9.315 -2.5603 -0.1574 -1.6787
   84MOL0     H11337   6.854   1.841   9.315 -1.1909  2.5428  0.8808
   84MOL0     H11338   7.093   1.819   8.976 -2.3045 -3.9121 -0.2232
   84MOL0     H11339   7.254   1.521   9.163 -0.3853 -1.4641 -0.7667
   84MOL0     H11340   7.406   1.341   9.075 -2.7147  3.1838 -2.0243
   85MOL0     O11341   6.669   0.804   9.522  0.7083  0.0101  0.7482
   85MOL0     C11342   6.751   0.830   9.607  0.2693 -0.9339 -0.0854
   85MOL0     O11343   6.797   0.958   9.635  0.0055 -0.6949 -0.0989
   85MOL0     C11344   6.740   1.058   9.559  0.1137 -0.7936  0.0397
   85MOL0     C11345   6.809   1.118   9.447  0.1070  0.9671  0.2362
   85MOL0     C11346   6.742   1.204   9.372  0.2826 -0.3863  1.7885
   85MOL0     C11347   6.612   1.259   9.403  0.2492 -0.3378  0.0171
   85MOL0     O11348   6.569   1.365   9.320  0.2506  0.1048 -1.0594
   85MOL0     C11349   6.450   1.443   9.353  0.3859  0.5276  0.1579
   85MOL0     C11350   6.414   1.527   9.218 -1.0082 -1.0693 -0.4514
   85MOL0     C11351   6.396   1.682   9.253  0.3916 -0.5808 -0.4376
   85MOL0     C11352   6.533   1.755   9.236  0.4349  0.2263 -1.5933
   85MOL0     C11353   6.529   1.889   9.308 -0.0980 -0.7262  0.1830
   85MOL0     C11354   6.480   2.005   9.218 -0.8427  1.2233  0.2460
   85MOL0     C11355   6.552   2.018   9.079 -0.8243  0.1566  0.5717
   85MOL0     C11356   6.505   2.151   9.018  0.1615  0.3536 -0.4663
   85MOL0     N11357   6.569   2.269   9.077 -0.0831 -0.1689  0.6905
   85MOL0     C11358   6.701   2.293   9.088 -0.6228  0.1319  1.1226
   85MOL0     C11359   6.725   2.389   9.175  0.2259  0.3893 -0.2510
   85MOL0     C11360   6.854   2.456   9.195  0.1748 -0.3436  1.0039
   85MOL0     C11361   6.973   2.358   9.239  0.4996 -0.0151 -0.7366
   85MOL0     C11362   7.113   2.419   9.271  0.4155 -0.0888  0.2454
   85MOL0     C11363   7.155   2.529   9.176 -0.4554  0.2581 -0.1250
   85MOL0     O11364   7.275   2.590   9.220 -0.1248  0.2879  0.1405
   85MOL0     C11365   7.277   2.699   9.292 -0.0013  0.0079  0.1357
   85MOL0     C11366   7.253   2.830   9.243 -0.6106 -0.7401 -0.3570
   85MOL0     C11367   7.269   2.938   9.330 -0.4550 -0.4188  0.3267
   85MOL0     C11368   7.254   3.075   9.257 -0.0048  0.2884  0.7850
   85MOL0     C11369   7.298   2.913   9.468  0.7815 -0.1589 -0.2860
   85MOL0     C11370   7.304   3.022   9.569 -0.5754 -0.0352  1.2394
   85MOL0     O11371   7.187   3.054   9.635 -0.4105  1.1631 -0.3863
   85MOL0     C11372   7.165   3.174   9.696 -0.5993  0.0202 -0.6753
   85MOL0     C11373   7.093   3.173   9.822  0.1239  0.3268  0.1338
   85MOL0     C11374   7.082   3.290   9.890  0.0403 -0.8793 -0.6706
   85MOL0     C11375   7.139   3.411   9.839 -0.3977 -0.4874 -0.6346
   85MOL0     O11376   7.106   3.516   9.921 -0.2376  0.2302 -0.2739
   85MOL0     C11377   7.121   3.654   9.873 -0.1710 -0.4233 -0.2118
   85MOL0     C11378   7.046   3.755   9.966  1.2299  0.0045  1.1357
   85MOL0     C11379   7.079   3.758  10.116 -0.8311 -0.4474  1.3485
   85MOL0     C11380   7.009   3.872  10.188 -0.0234 -0.6422 -0.0622
   85MOL0     C11381   7.012   3.848  10.337 -0.4443 -0.1251  0.1437
   85MOL0     C11382   6.929   3.953  10.404  0.2026 -1.0524 -0.1794
   85MOL0     C11383   6.931   3.964  10.561  0.1057  0.1673  0.2094
   85MOL0     C11384   6.800   4.019  10.607  0.1644 -1.1782  0.3262
   85MOL0    Cl11385   6.655   3.914  10.544  0.1611 -0.6240 -0.5931
   85MOL0     C11386   7.208   3.418   9.718 -0.0541 -0.6711 -0.1348
   85MOL0     C11387   7.220   3.293   9.650 -1.0103  0.4346 -0.9108
   85MOL0     O11388   7.409   3.083   9.575  0.0940  0.1515  1.1686
   85MOL0     C11389   7.312   2.786   9.515  0.0687  0.6730  0.3998
   85MOL0     C11390   7.307   2.678   9.420  0.0026 -0.5246 -0.5517
   85MOL0     N11391   6.607   2.412   9.243  0.3466 -0.3124 -0.3135
   85MOL0     N11392   6.514   2.345   9.173 -0.0188 -1.0600 -0.1427
   85MOL0     C11393   6.541   1.202   9.512  0.1722 -0.6380 -0.3511
   85MOL0     C11394   6.608   1.106   9.587 -0.2440 -0.5994 -0.4488
   85MOL0     C11395   6.805   0.724   9.698  0.8375  0.4424  0.0875
   85MOL0     C11396   6.780   0.593   9.670 -0.3463  1.1941  0.3084
   85MOL0     C11397   6.839   0.490   9.746  0.9172 -0.4515  0.4751
   85MOL0     C11398   6.919   0.521   9.850  0.8115 -0.4742 -0.4932
   85MOL0     O11399   6.975   0.409   9.914  0.0807 -0.3041 -0.1537
   85MOL0     C11400   7.080   0.430  10.012  0.2716 -0.7282  1.4792
   85MOL0     C11401   7.129   0.291  10.048 -0.1372  0.5208  0.0113
   85MOL0     C11402   7.267   0.296  10.100 -0.7489  1.1318  0.2806
   85MOL0     C11403   7.327   0.155  10.137  0.0096 -0.6834  0.5860
   85MOL0     C11404   7.334   0.072  10.016  0.2137 -0.6507 -0.3655
   85MOL0     C11405   7.341   0.007   9.914  0.0084 -0.5572 -0.4878
   85MOL0     C11406   6.940   0.658   9.884  0.3457 -0.1803  0.1832
   85MOL0     C11407   6.885   0.763   9.812 -0.2377 -0.2600 -0.6615
   85MOL0     H11408   6.910   1.089   9.421  0.4612  2.7583 -0.5092
   85MOL0     H11409   6.796   1.249   9.290  2.8831 -0.9479  3.0850
   85MOL0     H11410   6.369   1.370   9.363  0.2349  0.4765 -1.2202
   85MOL0     H11411   6.467   1.502   9.443  1.2878  1.5804 -0.6768
   85MOL0     H11412   6.503   1.536   9.156  0.7516  0.5943  2.1013
   85MOL0     H11413   6.328   1.479   9.172 -0.0883 -2.4811 -0.7436
   85MOL0     H11414   6.320   1.717   9.182 -0.6219 -2.3601 -0.2747
   85MOL0     H11415   6.351   1.682   9.353  0.4073 -3.1066 -0.3710
   85MOL0     H11416   6.606   1.697   9.291 -2.0065 -0.1846  1.4907
   85MOL0     H11417   6.570   1.750   9.133 -0.4456 -3.3749 -1.8842
   85MOL0     H11418   6.460   1.890   9.394 -0.3767  0.6430 -0.0376
   85MOL0     H11419   6.632   1.911   9.337  0.4270 -0.1805 -1.9530
   85MOL0     H11420   6.380   1.973   9.186 -0.2071  0.6412 -1.2764
   85MOL0     H11421   6.477   2.103   9.268  0.5468 -0.1806  3.3125
   85MOL0     H11422   6.659   2.023   9.100 -0.0334 -0.6698 -2.6894
   85MOL0     H11423   6.530   1.931   9.016  1.6492  0.0774 -0.2775
   85MOL0     H11424   6.396   2.155   9.022  0.1226 -1.1309  0.6620
   85MOL0     H11425   6.526   2.148   8.910  1.0827  1.7275 -0.3588
   85MOL0     H11426   6.779   2.234   9.041 -0.5185  3.6682 -3.9145
   85MOL0     H11427   6.875   2.512   9.103 -0.2540 -0.8927  0.5670
   85MOL0     H11428   6.841   2.529   9.275  4.0260  0.8488  0.7774
   85MOL0     H11429   6.982   2.277   9.166  1.4179 -1.4610  0.9244
   85MOL0     H11430   6.929   2.313   9.328 -4.9667  0.6725 -2.6989
   85MOL0     H11431   7.185   2.337   9.261  1.1548  0.5103  0.6417
   85MOL0     H11432   7.122   2.466   9.369 -1.7281  1.9258 -0.4441
   85MOL0     H11433   7.083   2.611   9.173 -0.0245  0.6275 -0.6475
   85MOL0     H11434   7.168   2.490   9.074  0.9948  0.2037  0.0556
   85MOL0     H11435   7.247   2.840   9.135  1.6037  0.8593 -0.4132
   85MOL0     H11436   7.199   3.154   9.309 -0.0012  1.3592 -0.7661
   85MOL0     H11437   7.346   3.126   9.228 -0.9357  0.3418 -2.4884
   85MOL0     H11438   7.199   3.062   9.164 -1.0266  3.2344  0.8819
   85MOL0     H11439   7.060   3.077   9.861  0.9266  0.4387  1.1419
   85MOL0     H11440   7.025   3.290   9.983  0.8506  0.5707 -0.1434
   85MOL0     H11441   7.225   3.690   9.869 -1.2073  2.7113 -2.5879
   85MOL0     H11442   7.094   3.668   9.768  0.9274  0.1788 -0.4300
   85MOL0     H11443   7.045   3.855   9.922 -3.2705  0.2255  1.3631
   85MOL0     H11444   6.943   3.720   9.959  1.2271  0.3288 -2.3254
   85MOL0     H11445   7.186   3.781  10.119 -0.1662 -2.9884  0.0504
   85MOL0     H11446   7.065   3.659  10.163 -0.4173 -1.1337  0.0692
   85MOL0     H11447   7.056   3.965  10.152 -3.1361  0.1094 -2.6517
   85MOL0     H11448   6.907   3.891  10.154  0.0741 -1.1111 -0.6169
   85MOL0     H11449   7.115   3.861  10.372 -1.3466  2.7891  2.0427
   85MOL0     H11450   6.975   3.749  10.365 -2.2386  0.6310  0.5520
   85MOL0     H11451   6.967   4.048  10.364 -0.0576 -1.2336 -0.8810
   85MOL0     H11452   6.828   3.941  10.364  1.0221 -1.0712 -2.4241
   85MOL0     H11453   7.013   4.020  10.607  0.2018  2.4660 -2.4833
   85MOL0     H11454   6.935   3.860  10.594 -1.1167  0.5405  1.7050
   85MOL0     H11455   6.784   4.119  10.565 -0.6791 -2.3934 -2.5474
   85MOL0     H11456   6.794   4.024  10.716 -0.4152  0.7657  0.2328
   85MOL0     H11457   7.263   3.505   9.682  0.2421  0.6224  3.0759
   85MOL0     H11458   7.275   3.280   9.557 -0.3680 -0.4386 -0.4254
   85MOL0     H11459   7.323   2.758   9.619 -0.2267  1.8890  0.7828
   85MOL0     H11460   7.334   2.579   9.456  1.2234 -1.1381 -2.9460
   85MOL0     H11461   6.450   1.251   9.543  2.1519  3.3552 -0.1607
   85MOL0     H11462   6.576   1.075   9.685 -0.5543 -0.8393 -0.6235
   85MOL0     H11463   6.697   0.553   9.611  0.0961 -0.9717  1.0726
   85MOL0     H11464   6.827   0.384   9.726 -2.8118 -0.2316  0.7982
   85MOL0     H11465   7.157   0.488   9.962 -0.6454  0.5293  1.4885
   85MOL0     H11466   7.047   0.480  10.104  1.9525 -1.1629  2.3615
   85MOL0     H11467   7.120   0.219   9.967 -1.4044 -1.0090  1.4427
   85MOL0     H11468   7.061   0.256  10.126  0.0382 -1.9793 -0.8631
   85MOL0     H11469   7.269   0.353  10.194 -2.1786  2.9003 -0.6890
   85MOL0     H11470   7.323   0.340  10.018  0.7704 -2.6644 -0.8938
   85MOL0     H11471   7.277   0.117  10.227  0.6304  3.1631  2.7841
   85MOL0     H11472   7.430   0.169  10.168  0.2630 -3.0720  0.9546
   85MOL0     H11473   7.365  -0.034   9.818 -0.0941  4.1864 -2.8115
   85MOL0     H11474   6.994   0.683   9.974  1.8681 -2.2626 -0.0882
   85MOL0     H11475   6.893   0.866   9.845  1.6632 -0.5071 -0.2311
   86MOL0     O11476   1.969   4.428  11.208 -0.6118  0.0385 -0.5071
   86MOL0     C11477   1.957   4.402  11.327 -1.2139  0.4292  0.1485
   86MOL0     O11478   2.030   4.304  11.382  0.2124  0.3518  0.2010
   86MOL0     C11479   2.132   4.239  11.314  0.7255 -0.1928  0.1306
   86MOL0     C11480   2.122   4.160  11.198  0.4746  0.6122 -0.1102
   86MOL0     C11481   2.232   4.100  11.145  0.9530 -0.7160  0.0644
   86MOL0     C11482   2.356   4.117  11.200  0.7033  0.4055  0.8788
   86MOL0     O11483   2.468   4.063  11.146  0.3497  0.3042 -0.0406
   86MOL0     C11484   2.489   3.934  11.199  0.8464  0.8359 -1.0502
   86MOL0     C11485   2.617   3.885  11.138 -0.3271 -0.3101  0.2761
   86MOL0     C11486   2.651   3.740  11.176  0.2655  0.5321  0.1346
   86MOL0     C11487   2.763   3.675  11.092 -1.1002 -0.2749  0.6322
   86MOL0     C11488   2.792   3.527  11.120  1.1551  1.1317 -0.0794
   86MOL0     C11489   2.883   3.495  11.243 -0.4883  0.4881  0.6349
   86MOL0     C11490   2.936   3.347  11.231 -0.2471  0.4780 -0.2272
   86MOL0     C11491   2.993   3.285  11.368 -0.8132  0.6167  0.6096
   86MOL0     N11492   3.007   3.143  11.371  0.8727 -0.7779 -0.7581
   86MOL0     C11493   3.054   3.068  11.271 -0.0049 -0.0806 -0.7067
   86MOL0     C11494   3.050   2.943  11.326 -0.5189  1.1305  0.9707
   86MOL0     C11495   3.103   2.808  11.267  0.6098 -0.0310  0.3474
   86MOL0     C11496   3.102   2.689  11.364 -0.7991  1.2678  0.0570
   86MOL0     C11497   3.194   2.575  11.304  0.0005  1.0257 -0.2182
   86MOL0     C11498   3.195   2.449  11.392  0.3777 -1.0325 -0.6568
   86MOL0     O11499   3.300   2.366  11.349 -0.7583  0.1655  0.5156
   86MOL0     C11500   3.414   2.379  11.413  0.0813  0.7317  1.0745
   86MOL0     C11501   3.515   2.415  11.331 -0.5990  1.0274 -1.0215
   86MOL0     C11502   3.643   2.442  11.384  0.1183  0.7565 -0.0560
   86MOL0     C11503   3.740   2.509  11.287  0.2305 -0.5244 -1.3660
   86MOL0     C11504   3.675   2.397  11.511  0.2664  0.5246 -0.4244
   86MOL0     C11505   3.816   2.387  11.562 -0.0030 -0.1014  1.2860
   86MOL0     O11506   3.826   2.319  11.677 -0.3597 -0.6507  0.2317
   86MOL0     C11507   3.946   2.276  11.719  0.0590  0.4811 -0.0482
   86MOL0     C11508   4.036   2.369  11.784  0.4052  0.1316  0.5990
   86MOL0     C11509   4.158   2.319  11.831  0.2705  0.0284 -0.1932
   86MOL0     C11510   4.198   2.185  11.811  0.4452  0.5324 -1.0526
   86MOL0     O11511   4.327   2.151  11.842 -0.4595 -0.6227 -0.5799
   86MOL0     C11512   4.406   2.091  11.733  0.3023  0.1923  0.1429
   86MOL0     C11513   4.484   1.966  11.789 -0.1821  0.7101  0.5960
   86MOL0     C11514   4.592   1.986  11.897 -0.1722  0.0522  0.1919
   86MOL0     C11515   4.712   2.069  11.851  0.2077 -0.9836 -0.5590
   86MOL0     C11516   4.799   2.085  11.982 -0.2689  0.1965 -0.2364
   86MOL0     C11517   4.920   2.178  11.961 -0.3612 -1.0687 -0.5178
   86MOL0     C11518   5.024   2.191  12.077 -0.2966  0.7903 -0.0220
   86MOL0     C11519   5.113   2.063  12.106 -0.2834  0.1187  0.5624
   86MOL0    Cl11520   5.241   2.118  12.208  0.4356 -0.1521  0.3810
   86MOL0     C11521   4.108   2.093  11.756 -0.3958 -0.8687  0.6187
   86MOL0     C11522   3.991   2.144  11.709  0.3173 -0.4059  0.3271
   86MOL0     O11523   3.909   2.437  11.494  0.0757  0.2329 -0.6889
   86MOL0     C11524   3.565   2.363  11.597 -0.4031  0.1773  0.0025
   86MOL0     C11525   3.436   2.357  11.544 -0.7281 -0.0999  0.3018
   86MOL0     N11526   3.002   2.957  11.451  1.1926 -0.0018 -0.7356
   86MOL0     N11527   2.966   3.072  11.475  0.1815  0.1190  0.1426
   86MOL0     C11528   2.368   4.197  11.313 -0.1377  0.8752  0.3069
   86MOL0     C11529   2.257   4.261  11.373  0.0721 -0.7124  0.9767
   86MOL0     C11530   1.842   4.464  11.397 -0.6983 -0.1094  0.3557
   86MOL0     C11531   1.743   4.543  11.324  0.0960  0.8048 -0.0197
   86MOL0     C11532   1.620   4.581  11.391 -0.2630  0.0463  0.0199
   86MOL0     C11533   1.595   4.551  11.525 -0.1726 -0.4425 -0.2977
   86MOL0     O11534   1.488   4.612  11.588  0.0095  0.6195  0.2518
   86MOL0     C11535   1.460   4.566  11.718 -0.2338 -0.7455  1.0886
   86MOL0     C11536   1.335   4.637  11.776  0.4429  0.0976 -0.2211
   86MOL0     C11537   1.210   4.588  11.691 -0.1720 -0.9557  0.2948
   86MOL0     C11538   1.090   4.640  11.768 -0.9636 -0.0706 -0.3250
   86MOL0     C11539   1.081   4.781  11.737 -0.2110 -0.3551  0.4775
   86MOL0     C11540   1.093   4.897  11.716  0.8926 -0.5721 -0.2475
   86MOL0     C11541   1.687   4.468  11.586 -0.4196  0.2964 -0.1555
   86MOL0     C11542   1.805   4.424  11.524  0.1662  0.0267 -0.4728
   86MOL0     H11543   2.030   4.134  11.147 -1.0724 -1.1605  3.2898
   86MOL0     H11544   2.240   4.057  11.046 -0.6791 -0.7827 -0.0634
   86MOL0     H11545   2.497   3.936  11.308 -1.0426  2.9519 -0.8787
   86MOL0     H11546   2.406   3.868  11.173  0.2036  1.3740 -0.3963
   86MOL0     H11547   2.610   3.892  11.029  1.7595  0.1243  0.1244
   86MOL0     H11548   2.704   3.944  11.170  0.0746 -0.1632 -1.0320
   86MOL0     H11549   2.671   3.741  11.283  0.0272  1.0444  0.1779
   86MOL0     H11550   2.557   3.683  11.177  1.6999 -2.5177  6.0121
   86MOL0     H11551   2.730   3.698  10.991 -0.2578  1.0809  0.6388
   86MOL0     H11552   2.852   3.737  11.106  1.1527 -3.0014 -0.6413
   86MOL0     H11553   2.694   3.477  11.114  1.4987  0.4708 -0.3362
   86MOL0     H11554   2.848   3.486  11.036 -0.8509 -0.4242 -0.7536
   86MOL0     H11555   2.977   3.549  11.239  1.0153 -2.0171 -0.7691
   86MOL0     H11556   2.832   3.503  11.340 -0.6199 -0.5008  0.6592
   86MOL0     H11557   2.854   3.283  11.196 -2.1398  2.6300  0.0607
   86MOL0     H11558   3.020   3.349  11.161  0.4930  1.5839  0.6522
   86MOL0     H11559   2.931   3.314  11.453  0.6200 -1.3642  2.4252
   86MOL0     H11560   3.089   3.332  11.388 -0.3720  0.2520 -0.6024
   86MOL0     H11561   3.083   3.102  11.172  0.2891  1.9538  0.0281
   86MOL0     H11562   3.045   2.777  11.180  1.9662  1.4697 -1.1740
   86MOL0     H11563   3.200   2.823  11.218  0.7617  1.0477  0.9326
   86MOL0     H11564   2.999   2.658  11.383 -0.3266 -0.8724 -0.5090
   86MOL0     H11565   3.139   2.713  11.463 -0.1417  1.2856 -0.1888
   86MOL0     H11566   3.295   2.612  11.285  0.0713  1.7438  1.3723
   86MOL0     H11567   3.149   2.536  11.212  1.1261  0.2999 -0.4820
   86MOL0     H11568   3.094   2.407  11.396 -0.0237 -0.1784 -1.4772
   86MOL0     H11569   3.208   2.479  11.497 -0.3893 -0.9522 -0.5804
   86MOL0     H11570   3.494   2.428  11.225  0.9483  1.5855 -1.2809
   86MOL0     H11571   3.812   2.442  11.241  2.6254 -0.7681  2.3782
   86MOL0     H11572   3.675   2.556  11.211 -3.0211  1.2744  2.1849
   86MOL0     H11573   3.788   2.586  11.348 -2.3180 -0.3822  0.6642
   86MOL0     H11574   4.012   2.475  11.788  0.6437  0.4526 -2.9570
   86MOL0     H11575   4.236   2.384  11.870 -0.6214 -0.7412  3.1135
   86MOL0     H11576   4.350   2.044  11.651  1.5820 -0.3308 -0.4626
   86MOL0     H11577   4.467   2.171  11.690  0.6691  0.0926  0.4698
   86MOL0     H11578   4.401   1.913  11.838 -1.7610  1.4041 -1.1910
   86MOL0     H11579   4.512   1.911  11.699 -3.0174  2.5181 -1.5704
   86MOL0     H11580   4.639   1.892  11.926  0.9623  0.6645  0.4085
   86MOL0     H11581   4.539   2.041  11.976  0.1853 -0.2814  0.6694
   86MOL0     H11582   4.766   2.004  11.781  0.7204 -2.5879  1.2466
   86MOL0     H11583   4.684   2.170  11.820  2.9489 -0.0240 -0.1614
   86MOL0     H11584   4.848   1.988  11.993 -1.0486 -0.0704  1.0135
   86MOL0     H11585   4.732   2.110  12.065 -2.5726 -2.5532 -1.1101
   86MOL0     H11586   4.977   2.137  11.877 -0.9668 -4.4685  0.5784
   86MOL0     H11587   4.880   2.277  11.934  0.2758 -1.0909 -1.5731
   86MOL0     H11588   4.969   2.213  12.169 -0.0750  0.0754  0.2867
   86MOL0     H11589   5.084   2.278  12.049 -1.6124  1.4483 -0.9252
   86MOL0     H11590   5.149   2.020  12.012  3.2686  1.6608  1.0786
   86MOL0     H11591   5.046   1.990  12.153 -3.0848  0.4702 -2.4631
   86MOL0     H11592   4.141   1.990  11.753  2.1256 -0.1516  1.4110
   86MOL0     H11593   3.921   2.069  11.675  0.8188  0.1346 -2.0539
   86MOL0     H11594   3.589   2.342  11.701 -0.8679  2.5252  0.6486
   86MOL0     H11595   3.352   2.310  11.593 -3.6590 -1.2540 -5.0318
   86MOL0     H11596   2.462   4.212  11.364 -0.6741  0.5707  1.4100
   86MOL0     H11597   2.264   4.327  11.458  0.8485  2.3096 -1.2481
   86MOL0     H11598   1.752   4.569  11.219  0.7337  0.0907 -0.1504
   86MOL0     H11599   1.549   4.638  11.333  0.6270  0.4962 -0.6612
   86MOL0     H11600   1.451   4.458  11.723  1.8135 -1.0106  0.1140
   86MOL0     H11601   1.546   4.587  11.782  0.4951  0.4404 -0.2069
   86MOL0     H11602   1.357   4.744  11.775  2.4622 -0.2638 -0.9767
   86MOL0     H11603   1.325   4.605  11.880 -0.7544 -1.3362 -0.7480
   86MOL0     H11604   1.193   4.480  11.684 -4.7256 -0.3341 -1.1598
   86MOL0     H11605   1.217   4.623  11.588 -0.0784  1.1339  0.9680
   86MOL0     H11606   1.096   4.638  11.877  2.6155 -0.1832 -0.4170
   86MOL0     H11607   0.998   4.597  11.727  0.3977  0.0475 -3.8774
   86MOL0     H11608   1.090   5.004  11.719  4.1285 -0.4201  0.7985
   86MOL0     H11609   1.670   4.420  11.682  1.1033 -3.0507 -1.4084
   86MOL0     H11610   1.860   4.342  11.568 -0.0875  0.5678  0.9165
   87MOL0     O11611   7.006  11.250   5.912  0.2073  0.2393 -0.0005
   87MOL0     C11612   7.056  11.154   5.853  0.2932  0.2836 -0.3133
   87MOL0     O11613   6.992  11.062   5.788 -0.0402  0.1120 -0.3119
   87MOL0     C11614   6.857  11.055   5.759 -0.0896 -0.0822  0.2308
   87MOL0     C11615   6.754  11.095   5.856  1.1275  0.7879 -0.0949
   87MOL0     C11616   6.620  11.097   5.812 -0.2417  0.6489  0.0459
   87MOL0     C11617   6.589  11.078   5.675  0.0000 -0.6234  0.3832
   87MOL0     O11618   6.459  11.070   5.626 -0.3800  0.3284  0.5037
   87MOL0     C11619   6.365  11.160   5.685  0.1207  0.4713  0.2896
   87MOL0     C11620   6.227  11.161   5.609  0.1494 -0.5888 -0.4772
   87MOL0     C11621   6.270  11.207   5.461  0.3738 -0.0127 -0.9120
   87MOL0     C11622   6.136  11.257   5.406 -0.1517 -0.0577 -0.2998
   87MOL0     C11623   6.144  11.308   5.267  0.2098  0.1077 -0.2292
   87MOL0     C11624   6.019  11.388   5.220 -0.1053 -0.1551 -0.1369
   87MOL0     C11625   6.059  11.499   5.106  0.2363  0.1156  0.2810
   87MOL0     C11626   5.929  11.531   5.016  0.5491  0.8586  0.5991
   87MOL0     N11627   5.960  11.623   4.909  0.8213  0.3837 -0.2646
   87MOL0     C11628   6.052  11.620   4.801  0.3951 -0.1517 -1.1859
   87MOL0     C11629   6.011  11.726   4.727 -0.3231 -0.0473 -0.1220
   87MOL0     C11630   6.058  11.759   4.586 -0.7856 -0.8964  0.7925
   87MOL0     C11631   5.956  11.742   4.473  0.5064  0.6047 -0.4430
   87MOL0     C11632   5.915  11.876   4.403 -0.8008 -0.0516 -0.1003
   87MOL0     C11633   5.816  11.870   4.290  0.0561  0.1970 -0.1590
   87MOL0     O11634   5.684  11.860   4.330 -0.5412 -0.0999  0.1036
   87MOL0     C11635   5.577  11.832   4.243  0.0995  0.2561 -0.1211
   87MOL0     C11636   5.460  11.896   4.280 -1.1206 -0.1573 -0.6335
   87MOL0     C11637   5.348  11.891   4.212  0.8380 -0.9765 -0.2389
   87MOL0     C11638   5.242  11.995   4.262 -0.0073  0.1704  0.0901
   87MOL0     C11639   5.345  11.809   4.096 -0.5582 -0.5967  0.4841
   87MOL0     C11640   5.225  11.793   4.020  0.5667 -0.3729 -0.4626
   87MOL0     O11641   5.251  11.757   3.888  0.5302  0.1184 -0.7124
   87MOL0     C11642   5.160  11.697   3.811 -0.8310 -0.2976  0.3108
   87MOL0     C11643   5.039  11.762   3.786  0.3454  0.4240 -0.2437
   87MOL0     C11644   4.953  11.723   3.682 -0.0739  0.4745 -0.7081
   87MOL0     C11645   4.979  11.613   3.604  1.0237  0.0663 -0.4769
   87MOL0     O11646   4.870  11.572   3.526  0.0111  0.0767 -0.4124
   87MOL0     C11647   4.875  11.437   3.476  0.4090  0.9958 -0.0162
   87MOL0     C11648   4.756  11.394   3.373  0.0167 -0.4464 -0.0825
   87MOL0     C11649   4.621  11.419   3.444  0.1219 -0.2896  0.0051
   87MOL0     C11650   4.519  11.416   3.331 -0.2233  0.0430  0.2381
   87MOL0     C11651   4.387  11.392   3.395 -1.1466 -0.0885 -0.8333
   87MOL0     C11652   4.271  11.367   3.304  0.4175  0.1511 -0.4965
   87MOL0     C11653   4.146  11.447   3.365 -0.2117  0.4575  0.0396
   87MOL0     C11654   4.026  11.459   3.273  0.2569  0.4199 -0.3432
   87MOL0    Cl11655   4.064  11.556   3.119  0.4896  0.5246 -0.7376
   87MOL0     C11656   5.091  11.541   3.637 -0.2752  0.3089 -0.0352
   87MOL0     C11657   5.178  11.579   3.738 -0.0849 -0.3269 -0.2887
   87MOL0     O11658   5.112  11.790   4.077  0.6076 -0.3836 -1.0398
   87MOL0     C11659   5.470  11.745   4.048  0.9624 -0.4363 -0.2846
   87MOL0     C11660   5.576  11.751   4.133  0.4539 -0.6521 -0.1562
   87MOL0     N11661   5.903  11.791   4.780 -1.1032  0.5550 -0.2535
   87MOL0     N11662   5.879  11.733   4.892 -0.0780  0.9139  0.2579
   87MOL0     C11663   6.692  11.052   5.584 -0.1518  0.0607 -0.5894
   87MOL0     C11664   6.819  11.034   5.634  0.5981  0.8742  0.7928
   87MOL0     C11665   7.204  11.127   5.877  0.0307 -0.9016  0.4953
   87MOL0     C11666   7.282  11.210   5.965  0.2572  0.1124 -0.1977
   87MOL0     C11667   7.412  11.174   5.977  0.5195 -0.6154 -0.6725
   87MOL0     C11668   7.473  11.073   5.901  0.1180  0.9131  0.0524
   87MOL0     O11669   7.613  11.057   5.906  0.5542  0.5729  0.6675
   87MOL0     C11670   7.682  11.105   5.784  0.3562  0.3014 -0.2882
   87MOL0     C11671   7.814  11.035   5.767 -0.1441  0.2886  0.2055
   87MOL0     C11672   7.892  11.128   5.687 -0.6042 -0.4330  0.4750
   87MOL0     C11673   7.994  11.055   5.602  0.0984  0.1774 -0.8316
   87MOL0     C11674   8.106  11.019   5.689 -0.2319 -1.0838 -0.6195
   87MOL0     C11675   8.198  10.956   5.745 -0.3448  0.8455 -0.2069
   87MOL0     C11676   7.398  11.001   5.816  0.0985  1.6329 -0.6181
   87MOL0     C11677   7.260  11.023   5.806  0.5665 -0.4695 -0.0994
   87MOL0     H11678   6.782  11.115   5.959  1.7236 -0.5114  0.0163
   87MOL0     H11679   6.543  11.119   5.885 -0.9897 -0.4389 -0.4011
   87MOL0     H11680   6.347  11.120   5.785  1.1975  3.2626  1.7074
   87MOL0     H11681   6.411  11.259   5.693  0.9737 -0.0619  2.8587
   87MOL0     H11682   6.183  11.061   5.617 -1.0962  0.0211  0.7665
   87MOL0     H11683   6.154  11.220   5.664  2.5637 -0.4410  2.9076
   87MOL0     H11684   6.344  11.287   5.457  2.0524 -1.3150  1.5389
   87MOL0     H11685   6.317  11.120   5.415 -0.7210 -1.4620  0.5682
   87MOL0     H11686   6.061  11.177   5.400 -1.6828  1.4203 -2.3116
   87MOL0     H11687   6.083  11.338   5.457  2.1493  1.8588 -0.8013
   87MOL0     H11688   6.234  11.370   5.257 -0.5767  1.2794 -0.3117
   87MOL0     H11689   6.155  11.219   5.205 -1.5236 -2.8542  3.2781
   87MOL0     H11690   5.952  11.309   5.184 -0.0691 -1.6751  2.8317
   87MOL0     H11691   5.968  11.440   5.302 -0.1618 -0.8363  0.2613
   87MOL0     H11692   6.093  11.595   5.145  1.5499 -0.8273  1.5959
   87MOL0     H11693   6.143  11.464   5.046  1.1289 -3.3100  3.1832
   87MOL0     H11694   5.842  11.558   5.077  1.8527 -0.5614  3.3042
   87MOL0     H11695   5.903  11.433   4.975 -0.3498  0.2186  2.5399
   87MOL0     H11696   6.125  11.547   4.766  1.6227 -0.4156  1.6497
   87MOL0     H11697   6.088  11.864   4.583  0.8194 -1.3491 -0.0471
   87MOL0     H11698   6.144  11.693   4.576 -0.0296 -0.0808  1.6858
   87MOL0     H11699   5.868  11.693   4.518 -0.9111  1.3881 -2.2278
   87MOL0     H11700   5.998  11.675   4.397 -0.8813 -0.3997 -0.3809
   87MOL0     H11701   6.007  11.925   4.373  1.5674 -0.0335  5.8201
   87MOL0     H11702   5.870  11.933   4.485  1.8249  1.7167  0.2174
   87MOL0     H11703   5.833  11.782   4.227  2.9436  0.6792 -0.1922
   87MOL0     H11704   5.823  11.958   4.225  1.5693 -0.5421 -1.0421
   87MOL0     H11705   5.488  11.973   4.351  4.1290 -1.9536 -0.3217
   87MOL0     H11706   5.138  11.962   4.269 -0.4752  1.8567  1.7861
   87MOL0     H11707   5.271  12.028   4.362 -0.9396 -0.6366  0.6483
   87MOL0     H11708   5.247  12.081   4.194  1.0118 -0.0196 -0.0908
   87MOL0     H11709   5.007  11.857   3.827  0.5920  0.8568 -1.0271
   87MOL0     H11710   4.857  11.771   3.668 -1.5251 -1.7856  0.7508
   87MOL0     H11711   4.967  11.412   3.421 -1.7204 -0.9790 -3.0097
   87MOL0     H11712   4.865  11.373   3.564  0.2506  1.9723  0.6855
   87MOL0     H11713   4.770  11.448   3.280  0.5311  0.9256  0.7612
   87MOL0     H11714   4.752  11.285   3.373  0.3977 -0.4601 -0.6052
   87MOL0     H11715   4.630  11.521   3.481 -0.8489  1.2717 -3.5660
   87MOL0     H11716   4.604  11.342   3.520 -1.1170 -2.9445 -2.7464
   87MOL0     H11717   4.518  11.505   3.268 -1.1377 -0.2128 -0.1227
   87MOL0     H11718   4.544  11.336   3.262  0.2703 -1.3615  1.9621
   87MOL0     H11719   4.378  11.477   3.463 -2.0717  0.7646 -1.9831
   87MOL0     H11720   4.399  11.302   3.457 -0.5711  1.9642  2.2625
   87MOL0     H11721   4.303  11.407   3.207 -1.7495  0.3919 -1.1808
   87MOL0     H11722   4.245  11.263   3.280 -1.0765  0.3173  0.2774
   87MOL0     H11723   4.186  11.544   3.395  0.7721 -0.3990  1.6935
   87MOL0     H11724   4.104  11.405   3.457 -0.5122  2.2312  0.7507
   87MOL0     H11725   3.949  11.512   3.329  0.9295  2.7216 -1.5026
   87MOL0     H11726   3.997  11.356   3.250 -1.9232  0.3386  2.3051
   87MOL0     H11727   5.103  11.449   3.580 -0.4141  0.7847 -0.8441
   87MOL0     H11728   5.268  11.519   3.734  2.4777  3.2378 -0.5249
   87MOL0     H11729   5.464  11.672   3.968 -3.7965  0.5247 -1.0928
   87MOL0     H11730   5.674  11.711   4.109  1.0557  1.3172 -1.2013
   87MOL0     H11731   6.654  11.032   5.484 -4.8280  2.3812  0.4250
   87MOL0     H11732   6.901  10.995   5.575 -1.4339 -3.1513  0.2672
   87MOL0     H11733   7.243  11.304   6.004  0.4369  0.5280 -0.9850
   87MOL0     H11734   7.462  11.243   6.043 -3.9899  0.3822  2.1361
   87MOL0     H11735   7.618  11.088   5.697 -0.0735  0.6080 -0.0325
   87MOL0     H11736   7.680  11.214   5.793  0.0241  0.3752 -1.1771
   87MOL0     H11737   7.803  10.932   5.734  0.4158  0.1165  0.5416
   87MOL0     H11738   7.856  11.039   5.868  3.7750  1.4205 -1.2857
   87MOL0     H11739   7.936  11.207   5.749  0.1532  0.6312 -1.3271
   87MOL0     H11740   7.832  11.176   5.610  0.9877 -1.9850 -1.8679
   87MOL0     H11741   8.034  11.108   5.515  1.9058 -2.5085 -1.8016
   87MOL0     H11742   7.932  10.976   5.559 -0.7469  0.3206  0.0760
   87MOL0     H11743   8.271  10.905   5.806 -1.0986  0.1989  0.1809
   87MOL0     H11744   7.450  10.921   5.764 -0.4378  0.9072 -0.0626
   87MOL0     H11745   7.203  10.952   5.748 -1.5136 -1.5360  3.0072
   88MOL0     O11746   9.507   9.537   9.325  0.8904 -0.5026 -0.5942
   88MOL0     C11747   9.434   9.487   9.243 -0.0021 -0.0480 -1.3867
   88MOL0     O11748   9.342   9.543   9.168  0.4463  0.9631  0.2732
   88MOL0     C11749   9.316   9.682   9.173 -0.2714 -0.0754 -0.1792
   88MOL0     C11750   9.416   9.781   9.174  0.3835  0.2721 -0.4696
   88MOL0     C11751   9.375   9.908   9.181 -0.3082 -0.6856  0.1360
   88MOL0     C11752   9.239   9.950   9.176  0.5967  0.0272 -0.3561
   88MOL0     O11753   9.212  10.081   9.184  0.1153  0.1917  0.0833
   88MOL0     C11754   9.094  10.132   9.252 -0.3226 -0.9051 -0.6732
   88MOL0     C11755   9.085  10.277   9.211  0.0700  0.4233 -0.7142
   88MOL0     C11756   8.983  10.338   9.311  0.5710  0.4627 -0.2801
   88MOL0     C11757   8.975  10.482   9.285  0.2441 -0.2029 -0.1383
   88MOL0     C11758   8.892  10.556   9.396  0.2199  0.2279  0.0714
   88MOL0     C11759   8.869  10.707   9.351 -0.6265 -0.5094  0.1417
   88MOL0     C11760   8.988  10.792   9.380  0.2678 -0.3081  0.1421
   88MOL0     C11761   8.943  10.932   9.426  0.3693  0.2426 -0.2891
   88MOL0     N11762   9.055  11.024   9.427 -0.0198  0.3778  0.3717
   88MOL0     C11763   9.081  11.098   9.540 -0.0343 -0.0633 -0.0145
   88MOL0     C11764   9.182  11.186   9.511  1.1698  0.4973 -0.0398
   88MOL0     C11765   9.268  11.270   9.608  0.3342  0.8613  0.8101
   88MOL0     C11766   9.399  11.186   9.628 -0.4069 -0.1839  0.4912
   88MOL0     C11767   9.505  11.262   9.724 -0.4930 -0.3581  0.0349
   88MOL0     C11768   9.547  11.394   9.669 -0.3065 -0.1423 -0.0772
   88MOL0     O11769   9.666  11.432   9.740  0.1119  0.1083 -1.0215
   88MOL0     C11770   9.777  11.489   9.677  0.6899 -0.2194 -0.8776
   88MOL0     C11771   9.756  11.587   9.581  0.5377  0.1181  0.0436
   88MOL0     C11772   9.863  11.652   9.520  0.3422 -0.5270 -0.5999
   88MOL0     C11773   9.840  11.780   9.446  0.6935 -0.3650 -0.2919
   88MOL0     C11774   9.992  11.600   9.538 -0.8143  0.4654 -0.9227
   88MOL0     C11775  10.108  11.648   9.463  0.4836  0.3615 -0.2019
   88MOL0     O11776  10.224  11.657   9.534  0.4853  0.2147  0.3738
   88MOL0     C11777  10.337  11.707   9.471  0.5636 -0.4268  0.5012
   88MOL0     C11778  10.436  11.772   9.552 -0.6082  0.5636  0.0871
   88MOL0     C11779  10.558  11.808   9.495  0.0495 -0.6914 -0.1231
   88MOL0     C11780  10.585  11.793   9.355  0.5558  0.8289 -0.8761
   88MOL0     O11781  10.702  11.838   9.288  0.6211  0.3853 -0.3677
   88MOL0     C11782  10.777  11.959   9.318 -0.0610  0.7938  0.0528
   88MOL0     C11783  10.892  12.018   9.223  0.7408  0.5914  0.3647
   88MOL0     C11784  11.013  11.922   9.224  0.2016  0.4968  0.4644
   88MOL0     C11785  11.134  11.987   9.160 -0.6461 -0.4014 -0.8538
   88MOL0     C11786  11.257  11.896   9.171 -0.3490 -0.2332  0.0357
   88MOL0     C11787  11.381  11.960   9.116 -0.9067 -0.2018 -0.2393
   88MOL0     C11788  11.359  12.003   8.963 -0.0432  0.4388 -0.2246
   88MOL0     C11789  11.319  11.888   8.867 -0.1177 -0.0081  0.2510
   88MOL0    Cl11790  11.456  11.769   8.874 -0.1818  0.5685  0.1528
   88MOL0     C11791  10.485  11.736   9.280  0.6631  0.4253  0.5997
   88MOL0     C11792  10.374  11.683   9.335  0.4460  0.3939  0.4092
   88MOL0     O11793  10.091  11.676   9.344 -0.3605  0.2846 -0.2931
   88MOL0     C11794  10.014  11.507   9.640  0.5338  0.2966  0.0684
   88MOL0     C11795   9.905  11.454   9.712  1.5193 -0.8397  0.6268
   88MOL0     N11796   9.218  11.157   9.377 -0.5303 -0.2253  0.3646
   88MOL0     N11797   9.147  11.061   9.329 -0.1930 -0.1362  0.2222
   88MOL0     C11798   9.135   9.854   9.171  0.1165  0.0709 -0.1531
   88MOL0     C11799   9.178   9.717   9.174 -0.1477 -0.2104  0.1096
   88MOL0     C11800   9.443   9.336   9.242 -0.8453 -0.0818 -0.6136
   88MOL0     C11801   9.535   9.267   9.322 -1.6706  0.6590 -0.3350
   88MOL0     C11802   9.547   9.131   9.325 -0.3632  0.5406  0.4958
   88MOL0     C11803   9.458   9.054   9.234 -1.1471 -0.8855  0.2103
   88MOL0     O11804   9.442   8.914   9.230 -0.6930  0.2181  0.6243
   88MOL0     C11805   9.534   8.827   9.298  0.6012 -0.5236  0.0687
   88MOL0     C11806   9.672   8.820   9.233  0.4394  1.1870 -0.0945
   88MOL0     C11807   9.769   8.734   9.324 -1.0033 -0.0469 -0.7320
   88MOL0     C11808   9.844   8.822   9.421 -0.1859  0.3825  0.3927
   88MOL0     C11809   9.959   8.899   9.369  0.0415  0.1780 -0.3051
   88MOL0     C11810  10.030   8.962   9.305 -0.1065 -0.7058  0.8997
   88MOL0     C11811   9.367   9.126   9.159  0.4608 -0.8554  0.1232
   88MOL0     C11812   9.357   9.261   9.159  0.2209  0.0776 -0.0653
   88MOL0     H11813   9.524   9.766   9.168  0.5377  1.7751 -2.4576
   88MOL0     H11814   9.444   9.992   9.186  0.2833 -0.9893 -1.8280
   88MOL0     H11815   8.995  10.088   9.234 -1.0267  0.9279 -1.4881
   88MOL0     H11816   9.122  10.130   9.357 -1.8053 -1.2585 -0.2496
   88MOL0     H11817   9.184  10.320   9.229 -0.3347  0.9290  0.4036
   88MOL0     H11818   9.055  10.296   9.107  2.3706 -0.9345 -1.7084
   88MOL0     H11819   8.879  10.305   9.299 -0.3108  2.2138  1.7746
   88MOL0     H11820   9.008  10.315   9.415 -1.8769 -2.4408 -0.1826
   88MOL0     H11821   9.074  10.528   9.275 -0.6874  1.7272 -0.9956
   88MOL0     H11822   8.922  10.505   9.192 -1.9856  1.5941  1.4782
   88MOL0     H11823   8.789  10.520   9.410 -0.6854  2.2122 -1.0698
   88MOL0     H11824   8.942  10.544   9.492 -1.1387 -1.0529  0.6555
   88MOL0     H11825   8.833  10.701   9.248  0.2112 -2.2984 -0.0778
   88MOL0     H11826   8.784  10.745   9.409 -2.2987 -0.9288 -1.9290
   88MOL0     H11827   9.047  10.755   9.464 -0.4256  3.2219  2.3872
   88MOL0     H11828   9.051  10.810   9.292  0.8323 -0.1369  0.5748
   88MOL0     H11829   8.898  10.921   9.525  0.1373  1.5483 -0.2311
   88MOL0     H11830   8.871  10.969   9.353  4.6728  2.0703 -4.1031
   88MOL0     H11831   9.026  11.090   9.633 -1.1336 -1.5977 -0.7504
   88MOL0     H11832   9.280  11.371   9.569 -2.7980  2.0778  2.6570
   88MOL0     H11833   9.203  11.280   9.696  2.6507 -4.8948  3.6979
   88MOL0     H11834   9.442  11.158   9.532 -1.2318  1.7323 -0.5061
   88MOL0     H11835   9.389  11.092   9.682  1.5570  1.0052  3.2422
   88MOL0     H11836   9.591  11.200   9.750 -0.1123  0.5086  0.9102
   88MOL0     H11837   9.472  11.290   9.824  2.9674  2.2785  0.6419
   88MOL0     H11838   9.471  11.472   9.679 -1.3785 -1.2248  0.4090
   88MOL0     H11839   9.582  11.387   9.565  3.2769  2.3374  0.7698
   88MOL0     H11840   9.654  11.619   9.561  0.7414  1.6464  1.1992
   88MOL0     H11841   9.733  11.801   9.449  0.7210 -0.2722  1.7650
   88MOL0     H11842   9.892  11.851   9.512 -0.6054  2.1587 -1.8138
   88MOL0     H11843   9.877  11.798   9.345  0.1728  1.3256 -0.2127
   88MOL0     H11844  10.424  11.776   9.659 -0.1309 -3.0373  0.4036
   88MOL0     H11845  10.626  11.861   9.560 -0.2517 -0.7746  0.2617
   88MOL0     H11846  10.700  12.038   9.318  0.3473  1.3930 -3.9806
   88MOL0     H11847  10.824  11.950   9.416 -0.4853  0.6382  0.2454
   88MOL0     H11848  10.858  12.033   9.120 -0.5503  0.0596  0.6840
   88MOL0     H11849  10.921  12.115   9.265  0.1129 -0.1896  2.8034
   88MOL0     H11850  10.989  11.833   9.165 -2.5735  2.6642 -1.9148
   88MOL0     H11851  11.033  11.890   9.327 -0.9475 -2.9069 -0.2188
   88MOL0     H11852  11.109  12.025   9.060 -1.4773  0.6373 -0.2734
   88MOL0     H11853  11.170  12.075   9.214  0.3917 -0.7662 -0.9275
   88MOL0     H11854  11.241  11.806   9.112  2.7457 -0.3900 -0.7318
   88MOL0     H11855  11.262  11.875   9.278  0.4715  0.1564  0.0797
   88MOL0     H11856  11.409  12.056   9.160  0.6929  0.3497 -2.3064
   88MOL0     H11857  11.466  11.892   9.130 -1.2529 -0.7127 -0.5991
   88MOL0     H11858  11.458  12.032   8.926  0.0912 -0.3536 -0.5201
   88MOL0     H11859  11.295  12.089   8.941  1.8491  1.5391 -1.7705
   88MOL0     H11860  11.304  11.923   8.764 -2.7210 -2.9850 -0.5571
   88MOL0     H11861  11.224  11.842   8.897  0.5107  0.7586  3.7988
   88MOL0     H11862  10.500  11.741   9.173 -0.3003 -0.7356  0.3871
   88MOL0     H11863  10.316  11.637   9.256  0.4531  0.8631  0.1259
   88MOL0     H11864  10.110  11.475   9.679  2.0191  4.0461 -0.0644
   88MOL0     H11865   9.916  11.365   9.773  0.8787 -0.3170  1.5301
   88MOL0     H11866   9.031   9.884   9.166 -0.8471 -2.5976  1.5353
   88MOL0     H11867   9.112   9.631   9.169  2.9572 -2.8735  1.1291
   88MOL0     H11868   9.611   9.330   9.367 -0.3250  0.4028 -2.1644
   88MOL0     H11869   9.615   9.094   9.402 -1.2893  0.4047  1.2698
   88MOL0     H11870   9.544   8.862   9.401 -2.3411  2.0122 -0.3803
   88MOL0     H11871   9.488   8.728   9.298 -0.0974 -0.2462 -2.0148
   88MOL0     H11872   9.719   8.918   9.222  0.1290  1.4666  0.9290
   88MOL0     H11873   9.663   8.777   9.133 -4.3104 -4.0004  2.0462
   88MOL0     H11874   9.826   8.667   9.259  3.1023 -0.5762  2.9653
   88MOL0     H11875   9.711   8.654   9.371 -1.7651 -0.8958 -2.9454
   88MOL0     H11876   9.881   8.747   9.491 -1.9655 -2.3479 -1.3719
   88MOL0     H11877   9.774   8.886   9.475 -0.0670  1.0298 -0.2093
   88MOL0     H11878  10.100   9.019   9.247 -0.1125 -2.6148 -1.1156
   88MOL0     H11879   9.292   9.074   9.102  0.1601 -0.2404 -0.0544
   88MOL0     H11880   9.268   9.283   9.102  0.1563 -1.5075 -0.6159
   89MOL0     O11881   4.728   4.334   9.144 -0.9440 -0.8861 -0.1198
   89MOL0     C11882   4.708   4.378   9.262  0.5849  0.4159  0.1670
   89MOL0     O11883   4.775   4.351   9.377 -0.0121  0.5626 -0.0427
   89MOL0     C11884   4.879   4.263   9.400 -0.3827 -0.1239  0.0986
   89MOL0     C11885   4.869   4.136   9.363 -0.1079  0.4965 -0.0257
   89MOL0     C11886   4.978   4.047   9.381  0.2271 -0.4631 -0.6723
   89MOL0     C11887   5.098   4.096   9.441  0.4550 -0.4849  1.2982
   89MOL0     O11888   5.214   4.018   9.466 -0.4260 -0.7063  0.1046
   89MOL0     C11889   5.196   3.872   9.468  0.5755 -0.2459  0.7143
   89MOL0     C11890   5.270   3.814   9.590 -0.2126 -1.0113 -0.9598
   89MOL0     C11891   5.311   3.668   9.573 -0.3004  0.3029  0.2380
   89MOL0     C11892   5.374   3.615   9.698 -0.0103 -0.0576 -0.3649
   89MOL0     C11893   5.443   3.483   9.678 -0.2242  1.1632  0.1273
   89MOL0     C11894   5.332   3.374   9.659 -0.4971  0.4008 -0.4044
   89MOL0     C11895   5.397   3.230   9.671 -0.7268  0.3188 -0.0454
   89MOL0     C11896   5.294   3.121   9.651 -0.3804  0.1069 -1.0475
   89MOL0     N11897   5.369   3.000   9.611  0.9787 -0.2444 -0.1454
   89MOL0     C11898   5.431   2.988   9.487  0.1386  0.0256  0.1102
   89MOL0     C11899   5.501   2.870   9.487  0.3275 -1.2593 -0.5403
   89MOL0     C11900   5.532   2.798   9.362 -1.0366  0.4210  0.5499
   89MOL0     C11901   5.680   2.749   9.363  0.3137  0.4493  0.6547
   89MOL0     C11902   5.778   2.853   9.288  0.5212  0.1386 -0.0875
   89MOL0     C11903   5.916   2.815   9.316 -0.1064  0.7591  0.2583
   89MOL0     O11904   6.017   2.886   9.242  0.2934 -0.2016 -0.0046
   89MOL0     C11905   6.034   2.857   9.104 -0.1178 -0.2637 -0.9926
   89MOL0     C11906   5.975   2.925   8.994  1.6717  1.3137  0.2835
   89MOL0     C11907   6.008   2.890   8.862 -0.2786  0.7442 -0.3885
   89MOL0     C11908   5.929   2.947   8.745  0.3644 -0.4276  0.2382
   89MOL0     C11909   6.107   2.791   8.840  0.0894 -0.1620  0.0706
   89MOL0     C11910   6.150   2.723   8.710  0.4990 -0.1778 -0.3416
   89MOL0     O11911   6.073   2.746   8.597  0.0980 -0.5136  0.0949
   89MOL0     C11912   6.079   2.667   8.489  0.0206 -0.4231  0.6547
   89MOL0     C11913   6.073   2.744   8.362  0.0311 -0.0444  1.3805
   89MOL0     C11914   6.072   2.669   8.239  0.6216  0.7882 -0.2241
   89MOL0     C11915   6.085   2.534   8.247  0.1637 -0.4503  0.7041
   89MOL0     O11916   6.077   2.470   8.124 -0.1878 -0.1160  0.2285
   89MOL0     C11917   6.154   2.518   8.014 -0.0906  0.1125  0.0875
   89MOL0     C11918   6.193   2.407   7.913  0.3546 -0.3281  0.6335
   89MOL0     C11919   6.089   2.383   7.806 -0.3722  0.1131 -0.1372
   89MOL0     C11920   6.136   2.266   7.715 -0.5537 -0.1812 -0.4787
   89MOL0     C11921   6.028   2.243   7.603 -1.0511  0.2511  0.6234
   89MOL0     C11922   6.049   2.117   7.508  0.1616  0.5731  0.1659
   89MOL0     C11923   6.177   2.134   7.421 -0.1037  0.7031  0.4872
   89MOL0     C11924   6.217   2.012   7.332  0.8706 -0.1176  0.6052
   89MOL0    Cl11925   6.116   1.992   7.182 -0.1559  0.4079 -0.0987
   89MOL0     C11926   6.103   2.467   8.373 -0.8131  0.6235  0.0024
   89MOL0     C11927   6.093   2.531   8.486  0.3600  0.4816 -0.5148
   89MOL0     O11928   6.248   2.648   8.713  0.7241  0.0212 -0.4231
   89MOL0     C11929   6.169   2.734   8.956 -0.4220 -0.0517 -0.3821
   89MOL0     C11930   6.130   2.757   9.084 -0.1658 -0.2297 -0.1101
   89MOL0     N11931   5.511   2.837   9.624  0.2133  0.0611  0.7665
   89MOL0     N11932   5.429   2.908   9.688  0.8079 -0.5540  0.0728
   89MOL0     C11933   5.102   4.231   9.468 -0.1293  0.1086  0.4796
   89MOL0     C11934   4.997   4.312   9.451  0.6848  0.3681  0.5676
   89MOL0     C11935   4.574   4.448   9.281  0.3521 -0.8643  1.1517
   89MOL0     C11936   4.519   4.474   9.407 -0.2500  0.3792  0.7598
   89MOL0     C11937   4.407   4.545   9.420  0.1053 -0.1417  0.0398
   89MOL0     C11938   4.343   4.599   9.310 -0.8075  0.8163  0.3791
   89MOL0     O11939   4.226   4.666   9.314  0.5217  0.0576  0.2022
   89MOL0     C11940   4.230   4.793   9.374 -0.7527 -0.5828  0.4962
   89MOL0     C11941   4.099   4.855   9.419 -0.7983 -0.6798 -0.9482
   89MOL0     C11942   4.042   4.771   9.537 -0.2171  0.2426  0.6069
   89MOL0     C11943   4.077   4.814   9.683  0.2887  0.6835  0.2581
   89MOL0     C11944   4.211   4.764   9.713 -0.0620 -1.4839 -0.0225
   89MOL0     C11945   4.326   4.723   9.737  0.5274  0.6010 -0.8971
   89MOL0     C11946   4.397   4.575   9.181 -0.3886 -0.3831 -0.6017
   89MOL0     C11947   4.515   4.506   9.162  0.5359  0.3782 -0.4120
   89MOL0     H11948   4.776   4.101   9.318 -0.3087  2.0914 -0.9278
   89MOL0     H11949   4.968   3.945   9.345  0.1507 -0.6499 -0.1190
   89MOL0     H11950   5.091   3.846   9.486  0.2106 -1.2461 -2.3039
   89MOL0     H11951   5.235   3.813   9.384  1.0024 -1.7050  1.8767
   89MOL0     H11952   5.359   3.879   9.589 -1.9096  1.5489 -4.1956
   89MOL0     H11953   5.209   3.821   9.681 -0.8119  2.6699 -1.4622
   89MOL0     H11954   5.228   3.607   9.537  0.6438 -1.3262  0.7281
   89MOL0     H11955   5.388   3.670   9.495 -0.4606  0.6146  0.0850
   89MOL0     H11956   5.444   3.692   9.730 -0.8499 -0.5080  2.9981
   89MOL0     H11957   5.292   3.613   9.771  0.2681  0.6112 -0.0326
   89MOL0     H11958   5.514   3.490   9.595 -0.3362 -0.6093 -0.1575
   89MOL0     H11959   5.487   3.462   9.777 -2.7222 -1.3534  0.8479
   89MOL0     H11960   5.247   3.389   9.726  0.2057 -0.6784  0.7621
   89MOL0     H11961   5.291   3.395   9.560 -1.8443  3.1546  0.6215
   89MOL0     H11962   5.481   3.213   9.602  0.6833 -1.6758  2.0186
   89MOL0     H11963   5.442   3.211   9.769 -1.1583  2.5316  0.6506
   89MOL0     H11964   5.225   3.150   9.572  1.4680  0.9910 -2.4265
   89MOL0     H11965   5.243   3.110   9.747  1.9840  1.7562  0.5048
   89MOL0     H11966   5.390   3.035   9.398 -2.8533 -0.3256  1.1580
   89MOL0     H11967   5.474   2.707   9.348 -3.5598  1.9370  0.5032
   89MOL0     H11968   5.504   2.855   9.273 -3.4150  1.1831  1.6859
   89MOL0     H11969   5.693   2.653   9.312  0.2415  0.7014  0.1486
   89MOL0     H11970   5.710   2.723   9.464  1.6250 -2.0004 -0.2867
   89MOL0     H11971   5.758   2.944   9.345 -3.5082  0.0643 -1.0852
   89MOL0     H11972   5.758   2.867   9.181 -0.6680 -3.8428 -0.5406
   89MOL0     H11973   5.929   2.712   9.280  4.1544  2.2836 -3.5886
   89MOL0     H11974   5.940   2.826   9.422  0.3485 -2.4832  0.5763
   89MOL0     H11975   5.903   3.002   9.019 -0.7627 -1.0932  1.1615
   89MOL0     H11976   5.983   3.009   8.674  0.2723 -1.2853 -0.6044
   89MOL0     H11977   5.874   2.869   8.691  0.4263 -0.1138 -0.2820
   89MOL0     H11978   5.872   3.026   8.794  3.0330  2.3286 -0.7839
   89MOL0     H11979   6.061   2.850   8.385  0.6045 -0.3004  3.0057
   89MOL0     H11980   6.078   2.722   8.145 -0.4417 -0.4069 -0.9927
   89MOL0     H11981   6.107   2.607   7.971 -1.6698 -2.2752 -3.6645
   89MOL0     H11982   6.254   2.543   8.051  0.5196 -0.5480 -1.0421
   89MOL0     H11983   6.295   2.431   7.883  1.2974 -2.0480  2.2493
   89MOL0     H11984   6.202   2.312   7.967 -0.1532 -0.5026  0.4203
   89MOL0     H11985   6.074   2.476   7.749  1.5495 -0.5175 -1.8135
   89MOL0     H11986   5.994   2.360   7.854 -0.2723  1.2024  0.6100
   89MOL0     H11987   6.230   2.293   7.666 -0.4128  0.0411 -0.0981
   89MOL0     H11988   6.155   2.181   7.782 -2.1126 -0.9763 -0.9935
   89MOL0     H11989   6.027   2.334   7.542  1.6340  0.2503  0.4642
   89MOL0     H11990   5.931   2.232   7.651 -1.1560  3.2485  1.2580
   89MOL0     H11991   6.041   2.022   7.561  0.1681 -0.8118 -2.1733
   89MOL0     H11992   5.963   2.120   7.440 -0.4427  1.9633  0.9303
   89MOL0     H11993   6.267   2.159   7.479  2.0647 -1.1497 -1.8624
   89MOL0     H11994   6.164   2.211   7.345 -3.4516 -2.2872 -2.2985
   89MOL0     H11995   6.199   1.920   7.388  1.3330 -1.5761 -1.5082
   89MOL0     H11996   6.323   2.027   7.308  0.8999  3.9369  2.4553
   89MOL0     H11997   6.111   2.360   8.387  1.0800  0.4670 -1.7011
   89MOL0     H11998   6.081   2.474   8.578 -1.0263  1.7752  0.1575
   89MOL0     H11999   6.251   2.664   8.947  2.1668  2.8107 -0.4511
   89MOL0     H12000   6.183   2.727   9.173  0.4233  1.4026  0.1298
   89MOL0     H12001   5.187   4.281   9.512 -0.6394  1.8770 -0.4272
   89MOL0     H12002   4.998   4.419   9.472 -0.4599  0.4862  0.1088
   89MOL0     H12003   4.562   4.429   9.496  2.4992  0.7909 -0.2645
   89MOL0     H12004   4.362   4.561   9.518  0.9978  1.0057  0.2776
   89MOL0     H12005   4.296   4.794   9.461 -0.2707 -1.1890  0.1466
   89MOL0     H12006   4.273   4.857   9.296 -2.1996 -0.9976 -0.6813
   89MOL0     H12007   4.038   4.865   9.329  3.7940  3.9171 -4.1363
   89MOL0     H12008   4.124   4.955   9.456 -2.8357  1.0639 -3.8611
   89MOL0     H12009   4.076   4.668   9.526 -2.3219 -0.2778 -1.7985
   89MOL0     H12010   3.935   4.773   9.516  0.4115 -0.0074 -3.2336
   89MOL0     H12011   4.016   4.767   9.761 -0.7996  3.1476  0.9939
   89MOL0     H12012   4.073   4.922   9.696  0.2261  0.8196 -0.8242
   89MOL0     H12013   4.428   4.690   9.745  0.1121 -1.1915 -2.2491
   89MOL0     H12014   4.348   4.621   9.095  1.4741 -1.8784 -2.5753
   89MOL0     H12015   4.565   4.497   9.065 -0.3616 -3.2256 -0.6907
   90MOL0     O12016   1.600   1.179   8.525 -0.1283 -0.9139 -0.0869
   90MOL0     C12017   1.670   1.271   8.476  0.0482  0.6486 -0.1466
   90MOL0     O12018   1.666   1.318   8.342 -1.3333 -0.1380  0.6135
   90MOL0     C12019   1.607   1.251   8.240  0.2969 -0.1393 -0.8220
   90MOL0     C12020   1.656   1.262   8.109  0.0114 -0.0383 -0.3800
   90MOL0     C12021   1.578   1.231   7.999 -0.4413  0.4241  0.1077
   90MOL0     C12022   1.451   1.177   8.019 -0.4131 -0.0177  0.4475
   90MOL0     O12023   1.381   1.160   7.905  0.1402 -0.3191 -0.1880
   90MOL0     C12024   1.233   1.173   7.910 -0.2144  1.3432 -0.1913
   90MOL0     C12025   1.183   1.156   7.770  0.9957 -0.0024 -0.9853
   90MOL0     C12026   1.218   1.025   7.709  0.5655  0.2808 -0.4350
   90MOL0     C12027   1.196   1.022   7.558  0.5655 -0.3248  0.4273
   90MOL0     C12028   1.211   0.873   7.510 -0.8569 -0.3109  0.0467
   90MOL0     C12029   1.079   0.816   7.477  0.0629  0.2153  0.2010
   90MOL0     C12030   1.067   0.670   7.509 -0.7879  0.4524  0.3860
   90MOL0     C12031   0.921   0.634   7.532  0.5503 -0.4031  0.0600
   90MOL0     N12032   0.909   0.485   7.529  1.3035  0.4712  0.8880
   90MOL0     C12033   0.866   0.400   7.632 -1.8010 -1.1289 -0.6795
   90MOL0     C12034   0.862   0.280   7.574 -0.0678  1.1609  0.2117
   90MOL0     C12035   0.845   0.150   7.652 -0.1303  0.3652 -0.1773
   90MOL0     C12036   0.964   0.107   7.732 -0.5203 -0.1569  0.1885
   90MOL0     C12037   0.927   0.048   7.873  0.2561 -0.4840 -0.4849
   90MOL0     C12038   0.822  -0.067   7.861 -0.5861 -0.6264  0.7018
   90MOL0     O12039   0.802  -0.110   7.992  0.6484  0.2758 -0.3271
   90MOL0     C12040   0.682  -0.170   8.016  0.6279 -0.3463 -0.4066
   90MOL0     C12041   0.658  -0.185   8.150  0.7786  0.5311 -0.4024
   90MOL0     C12042   0.536  -0.237   8.207 -0.1477 -0.0953  0.6635
   90MOL0     C12043   0.542  -0.262   8.355 -0.8044  0.2957 -0.9545
   90MOL0     C12044   0.434  -0.282   8.115  0.5125 -1.0006 -0.0977
   90MOL0     C12045   0.293  -0.328   8.150  0.8754 -0.2913  0.4213
   90MOL0     O12046   0.263  -0.316   8.273  0.1319  0.0027  0.5017
   90MOL0     C12047   0.141  -0.357   8.317  0.2633  1.0233  0.4606
   90MOL0     C12048   0.145  -0.464   8.405  0.3653  0.1071  0.0103
   90MOL0     C12049   0.035  -0.506   8.479  0.2793 -0.8672 -0.9433
   90MOL0     C12050  -0.092  -0.441   8.463  0.0476  0.0567  0.8106
   90MOL0     O12051  -0.196  -0.493   8.535 -0.0538  0.2779  0.2537
   90MOL0     C12052  -0.327  -0.424   8.510  0.6947  0.6268 -0.5398
   90MOL0     C12053  -0.416  -0.469   8.628 -0.0083 -0.0302 -0.2771
   90MOL0     C12054  -0.566  -0.426   8.619 -0.7701  0.2964  1.2608
   90MOL0     C12055  -0.636  -0.418   8.751  0.4603 -0.1454  0.7779
   90MOL0     C12056  -0.779  -0.365   8.734 -0.1296  0.9731  0.0270
   90MOL0     C12057  -0.844  -0.339   8.865  0.0658 -0.0103 -0.2627
   90MOL0     C12058  -0.846  -0.465   8.957 -0.1559  0.1844 -0.9155
   90MOL0     C12059  -0.973  -0.468   9.050 -0.3954  0.1402 -0.1304
   90MOL0    Cl12060  -0.936  -0.325   9.147 -0.1201 -0.2517 -0.2911
   90MOL0     C12061  -0.090  -0.335   8.375  0.2754 -0.7443  0.3473
   90MOL0     C12062   0.019  -0.289   8.304 -0.2164  0.3200  0.4847
   90MOL0     O12063   0.230  -0.382   8.060  0.3661 -0.2254 -0.2094
   90MOL0     C12064   0.460  -0.268   7.974  0.3704  0.4764  0.7879
   90MOL0     C12065   0.585  -0.205   7.930  0.2342  0.1752 -0.6826
   90MOL0     N12066   0.893   0.297   7.436  0.9402  1.4781 -0.6646
   90MOL0     N12067   0.930   0.413   7.423 -0.5507 -0.3354  0.1225
   90MOL0     C12068   1.408   1.147   8.149 -0.2112  0.4717 -0.1350
   90MOL0     C12069   1.480   1.183   8.252  0.1526 -0.1543 -0.7865
   90MOL0     C12070   1.764   1.327   8.578 -0.4301 -0.1142  0.8969
   90MOL0     C12071   1.836   1.437   8.527 -0.0655  0.1799  0.8425
   90MOL0     C12072   1.925   1.509   8.602  0.2605  0.6417 -0.6590
   90MOL0     C12073   1.949   1.477   8.741 -0.3441 -0.2408 -0.3405
   90MOL0     O12074   2.042   1.546   8.811 -0.1150 -0.2325  0.5256
   90MOL0     C12075   2.070   1.520   8.949 -0.2754 -0.0428  0.3863
   90MOL0     C12076   2.186   1.615   8.995  0.5563  1.1949 -0.0027
   90MOL0     C12077   2.317   1.607   8.906  0.3880 -0.6847 -0.5323
   90MOL0     C12078   2.414   1.723   8.936 -0.0260  0.1062  0.3849
   90MOL0     C12079   2.462   1.700   9.074  0.0055  0.4969 -0.3845
   90MOL0     C12080   2.506   1.666   9.187  0.4668  0.0441  0.1582
   90MOL0     C12081   1.873   1.367   8.793  0.0637 -0.6110 -0.3866
   90MOL0     C12082   1.785   1.292   8.713 -0.2834  0.0575 -0.3361
   90MOL0     H12083   1.752   1.309   8.089 -1.4472  2.5306 -1.8807
   90MOL0     H12084   1.623   1.241   7.900 -0.8638 -2.1731 -0.4129
   90MOL0     H12085   1.198   1.103   7.986  0.2480  1.8290  0.4797
   90MOL0     H12086   1.193   1.267   7.950  4.7114  1.5251  5.8669
   90MOL0     H12087   1.075   1.151   7.751  0.7791  1.8093 -0.4261
   90MOL0     H12088   1.224   1.237   7.708  0.8244  1.4308  0.6897
   90MOL0     H12089   1.326   1.014   7.722  1.5539  5.0908 -2.3711
   90MOL0     H12090   1.169   0.944   7.763 -0.2665  0.4661 -0.8903
   90MOL0     H12091   1.101   1.056   7.515  1.2418 -2.6325 -3.3209
   90MOL0     H12092   1.271   1.082   7.505 -0.6668 -0.8677 -2.0863
   90MOL0     H12093   1.270   0.859   7.419 -3.1636 -4.7368 -1.0010
   90MOL0     H12094   1.266   0.827   7.593 -0.0293  4.6366  2.6293
   90MOL0     H12095   1.000   0.869   7.531 -1.6700  1.5015 -3.2670
   90MOL0     H12096   1.068   0.839   7.370 -2.4074  2.7339  0.8820
   90MOL0     H12097   1.108   0.606   7.430 -3.9737  1.4656 -2.3310
   90MOL0     H12098   1.131   0.655   7.597 -1.0709  0.5168  0.6033
   90MOL0     H12099   0.846   0.676   7.465 -0.1902  0.7091  1.5156
   90MOL0     H12100   0.895   0.668   7.633 -2.0939  1.0273 -1.0262
   90MOL0     H12101   0.855   0.408   7.739 -1.3115 -1.2517 -0.6179
   90MOL0     H12102   0.758   0.149   7.718 -0.0705  0.4615 -0.0978
   90MOL0     H12103   0.825   0.069   7.581  3.0351  0.3123 -1.1513
   90MOL0     H12104   1.020   0.199   7.750 -3.4757  1.7478  0.1239
   90MOL0     H12105   1.038   0.042   7.682  1.0189  1.7396 -0.1243
   90MOL0     H12106   0.901   0.134   7.936  3.5229 -0.3378  0.8697
   90MOL0     H12107   1.020   0.003   7.910  0.7042  0.8652  0.1291
   90MOL0     H12108   0.860  -0.153   7.805 -0.5184  0.4212 -0.9339
   90MOL0     H12109   0.736  -0.034   7.802 -1.2752 -1.7629  1.0321
   90MOL0     H12110   0.746  -0.179   8.213  2.2276  1.9155 -2.4038
   90MOL0     H12111   0.451  -0.224   8.403 -0.2698  0.7284 -0.2607
   90MOL0     H12112   0.555  -0.366   8.387 -1.4027  0.3381 -0.5719
   90MOL0     H12113   0.629  -0.208   8.394  0.0166 -2.6792  1.7598
   90MOL0     H12114   0.236  -0.523   8.410 -0.5055 -1.2102  1.2390
   90MOL0     H12115   0.034  -0.600   8.532  0.1711 -0.5955 -0.4568
   90MOL0     H12116  -0.315  -0.315   8.504 -1.7416  0.9094 -1.2507
   90MOL0     H12117  -0.373  -0.445   8.414 -0.1135  1.2441 -0.3059
   90MOL0     H12118  -0.404  -0.578   8.623 -2.3108 -0.2985 -1.3479
   90MOL0     H12119  -0.362  -0.434   8.716  1.6894  0.8350 -1.6135
   90MOL0     H12120  -0.614  -0.507   8.563 -2.1646  0.6418  1.9104
   90MOL0     H12121  -0.575  -0.334   8.560  1.1422 -1.5300 -2.1726
   90MOL0     H12122  -0.633  -0.517   8.797 -0.0935 -0.3857  0.2999
   90MOL0     H12123  -0.587  -0.337   8.806 -0.4035 -0.6696  2.3822
   90MOL0     H12124  -0.829  -0.442   8.674  0.6615  0.6899 -0.2787
   90MOL0     H12125  -0.771  -0.273   8.676  1.9318  0.7871 -0.0329
   90MOL0     H12126  -0.786  -0.257   8.909  1.8684 -0.5401 -1.5812
   90MOL0     H12127  -0.937  -0.284   8.843  0.9351  2.2744  1.3062
   90MOL0     H12128  -0.753  -0.469   9.015 -0.4951 -3.4933 -0.3737
   90MOL0     H12129  -0.844  -0.556   8.896 -2.2941 -1.3014  1.0442
   90MOL0     H12130  -0.971  -0.556   9.115 -0.5418  2.0017  2.5822
   90MOL0     H12131  -1.060  -0.470   8.984 -0.4337 -0.2703 -0.0678
   90MOL0     H12132  -0.180  -0.278   8.351  0.5360  0.8079  2.7358
   90MOL0     H12133   0.016  -0.204   8.237  0.4644  1.3388  1.7009
   90MOL0     H12134   0.403  -0.312   7.893 -0.4226  1.4701  0.7870
   90MOL0     H12135   0.606  -0.202   7.823 -0.5353 -0.4845 -0.8645
   90MOL0     H12136   1.322   1.080   8.151  0.3124 -0.2942 -1.5623
   90MOL0     H12137   1.438   1.159   8.349  0.0411  2.6465 -0.0620
   90MOL0     H12138   1.832   1.468   8.422 -1.7142  2.4637  1.4921
   90MOL0     H12139   1.990   1.583   8.556 -1.4236  4.0873  2.0986
   90MOL0     H12140   1.980   1.531   9.011 -3.2705 -1.2065 -3.3215
   90MOL0     H12141   2.105   1.417   8.960 -1.5525 -0.5719 -0.2747
   90MOL0     H12142   2.218   1.584   9.095  0.1833  3.8379  1.0239
   90MOL0     H12143   2.152   1.719   8.993  1.3116  1.4338 -1.5963
   90MOL0     H12144   2.280   1.617   8.803  3.3090 -1.1972 -1.7355
   90MOL0     H12145   2.373   1.513   8.896  0.3436 -0.5566 -2.4804
   90MOL0     H12146   2.383   1.827   8.918  3.9923  1.0651 -2.2717
   90MOL0     H12147   2.502   1.710   8.874 -2.3659 -2.3470 -2.7339
   90MOL0     H12148   2.552   1.635   9.279  2.9541  3.3768  0.2268
   90MOL0     H12149   1.888   1.336   8.896  1.5050 -3.0301 -1.2263
   90MOL0     H12150   1.724   1.210   8.749  1.2503 -0.4997  1.1482
   91MOL0     O12151   7.890   4.884   1.589  0.1405 -0.5213  0.2411
   91MOL0     C12152   7.997   4.932   1.624 -0.2827  0.5035 -1.2280
   91MOL0     O12153   8.032   4.997   1.744  0.6176 -0.3060 -0.9282
   91MOL0     C12154   7.931   4.992   1.842 -0.4798  0.0716 -0.2607
   91MOL0     C12155   7.817   5.063   1.851 -0.1456 -0.2242 -0.7373
   91MOL0     C12156   7.730   5.052   1.959  0.4891 -0.1004  0.5313
   91MOL0     C12157   7.747   4.960   2.056 -0.3135 -0.2237 -0.7576
   91MOL0     O12158   7.658   4.963   2.149 -0.1260  0.0848 -0.2339
   91MOL0     C12159   7.685   5.045   2.265 -0.5949  0.5331  0.8836
   91MOL0     C12160   7.551   5.067   2.337 -0.3027  1.4605 -0.5025
   91MOL0     C12161   7.513   4.939   2.421  0.1009 -0.2473 -0.7542
   91MOL0     C12162   7.376   4.957   2.487 -0.5218  0.4085 -0.1319
   91MOL0     C12163   7.380   5.036   2.623 -0.2000 -0.2844  0.8873
   91MOL0     C12164   7.238   5.058   2.686  1.0525 -0.3347  1.0381
   91MOL0     C12165   7.243   5.152   2.807 -0.1344 -0.0599 -0.7563
   91MOL0     C12166   7.120   5.250   2.794 -0.0831  0.2490  0.7376
   91MOL0     N12167   6.993   5.179   2.825 -0.3407 -0.5461 -0.6729
   91MOL0     C12168   6.888   5.162   2.743 -0.0677 -0.5057  0.2761
   91MOL0     C12169   6.803   5.077   2.813 -0.5277 -1.0074  0.3668
   91MOL0     C12170   6.679   5.011   2.759 -0.1421  0.5262 -0.0935
   91MOL0     C12171   6.559   5.095   2.784 -0.2937  0.3916  0.3241
   91MOL0     C12172   6.442   5.049   2.694  0.1949  0.2925  0.2541
   91MOL0     C12173   6.310   5.113   2.741  0.1546 -0.2078  0.1293
   91MOL0     O12174   6.281   5.223   2.658  0.6189  0.0046  0.2184
   91MOL0     C12175   6.336   5.342   2.687  0.6297  0.5407 -0.0129
   91MOL0     C12176   6.411   5.403   2.580  0.5564  0.2084 -0.1924
   91MOL0     C12177   6.471   5.525   2.592 -0.1441 -0.5715 -0.2928
   91MOL0     C12178   6.551   5.574   2.474 -0.2672 -0.3245 -0.2314
   91MOL0     C12179   6.474   5.585   2.720  0.7586 -0.1670  0.0367
   91MOL0     C12180   6.547   5.708   2.751 -0.9199  0.4869  0.1616
   91MOL0     O12181   6.521   5.775   2.863 -0.0466  0.0147  0.5361
   91MOL0     C12182   6.604   5.878   2.898  0.5832 -0.3936 -0.2898
   91MOL0     C12183   6.641   5.988   2.827  0.3931 -0.1582  0.1249
   91MOL0     C12184   6.722   6.092   2.869  0.6479 -0.0410  0.9025
   91MOL0     C12185   6.759   6.094   3.008  0.7985 -0.1315 -0.5759
   91MOL0     O12186   6.821   6.191   3.076  0.2599  0.1212  0.2919
   91MOL0     C12187   6.840   6.314   3.008 -0.7703  0.3989 -0.1657
   91MOL0     C12188   6.868   6.420   3.122 -0.1114 -0.6157 -0.0672
   91MOL0     C12189   6.961   6.522   3.068 -0.0605  0.1755 -0.0512
   91MOL0     C12190   6.942   6.654   3.143  0.6993 -0.2401 -0.3846
   91MOL0     C12191   7.029   6.767   3.093 -0.3441 -0.1895  0.7377
   91MOL0     C12192   7.011   6.893   3.178 -0.3152  1.6296 -0.0173
   91MOL0     C12193   7.140   6.979   3.175 -0.5679  0.2606 -0.9017
   91MOL0     C12194   7.139   7.100   3.088  0.0781 -0.4181 -0.0112
   91MOL0    Cl12195   7.287   7.209   3.093 -0.6305  0.3103  0.2099
   91MOL0     C12196   6.715   5.987   3.089 -0.4089 -0.9101 -0.2979
   91MOL0     C12197   6.638   5.878   3.034 -0.4403 -0.4339  0.5361
   91MOL0     O12198   6.637   5.735   2.676  0.3459 -0.5300 -0.9875
   91MOL0     C12199   6.404   5.523   2.833 -0.3825  0.1741  0.5000
   91MOL0     C12200   6.328   5.406   2.811 -0.3660  0.6142 -0.3529
   91MOL0     N12201   6.865   5.052   2.934  0.3583  0.3752 -0.1562
   91MOL0     N12202   6.976   5.121   2.946 -0.3704  0.1482 -0.5376
   91MOL0     C12203   7.860   4.877   2.055 -1.6799 -0.1972  0.7338
   91MOL0     C12204   7.949   4.900   1.947  0.4981  0.1300 -0.0153
   91MOL0     C12205   8.120   4.899   1.554 -0.4490  0.3219 -0.9726
   91MOL0     C12206   8.216   5.006   1.539  0.4891  0.6566 -0.1349
   91MOL0     C12207   8.342   4.986   1.483  0.3270 -0.9375  0.0498
   91MOL0     C12208   8.378   4.860   1.434 -0.4666  0.3530 -0.8291
   91MOL0     O12209   8.502   4.862   1.378  0.0195 -0.2514  0.3327
   91MOL0     C12210   8.538   4.750   1.297  1.0719 -0.0606  0.0626
   91MOL0     C12211   8.659   4.788   1.223 -0.0830 -0.1833  1.0060
   91MOL0     C12212   8.727   4.651   1.178 -0.7027 -0.3484 -0.2511
   91MOL0     C12213   8.873   4.673   1.137 -0.1446  0.4320  0.4312
   91MOL0     C12214   8.895   4.761   1.027  0.1701 -0.4642  0.4727
   91MOL0     C12215   8.900   4.844   0.935 -0.6215  0.2353  0.2413
   91MOL0     C12216   8.293   4.755   1.445 -0.0095 -0.6622 -0.0619
   91MOL0     C12217   8.162   4.774   1.502 -0.0780 -0.2546 -0.1463
   91MOL0     H12218   7.793   5.138   1.776  1.6265  0.6151 -0.5021
   91MOL0     H12219   7.644   5.118   1.950  0.1188 -0.6951 -0.4143
   91MOL0     H12220   7.759   4.989   2.324  2.1004  0.8771 -1.8598
   91MOL0     H12221   7.731   5.135   2.222  0.5747 -1.4863 -2.5078
   91MOL0     H12222   7.558   5.151   2.407  0.8701  0.8448  0.1385
   91MOL0     H12223   7.482   5.087   2.254  2.2625  1.0707 -2.8698
   91MOL0     H12224   7.531   4.849   2.361  0.8544  0.9353 -2.3920
   91MOL0     H12225   7.593   4.928   2.494 -0.3483  0.2565 -0.1740
   91MOL0     H12226   7.307   5.005   2.417 -0.3598  0.9214  0.0633
   91MOL0     H12227   7.341   4.858   2.519  1.7430 -0.6139 -0.6104
   91MOL0     H12228   7.436   4.990   2.705  1.8066 -0.7940 -0.6856
   91MOL0     H12229   7.419   5.133   2.591  0.5302  0.9584  4.9919
   91MOL0     H12230   7.172   5.103   2.611 -0.7847 -0.1729  2.6820
   91MOL0     H12231   7.196   4.959   2.705 -1.7410  0.3939 -0.7853
   91MOL0     H12232   7.255   5.094   2.900 -1.1325 -0.7096 -1.0140
   91MOL0     H12233   7.331   5.215   2.797 -1.1565  1.8136  1.2967
   91MOL0     H12234   7.121   5.286   2.691  3.5062 -0.1271  0.5373
   91MOL0     H12235   7.119   5.339   2.859 -1.3802  0.1715  0.8487
   91MOL0     H12236   6.872   5.194   2.641 -1.0369 -0.2243  0.5045
   91MOL0     H12237   6.683   4.994   2.651  2.8226 -0.9288  0.1347
   91MOL0     H12238   6.662   4.916   2.812  1.2931  0.8730  1.0585
   91MOL0     H12239   6.578   5.201   2.765  1.1864  0.1051  0.0422
   91MOL0     H12240   6.513   5.070   2.881 -2.4896  1.7520 -0.2940
   91MOL0     H12241   6.428   4.941   2.704 -1.1908 -0.1191 -4.0601
   91MOL0     H12242   6.455   5.058   2.585  2.6103 -2.5023  0.1572
   91MOL0     H12243   6.324   5.146   2.844 -1.8880  2.9342 -0.4584
   91MOL0     H12244   6.228   5.040   2.741  0.4080 -0.5300  1.4734
   91MOL0     H12245   6.413   5.347   2.487 -0.8299 -2.2166  1.1340
   91MOL0     H12246   6.535   5.678   2.445 -2.1490 -0.6562 -0.5022
   91MOL0     H12247   6.658   5.572   2.499  0.1729  0.4370 -1.9054
   91MOL0     H12248   6.515   5.513   2.390  1.6058 -2.7031  0.5681
   91MOL0     H12249   6.598   5.993   2.727  0.4030  1.8347  0.1787
   91MOL0     H12250   6.755   6.164   2.794 -2.4598  0.1822 -0.4100
   91MOL0     H12251   6.921   6.307   2.935 -2.8508 -0.2196 -2.5571
   91MOL0     H12252   6.749   6.345   2.956 -0.5376 -1.1059 -1.5406
   91MOL0     H12253   6.777   6.465   3.162  0.7099  1.1750 -0.1289
   91MOL0     H12254   6.918   6.361   3.198 -0.1047 -0.5830 -0.0463
   91MOL0     H12255   6.956   6.541   2.960  1.2215  1.5005  0.0893
   91MOL0     H12256   7.064   6.485   3.077 -0.5379 -1.2754 -0.3257
   91MOL0     H12257   6.839   6.684   3.119  0.3806 -0.7277  0.3500
   91MOL0     H12258   6.934   6.636   3.250  1.0610  2.0128  0.0614
   91MOL0     H12259   6.998   6.796   2.992 -3.1374 -1.1005  1.2398
   91MOL0     H12260   7.135   6.742   3.086 -0.1269  0.6233  1.0134
   91MOL0     H12261   6.942   6.959   3.126 -1.8439  3.4310  3.8817
   91MOL0     H12262   6.962   6.887   3.276  1.4248  1.0293  0.8639
   91MOL0     H12263   7.229   6.921   3.148  1.4763  1.1071  3.1423
   91MOL0     H12264   7.149   7.012   3.279  0.1628  0.8377 -1.1373
   91MOL0     H12265   7.059   7.162   3.129 -0.7872 -0.4555 -1.5926
   91MOL0     H12266   7.137   7.066   2.984  1.2723 -3.5171  0.8656
   91MOL0     H12267   6.735   5.978   3.195 -2.6093  1.7318  0.4397
   91MOL0     H12268   6.592   5.808   3.102 -1.8032 -0.8858 -0.7916
   91MOL0     H12269   6.421   5.551   2.937 -1.6721  0.9166  0.5389
   91MOL0     H12270   6.274   5.353   2.888  3.8271  0.2162  2.7007
   91MOL0     H12271   7.893   4.808   2.132 -1.1735  0.1248  0.8084
   91MOL0     H12272   8.043   4.846   1.937 -0.0579 -0.4919 -5.8610
   91MOL0     H12273   8.180   5.103   1.572 -0.7730 -0.1737  1.0400
   91MOL0     H12274   8.417   5.065   1.473  1.1602 -1.8827 -1.8115
   91MOL0     H12275   8.556   4.656   1.349  1.8513 -1.1671 -2.0909
   91MOL0     H12276   8.464   4.736   1.218  0.3933  0.0631  0.6694
   91MOL0     H12277   8.720   4.852   1.288  1.7260 -1.1604  0.3390
   91MOL0     H12278   8.623   4.854   1.144 -1.6331 -0.5569  1.3677
   91MOL0     H12279   8.679   4.593   1.099 -0.9645 -0.2274 -0.1815
   91MOL0     H12280   8.728   4.583   1.264 -2.0431 -0.2389 -0.1343
   91MOL0     H12281   8.906   4.573   1.106  0.9694 -0.0487  2.9050
   91MOL0     H12282   8.947   4.701   1.212 -0.0585  2.6736 -0.4290
   91MOL0     H12283   8.901   4.911   0.852 -1.3412  1.2152  0.9955
   91MOL0     H12284   8.317   4.665   1.390 -0.6604 -1.6277  1.1684
   91MOL0     H12285   8.106   4.681   1.501  2.5505 -1.9895  0.7482
   92MOL0     O12286  11.019   3.894   7.673 -0.3542 -0.3954 -0.6701
   92MOL0     C12287  10.996   3.779   7.706  0.5134 -0.1142 -0.2618
   92MOL0     O12288  10.985   3.670   7.625 -0.7182  0.1734 -0.2584
   92MOL0     C12289  11.015   3.691   7.495 -0.1044  1.0728 -0.1047
   92MOL0     C12290  11.143   3.665   7.447 -0.1792  0.1410  0.0398
   92MOL0     C12291  11.161   3.673   7.308 -0.0420  0.0931 -0.2268
   92MOL0     C12292  11.050   3.706   7.227 -0.5912  0.6779  0.7599
   92MOL0     O12293  11.052   3.705   7.093  0.0644  0.0595 -0.1884
   92MOL0     C12294  11.160   3.796   7.049  0.2906 -0.6803  0.2303
   92MOL0     C12295  11.154   3.815   6.901 -0.0851  0.0794 -0.2610
   92MOL0     C12296  11.170   3.679   6.824 -0.1107 -0.4294  0.6364
   92MOL0     C12297  11.174   3.711   6.674 -0.3997  0.0999 -0.6900
   92MOL0     C12298  11.288   3.648   6.606 -0.4972  0.8671 -0.3304
   92MOL0     C12299  11.309   3.713   6.477 -0.0383  0.0331  0.1886
   92MOL0     C12300  11.402   3.626   6.388  0.2909 -0.6653  0.6162
   92MOL0     C12301  11.420   3.688   6.248 -0.4518 -1.0382  0.7661
   92MOL0     N12302  11.501   3.614   6.150  0.1475 -0.5198  0.1249
   92MOL0     C12303  11.482   3.487   6.097  0.2659  0.1197  0.4903
   92MOL0     C12304  11.576   3.485   6.003 -0.7207  0.6577  0.6283
   92MOL0     C12305  11.607   3.374   5.909  0.1466  0.3144  0.1262
   92MOL0     C12306  11.645   3.240   5.967  0.1210  0.6694  1.1535
   92MOL0     C12307  11.753   3.235   6.087 -0.1255 -0.1696  0.0138
   92MOL0     C12308  11.716   3.284   6.226 -0.2479  0.3298 -0.2100
   92MOL0     O12309  11.618   3.196   6.271  0.0232  0.4498 -0.3314
   92MOL0     C12310  11.572   3.203   6.401  0.8412  1.1684  0.4964
   92MOL0     C12311  11.634   3.276   6.502 -0.4977  0.1439 -0.7077
   92MOL0     C12312  11.574   3.293   6.628 -0.8825 -0.6738 -0.2014
   92MOL0     C12313  11.654   3.374   6.726 -0.5110  0.7951  0.0229
   92MOL0     C12314  11.451   3.228   6.660 -1.0116 -0.3940 -0.7588
   92MOL0     C12315  11.401   3.215   6.806 -0.5015  0.5701  0.4759
   92MOL0     O12316  11.475   3.266   6.903 -1.0964  0.1655  0.3795
   92MOL0     C12317  11.442   3.248   7.039 -0.0809  0.9215 -0.0609
   92MOL0     C12318  11.443   3.351   7.125  0.8085 -0.4498 -0.2522
   92MOL0     C12319  11.398   3.345   7.260 -0.3800 -0.2616 -0.3470
   92MOL0     C12320  11.341   3.228   7.306 -0.6923  1.1856  0.1206
   92MOL0     O12321  11.255   3.224   7.418  0.9650 -0.0318 -0.3854
   92MOL0     C12322  11.194   3.339   7.471  0.2157 -1.1962 -0.5259
   92MOL0     C12323  11.079   3.301   7.573 -0.2737  0.0323  0.2686
   92MOL0     C12324  11.144   3.236   7.697 -0.0047  0.3011  0.2841
   92MOL0     C12325  11.047   3.140   7.777  0.0681  0.5115  0.2474
   92MOL0     C12326  11.130   3.077   7.888  0.3301 -0.1777 -0.9355
   92MOL0     C12327  11.047   2.978   7.972 -0.3048  0.7090 -0.0253
   92MOL0     C12328  10.993   2.855   7.888 -0.1572 -0.5077  1.0797
   92MOL0     C12329  10.907   2.754   7.967 -0.4354 -0.7293  0.2988
   92MOL0    Cl12330  10.999   2.655   8.073 -0.0374 -0.1072  0.1536
   92MOL0     C12331  11.344   3.112   7.224  0.3354 -0.3056 -0.5131
   92MOL0     C12332  11.395   3.120   7.085 -0.0344  0.6921  0.0355
   92MOL0     O12333  11.290   3.171   6.822  0.2916 -0.0106 -0.3470
   92MOL0     C12334  11.392   3.152   6.564 -0.1328  0.4318 -0.0212
   92MOL0     C12335  11.448   3.147   6.432 -1.1056 -0.1651 -0.5525
   92MOL0     N12336  11.636   3.612   5.987 -0.6231  0.3908 -0.0932
   92MOL0     N12337  11.583   3.689   6.075  0.3133 -0.1029  0.0816
   92MOL0     C12338  10.924   3.722   7.275 -0.8262  0.0865  0.1527
   92MOL0     C12339  10.901   3.714   7.412 -0.9720 -0.4064  0.1404
   92MOL0     C12340  10.972   3.759   7.852 -0.5926 -0.8723  1.1140
   92MOL0     C12341  10.992   3.632   7.906 -0.3169 -0.1998  0.5346
   92MOL0     C12342  10.983   3.612   8.044 -0.4354  0.0152 -1.1303
   92MOL0     C12343  10.955   3.720   8.128 -0.1797  0.7973  0.1076
   92MOL0     O12344  10.970   3.697   8.264  0.0848  0.1174 -0.0667
   92MOL0     C12345  10.886   3.780   8.345  0.0848  0.2453  0.6229
   92MOL0     C12346  10.820   3.712   8.454  0.3350  0.8505 -1.0073
   92MOL0     C12347  10.704   3.620   8.413  0.2982  0.7958 -1.0342
   92MOL0     C12348  10.746   3.469   8.408  0.3577 -0.3966  0.7139
   92MOL0     C12349  10.646   3.373   8.379  0.5706 -0.7741  0.2358
   92MOL0     C12350  10.558   3.308   8.344  0.2394  0.6350  0.5970
   92MOL0     C12351  10.938   3.843   8.068  0.2308  0.4654 -0.0871
   92MOL0     C12352  10.938   3.865   7.928 -0.0560 -0.2132 -0.6073
   92MOL0     H12353  11.224   3.662   7.520 -0.5075  1.4064  0.4810
   92MOL0     H12354  11.261   3.670   7.266  0.3013 -2.1084  0.6047
   92MOL0     H12355  11.163   3.893   7.100 -2.4123 -1.5171  2.2232
   92MOL0     H12356  11.262   3.759   7.063  0.3497 -0.4364  0.4723
   92MOL0     H12357  11.059   3.861   6.872  1.6111  1.5793 -4.1579
   92MOL0     H12358  11.238   3.881   6.876  0.7828 -0.4029  1.2537
   92MOL0     H12359  11.261   3.632   6.862  0.1964 -2.0369 -1.8785
   92MOL0     H12360  11.086   3.613   6.848  2.0960 -3.0823  1.6705
   92MOL0     H12361  11.074   3.690   6.635 -0.2121  1.7831 -2.1851
   92MOL0     H12362  11.186   3.819   6.671  0.9081  0.2677  3.5507
   92MOL0     H12363  11.381   3.644   6.664  0.0418 -1.9927 -1.1810
   92MOL0     H12364  11.259   3.544   6.585  1.6365  0.2910 -0.7479
   92MOL0     H12365  11.216   3.715   6.421  0.0880 -0.4379 -0.0353
   92MOL0     H12366  11.351   3.813   6.493  1.3966 -1.0162  4.6527
   92MOL0     H12367  11.486   3.619   6.458 -1.6201  0.7929  3.2446
   92MOL0     H12368  11.350   3.531   6.377 -2.3626  0.7613  0.0836
   92MOL0     H12369  11.459   3.790   6.248 -0.0511 -1.1630 -0.5693
   92MOL0     H12370  11.324   3.701   6.196  0.2764  4.9520  0.1859
   92MOL0     H12371  11.418   3.407   6.132  0.2454 -0.7911 -1.5232
   92MOL0     H12372  11.541   3.368   5.822  1.3991  2.8696 -1.0815
   92MOL0     H12373  11.698   3.412   5.861  0.2470 -0.2307 -0.1278
   92MOL0     H12374  11.684   3.180   5.884  0.2317 -1.3709  2.5892
   92MOL0     H12375  11.558   3.180   5.994  0.2655  0.0457  0.2868
   92MOL0     H12376  11.829   3.306   6.054 -2.0180  3.4695  2.7306
   92MOL0     H12377  11.798   3.135   6.084  3.3007  1.2866 -1.5844
   92MOL0     H12378  11.692   3.390   6.236  0.8466  0.7388 -1.7170
   92MOL0     H12379  11.813   3.277   6.276  0.0719 -1.9537 -1.0566
   92MOL0     H12380  11.734   3.310   6.475 -0.0893 -2.2428 -2.5523
   92MOL0     H12381  11.714   3.304   6.785 -1.9588  1.0439  1.8848
   92MOL0     H12382  11.721   3.446   6.679  0.0762  0.6362  0.6083
   92MOL0     H12383  11.589   3.443   6.781 -3.6126 -0.8201 -1.3326
   92MOL0     H12384  11.481   3.450   7.103  1.8354 -0.2830  1.9948
   92MOL0     H12385  11.398   3.436   7.320 -1.4876 -0.6414  0.2410
   92MOL0     H12386  11.280   3.389   7.516 -1.0078  0.7537 -0.2555
   92MOL0     H12387  11.150   3.410   7.401 -0.2660  1.1758  1.9965
   92MOL0     H12388  11.048   3.396   7.618  0.2786  1.1589 -1.6219
   92MOL0     H12389  11.005   3.242   7.518  0.4526  0.4076 -1.1612
   92MOL0     H12390  11.158   3.323   7.762 -0.6899  0.4754  0.2092
   92MOL0     H12391  11.242   3.193   7.677 -0.0747 -1.6497  3.4996
   92MOL0     H12392  10.956   3.188   7.813 -2.9093 -2.0105 -3.1292
   92MOL0     H12393  11.019   3.062   7.705  2.0854 -0.4510  0.4298
   92MOL0     H12394  11.155   3.156   7.960  2.0871 -1.5434  0.0390
   92MOL0     H12395  11.226   3.029   7.869  1.7297  0.4849  3.3180
   92MOL0     H12396  11.104   2.933   8.053  1.8829 -2.4662 -3.0871
   92MOL0     H12397  10.960   3.033   8.011  0.2630  2.6290 -1.2932
   92MOL0     H12398  11.075   2.806   7.835  0.4246  2.3319 -0.9409
   92MOL0     H12399  10.934   2.897   7.806  1.7216  0.6539  0.2323
   92MOL0     H12400  10.847   2.686   7.906 -2.7090  0.6196  0.9181
   92MOL0     H12401  10.844   2.814   8.033  3.0320  2.4839  1.0437
   92MOL0     H12402  11.301   3.026   7.274  1.1784 -0.9653 -0.8863
   92MOL0     H12403  11.378   3.040   7.014 -0.6657  0.2915  0.6250
   92MOL0     H12404  11.308   3.085   6.576 -0.5380  0.4861 -2.1366
   92MOL0     H12405  11.397   3.094   6.352  0.8575 -2.4035 -0.4389
   92MOL0     H12406  10.839   3.743   7.210  1.3072  1.7696 -2.2726
   92MOL0     H12407  10.799   3.708   7.450 -1.3221 -0.4793 -0.7853
   92MOL0     H12408  11.022   3.544   7.850  1.1227  0.5523  0.0681
   92MOL0     H12409  11.008   3.519   8.093 -2.8041 -1.0658 -1.8304
   92MOL0     H12410  10.947   3.868   8.368 -0.3309  1.3479 -2.1085
   92MOL0     H12411  10.809   3.827   8.283  0.6534  0.1882 -0.1494
   92MOL0     H12412  10.773   3.788   8.517  1.7969 -0.7979  2.3567
   92MOL0     H12413  10.891   3.661   8.521  0.4506 -1.4674 -2.7627
   92MOL0     H12414  10.654   3.663   8.326 -3.7776 -1.5348 -0.1319
   92MOL0     H12415  10.629   3.623   8.493  0.7614  2.4826 -0.6331
   92MOL0     H12416  10.797   3.444   8.501 -0.4177 -1.5263  0.8546
   92MOL0     H12417  10.828   3.460   8.336 -0.2159  2.0355 -0.3609
   92MOL0     H12418  10.475   3.263   8.292 -0.1354 -0.1574  1.8413
   92MOL0     H12419  10.929   3.930   8.133 -0.7595 -0.8331  1.5871
   92MOL0     H12420  10.919   3.961   7.881  0.8154 -1.3252 -3.4748
   93MOL0     O12421   9.408   7.834  10.092 -0.8341 -0.1199 -1.0187
   93MOL0     C12422   9.508   7.810  10.165  0.0150  0.2714 -0.3016
   93MOL0     O12423   9.580   7.691  10.174  0.1866  0.6848 -0.3127
   93MOL0     C12424   9.501   7.575  10.144 -0.5865  0.5667  0.9638
   93MOL0     C12425   9.364   7.562  10.166 -0.7579  0.3931  0.5918
   93MOL0     C12426   9.305   7.435  10.134  0.0878  0.2880 -0.0967
   93MOL0     C12427   9.369   7.320  10.098  0.4219  0.7094 -0.3913
   93MOL0     O12428   9.318   7.201  10.050 -1.0975 -0.3607  0.3576
   93MOL0     C12429   9.201   7.142  10.098 -0.3823  1.0039  0.3839
   93MOL0     C12430   9.200   7.117  10.246 -0.4096 -0.0654 -0.2101
   93MOL0     C12431   9.270   6.984  10.289  0.1881  0.6087  0.1200
   93MOL0     C12432   9.286   6.987  10.443 -0.3348  0.3683 -0.6233
   93MOL0     C12433   9.411   6.893  10.485 -0.0478 -0.6193 -0.3147
   93MOL0     C12434   9.403   6.747  10.452  0.8887 -0.1688 -0.2822
   93MOL0     C12435   9.537   6.671  10.486  0.2250 -0.2621  0.2765
   93MOL0     C12436   9.538   6.520  10.432 -0.1011 -0.2280  0.4009
   93MOL0     N12437   9.646   6.439  10.499 -0.7469  0.4941 -0.2802
   93MOL0     C12438   9.631   6.393  10.627  0.8687 -0.2897  0.6125
   93MOL0     C12439   9.752   6.350  10.666  1.0596  0.0604  0.1820
   93MOL0     C12440   9.759   6.271  10.802 -0.4648 -0.0223 -0.6162
   93MOL0     C12441   9.817   6.345  10.923 -0.8793 -1.0900  0.8219
   93MOL0     C12442   9.719   6.432  10.999  1.2603  0.5548  0.1598
   93MOL0     C12443   9.779   6.503  11.127 -0.0587 -0.7851  0.5201
   93MOL0     O12444   9.670   6.582  11.164  0.3347  0.4290 -0.6387
   93MOL0     C12445   9.673   6.651  11.280 -0.7455  0.9284  0.4902
   93MOL0     C12446   9.791   6.708  11.342  0.8657 -0.2231  0.9425
   93MOL0     C12447   9.793   6.765  11.468 -0.6414  0.0890  0.2935
   93MOL0     C12448   9.918   6.827  11.522  0.2630 -0.0098  0.2538
   93MOL0     C12449   9.672   6.769  11.540 -0.3735  0.1954  0.2370
   93MOL0     C12450   9.649   6.828  11.675 -0.7420  0.2017  1.0491
   93MOL0     O12451   9.542   6.797  11.742  0.8283 -0.0531  0.6204
   93MOL0     C12452   9.499   6.901  11.828  0.0799 -0.7171  0.0733
   93MOL0     C12453   9.571   6.955  11.932  0.0180 -0.5309  0.2146
   93MOL0     C12454   9.519   7.052  12.018  0.1697 -1.0540  0.2129
   93MOL0     C12455   9.396   7.108  11.997  0.2877 -0.1970 -0.9871
   93MOL0     O12456   9.363   7.195  12.094  1.5130 -0.0669  0.3214
   93MOL0     C12457   9.230   7.234  12.130 -0.3088 -0.0056 -1.1518
   93MOL0     C12458   9.252   7.348  12.236  0.0780  0.1876 -0.1046
   93MOL0     C12459   9.119   7.378  12.302 -0.3643 -1.3336 -0.2621
   93MOL0     C12460   9.125   7.490  12.404 -0.0229 -0.2836  0.7968
   93MOL0     C12461   8.983   7.524  12.457  0.5903  0.3090 -1.1924
   93MOL0     C12462   8.963   7.669  12.513  0.7326  0.2599 -0.4803
   93MOL0     C12463   8.928   7.763  12.404  0.1191 -0.3922  0.2810
   93MOL0     C12464   8.884   7.904  12.447 -0.0829 -0.7465 -0.6396
   93MOL0    Cl12465   8.768   7.908  12.581  0.0316  0.6693  0.0136
   93MOL0     C12466   9.316   7.052  11.890  0.4475 -0.2285 -0.9091
   93MOL0     C12467   9.373   6.954  11.809  0.8304 -0.0060 -0.2258
   93MOL0     O12468   9.733   6.905  11.712  0.0203  0.1361  0.2956
   93MOL0     C12469   9.557   6.707  11.487 -0.8542 -0.1360  0.4828
   93MOL0     C12470   9.556   6.652  11.358  0.2095  0.4014 -0.3687
   93MOL0     N12471   9.843   6.360  10.553  0.3874  0.6779  0.4333
   93MOL0     N12472   9.780   6.420  10.463  0.6785  0.3775 -0.3315
   93MOL0     C12473   9.508   7.335  10.083  0.2966 -0.0963  0.1124
   93MOL0     C12474   9.574   7.456  10.110 -0.3257  0.4802  0.6317
   93MOL0     C12475   9.544   7.923  10.245  0.2760 -0.0728 -1.2018
   93MOL0     C12476   9.525   8.050  10.193  0.2195 -0.4846 -0.2416
   93MOL0     C12477   9.563   8.157  10.266 -0.4536  0.2889 -0.2470
   93MOL0     C12478   9.651   8.141  10.373 -0.2119  0.3408  0.0185
   93MOL0     O12479   9.702   8.243  10.457 -0.0075 -0.0499  0.3222
   93MOL0     C12480   9.698   8.377  10.406 -0.4609  0.4577 -0.3435
   93MOL0     C12481   9.582   8.453  10.475 -0.4834 -0.1272 -0.5554
   93MOL0     C12482   9.607   8.491  10.624 -0.4134 -0.3365  0.3733
   93MOL0     C12483   9.494   8.575  10.689  0.3692 -0.1210 -0.4208
   93MOL0     C12484   9.480   8.696  10.612  0.4152  0.7018 -0.3174
   93MOL0     C12485   9.473   8.791  10.548 -0.5513  0.2872 -0.1193
   93MOL0     C12486   9.680   8.017  10.426  0.6586 -0.4891  0.0240
   93MOL0     C12487   9.629   7.911  10.357  0.2179 -0.7240 -0.6629
   93MOL0     H12488   9.312   7.649  10.205 -1.5276 -1.0542  3.0204
   93MOL0     H12489   9.197   7.443  10.139  0.1280  0.0226  3.0200
   93MOL0     H12490   9.119   7.209  10.071 -0.2629  1.6910  1.6531
   93MOL0     H12491   9.182   7.042  10.058 -3.2225 -0.0629  3.8913
   93MOL0     H12492   9.246   7.203  10.296 -1.3424  0.2752  0.0771
   93MOL0     H12493   9.098   7.114  10.285 -0.0576 -1.0801  0.6822
   93MOL0     H12494   9.207   6.897  10.268  0.2270 -0.0331  2.4607
   93MOL0     H12495   9.363   6.970  10.234 -0.4722 -2.7250 -0.3669
   93MOL0     H12496   9.305   7.082  10.493  5.7274  1.4923 -4.0879
   93MOL0     H12497   9.201   6.944  10.495  2.3911 -2.4398  1.9197
   93MOL0     H12498   9.497   6.933  10.430  0.7000  1.5281  2.2103
   93MOL0     H12499   9.431   6.905  10.592 -2.1800  0.6365 -0.0135
   93MOL0     H12500   9.313   6.702  10.495 -0.3832  1.3051 -1.3395
   93MOL0     H12501   9.380   6.744  10.346 -2.8475 -2.7425  0.3928
   93MOL0     H12502   9.614   6.725  10.430 -2.9961  1.5506 -2.8031
   93MOL0     H12503   9.555   6.663  10.594  3.2870 -3.0488 -0.2552
   93MOL0     H12504   9.551   6.512  10.324 -0.2735 -1.9072  0.4907
   93MOL0     H12505   9.443   6.474  10.458 -0.1224 -0.2445  0.2913
   93MOL0     H12506   9.540   6.384  10.686 -0.9945  0.6425 -1.9376
   93MOL0     H12507   9.668   6.221  10.840  1.0392 -2.5204 -0.0477
   93MOL0     H12508   9.820   6.180  10.799  0.6096  0.5705  1.2325
   93MOL0     H12509   9.900   6.407  10.887 -1.0257 -2.4624 -2.1644
   93MOL0     H12510   9.850   6.267  10.992 -0.0941  0.2009  1.9747
   93MOL0     H12511   9.637   6.371  11.039  0.7063  0.3777 -1.1944
   93MOL0     H12512   9.673   6.503  10.929 -1.6884 -1.0659  0.2728
   93MOL0     H12513   9.860   6.574  11.105 -1.7355  1.0892  0.0400
   93MOL0     H12514   9.802   6.416  11.189  1.2986 -2.9980 -2.8205
   93MOL0     H12515   9.884   6.707  11.287 -1.3418 -0.9996 -3.1259
   93MOL0     H12516   9.901   6.934  11.539  1.2470 -0.2393  3.3238
   93MOL0     H12517   9.940   6.783  11.620 -1.6093  0.9075  1.1388
   93MOL0     H12518  10.004   6.814  11.456 -1.3489  1.2336 -2.2336
   93MOL0     H12519   9.672   6.927  11.961 -0.2843 -0.7734  1.0567
   93MOL0     H12520   9.576   7.088  12.102 -1.8028  2.8025  0.1234
   93MOL0     H12521   9.179   7.284  12.047 -0.2241 -0.2149 -1.3318
   93MOL0     H12522   9.158   7.158  12.161 -0.7638  2.0916  3.8094
   93MOL0     H12523   9.312   7.301  12.315  1.1490  3.0136  0.9020
   93MOL0     H12524   9.301   7.440  12.203 -3.1011  1.7864 -0.7786
   93MOL0     H12525   9.062   7.294  12.344 -0.7405  0.1904  2.5110
   93MOL0     H12526   9.049   7.412  12.224  0.3085 -1.2539 -0.8438
   93MOL0     H12527   9.186   7.463  12.490 -1.7685  0.3846  2.3301
   93MOL0     H12528   9.158   7.583  12.355 -1.2384  0.5239  1.4427
   93MOL0     H12529   8.967   7.444  12.530 -2.5307 -0.2628 -2.3506
   93MOL0     H12530   8.914   7.508  12.374  1.2388  0.8877 -1.8670
   93MOL0     H12531   8.882   7.674  12.585  0.2699  1.2887 -1.0533
   93MOL0     H12532   9.049   7.707  12.569 -0.3176  0.3518  1.1022
   93MOL0     H12533   8.850   7.722  12.339 -1.2335 -0.9002  2.1428
   93MOL0     H12534   9.020   7.769  12.345 -0.2879  3.0966 -0.2521
   93MOL0     H12535   8.852   7.957  12.357  1.6809  0.2997 -0.6881
   93MOL0     H12536   8.974   7.956  12.479 -0.4222 -0.0107 -0.8702
   93MOL0     H12537   9.217   7.091  11.869  0.2003 -0.2210  0.1961
   93MOL0     H12538   9.311   6.904  11.735 -3.0751  0.6219  2.3077
   93MOL0     H12539   9.453   6.708  11.517 -0.4566 -0.7682  1.9539
   93MOL0     H12540   9.470   6.596  11.324 -0.3289 -0.4337  2.1308
   93MOL0     H12541   9.564   7.252  10.040  1.6264  0.1210  1.3525
   93MOL0     H12542   9.682   7.457  10.101 -0.4159 -1.3875 -1.5391
   93MOL0     H12543   9.451   8.069  10.117 -1.6035 -3.3111  0.6597
   93MOL0     H12544   9.547   8.255  10.221  0.9740  0.7634  0.2043
   93MOL0     H12545   9.793   8.427  10.427  0.6560 -2.0937  1.1282
   93MOL0     H12546   9.680   8.382  10.298 -0.2893 -0.1260 -0.3996
   93MOL0     H12547   9.493   8.388  10.478 -2.2785  2.1591 -1.4450
   93MOL0     H12548   9.557   8.543  10.418  2.8737  2.0395  1.0915
   93MOL0     H12549   9.698   8.551  10.626  0.7471 -1.9146 -1.0883
   93MOL0     H12550   9.627   8.396  10.675 -1.3822 -0.4294  0.5970
   93MOL0     H12551   9.504   8.609  10.793  0.2549  2.3771 -1.1582
   93MOL0     H12552   9.395   8.529  10.690  0.9442 -1.3952  0.2575
   93MOL0     H12553   9.488   8.866  10.474 -1.0294  1.1381  0.6246
   93MOL0     H12554   9.754   8.008  10.506 -0.7769  2.4382  1.8815
   93MOL0     H12555   9.651   7.816  10.405  1.2775  0.0520  0.4426
   94MOL0     O12556   8.090   7.473   3.421  0.1700  0.9193 -0.2663
   94MOL0     C12557   8.162   7.552   3.485  0.0744  0.5761 -1.6553
   94MOL0     O12558   8.122   7.672   3.528  0.5283  0.7422 -0.2949
   94MOL0     C12559   7.990   7.694   3.545 -0.1225  0.2765  0.0409
   94MOL0     C12560   7.941   7.793   3.463 -0.8440 -0.2634 -0.4773
   94MOL0     C12561   7.802   7.836   3.458 -0.5262  0.2394  0.0448
   94MOL0     C12562   7.710   7.786   3.557  0.7808 -0.4221  0.2469
   94MOL0     O12563   7.574   7.819   3.575 -0.3338 -0.5404  0.2248
   94MOL0     C12564   7.493   7.826   3.454  0.5906  0.0552 -0.8007
   94MOL0     C12565   7.465   7.970   3.418  0.6398 -0.0812 -0.3388
   94MOL0     C12566   7.330   7.974   3.339  0.0354 -0.6784  0.1772
   94MOL0     C12567   7.286   8.122   3.328  1.0178 -0.5311  0.0026
   94MOL0     C12568   7.162   8.149   3.244  0.9805 -0.4351 -0.2002
   94MOL0     C12569   7.181   8.163   3.089  0.2688 -1.1165 -0.1958
   94MOL0     C12570   7.049   8.161   3.012  0.3173  0.7347  0.8512
   94MOL0     C12571   6.964   8.293   3.046 -0.6963  0.1403  0.1647
   94MOL0     N12572   6.978   8.402   2.950 -0.2159 -0.4491 -0.5822
   94MOL0     C12573   6.944   8.389   2.822 -0.6385 -0.7004  1.0031
   94MOL0     C12574   7.008   8.492   2.769  0.4379 -0.2371 -0.4055
   94MOL0     C12575   7.001   8.518   2.626 -0.6343 -0.5912  0.6532
   94MOL0     C12576   6.887   8.619   2.606 -0.2831 -0.1332 -0.4290
   94MOL0     C12577   6.848   8.652   2.460  0.2336  0.6117  0.5151
   94MOL0     C12578   6.916   8.780   2.409 -0.8827 -0.5243  0.6891
   94MOL0     O12579   7.059   8.749   2.402  0.0714  0.8631  0.2672
   94MOL0     C12580   7.143   8.833   2.330  0.3742  0.0899  1.4965
   94MOL0     C12581   7.279   8.800   2.336  0.4847  0.4110 -0.0455
   94MOL0     C12582   7.382   8.867   2.265 -0.1286 -0.7351 -1.1082
   94MOL0     C12583   7.520   8.830   2.287  0.3816 -0.0261 -0.1370
   94MOL0     C12584   7.342   8.986   2.184 -0.0556 -0.6155 -0.2747
   94MOL0     C12585   7.439   9.079   2.111 -0.2469  0.3372  0.0127
   94MOL0     O12586   7.407   9.212   2.108 -0.0757 -0.1481 -1.2153
   94MOL0     C12587   7.497   9.292   2.049  0.8617 -0.7540  0.2262
   94MOL0     C12588   7.614   9.336   2.111  0.2488 -0.3664 -0.3132
   94MOL0     C12589   7.700   9.433   2.054  0.5975  0.0363  0.0084
   94MOL0     C12590   7.672   9.485   1.921 -0.4812 -0.3065 -1.0344
   94MOL0     O12591   7.737   9.591   1.866  0.0153 -0.6488  0.0404
   94MOL0     C12592   7.860   9.614   1.934  0.0397 -0.4746 -0.0155
   94MOL0     C12593   7.941   9.730   1.867 -0.1969 -0.1467 -0.6056
   94MOL0     C12594   8.051   9.798   1.952  0.3845 -0.4832 -0.6828
   94MOL0     C12595   7.979   9.897   2.047 -0.3417 -0.2858 -0.7091
   94MOL0     C12596   8.089   9.956   2.145 -0.1182  0.1372 -0.8037
   94MOL0     C12597   8.019  10.047   2.242 -0.0271 -1.2944 -0.2521
   94MOL0     C12598   7.920   9.971   2.341  0.7150  0.3517 -1.0776
   94MOL0     C12599   7.906  10.049   2.481  1.9922 -0.1698  0.2476
   94MOL0    Cl12600   7.841  10.217   2.450 -0.0796  0.4038  0.2459
   94MOL0     C12601   7.550   9.444   1.860 -0.1235 -0.1179  0.2085
   94MOL0     C12602   7.465   9.347   1.918 -0.6457  0.3101  0.1979
   94MOL0     O12603   7.540   9.021   2.065  0.0941 -0.5123 -0.1000
   94MOL0     C12604   7.203   9.024   2.181  0.1312  0.3368  0.2871
   94MOL0     C12605   7.101   8.943   2.251 -0.7032  0.4215 -0.5899
   94MOL0     N12606   7.087   8.569   2.866  0.0522  0.4728  0.3558
   94MOL0     N12607   7.067   8.501   2.973  0.1772 -0.3744 -0.7378
   94MOL0     C12608   7.765   7.694   3.651  0.1903  0.3175  0.4462
   94MOL0     C12609   7.903   7.639   3.628  0.3741  0.1536 -0.2616
   94MOL0     C12610   8.308   7.516   3.490 -0.0300  0.5854 -0.2797
   94MOL0     C12611   8.371   7.421   3.412 -0.2338  0.3783  0.3127
   94MOL0     C12612   8.513   7.415   3.402  0.2606  0.2452  0.1472
   94MOL0     C12613   8.603   7.490   3.480  0.3584  0.1438  0.3858
   94MOL0     O12614   8.734   7.480   3.470 -0.6549  0.2248  0.3112
   94MOL0     C12615   8.786   7.363   3.411  0.1730 -0.3551  0.0467
   94MOL0     C12616   8.935   7.378   3.386  0.1991  0.1942 -0.2837
   94MOL0     C12617   9.021   7.247   3.348  0.4343  0.7429 -0.7544
   94MOL0     C12618   9.061   7.164   3.477 -0.2927  0.6545 -0.9942
   94MOL0     C12619   9.202   7.126   3.482 -0.3997  0.5074 -0.0789
   94MOL0     C12620   9.316   7.086   3.487 -1.0271  0.2077 -0.7071
   94MOL0     C12621   8.534   7.571   3.571 -1.4965 -0.3259 -1.0927
   94MOL0     C12622   8.397   7.586   3.572 -0.5257 -0.7159  1.1046
   94MOL0     H12623   8.007   7.834   3.387 -1.7628 -0.5023 -1.4318
   94MOL0     H12624   7.771   7.895   3.373 -1.7783 -2.6092 -1.6196
   94MOL0     H12625   7.528   7.770   3.367  1.3535 -2.3813  0.9563
   94MOL0     H12626   7.396   7.777   3.468 -0.1251  2.0283  1.9702
   94MOL0     H12627   7.440   8.028   3.507 -2.0908 -2.4116  0.5591
   94MOL0     H12628   7.549   8.005   3.357  0.1982 -1.0654 -1.5557
   94MOL0     H12629   7.339   7.930   3.239 -0.9484 -2.1135  0.6792
   94MOL0     H12630   7.253   7.913   3.388 -1.2679 -0.4384 -1.4653
   94MOL0     H12631   7.270   8.160   3.429  0.2477 -0.9460  0.0473
   94MOL0     H12632   7.369   8.172   3.278  0.6426 -1.8945 -2.1508
   94MOL0     H12633   7.094   8.067   3.268  3.9937 -3.1514 -0.1676
   94MOL0     H12634   7.113   8.237   3.286  1.3477 -0.0602 -0.5342
   94MOL0     H12635   7.225   8.261   3.070 -1.0734 -0.6937 -1.2560
   94MOL0     H12636   7.263   8.097   3.057  1.2819 -0.1724  0.3897
   94MOL0     H12637   7.069   8.164   2.905 -1.8400  0.4264  0.3943
   94MOL0     H12638   7.006   8.067   3.048  1.6482 -0.2580 -0.0361
   94MOL0     H12639   6.969   8.330   3.148 -2.3541 -1.5614  0.9186
   94MOL0     H12640   6.856   8.274   3.036 -0.6989 -0.4924  1.3159
   94MOL0     H12641   6.891   8.318   2.759 -0.0389  1.9051 -2.7949
   94MOL0     H12642   7.096   8.563   2.594 -0.6882 -1.2121 -0.4059
   94MOL0     H12643   6.980   8.427   2.570 -1.7644  1.1407 -1.9477
   94MOL0     H12644   6.928   8.710   2.651  1.6031  0.2736 -2.7349
   94MOL0     H12645   6.792   8.595   2.653  0.4156  0.7582  1.5199
   94MOL0     H12646   6.740   8.668   2.462  0.4390  2.4669  4.1496
   94MOL0     H12647   6.885   8.577   2.389 -1.1885  0.7444 -0.4006
   94MOL0     H12648   6.901   8.866   2.474  0.5036  0.6762 -0.5065
   94MOL0     H12649   6.866   8.800   2.314 -3.1881  0.0982  1.9562
   94MOL0     H12650   7.297   8.722   2.410 -1.9438  0.4607  0.6928
   94MOL0     H12651   7.519   8.731   2.333  1.5693  0.2955  0.6110
   94MOL0     H12652   7.575   8.824   2.193  4.5742  0.7616  2.0383
   94MOL0     H12653   7.576   8.904   2.344  0.3173  0.3660 -0.5770
   94MOL0     H12654   7.636   9.286   2.205  6.3558  0.0864 -1.0918
   94MOL0     H12655   7.791   9.444   2.112  1.8594 -3.2285 -1.1123
   94MOL0     H12656   7.833   9.654   2.032  3.4112  0.4995  0.6277
   94MOL0     H12657   7.923   9.528   1.957 -1.5027 -1.1903  1.8695
   94MOL0     H12658   7.997   9.685   1.784 -0.6755 -3.2786  0.6273
   94MOL0     H12659   7.862   9.795   1.829  0.4003  0.0715 -1.4991
   94MOL0     H12660   8.127   9.858   1.900 -0.6757  2.2391  0.6622
   94MOL0     H12661   8.102   9.721   2.010  0.8309 -1.7532 -2.6920
   94MOL0     H12662   7.948   9.983   1.987  0.3534 -0.2130 -0.9739
   94MOL0     H12663   7.890   9.859   2.098 -1.4127 -1.6298 -3.3596
   94MOL0     H12664   8.160  10.020   2.092  1.7278 -0.0920  1.2584
   94MOL0     H12665   8.146   9.880   2.198  1.4187 -0.8868 -3.6819
   94MOL0     H12666   8.108  10.082   2.295 -1.7845 -0.7835  2.5517
   94MOL0     H12667   7.973  10.122   2.177  0.4082  0.4146  1.3179
   94MOL0     H12668   7.963   9.872   2.356 -1.2463 -0.2520  1.0497
   94MOL0     H12669   7.824   9.945   2.295  1.1470 -0.6546 -1.4571
   94MOL0     H12670   7.995  10.044   2.545 -0.4202 -0.5642  3.9118
   94MOL0     H12671   7.833   9.983   2.529  0.8249 -0.7863 -2.2496
   94MOL0     H12672   7.524   9.485   1.763 -1.6982 -1.4454  0.0329
   94MOL0     H12673   7.378   9.302   1.870 -0.3856 -0.0552  0.0653
   94MOL0     H12674   7.156   9.104   2.125  1.3194  1.9654  1.5325
   94MOL0     H12675   7.000   8.982   2.246 -1.1074 -0.3309  0.9344
   94MOL0     H12676   7.700   7.661   3.731  0.9669  1.3385  1.5302
   94MOL0     H12677   7.944   7.566   3.697  1.3072  4.4143  4.1893
   94MOL0     H12678   8.309   7.359   3.348  0.9264  0.4228 -0.8988
   94MOL0     H12679   8.542   7.354   3.317 -0.7442 -2.8912  1.8481
   94MOL0     H12680   8.749   7.274   3.463  0.1579 -1.4164 -1.7062
   94MOL0     H12681   8.755   7.358   3.306  0.8266 -0.1976 -0.1589
   94MOL0     H12682   8.973   7.410   3.483 -0.2675 -1.0297  0.3252
   94MOL0     H12683   8.953   7.459   3.315 -2.3996 -1.7893 -3.5109
   94MOL0     H12684   9.105   7.296   3.296  0.8899 -1.0189 -1.7602
   94MOL0     H12685   8.976   7.192   3.265 -0.2461  1.1276 -0.6503
   94MOL0     H12686   9.000   7.074   3.484  2.8327 -1.6077 -1.1674
   94MOL0     H12687   9.050   7.213   3.574  0.7707  1.0136 -1.0414
   94MOL0     H12688   9.413   7.043   3.504 -1.9198 -0.3401  4.6848
   94MOL0     H12689   8.598   7.641   3.624  0.1505 -1.7355 -1.0887
   94MOL0     H12690   8.346   7.663   3.629 -0.1750  0.5683 -0.2517
   95MOL0     O12691   0.744   0.907   8.018 -0.2533 -0.8342 -0.0872
   95MOL0     C12692   0.860   0.909   7.975  0.1851 -1.1596 -0.2853
   95MOL0     O12693   0.893   0.892   7.847  0.1665  0.1834 -0.4767
   95MOL0     C12694   0.787   0.862   7.761 -0.9364  0.8905  0.5357
   95MOL0     C12695   0.773   0.935   7.646  0.8664 -0.3583 -0.8059
   95MOL0     C12696   0.668   0.910   7.563  1.3421 -0.5486 -0.8862
   95MOL0     C12697   0.581   0.803   7.590 -1.0635 -0.1259  0.0897
   95MOL0     O12698   0.465   0.783   7.517  0.4376 -0.1233  0.4913
   95MOL0     C12699   0.405   0.895   7.465  0.0052 -0.6854 -0.7542
   95MOL0     C12700   0.256   0.862   7.464 -0.2185  0.5065 -0.1796
   95MOL0     C12701   0.223   0.749   7.371 -0.4509 -0.4153  0.2829
   95MOL0     C12702   0.072   0.748   7.338 -0.3456 -0.5460  1.0084
   95MOL0     C12703   0.053   0.663   7.213  0.6616  0.2619 -0.3658
   95MOL0     C12704   0.112   0.523   7.205 -0.6606 -0.4015 -0.1622
   95MOL0     C12705   0.041   0.426   7.305 -0.4458 -0.3755  0.4255
   95MOL0     C12706   0.029   0.283   7.265  0.0235  0.2898  1.6153
   95MOL0     N12707   0.018   0.184   7.374 -0.9591 -0.6521 -0.0337
   95MOL0     C12708   0.117   0.103   7.413 -0.2315  0.4211  0.3743
   95MOL0     C12709   0.073   0.077   7.539  0.1326 -0.6404  1.1452
   95MOL0     C12710   0.157   0.033   7.658  0.2579  0.1553  0.3333
   95MOL0     C12711   0.075  -0.049   7.750 -0.2250  0.0882 -0.2395
   95MOL0     C12712   0.143  -0.089   7.877 -0.6598  0.7814 -0.4324
   95MOL0     C12713   0.042  -0.089   7.989  0.3173 -0.3804 -0.2531
   95MOL0     O12714  -0.048  -0.192   7.972 -0.3207 -0.4128 -0.3733
   95MOL0     C12715  -0.165  -0.197   8.044  0.4180 -0.2387  0.1225
   95MOL0     C12716  -0.198  -0.107   8.145 -0.3888 -0.6727 -0.9863
   95MOL0     C12717  -0.320  -0.105   8.218  0.8423  0.8938  0.4777
   95MOL0     C12718  -0.331  -0.018   8.345  0.3398  0.9055  0.9497
   95MOL0     C12719  -0.424  -0.193   8.173 -0.1254  0.2178  0.2827
   95MOL0     C12720  -0.565  -0.191   8.217 -0.5399 -0.1902  0.8739
   95MOL0     O12721  -0.637  -0.311   8.218  0.6860  0.8284  0.3758
   95MOL0     C12722  -0.768  -0.302   8.258 -0.7481  1.1500 -0.7553
   95MOL0     C12723  -0.858  -0.194   8.240  0.6243  0.0663  0.9884
   95MOL0     C12724  -0.992  -0.199   8.287 -0.9019 -0.6758  0.4376
   95MOL0     C12725  -1.030  -0.309   8.355 -0.0627  0.3814 -0.0039
   95MOL0     O12726  -1.156  -0.311   8.404 -0.4147 -0.4427 -0.4620
   95MOL0     C12727  -1.183  -0.215   8.508  0.3008 -1.0453 -0.6425
   95MOL0     C12728  -1.193  -0.290   8.643  0.0947 -0.7395 -0.1226
   95MOL0     C12729  -1.305  -0.376   8.644  0.1646  0.1460 -0.4969
   95MOL0     C12730  -1.318  -0.439   8.786  0.1274 -0.5693  1.8560
   95MOL0     C12731  -1.446  -0.518   8.814  0.3911  0.2016  0.2023
   95MOL0     C12732  -1.472  -0.632   8.710  0.2056 -0.1950  0.6186
   95MOL0     C12733  -1.596  -0.719   8.744 -0.7342  0.3642 -0.0950
   95MOL0     C12734  -1.626  -0.820   8.643  0.6575  1.1404 -0.2303
   95MOL0    Cl12735  -1.484  -0.914   8.585  0.0454 -0.1350 -0.0790
   95MOL0     C12736  -0.945  -0.409   8.387 -0.2823  0.4632  0.0774
   95MOL0     C12737  -0.815  -0.415   8.334 -0.1807  0.4876  0.5625
   95MOL0     O12738  -0.608  -0.077   8.240  0.3732  0.1744  0.2284
   95MOL0     C12739  -0.391  -0.285   8.069  0.1052  0.4007 -0.8959
   95MOL0     C12740  -0.265  -0.299   8.010 -1.0134 -0.2799  0.2599
   95MOL0     N12741  -0.057   0.118   7.554  0.7486 -0.1967 -0.2883
   95MOL0     N12742  -0.085   0.187   7.455  0.1218 -0.1099 -0.6048
   95MOL0     C12743   0.600   0.723   7.698  0.0076 -0.6824 -0.1953
   95MOL0     C12744   0.704   0.751   7.783  0.1435 -0.4812  0.2643
   95MOL0     C12745   0.964   0.936   8.074 -0.9842 -0.5197 -0.3732
   95MOL0     C12746   0.933   0.991   8.204  0.0867  1.1200  0.8753
   95MOL0     C12747   1.024   1.003   8.308 -0.5711  0.2292  0.0054
   95MOL0     C12748   1.146   0.943   8.297  0.8698  0.2543  0.2419
   95MOL0     O12749   1.226   0.947   8.407  0.1523  0.2678  0.5137
   95MOL0     C12750   1.235   0.830   8.485  1.3520 -0.2623 -0.0019
   95MOL0     C12751   1.380   0.801   8.516 -0.0180 -1.0867 -0.4550
   95MOL0     C12752   1.480   0.783   8.398  0.2821  0.8118 -0.1010
   95MOL0     C12753   1.613   0.721   8.437  0.0451  0.0410 -0.1698
   95MOL0     C12754   1.707   0.830   8.494 -0.2707  0.3288  0.0929
   95MOL0     C12755   1.771   0.919   8.541  0.0180 -0.5906 -0.5478
   95MOL0     C12756   1.171   0.859   8.183 -0.0944 -0.0689 -0.1529
   95MOL0     C12757   1.090   0.860   8.070  0.0990  0.2477 -0.2801
   95MOL0     H12758   0.843   1.017   7.632  0.4312  0.6226  1.9831
   95MOL0     H12759   0.658   0.968   7.471 -0.5489  0.3250 -0.1792
   95MOL0     H12760   0.413   0.985   7.526  3.1235 -0.4336 -1.3544
   95MOL0     H12761   0.442   0.917   7.364 -1.6062 -1.7270 -1.6258
   95MOL0     H12762   0.230   0.834   7.566 -1.9948  1.9839 -0.1637
   95MOL0     H12763   0.194   0.946   7.431  0.0102  0.4806 -0.6864
   95MOL0     H12764   0.279   0.770   7.280 -0.4828 -1.7960 -0.0695
   95MOL0     H12765   0.252   0.651   7.410  0.8943 -0.7129 -1.3558
   95MOL0     H12766   0.012   0.702   7.418  0.2726  0.0979  1.8628
   95MOL0     H12767   0.033   0.850   7.332 -1.9390 -1.1754  0.2025
   95MOL0     H12768  -0.056   0.659   7.210  0.4900  2.2956  1.0965
   95MOL0     H12769   0.078   0.717   7.121 -0.9591  2.6386  0.4966
   95MOL0     H12770   0.100   0.497   7.099  0.5900  0.7094 -0.6142
   95MOL0     H12771   0.219   0.534   7.224 -1.0323  2.2626  0.8172
   95MOL0     H12772   0.097   0.427   7.399 -1.1113 -0.8042  0.8383
   95MOL0     H12773  -0.059   0.467   7.319 -0.0703  1.3540 -1.5265
   95MOL0     H12774   0.122   0.260   7.213 -1.7800 -3.2995 -0.3876
   95MOL0     H12775  -0.042   0.273   7.183  3.7608 -0.4946 -1.8126
   95MOL0     H12776   0.213   0.090   7.363 -0.7532 -1.9527 -0.1256
   95MOL0     H12777   0.249  -0.020   7.630  2.4469  3.4462  0.7925
   95MOL0     H12778   0.197   0.121   7.709  0.1115 -1.7921  4.2214
   95MOL0     H12779   0.028  -0.135   7.703  0.4213 -0.5461  0.2473
   95MOL0     H12780  -0.001   0.021   7.785  0.5218  0.6899  0.2076
   95MOL0     H12781   0.208  -0.003   7.894  2.2954 -0.9958 -1.7666
   95MOL0     H12782   0.203  -0.180   7.870 -1.5791  0.1760 -0.7074
   95MOL0     H12783  -0.006   0.009   7.988  2.1043  0.5373  0.8961
   95MOL0     H12784   0.100  -0.113   8.079 -2.5061 -1.3798  1.4306
   95MOL0     H12785  -0.124  -0.036   8.180 -1.1454 -0.3002 -0.0898
   95MOL0     H12786  -0.407   0.061   8.344  2.1716  2.7623  0.8764
   95MOL0     H12787  -0.360  -0.078   8.432  1.0814  0.6721  1.0475
   95MOL0     H12788  -0.229   0.016   8.366  1.7795 -1.2959 -1.7506
   95MOL0     H12789  -0.816  -0.110   8.186  1.1899 -0.1779  1.0372
   95MOL0     H12790  -1.065  -0.119   8.284  0.4141  0.6373  1.7196
   95MOL0     H12791  -1.108  -0.137   8.520  0.2117 -0.9958 -0.3920
   95MOL0     H12792  -1.279  -0.165   8.491 -0.9009 -2.4603  1.4363
   95MOL0     H12793  -1.107  -0.357   8.656 -0.3291 -1.2584  0.0172
   95MOL0     H12794  -1.205  -0.214   8.721 -1.9440  2.8777 -3.6223
   95MOL0     H12795  -1.292  -0.457   8.571  1.4286 -1.6973  1.6311
   95MOL0     H12796  -1.390  -0.314   8.614 -3.5037 -4.2322 -0.2825
   95MOL0     H12797  -1.232  -0.503   8.807  1.7403  0.4430 -1.0463
   95MOL0     H12798  -1.306  -0.355   8.855  0.8918  1.0471 -0.1465
   95MOL0     H12799  -1.529  -0.447   8.822 -0.0122 -0.4024  1.9187
   95MOL0     H12800  -1.426  -0.560   8.913 -0.1656 -1.3115 -0.3020
   95MOL0     H12801  -1.487  -0.576   8.617  0.1183 -1.5511 -0.2155
   95MOL0     H12802  -1.381  -0.691   8.718 -0.4421 -1.7194 -2.0775
   95MOL0     H12803  -1.684  -0.660   8.770 -1.3089  0.6991 -2.5525
   95MOL0     H12804  -1.559  -0.773   8.831 -0.5604  0.7913  0.0998
   95MOL0     H12805  -1.676  -0.774   8.557 -1.1616 -1.8229 -0.9040
   95MOL0     H12806  -1.692  -0.895   8.687  1.7870  1.3688  1.9518
   95MOL0     H12807  -0.980  -0.492   8.447  1.8729 -0.5784 -0.0062
   95MOL0     H12808  -0.736  -0.486   8.356 -2.2282 -2.4743 -1.0379
   95MOL0     H12809  -0.472  -0.351   8.039 -0.4481  0.5690  0.1746
   95MOL0     H12810  -0.234  -0.372   7.936 -1.5755  0.1017 -0.3605
   95MOL0     H12811   0.534   0.642   7.725  0.6514 -1.0077  0.4364
   95MOL0     H12812   0.718   0.698   7.877  0.7627 -1.0205 -0.1156
   95MOL0     H12813   0.831   1.024   8.225  0.0903  1.0037  1.0773
   95MOL0     H12814   1.011   1.060   8.400  2.2580 -1.5010  1.6465
   95MOL0     H12815   1.186   0.849   8.581 -0.9764 -1.9447 -0.7682
   95MOL0     H12816   1.203   0.732   8.449  3.3980 -1.1687  0.4997
   95MOL0     H12817   1.383   0.718   8.587  1.0825 -0.6460  0.0321
   95MOL0     H12818   1.417   0.886   8.574 -2.3285  1.2868 -2.2150
   95MOL0     H12819   1.493   0.882   8.353 -3.4513  0.4525 -2.4172
   95MOL0     H12820   1.431   0.722   8.321  3.7491  1.3669 -3.0352
   95MOL0     H12821   1.659   0.701   8.340 -0.2310  0.2744 -0.3463
   95MOL0     H12822   1.595   0.627   8.490  1.7493 -0.7835 -0.9724
   95MOL0     H12823   1.834   0.991   8.589  1.6730 -2.4676  0.2681
   95MOL0     H12824   1.266   0.808   8.166  0.5823  1.9632 -3.4378
   95MOL0     H12825   1.124   0.806   7.982 -0.3680 -2.1517  0.9402
   96MOL0     O12826   1.587   9.419  10.253  0.4417  0.3331 -1.0478
   96MOL0     C12827   1.612   9.521  10.311  0.6647  0.4107 -0.1656
   96MOL0     O12828   1.642   9.640  10.249  0.6321  0.8150 -0.3044
   96MOL0     C12829   1.619   9.655  10.119 -1.3636  0.5765  0.0150
   96MOL0     C12830   1.508   9.725  10.076 -0.6918  0.0699  0.1158
   96MOL0     C12831   1.481   9.736   9.940  0.8347  0.6846  0.0582
   96MOL0     C12832   1.561   9.672   9.843  0.2116  0.0431  0.3087
   96MOL0     O12833   1.537   9.686   9.707 -0.0514 -0.1171 -0.4172
   96MOL0     C12834   1.548   9.817   9.663 -0.2088  1.2461  0.0497
   96MOL0     C12835   1.697   9.849   9.655 -0.2797 -0.3972 -0.3673
   96MOL0     C12836   1.724   9.989   9.593 -0.8638 -0.1427 -0.9953
   96MOL0     C12837   1.669  10.105   9.672  0.2163 -0.2704  0.9277
   96MOL0     C12838   1.722  10.234   9.620  1.2665  0.5068  0.3751
   96MOL0     C12839   1.668  10.281   9.480 -0.1293  0.3685  0.1421
   96MOL0     C12840   1.685  10.434   9.451 -0.3388  0.0102  0.1344
   96MOL0     C12841   1.613  10.460   9.330 -0.6833 -0.0702  0.3590
   96MOL0     N12842   1.673  10.407   9.207 -0.3826 -0.1049  0.7629
   96MOL0     C12843   1.771  10.465   9.137 -0.3726  1.7106  1.0859
   96MOL0     C12844   1.787  10.372   9.035 -0.6674 -0.4538  0.9170
   96MOL0     C12845   1.884  10.369   8.923  0.0490  1.1931 -0.7170
   96MOL0     C12846   1.941  10.502   8.879  0.3146 -1.1169 -0.2121
   96MOL0     C12847   2.007  10.494   8.739  1.0582  0.5464 -0.4415
   96MOL0     C12848   2.140  10.572   8.719  1.2178  0.2346 -0.3736
   96MOL0     O12849   2.112  10.714   8.710  0.0461 -0.2057  0.4047
   96MOL0     C12850   2.129  10.776   8.587  1.1582  0.9511  0.6365
   96MOL0     C12851   2.037  10.760   8.481  1.0976 -0.6441  0.4120
   96MOL0     C12852   2.069  10.826   8.358 -0.3372  0.8386 -0.0007
   96MOL0     C12853   1.957  10.814   8.252  0.6440 -0.3645  0.5374
   96MOL0     C12854   2.199  10.883   8.343 -0.1830 -0.0264 -0.1668
   96MOL0     C12855   2.256  10.929   8.213 -0.6108 -0.0121 -0.1809
   96MOL0     O12856   2.386  10.942   8.212  0.1230 -0.4003  0.3317
   96MOL0     C12857   2.436  10.998   8.102 -0.2084  0.6280 -0.2677
   96MOL0     C12858   2.481  10.927   7.987 -0.4171  0.6218  0.7489
   96MOL0     C12859   2.537  10.984   7.876 -0.1019 -0.3458  0.7283
   96MOL0     C12860   2.551  11.119   7.868 -0.4432 -1.1307  0.3966
   96MOL0     O12861   2.601  11.193   7.768 -0.7056  0.1224 -1.0330
   96MOL0     C12862   2.671  11.147   7.654  0.6525 -0.3943  0.6627
   96MOL0     C12863   2.667  11.254   7.536 -0.8108  0.0971 -0.6634
   96MOL0     C12864   2.689  11.169   7.404  0.3263  0.4901 -0.6594
   96MOL0     C12865   2.683  11.258   7.283 -0.2384  0.8690  0.0070
   96MOL0     C12866   2.624  11.187   7.169 -0.2450 -0.3999 -0.0311
   96MOL0     C12867   2.602  11.287   7.048  0.1951  0.3727  0.2869
   96MOL0     C12868   2.711  11.252   6.943  0.3342 -0.7173 -0.1441
   96MOL0     C12869   2.728  11.350   6.826  0.2039  0.6159  0.7170
   96MOL0    Cl12870   2.875  11.294   6.737  0.2647  0.2421  0.1533
   96MOL0     C12871   2.510  11.186   7.983  0.9552  0.0505 -0.8662
   96MOL0     C12872   2.455  11.133   8.098  0.3556  0.6314 -0.0624
   96MOL0     O12873   2.189  10.920   8.114  0.4036  0.3135  0.1002
   96MOL0     C12874   2.286  10.892   8.452  0.3279 -0.1619 -0.4857
   96MOL0     C12875   2.244  10.842   8.575  0.1897 -1.1283  0.0452
   96MOL0     N12876   1.696  10.274   9.053  0.2621  0.2091  0.7528
   96MOL0     N12877   1.618  10.293   9.150 -0.6986 -0.1525 -0.4247
   96MOL0     C12878   1.665   9.591   9.883  0.3934 -0.3398 -1.2603
   96MOL0     C12879   1.696   9.585  10.023 -0.1570  0.8250 -0.4041
   96MOL0     C12880   1.606   9.519  10.458 -0.6977 -0.0450 -0.2007
   96MOL0     C12881   1.595   9.404  10.535 -0.8087  0.4431  0.4815
   96MOL0     C12882   1.593   9.415  10.677  0.2144 -0.3463  0.1108
   96MOL0     C12883   1.619   9.540  10.740  0.3427  0.3772  0.0094
   96MOL0     O12884   1.597   9.544  10.881 -0.6208  0.0717 -0.1649
   96MOL0     C12885   1.565   9.665  10.956 -0.8452  0.0414 -0.0134
   96MOL0     C12886   1.604   9.642  11.099 -0.1202  0.0362 -0.1161
   96MOL0     C12887   1.745   9.600  11.128 -0.1362 -0.4577 -0.2698
   96MOL0     C12888   1.845   9.710  11.123 -0.2153  0.0860  0.1808
   96MOL0     C12889   1.881   9.757  10.989  0.0588 -0.2667  0.5418
   96MOL0     C12890   1.907   9.795  10.879 -0.0147 -0.8959  0.9700
   96MOL0     C12891   1.645   9.650  10.663  0.4599  0.7664  0.9620
   96MOL0     C12892   1.635   9.640  10.529 -0.1920 -0.1416 -0.0931
   96MOL0     H12893   1.463   9.789  10.152  0.5345 -0.4375  1.3177
   96MOL0     H12894   1.393   9.786   9.902  0.3494 -0.0799  0.1539
   96MOL0     H12895   1.500   9.809   9.565  4.1373 -1.8362 -2.2182
   96MOL0     H12896   1.494   9.881   9.733 -0.6356 -0.0769  0.9799
   96MOL0     H12897   1.742   9.850   9.754 -1.4888 -1.3942  0.2164
   96MOL0     H12898   1.743   9.770   9.594 -0.9370  1.0257 -2.8766
   96MOL0     H12899   1.831  10.002   9.575 -0.7015  3.5487  1.4553
   96MOL0     H12900   1.671   9.990   9.497 -1.3946 -1.5537 -0.7467
   96MOL0     H12901   1.560  10.105   9.663  0.2069  2.3660  0.1518
   96MOL0     H12902   1.694  10.094   9.778  0.2345 -2.9838  0.7038
   96MOL0     H12903   1.680  10.313   9.682 -1.3662 -1.2386  0.9596
   96MOL0     H12904   1.831  10.236   9.627  1.6731  1.2240 -3.6906
   96MOL0     H12905   1.730  10.219   9.415 -0.4216  0.1895  0.0266
   96MOL0     H12906   1.562  10.253   9.473 -0.5616  0.9322  3.1386
   96MOL0     H12907   1.637  10.491   9.532 -1.5238  0.4521 -0.8418
   96MOL0     H12908   1.791  10.460   9.449 -0.4613  0.4984 -0.2505
   96MOL0     H12909   1.611  10.566   9.303  0.1538 -0.4964 -1.6011
   96MOL0     H12910   1.506  10.438   9.344 -0.6764 -0.6907 -0.4509
   96MOL0     H12911   1.831  10.554   9.150  0.0797  1.5534  0.1701
   96MOL0     H12912   1.945  10.284   8.954 -4.3852 -0.9004  3.4749
   96MOL0     H12913   1.832  10.334   8.834  1.2051 -2.9228  0.0458
   96MOL0     H12914   2.012  10.530   8.959  0.9042  3.9805 -2.1424
   96MOL0     H12915   1.862  10.577   8.868  1.1036 -0.2346 -0.0341
   96MOL0     H12916   1.932  10.531   8.668 -0.1138 -0.5414  0.1938
   96MOL0     H12917   2.010  10.393   8.698 -2.2209 -0.4060  1.3253
   96MOL0     H12918   2.175  10.542   8.620 -1.4182 -1.8375 -0.7669
   96MOL0     H12919   2.223  10.548   8.787  2.6132  1.7065 -1.4774
   96MOL0     H12920   1.940  10.717   8.503  2.1814 -2.0449  2.7919
   96MOL0     H12921   1.931  10.919   8.238  1.3066 -0.4974 -2.3152
   96MOL0     H12922   1.978  10.766   8.156  2.6769 -0.8087  1.1459
   96MOL0     H12923   1.870  10.762   8.292 -0.8778  1.3676 -0.4003
   96MOL0     H12924   2.464  10.821   7.999 -1.1254  0.8198  1.6840
   96MOL0     H12925   2.574  10.926   7.791  2.4381 -0.5486  1.8755
   96MOL0     H12926   2.776  11.126   7.679  0.4628 -3.0010 -0.3972
   96MOL0     H12927   2.621  11.055   7.623  1.1635  0.0608 -1.7227
   96MOL0     H12928   2.568  11.300   7.536  0.3372  2.9163 -3.2178
   96MOL0     H12929   2.745  11.325   7.565 -1.3610 -0.7683  3.5188
   96MOL0     H12930   2.615  11.088   7.400  2.6800 -2.1589  3.1845
   96MOL0     H12931   2.788  11.125   7.410  0.1033  0.1516  0.7769
   96MOL0     H12932   2.623  11.347   7.303  3.6047  3.3955  1.4766
   96MOL0     H12933   2.780  11.302   7.257  1.0986 -1.4289  0.8234
   96MOL0     H12934   2.525  11.144   7.182 -0.3211 -0.4104 -0.6379
   96MOL0     H12935   2.697  11.112   7.136  1.3457  1.4847 -1.0208
   96MOL0     H12936   2.503  11.269   7.006  1.3714 -3.4475 -1.2822
   96MOL0     H12937   2.627  11.390   7.075  1.3552 -0.5566  3.1869
   96MOL0     H12938   2.678  11.156   6.902 -3.9672  0.3111  0.4141
   96MOL0     H12939   2.810  11.252   6.989  2.7994  2.7277 -4.5661
   96MOL0     H12940   2.746  11.452   6.861 -2.2560 -0.2451  5.2090
   96MOL0     H12941   2.638  11.354   6.764  0.4172  0.8053  0.4156
   96MOL0     H12942   2.531  11.290   8.003  0.4867 -0.1366  0.8391
   96MOL0     H12943   2.437  11.200   8.182 -0.7200  0.6285 -0.2745
   96MOL0     H12944   2.386  10.934   8.447 -0.0197  1.3565  2.9195
   96MOL0     H12945   2.313  10.858   8.658 -0.5723  0.5307  0.3996
   96MOL0     H12946   1.727   9.530   9.817  1.2803 -1.4194  0.5065
   96MOL0     H12947   1.777   9.517  10.044 -2.9082 -2.8830 -0.9070
   96MOL0     H12948   1.588   9.309  10.483  1.5246  1.2850 -1.5249
   96MOL0     H12949   1.568   9.329  10.739 -0.0562  0.1595  0.7196
   96MOL0     H12950   1.618   9.750  10.913 -0.7811 -1.0939 -2.3156
   96MOL0     H12951   1.458   9.687  10.946 -0.9036  0.7926  1.7564
   96MOL0     H12952   1.544   9.558  11.137 -1.3302  1.1229  0.4660
   96MOL0     H12953   1.580   9.733  11.154  1.1776  0.8378 -0.8336
   96MOL0     H12954   1.773   9.515  11.066  1.4427 -1.7937  2.0928
   96MOL0     H12955   1.744   9.569  11.233 -2.2155  2.2702  0.6321
   96MOL0     H12956   1.932   9.668  11.174  0.4543  1.0690 -0.1389
   96MOL0     H12957   1.822   9.793  11.190 -0.3140 -0.7383  1.2088
   96MOL0     H12958   1.926   9.843  10.785  1.9920  0.7616  2.1435
   96MOL0     H12959   1.657   9.751  10.701  0.5110  0.1722  2.6054
   96MOL0     H12960   1.658   9.724  10.463  2.1518 -0.9438 -0.3728
   97MOL0     O12961   5.280   0.822   6.872  0.2292  0.7591 -0.8422
   97MOL0     C12962   5.174   0.774   6.908  0.6107  0.1519 -0.0307
   97MOL0     O12963   5.131   0.764   7.044 -0.3293 -0.5167  0.0637
   97MOL0     C12964   5.225   0.804   7.139 -0.3669 -0.7107  0.4975
   97MOL0     C12965   5.312   0.711   7.200 -0.6439  0.1028  0.8741
   97MOL0     C12966   5.421   0.751   7.286 -1.0349  0.3360 -0.5822
   97MOL0     C12967   5.438   0.886   7.317 -0.4995  0.7871  0.9116
   97MOL0     O12968   5.532   0.938   7.397  0.2503 -0.3246 -0.8355
   97MOL0     C12969   5.570   0.849   7.511  0.1925  0.0066  0.0172
   97MOL0     C12970   5.687   0.926   7.570 -0.1489  0.4239 -0.4855
   97MOL0     C12971   5.831   0.886   7.525  1.1225  0.0681  0.2957
   97MOL0     C12972   5.879   0.760   7.612 -1.1511 -0.2211 -0.4908
   97MOL0     C12973   6.022   0.709   7.590 -0.3029 -0.5077 -0.0645
   97MOL0     C12974   6.136   0.806   7.638  0.4700 -0.3800 -0.3908
   97MOL0     C12975   6.261   0.740   7.689  0.3777  0.3080 -0.0636
   97MOL0     C12976   6.325   0.642   7.592 -0.6387  0.0050 -0.4875
   97MOL0     N12977   6.372   0.686   7.455  0.2053 -0.0817  0.3919
   97MOL0     C12978   6.489   0.736   7.416 -0.2138  0.3038 -0.0716
   97MOL0     C12979   6.474   0.754   7.280 -0.0589  0.1084 -0.2339
   97MOL0     C12980   6.584   0.799   7.194 -0.7230 -0.0496 -0.6562
   97MOL0     C12981   6.535   0.837   7.049  0.6595 -0.7414  0.3700
   97MOL0     C12982   6.644   0.871   6.953 -0.1700  0.1868  0.0836
   97MOL0     C12983   6.733   0.750   6.921  0.5227 -0.1077 -0.2601
   97MOL0     O12984   6.805   0.794   6.802 -0.6680  0.5320  0.0322
   97MOL0     C12985   6.941   0.789   6.812  0.6381 -0.7159  0.7190
   97MOL0     C12986   7.016   0.668   6.831 -0.0166 -0.6955 -0.0684
   97MOL0     C12987   7.156   0.675   6.851 -1.3649  1.1583 -0.2308
   97MOL0     C12988   7.226   0.544   6.865 -1.0613  0.4980 -0.3289
   97MOL0     C12989   7.227   0.795   6.866  1.0011 -0.2800 -0.7685
   97MOL0     C12990   7.378   0.807   6.896  0.0572 -0.9097  0.4672
   97MOL0     O12991   7.427   0.930   6.881  0.7079  0.2011  0.2708
   97MOL0     C12992   7.557   0.951   6.916 -0.1105 -0.5321  0.0414
   97MOL0     C12993   7.614   0.912   7.035  0.1109  0.3280  0.3031
   97MOL0     C12994   7.754   0.920   7.060 -1.0067 -0.2962  0.2977
   97MOL0     C12995   7.840   0.973   6.968 -0.0941 -0.0317 -0.4501
   97MOL0     O12996   7.977   0.977   6.995 -0.7862  0.4423  0.2949
   97MOL0     C12997   8.062   1.081   6.949  0.6109  0.7616  0.4845
   97MOL0     C12998   8.192   1.074   7.023  0.8932 -0.7733  0.9501
   97MOL0     C12999   8.168   1.107   7.168  0.6740  0.0457 -0.5858
   97MOL0     C13000   8.298   1.128   7.244  0.1608  0.4750 -0.3237
   97MOL0     C13001   8.288   1.188   7.387  0.3527  0.1123  0.7824
   97MOL0     C13002   8.413   1.184   7.466 -1.0199  0.2632 -0.6102
   97MOL0     C13003   8.522   1.273   7.417  0.1108 -0.0148  0.4073
   97MOL0     C13004   8.647   1.260   7.509 -0.4389  0.1221 -1.1245
   97MOL0    Cl13005   8.623   1.339   7.674  0.1969  0.3381 -0.0728
   97MOL0     C13006   7.784   1.022   6.855 -0.4865  0.5397  0.5140
   97MOL0     C13007   7.646   1.020   6.831 -0.9548  0.0316 -1.0691
   97MOL0     O13008   7.439   0.712   6.926  0.3420  0.1500 -0.4731
   97MOL0     C13009   7.154   0.908   6.832  0.6597 -0.8724 -0.0990
   97MOL0     C13010   7.018   0.911   6.800 -0.0713  0.3802  0.1587
   97MOL0     N13011   6.345   0.720   7.242 -0.1967  0.0175 -0.2297
   97MOL0     N13012   6.292   0.682   7.351  0.9783 -0.3730 -0.0247
   97MOL0     C13013   5.360   0.978   7.249  0.6276 -0.5021  0.7954
   97MOL0     C13014   5.259   0.936   7.159  0.1068 -0.1578  0.7222
   97MOL0     C13015   5.089   0.726   6.795 -0.4058 -0.5201 -0.5810
   97MOL0     C13016   5.099   0.765   6.664 -0.6900  0.2212  0.4243
   97MOL0     C13017   5.019   0.723   6.565 -0.0940 -0.0758  0.2614
   97MOL0     C13018   4.921   0.629   6.586 -0.0931  0.1892  0.2810
   97MOL0     O13019   4.856   0.584   6.473  0.2159  0.2293  0.2191
   97MOL0     C13020   4.744   0.494   6.486  0.3533 -0.8872 -1.4332
   97MOL0     C13021   4.693   0.447   6.346 -0.6411  0.3243 -0.2403
   97MOL0     C13022   4.558   0.520   6.334  0.0948 -0.4071  0.2765
   97MOL0     C13023   4.480   0.482   6.217  0.9466  0.7940 -1.2270
   97MOL0     C13024   4.554   0.513   6.103  0.2832 -0.5423  1.5936
   97MOL0     C13025   4.602   0.532   5.993 -0.5364 -0.5731  0.1129
   97MOL0     C13026   4.894   0.595   6.718 -0.5020 -0.2771 -0.1021
   97MOL0     C13027   4.985   0.629   6.819 -0.0974 -1.0416 -0.0323
   97MOL0     H13028   5.304   0.607   7.169  3.8598 -0.1449 -0.1549
   97MOL0     H13029   5.500   0.683   7.314 -0.8757  1.6930  2.7238
   97MOL0     H13030   5.477   0.838   7.568  2.2234 -1.4289  3.3399
   97MOL0     H13031   5.611   0.748   7.505 -0.4714 -0.1904 -1.9381
   97MOL0     H13032   5.676   1.034   7.556 -0.0825  0.4767 -0.1470
   97MOL0     H13033   5.683   0.909   7.678  0.1438 -0.2954 -0.5854
   97MOL0     H13034   5.836   0.852   7.421  0.6110  1.1784 -0.0998
   97MOL0     H13035   5.896   0.972   7.546 -0.5114  1.7667 -1.2881
   97MOL0     H13036   5.857   0.781   7.718 -0.4489 -1.2421 -0.1301
   97MOL0     H13037   5.800   0.688   7.587 -1.8810  1.0285 -1.9825
   97MOL0     H13038   6.023   0.623   7.658 -2.4771  0.6758  1.5943
   97MOL0     H13039   6.034   0.687   7.484  0.3617  3.1348 -0.8654
   97MOL0     H13040   6.162   0.872   7.555  3.1058 -0.2428  0.4541
   97MOL0     H13041   6.100   0.866   7.722  1.1400 -2.0366  1.1325
   97MOL0     H13042   6.335   0.816   7.715  1.5985  0.3105 -3.1695
   97MOL0     H13043   6.233   0.700   7.787 -0.6774  3.8046  1.2261
   97MOL0     H13044   6.270   0.549   7.577  1.6887 -1.9807  2.2887
   97MOL0     H13045   6.417   0.602   7.635 -3.0683 -2.1673  3.2740
   97MOL0     H13046   6.573   0.754   7.482 -0.1232  1.4143 -0.4651
   97MOL0     H13047   6.637   0.879   7.245  0.0790 -1.3242  0.5708
   97MOL0     H13048   6.654   0.716   7.189  0.5351  1.0298 -1.7179
   97MOL0     H13049   6.454   0.910   7.057  3.0836  2.1084  0.7610
   97MOL0     H13050   6.483   0.757   6.996 -0.0086  0.7081 -1.2633
   97MOL0     H13051   6.698   0.959   6.990  0.1959 -0.8217  2.0990
   97MOL0     H13052   6.591   0.888   6.859 -1.5359  4.2133  1.3280
   97MOL0     H13053   6.669   0.667   6.890 -1.1830  0.1192  2.3248
   97MOL0     H13054   6.790   0.714   7.008  0.3206 -3.2654 -1.3114
   97MOL0     H13055   6.969   0.571   6.823 -4.0755  1.2068 -2.0104
   97MOL0     H13056   7.319   0.537   6.809 -0.8368  3.5366 -0.5020
   97MOL0     H13057   7.247   0.529   6.972 -2.7704  4.9929  0.8680
   97MOL0     H13058   7.162   0.464   6.827 -0.1245 -0.2771 -0.3017
   97MOL0     H13059   7.552   0.873   7.114 -0.5922  1.3016  0.2508
   97MOL0     H13060   7.794   0.892   7.157  0.3026  0.2452 -0.0576
   97MOL0     H13061   8.090   1.074   6.843  2.6243 -0.1051  1.0174
   97MOL0     H13062   8.014   1.178   6.964 -1.5623 -0.0007 -1.1050
   97MOL0     H13063   8.254   0.986   7.005 -0.2603 -1.0574 -2.3218
   97MOL0     H13064   8.255   1.155   6.984  0.6546 -0.1463  1.8237
   97MOL0     H13065   8.107   1.032   7.218  1.8415 -2.0605 -2.1716
   97MOL0     H13066   8.118   1.204   7.169  1.6754  0.6166  1.6182
   97MOL0     H13067   8.360   1.037   7.250 -0.3791 -0.1452 -2.9179
   97MOL0     H13068   8.361   1.191   7.182  0.1409  0.4029 -0.4180
   97MOL0     H13069   8.208   1.140   7.445 -1.5167  0.4405 -1.3712
   97MOL0     H13070   8.256   1.292   7.374 -0.2830 -0.4060 -2.8019
   97MOL0     H13071   8.381   1.205   7.569  1.4650 -0.2785  0.3484
   97MOL0     H13072   8.454   1.083   7.467 -3.7421 -0.9626 -1.4302
   97MOL0     H13073   8.489   1.377   7.418  1.0670  0.2956  1.5036
   97MOL0     H13074   8.556   1.235   7.320 -3.6839 -0.7837 -0.8118
   97MOL0     H13075   8.738   1.301   7.465 -0.2714  2.1383  0.8850
   97MOL0     H13076   8.664   1.159   7.546  0.6061  0.3475 -0.9432
   97MOL0     H13077   7.858   1.059   6.785  1.4524 -2.1747  0.9668
   97MOL0     H13078   7.606   1.047   6.733 -0.1943 -0.4504 -1.5265
   97MOL0     H13079   7.205   1.003   6.823  0.5659 -0.7518  0.5825
   97MOL0     H13080   6.962   1.003   6.785 -2.7449 -1.1057  0.4007
   97MOL0     H13081   5.373   1.082   7.278  0.9235  0.1102 -1.3665
   97MOL0     H13082   5.201   1.003   7.096  5.3988  2.8219 -1.5717
   97MOL0     H13083   5.172   0.835   6.625 -1.1335  0.1969 -0.4745
   97MOL0     H13084   5.039   0.767   6.468  3.6589  1.1504  1.3961
   97MOL0     H13085   4.772   0.405   6.544 -1.6768 -1.7410 -1.6663
   97MOL0     H13086   4.673   0.555   6.541 -1.6497 -1.4654 -3.2422
   97MOL0     H13087   4.679   0.338   6.343 -2.8267  0.5263  1.0897
   97MOL0     H13088   4.760   0.486   6.269 -1.2997 -0.4578 -1.2278
   97MOL0     H13089   4.560   0.629   6.337 -0.5624 -0.4092  1.7640
   97MOL0     H13090   4.505   0.502   6.428  0.4067  2.9749  1.2172
   97MOL0     H13091   4.379   0.523   6.219  0.8764  0.6642  1.4347
   97MOL0     H13092   4.476   0.372   6.221  0.6259  0.8400  0.0839
   97MOL0     H13093   4.642   0.570   5.902 -0.5501  0.0641  0.3701
   97MOL0     H13094   4.813   0.528   6.744 -0.6607  0.4639  1.4374
   97MOL0     H13095   4.965   0.578   6.913  2.4265 -0.3158  0.9841
   98MOL0     O13096   5.205   2.535   7.320  0.4566 -0.4472  1.3869
   98MOL0     C13097   5.231   2.489   7.206  0.9009 -0.0713  0.2634
   98MOL0     O13098   5.340   2.527   7.131  0.4751  0.3807  0.1780
   98MOL0     C13099   5.419   2.626   7.188  0.4159 -0.4582 -0.2425
   98MOL0     C13100   5.473   2.605   7.314 -0.2502 -0.7587 -0.8473
   98MOL0     C13101   5.565   2.699   7.368  0.0675  0.2644  0.3785
   98MOL0     C13102   5.604   2.812   7.291 -0.5711  0.0848  0.2336
   98MOL0     O13103   5.686   2.898   7.350  0.2561  0.2640  0.4122
   98MOL0     C13104   5.651   3.040   7.343  0.1833 -0.4175  0.8244
   98MOL0     C13105   5.751   3.107   7.251  0.2536  0.2135  0.1904
   98MOL0     C13106   5.743   3.262   7.269 -0.7313  0.1289  0.7690
   98MOL0     C13107   5.834   3.323   7.150  0.1733 -0.0384 -0.6441
   98MOL0     C13108   5.785   3.472   7.126  0.3109  0.0047 -0.9466
   98MOL0     C13109   5.901   3.563   7.071 -0.5292 -0.4535  0.4817
   98MOL0     C13110   5.954   3.521   6.930  0.4452 -0.9023 -0.4255
   98MOL0     C13111   5.854   3.529   6.814  0.0709 -0.1032  1.1662
   98MOL0     N13112   5.925   3.531   6.684 -0.0353  0.3324 -0.1971
   98MOL0     C13113   5.967   3.416   6.624  0.8676  0.1911 -0.6489
   98MOL0     C13114   6.065   3.464   6.545  0.1950 -0.7119  0.6260
   98MOL0     C13115   6.162   3.387   6.464 -0.1729 -0.2386  0.3112
   98MOL0     C13116   6.312   3.430   6.483 -0.0485  0.5715 -0.9561
   98MOL0     C13117   6.398   3.325   6.406  0.9333 -0.1954 -0.5298
   98MOL0     C13118   6.466   3.206   6.475  0.0662  0.0219  0.5372
   98MOL0     O13119   6.535   3.247   6.598  0.4099 -0.2092  0.5344
   98MOL0     C13120   6.624   3.166   6.638 -0.8931 -0.1599 -0.2667
   98MOL0     C13121   6.759   3.199   6.613  0.7520  0.4110 -0.1880
   98MOL0     C13122   6.860   3.111   6.669 -0.4939 -0.3560 -0.0798
   98MOL0     C13123   7.002   3.160   6.641 -0.8512 -0.7092 -0.5359
   98MOL0     C13124   6.835   3.003   6.749  0.2285  0.0299 -0.1445
   98MOL0     C13125   6.932   2.919   6.817  0.3258 -0.6207  0.2399
   98MOL0     O13126   7.044   2.883   6.761  0.6055  0.2358  0.1702
   98MOL0     C13127   7.037   2.815   6.645  0.5749 -0.1291 -0.6287
   98MOL0     C13128   7.141   2.829   6.547 -0.5942  0.5312 -0.6688
   98MOL0     C13129   7.136   2.742   6.432  0.2441 -0.6505  0.3274
   98MOL0     C13130   7.035   2.645   6.411 -0.7570  1.0295  0.5571
   98MOL0     O13131   7.031   2.562   6.294 -0.9347 -0.3043  0.2511
   98MOL0     C13132   6.958   2.617   6.191  0.6974  0.2733 -0.6604
   98MOL0     C13133   6.932   2.501   6.100 -0.4665 -0.2738  0.2769
   98MOL0     C13134   6.810   2.418   6.130 -0.0526  0.5963  0.2146
   98MOL0     C13135   6.679   2.502   6.131  1.3119  0.4562  0.2499
   98MOL0     C13136   6.569   2.409   6.182  0.2017  1.4361 -0.1459
   98MOL0     C13137   6.528   2.313   6.074  0.0725 -0.0232 -0.4659
   98MOL0     C13138   6.424   2.213   6.124 -0.4842 -0.7768 -0.7406
   98MOL0     C13139   6.358   2.131   6.011 -0.4809  0.1583  0.4435
   98MOL0    Cl13140   6.251   2.003   6.068  0.1786 -0.0564  0.4810
   98MOL0     C13141   6.944   2.632   6.517  0.1249 -0.4950 -0.6750
   98MOL0     C13142   6.934   2.715   6.632  0.3398 -0.2260 -0.0378
   98MOL0     O13143   6.909   2.897   6.936  0.2836  0.4579  0.2823
   98MOL0     C13144   6.695   2.979   6.770  0.5064  0.3001  0.5218
   98MOL0     C13145   6.588   3.059   6.720 -0.4284 -0.4583  0.0211
   98MOL0     N13146   6.037   3.604   6.541 -0.9135 -0.0399  0.6416
   98MOL0     N13147   5.953   3.647   6.623  0.0447  0.7396 -0.0837
   98MOL0     C13148   5.553   2.830   7.164 -0.2497 -0.6203 -1.1038
   98MOL0     C13149   5.453   2.737   7.105  0.2554  0.3672  0.1749
   98MOL0     C13150   5.137   2.383   7.143 -0.1818  0.2005  0.3422
   98MOL0     C13151   5.030   2.332   7.215  0.4555 -1.0614 -0.2417
   98MOL0     C13152   4.928   2.248   7.166 -0.6321 -0.0231 -0.4177
   98MOL0     C13153   4.939   2.204   7.035 -0.1783  0.2869 -0.6745
   98MOL0     O13154   4.837   2.127   6.998 -0.2894 -1.1106 -0.3896
   98MOL0     C13155   4.851   2.065   6.867 -0.4295  1.0168  0.6699
   98MOL0     C13156   4.726   1.970   6.828  0.2168 -0.2401  0.2216
   98MOL0     C13157   4.603   2.055   6.833  0.0773 -0.4398  0.2293
   98MOL0     C13158   4.476   1.978   6.844 -0.5214 -0.4376  0.5681
   98MOL0     C13159   4.356   2.064   6.820  0.3093  0.6564  0.4022
   98MOL0     C13160   4.262   2.141   6.823 -0.4395  0.3567 -0.2421
   98MOL0     C13161   5.052   2.243   6.960 -0.0399 -0.1617  0.5016
   98MOL0     C13162   5.149   2.339   7.007  0.2646 -0.5536  0.2222
   98MOL0     H13163   5.452   2.515   7.371  0.8743 -0.0415  0.7912
   98MOL0     H13164   5.618   2.694   7.462  5.1867 -0.1300 -2.1494
   98MOL0     H13165   5.554   3.064   7.299  1.3189  0.8420 -1.1976
   98MOL0     H13166   5.660   3.086   7.441 -2.2815  3.4448 -0.5228
   98MOL0     H13167   5.857   3.080   7.259  0.5500  1.4951  0.9920
   98MOL0     H13168   5.727   3.072   7.150 -0.8844 -1.5704  1.0465
   98MOL0     H13169   5.640   3.293   7.254 -0.4072  0.8818  0.0434
   98MOL0     H13170   5.782   3.292   7.367  1.0242 -2.5261  0.9852
   98MOL0     H13171   5.940   3.314   7.175 -0.4760 -1.4944  1.8433
   98MOL0     H13172   5.804   3.271   7.059 -1.0801 -1.5623  0.5851
   98MOL0     H13173   5.707   3.458   7.051 -0.4864 -2.5207  0.2367
   98MOL0     H13174   5.749   3.521   7.217  0.1297  1.0241 -1.5548
   98MOL0     H13175   5.855   3.662   7.063  2.0109  1.3357  4.7114
   98MOL0     H13176   5.984   3.562   7.141 -0.3197  4.2033  0.5965
   98MOL0     H13177   6.035   3.588   6.901  1.7512 -2.2472 -0.0220
   98MOL0     H13178   5.985   3.416   6.932  1.3260 -0.6443  0.2155
   98MOL0     H13179   5.797   3.622   6.826 -0.6966 -0.4480  0.2797
   98MOL0     H13180   5.783   3.447   6.808  0.8396 -0.6794 -0.3356
   98MOL0     H13181   5.933   3.317   6.652 -0.4443  0.9460  0.5421
   98MOL0     H13182   6.148   3.278   6.467 -1.4736 -0.1145 -0.1420
   98MOL0     H13183   6.131   3.413   6.362  1.7855  1.2302  0.0507
   98MOL0     H13184   6.339   3.439   6.589  4.9099  0.5185 -1.9840
   98MOL0     H13185   6.332   3.528   6.439  3.6280 -0.0971 -1.1028
   98MOL0     H13186   6.475   3.393   6.368  0.6249  0.6784  0.3919
   98MOL0     H13187   6.340   3.276   6.327 -2.7210  0.5285  1.4856
   98MOL0     H13188   6.536   3.165   6.402 -4.7311 -4.5167 -2.2496
   98MOL0     H13189   6.395   3.124   6.491 -0.3146  0.0265 -0.9522
   98MOL0     H13190   6.773   3.282   6.546  2.3082  0.4701  0.1674
   98MOL0     H13191   7.019   3.228   6.558  0.6755 -1.7640 -1.1373
   98MOL0     H13192   7.033   3.213   6.731 -0.7430 -1.0167 -0.3876
   98MOL0     H13193   7.075   3.079   6.629  0.7037  0.7979 -1.5938
   98MOL0     H13194   7.221   2.901   6.563 -2.4802  2.6448 -0.1860
   98MOL0     H13195   7.213   2.745   6.356 -0.2469 -0.8874 -0.1835
   98MOL0     H13196   6.873   2.664   6.242  1.6869  0.4113  0.9128
   98MOL0     H13197   7.011   2.693   6.133 -2.2057  1.6667 -1.7401
   98MOL0     H13198   6.916   2.543   6.001 -0.0226  1.5130  0.9256
   98MOL0     H13199   7.018   2.434   6.092 -0.2739  0.2047 -2.9079
   98MOL0     H13200   6.813   2.367   6.227 -0.5323  1.9969  1.0056
   98MOL0     H13201   6.800   2.338   6.057 -1.4875  1.4948 -0.6322
   98MOL0     H13202   6.676   2.583   6.204 -2.6950 -0.7551  1.7376
   98MOL0     H13203   6.656   2.538   6.031 -2.2259 -1.6678  0.1449
   98MOL0     H13204   6.488   2.478   6.206 -2.4909 -1.3449 -0.6325
   98MOL0     H13205   6.592   2.343   6.266  2.2385  1.8750 -0.3112
   98MOL0     H13206   6.488   2.375   5.993  0.1873 -0.0557 -0.5476
   98MOL0     H13207   6.620   2.265   6.043  0.4467  0.2185  0.2495
   98MOL0     H13208   6.361   2.276   6.187  0.4757  0.4415 -0.9389
   98MOL0     H13209   6.481   2.144   6.186 -0.6688 -0.8966 -0.7034
   98MOL0     H13210   6.436   2.082   5.954  1.0166 -0.4405  2.8411
   98MOL0     H13211   6.303   2.200   5.947 -1.7916 -0.7285  0.5718
   98MOL0     H13212   6.883   2.543   6.510  0.8122 -0.8242 -3.4054
   98MOL0     H13213   6.854   2.689   6.700  0.8046 -0.7331  0.3292
   98MOL0     H13214   6.674   2.891   6.831  1.3842 -0.0137  0.3921
   98MOL0     H13215   6.487   3.026   6.740  0.1525 -1.1199  2.1741
   98MOL0     H13216   5.591   2.916   7.110  2.7205 -0.9366  0.2340
   98MOL0     H13217   5.417   2.752   7.004 -0.2739  1.4464  0.5036
   98MOL0     H13218   5.030   2.352   7.321 -3.2060 -1.3371 -0.0582
   98MOL0     H13219   4.856   2.200   7.232  1.4996 -0.1779  1.9519
   98MOL0     H13220   4.872   2.136   6.786  0.2786 -3.3074 -3.3508
   98MOL0     H13221   4.938   2.001   6.874 -0.3530  0.9309 -0.8139
   98MOL0     H13222   4.724   1.877   6.886  2.2664 -0.7124 -0.3905
   98MOL0     H13223   4.748   1.933   6.728  1.6989  0.7976  0.1305
   98MOL0     H13224   4.608   2.115   6.742 -1.0397 -0.3064  0.2440
   98MOL0     H13225   4.600   2.112   6.926  1.1037  0.1047 -0.0635
   98MOL0     H13226   4.466   1.928   6.940 -0.5533 -0.1742  0.7048
   98MOL0     H13227   4.473   1.909   6.759  0.9820  0.3488 -0.1612
   98MOL0     H13228   4.181   2.210   6.833  0.1002  1.3015 -1.9468
   98MOL0     H13229   5.058   2.203   6.859 -1.3872 -2.0553  1.1061
   98MOL0     H13230   5.228   2.382   6.946 -1.2551 -0.6668 -1.9267
   99MOL0     O13231  10.394  10.002  10.490  0.2667  0.3701 -0.9784
   99MOL0     C13232  10.357  10.108  10.442 -0.3012  0.1525 -0.0852
   99MOL0     O13233  10.336  10.236  10.509 -0.2955  0.0376 -0.4441
   99MOL0     C13234  10.373  10.256  10.646 -0.4857 -0.3891  0.2162
   99MOL0     C13235  10.423  10.171  10.735  0.4501 -0.6385  0.2193
   99MOL0     C13236  10.447  10.214  10.869  0.0789 -0.1753 -0.4388
   99MOL0     C13237  10.414  10.338  10.914  0.3943  0.1063  0.2644
   99MOL0     O13238  10.420  10.354  11.050  0.2056  0.7836 -0.2140
   99MOL0     C13239  10.382  10.478  11.114  0.0499  0.3661  0.4558
   99MOL0     C13240  10.425  10.504  11.252 -0.7451  1.3176 -1.7053
   99MOL0     C13241  10.460  10.372  11.345 -0.3650  0.0829  0.6563
   99MOL0     C13242  10.556  10.405  11.461  0.1200  0.0828  0.0694
   99MOL0     C13243  10.576  10.288  11.554 -0.6304 -1.2502 -0.6913
   99MOL0     C13244  10.592  10.136  11.513 -0.0961 -0.1146 -0.2651
   99MOL0     C13245  10.607  10.058  11.642  0.4622  0.2882  1.0292
   99MOL0     C13246  10.562   9.914  11.621 -0.0428 -0.5276 -0.2767
   99MOL0     N13247  10.604   9.818  11.724  0.2183 -0.8959 -0.1796
   99MOL0     C13248  10.533   9.713  11.763  0.3143 -0.5792 -0.8094
   99MOL0     C13249  10.610   9.652  11.859  0.3311 -0.4122  0.0623
   99MOL0     C13250  10.551   9.542  11.940  0.4583  0.3130 -0.1472
   99MOL0     C13251  10.576   9.399  11.890  0.1975 -0.9827 -0.7012
   99MOL0     C13252  10.502   9.376  11.759  0.1545  0.0691 -0.6853
   99MOL0     C13253  10.545   9.234  11.711 -0.2913 -0.4501 -0.2053
   99MOL0     O13254  10.538   9.209  11.566 -0.1793 -0.6648 -0.3232
   99MOL0     C13255  10.419   9.201  11.502  0.1502 -0.6306  0.5072
   99MOL0     C13256  10.301   9.159  11.567 -0.8140 -0.8776  0.0449
   99MOL0     C13257  10.178   9.149  11.505 -0.9724  0.0334 -0.3209
   99MOL0     C13258  10.067   9.124  11.598 -0.3007  0.0691  0.3290
   99MOL0     C13259  10.161   9.169  11.367  0.5584 -0.2860 -0.5410
   99MOL0     C13260  10.035   9.138  11.286 -0.3406 -0.0769 -0.6972
   99MOL0     O13261   9.920   9.118  11.354 -0.1149  0.1475 -0.9098
   99MOL0     C13262   9.808   9.086  11.288 -0.1228 -0.1534  0.0132
   99MOL0     C13263   9.729   9.194  11.237 -0.4195 -0.1679 -0.7764
   99MOL0     C13264   9.607   9.164  11.176 -0.1150 -0.5484  0.2168
   99MOL0     C13265   9.578   9.026  11.145 -0.3432 -0.7282  0.1024
   99MOL0     O13266   9.467   9.002  11.070  0.9737  0.4047  0.0924
   99MOL0     C13267   9.500   9.001  10.930  1.1919  0.7921 -1.3517
   99MOL0     C13268   9.437   9.116  10.861 -0.1416  0.2118 -0.3518
   99MOL0     C13269   9.489   9.130  10.715 -0.1301 -0.3819  0.5710
   99MOL0     C13270   9.448   9.262  10.636  0.6030  0.7282 -1.3549
   99MOL0     C13271   9.308   9.234  10.577 -0.4956 -0.0298  0.0094
   99MOL0     C13272   9.248   9.379  10.544  0.6666  0.6865 -0.2275
   99MOL0     C13273   9.121   9.364  10.470 -0.2589  0.9334  0.0860
   99MOL0     C13274   9.049   9.499  10.464 -0.1987 -0.8088  0.3299
   99MOL0    Cl13275   8.977   9.557  10.623  0.3158  0.1377 -0.0969
   99MOL0     C13276   9.652   8.921  11.205  1.0728 -0.6735 -0.7217
   99MOL0     C13277   9.776   8.955  11.268  1.2273  0.2371 -0.2862
   99MOL0     O13278  10.050   9.124  11.165 -0.7897  0.2648  0.0165
   99MOL0     C13279  10.276   9.217  11.299 -0.0637  0.5239  0.2242
   99MOL0     C13280  10.408   9.226  11.362 -0.1638  0.2888 -0.6555
   99MOL0     N13281  10.723   9.720  11.881  0.0933 -0.1834 -0.1725
   99MOL0     N13282  10.727   9.810  11.794  0.6855  0.1862  0.0582
   99MOL0     C13283  10.395  10.436  10.814  0.1283 -0.7368 -0.9477
   99MOL0     C13284  10.374  10.393  10.681  0.1808  0.8625  0.2095
   99MOL0     C13285  10.328  10.099  10.298  0.4963 -0.3057  0.4530
   99MOL0     C13286  10.261  10.201  10.234 -0.3301 -0.1913  0.4023
   99MOL0     C13287  10.235  10.194  10.097 -0.2521 -0.0017  0.8099
   99MOL0     C13288  10.281  10.090  10.021  1.0328  0.1253  0.2781
   99MOL0     O13289  10.257  10.108   9.888 -0.2277  1.0113  0.0539
   99MOL0     C13290  10.307  10.021   9.791 -0.3574 -0.3057  0.3468
   99MOL0     C13291  10.456  10.034   9.750  0.0515  0.3547  0.1718
   99MOL0     C13292  10.472  10.012   9.597 -0.8186  0.0434  0.3578
   99MOL0     C13293  10.517  10.140   9.522  0.2234 -0.3815 -0.5887
   99MOL0     C13294  10.537  10.110   9.380  0.3349 -0.9185  0.4971
   99MOL0     C13295  10.574  10.103   9.265 -1.1039 -0.5658  0.6962
   99MOL0     C13296  10.349   9.977  10.078 -0.2409 -0.2571  0.1607
   99MOL0     C13297  10.365   9.985  10.224 -0.0566 -0.3613  0.9051
   99MOL0     H13298  10.433  10.065  10.716  3.3624 -0.6278  1.1741
   99MOL0     H13299  10.484  10.143  10.942  1.4517  1.1441  0.2264
   99MOL0     H13300  10.396  10.561  11.045  1.8337  0.4312  0.8453
   99MOL0     H13301  10.275  10.469  11.136  0.0452  3.2227  2.0219
   99MOL0     H13302  10.513  10.568  11.243 -1.0967  2.2588  0.7843
   99MOL0     H13303  10.345  10.558  11.303 -1.1629 -1.0825  0.3367
   99MOL0     H13304  10.369  10.327  11.386  1.8753 -2.3496  3.3965
   99MOL0     H13305  10.493  10.301  11.268  1.5612 -1.8093  3.0623
   99MOL0     H13306  10.654  10.430  11.420  1.7312 -2.8963  1.7159
   99MOL0     H13307  10.522  10.490  11.521  0.8984  0.7477 -0.4293
   99MOL0     H13308  10.659  10.303  11.623 -2.7488 -1.8488  2.2005
   99MOL0     H13309  10.494  10.286  11.627  0.8205 -2.6481  0.9785
   99MOL0     H13310  10.503  10.102  11.459  0.6212 -2.2283 -0.2063
   99MOL0     H13311  10.680  10.125  11.450  2.2558  1.0721  2.5609
   99MOL0     H13312  10.716  10.052  11.653  0.9970  1.3967 -2.3873
   99MOL0     H13313  10.571  10.104  11.735  0.0828 -2.0102  2.0836
   99MOL0     H13314  10.617   9.892  11.529 -0.2301  0.9975 -0.7773
   99MOL0     H13315  10.458   9.901  11.589  0.1645  0.1116 -1.2371
   99MOL0     H13316  10.434   9.682  11.732 -0.5461  0.1328  1.1170
   99MOL0     H13317  10.586   9.559  12.043 -3.2514  1.7189  1.0406
   99MOL0     H13318  10.442   9.552  11.950  0.5439  0.3000  0.9347
   99MOL0     H13319  10.546   9.326  11.965  0.6189  1.2031  1.7339
   99MOL0     H13320  10.682   9.382  11.870  0.3618 -0.3277 -0.4156
   99MOL0     H13321  10.525   9.457  11.688  3.6115  1.9696  2.2574
   99MOL0     H13322  10.393   9.384  11.763  0.0909  0.0925 -2.0224
   99MOL0     H13323  10.507   9.149  11.769 -1.2001 -1.0841 -1.6574
   99MOL0     H13324  10.649   9.214  11.735 -0.1349  1.7546  1.2635
   99MOL0     H13325  10.296   9.121  11.668 -1.1007 -0.9867 -0.0098
   99MOL0     H13326  10.032   9.022  11.578 -2.3598  0.6842  0.4891
   99MOL0     H13327  10.098   9.126  11.703  2.5553  1.0824 -0.4627
   99MOL0     H13328   9.982   9.190  11.578 -1.2798 -1.1654  0.2771
   99MOL0     H13329   9.772   9.294  11.244  4.3795 -1.7920 -3.2083
   99MOL0     H13330   9.535   9.236  11.139 -0.0851 -1.4603 -1.7283
   99MOL0     H13331   9.609   9.006  10.919  1.2858  0.1810 -0.7345
   99MOL0     H13332   9.465   8.906  10.889  2.0909  1.6001 -4.2326
   99MOL0     H13333   9.330   9.098  10.850 -0.1541  1.4957 -3.3447
   99MOL0     H13334   9.461   9.207  10.917 -4.0567  1.1712  0.0735
   99MOL0     H13335   9.484   9.035  10.662  0.7016  1.0879 -2.3129
   99MOL0     H13336   9.596   9.146  10.728  0.1204 -2.6800  1.9039
   99MOL0     H13337   9.454   9.340  10.713 -0.4683 -0.6766  0.2146
   99MOL0     H13338   9.517   9.277  10.552  0.1880 -1.0465 -2.0366
   99MOL0     H13339   9.237   9.197  10.651 -0.2682  0.4968  0.5002
   99MOL0     H13340   9.316   9.168  10.490  2.7575  2.4193 -1.7429
   99MOL0     H13341   9.239   9.438  10.636  0.5294  2.3341 -1.2695
   99MOL0     H13342   9.317   9.441  10.487  1.0131  1.8041  1.3328
   99MOL0     H13343   9.053   9.283  10.498  1.2599 -0.6547 -0.6118
   99MOL0     H13344   9.146   9.335  10.367  1.3802  0.3248  0.6264
   99MOL0     H13345   8.973   9.497  10.385  0.6552  0.7812 -0.5872
   99MOL0     H13346   9.123   9.567  10.419  0.7417 -0.2869  2.5607
   99MOL0     H13347   9.618   8.819  11.194 -3.1618  0.6275 -1.3897
   99MOL0     H13348   9.836   8.879  11.317 -1.0883 -1.9051 -0.5452
   99MOL0     H13349  10.288   9.236  11.193 -1.7688 -2.6363 -0.6877
   99MOL0     H13350  10.493   9.259  11.303  0.1063  2.0937  0.6579
   99MOL0     H13351  10.360  10.534  10.844  1.2475  0.2475 -2.6807
   99MOL0     H13352  10.329  10.453  10.602 -0.4949 -0.2793 -0.2988
   99MOL0     H13353  10.234  10.289  10.291  0.0082  1.2729 -1.5663
   99MOL0     H13354  10.191  10.281  10.050 -0.0651 -0.1760  0.3094
   99MOL0     H13355  10.281   9.920   9.823  0.9057 -0.8809 -0.3783
   99MOL0     H13356  10.236  10.039   9.710 -1.1711 -2.3502  0.5446
   99MOL0     H13357  10.514   9.964   9.811  1.9291  0.3015 -1.5675
   99MOL0     H13358  10.485  10.138   9.766  2.5176 -0.2591  0.0865
   99MOL0     H13359  10.382   9.980   9.544 -0.9295  0.9414 -0.0249
   99MOL0     H13360  10.549   9.936   9.584 -3.1182 -2.1563 -1.2845
   99MOL0     H13361  10.614  10.177   9.559 -0.2151 -0.1815  0.4059
   99MOL0     H13362  10.448  10.224   9.535  1.4331  0.9770 -2.3532
   99MOL0     H13363  10.625  10.111   9.172 -1.5642  5.7254  0.4974
   99MOL0     H13364  10.391   9.890  10.027  1.9247  0.9674 -0.2482
   99MOL0     H13365  10.418   9.904  10.274 -1.6783 -2.7892 -1.0667
  100MOL0     O13366   4.020   1.638   0.556  0.2922 -0.2924  0.2829
  100MOL0     C13367   4.107   1.551   0.550  0.4160  0.1552 -0.1464
  100MOL0     O13368   4.090   1.427   0.478  1.0126 -1.0930  0.0993
  100MOL0     C13369   3.972   1.409   0.408 -0.8105  0.0821 -0.1107
  100MOL0     C13370   3.940   1.483   0.295  0.5345 -0.7065  0.5251
  100MOL0     C13371   3.812   1.464   0.242  0.4141  0.3576 -0.2394
  100MOL0     C13372   3.719   1.374   0.301 -0.2373 -0.1379 -0.6940
  100MOL0     O13373   3.587   1.351   0.250 -0.7326  0.8585 -0.1236
  100MOL0     C13374   3.549   1.422   0.131  0.4829 -0.0713  0.9370
  100MOL0     C13375   3.396   1.376   0.105 -0.9311 -0.2255 -0.3692
  100MOL0     C13376   3.335   1.450  -0.015 -0.7104  0.2842  0.2355
  100MOL0     C13377   3.183   1.419  -0.028  0.7202  0.4438 -0.3452
  100MOL0     C13378   3.129   1.419  -0.177 -0.2837  0.0973  0.5704
  100MOL0     C13379   2.987   1.370  -0.205 -0.2212 -0.6194  0.3820
  100MOL0     C13380   2.882   1.437  -0.111 -0.0383  0.9356 -0.9982
  100MOL0     C13381   2.741   1.429  -0.156  0.2281  0.6968 -0.8857
  100MOL0     N13382   2.662   1.505  -0.059 -0.6590  0.3650  0.5136
  100MOL0     C13383   2.579   1.461   0.039 -1.1841  0.8540 -0.2983
  100MOL0     C13384   2.509   1.568   0.072  0.4238  0.4936  0.0918
  100MOL0     C13385   2.401   1.581   0.175  0.2966  0.1582 -0.4018
  100MOL0     C13386   2.462   1.682   0.280  1.1956  0.0070 -0.9075
  100MOL0     C13387   2.343   1.739   0.359  1.4425 -0.3458  0.4622
  100MOL0     C13388   2.370   1.886   0.407 -0.2057  0.6021  0.2218
  100MOL0     O13389   2.493   1.903   0.487  0.5204 -0.4131  0.1332
  100MOL0     C13390   2.571   2.019   0.492 -0.5344 -0.5391  0.1777
  100MOL0     C13391   2.683   2.017   0.575 -0.1940 -0.2865 -0.1467
  100MOL0     C13392   2.771   2.127   0.599  0.8621 -0.5228 -0.6590
  100MOL0     C13393   2.891   2.111   0.693 -0.0391 -0.0850 -0.2219
  100MOL0     C13394   2.737   2.258   0.545 -0.0970  0.3678 -0.0346
  100MOL0     C13395   2.831   2.368   0.545 -0.0059  0.2053 -0.7514
  100MOL0     O13396   2.793   2.493   0.588  0.2742  0.1582  0.7215
  100MOL0     C13397   2.878   2.603   0.556 -0.2903  0.0114  0.1874
  100MOL0     C13398   2.942   2.676   0.660  0.8139  0.8378  0.3510
  100MOL0     C13399   3.021   2.788   0.627  0.1738 -0.3903 -0.0333
  100MOL0     C13400   3.032   2.828   0.492 -0.0149 -0.1895  0.4958
  100MOL0     O13401   3.109   2.929   0.464 -0.3512  0.1057 -0.4634
  100MOL0     C13402   3.064   3.042   0.393 -1.4544  1.1120 -0.9046
  100MOL0     C13403   3.178   3.142   0.408  0.4203 -0.7459  0.6208
  100MOL0     C13404   3.180   3.276   0.330 -0.1649  0.3262 -0.8841
  100MOL0     C13405   3.045   3.352   0.334  0.6666 -0.1610  1.0920
  100MOL0     C13406   3.075   3.503   0.299 -0.2733 -0.4814 -0.0121
  100MOL0     C13407   2.938   3.578   0.270  0.1137 -0.3447 -0.7802
  100MOL0     C13408   2.954   3.727   0.250 -0.3040 -0.9920  0.7758
  100MOL0     C13409   2.941   3.774   0.097  0.4650  0.0911 -0.5130
  100MOL0    Cl13410   2.776   3.750   0.029  0.0488  0.4438  0.0045
  100MOL0     C13411   2.967   2.754   0.392 -0.8265  1.0848 -0.6840
  100MOL0     C13412   2.884   2.649   0.428  0.4830  0.1038 -0.0524
  100MOL0     O13413   2.938   2.349   0.501 -0.5675  0.7517  0.1052
  100MOL0     C13414   2.617   2.263   0.468 -0.0706  0.4356  0.3336
  100MOL0     C13415   2.543   2.146   0.440 -0.0354 -0.2566  0.3649
  100MOL0     N13416   2.550   1.677   0.003 -0.4642  0.1065  0.9650
  100MOL0     N13417   2.634   1.631  -0.082  0.0943 -0.0769  0.5555
  100MOL0     C13418   3.752   1.303   0.414 -0.8823  0.6955 -0.0083
  100MOL0     C13419   3.887   1.310   0.451  0.0578  0.0239 -0.0811
  100MOL0     C13420   4.233   1.579   0.619 -0.2635 -0.8294  0.2866
  100MOL0     C13421   4.339   1.491   0.618  0.1419  0.8121  0.5315
  100MOL0     C13422   4.462   1.508   0.682 -0.2348  0.1861 -0.3740
  100MOL0     C13423   4.488   1.630   0.735  0.0807 -0.6037  0.3827
  100MOL0     O13424   4.615   1.634   0.781  0.3401 -0.1764  1.0586
  100MOL0     C13425   4.683   1.765   0.788 -0.6643 -0.1194  0.1102
  100MOL0     C13426   4.645   1.829   0.925 -0.8845  0.1401 -0.3523
  100MOL0     C13427   4.674   1.742   1.046  0.1272 -0.4876 -0.3511
  100MOL0     C13428   4.648   1.826   1.166 -1.2361 -0.3287  0.4631
  100MOL0     C13429   4.634   1.753   1.294  0.3473 -1.9771  0.8747
  100MOL0     C13430   4.627   1.700   1.399  0.8802 -0.1230  0.0928
  100MOL0     C13431   4.388   1.729   0.740 -0.2333 -0.3035  0.3459
  100MOL0     C13432   4.262   1.701   0.689 -0.3549 -0.6278 -0.2470
  100MOL0     H13433   4.002   1.561   0.252 -0.8647  1.0623  1.5386
  100MOL0     H13434   3.777   1.523   0.158  0.2410 -0.9962 -1.1565
  100MOL0     H13435   3.556   1.530   0.149 -2.8077 -0.1784  3.7348
  100MOL0     H13436   3.607   1.382   0.047  1.7382  0.5004  1.4982
  100MOL0     H13437   3.384   1.268   0.095 -3.2753 -0.3626  2.4163
  100MOL0     H13438   3.332   1.389   0.194  0.3913  2.6031  0.3093
  100MOL0     H13439   3.347   1.559  -0.014  1.0616  0.1264 -0.5440
  100MOL0     H13440   3.389   1.419  -0.105 -1.5781  0.4073 -0.3409
  100MOL0     H13441   3.161   1.322   0.017  0.8919  0.8299  0.6089
  100MOL0     H13442   3.121   1.488   0.030 -2.2617 -1.8488 -0.5915
  100MOL0     H13443   3.132   1.522  -0.214  0.4740 -0.5617 -1.3458
  100MOL0     H13444   3.198   1.365  -0.243 -2.7805 -2.2885 -0.2468
  100MOL0     H13445   2.952   1.396  -0.305 -0.6667 -0.4971  0.5671
  100MOL0     H13446   2.967   1.262  -0.209 -1.9262 -0.3169  0.0489
  100MOL0     H13447   2.890   1.384  -0.016 -0.6838 -0.8156 -1.8738
  100MOL0     H13448   2.907   1.543  -0.105 -0.9244  1.2591 -2.4305
  100MOL0     H13449   2.710   1.324  -0.152  2.3515 -0.0223  3.7505
  100MOL0     H13450   2.738   1.474  -0.255 -0.6774 -1.1719 -1.7707
  100MOL0     H13451   2.562   1.364   0.086 -4.0032  1.2202 -0.3840
  100MOL0     H13452   2.308   1.625   0.139 -0.7160  0.0820  1.9267
  100MOL0     H13453   2.381   1.490   0.233 -0.9352  1.0675  0.6612
  100MOL0     H13454   2.509   1.766   0.229 -1.2896  1.0677 -1.6081
  100MOL0     H13455   2.544   1.642   0.341  0.1000  0.1564  0.7503
  100MOL0     H13456   2.319   1.687   0.452 -1.1943  1.7570  1.0852
  100MOL0     H13457   2.255   1.731   0.296  3.6545  0.2434 -2.9893
  100MOL0     H13458   2.294   1.908   0.482  0.2681 -0.7731  1.1328
  100MOL0     H13459   2.369   1.949   0.317  0.6549 -1.2475 -1.1551
  100MOL0     H13460   2.709   1.918   0.609  1.0374 -0.5146 -1.6170
  100MOL0     H13461   2.961   2.195   0.693  0.5230 -0.5206  1.4926
  100MOL0     H13462   2.857   2.087   0.794 -0.1385 -3.4307 -0.9373
  100MOL0     H13463   2.945   2.023   0.659  1.8964  1.1431 -0.4745
  100MOL0     H13464   2.935   2.633   0.759 -0.5324 -0.5112 -0.2894
  100MOL0     H13465   3.064   2.853   0.702 -0.2528  2.0604 -1.7534
  100MOL0     H13466   3.055   3.001   0.292 -0.9538 -3.9620  0.8323
  100MOL0     H13467   2.970   3.085   0.430 -0.9353  2.6463 -1.2667
  100MOL0     H13468   3.189   3.166   0.514  0.4383  3.4585 -0.1484
  100MOL0     H13469   3.273   3.094   0.383 -0.1941 -1.8489  0.3523
  100MOL0     H13470   3.205   3.241   0.229  1.8293 -2.2011  0.3708
  100MOL0     H13471   3.252   3.351   0.363  1.6793 -0.7068 -2.3227
  100MOL0     H13472   2.978   3.304   0.262 -1.3613  1.8044  1.5282
  100MOL0     H13473   3.011   3.343   0.438 -1.3889  0.9780  0.5635
  100MOL0     H13474   3.135   3.497   0.207 -1.9001 -2.3930 -1.0205
  100MOL0     H13475   3.129   3.540   0.387  0.1825 -0.2861 -0.3691
  100MOL0     H13476   2.898   3.540   0.176 -1.7521 -1.4740  0.4104
  100MOL0     H13477   2.864   3.556   0.347 -0.6640  2.2392 -0.6996
  100MOL0     H13478   3.055   3.745   0.289 -0.9476  2.2727  1.2062
  100MOL0     H13479   2.895   3.799   0.308  0.5555  1.8840 -1.6624
  100MOL0     H13480   3.016   3.716   0.042  5.3365  2.8760  2.4515
  100MOL0     H13481   2.981   3.875   0.097 -0.7696  0.6941  2.3078
  100MOL0     H13482   2.980   2.772   0.286 -0.7298  1.0609 -0.6764
  100MOL0     H13483   2.845   2.587   0.347  1.1870 -1.6200  0.8606
  100MOL0     H13484   2.599   2.358   0.419  3.5466  0.8827 -0.3748
  100MOL0     H13485   2.459   2.161   0.374  1.2690 -1.8124 -1.7631
  100MOL0     H13486   3.682   1.250   0.477 -0.6725 -0.6822 -0.8826
  100MOL0     H13487   3.902   1.241   0.533 -2.5814  0.4732  0.8722
  100MOL0     H13488   4.318   1.395   0.572 -2.2557  0.9263  1.2341
  100MOL0     H13489   4.533   1.427   0.689 -0.4496 -0.0371 -0.7920
  100MOL0     H13490   4.792   1.757   0.784 -0.4956  0.7304  2.1381
  100MOL0     H13491   4.659   1.827   0.701  0.9509  1.2069  0.5604
  100MOL0     H13492   4.539   1.857   0.929 -0.5394  1.3777  0.4643
  100MOL0     H13493   4.707   1.919   0.925 -1.2255  0.4263  2.0302
  100MOL0     H13494   4.776   1.702   1.046  0.2385 -0.2087  0.1425
  100MOL0     H13495   4.610   1.654   1.033 -4.6229  2.4727  0.2727
  100MOL0     H13496   4.565   1.897   1.157  1.4556  3.1792  0.9115
  100MOL0     H13497   4.736   1.891   1.168 -1.6143  0.1743  0.8912
  100MOL0     H13498   4.610   1.661   1.497 -2.1597 -1.0567 -0.6890
  100MOL0     H13499   4.397   1.824   0.793 -2.3782  0.5431 -0.7137
  100MOL0     H13500   4.190   1.781   0.703 -1.3578 -1.7217  1.1148
  101MOL0     O13501   0.135   1.478   9.397 -0.3300 -0.2255  0.1017
  101MOL0     C13502   0.017   1.476   9.369 -0.5311 -1.2171  0.3239
  101MOL0     O13503  -0.080   1.400   9.430  0.2580  0.0907  0.4918
  101MOL0     C13504  -0.041   1.330   9.545 -0.0559 -0.6966  1.0872
  101MOL0     C13505   0.001   1.194   9.536  0.0156  1.5115  0.8789
  101MOL0     C13506   0.019   1.121   9.652 -0.1866 -0.0332 -0.3016
  101MOL0     C13507  -0.006   1.174   9.778  0.9599 -0.2668 -0.3034
  101MOL0     O13508   0.016   1.086   9.882 -0.0641  0.0585 -0.2382
  101MOL0     C13509  -0.075   1.081   9.979  0.0548 -0.5105 -0.4591
  101MOL0     C13510  -0.216   1.064   9.927 -0.0076  0.7124 -1.3017
  101MOL0     C13511  -0.304   1.029  10.045 -0.2327 -0.0638  0.7401
  101MOL0     C13512  -0.330   1.157  10.139  0.4311 -0.1159  0.1880
  101MOL0     C13513  -0.406   1.143  10.268 -0.4646  0.1194  0.2809
  101MOL0     C13514  -0.559   1.125  10.246  0.6216  0.7189 -0.6639
  101MOL0     C13515  -0.639   1.147  10.374  0.0855 -0.3565  0.4187
  101MOL0     C13516  -0.603   1.047  10.482  0.1979  0.7882  1.1879
  101MOL0     N13517  -0.702   1.056  10.588  0.1011 -0.3107 -0.5847
  101MOL0     C13518  -0.712   1.158  10.682  0.4624  0.2375  0.6560
  101MOL0     C13519  -0.827   1.150  10.739 -0.3799  0.5248  0.0025
  101MOL0     C13520  -0.876   1.233  10.864 -0.2141  0.3586  0.8398
  101MOL0     C13521  -0.995   1.166  10.934  0.3399  0.7135 -0.0641
  101MOL0     C13522  -1.137   1.200  10.890 -0.2728  0.2099 -0.9177
  101MOL0     C13523  -1.182   1.337  10.930 -0.0820  0.0206 -0.8671
  101MOL0     O13524  -1.235   1.407  10.816 -0.3031  0.2662 -0.6792
  101MOL0     C13525  -1.347   1.490  10.843  0.6534 -0.3967  0.1773
  101MOL0     C13526  -1.454   1.502  10.748 -0.0824 -0.4976  0.3996
  101MOL0     C13527  -1.573   1.578  10.773  0.9275 -1.2318  0.3565
  101MOL0     C13528  -1.684   1.573  10.668 -0.6847  0.3306 -0.5753
  101MOL0     C13529  -1.582   1.656  10.898 -0.8926 -0.6243  0.8700
  101MOL0     C13530  -1.696   1.738  10.939  0.3879  0.7796 -0.6574
  101MOL0     O13531  -1.718   1.757  11.073  0.4525  0.3750  0.3000
  101MOL0     C13532  -1.805   1.859  11.101  0.1090 -0.8973  1.0207
  101MOL0     C13533  -1.755   1.977  11.154  0.3155 -0.0865  0.4714
  101MOL0     C13534  -1.843   2.082  11.190  0.3681  0.2952 -0.8724
  101MOL0     C13535  -1.981   2.075  11.163  0.4909  0.0839 -0.8188
  101MOL0     O13536  -2.071   2.168  11.182  0.1042  0.3915  0.5459
  101MOL0     C13537  -2.031   2.268  11.277  0.4308  0.0559 -0.4766
  101MOL0     C13538  -2.135   2.366  11.318 -0.0169 -0.1352  1.2411
  101MOL0     C13539  -2.091   2.473  11.422 -0.3034 -0.1251  0.2423
  101MOL0     C13540  -2.196   2.584  11.404  0.8215  0.2064  0.3257
  101MOL0     C13541  -2.182   2.703  11.503  0.0925 -0.3391 -0.7877
  101MOL0     C13542  -2.039   2.756  11.507  0.2179  0.8087 -0.7268
  101MOL0     C13543  -2.030   2.905  11.552 -0.0914  0.2606 -0.1311
  101MOL0     C13544  -2.031   2.911  11.711 -1.0009 -0.6461  0.1130
  101MOL0    Cl13545  -2.194   2.900  11.778  0.3592  0.4508 -0.0379
  101MOL0     C13546  -2.033   1.960  11.108  0.0559  0.8389  0.0375
  101MOL0     C13547  -1.946   1.853  11.070 -0.7386 -0.7894 -0.6112
  101MOL0     O13548  -1.779   1.769  10.848 -0.8187 -0.1849 -0.7319
  101MOL0     C13549  -1.471   1.639  10.980 -0.5822  0.2905 -0.8470
  101MOL0     C13550  -1.361   1.564  10.962  1.0388  1.0012  0.0268
  101MOL0     N13551  -0.878   1.028  10.692 -0.1119  0.2480  0.3575
  101MOL0     N13552  -0.801   0.975  10.601  0.4089 -0.2114  0.4572
  101MOL0     C13553  -0.041   1.311   9.785  0.5805 -0.9026 -0.3726
  101MOL0     C13554  -0.053   1.389   9.670 -0.0007 -0.6140 -0.9772
  101MOL0     C13555  -0.026   1.567   9.257 -1.0409  1.0687 -1.0921
  101MOL0     C13556  -0.152   1.564   9.208  0.0831 -0.1267 -0.1297
  101MOL0     C13557  -0.203   1.657   9.113  0.4949 -0.8901  0.6302
  101MOL0     C13558  -0.115   1.766   9.071  0.8885  0.8852 -0.1836
  101MOL0     O13559  -0.133   1.859   8.965  0.3476  0.3336 -0.2101
  101MOL0     C13560  -0.255   1.857   8.875 -0.4048 -0.5660 -0.5119
  101MOL0     C13561  -0.338   1.968   8.926  0.6264  0.7309  0.2938
  101MOL0     C13562  -0.483   1.944   8.880 -0.9121 -0.1122  0.3859
  101MOL0     C13563  -0.566   2.071   8.865  0.8520 -0.3102  0.0022
  101MOL0     C13564  -0.558   2.155   8.985  0.1055 -0.0952  0.8464
  101MOL0     C13565  -0.521   2.221   9.082 -0.3994  0.7620 -0.0591
  101MOL0     C13566   0.008   1.773   9.136 -0.1909 -0.3957 -0.5853
  101MOL0     C13567   0.057   1.672   9.223  0.5577  0.4855 -0.0722
  101MOL0     H13568   0.027   1.146   9.443 -1.0530 -1.1210  1.8394
  101MOL0     H13569   0.059   1.020   9.654  2.1892  0.8487 -0.6670
  101MOL0     H13570  -0.066   0.996  10.047 -2.4275 -0.1022  0.5143
  101MOL0     H13571  -0.059   1.167  10.045 -0.1461 -1.9484  1.5768
  101MOL0     H13572  -0.252   1.151   9.872 -1.1887 -0.1162 -1.8812
  101MOL0     H13573  -0.209   0.977   9.861  2.0423  0.2519 -0.5564
  101MOL0     H13574  -0.401   0.984  10.024 -0.1945 -0.4974  1.4466
  101MOL0     H13575  -0.275   0.944  10.106 -4.2196 -1.1001  1.5241
  101MOL0     H13576  -0.231   1.175  10.181 -0.6158 -2.8135  4.4400
  101MOL0     H13577  -0.366   1.236  10.073  0.3785  0.4882  0.9284
  101MOL0     H13578  -0.373   1.061  10.333 -0.3061 -0.3551 -0.3849
  101MOL0     H13579  -0.396   1.231  10.333 -3.0242  1.0681 -0.4806
  101MOL0     H13580  -0.592   1.211  10.187 -1.1429  3.5768  3.8989
  101MOL0     H13581  -0.582   1.029  10.199  1.3198  0.5255 -0.6235
  101MOL0     H13582  -0.612   1.249  10.401 -1.2690 -0.1164  0.9845
  101MOL0     H13583  -0.745   1.135  10.350 -0.3439  2.7682  0.3453
  101MOL0     H13584  -0.502   1.071  10.514  0.7138  0.4818 -0.1306
  101MOL0     H13585  -0.611   0.949  10.434  2.2452  0.4862  1.3689
  101MOL0     H13586  -0.637   1.236  10.686  1.0616  0.0174 -2.7663
  101MOL0     H13587  -0.804   1.249  10.945  0.7082  0.8535 -0.0557
  101MOL0     H13588  -0.917   1.329  10.831  1.2037  0.3331 -1.1532
  101MOL0     H13589  -0.982   1.182  11.042  1.1941 -1.7306  0.2825
  101MOL0     H13590  -0.990   1.057  10.927 -1.6533  0.6252 -0.5791
  101MOL0     H13591  -1.207   1.125  10.928  0.1130 -0.5531 -1.6523
  101MOL0     H13592  -1.141   1.197  10.780 -3.3054 -0.5574 -0.8766
  101MOL0     H13593  -1.096   1.388  10.974  0.2834 -1.5889  0.3743
  101MOL0     H13594  -1.261   1.335  11.004 -0.2359  1.0106 -0.9887
  101MOL0     H13595  -1.441   1.452  10.652 -0.9733 -0.4434  0.2450
  101MOL0     H13596  -1.668   1.496  10.591 -3.9851 -0.7005 -0.3579
  101MOL0     H13597  -1.778   1.560  10.722  0.9329 -1.5673  2.0562
  101MOL0     H13598  -1.693   1.665  10.610 -2.4166  0.7669  0.3281
  101MOL0     H13599  -1.652   2.001  11.179 -0.0150 -0.3128  2.1606
  101MOL0     H13600  -1.783   2.159  11.238 -0.1620 -1.4951  3.0077
  101MOL0     H13601  -2.000   2.222  11.371 -1.1083 -0.1680 -0.0441
  101MOL0     H13602  -1.946   2.319  11.230 -0.2682 -0.3594 -2.2936
  101MOL0     H13603  -2.179   2.406  11.227  2.3370  1.4223  0.7276
  101MOL0     H13604  -2.219   2.319  11.371 -0.2424  0.8570  1.7763
  101MOL0     H13605  -1.991   2.509  11.396  0.5013 -1.5138  1.2757
  101MOL0     H13606  -2.081   2.454  11.529  1.3888  3.9989  1.0135
  101MOL0     H13607  -2.178   2.621  11.303  2.1946  0.0751  0.5093
  101MOL0     H13608  -2.301   2.553  11.413  1.5023 -1.6787  3.0299
  101MOL0     H13609  -2.223   2.681  11.602  0.7664  0.4604 -0.3303
  101MOL0     H13610  -2.244   2.781  11.457 -1.0297 -1.3315 -1.0276
  101MOL0     H13611  -1.987   2.697  11.583 -1.5717 -1.1190 -0.9163
  101MOL0     H13612  -1.991   2.766  11.409 -0.9084  2.3024 -1.1632
  101MOL0     H13613  -2.101   2.972  11.503 -1.3032 -1.4226 -0.7998
  101MOL0     H13614  -1.931   2.938  11.517 -0.3230  1.0504 -0.0542
  101MOL0     H13615  -1.981   3.006  11.731  0.3234  0.2080 -5.4436
  101MOL0     H13616  -1.964   2.833  11.748 -0.4550  0.6154  1.9193
  101MOL0     H13617  -2.141   1.949  11.118  0.1509 -0.8666 -0.5253
  101MOL0     H13618  -1.979   1.758  11.027  1.5627 -1.7410 -0.4076
  101MOL0     H13619  -1.463   1.695  11.072 -4.3880  0.1323 -0.2372
  101MOL0     H13620  -1.289   1.571  11.043  1.3528  2.9105 -0.3630
  101MOL0     H13621  -0.055   1.345   9.887 -0.3493 -2.4716  0.0548
  101MOL0     H13622  -0.094   1.490   9.674 -0.4017 -0.6552 -2.9324
  101MOL0     H13623  -0.226   1.490   9.239 -1.0727  0.5863 -1.0949
  101MOL0     H13624  -0.301   1.659   9.067  0.7205 -1.2674  0.1235
  101MOL0     H13625  -0.224   1.868   8.771 -3.0205 -0.5740 -1.3883
  101MOL0     H13626  -0.304   1.759   8.878  0.0169 -0.9166 -3.0319
  101MOL0     H13627  -0.308   2.064   8.883  0.4776  0.3178 -0.7729
  101MOL0     H13628  -0.347   1.978   9.035 -1.2747 -4.9158  1.0066
  101MOL0     H13629  -0.529   1.874   8.951 -1.7310  0.3044  0.2656
  101MOL0     H13630  -0.479   1.894   8.783  2.0329 -2.3909  1.5134
  101MOL0     H13631  -0.671   2.052   8.839  1.3325 -2.9758 -0.2898
  101MOL0     H13632  -0.528   2.135   8.784  3.2693 -1.4880  0.1122
  101MOL0     H13633  -0.495   2.293   9.157 -2.9731  1.3408  0.3453
  101MOL0     H13634   0.079   1.849   9.104  0.6037 -1.0406 -0.3953
  101MOL0     H13635   0.158   1.690   9.258  0.9109 -2.7255  0.8870
  102MOL0     O13636   6.689   6.305   8.949 -0.4114  0.1290  0.8422
  102MOL0     C13637   6.797   6.359   8.920 -0.3167 -0.3920 -1.1506
  102MOL0     O13638   6.841   6.378   8.797  0.2844 -0.2558  0.2762
  102MOL0     C13639   6.784   6.324   8.684 -0.5922 -0.1790 -0.5113
  102MOL0     C13640   6.848   6.351   8.563 -0.4337  0.9266 -0.4117
  102MOL0     C13641   6.819   6.301   8.437 -0.8208  0.4807  0.6755
  102MOL0     C13642   6.713   6.219   8.429  0.1694 -0.6194  0.0960
  102MOL0     O13643   6.672   6.156   8.314  1.1273  0.0850 -0.1902
  102MOL0     C13644   6.684   6.230   8.193  0.3354  0.1417  0.0469
  102MOL0     C13645   6.590   6.169   8.082  0.6674  0.0608 -0.1824
  102MOL0     C13646   6.447   6.189   8.116  0.6687 -0.8895 -0.2258
  102MOL0     C13647   6.346   6.132   8.015 -0.7137 -0.7633 -0.8831
  102MOL0     C13648   6.203   6.139   8.058 -0.1501  0.1185  0.0363
  102MOL0     C13649   6.102   6.076   7.959 -0.2712 -0.3697 -0.4070
  102MOL0     C13650   6.099   6.134   7.812 -0.1373 -0.2365 -0.0328
  102MOL0     C13651   6.109   6.290   7.810  1.0693  0.7239  0.4916
  102MOL0     N13652   6.094   6.365   7.685 -0.7832 -0.3168 -0.4590
  102MOL0     C13653   6.002   6.329   7.584  0.3957 -0.3889  0.8219
  102MOL0     C13654   5.998   6.449   7.525 -0.8767 -1.7223  0.3501
  102MOL0     C13655   5.918   6.477   7.401 -0.6080  0.1623  0.7263
  102MOL0     C13656   5.886   6.350   7.305  0.8772 -0.0993  0.6691
  102MOL0     C13657   5.803   6.381   7.174 -0.2403  0.1849  0.0279
  102MOL0     C13658   5.836   6.510   7.104  0.0671  0.9278 -0.8847
  102MOL0     O13659   5.762   6.530   6.991  0.2820 -0.3106  0.8655
  102MOL0     C13660   5.819   6.517   6.868 -0.4251  0.1681  0.6630
  102MOL0     C13661   5.934   6.435   6.833  0.0632 -0.2780  0.2968
  102MOL0     C13662   5.982   6.433   6.697 -0.4333 -0.0925  0.1154
  102MOL0     C13663   6.117   6.362   6.672  0.5689  0.3482 -0.4592
  102MOL0     C13664   5.910   6.500   6.598 -0.0833 -0.7489 -0.1309
  102MOL0     C13665   5.938   6.494   6.448 -0.0897  0.1250  0.2964
  102MOL0     O13666   6.014   6.393   6.396  0.5094 -0.6716  0.0214
  102MOL0     C13667   6.030   6.378   6.260  0.2902  0.3796  0.5602
  102MOL0     C13668   6.100   6.462   6.190 -0.3832  0.2836  0.3888
  102MOL0     C13669   6.132   6.442   6.059 -0.3264  0.6339 -0.2479
  102MOL0     C13670   6.092   6.318   5.999  0.3380 -0.2381  0.6653
  102MOL0     O13671   6.126   6.284   5.870 -0.0126 -0.1776  0.0946
  102MOL0     C13672   6.018   6.233   5.795 -0.1776  0.1099  0.7413
  102MOL0     C13673   5.904   6.344   5.789 -0.1079  0.6413  0.1028
  102MOL0     C13674   5.816   6.353   5.656 -0.0063  1.0234 -0.4986
  102MOL0     C13675   5.784   6.209   5.614  0.2866  0.0668  1.0336
  102MOL0     C13676   5.671   6.212   5.512 -0.1614 -0.8236 -0.2058
  102MOL0     C13677   5.680   6.094   5.420 -0.3828 -0.2577 -0.2984
  102MOL0     C13678   5.579   6.099   5.307  0.0661 -0.4761 -0.3719
  102MOL0     C13679   5.630   6.178   5.182  0.1519 -0.0926 -0.0329
  102MOL0    Cl13680   5.525   6.153   5.037  0.1352 -0.0887 -0.2241
  102MOL0     C13681   6.021   6.230   6.081 -0.2140 -0.2351  1.0955
  102MOL0     C13682   5.992   6.255   6.206  0.1797  0.0681 -0.7393
  102MOL0     O13683   5.879   6.576   6.375 -0.1035  0.0403 -0.2940
  102MOL0     C13684   5.806   6.580   6.637  0.1706 -0.0988 -0.3046
  102MOL0     C13685   5.758   6.590   6.772 -0.3116  0.1059  0.6245
  102MOL0     N13686   6.062   6.546   7.589 -0.4410 -0.1741  0.1878
  102MOL0     N13687   6.122   6.492   7.686 -0.2212 -1.2369 -0.1081
  102MOL0     C13688   6.629   6.201   8.544 -0.3647  0.8943 -0.6206
  102MOL0     C13689   6.660   6.269   8.668  0.2492 -0.8186 -0.0713
  102MOL0     C13690   6.889   6.394   9.039  0.1197  0.8914 -0.0771
  102MOL0     C13691   6.994   6.484   9.024 -0.5235 -0.2489 -0.3902
  102MOL0     C13692   7.094   6.503   9.121  0.5648  0.5056  0.7773
  102MOL0     C13693   7.076   6.447   9.248 -0.0527 -0.3641 -1.0374
  102MOL0     O13694   7.179   6.466   9.334  0.0106 -0.3023 -0.0146
  102MOL0     C13695   7.168   6.444   9.475  0.4540  0.6974  0.3081
  102MOL0     C13696   7.055   6.527   9.530  0.0906 -0.4412  0.8533
  102MOL0     C13697   7.085   6.679   9.518 -0.1119  0.0073  0.1328
  102MOL0     C13698   6.989   6.767   9.599  0.7161 -0.0940 -0.2151
  102MOL0     C13699   7.036   6.904   9.641  0.3477  0.8612 -0.0442
  102MOL0     C13700   7.071   7.014   9.644  0.1362 -0.2686  0.8292
  102MOL0     C13701   6.957   6.369   9.265  0.4832 -0.9857  0.0452
  102MOL0     C13702   6.871   6.348   9.166 -0.1358  0.7472  0.1879
  102MOL0     H13703   6.930   6.418   8.586  0.6819 -0.9970  1.5795
  102MOL0     H13704   6.882   6.322   8.351 -1.0024 -0.7156  0.2270
  102MOL0     H13705   6.654   6.335   8.203  2.9258  1.1408 -1.6736
  102MOL0     H13706   6.789   6.232   8.162  1.9217 -0.2660  4.5820
  102MOL0     H13707   6.619   6.214   7.986  0.7488  1.4063  0.4488
  102MOL0     H13708   6.617   6.064   8.091 -0.5462 -0.3537 -1.1567
  102MOL0     H13709   6.427   6.139   8.211 -0.7600 -1.6575 -0.9184
  102MOL0     H13710   6.435   6.297   8.131  0.6762 -0.8870 -0.2398
  102MOL0     H13711   6.362   6.166   7.913  3.2485  1.5617  0.3032
  102MOL0     H13712   6.373   6.026   8.008  1.3973 -0.1800 -2.5915
  102MOL0     H13713   6.197   6.082   8.152  1.3346  2.9155  1.9879
  102MOL0     H13714   6.173   6.240   8.085 -1.2118 -0.6674  2.0640
  102MOL0     H13715   6.129   5.970   7.959  0.0585 -0.2880  0.2872
  102MOL0     H13716   6.007   6.099   8.009  1.4475  4.7870  1.0425
  102MOL0     H13717   6.190   6.105   7.758  0.3298 -0.7751  1.0003
  102MOL0     H13718   6.003   6.101   7.771 -1.7417  1.5519  2.0204
  102MOL0     H13719   6.201   6.316   7.863  0.2137  0.4651  2.1915
  102MOL0     H13720   6.036   6.333   7.880  1.7113 -1.0203  2.3215
  102MOL0     H13721   5.943   6.244   7.551  1.8109 -0.6936 -1.1910
  102MOL0     H13722   5.831   6.531   7.439  2.5613  3.9820  3.4088
  102MOL0     H13723   5.980   6.552   7.351  0.4877 -0.4595  1.1207
  102MOL0     H13724   5.827   6.273   7.355  2.9663 -3.1736 -1.2671
  102MOL0     H13725   5.980   6.309   7.265  1.6316 -0.4305  2.6900
  102MOL0     H13726   5.696   6.375   7.196 -0.0521  0.1126  0.9507
  102MOL0     H13727   5.810   6.296   7.106 -3.9444 -0.9318  0.8065
  102MOL0     H13728   5.945   6.515   7.091  0.1654  4.2019  0.2408
  102MOL0     H13729   5.809   6.595   7.168  0.0873  1.0316 -1.0131
  102MOL0     H13730   5.978   6.362   6.899  1.9705 -0.3095 -0.9226
  102MOL0     H13731   6.173   6.358   6.765  1.9797 -0.8289 -1.3071
  102MOL0     H13732   6.091   6.267   6.623 -1.4712  0.3841  0.4309
  102MOL0     H13733   6.176   6.418   6.598 -1.5506  1.5789 -1.3297
  102MOL0     H13734   6.143   6.536   6.258  2.7646 -2.2472  1.3977
  102MOL0     H13735   6.190   6.520   6.011 -0.5494  2.0287  1.6500
  102MOL0     H13736   6.055   6.211   5.694  2.6195 -1.3670  1.9712
  102MOL0     H13737   5.984   6.133   5.822 -0.0311 -0.2746 -0.4057
  102MOL0     H13738   5.845   6.327   5.880 -0.5557  0.1836 -0.2612
  102MOL0     H13739   5.957   6.439   5.801  1.3646 -0.1955  0.4375
  102MOL0     H13740   5.876   6.407   5.582  1.7674 -0.8980 -0.5705
  102MOL0     H13741   5.719   6.400   5.671 -1.4799 -1.4697 -1.4390
  102MOL0     H13742   5.877   6.166   5.574 -0.2359 -2.4302  2.2702
  102MOL0     H13743   5.756   6.138   5.692  0.5152 -2.9522 -1.3985
  102MOL0     H13744   5.660   6.300   5.448 -1.0646 -1.1844 -0.5581
  102MOL0     H13745   5.574   6.210   5.562  0.0493  2.0191  0.4952
  102MOL0     H13746   5.778   6.088   5.373 -0.7204  0.8007 -1.1964
  102MOL0     H13747   5.664   6.006   5.482 -0.9841  0.3114  0.3658
  102MOL0     H13748   5.481   6.132   5.342 -0.6126 -4.2665  1.8850
  102MOL0     H13749   5.571   6.004   5.253  1.3217  1.6487 -4.8357
  102MOL0     H13750   5.734   6.152   5.159  1.0179 -0.2164  3.5290
  102MOL0     H13751   5.626   6.283   5.212 -1.3517  0.2192 -1.1725
  102MOL0     H13752   5.990   6.137   6.036  2.3819  0.0015 -1.5104
  102MOL0     H13753   5.949   6.182   6.274  1.1195  0.8839  0.7879
  102MOL0     H13754   5.754   6.626   6.555 -0.8198 -1.3388 -0.4042
  102MOL0     H13755   5.675   6.654   6.801  0.3915  1.7107 -0.7282
  102MOL0     H13756   6.541   6.139   8.530  0.0271  0.4644 -1.2431
  102MOL0     H13757   6.575   6.267   8.735 -1.0555 -4.6385 -1.5792
  102MOL0     H13758   6.988   6.536   8.929  0.8662  1.7633  0.5416
  102MOL0     H13759   7.179   6.569   9.110  0.6273  0.4868  1.1401
  102MOL0     H13760   7.136   6.344   9.504  0.2045 -0.3156 -3.1177
  102MOL0     H13761   7.259   6.458   9.535 -1.4261  1.9559  3.1131
  102MOL0     H13762   7.040   6.494   9.633 -0.0474  2.8205  1.9809
  102MOL0     H13763   6.957   6.509   9.484 -0.5598  0.6451  1.7686
  102MOL0     H13764   7.085   6.712   9.413 -2.5469 -0.9148 -0.2129
  102MOL0     H13765   7.180   6.709   9.563  0.1769  2.5568 -1.9356
  102MOL0     H13766   6.956   6.699   9.679  2.2380 -3.0427 -1.9276
  102MOL0     H13767   6.898   6.792   9.544  0.2479 -4.8127 -2.0560
  102MOL0     H13768   7.095   7.118   9.627 -2.0160 -0.1008 -2.0006
  102MOL0     H13769   6.938   6.305   9.350  1.4921 -1.2524  0.0762
  102MOL0     H13770   6.787   6.281   9.183  0.7696  0.0386  2.1251
  103MOL0     O13771   1.107  11.395   9.223 -0.3786 -0.1627  0.3513
  103MOL0     C13772   1.125  11.336   9.326 -0.9803 -0.9449  0.0784
  103MOL0     O13773   1.042  11.245   9.378 -0.4167  0.8783 -0.4075
  103MOL0     C13774   0.913  11.212   9.336  0.4384  0.5081  0.2425
  103MOL0     C13775   0.865  11.227   9.208  0.6785  1.1037  0.5162
  103MOL0     C13776   0.728  11.220   9.184  1.1458  0.3948  1.0322
  103MOL0     C13777   0.632  11.197   9.277 -1.2456 -0.9645 -0.2665
  103MOL0     O13778   0.504  11.199   9.239  0.2550 -0.0655  0.7626
  103MOL0     C13779   0.414  11.165   9.346  0.4543  0.0504  0.0849
  103MOL0     C13780   0.276  11.166   9.281 -0.4701 -0.3624 -0.7122
  103MOL0     C13781   0.206  11.049   9.222  0.5955  0.2832 -0.6041
  103MOL0     C13782   0.250  10.996   9.081 -0.1076 -0.6368 -0.2981
  103MOL0     C13783   0.158  10.896   9.017  0.6759 -0.1292 -0.8663
  103MOL0     C13784   0.026  10.948   8.975  0.5928  0.4010  0.6295
  103MOL0     C13785  -0.093  10.913   9.069  0.5488 -0.2625  0.4646
  103MOL0     C13786  -0.233  10.972   9.024 -1.3278  0.0441 -0.4511
  103MOL0     N13787  -0.339  10.917   9.112 -0.1730 -0.3049 -0.3229
  103MOL0     C13788  -0.459  10.980   9.121 -0.2704  0.3504 -0.4222
  103MOL0     C13789  -0.527  10.919   9.223 -0.1205  0.0085 -0.8674
  103MOL0     C13790  -0.659  10.965   9.286  0.4559  0.6610  0.6026
  103MOL0     C13791  -0.649  11.000   9.426  0.0714  0.6835 -0.2689
  103MOL0     C13792  -0.786  11.007   9.497 -0.0707  0.2570  0.8472
  103MOL0     C13793  -0.861  10.877   9.505  1.1581  0.0540  0.0533
  103MOL0     O13794  -0.988  10.918   9.563 -0.6025  0.5974 -0.1313
  103MOL0     C13795  -1.029  10.871   9.682  0.4199 -0.0814 -0.5363
  103MOL0     C13796  -1.127  10.779   9.681 -1.3494 -0.5895 -0.3807
  103MOL0     C13797  -1.183  10.735   9.803 -1.0648  0.2188  0.1677
  103MOL0     C13798  -1.267  10.612   9.803 -0.1631  0.5163 -0.8330
  103MOL0     C13799  -1.148  10.791   9.934 -0.0509 -0.1048  0.1846
  103MOL0     C13800  -1.218  10.764  10.062  0.8409  0.0709  0.3182
  103MOL0     O13801  -1.331  10.687  10.059  0.7927  0.3329 -0.4633
  103MOL0     C13802  -1.380  10.651  10.181  0.4334  0.2056 -0.4376
  103MOL0     C13803  -1.489  10.722  10.229  0.0813  0.5873  0.0397
  103MOL0     C13804  -1.556  10.682  10.350 -0.4517  0.7703  0.3553
  103MOL0     C13805  -1.492  10.578  10.428 -0.2287 -0.5328 -0.1514
  103MOL0     O13806  -1.559  10.542  10.545 -0.2295 -0.3121  0.6994
  103MOL0     C13807  -1.475  10.509  10.656 -0.2143 -0.1442  0.8435
  103MOL0     C13808  -1.564  10.491  10.782  0.0960  0.4823 -0.6886
  103MOL0     C13809  -1.480  10.412  10.879 -0.1920 -0.3833  0.6838
  103MOL0     C13810  -1.570  10.347  10.986 -0.2598 -0.9851 -0.2225
  103MOL0     C13811  -1.650  10.221  10.931  1.2919 -0.5127  0.1890
  103MOL0     C13812  -1.776  10.190  11.013 -0.4632  0.4859  0.6289
  103MOL0     C13813  -1.832  10.053  10.979 -0.5091  0.5259 -0.6453
  103MOL0     C13814  -1.854  10.015  10.835 -0.2604  0.2714 -0.5066
  103MOL0    Cl13815  -1.892   9.836  10.815  0.0105 -0.2269  0.0507
  103MOL0     C13816  -1.393  10.507  10.374  0.0911 -0.3532 -0.3263
  103MOL0     C13817  -1.326  10.547  10.264  1.2997  0.2258 -0.4154
  103MOL0     O13818  -1.172  10.807  10.163 -0.9509 -1.1995  0.3893
  103MOL0     C13819  -1.052  10.886   9.925  0.1446  0.2748 -0.9374
  103MOL0     C13820  -0.992  10.927   9.801 -0.0595  0.1120 -0.0107
  103MOL0     N13821  -0.444  10.824   9.274  0.1223 -0.0747  0.1304
  103MOL0     N13822  -0.329  10.813   9.207  0.6181 -0.1123 -0.8641
  103MOL0     C13823   0.684  11.175   9.410 -2.0595  0.5185  0.2256
  103MOL0     C13824   0.823  11.183   9.440 -0.3652  0.0624  0.0573
  103MOL0     C13825   1.250  11.369   9.395 -0.0395 -0.1016  0.9141
  103MOL0     C13826   1.359  11.453   9.343  0.1594 -0.1951  0.1824
  103MOL0     C13827   1.476  11.487   9.408  0.5818 -0.4756 -0.4609
  103MOL0     C13828   1.488  11.457   9.546  0.5309  0.7167 -0.1517
  103MOL0     O13829   1.605  11.492   9.606 -0.1202  0.1045  0.4395
  103MOL0     C13830   1.629  11.460   9.742  0.2112 -0.8011 -0.3824
  103MOL0     C13831   1.775  11.474   9.773  0.1651  0.5917 -0.2884
  103MOL0     C13832   1.831  11.366   9.863 -0.0968  0.0509  0.7865
  103MOL0     C13833   1.964  11.410   9.936  0.4900  0.6518  0.1762
  103MOL0     C13834   1.985  11.311  10.045  0.6472  0.4636 -0.3439
  103MOL0     C13835   2.001  11.249  10.154  0.0930  0.2518  0.6628
  103MOL0     C13836   1.389  11.369   9.599 -0.0381  0.1852  0.1990
  103MOL0     C13837   1.280  11.328   9.526  0.5042 -0.4566 -0.4873
  103MOL0     H13838   0.931  11.235   9.121  1.6044 -2.1902  0.7742
  103MOL0     H13839   0.689  11.232   9.083 -2.4229  1.6209  2.4125
  103MOL0     H13840   0.436  11.072   9.399  1.8388  0.8211  0.9469
  103MOL0     H13841   0.401  11.246   9.418 -2.2623 -0.4222  0.2267
  103MOL0     H13842   0.208  11.195   9.362 -3.1681 -1.3723 -2.4726
  103MOL0     H13843   0.274  11.246   9.207 -1.6025  2.2475  1.9142
  103MOL0     H13844   0.215  10.972   9.299 -1.4876 -0.2573 -0.8184
  103MOL0     H13845   0.098  11.069   9.226  0.4604 -0.3311 -1.0873
  103MOL0     H13846   0.259  11.085   9.019  0.4818  1.2492  2.2938
  103MOL0     H13847   0.346  10.945   9.095 -2.1766 -5.7174 -2.1863
  103MOL0     H13848   0.219  10.857   8.935 -0.7233  0.0277 -2.0299
  103MOL0     H13849   0.139  10.812   9.084 -2.6703  2.0272  1.1231
  103MOL0     H13850   0.022  11.055   8.954  0.4105 -0.2482 -3.5753
  103MOL0     H13851  -0.006  10.896   8.884 -1.8917  0.0775  1.5842
  103MOL0     H13852  -0.097  10.804   9.060 -1.7397 -0.2332  0.4402
  103MOL0     H13853  -0.067  10.943   9.171 -0.0537 -0.3339  0.6449
  103MOL0     H13854  -0.254  10.954   8.918 -0.6035 -2.6153 -0.2134
  103MOL0     H13855  -0.226  11.078   9.048 -1.0615  0.1355 -0.9241
  103MOL0     H13856  -0.485  11.072   9.070 -1.3422  0.1125 -0.3243
  103MOL0     H13857  -0.694  11.052   9.229 -0.7936 -1.6342 -2.3642
  103MOL0     H13858  -0.732  10.884   9.283  0.3419  0.6268  2.8937
  103MOL0     H13859  -0.588  11.091   9.431 -0.9125  1.3037  2.2448
  103MOL0     H13860  -0.582  10.933   9.482  3.4513  4.4779  0.7389
  103MOL0     H13861  -0.846  11.072   9.431 -1.8416 -2.5254 -0.4803
  103MOL0     H13862  -0.777  11.050   9.597 -2.0273  0.9577  0.7722
  103MOL0     H13863  -0.799  10.806   9.562  1.7868  1.6914  1.4996
  103MOL0     H13864  -0.880  10.838   9.405  1.7978  2.7837 -1.2014
  103MOL0     H13865  -1.149  10.738   9.582 -2.2850 -2.3016  0.4863
  103MOL0     H13866  -1.373  10.640   9.805 -0.4237 -0.4363  2.1057
  103MOL0     H13867  -1.254  10.545   9.717  0.0221 -1.2275  0.5077
  103MOL0     H13868  -1.238  10.541   9.880 -1.3195 -3.1736 -3.4826
  103MOL0     H13869  -1.533  10.801  10.169  1.6223  1.9489  0.6299
  103MOL0     H13870  -1.639  10.735  10.396 -0.1524  1.8081 -0.2522
  103MOL0     H13871  -1.408  10.426  10.635 -0.0587  0.3344 -0.7677
  103MOL0     H13872  -1.399  10.581  10.687  0.4294 -1.5500  2.6637
  103MOL0     H13873  -1.602  10.585  10.823 -1.2862  0.1779 -1.2480
  103MOL0     H13874  -1.652  10.430  10.759 -0.5959  0.4575  1.8118
  103MOL0     H13875  -1.412  10.481  10.930 -0.9809  1.0486 -0.1490
  103MOL0     H13876  -1.416  10.339  10.829  1.3286  2.3898 -1.6785
  103MOL0     H13877  -1.503  10.321  11.068 -0.4616  3.5299  1.6837
  103MOL0     H13878  -1.633  10.414  11.045  0.4373 -1.4690  1.1024
  103MOL0     H13879  -1.589  10.130  10.938 -2.5200 -3.5893 -2.2432
  103MOL0     H13880  -1.684  10.235  10.828 -0.6125 -0.7553  0.7395
  103MOL0     H13881  -1.763  10.193  11.122 -0.7126  1.0047  0.6469
  103MOL0     H13882  -1.850  10.267  10.991 -2.2077 -0.7329  1.9309
  103MOL0     H13883  -1.930  10.055  11.027  0.5125  1.2784  1.5853
  103MOL0     H13884  -1.775   9.972  11.025  0.7134  1.5661 -0.2701
  103MOL0     H13885  -1.765  10.037  10.775  1.9958  0.7517  2.6879
  103MOL0     H13886  -1.931  10.084  10.799 -0.8586  0.4517  1.0127
  103MOL0     H13887  -1.359  10.423  10.433  1.7849  1.8001  1.9599
  103MOL0     H13888  -1.245  10.493  10.218  2.6326  2.5849 -1.0311
  103MOL0     H13889  -1.016  10.924  10.021 -3.1276 -0.7544  0.8404
  103MOL0     H13890  -0.918  11.005   9.801 -3.1117  3.3918 -3.4823
  103MOL0     H13891   0.613  11.142   9.485  0.4177 -1.8506  1.7266
  103MOL0     H13892   0.861  11.183   9.542 -0.6795 -3.0041  0.2682
  103MOL0     H13893   1.337  11.494   9.245 -0.5100  0.6071  0.6513
  103MOL0     H13894   1.549  11.542   9.349  1.0688 -0.0968  0.4626
  103MOL0     H13895   1.563  11.525   9.801  0.9347  1.0207 -1.5127
  103MOL0     H13896   1.603  11.357   9.769  0.2920 -0.4554  1.1213
  103MOL0     H13897   1.794  11.577   9.803 -2.1467  1.7599 -2.3698
  103MOL0     H13898   1.837  11.470   9.683  2.4529 -2.1846  1.2390
  103MOL0     H13899   1.854  11.283   9.796  1.0454  1.3683 -0.5318
  103MOL0     H13900   1.752  11.329   9.929 -0.2189  1.8310  1.7000
  103MOL0     H13901   1.950  11.509   9.979  0.4051  0.6833  0.0768
  103MOL0     H13902   2.044  11.410   9.861  2.6414  0.9280  2.3676
  103MOL0     H13903   2.004  11.204  10.251 -0.4004  1.7645  1.4162
  103MOL0     H13904   1.387  11.335   9.702  0.2907  0.1376  0.1911
  103MOL0     H13905   1.195  11.275   9.569 -2.5688  3.7893 -0.6615
  104MOL0     O13906   4.124   4.764  11.472  0.5138 -0.0342  0.3962
  104MOL0     C13907   4.008   4.790  11.510 -0.0880 -0.4841 -0.7877
  104MOL0     O13908   3.893   4.727  11.464 -0.1026  0.3506 -0.3755
  104MOL0     C13909   3.897   4.615  11.374  0.5253 -0.4406  0.6947
  104MOL0     C13910   4.002   4.528  11.342 -0.8512  0.3154  0.3646
  104MOL0     C13911   3.982   4.422  11.249 -0.3426  0.3116  0.3439
  104MOL0     C13912   3.850   4.395  11.203 -0.5190  0.3769  0.2045
  104MOL0     O13913   3.833   4.277  11.135 -0.6497  0.0019 -0.1815
  104MOL0     C13914   3.775   4.264  11.000  0.2920  0.7766 -0.6991
  104MOL0     C13915   3.869   4.278  10.875 -0.4785  0.6865  0.4829
  104MOL0     C13916   3.986   4.385  10.877 -0.9913 -0.1043 -0.0400
  104MOL0     C13917   4.059   4.385  10.742 -0.2350  0.6550  0.7915
  104MOL0     C13918   4.196   4.452  10.740 -0.1696  0.0212 -0.1561
  104MOL0     C13919   4.216   4.563  10.842  0.5347 -0.1282  0.6102
  104MOL0     C13920   4.359   4.622  10.824 -0.3539 -0.4249  0.2559
  104MOL0     C13921   4.368   4.770  10.855 -0.0122  0.2536 -1.2058
  104MOL0     N13922   4.313   4.843  10.742  0.6384 -0.1612  0.5062
  104MOL0     C13923   4.364   4.859  10.613  0.5028  0.0218  0.6273
  104MOL0     C13924   4.268   4.929  10.546  0.1282 -0.0421  0.4491
  104MOL0     C13925   4.276   4.976  10.398  1.2940 -0.7248 -0.0084
  104MOL0     C13926   4.223   4.865  10.312 -0.0115 -0.6964 -0.2930
  104MOL0     C13927   4.192   4.920  10.169 -0.6560  0.2529  0.3243
  104MOL0     C13928   4.322   4.950  10.093 -0.5911  0.7589  0.1940
  104MOL0     O13929   4.383   4.820  10.083  0.0148  0.2346 -0.1335
  104MOL0     C13930   4.477   4.807   9.983  0.6810 -0.2528 -1.3155
  104MOL0     C13931   4.547   4.906   9.916 -0.6889 -0.1714 -0.2934
  104MOL0     C13932   4.656   4.886   9.836 -1.2406  0.0328 -0.4396
  104MOL0     C13933   4.735   4.995   9.773 -0.5105  1.1238 -0.5902
  104MOL0     C13934   4.708   4.753   9.843  0.0823  1.1864  0.6501
  104MOL0     C13935   4.823   4.696   9.771 -0.2642  0.2667  0.1918
  104MOL0     O13936   4.938   4.766   9.765  0.3488  0.2854  0.2844
  104MOL0     C13937   5.053   4.723   9.704  0.6580  0.0912  0.6350
  104MOL0     C13938   5.100   4.583   9.698  0.4502 -0.0267  0.2491
  104MOL0     C13939   5.219   4.544   9.620 -0.0709  0.4666  0.3714
  104MOL0     C13940   5.291   4.646   9.552  0.2749 -0.2099 -0.1246
  104MOL0     O13941   5.406   4.632   9.486 -0.0921 -0.1467  0.4487
  104MOL0     C13942   5.479   4.511   9.482  0.9284  0.1453  0.4000
  104MOL0     C13943   5.605   4.520   9.392  0.6189 -0.6529  0.7225
  104MOL0     C13944   5.682   4.388   9.380 -0.3736  0.7373  0.0933
  104MOL0     C13945   5.600   4.284   9.298  0.2679 -0.0469 -0.3623
  104MOL0     C13946   5.649   4.138   9.323  0.1143  0.1085  0.4625
  104MOL0     C13947   5.796   4.122   9.265  0.0738  0.8752  0.5397
  104MOL0     C13948   5.820   3.972   9.225  0.3243  0.2225 -0.5144
  104MOL0     C13949   5.810   3.870   9.344  0.2830  0.6928 -0.0998
  104MOL0    Cl13950   5.951   3.894   9.441 -0.0031  0.0155 -0.0886
  104MOL0     C13951   5.229   4.779   9.546  0.3616 -0.3411 -0.8141
  104MOL0     C13952   5.117   4.816   9.620  0.7739  0.1439 -0.8922
  104MOL0     O13953   4.806   4.585   9.720 -0.3618 -0.1658 -0.5921
  104MOL0     C13954   4.635   4.643   9.914  0.1427  1.0047 -0.7109
  104MOL0     C13955   4.526   4.673   9.982  0.7331  0.2014 -0.4379
  104MOL0     N13956   4.159   4.937  10.625  0.3154 -0.7457 -0.2605
  104MOL0     N13957   4.183   4.884  10.739 -0.4887 -0.7231  0.0523
  104MOL0     C13958   3.754   4.488  11.227 -0.8536  0.2337  0.4193
  104MOL0     C13959   3.774   4.594  11.320  0.1688 -0.1664  0.6963
  104MOL0     C13960   3.991   4.902  11.604  0.2700 -0.6233  0.3056
  104MOL0     C13961   3.868   4.982  11.622 -0.3552 -0.6108  0.7393
  104MOL0     C13962   3.871   5.093  11.705  0.3844 -0.4270  0.3652
  104MOL0     C13963   3.985   5.137  11.766 -1.0188 -0.7186  0.0213
  104MOL0     O13964   3.996   5.241  11.849  0.2975  0.2032  0.1195
  104MOL0     C13965   3.892   5.346  11.842 -0.5902 -0.2049 -0.4346
  104MOL0     C13966   3.946   5.477  11.919 -0.5197  0.1934 -0.7156
  104MOL0     C13967   3.853   5.602  11.908  0.7566  0.8397 -0.3085
  104MOL0     C13968   3.884   5.726  11.984  0.3771 -0.6282 -0.1469
  104MOL0     C13969   3.782   5.832  11.961  0.1808 -0.0963 -0.5426
  104MOL0     C13970   3.698   5.917  11.930  0.1726 -0.7946  0.2429
  104MOL0     C13971   4.102   5.062  11.761  0.7954 -0.6000  0.1205
  104MOL0     C13972   4.101   4.948  11.680  1.0400  0.1473  0.3141
  104MOL0     H13973   4.103   4.530  11.383  0.5394 -1.2563 -2.6520
  104MOL0     H13974   4.062   4.352  11.230 -1.4184 -0.4411 -1.8023
  104MOL0     H13975   3.728   4.165  10.992  0.1711  0.6856  0.8052
  104MOL0     H13976   3.701   4.344  10.990  0.6061  0.9286 -1.9741
  104MOL0     H13977   3.910   4.178  10.855  2.7413  1.4492  2.6092
  104MOL0     H13978   3.801   4.304  10.793 -1.0951  0.6384  0.9693
  104MOL0     H13979   3.941   4.478  10.911 -1.5281 -1.1440  2.2435
  104MOL0     H13980   4.057   4.352  10.953 -1.7832  1.1158  1.2769
  104MOL0     H13981   4.070   4.284  10.701 -0.3375  1.3238 -0.9769
  104MOL0     H13982   3.993   4.434  10.670  0.0190 -0.0135  0.0872
  104MOL0     H13983   4.272   4.378  10.766 -1.2956 -1.8624 -1.8396
  104MOL0     H13984   4.211   4.490  10.639  3.1081  1.3840  0.7131
  104MOL0     H13985   4.141   4.637  10.813 -0.2931 -0.6836  1.2880
  104MOL0     H13986   4.197   4.533  10.946 -3.2527  2.1314  0.7387
  104MOL0     H13987   4.424   4.549  10.874  0.6967 -1.1771 -2.0888
  104MOL0     H13988   4.380   4.619  10.717  0.6482 -2.7430  0.4732
  104MOL0     H13989   4.472   4.796  10.874 -0.0772  1.7581 -2.7442
  104MOL0     H13990   4.318   4.803  10.947  1.6750  0.3977 -0.2961
  104MOL0     H13991   4.463   4.836  10.573  0.4666 -1.6304  1.4002
  104MOL0     H13992   4.212   5.061  10.373  1.1234 -0.7058  0.4864
  104MOL0     H13993   4.383   4.995  10.382  1.8580 -1.4284  2.4256
  104MOL0     H13994   4.121   4.840  10.342 -0.6788  0.3269 -1.6061
  104MOL0     H13995   4.280   4.772  10.324 -2.0480 -2.0016 -0.1583
  104MOL0     H13996   4.129   5.009  10.165 -0.6752  0.3526  1.9794
  104MOL0     H13997   4.138   4.843  10.114 -2.8310  0.7559  1.6256
  104MOL0     H13998   4.388   5.019  10.147  0.8755 -1.4517  1.3763
  104MOL0     H13999   4.283   4.990   9.999 -2.6151 -0.7275  0.3239
  104MOL0     H14000   4.514   5.009   9.932 -0.3893 -0.2654  1.0610
  104MOL0     H14001   4.767   4.974   9.671  2.4289 -0.8383  0.5867
  104MOL0     H14002   4.673   5.085   9.771 -1.7747  0.2844 -0.6072
  104MOL0     H14003   4.822   5.003   9.840 -1.0608  0.0126  0.2959
  104MOL0     H14004   5.059   4.491   9.739  2.7841 -0.9163  0.7859
  104MOL0     H14005   5.256   4.442   9.625 -0.8050  0.1976  0.4040
  104MOL0     H14006   5.514   4.479   9.580  0.1938 -0.0466  0.6074
  104MOL0     H14007   5.406   4.440   9.442  0.9632  1.2053 -1.6901
  104MOL0     H14008   5.586   4.561   9.293 -2.1734 -1.3081  0.9081
  104MOL0     H14009   5.666   4.591   9.448  1.8358  0.4448 -1.8383
  104MOL0     H14010   5.694   4.340   9.478 -1.2859 -2.9028 -1.4400
  104MOL0     H14011   5.785   4.394   9.343  0.1345  0.8725  1.4551
  104MOL0     H14012   5.497   4.294   9.335  1.2690 -2.2273  3.5738
  104MOL0     H14013   5.605   4.303   9.191 -1.8711 -1.0821 -0.7054
  104MOL0     H14014   5.588   4.071   9.263 -1.4814  0.1595  1.9661
  104MOL0     H14015   5.659   4.107   9.427  1.0705  1.9371  0.9626
  104MOL0     H14016   5.815   4.189   9.181 -1.4773  2.8573  1.6652
  104MOL0     H14017   5.877   4.150   9.333  1.2964  2.1342 -1.3321
  104MOL0     H14018   5.912   3.961   9.168 -0.1823 -2.2876 -0.9625
  104MOL0     H14019   5.745   3.945   9.151  2.0096 -1.4720 -1.6807
  104MOL0     H14020   5.791   3.768   9.309 -0.2275 -0.4940  3.2599
  104MOL0     H14021   5.725   3.893   9.408 -0.3176 -1.4206 -0.0580
  104MOL0     H14022   5.274   4.861   9.491 -1.7283 -0.0891 -2.2567
  104MOL0     H14023   5.080   4.917   9.608 -1.1920 -0.6564 -1.9907
  104MOL0     H14024   4.680   4.544   9.915  1.5188  1.6016  0.6872
  104MOL0     H14025   4.477   4.597  10.042  0.0464  2.8424  2.6177
  104MOL0     H14026   3.656   4.482  11.182 -0.5017 -1.1160 -0.2267
  104MOL0     H14027   3.695   4.663  11.349  1.1111  0.8694  0.8450
  104MOL0     H14028   3.777   4.958  11.568  1.2735 -1.5316 -1.7819
  104MOL0     H14029   3.788   5.164  11.702 -1.1926 -2.0325  2.6961
  104MOL0     H14030   3.864   5.374  11.739 -2.3299  0.9622  0.3037
  104MOL0     H14031   3.799   5.300  11.875 -0.3600  0.4086  1.1344
  104MOL0     H14032   4.046   5.500  11.881  0.0263 -1.7417 -0.5535
  104MOL0     H14033   3.955   5.449  12.024  3.5460  0.7285 -0.7396
  104MOL0     H14034   3.755   5.579  11.951  0.4962  2.0549 -0.1951
  104MOL0     H14035   3.840   5.613  11.800  1.5960  0.2986 -0.4712
  104MOL0     H14036   3.979   5.770  11.953 -0.4046 -0.2733 -2.1588
  104MOL0     H14037   3.888   5.711  12.093  2.8563  0.9288  0.0629
  104MOL0     H14038   3.621   5.974  11.882  1.0697 -1.0657 -1.6157
  104MOL0     H14039   4.192   5.073  11.820  1.2188 -2.3032 -0.1670
  104MOL0     H14040   4.195   4.894  11.673  1.8146  1.6443 -2.4074
  105MOL0     O14041  10.016   3.887   6.804  0.0208  0.5399 -0.3632
  105MOL0     C14042   9.914   3.820   6.830  0.1830 -0.1264 -1.2623
  105MOL0     O14043   9.906   3.685   6.824  0.0725 -0.6111 -0.1093
  105MOL0     C14044   9.996   3.599   6.767  0.0855  0.1859  0.1575
  105MOL0     C14045   9.982   3.469   6.796  0.0738  0.7354 -0.1039
  105MOL0     C14046  10.052   3.375   6.731  0.4234  0.5699  0.0192
  105MOL0     C14047  10.145   3.404   6.635 -0.1020 -0.0387  0.1028
  105MOL0     O14048  10.207   3.295   6.579  0.4581  0.8178  0.0551
  105MOL0     C14049  10.277   3.297   6.450 -0.2074 -0.4699 -0.4034
  105MOL0     C14050  10.350   3.166   6.437 -0.1735 -0.1921 -0.3081
  105MOL0     C14051  10.276   3.037   6.458  0.0635 -1.2562  0.0768
  105MOL0     C14052  10.364   2.920   6.413  0.6429  0.4276  0.7763
  105MOL0     C14053  10.318   2.788   6.458  0.1892 -0.2543  0.1629
  105MOL0     C14054  10.400   2.672   6.418 -0.6768 -0.0869 -0.7452
  105MOL0     C14055  10.334   2.536   6.464 -0.5265  1.1094  1.1565
  105MOL0     C14056  10.443   2.424   6.475 -0.1100  1.0489  0.5952
  105MOL0     N14057  10.476   2.386   6.333 -0.7553  0.2566  0.3213
  105MOL0     C14058  10.538   2.465   6.239 -1.1147  0.5055  0.9091
  105MOL0     C14059  10.533   2.397   6.125 -0.8203 -0.7760 -0.0761
  105MOL0     C14060  10.598   2.433   5.998  1.5298 -0.7606  0.1102
  105MOL0     C14061  10.488   2.509   5.905 -1.4430  0.3727 -0.9842
  105MOL0     C14062  10.549   2.635   5.831  0.2326 -0.4560 -0.0496
  105MOL0     C14063  10.613   2.742   5.918  0.9110 -0.3282  0.4682
  105MOL0     O14064  10.614   2.863   5.828 -0.1223  0.1173  0.3405
  105MOL0     C14065  10.597   2.977   5.904 -0.5518  0.2369  0.1520
  105MOL0     C14066  10.720   3.043   5.948  0.0333 -0.2886  0.9547
  105MOL0     C14067  10.714   3.165   6.022 -0.0862  0.2523 -0.5340
  105MOL0     C14068  10.849   3.240   6.051  0.3406 -0.4465  0.2280
  105MOL0     C14069  10.590   3.214   6.069 -0.2810  0.7074  0.2946
  105MOL0     C14070  10.586   3.343   6.145 -0.2986 -0.0603  0.3463
  105MOL0     O14071  10.483   3.424   6.109  0.4148  0.0426  0.8454
  105MOL0     C14072  10.463   3.544   6.182  0.1408  0.9513  0.2898
  105MOL0     C14073  10.565   3.619   6.256  0.6643  0.8708 -0.1300
  105MOL0     C14074  10.529   3.728   6.333  0.4145  0.1284 -0.0939
  105MOL0     C14075  10.400   3.775   6.345  0.6683 -0.4252 -0.8979
  105MOL0     O14076  10.365   3.870   6.444 -0.6228  0.0405  0.8364
  105MOL0     C14077  10.442   3.854   6.569  1.2143 -0.1170 -0.4747
  105MOL0     C14078  10.374   3.926   6.685  0.2576 -0.0988  0.0744
  105MOL0     C14079  10.381   4.080   6.668 -0.0033  0.6150  0.5726
  105MOL0     C14080  10.337   4.153   6.793 -0.6582  0.2814 -0.1009
  105MOL0     C14081  10.357   4.305   6.775  0.5958  0.4575 -0.1258
  105MOL0     C14082  10.323   4.382   6.910 -0.4435 -0.8819  0.4001
  105MOL0     C14083  10.410   4.333   7.026 -0.9410  0.4229  0.5314
  105MOL0     C14084  10.306   4.275   7.126  0.3547 -0.4777  0.0134
  105MOL0    Cl14085  10.390   4.207   7.268 -0.2189  0.2473 -0.1149
  105MOL0     C14086  10.297   3.699   6.286 -0.4879 -0.0373 -0.1530
  105MOL0     C14087  10.333   3.590   6.197  0.0234 -0.3019  0.1654
  105MOL0     O14088  10.652   3.349   6.249 -0.3916  0.2650 -0.0881
  105MOL0     C14089  10.472   3.139   6.040 -0.5910 -0.3323  0.0996
  105MOL0     C14090  10.480   3.030   5.944  0.1215  0.1857 -1.5358
  105MOL0     N14091  10.463   2.292   6.153  0.9572  0.2434  0.3875
  105MOL0     N14092  10.418   2.282   6.275  0.4029  0.0875 -0.6692
  105MOL0     C14093  10.137   3.533   6.582 -0.0765 -0.2994  0.3435
  105MOL0     C14094  10.083   3.640   6.651  0.4732 -0.3264 -0.1244
  105MOL0     C14095   9.788   3.899   6.863 -0.5286 -0.2432  0.1902
  105MOL0     C14096   9.660   3.845   6.891 -0.3149 -0.3889  0.4409
  105MOL0     C14097   9.550   3.942   6.908  0.0331  0.2264 -0.5276
  105MOL0     C14098   9.565   4.079   6.899  0.5169 -0.6883 -1.0075
  105MOL0     O14099   9.468   4.169   6.922  0.4244 -0.5185  0.1291
  105MOL0     C14100   9.333   4.116   6.925  0.1652  0.7975 -0.8051
  105MOL0     C14101   9.230   4.229   6.962  0.6636  0.4490  0.5624
  105MOL0     C14102   9.264   4.367   6.905 -0.4314 -0.6243 -0.1037
  105MOL0     C14103   9.158   4.472   6.929  0.1517 -0.4150  0.0334
  105MOL0     C14104   9.127   4.470   7.068 -0.4702  0.2887 -1.2074
  105MOL0     C14105   9.105   4.473   7.191  0.0540 -0.1086 -0.0629
  105MOL0     C14106   9.696   4.131   6.876 -0.6241  0.7205 -0.0768
  105MOL0     C14107   9.803   4.043   6.859  0.2590  1.2656 -0.0671
  105MOL0     H14108   9.915   3.429   6.872 -2.3535 -0.7452 -2.8394
  105MOL0     H14109  10.051   3.269   6.753 -0.2496  0.5803  0.0575
  105MOL0     H14110  10.204   3.313   6.371  1.7492  3.7338 -1.6788
  105MOL0     H14111  10.348   3.380   6.443  0.1064 -0.8040 -1.3718
  105MOL0     H14112  10.401   3.170   6.340 -1.4305  1.5595 -0.9539
  105MOL0     H14113  10.420   3.163   6.521 -2.5515 -2.3313  1.7583
  105MOL0     H14114  10.238   3.040   6.560  2.8138  0.9842  1.1608
  105MOL0     H14115  10.185   3.042   6.397 -0.2480 -0.8651  0.5731
  105MOL0     H14116  10.377   2.928   6.305  2.5055 -0.8219  0.8552
  105MOL0     H14117  10.462   2.936   6.459  1.6118  0.9163 -1.3370
  105MOL0     H14118  10.325   2.789   6.567 -0.2208 -1.2794  0.2118
  105MOL0     H14119  10.213   2.776   6.428  0.1367 -3.7046  1.2338
  105MOL0     H14120  10.406   2.668   6.309 -2.7655 -2.2358 -0.8671
  105MOL0     H14121  10.503   2.678   6.456 -0.8092  0.7406 -0.4778
  105MOL0     H14122  10.284   2.558   6.558 -0.8404  2.3112  0.7242
  105MOL0     H14123  10.259   2.504   6.391  3.1490  0.0605 -2.5712
  105MOL0     H14124  10.420   2.338   6.539  0.6609 -0.5082 -1.1272
  105MOL0     H14125  10.535   2.463   6.519  1.0378 -0.4733 -0.3717
  105MOL0     H14126  10.574   2.567   6.250 -1.4421  0.8578 -0.9060
  105MOL0     H14127  10.686   2.494   6.017  0.8277  0.8057 -1.3569
  105MOL0     H14128  10.630   2.343   5.945  1.4444 -0.2427 -0.8399
  105MOL0     H14129  10.398   2.546   5.955 -2.4854  2.1220 -3.8542
  105MOL0     H14130  10.452   2.430   5.839  1.1070 -3.0337  1.3844
  105MOL0     H14131  10.469   2.682   5.774  0.4067 -1.0498 -0.8015
  105MOL0     H14132  10.626   2.606   5.760  0.0291 -0.6562 -0.1898
  105MOL0     H14133  10.713   2.703   5.941  1.2839 -0.2897 -0.9953
  105MOL0     H14134  10.555   2.768   6.007  0.9460  1.5276 -0.0273
  105MOL0     H14135  10.817   3.002   5.922 -0.3369 -0.7066  0.1820
  105MOL0     H14136  10.908   3.183   6.124  2.4833 -1.8521 -2.4141
  105MOL0     H14137  10.898   3.238   5.953  0.4416 -1.7318  0.2909
  105MOL0     H14138  10.832   3.341   6.089 -1.2589 -1.0165  1.1243
  105MOL0     H14139  10.669   3.590   6.263  0.5279  0.8161  3.8881
  105MOL0     H14140  10.605   3.782   6.388 -0.4248  1.7692 -0.4732
  105MOL0     H14141  10.455   3.748   6.593 -0.3336 -0.5927 -1.5571
  105MOL0     H14142  10.545   3.889   6.568  1.2526 -0.2213 -1.1254
  105MOL0     H14143  10.269   3.900   6.694  0.1446  0.3213 -0.0315
  105MOL0     H14144  10.428   3.902   6.777 -0.8304 -0.3631  0.6523
  105MOL0     H14145  10.319   4.107   6.582 -0.3508 -1.6637  0.0495
  105MOL0     H14146  10.484   4.110   6.647 -0.2857  0.7329 -0.7373
  105MOL0     H14147  10.231   4.138   6.816 -0.9501  1.5011 -0.5575
  105MOL0     H14148  10.386   4.101   6.875  1.8180  0.9641 -1.0529
  105MOL0     H14149  10.291   4.329   6.691  1.9709  0.1100 -1.3487
  105MOL0     H14150  10.460   4.337   6.755  0.5146 -1.1841 -3.9269
  105MOL0     H14151  10.355   4.486   6.899  1.0486 -1.2734  0.8629
  105MOL0     H14152  10.215   4.388   6.930 -0.8196 -4.2224 -0.1073
  105MOL0     H14153  10.484   4.406   7.060  1.0643 -0.1620 -2.2167
  105MOL0     H14154  10.478   4.251   7.000 -3.6555 -1.9066  0.1766
  105MOL0     H14155  10.247   4.196   7.079 -0.1416  0.6393 -1.2911
  105MOL0     H14156  10.236   4.352   7.158 -0.9180  0.3081 -4.1163
  105MOL0     H14157  10.197   3.732   6.312 -0.0178 -0.0875  1.8856
  105MOL0     H14158  10.253   3.529   6.155 -0.5890  0.6194 -0.0476
  105MOL0     H14159  10.370   3.161   6.072 -1.7288 -2.9821 -1.3629
  105MOL0     H14160  10.390   2.985   5.904 -1.0708  2.2824 -1.3874
  105MOL0     H14161  10.200   3.551   6.496 -0.3500  0.0902  0.2225
  105MOL0     H14162  10.089   3.746   6.626 -1.5126 -0.6157 -2.2382
  105MOL0     H14163   9.638   3.739   6.890  2.3762 -1.0177 -0.1277
  105MOL0     H14164   9.450   3.902   6.905 -0.3996  1.2048 -3.7045
  105MOL0     H14165   9.313   4.079   6.825 -0.3059  1.8613 -1.1199
  105MOL0     H14166   9.324   4.039   7.002 -0.3703  1.9715  0.3526
  105MOL0     H14167   9.221   4.238   7.070 -4.8321 -0.7636  0.5273
  105MOL0     H14168   9.127   4.215   6.927  1.5693 -1.8241 -1.5008
  105MOL0     H14169   9.280   4.352   6.798  2.0764  1.9047 -0.1981
  105MOL0     H14170   9.360   4.407   6.939 -1.1736 -1.3339  3.1177
  105MOL0     H14171   9.072   4.452   6.865  0.1569 -0.5771  0.0767
  105MOL0     H14172   9.193   4.571   6.899  1.1688 -0.9467 -0.6086
  105MOL0     H14173   9.099   4.461   7.297 -3.0661 -3.4323 -0.3983
  105MOL0     H14174   9.719   4.237   6.869  2.2745  0.1367 -0.7736
  105MOL0     H14175   9.902   4.084   6.849  1.4760 -1.0971  1.2880
  106MOL0     O14176   1.778   8.610   8.765 -0.0129 -0.5517 -1.3012
  106MOL0     C14177   1.805   8.491   8.756  0.4803 -0.1614 -0.1905
  106MOL0     O14178   1.833   8.404   8.857  0.4645  0.3447 -0.4010
  106MOL0     C14179   1.869   8.445   8.980  0.0047 -0.1015 -0.0052
  106MOL0     C14180   1.848   8.348   9.078  0.7545  0.3084 -0.0542
  106MOL0     C14181   1.874   8.366   9.216 -0.5795 -0.0729 -0.0675
  106MOL0     C14182   1.925   8.494   9.263  0.6055  0.7396  0.1566
  106MOL0     O14183   1.930   8.503   9.396  0.5418  0.1903  0.9497
  106MOL0     C14184   1.966   8.621   9.474 -0.4410 -0.2799 -0.5981
  106MOL0     C14185   1.954   8.575   9.627 -0.2627  0.0070  1.6039
  106MOL0     C14186   1.977   8.701   9.714  0.5141 -0.2532 -0.4385
  106MOL0     C14187   1.893   8.710   9.842 -0.0947  0.1440 -0.4067
  106MOL0     C14188   1.958   8.779   9.956 -0.4977 -0.1077 -0.1065
  106MOL0     C14189   2.043   8.685  10.051  0.5467 -0.2790  0.9940
  106MOL0     C14190   2.194   8.707  10.017  0.0892 -0.2971  0.2476
  106MOL0     C14191   2.292   8.606  10.083  0.5592 -1.0668 -0.2877
  106MOL0     N14192   2.288   8.626  10.229 -0.0884 -0.5668  0.0929
  106MOL0     C14193   2.206   8.562  10.323  0.9694  0.2740  0.7762
  106MOL0     C14194   2.239   8.624  10.437  0.2468  0.2873 -0.4368
  106MOL0     C14195   2.187   8.583  10.577 -0.2732 -0.2044 -0.0715
  106MOL0     C14196   2.082   8.679  10.635 -0.4269 -0.5358  0.0499
  106MOL0     C14197   2.142   8.790  10.720 -0.1110 -1.0055  0.3961
  106MOL0     C14198   2.049   8.897  10.760 -0.5628 -0.1939  1.2785
  106MOL0     O14199   1.938   8.920  10.671 -0.7863  0.3152  0.3354
  106MOL0     C14200   1.940   8.980  10.548 -1.1127 -0.1082 -0.0665
  106MOL0     C14201   2.058   9.018  10.477  0.5746 -0.1054 -0.5335
  106MOL0     C14202   2.055   9.094  10.361 -0.1638 -0.5780 -0.3128
  106MOL0     C14203   2.179   9.147  10.310 -0.2014  0.8835  0.8298
  106MOL0     C14204   1.926   9.113  10.294  0.3133 -0.7647 -0.1330
  106MOL0     C14205   1.899   9.169  10.159  0.0619 -0.6806 -0.0540
  106MOL0     O14206   1.768   9.163  10.111  0.1365  0.0661  0.3074
  106MOL0     C14207   1.743   9.175   9.974 -0.8891 -0.4920  0.0788
  106MOL0     C14208   1.816   9.102   9.880 -0.0440  0.7790  0.1647
  106MOL0     C14209   1.749   9.068   9.761  0.7570  0.9795  0.6045
  106MOL0     C14210   1.636   9.136   9.714  0.5761 -0.8851  1.1361
  106MOL0     O14211   1.591   9.125   9.583  0.0464  0.8313 -0.1811
  106MOL0     C14212   1.472   9.192   9.543  0.5436 -0.1904 -0.3672
  106MOL0     C14213   1.435   9.133   9.407 -0.0910 -0.9081 -0.2314
  106MOL0     C14214   1.516   9.213   9.296  0.7630 -0.9826  0.4082
  106MOL0     C14215   1.488   9.138   9.157  0.5672  0.4228 -0.8743
  106MOL0     C14216   1.503   9.215   9.028 -0.9202 -0.0607 -0.4358
  106MOL0     C14217   1.650   9.269   9.031 -0.7315 -0.7346  0.2441
  106MOL0     C14218   1.657   9.386   8.935  0.1391 -0.2945  0.4213
  106MOL0     C14219   1.794   9.435   8.885 -0.7659 -0.8150 -0.7960
  106MOL0    Cl14220   1.922   9.435   9.010  0.3174  0.2940  0.2028
  106MOL0     C14221   1.570   9.223   9.810 -0.1099 -0.5281 -0.3646
  106MOL0     C14222   1.627   9.247   9.931 -1.0640  0.0173 -0.2930
  106MOL0     O14223   1.990   9.226  10.099 -0.1486 -0.5163  0.4458
  106MOL0     C14224   1.816   9.080  10.369 -0.0317 -0.8417 -0.2008
  106MOL0     C14225   1.828   9.016  10.490  0.1266 -0.1181 -1.4128
  106MOL0     N14226   2.327   8.725  10.405 -0.8079 -0.3209 -0.4554
  106MOL0     N14227   2.363   8.725  10.284  0.2236  0.2036  0.5851
  106MOL0     C14228   1.951   8.594   9.162  0.8612 -0.3855 -0.3433
  106MOL0     C14229   1.912   8.573   9.030  0.7360  1.1309 -0.4053
  106MOL0     C14230   1.766   8.431   8.625 -0.6893 -0.3290  0.4748
  106MOL0     C14231   1.784   8.299   8.600 -0.0316 -0.0501  0.0120
  106MOL0     C14232   1.766   8.248   8.479  0.1625  0.4753  0.5682
  106MOL0     C14233   1.733   8.337   8.371  0.0104  0.1217  0.1698
  106MOL0     O14234   1.722   8.294   8.240  0.3142 -0.2671 -0.9115
  106MOL0     C14235   1.779   8.171   8.202 -0.4536  0.5829 -0.4338
  106MOL0     C14236   1.792   8.152   8.053  0.7331 -0.6015 -0.3466
  106MOL0     C14237   1.651   8.141   7.993  0.4737  0.3222 -0.4267
  106MOL0     C14238   1.649   8.074   7.854 -0.3938  0.5019 -1.2359
  106MOL0     C14239   1.657   7.930   7.857  0.3643  0.1388  1.0270
  106MOL0     C14240   1.675   7.814   7.879  0.7134 -0.6827 -0.7762
  106MOL0     C14241   1.722   8.475   8.398  0.0996 -0.3383 -0.1936
  106MOL0     C14242   1.741   8.523   8.516  0.1613 -0.1544 -0.4076
  106MOL0     H14243   1.805   8.256   9.041 -1.3076 -0.1738  3.1341
  106MOL0     H14244   1.852   8.287   9.287  0.3155 -0.4742 -0.2330
  106MOL0     H14245   2.069   8.656   9.456 -0.3802  0.7505  1.4437
  106MOL0     H14246   1.901   8.706   9.451  0.8082  1.6799  2.4498
  106MOL0     H14247   1.853   8.549   9.662 -0.7653  2.1523  1.9023
  106MOL0     H14248   2.016   8.490   9.656 -0.9866 -1.3582 -0.5880
  106MOL0     H14249   2.081   8.683   9.744  0.2520 -1.8628 -0.3833
  106MOL0     H14250   1.967   8.796   9.661 -0.6923 -0.5110 -0.7117
  106MOL0     H14251   1.805   8.767   9.811  0.8154  1.1382 -1.2321
  106MOL0     H14252   1.864   8.612   9.881  0.6208  0.9785  2.4339
  106MOL0     H14253   2.015   8.865   9.921 -0.0256  0.2614  1.4978
  106MOL0     H14254   1.883   8.838  10.010 -1.3796 -2.8805  1.9298
  106MOL0     H14255   2.031   8.731  10.150  2.1856  0.7246  0.7736
  106MOL0     H14256   2.008   8.582  10.046 -0.3673  0.0480 -3.5527
  106MOL0     H14257   2.217   8.688   9.912 -1.2601 -2.1383  0.2378
  106MOL0     H14258   2.219   8.812  10.036  1.2069 -0.6881  1.0772
  106MOL0     H14259   2.398   8.619  10.060  1.2141 -0.4874  2.6616
  106MOL0     H14260   2.254   8.504  10.068  0.4750 -1.2837  1.2187
  106MOL0     H14261   2.147   8.472  10.310 -0.9513  1.7203 -1.2024
  106MOL0     H14262   2.140   8.484  10.578 -0.2725 -0.2168  1.4388
  106MOL0     H14263   2.275   8.581  10.642  0.2237  3.5719 -0.4079
  106MOL0     H14264   2.017   8.617  10.698 -1.4893  1.4821  1.0184
  106MOL0     H14265   2.033   8.723  10.548 -1.8615 -0.8434  0.6735
  106MOL0     H14266   2.221   8.838  10.662 -1.5351  1.0290  0.0478
  106MOL0     H14267   2.184   8.764  10.818  4.6344  0.3813 -1.0242
  106MOL0     H14268   2.107   8.989  10.774 -0.9275  0.2349  0.0706
  106MOL0     H14269   1.994   8.861  10.848 -2.3219  3.0061  1.6237
  106MOL0     H14270   2.146   8.975  10.523 -0.5772 -1.6181  0.3824
  106MOL0     H14271   2.220   9.076  10.237  1.5611  1.1267  1.5356
  106MOL0     H14272   2.174   9.249  10.270  1.8142  1.4395  1.8571
  106MOL0     H14273   2.250   9.162  10.392  0.1094 -2.5703  1.3354
  106MOL0     H14274   1.912   9.058   9.904  0.6220  3.1171  2.2473
  106MOL0     H14275   1.812   9.000   9.705  1.1242  1.9629 -0.2172
  106MOL0     H14276   1.393   9.169   9.615  2.4584 -0.1780  1.8697
  106MOL0     H14277   1.481   9.301   9.551  2.6645 -0.4562  3.2884
  106MOL0     H14278   1.436   9.024   9.396 -1.1056 -1.2555  2.3130
  106MOL0     H14279   1.332   9.163   9.385 -0.7943 -3.0984 -0.1245
  106MOL0     H14280   1.625   9.211   9.310  0.9208 -0.5541 -0.6424
  106MOL0     H14281   1.483   9.316   9.288  0.9651 -0.6924  2.7536
  106MOL0     H14282   1.558   9.054   9.153  2.6660  2.1264 -2.3834
  106MOL0     H14283   1.387   9.096   9.155  0.5344  0.4630 -0.3166
  106MOL0     H14284   1.440   9.305   9.032 -2.1302 -0.8062 -1.7854
  106MOL0     H14285   1.497   9.157   8.936  2.8920 -3.4655  1.1335
  106MOL0     H14286   1.687   9.304   9.128  3.0169 -1.3105 -0.8314
  106MOL0     H14287   1.722   9.192   9.001 -0.6546 -0.9322  0.9176
  106MOL0     H14288   1.603   9.468   8.983 -1.4048 -0.8481 -0.3267
  106MOL0     H14289   1.604   9.348   8.847 -1.0662  0.0095  0.9935
  106MOL0     H14290   1.781   9.533   8.837  0.2861 -1.1963 -1.9289
  106MOL0     H14291   1.820   9.355   8.814  1.4204 -2.3346  1.5580
  106MOL0     H14292   1.470   9.263   9.800 -0.0382  1.0858  3.7058
  106MOL0     H14293   1.581   9.314  10.003 -4.0665 -0.8418 -1.2869
  106MOL0     H14294   1.719   9.113  10.333  1.0030  1.5704 -1.0334
  106MOL0     H14295   1.740   9.001  10.553  1.1466 -2.2170 -0.3745
  106MOL0     H14296   1.991   8.681   9.212  1.2474 -1.0770  0.5746
  106MOL0     H14297   1.911   8.658   8.962  1.0229  2.8991  1.7240
  106MOL0     H14298   1.814   8.229   8.678  0.2443 -0.4905 -0.4812
  106MOL0     H14299   1.783   8.144   8.454  0.4600  0.4864  0.7168
  106MOL0     H14300   1.879   8.173   8.246 -1.3416  1.4264  1.7289
  106MOL0     H14301   1.727   8.086   8.246  1.5991  0.3725  1.7297
  106MOL0     H14302   1.861   8.074   8.021  1.3500  0.6642 -2.2480
  106MOL0     H14303   1.844   8.244   8.026 -1.6970  1.9207  2.7602
  106MOL0     H14304   1.617   8.245   7.984  1.0769  0.6901  1.1256
  106MOL0     H14305   1.591   8.079   8.061  1.8301  0.6374  1.1232
  106MOL0     H14306   1.739   8.102   7.798 -0.4413  1.9568 -0.6128
  106MOL0     H14307   1.570   8.098   7.782 -0.0752  1.5218 -1.2645
  106MOL0     H14308   1.697   7.711   7.902  0.2354 -0.0235  3.4527
  106MOL0     H14309   1.720   8.534   8.307  0.2520  0.3385  0.2327
  106MOL0     H14310   1.741   8.631   8.528 -0.1464 -0.2258  0.2701
  107MOL0     O14311   3.761   4.210   8.538 -0.9246 -0.5434 -0.7047
  107MOL0     C14312   3.787   4.115   8.473 -0.2152 -0.0297  0.4165
  107MOL0     O14313   3.725   4.097   8.349  0.5594  0.9645  0.1727
  107MOL0     C14314   3.618   4.175   8.297  0.4462 -1.4334 -0.2265
  107MOL0     C14315   3.547   4.114   8.196  0.6479 -0.6607  1.5054
  107MOL0     C14316   3.427   4.170   8.141  0.1938  0.6643 -0.3604
  107MOL0     C14317   3.379   4.284   8.203  0.3078  0.1871  0.2159
  107MOL0     O14318   3.259   4.345   8.170 -0.7626 -0.0016 -0.5517
  107MOL0     C14319   3.152   4.272   8.104 -0.8114 -0.3252  0.8219
  107MOL0     C14320   3.055   4.367   8.041  0.4266  0.1998 -0.8317
  107MOL0     C14321   2.943   4.401   8.136  0.9525 -0.9229 -0.2829
  107MOL0     C14322   2.823   4.484   8.071 -0.2221  0.8445 -0.2155
  107MOL0     C14323   2.790   4.605   8.159 -0.7518 -0.7785  0.2875
  107MOL0     C14324   2.648   4.655   8.134  0.0958 -0.3470 -0.5866
  107MOL0     C14325   2.630   4.803   8.181  0.3489  0.2060  0.8976
  107MOL0     C14326   2.647   4.827   8.336  1.0399 -0.3049 -0.1676
  107MOL0     N14327   2.573   4.727   8.408  1.2931  0.3356  0.1104
  107MOL0     C14328   2.434   4.692   8.392 -0.6516  0.1428 -0.0269
  107MOL0     C14329   2.432   4.588   8.478  1.3023 -1.1498  0.3945
  107MOL0     C14330   2.310   4.497   8.491 -0.4228  0.8146 -0.1573
  107MOL0     C14331   2.226   4.541   8.604  0.2689 -0.0630 -0.2978
  107MOL0     C14332   2.106   4.450   8.611  0.4390 -0.5464  0.1911
  107MOL0     C14333   1.995   4.494   8.706  0.1952  0.5663 -1.2952
  107MOL0     O14334   2.008   4.447   8.836  0.0828 -0.6274 -0.1210
  107MOL0     C14335   2.051   4.537   8.940  0.4498  0.0117  1.0087
  107MOL0     C14336   2.041   4.491   9.069  0.0148 -0.4232 -0.0939
  107MOL0     C14337   2.067   4.571   9.187  0.9552  0.2052 -0.5495
  107MOL0     C14338   2.067   4.497   9.319 -0.4021  0.4237 -0.1149
  107MOL0     C14339   2.098   4.708   9.174 -0.5322  0.7137 -0.2114
  107MOL0     C14340   2.114   4.808   9.285  0.4844 -0.9870 -0.2706
  107MOL0     O14341   2.163   4.931   9.248  0.4603 -0.8750 -1.0709
  107MOL0     C14342   2.159   5.032   9.339  0.2771 -1.1368  0.4426
  107MOL0     C14343   2.282   5.109   9.348  0.5220  0.1203  0.1077
  107MOL0     C14344   2.285   5.221   9.434 -0.2651  0.6071 -0.4499
  107MOL0     C14345   2.182   5.254   9.516  1.0526 -0.7721 -0.3103
  107MOL0     O14346   2.202   5.363   9.596 -0.1560 -0.4136 -0.0677
  107MOL0     C14347   2.090   5.407   9.677  0.5252 -0.6438  0.0792
  107MOL0     C14348   1.984   5.479   9.586  0.5463  0.3420  0.4957
  107MOL0     C14349   1.872   5.558   9.665 -0.0656 -0.3499  0.2906
  107MOL0     C14350   1.807   5.469   9.779  0.0766  0.1183  0.5588
  107MOL0     C14351   1.787   5.539   9.918 -0.2297 -0.3158 -0.8904
  107MOL0     C14352   1.927   5.528   9.991  0.2592 -0.2060 -0.8152
  107MOL0     C14353   1.939   5.578  10.146  0.6597 -0.5959  0.2665
  107MOL0     C14354   2.093   5.602  10.185  0.7000 -0.5285  0.5547
  107MOL0    Cl14355   2.193   5.454  10.156 -0.1654  0.2739 -0.2706
  107MOL0     C14356   2.067   5.181   9.508  0.1961  0.5640  0.4484
  107MOL0     C14357   2.053   5.065   9.424  0.1531 -0.3730  0.0350
  107MOL0     O14358   2.067   4.773   9.396 -0.1991 -0.0275 -0.6447
  107MOL0     C14359   2.118   4.753   9.036  0.5156 -1.1634  0.8030
  107MOL0     C14360   2.097   4.671   8.925  1.0329  0.7851  0.1800
  107MOL0     N14361   2.561   4.556   8.532  0.0397 -0.4769  0.5598
  107MOL0     N14362   2.642   4.650   8.492 -0.1831 -0.1819 -1.1437
  107MOL0     C14363   3.450   4.341   8.302 -0.1816 -0.2711  0.9043
  107MOL0     C14364   3.575   4.303   8.346  0.9198  0.1057 -0.5463
  107MOL0     C14365   3.898   4.031   8.510 -0.6878  0.1277 -0.1420
  107MOL0     C14366   3.963   3.952   8.412 -0.5936  0.2782  0.2153
  107MOL0     C14367   4.080   3.885   8.441  0.2003 -0.1712  0.4046
  107MOL0     C14368   4.129   3.877   8.569 -0.2778 -0.4205 -0.9220
  107MOL0     O14369   4.242   3.806   8.597  0.7627  0.0080  0.3773
  107MOL0     C14370   4.303   3.786   8.717 -0.1784  0.1215  0.3796
  107MOL0     C14371   4.397   3.904   8.743 -0.7940  0.7096 -0.2371
  107MOL0     C14372   4.485   3.948   8.629 -1.3584 -0.7341 -0.0358
  107MOL0     C14373   4.599   4.031   8.683  0.0471 -0.0469 -0.1252
  107MOL0     C14374   4.546   4.166   8.715  0.0835  0.5775 -0.1552
  107MOL0     C14375   4.493   4.271   8.726 -0.0835  0.0871 -0.3183
  107MOL0     C14376   4.062   3.954   8.665  0.1742 -0.6070 -0.4313
  107MOL0     C14377   3.955   4.036   8.639 -0.7082 -0.6010  0.2669
  107MOL0     H14378   3.585   4.024   8.150  0.7531  1.0141 -1.9761
  107MOL0     H14379   3.371   4.120   8.062 -0.8630 -1.7260  1.7589
  107MOL0     H14380   3.194   4.220   8.017 -1.5362  1.1529 -0.4577
  107MOL0     H14381   3.109   4.205   8.179 -1.3816 -1.7944 -0.7631
  107MOL0     H14382   3.107   4.453   7.998 -1.5312  1.1913 -1.3013
  107MOL0     H14383   3.015   4.308   7.958 -0.3479  0.1659 -0.4397
  107MOL0     H14384   2.904   4.308   8.176  0.5288 -0.5871  0.0931
  107MOL0     H14385   2.982   4.464   8.217 -1.0752  1.3462 -0.9444
  107MOL0     H14386   2.856   4.500   7.968 -0.4826 -0.7930 -0.5678
  107MOL0     H14387   2.734   4.421   8.064 -1.4848  2.4764  0.2515
  107MOL0     H14388   2.800   4.576   8.263 -1.6009 -0.6837  0.4045
  107MOL0     H14389   2.867   4.682   8.144  1.4266 -3.0944 -1.1995
  107MOL0     H14390   2.633   4.660   8.026 -0.2572  0.4417 -0.5092
  107MOL0     H14391   2.574   4.584   8.171  0.4913 -2.2436 -3.2088
  107MOL0     H14392   2.694   4.880   8.137  0.1567 -0.9036 -1.4517
  107MOL0     H14393   2.530   4.840   8.156  0.6563 -0.6179 -1.8991
  107MOL0     H14394   2.602   4.925   8.357 -2.7229 -1.7802 -0.4610
  107MOL0     H14395   2.752   4.833   8.363  0.5646 -2.3078  2.5789
  107MOL0     H14396   2.366   4.731   8.318  2.1053  2.5906 -1.4784
  107MOL0     H14397   2.253   4.505   8.399  0.7335  0.8215 -0.8895
  107MOL0     H14398   2.334   4.391   8.489 -4.7564 -0.3582 -0.8778
  107MOL0     H14399   2.186   4.643   8.594  0.4687 -0.0459 -0.9797
  107MOL0     H14400   2.277   4.533   8.700 -2.4086 -1.5334  1.1168
  107MOL0     H14401   2.124   4.346   8.639 -1.7869 -0.5808  1.7375
  107MOL0     H14402   2.053   4.463   8.516  2.0457 -1.7782 -0.9395
  107MOL0     H14403   1.900   4.450   8.673  0.5232 -0.4346 -0.9269
  107MOL0     H14404   1.981   4.602   8.696 -1.0313  0.3568 -2.1625
  107MOL0     H14405   2.014   4.386   9.075 -3.5872  0.4449  2.8631
  107MOL0     H14406   2.149   4.535   9.380 -0.9472  3.7758 -1.2714
  107MOL0     H14407   1.975   4.515   9.377  0.6865  4.0933  0.6853
  107MOL0     H14408   2.065   4.388   9.309 -2.5531  0.5143 -1.3050
  107MOL0     H14409   2.355   5.097   9.269 -0.2529  1.2372 -0.8290
  107MOL0     H14410   2.375   5.282   9.435  0.9535 -1.1385  0.0887
  107MOL0     H14411   2.038   5.326   9.730 -2.0077  0.6614 -0.2531
  107MOL0     H14412   2.113   5.486   9.749 -0.0992 -0.0190 -0.3831
  107MOL0     H14413   2.036   5.556   9.528  0.3542  1.3242  1.5917
  107MOL0     H14414   1.922   5.419   9.519  0.0590  2.5996 -1.1871
  107MOL0     H14415   1.801   5.588   9.587 -2.3662  0.3758  2.5512
  107MOL0     H14416   1.914   5.652   9.702 -0.2340  0.4543 -1.4350
  107MOL0     H14417   1.704   5.453   9.746 -0.4045  0.2790  1.9040
  107MOL0     H14418   1.864   5.377   9.795 -0.2167 -0.3716 -1.0874
  107MOL0     H14419   1.715   5.484   9.981 -1.3311  1.2082 -0.7732
  107MOL0     H14420   1.749   5.640   9.903 -3.9952 -1.4197  0.0695
  107MOL0     H14421   1.946   5.421   9.996  1.7792  0.0093 -1.4663
  107MOL0     H14422   2.009   5.580   9.940 -0.5954  0.7208 -1.2955
  107MOL0     H14423   1.902   5.497  10.208 -1.7540  0.4263  0.2700
  107MOL0     H14424   1.885   5.673  10.152 -1.8448 -1.7276 -2.1566
  107MOL0     H14425   2.103   5.636  10.288  3.1682 -1.3800  0.6632
  107MOL0     H14426   2.137   5.677  10.119  0.4472 -2.1293 -1.5633
  107MOL0     H14427   1.979   5.207   9.567 -0.2561  0.0474  0.0199
  107MOL0     H14428   1.965   5.000   9.423 -0.1271 -0.0024 -0.8323
  107MOL0     H14429   2.154   4.853   9.013  1.3921 -1.9145 -1.4164
  107MOL0     H14430   2.129   4.712   8.829 -2.3313  2.9722 -0.1693
  107MOL0     H14431   3.413   4.429   8.354  0.2620 -0.0984  0.9360
  107MOL0     H14432   3.620   4.360   8.427 -2.3378 -0.9496  2.2691
  107MOL0     H14433   3.916   3.951   8.314  1.6581  0.9171 -0.9277
  107MOL0     H14434   4.135   3.831   8.364 -1.0032 -0.2517 -0.4241
  107MOL0     H14435   4.229   3.768   8.796 -1.4676 -2.2123 -1.2730
  107MOL0     H14436   4.370   3.701   8.705  0.2717 -0.1018  3.4536
  107MOL0     H14437   4.467   3.860   8.815  1.1177 -1.9119 -3.3783
  107MOL0     H14438   4.358   4.000   8.776  1.0542  1.7525 -0.9434
  107MOL0     H14439   4.437   4.007   8.551  2.2473 -1.9383 -3.5343
  107MOL0     H14440   4.533   3.869   8.571  2.7821  0.1830  1.7532
  107MOL0     H14441   4.664   4.040   8.595 -0.6606  0.2467 -0.6220
  107MOL0     H14442   4.643   3.978   8.768 -1.9391 -1.4445  0.0776
  107MOL0     H14443   4.447   4.363   8.757  0.0451 -0.0682  0.3409
  107MOL0     H14444   4.112   3.963   8.761  3.0601 -0.1383 -1.8779
  107MOL0     H14445   3.907   4.107   8.707 -0.7325  0.4715 -0.8315
  108MOL0     O14446   1.601   9.054   6.092  0.4677  0.4735  0.0568
  108MOL0     C14447   1.478   9.057   6.075 -0.3991  0.3247  0.4451
  108MOL0     O14448   1.392   8.950   6.077  0.0406  1.0891 -0.2682
  108MOL0     C14449   1.434   8.821   6.076  0.6097  0.2905  0.0789
  108MOL0     C14450   1.402   8.740   5.967  0.0024 -0.0451  0.1659
  108MOL0     C14451   1.456   8.614   5.953  0.4664  0.1223 -0.2349
  108MOL0     C14452   1.544   8.552   6.044 -0.1672  0.2973  0.2215
  108MOL0     O14453   1.593   8.421   6.048 -0.3537  0.2391  0.6042
  108MOL0     C14454   1.537   8.325   5.967  0.1748  0.3463 -0.3071
  108MOL0     C14455   1.574   8.338   5.811  0.0503 -0.1583 -0.1156
  108MOL0     C14456   1.650   8.224   5.768 -0.2245  0.5439  0.1883
  108MOL0     C14457   1.556   8.096   5.760 -0.1135 -1.6291  0.0662
  108MOL0     C14458   1.664   7.986   5.737  0.0263  0.2616 -1.2816
  108MOL0     C14459   1.615   7.839   5.745  0.1934 -0.3600  0.3372
  108MOL0     C14460   1.507   7.813   5.630  0.1703  0.1872  0.2415
  108MOL0     C14461   1.486   7.666   5.610  0.3726  0.1353  0.5070
  108MOL0     N14462   1.401   7.611   5.721 -0.0060 -0.1953 -0.5811
  108MOL0     C14463   1.443   7.555   5.844  0.1861 -0.1287  0.7081
  108MOL0     C14464   1.324   7.542   5.918 -0.5630 -0.1628  0.2158
  108MOL0     C14465   1.317   7.487   6.053  0.7397 -0.7629  0.3285
  108MOL0     C14466   1.275   7.342   6.053  0.0043  0.4687 -1.1078
  108MOL0     C14467   1.319   7.261   6.180 -0.0577 -0.0651  0.3481
  108MOL0     C14468   1.282   7.120   6.166  0.4406  0.2658  0.0173
  108MOL0     O14469   1.330   7.046   6.280 -0.4364 -0.5685 -0.4889
  108MOL0     C14470   1.280   6.920   6.300 -0.0175  0.6057 -0.3867
  108MOL0     C14471   1.340   6.835   6.393 -0.8386 -0.8276  0.0757
  108MOL0     C14472   1.296   6.710   6.436  0.0380  0.6409 -0.0746
  108MOL0     C14473   1.373   6.643   6.551 -0.8237  0.6231 -0.4160
  108MOL0     C14474   1.213   6.644   6.351  0.2125 -0.0024  0.0147
  108MOL0     C14475   1.177   6.498   6.359 -0.7978  0.0022  0.4278
  108MOL0     O14476   1.056   6.464   6.320 -0.1621  0.2508 -0.5346
  108MOL0     C14477   1.005   6.334   6.337 -1.5997  0.7918  0.0514
  108MOL0     C14478   0.986   6.282   6.465 -0.1315  1.7283  0.2063
  108MOL0     C14479   0.929   6.158   6.486  0.0746 -0.7541 -0.2004
  108MOL0     C14480   0.895   6.082   6.377 -0.4365 -0.2292  0.3833
  108MOL0     O14481   0.841   5.957   6.370 -0.7532  0.4850 -0.9300
  108MOL0     C14482   0.864   5.880   6.485  0.4443 -0.0213 -0.5679
  108MOL0     C14483   0.752   5.897   6.589  0.0875  0.8660  0.6490
  108MOL0     C14484   0.629   5.821   6.536 -0.1245  0.0348  0.1003
  108MOL0     C14485   0.628   5.667   6.559  0.5314 -0.7563 -1.0001
  108MOL0     C14486   0.635   5.634   6.711  0.2418  0.6706  0.1526
  108MOL0     C14487   0.620   5.487   6.733  0.4525 -0.3226 -0.0754
  108MOL0     C14488   0.627   5.471   6.885  1.0116 -0.5239 -0.8787
  108MOL0     C14489   0.534   5.362   6.934  0.1422  0.3515  0.2104
  108MOL0    Cl14490   0.589   5.198   6.863 -0.3180  0.2656  0.2256
  108MOL0     C14491   0.901   6.147   6.245  1.2100 -0.3590 -1.0546
  108MOL0     C14492   0.967   6.268   6.223  0.1246  0.2157  0.0298
  108MOL0     O14493   1.272   6.421   6.383 -0.5754 -0.8086 -0.0496
  108MOL0     C14494   1.144   6.721   6.253  0.4527  0.3363 -0.3689
  108MOL0     C14495   1.172   6.856   6.229  0.8869  1.0443 -0.4601
  108MOL0     N14496   1.225   7.600   5.849  0.2019 -0.2290 -0.2029
  108MOL0     N14497   1.270   7.644   5.739  0.7547  0.3764 -0.4877
  108MOL0     C14498   1.588   8.636   6.144 -0.1612 -0.1970 -0.6671
  108MOL0     C14499   1.533   8.772   6.161 -0.1330  0.2411 -1.7568
  108MOL0     C14500   1.408   9.188   6.061 -0.1894  0.1490 -0.3952
  108MOL0     C14501   1.479   9.309   6.077 -0.4023  0.4069  0.4832
  108MOL0     C14502   1.417   9.437   6.060  0.3928  0.0896  0.2943
  108MOL0     C14503   1.277   9.440   6.028 -0.6914  0.2945 -0.9799
  108MOL0     O14504   1.223   9.562   6.019  0.7599 -1.0617 -0.3242
  108MOL0     C14505   1.086   9.571   5.979  0.4285 -0.2450  0.1754
  108MOL0     C14506   1.063   9.554   5.828 -0.2430 -0.9847 -0.6082
  108MOL0     C14507   1.127   9.672   5.755 -0.3804  0.4716 -0.8324
  108MOL0     C14508   1.277   9.678   5.757 -0.8145  0.3935  0.2712
  108MOL0     C14509   1.322   9.773   5.659 -0.4493  0.4408 -0.4565
  108MOL0     C14510   1.350   9.846   5.564 -0.8932 -0.8559  0.8259
  108MOL0     C14511   1.209   9.325   6.020  0.0036  0.8445 -0.8634
  108MOL0     C14512   1.274   9.198   6.020  0.3418 -0.1313 -0.0151
  108MOL0     H14513   1.345   8.797   5.894  0.0287 -1.9208 -1.3922
  108MOL0     H14514   1.428   8.556   5.866 -1.6663 -0.2966  0.6741
  108MOL0     H14515   1.573   8.227   6.000 -2.5589 -1.2352 -1.7001
  108MOL0     H14516   1.429   8.324   5.978  0.3327 -2.4117  2.0560
  108MOL0     H14517   1.491   8.351   5.741 -0.4051 -1.1548  0.2178
  108MOL0     H14518   1.635   8.428   5.801  0.9521 -0.7879 -0.4102
  108MOL0     H14519   1.698   8.233   5.670 -1.2830  2.0886 -0.2122
  108MOL0     H14520   1.725   8.210   5.846 -2.1658  2.0734  2.4736
  108MOL0     H14521   1.509   8.087   5.859  1.1204  1.7728  1.1054
  108MOL0     H14522   1.483   8.091   5.679 -0.2108 -0.8029  0.0996
  108MOL0     H14523   1.711   8.001   5.639 -0.1283 -0.0981 -1.4144
  108MOL0     H14524   1.747   7.993   5.808  0.3887 -3.6291 -1.1222
  108MOL0     H14525   1.699   7.769   5.737 -1.6478 -2.7999  1.0668
  108MOL0     H14526   1.569   7.832   5.844 -0.5582  2.1476  0.2263
  108MOL0     H14527   1.416   7.868   5.657  1.3827  0.7982  3.5700
  108MOL0     H14528   1.541   7.849   5.533  2.6524  2.6521  1.8830
  108MOL0     H14529   1.577   7.607   5.598  0.2315  0.4907 -3.2592
  108MOL0     H14530   1.422   7.660   5.522 -1.8851  0.9371  2.0203
  108MOL0     H14531   1.541   7.519   5.873  1.7737  2.4774 -0.9520
  108MOL0     H14532   1.409   7.505   6.110  0.4931 -1.9483  1.1412
  108MOL0     H14533   1.248   7.559   6.099  1.9044  0.9247 -0.4975
  108MOL0     H14534   1.308   7.289   5.964 -0.4097 -1.2964 -0.2579
  108MOL0     H14535   1.166   7.345   6.045  0.0165 -0.2226 -1.6452
  108MOL0     H14536   1.280   7.304   6.272  0.6827  0.6664  0.3234
  108MOL0     H14537   1.428   7.257   6.187 -0.1438  0.0070  2.0448
  108MOL0     H14538   1.317   7.068   6.075 -2.6192  1.4102 -1.9629
  108MOL0     H14539   1.174   7.132   6.152  0.8224  0.5547 -3.6204
  108MOL0     H14540   1.422   6.889   6.439 -0.7357  2.4676 -3.4738
  108MOL0     H14541   1.475   6.611   6.524 -0.9618 -2.1131  1.8492
  108MOL0     H14542   1.385   6.734   6.611  2.2885  1.5078 -2.0886
  108MOL0     H14543   1.316   6.573   6.611  1.2132 -0.6242  0.1801
  108MOL0     H14544   1.019   6.346   6.546  0.8046  4.6991 -2.3065
  108MOL0     H14545   0.910   6.125   6.588  2.3110  1.1563  0.9336
  108MOL0     H14546   0.854   5.779   6.445  1.9834  0.5189 -2.4198
  108MOL0     H14547   0.966   5.905   6.514 -0.0719  1.3101  0.2140
  108MOL0     H14548   0.783   5.851   6.683 -1.7437  3.7371  2.8110
  108MOL0     H14549   0.726   6.001   6.607 -1.3902  1.2427 -2.7760
  108MOL0     H14550   0.616   5.845   6.430  0.0276  0.8456  0.2579
  108MOL0     H14551   0.545   5.860   6.595  1.7089  2.4914  1.3014
  108MOL0     H14552   0.535   5.636   6.510  0.7478  0.8692 -2.5393
  108MOL0     H14553   0.717   5.621   6.514  3.1463  0.8973  2.0545
  108MOL0     H14554   0.549   5.683   6.758 -1.3828  0.0428 -1.9986
  108MOL0     H14555   0.726   5.679   6.753  1.4048  1.1200 -2.6437
  108MOL0     H14556   0.527   5.447   6.692  0.3145  0.7227 -0.8117
  108MOL0     H14557   0.707   5.436   6.690 -0.4609 -1.6176 -0.4654
  108MOL0     H14558   0.608   5.563   6.942  1.8799  0.1239 -1.6026
  108MOL0     H14559   0.731   5.445   6.906  0.7644 -1.0795 -0.3105
  108MOL0     H14560   0.431   5.395   6.915  1.4374  3.6400 -2.1606
  108MOL0     H14561   0.546   5.367   7.043  3.9769 -2.0477  0.0740
  108MOL0     H14562   0.843   6.095   6.169  1.9463 -0.3476 -1.6364
  108MOL0     H14563   0.988   6.303   6.122  0.2586 -1.6334 -0.6097
  108MOL0     H14564   1.067   6.679   6.189  1.5934 -0.5242 -1.2240
  108MOL0     H14565   1.123   6.908   6.147  0.5731  0.2114 -0.8133
  108MOL0     H14566   1.669   8.609   6.211  0.0318 -0.8828 -1.1651
  108MOL0     H14567   1.568   8.832   6.244 -0.1298 -1.6268 -0.3449
  108MOL0     H14568   1.581   9.284   6.104 -0.3122 -0.6615 -0.7323
  108MOL0     H14569   1.463   9.532   6.087  0.3023 -0.2803  1.8257
  108MOL0     H14570   1.021   9.503   6.035 -1.5554  2.3274  1.1639
  108MOL0     H14571   1.051   9.671   6.005  0.8327  0.0687 -0.4514
  108MOL0     H14572   0.958   9.562   5.799 -0.4875 -0.2781  0.4184
  108MOL0     H14573   1.102   9.458   5.793 -3.6391 -1.2185 -4.5465
  108MOL0     H14574   1.086   9.769   5.786 -0.5627  0.1016  0.1393
  108MOL0     H14575   1.096   9.659   5.651 -1.4102 -1.9568 -0.3017
  108MOL0     H14576   1.319   9.578   5.743 -1.2330  0.4022 -1.2517
  108MOL0     H14577   1.315   9.721   5.850  0.7593  2.4286 -1.2301
  108MOL0     H14578   1.368   9.901   5.473 -1.7625 -0.6413  0.7755
  108MOL0     H14579   1.103   9.329   5.999 -1.3138  3.2729  4.4452
  108MOL0     H14580   1.217   9.110   5.991  1.5483 -0.3793 -1.8146
  109MOL0     O14581   7.474  11.164   1.990  0.1344 -0.2510  0.0370
  109MOL0     C14582   7.552  11.104   2.066  0.6530 -0.5139 -0.2842
  109MOL0     O14583   7.512  10.999   2.155 -0.0697  0.1964 -0.0588
  109MOL0     C14584   7.380  10.965   2.147  0.1446  0.8506 -0.4512
  109MOL0     C14585   7.280  11.006   2.239  0.2656  0.5959  0.0650
  109MOL0     C14586   7.143  10.977   2.208 -0.0646 -0.0511  0.2918
  109MOL0     C14587   7.113  10.897   2.101  1.1333  0.4447  0.5193
  109MOL0     O14588   6.981  10.867   2.064 -0.1139  0.2875 -0.7167
  109MOL0     C14589   6.932  10.947   1.952 -0.2139  0.4675  0.1071
  109MOL0     C14590   6.818  10.868   1.882  1.2228 -0.4592  0.5090
  109MOL0     C14591   6.852  10.738   1.805 -0.0397  0.0851 -0.0962
  109MOL0     C14592   6.737  10.673   1.720  0.6128  0.2546  0.2518
  109MOL0     C14593   6.779  10.542   1.653 -0.4878 -0.5265 -0.2754
  109MOL0     C14594   6.673  10.470   1.584 -0.6592 -0.4372  0.2404
  109MOL0     C14595   6.713  10.328   1.534  0.3884 -0.0232 -0.2118
  109MOL0     C14596   6.594  10.235   1.513  0.0694 -0.6991  0.0116
  109MOL0     N14597   6.505  10.271   1.403 -0.4665 -0.4908 -0.2064
  109MOL0     C14598   6.372  10.234   1.377  1.0295 -0.0222 -0.7571
  109MOL0     C14599   6.339  10.281   1.259  0.1056 -0.6685  0.4777
  109MOL0     C14600   6.196  10.270   1.196 -0.0156 -0.4062  0.6455
  109MOL0     C14601   6.192  10.190   1.065 -0.2777  0.1908  0.0410
  109MOL0     C14602   6.292  10.239   0.954 -0.1366 -0.5567  0.0321
  109MOL0     C14603   6.274  10.391   0.910  0.5339 -0.0069  0.6141
  109MOL0     O14604   6.284  10.405   0.776 -0.4007  0.3218 -0.0485
  109MOL0     C14605   6.168  10.380   0.703  1.1942 -0.3294  0.0681
  109MOL0     C14606   6.180  10.439   0.573 -0.5628 -0.1500 -0.4325
  109MOL0     C14607   6.084  10.438   0.471  0.4378 -0.5898  0.6053
  109MOL0     C14608   6.120  10.489   0.335 -0.0352  0.1325 -0.2326
  109MOL0     C14609   5.957  10.374   0.496  1.3475 -0.8226 -0.0692
  109MOL0     C14610   5.843  10.359   0.401  0.0972  0.0993 -0.6024
  109MOL0     O14611   5.777  10.242   0.424  0.0416  0.7138  0.5030
  109MOL0     C14612   5.667  10.210   0.354  0.4464  0.3554  0.8183
  109MOL0     C14613   5.565  10.297   0.316 -0.1925  0.9204  0.4901
  109MOL0     C14614   5.439  10.248   0.272 -0.1388 -0.4334  0.1387
  109MOL0     C14615   5.417  10.113   0.276 -0.2767 -0.2261  0.0749
  109MOL0     O14616   5.291  10.068   0.277  1.1553  0.2132  0.1379
  109MOL0     C14617   5.180  10.122   0.197  0.3802  1.0421 -0.2477
  109MOL0     C14618   5.191  10.068   0.060 -1.2216 -0.4703  0.0675
  109MOL0     C14619   5.098  10.139  -0.041  1.0606 -0.5447  0.4943
  109MOL0     C14620   5.107  10.058  -0.184 -0.7649 -0.2556  0.5028
  109MOL0     C14621   5.254  10.018  -0.238  0.4494 -0.2321  0.1614
  109MOL0     C14622   5.232   9.939  -0.363 -0.6691  0.8293  0.2393
  109MOL0     C14623   5.365   9.901  -0.425 -0.1049  0.9151  1.0599
  109MOL0     C14624   5.328   9.824  -0.552 -0.9512  0.1676 -0.7123
  109MOL0    Cl14625   5.465   9.838  -0.647  0.5227 -0.2070  0.5326
  109MOL0     C14626   5.513  10.024   0.328 -0.5443  0.5418 -0.2500
  109MOL0     C14627   5.638  10.072   0.360 -0.2831  0.5763 -0.8949
  109MOL0     O14628   5.818  10.444   0.312  0.5937  0.4707 -0.3765
  109MOL0     C14629   5.948  10.311   0.624  0.1236 -0.8216 -1.2174
  109MOL0     C14630   6.050  10.314   0.729  0.5616 -0.9624 -0.0370
  109MOL0     N14631   6.442  10.359   1.213 -0.6869 -0.1440  0.3802
  109MOL0     N14632   6.538  10.351   1.301  0.4992  0.1818  0.3686
  109MOL0     C14633   7.217  10.852   2.017 -0.4573  0.0539  0.3196
  109MOL0     C14634   7.351  10.888   2.032 -0.3061 -0.7384  1.1884
  109MOL0     C14635   7.691  11.145   2.068 -0.0036  0.6105 -0.3709
  109MOL0     C14636   7.733  11.270   2.013  0.8317  0.0844 -0.7333
  109MOL0     C14637   7.858  11.319   2.045  0.5436 -0.6521  0.0485
  109MOL0     C14638   7.955  11.231   2.092 -0.7571  0.0022 -0.1162
  109MOL0     O14639   8.085  11.267   2.113 -0.9899  0.4327  0.6342
  109MOL0     C14640   8.191  11.170   2.087  0.1961  0.4020 -0.4562
  109MOL0     C14641   8.277  11.244   1.974  0.1453  0.7900 -0.4043
  109MOL0     C14642   8.393  11.336   2.025  0.2169  0.7454  0.2284
  109MOL0     C14643   8.462  11.411   1.917  0.0340  0.3597 -0.0052
  109MOL0     C14644   8.585  11.477   1.975 -0.1833  0.1968 -0.0350
  109MOL0     C14645   8.676  11.535   2.029 -0.2966 -0.0082 -0.7821
  109MOL0     C14646   7.923  11.103   2.144  0.5679 -0.3024 -0.2429
  109MOL0     C14647   7.789  11.055   2.132 -0.4784  0.6564 -0.3489
  109MOL0     H14648   7.302  11.063   2.329  3.7603 -3.2092  1.9672
  109MOL0     H14649   7.072  11.029   2.272  1.9111 -0.6171  3.1463
  109MOL0     H14650   6.893  11.041   1.991 -2.6759 -0.8881  1.0787
  109MOL0     H14651   6.997  10.954   1.864  1.9561 -6.3419  0.6034
  109MOL0     H14652   6.749  10.826   1.956  1.7332 -3.0266 -0.3548
  109MOL0     H14653   6.769  10.934   1.809  0.1201  0.7501  2.2710
  109MOL0     H14654   6.921  10.762   1.724 -2.4674 -3.1987 -3.4790
  109MOL0     H14655   6.909  10.675   1.874  2.5669  0.5785 -1.6422
  109MOL0     H14656   6.648  10.659   1.782 -0.7900 -0.7287 -1.8967
  109MOL0     H14657   6.716  10.728   1.628 -2.6203 -3.8588 -1.8204
  109MOL0     H14658   6.867  10.568   1.593  1.3725 -0.7470  2.2021
  109MOL0     H14659   6.828  10.483   1.731 -0.8793 -0.1111  0.2899
  109MOL0     H14660   6.584  10.459   1.647 -0.4459  0.0949  0.6447
  109MOL0     H14661   6.646  10.526   1.494 -2.0053 -3.3071 -1.2853
  109MOL0     H14662   6.789  10.331   1.456  0.2882  0.7506 -0.2833
  109MOL0     H14663   6.758  10.270   1.615  1.0919  0.7877 -0.0132
  109MOL0     H14664   6.527  10.237   1.599 -1.2534 -0.2017 -1.0066
  109MOL0     H14665   6.641  10.138   1.495  1.6899  0.0394  0.0060
  109MOL0     H14666   6.313  10.176   1.447  0.8416  0.6667 -0.3355
  109MOL0     H14667   6.121  10.251   1.274  2.1499  1.3199  3.3363
  109MOL0     H14668   6.180  10.373   1.163 -0.1124 -0.9340 -1.0567
  109MOL0     H14669   6.086  10.195   1.037  0.2406  0.2952 -2.0762
  109MOL0     H14670   6.233  10.095   1.100  0.0696  1.3132  2.9242
  109MOL0     H14671   6.258  10.179   0.869  1.4189 -0.3865 -0.7624
  109MOL0     H14672   6.399  10.227   0.975 -0.1653  1.4396  1.6307
  109MOL0     H14673   6.355  10.448   0.955  0.7633  1.8308 -1.9276
  109MOL0     H14674   6.183  10.445   0.938  1.0057  0.1620  1.8608
  109MOL0     H14675   6.271  10.487   0.537  0.7475 -0.0068  2.7061
  109MOL0     H14676   6.096  10.418   0.255 -1.2179  0.9295 -0.6268
  109MOL0     H14677   6.065  10.583   0.322 -1.0834 -0.1323  1.8673
  109MOL0     H14678   6.227  10.501   0.318 -0.1371 -1.9933 -3.1704
  109MOL0     H14679   5.581  10.404   0.327 -1.1772  1.4519 -2.3656
  109MOL0     H14680   5.364  10.320   0.241  1.0520  1.6870  1.9195
  109MOL0     H14681   5.090  10.088   0.250  2.6469  0.6720  3.7266
  109MOL0     H14682   5.185  10.231   0.198 -0.1441  1.1159  2.1626
  109MOL0     H14683   5.297  10.083   0.036 -1.4793  5.6914  1.0230
  109MOL0     H14684   5.169   9.961   0.060  2.0639 -1.2592  1.2543
  109MOL0     H14685   5.136  10.241  -0.051 -1.7970  0.5684  0.0389
  109MOL0     H14686   5.003  10.141   0.012  0.8860 -0.2815  0.1778
  109MOL0     H14687   5.038   9.974  -0.192  1.8119 -2.5143  0.5574
  109MOL0     H14688   5.077  10.125  -0.265  0.7302 -0.3990 -0.2070
  109MOL0     H14689   5.306   9.954  -0.166  0.2594 -0.1346  0.3858
  109MOL0     H14690   5.306  10.110  -0.265  1.5451 -1.0545 -0.6838
  109MOL0     H14691   5.178   9.848  -0.336  0.3246  0.2495  0.3257
  109MOL0     H14692   5.174  10.001  -0.432  1.8329  1.3231 -1.5797
  109MOL0     H14693   5.428   9.847  -0.354  0.5515 -1.7572 -1.3704
  109MOL0     H14694   5.413   9.994  -0.458  0.5799  0.9109  1.9995
  109MOL0     H14695   5.248   9.861  -0.617  0.5172 -0.1528 -2.8061
  109MOL0     H14696   5.328   9.717  -0.530 -1.7131  0.2334 -0.3420
  109MOL0     H14697   5.491   9.920   0.347  2.6175 -0.5150 -1.7440
  109MOL0     H14698   5.713  10.001   0.393 -1.3684 -0.4533 -0.5608
  109MOL0     H14699   5.859  10.251   0.638 -2.7239  3.0267 -1.2867
  109MOL0     H14700   6.022  10.255   0.815 -1.6776 -0.9391 -0.6752
  109MOL0     H14701   7.202  10.774   1.943  2.2599 -2.7064  2.4009
  109MOL0     H14702   7.428  10.871   1.957 -3.1333 -0.7810 -1.9297
  109MOL0     H14703   7.672  11.346   1.966  0.2661  3.5854  4.7107
  109MOL0     H14704   7.899  11.413   2.009  0.8625 -0.5196  0.7484
  109MOL0     H14705   8.235  11.152   2.185 -1.7976 -1.3044  0.2130
  109MOL0     H14706   8.156  11.073   2.048 -0.5386 -0.0747  1.3153
  109MOL0     H14707   8.204  11.295   1.911 -0.4975  0.1580 -0.1846
  109MOL0     H14708   8.317  11.159   1.918  1.2697 -1.4980  3.4489
  109MOL0     H14709   8.465  11.273   2.078 -0.5765  1.0919  1.7697
  109MOL0     H14710   8.357  11.405   2.102 -0.3325 -0.7491  1.3607
  109MOL0     H14711   8.384  11.479   1.882 -1.1540 -1.7696 -1.7875
  109MOL0     H14712   8.496  11.358   1.827 -1.4587 -0.2828 -0.2185
  109MOL0     H14713   8.746  11.594   2.085 -0.9418  1.3083 -1.3303
  109MOL0     H14714   7.999  11.042   2.191  0.6243 -1.9766 -2.2972
  109MOL0     H14715   7.755  10.956   2.159 -0.4650  1.5139  3.4557
  110MOL0     O14716   2.733  10.586   5.751 -0.8137  0.5169 -0.1302
  110MOL0     C14717   2.792  10.671   5.686 -0.5379  0.0205 -0.9627
  110MOL0     O14718   2.805  10.670   5.547  0.0741 -0.7000  0.7954
  110MOL0     C14719   2.761  10.558   5.470 -0.8160 -0.9297  0.1779
  110MOL0     C14720   2.693  10.578   5.336 -0.6893 -0.2576 -0.1694
  110MOL0     C14721   2.669  10.470   5.258 -0.3793 -0.7745  0.2242
  110MOL0     C14722   2.676  10.343   5.315 -0.2703  0.3697 -0.2468
  110MOL0     O14723   2.631  10.241   5.235  0.2140  0.6646 -0.3986
  110MOL0     C14724   2.569  10.128   5.305 -0.3344  0.5065  0.1088
  110MOL0     C14725   2.455  10.086   5.211  0.3137 -0.4151 -0.7859
  110MOL0     C14726   2.484  10.033   5.069 -1.3362 -0.5651  0.2081
  110MOL0     C14727   2.363   9.954   5.018 -0.4416  0.1051  0.3186
  110MOL0     C14728   2.399   9.890   4.882 -0.1784  0.3737 -0.5650
  110MOL0     C14729   2.287   9.792   4.834 -0.0091  0.1539  0.5705
  110MOL0     C14730   2.280   9.764   4.689  0.3236  1.0004  0.5516
  110MOL0     C14731   2.132   9.758   4.643 -0.6539  0.7337  0.6096
  110MOL0     N14732   2.079   9.894   4.616 -0.3335 -0.2522 -0.1090
  110MOL0     C14733   2.108   9.961   4.501  0.6005  0.5017 -0.6904
  110MOL0     C14734   2.070  10.089   4.531 -0.7253  0.7644 -0.7200
  110MOL0     C14735   2.084  10.206   4.431 -0.4350  0.0003 -1.2566
  110MOL0     C14736   1.983  10.320   4.457  0.2213 -0.4412  0.8742
  110MOL0     C14737   1.937  10.396   4.330  0.3180  0.4974 -0.5910
  110MOL0     C14738   2.050  10.450   4.228  0.2553 -0.0645 -0.2199
  110MOL0     O14739   2.127  10.557   4.291 -0.3137 -0.2099  0.2090
  110MOL0     C14740   2.246  10.594   4.238 -0.5524 -0.2263  0.3710
  110MOL0     C14741   2.340  10.664   4.307  0.2734 -0.1200 -0.6631
  110MOL0     C14742   2.463  10.708   4.252 -0.0292  0.5111 -0.5344
  110MOL0     C14743   2.569  10.784   4.331  0.0503  0.6714  1.2385
  110MOL0     C14744   2.485  10.677   4.122 -0.5500  0.4135  0.3077
  110MOL0     C14745   2.615  10.705   4.057  0.1923 -0.4580 -0.4299
  110MOL0     O14746   2.685  10.607   3.987 -0.8474 -0.0394 -0.5883
  110MOL0     C14747   2.795  10.632   3.896  0.6704  0.4990 -0.7640
  110MOL0     C14748   2.873  10.746   3.891 -1.2529 -0.2748 -0.2770
  110MOL0     C14749   2.972  10.747   3.788  0.5818  0.3944 -0.0710
  110MOL0     C14750   2.999  10.649   3.704  0.2814  0.0034 -0.6523
  110MOL0     O14751   3.106  10.646   3.621  0.3762 -0.1150  0.1986
  110MOL0     C14752   3.211  10.749   3.611 -0.0786 -0.2144  0.5350
  110MOL0     C14753   3.308  10.699   3.507  0.7754  0.4668  0.6388
  110MOL0     C14754   3.414  10.806   3.472  0.2875 -0.1378  0.6003
  110MOL0     C14755   3.533  10.728   3.416 -0.2903  0.4474  1.3416
  110MOL0     C14756   3.651  10.812   3.365  0.0537  0.5108  0.2884
  110MOL0     C14757   3.727  10.720   3.261  0.1003 -0.4970 -0.2384
  110MOL0     C14758   3.857  10.787   3.213 -0.0152 -0.3667  0.2492
  110MOL0     C14759   3.953  10.844   3.312  0.5790  0.2507 -0.1908
  110MOL0    Cl14760   3.997  10.704   3.422 -0.5846 -0.1817  0.2589
  110MOL0     C14761   2.920  10.535   3.706 -0.0673  0.1699 -0.0349
  110MOL0     C14762   2.813  10.527   3.797 -0.5424 -0.0580 -0.3689
  110MOL0     O14763   2.652  10.818   4.074  0.3875 -0.0711  0.2837
  110MOL0     C14764   2.380  10.624   4.047  0.5252  0.0361 -0.2341
  110MOL0     C14765   2.269  10.583   4.106  0.6381  0.8107  0.0994
  110MOL0     N14766   2.029  10.098   4.660 -0.5247  0.3407 -0.6456
  110MOL0     N14767   2.033   9.981   4.701  0.2525  0.1573 -0.6517
  110MOL0     C14768   2.729  10.322   5.438 -0.3293 -0.3977 -0.2577
  110MOL0     C14769   2.779  10.428   5.516 -0.2141  0.2514  0.1172
  110MOL0     C14770   2.833  10.795   5.751 -0.6099  0.3782  0.1162
  110MOL0     C14771   2.821  10.825   5.883 -1.0896  0.3005  0.1913
  110MOL0     C14772   2.867  10.943   5.950 -0.5506 -0.0474  0.1928
  110MOL0     C14773   2.914  11.045   5.865 -0.2036 -0.4355 -0.7727
  110MOL0     O14774   2.963  11.170   5.905 -0.3690 -0.1687  0.0959
  110MOL0     C14775   2.962  11.232   6.036 -0.8979 -0.1249 -0.2532
  110MOL0     C14776   2.822  11.277   6.087  0.1686 -0.3066 -0.2531
  110MOL0     C14777   2.805  11.327   6.236  1.0646 -0.7984 -0.1009
  110MOL0     C14778   2.786  11.216   6.334  0.1379 -0.9016  1.2493
  110MOL0     C14779   2.898  11.126   6.337  0.1094  0.8295 -0.8048
  110MOL0     C14780   2.993  11.053   6.345 -0.0840 -1.0648 -0.2655
  110MOL0     C14781   2.934  11.014   5.729 -0.3433  0.6541  0.0702
  110MOL0     C14782   2.908  10.888   5.677  0.4959  0.0698  0.8134
  110MOL0     H14783   2.673  10.681   5.306  1.9145  0.0188 -1.2008
  110MOL0     H14784   2.635  10.472   5.155 -1.8129  1.2108  0.6655
  110MOL0     H14785   2.648  10.053   5.316  1.2041  1.8895 -0.9392
  110MOL0     H14786   2.527  10.138   5.405  0.4702 -1.3846  0.6823
  110MOL0     H14787   2.389  10.029   5.276 -0.5883  1.5980  0.1573
  110MOL0     H14788   2.391  10.174   5.195  0.3126 -0.1593  0.5575
  110MOL0     H14789   2.520  10.116   5.008  1.2392 -2.0898 -0.5190
  110MOL0     H14790   2.570   9.965   5.070 -0.2004  0.6220 -3.2011
  110MOL0     H14791   2.342   9.873   5.087 -2.3506  1.2703  1.1803
  110MOL0     H14792   2.273  10.015   5.021  0.8987  2.3685 -1.4198
  110MOL0     H14793   2.398   9.973   4.811 -2.6014  0.2270 -0.8148
  110MOL0     H14794   2.496   9.840   4.878 -0.2628  0.0257  1.0083
  110MOL0     H14795   2.314   9.703   4.892 -2.5887 -0.2505  1.2756
  110MOL0     H14796   2.191   9.834   4.866  0.9019  1.2247  2.0124
  110MOL0     H14797   2.336   9.836   4.628  0.7427 -0.8098 -1.3022
  110MOL0     H14798   2.325   9.666   4.671 -0.2142  0.6398  1.1146
  110MOL0     H14799   2.072   9.713   4.723  1.3745 -1.0576  1.2209
  110MOL0     H14800   2.113   9.692   4.558 -0.5759 -1.3488  2.1024
  110MOL0     H14801   2.143   9.917   4.409 -2.8416 -3.9932 -0.2400
  110MOL0     H14802   2.185  10.247   4.429  0.8147 -2.6693  0.6163
  110MOL0     H14803   2.066  10.163   4.333  3.1530  1.0201 -2.5278
  110MOL0     H14804   2.029  10.391   4.527  0.2199 -0.8722  1.3143
  110MOL0     H14805   1.888  10.295   4.506 -0.3296  1.1612  0.6882
  110MOL0     H14806   1.876  10.482   4.358 -1.4894 -1.0719  0.4715
  110MOL0     H14807   1.869  10.333   4.273 -1.2937  2.0577 -0.4755
  110MOL0     H14808   2.012  10.477   4.129  2.0851  3.7301 -0.0805
  110MOL0     H14809   2.126  10.376   4.204  0.2283 -0.7687  1.6671
  110MOL0     H14810   2.330  10.681   4.414 -1.0236 -2.2031 -0.3945
  110MOL0     H14811   2.663  10.728   4.328 -1.3250 -1.7416  0.2257
  110MOL0     H14812   2.581  10.888   4.300 -0.0628 -0.0334 -1.3997
  110MOL0     H14813   2.542  10.782   4.437 -0.5228 -1.7374  1.1141
  110MOL0     H14814   2.851  10.835   3.949  1.2017  1.8875 -2.4025
  110MOL0     H14815   3.035  10.835   3.784  0.6601  0.2904 -2.2633
  110MOL0     H14816   3.184  10.846   3.570  1.4900 -0.2048 -0.5953
  110MOL0     H14817   3.250  10.773   3.710  1.9562 -0.7667 -0.0791
  110MOL0     H14818   3.346  10.612   3.560 -0.9954 -1.4314 -1.0501
  110MOL0     H14819   3.251  10.677   3.416  2.0678  0.9649 -0.3292
  110MOL0     H14820   3.451  10.862   3.558  0.5388  1.2367 -0.3669
  110MOL0     H14821   3.361  10.876   3.406  2.3825  0.2030 -0.8015
  110MOL0     H14822   3.584  10.656   3.481  1.7640 -0.0682 -0.7140
  110MOL0     H14823   3.496  10.661   3.338 -3.1722  2.2084  1.0485
  110MOL0     H14824   3.723  10.837   3.443  3.7378 -2.6920 -1.6860
  110MOL0     H14825   3.615  10.899   3.310 -2.5716  1.3283  3.0792
  110MOL0     H14826   3.749  10.619   3.296 -1.5221 -1.4018 -1.6827
  110MOL0     H14827   3.671  10.701   3.169 -1.4400 -1.4864  0.8480
  110MOL0     H14828   3.833  10.865   3.140  1.1304 -1.6841 -1.6324
  110MOL0     H14829   3.915  10.716   3.154 -0.7393 -1.6144  1.0126
  110MOL0     H14830   3.916  10.928   3.371  1.1381  0.4007 -0.0447
  110MOL0     H14831   4.043  10.884   3.264  1.4634 -3.9175 -2.4954
  110MOL0     H14832   2.950  10.462   3.632 -0.7765  2.1020 -2.3466
  110MOL0     H14833   2.751  10.439   3.812  1.7318 -1.5825  0.6225
  110MOL0     H14834   2.385  10.614   3.939 -2.3434 -2.7454 -0.2351
  110MOL0     H14835   2.194  10.534   4.045 -2.2234  1.0723  3.1330
  110MOL0     H14836   2.751  10.229   5.488  1.7171  0.3910  0.3989
  110MOL0     H14837   2.839  10.415   5.605 -0.4834 -2.7403 -0.0567
  110MOL0     H14838   2.773  10.747   5.940  0.8503 -1.3805 -0.3628
  110MOL0     H14839   2.864  10.962   6.057  0.4360 -1.5484  0.5075
  110MOL0     H14840   2.998  11.150   6.099 -1.5552 -0.1472  0.1047
  110MOL0     H14841   3.035  11.313   6.040 -1.8568  0.7403  0.3446
  110MOL0     H14842   2.761  11.187   6.079  2.1710 -1.6327 -1.6003
  110MOL0     H14843   2.794  11.360   6.021  1.8543 -0.4274 -1.1795
  110MOL0     H14844   2.722  11.398   6.246  2.1374  0.8006 -1.7991
  110MOL0     H14845   2.897  11.376   6.268  2.0765 -1.6321 -1.6302
  110MOL0     H14846   2.693  11.166   6.308 -0.5141  1.8885 -2.7061
  110MOL0     H14847   2.774  11.264   6.431  2.4261  2.1973  0.1547
  110MOL0     H14848   3.083  10.995   6.349 -0.4211 -1.5740 -0.0208
  110MOL0     H14849   2.978  11.094   5.670 -1.4210  1.3470  0.1854
  110MOL0     H14850   2.946  10.870   5.577  0.8238 -0.3590  1.0115
  111MOL0     O14851   7.597   0.825  10.900  0.5012 -0.5741  0.6063
  111MOL0     C14852   7.545   0.741  10.828 -0.3254  0.1882  0.4336
  111MOL0     O14853   7.424   0.757  10.777 -0.0288 -0.0833 -0.6545
  111MOL0     C14854   7.333   0.859  10.810 -0.3953  0.1800  0.5176
  111MOL0     C14855   7.275   0.931  10.706  0.4188  0.9393  0.0551
  111MOL0     C14856   7.181   1.037  10.730  0.6648 -0.9212  0.1807
  111MOL0     C14857   7.140   1.077  10.854  0.1791  0.7467  0.6453
  111MOL0     O14858   7.039   1.166  10.867 -0.1914  0.1729  0.3291
  111MOL0     C14859   7.072   1.290  10.905 -0.5024 -0.7874 -0.0557
  111MOL0     C14860   6.942   1.378  10.910  0.2314  0.1785 -0.0462
  111MOL0     C14861   6.966   1.528  10.939 -0.1619  0.1766  0.1771
  111MOL0     C14862   7.025   1.568  11.075 -0.0251 -0.0420 -0.0782
  111MOL0     C14863   7.032   1.718  11.087  0.5841  0.5484 -0.1361
  111MOL0     C14864   7.120   1.756  11.216  0.2332  0.2914 -0.0041
  111MOL0     C14865   7.097   1.897  11.273  0.6565 -0.7744 -0.0476
  111MOL0     C14866   6.962   1.911  11.352 -0.7098 -0.6727 -0.2057
  111MOL0     N14867   6.849   1.944  11.262 -0.6252  0.4524 -0.7521
  111MOL0     C14868   6.844   2.066  11.189 -0.4961  0.8956 -0.5240
  111MOL0     C14869   6.724   2.059  11.124 -0.1845 -0.1578 -0.4237
  111MOL0     C14870   6.655   2.167  11.055  0.3513 -0.8161 -0.4752
  111MOL0     C14871   6.593   2.103  10.920 -0.0071  1.1621  0.0760
  111MOL0     C14872   6.504   2.211  10.854  0.9170 -1.0220  0.2209
  111MOL0     C14873   6.429   2.302  10.947 -0.0234 -0.6204 -0.5541
  111MOL0     O14874   6.308   2.362  10.890 -0.2560  1.1492 -0.1063
  111MOL0     C14875   6.225   2.426  10.977 -0.2926 -0.2293 -0.0400
  111MOL0     C14876   6.258   2.462  11.108 -1.0144 -0.1225  0.5102
  111MOL0     C14877   6.168   2.535  11.187 -0.4575  0.1035 -0.5669
  111MOL0     C14878   6.223   2.592  11.311 -0.2101  0.0396 -0.1656
  111MOL0     C14879   6.037   2.550  11.134  0.0441  0.1361  0.0227
  111MOL0     C14880   5.930   2.618  11.203 -0.8920 -0.0542 -0.1976
  111MOL0     O14881   5.810   2.612  11.145 -0.1676 -0.0434  0.1188
  111MOL0     C14882   5.720   2.708  11.197  0.0073 -0.7134  0.0973
  111MOL0     C14883   5.705   2.833  11.145  0.2033 -0.2135 -0.6201
  111MOL0     C14884   5.607   2.918  11.198  0.7234 -0.2851  0.4055
  111MOL0     C14885   5.531   2.881  11.309 -0.6386 -0.4261 -0.3486
  111MOL0     O14886   5.439   2.964  11.372  0.5443  0.2931  0.4187
  111MOL0     C14887   5.471   3.002  11.504  0.6835  0.0348 -0.1785
  111MOL0     C14888   5.407   3.138  11.528  0.2967 -0.3081 -0.7652
  111MOL0     C14889   5.429   3.247  11.419  0.3619  0.1046  0.0965
  111MOL0     C14890   5.572   3.261  11.383 -0.7274  0.6783 -0.3844
  111MOL0     C14891   5.643   3.393  11.385  0.4631  0.3044  0.7430
  111MOL0     C14892   5.654   3.445  11.526 -0.9829  0.1905 -1.1351
  111MOL0     C14893   5.784   3.401  11.610  0.6383 -0.4863  0.7330
  111MOL0     C14894   5.809   3.502  11.723 -0.3345  0.4820 -0.4031
  111MOL0    Cl14895   5.669   3.505  11.835  0.5042  0.4452 -0.1857
  111MOL0     C14896   5.555   2.763  11.368 -0.7223  0.7098  0.0605
  111MOL0     C14897   5.648   2.673  11.316  0.1706 -0.1432 -0.0712
  111MOL0     O14898   5.948   2.673  11.310 -0.9700 -0.7556 -0.2097
  111MOL0     C14899   6.005   2.522  10.999  0.4005 -0.4546 -0.3838
  111MOL0     C14900   6.103   2.453  10.926  0.5352  1.0338 -0.8589
  111MOL0     N14901   6.663   1.943  11.165 -0.5068  0.0320  0.1148
  111MOL0     N14902   6.731   1.876  11.243 -0.5792 -1.0781 -0.2575
  111MOL0     C14903   7.186   1.000  10.965  0.3594  1.2136  0.9147
  111MOL0     C14904   7.290   0.898  10.945 -0.0013  0.1596  0.5569
  111MOL0     C14905   7.615   0.611  10.793  0.4985 -0.1691 -0.4149
  111MOL0     C14906   7.554   0.520  10.709 -0.3940  0.9947  0.3875
  111MOL0     C14907   7.619   0.400  10.678  0.2060 -0.6002  0.0704
  111MOL0     C14908   7.740   0.369  10.733 -0.0145 -0.5338  0.5240
  111MOL0     O14909   7.782   0.247  10.722 -0.3627  0.0650  1.0189
  111MOL0     C14910   7.817   0.188  10.842  1.0654  0.3994 -0.3299
  111MOL0     C14911   7.787   0.041  10.824 -0.0032 -0.3862 -0.3339
  111MOL0     C14912   7.768  -0.029  10.958  0.5298 -0.6102 -0.1963
  111MOL0     C14913   7.900  -0.024  11.044 -0.1893  0.3917 -0.9095
  111MOL0     C14914   8.012  -0.107  11.001 -0.2756 -1.2279  0.1617
  111MOL0     C14915   8.100  -0.183  10.988  0.5543 -0.4898 -0.5040
  111MOL0     C14916   7.809   0.462  10.810  0.1314 -0.2053  0.0790
  111MOL0     C14917   7.744   0.580  10.847 -0.2039 -0.2850  0.2887
  111MOL0     H14918   7.297   0.896  10.605  0.2682 -1.0975  0.6710
  111MOL0     H14919   7.118   1.069  10.647 -0.6864 -0.9470  1.1671
  111MOL0     H14920   7.125   1.279  11.001 -0.3509 -0.4298 -0.0963
  111MOL0     H14921   7.133   1.334  10.825 -0.6815 -1.7354 -0.7203
  111MOL0     H14922   6.903   1.355  10.811 -0.3874  2.0103 -0.2712
  111MOL0     H14923   6.870   1.344  10.985  0.9505  2.2329  1.6806
  111MOL0     H14924   7.027   1.576  10.863 -0.0268  0.6579  0.5913
  111MOL0     H14925   6.866   1.572  10.931 -0.6935 -1.3556 -3.6427
  111MOL0     H14926   6.963   1.536  11.159  0.0603  4.0676  1.8169
  111MOL0     H14927   7.124   1.525  11.091 -0.3340 -0.5800  0.4171
  111MOL0     H14928   7.091   1.759  11.005  0.3031 -1.1556 -1.2359
  111MOL0     H14929   6.932   1.761  11.097 -0.2394 -1.3331  0.0587
  111MOL0     H14930   7.099   1.682  11.294 -1.7563  0.6078 -0.2027
  111MOL0     H14931   7.228   1.747  11.198 -0.1684 -1.0704 -2.1135
  111MOL0     H14932   7.179   1.914  11.343 -1.9628  0.9830  2.8707
  111MOL0     H14933   7.106   1.972  11.194 -0.7238 -2.3754 -1.8364
  111MOL0     H14934   6.972   1.989  11.428  2.0938 -2.7812  1.8222
  111MOL0     H14935   6.940   1.820  11.409 -3.8630  1.6502  2.6192
  111MOL0     H14936   6.918   2.146  11.192  1.5184 -0.9004  1.0495
  111MOL0     H14937   6.581   2.207  11.125  2.9510 -1.5472  2.9463
  111MOL0     H14938   6.723   2.248  11.025  0.8252 -1.0443 -0.0306
  111MOL0     H14939   6.530   2.019  10.951 -1.0107  1.2571 -1.5908
  111MOL0     H14940   6.665   2.053  10.856 -2.2955 -3.2836  0.5709
  111MOL0     H14941   6.436   2.149  10.795  2.9069 -1.9687 -1.1960
  111MOL0     H14942   6.562   2.276  10.787 -0.8935  0.2975 -0.1521
  111MOL0     H14943   6.493   2.377  10.993 -0.1015 -0.1359 -1.2269
  111MOL0     H14944   6.386   2.238  11.025 -2.9269  0.6246 -0.9783
  111MOL0     H14945   6.356   2.457  11.155 -0.3869  0.7990 -0.6319
  111MOL0     H14946   6.331   2.578  11.312 -0.1433  0.5575  0.3546
  111MOL0     H14947   6.195   2.697  11.303 -1.4434  0.0722  3.1025
  111MOL0     H14948   6.169   2.542  11.392 -0.3524  1.1399  0.4403
  111MOL0     H14949   5.779   2.869  11.074 -1.8792  0.0555 -2.7694
  111MOL0     H14950   5.573   3.004  11.140 -1.2617 -0.0632  1.8033
  111MOL0     H14951   5.436   2.929  11.578 -1.0086  1.2642  0.2946
  111MOL0     H14952   5.579   3.016  11.517  0.6627  0.1026 -0.0752
  111MOL0     H14953   5.299   3.128  11.545  0.4644 -0.3038  0.3611
  111MOL0     H14954   5.448   3.180  11.620 -3.0941  0.5565  0.5040
  111MOL0     H14955   5.379   3.339  11.451 -1.0270  0.3846 -2.6015
  111MOL0     H14956   5.380   3.221  11.324  0.8899 -1.0845  0.1390
  111MOL0     H14957   5.638   3.201  11.446 -0.9462 -0.7058 -1.4229
  111MOL0     H14958   5.592   3.223  11.283  1.4894  1.4412 -0.2823
  111MOL0     H14959   5.595   3.464  11.316  1.0164  0.4675  0.5226
  111MOL0     H14960   5.744   3.374  11.349  0.1776  0.1817 -0.0092
  111MOL0     H14961   5.647   3.553  11.517 -0.5480  0.3660  0.3062
  111MOL0     H14962   5.566   3.412  11.582  0.5558 -2.2385  0.0433
  111MOL0     H14963   5.873   3.412  11.548 -0.4396  0.8054 -0.6696
  111MOL0     H14964   5.777   3.298  11.647  1.6372 -0.3080  1.4634
  111MOL0     H14965   5.836   3.600  11.683  0.8621  0.8746  1.2729
  111MOL0     H14966   5.888   3.458  11.785 -0.4368  1.8413  0.7377
  111MOL0     H14967   5.489   2.743  11.452 -3.8927 -0.2885 -2.4524
  111MOL0     H14968   5.664   2.573  11.354  2.6862  1.4993  3.7373
  111MOL0     H14969   5.908   2.530  10.951 -0.6504  1.3436  1.7959
  111MOL0     H14970   6.076   2.416  10.828  0.7383 -0.6240 -0.3223
  111MOL0     H14971   7.144   1.015  11.064  1.8990 -0.6662  1.9271
  111MOL0     H14972   7.333   0.853  11.034  1.0443  2.1071  1.1009
  111MOL0     H14973   7.468   0.538  10.644  2.9678  2.2058 -4.2956
  111MOL0     H14974   7.565   0.339  10.607 -0.1774  0.8341 -0.9157
  111MOL0     H14975   7.919   0.203  10.878  0.8626  0.4836  0.2320
  111MOL0     H14976   7.747   0.225  10.918 -2.6665 -1.2894 -2.6749
  111MOL0     H14977   7.870  -0.002  10.767 -0.5080 -1.0602 -0.5769
  111MOL0     H14978   7.697   0.025  10.764  0.3294 -1.5957 -0.5342
  111MOL0     H14979   7.756  -0.137  10.952  3.2808 -0.9284 -0.9238
  111MOL0     H14980   7.686   0.022  11.009  1.1866 -0.8405  1.1273
  111MOL0     H14981   7.885  -0.058  11.147  2.5606 -0.1944 -0.6281
  111MOL0     H14982   7.927   0.081  11.063  0.4562  0.3697 -1.6460
  111MOL0     H14983   8.194  -0.232  10.974 -0.5224 -3.1661  0.8455
  111MOL0     H14984   7.903   0.433  10.854 -1.6157  0.2781  4.6708
  111MOL0     H14985   7.781   0.657  10.914  0.4393 -0.4162  0.0836
  112MOL0     O14986   4.874   6.442   8.618  0.0311  0.8286  1.0437
  112MOL0     C14987   4.952   6.473   8.702 -0.1291  0.1581 -1.0932
  112MOL0     O14988   5.070   6.401   8.733  0.3834  0.0624  0.4318
  112MOL0     C14989   5.066   6.276   8.679 -0.3480  0.7808  0.0698
  112MOL0     C14990   5.185   6.229   8.629 -0.2838  0.3378  0.2749
  112MOL0     C14991   5.207   6.096   8.598  0.3038  0.4720 -0.1236
  112MOL0     C14992   5.099   6.010   8.605  0.0821 -0.0364 -0.1267
  112MOL0     O14993   5.116   5.873   8.602 -0.3412 -0.5320  0.3116
  112MOL0     C14994   5.159   5.793   8.711 -0.3891  0.0207 -0.6066
  112MOL0     C14995   5.304   5.791   8.741  0.1746 -0.6120  1.0763
  112MOL0     C14996   5.382   5.731   8.633 -0.8604 -0.2799  0.7384
  112MOL0     C14997   5.539   5.741   8.658  0.1930  0.9113  1.0531
  112MOL0     C14998   5.628   5.639   8.575  0.5380 -0.1463 -0.2395
  112MOL0     C14999   5.582   5.619   8.431 -0.3561 -0.9134 -0.6501
  112MOL0     C15000   5.666   5.503   8.371  1.0180 -1.1583 -0.2378
  112MOL0     C15001   5.638   5.498   8.224  0.2430  0.0160 -0.5522
  112MOL0     N15002   5.743   5.415   8.164 -0.7699 -0.3635  0.2930
  112MOL0     C15003   5.754   5.407   8.025 -0.8184 -0.0697  0.2345
  112MOL0     C15004   5.866   5.330   8.015  0.1561  0.8076  0.3562
  112MOL0     C15005   5.913   5.269   7.884 -0.4233  0.9278 -0.3853
  112MOL0     C15006   5.801   5.204   7.799  0.4160 -0.2200 -0.0971
  112MOL0     C15007   5.856   5.144   7.666  0.2920  0.4705  0.7477
  112MOL0     C15008   5.894   5.250   7.562 -0.7620  0.4532 -1.0305
  112MOL0     O15009   5.791   5.339   7.526  0.0051  0.4356  0.4996
  112MOL0     C15010   5.788   5.404   7.404  0.5602 -0.9479  0.5751
  112MOL0     C15011   5.712   5.523   7.398 -0.5394 -0.2502 -0.0139
  112MOL0     C15012   5.686   5.591   7.274 -0.6148 -0.0654  0.0265
  112MOL0     C15013   5.592   5.713   7.281  0.7015 -0.4440 -0.9106
  112MOL0     C15014   5.760   5.550   7.155 -0.7426 -0.3377  0.2727
  112MOL0     C15015   5.774   5.615   7.025  0.4341 -0.3371 -0.3867
  112MOL0     O15016   5.834   5.543   6.922 -0.4203  0.9793  0.0891
  112MOL0     C15017   5.842   5.607   6.808 -0.2980  0.0038  0.2470
  112MOL0     C15018   5.734   5.603   6.715  0.3538  0.2144  0.0649
  112MOL0     C15019   5.747   5.670   6.594 -0.4356 -0.0034 -0.8093
  112MOL0     C15020   5.867   5.742   6.557  0.5278  1.1827 -0.2645
  112MOL0     O15021   5.870   5.818   6.448  0.2783 -0.4518  0.7766
  112MOL0     C15022   5.831   5.766   6.317 -0.8355  0.0368  0.2320
  112MOL0     C15023   5.877   5.865   6.209 -0.1243 -0.3991  0.7616
  112MOL0     C15024   5.846   5.804   6.066 -0.3338  0.3557 -0.6273
  112MOL0     C15025   5.772   5.921   5.993 -0.6076 -0.5296  0.6645
  112MOL0     C15026   5.733   5.886   5.852 -0.2805 -0.3673 -0.6912
  112MOL0     C15027   5.643   5.763   5.840 -0.1370  0.3740 -0.1965
  112MOL0     C15028   5.595   5.751   5.693  1.1674  1.0701  0.1840
  112MOL0     C15029   5.701   5.704   5.597 -1.2720  0.2436 -1.0545
  112MOL0    Cl15030   5.778   5.553   5.639  0.1540  0.1987 -0.3072
  112MOL0     C15031   5.971   5.743   6.652 -0.7951  0.9906 -0.3313
  112MOL0     C15032   5.970   5.668   6.768  1.2323  0.9675 -0.8269
  112MOL0     O15033   5.731   5.732   7.010  0.3455 -0.4211 -0.2602
  112MOL0     C15034   5.846   5.432   7.169  0.3839  0.7143  1.0201
  112MOL0     C15035   5.844   5.351   7.283  1.3250  0.4536 -0.8881
  112MOL0     N15036   5.918   5.292   8.133 -0.5360 -0.7842 -0.0702
  112MOL0     N15037   5.852   5.346   8.227  0.5624 -0.4928  0.4027
  112MOL0     C15038   4.973   6.055   8.638 -0.6418 -0.5350  0.1994
  112MOL0     C15039   4.966   6.183   8.685 -0.0543  0.8481 -0.5215
  112MOL0     C15040   4.927   6.593   8.772 -0.0890  0.0007  0.5816
  112MOL0     C15041   5.010   6.643   8.873 -0.6380  0.8788  0.7605
  112MOL0     C15042   4.984   6.759   8.948 -1.1275  0.5783  0.4618
  112MOL0     C15043   4.863   6.828   8.923  0.5688  0.0266 -0.5247
  112MOL0     O15044   4.834   6.933   9.005 -0.3576  0.1373  0.1071
  112MOL0     C15045   4.709   7.005   8.997  1.1356 -0.1914  1.2991
  112MOL0     C15046   4.714   7.140   9.067 -0.2727  0.2941  0.3701
  112MOL0     C15047   4.585   7.225   9.044  0.0123 -0.4817  0.8118
  112MOL0     C15048   4.451   7.171   9.098  0.0472  0.1289 -0.7671
  112MOL0     C15049   4.452   7.145   9.243  0.2751  0.0327 -0.4204
  112MOL0     C15050   4.457   7.120   9.370 -0.2123  0.4939 -0.0102
  112MOL0     C15051   4.777   6.777   8.822 -0.1450 -0.4430  0.9948
  112MOL0     C15052   4.811   6.668   8.742 -1.4138 -0.3074 -0.4882
  112MOL0     H15053   5.266   6.300   8.632 -3.0302  3.8148 -0.4458
  112MOL0     H15054   5.309   6.063   8.581  1.3789  2.2076  2.4089
  112MOL0     H15055   5.113   5.832   8.802  1.1248  2.6402 -0.8624
  112MOL0     H15056   5.127   5.690   8.693 -0.2135  0.0224 -0.9431
  112MOL0     H15057   5.326   5.896   8.759  0.1486 -0.6434  1.2916
  112MOL0     H15058   5.315   5.727   8.828 -0.6065 -1.7538  0.3731
  112MOL0     H15059   5.360   5.624   8.628 -3.2814  0.1045  1.8673
  112MOL0     H15060   5.354   5.774   8.536  1.2848  1.4706  0.7858
  112MOL0     H15061   5.574   5.840   8.628  2.2453  0.0302  0.3940
  112MOL0     H15062   5.553   5.732   8.766 -1.6220 -0.0805  1.2393
  112MOL0     H15063   5.735   5.663   8.579  0.5663 -0.3907  0.7595
  112MOL0     H15064   5.600   5.546   8.626  1.3876  1.5180  3.5972
  112MOL0     H15065   5.474   5.605   8.426 -0.5222 -1.1863  2.1389
  112MOL0     H15066   5.609   5.712   8.379  0.3502 -1.7885 -1.8900
  112MOL0     H15067   5.769   5.526   8.401  0.4660  1.9740 -0.3722
  112MOL0     H15068   5.624   5.418   8.425 -3.1331  0.8919  0.1098
  112MOL0     H15069   5.633   5.597   8.178  3.5965  0.6525  0.1891
  112MOL0     H15070   5.535   5.463   8.213 -0.5136  0.9431  2.5147
  112MOL0     H15071   5.698   5.453   7.944  0.5805  0.8713 -0.2471
  112MOL0     H15072   5.970   5.343   7.825  1.3797  0.5111  0.7412
  112MOL0     H15073   5.988   5.196   7.916 -2.7733 -1.3730  0.1408
  112MOL0     H15074   5.720   5.272   7.774  1.9434  1.6096 -0.3350
  112MOL0     H15075   5.746   5.127   7.853 -1.2339  0.7276 -0.3545
  112MOL0     H15076   5.782   5.090   7.606  1.0635 -0.7253  0.8392
  112MOL0     H15077   5.939   5.074   7.682  0.1719  0.1308 -0.0418
  112MOL0     H15078   5.935   5.195   7.477  2.1294 -1.5331  1.4417
  112MOL0     H15079   5.970   5.312   7.612 -1.3904 -0.4720  1.1692
  112MOL0     H15080   5.665   5.551   7.491  1.4928  2.5658  0.2827
  112MOL0     H15081   5.515   5.704   7.359  0.0275  0.2127 -1.4860
  112MOL0     H15082   5.643   5.809   7.293 -1.7342  0.8998 -0.5690
  112MOL0     H15083   5.536   5.726   7.188  1.6407  0.3830 -1.3751
  112MOL0     H15084   5.639   5.553   6.735  1.5633 -3.4961 -2.4622
  112MOL0     H15085   5.658   5.675   6.532 -1.0830 -1.3446 -0.0337
  112MOL0     H15086   5.871   5.666   6.302  0.2192  0.3423  0.8506
  112MOL0     H15087   5.722   5.768   6.310 -0.9193 -1.9628  0.4795
  112MOL0     H15088   5.822   5.957   6.226 -0.0840 -0.0510 -0.8256
  112MOL0     H15089   5.982   5.894   6.209 -0.4165  0.6718  0.4242
  112MOL0     H15090   5.774   5.726   6.091 -0.4497 -0.0161 -2.0677
  112MOL0     H15091   5.934   5.770   6.011 -1.3112  0.3756 -2.2578
  112MOL0     H15092   5.681   5.956   6.042 -1.7243 -2.0960 -0.1856
  112MOL0     H15093   5.837   6.008   6.006 -3.3046  1.8347 -0.6886
  112MOL0     H15094   5.824   5.865   5.795  0.2950  2.0054 -0.7447
  112MOL0     H15095   5.694   5.972   5.797 -1.4263 -0.1881  0.3695
  112MOL0     H15096   5.687   5.670   5.879 -2.8388 -0.9887 -0.2039
  112MOL0     H15097   5.563   5.785   5.911 -0.3820 -0.8554 -0.0748
  112MOL0     H15098   5.556   5.842   5.647  0.1492  0.2318 -0.6693
  112MOL0     H15099   5.519   5.672   5.689  0.8247  1.4582 -2.3760
  112MOL0     H15100   5.779   5.777   5.573 -0.5149 -0.6490 -1.3789
  112MOL0     H15101   5.654   5.690   5.499 -0.2416 -0.0631 -1.5227
  112MOL0     H15102   6.063   5.799   6.639 -1.3625  2.0545  0.0907
  112MOL0     H15103   6.043   5.668   6.848 -0.2157  1.0311  0.5261
  112MOL0     H15104   5.920   5.399   7.097 -1.2207 -2.4958  0.6938
  112MOL0     H15105   5.891   5.254   7.277 -1.8950 -1.2078 -1.0232
  112MOL0     H15106   4.887   5.988   8.642  0.1801 -1.5774  0.7427
  112MOL0     H15107   4.868   6.208   8.724 -0.5949 -3.0776  1.1482
  112MOL0     H15108   5.103   6.591   8.890 -0.9978  0.1537  0.5574
  112MOL0     H15109   5.042   6.804   9.027 -1.3677  0.7380  0.5469
  112MOL0     H15110   4.680   7.029   8.894 -5.3749 -0.8386  2.5454
  112MOL0     H15111   4.627   6.943   9.036  0.9472 -0.7873  0.0301
  112MOL0     H15112   4.805   7.194   9.039 -0.8717  1.0472 -0.1770
  112MOL0     H15113   4.727   7.125   9.175  0.8521 -0.3407  0.1549
  112MOL0     H15114   4.578   7.235   8.935  0.8635  1.4013  0.8978
  112MOL0     H15115   4.597   7.325   9.084 -0.4647  0.2330 -0.7541
  112MOL0     H15116   4.426   7.077   9.048 -1.0795 -0.4656  0.8558
  112MOL0     H15117   4.366   7.235   9.075 -0.5836 -0.5589 -0.3966
  112MOL0     H15118   4.452   7.091   9.473 -1.7680  3.7750  0.9767
  112MOL0     H15119   4.696   6.844   8.795  0.7681 -0.2239 -1.5513
  112MOL0     H15120   4.752   6.630   8.659  0.3289 -1.6443 -1.1577
  113MOL0     O15121   4.107   1.851  10.286  0.8710  0.2422 -0.2307
  113MOL0     C15122   4.208   1.841  10.219 -0.9888  0.0958 -0.2351
  113MOL0     O15123   4.218   1.779  10.100  0.2747 -0.3133 -0.3739
  113MOL0     C15124   4.094   1.737  10.050 -0.5040 -1.1271  0.2202
  113MOL0     C15125   4.020   1.803   9.958  0.2348 -0.9793 -1.1906
  113MOL0     C15126   3.905   1.746   9.903  0.0001  0.2310 -0.9717
  113MOL0     C15127   3.863   1.618   9.941 -0.1600  0.1459  0.5521
  113MOL0     O15128   3.740   1.584   9.886 -0.5245  0.0554 -0.4031
  113MOL0     C15129   3.730   1.442   9.838 -0.1337 -1.2679  0.4413
  113MOL0     C15130   3.592   1.428   9.781  0.1276 -0.2780  0.3308
  113MOL0     C15131   3.562   1.500   9.644 -1.1419 -0.2277 -0.1679
  113MOL0     C15132   3.424   1.440   9.594 -0.4717 -0.3978  0.4375
  113MOL0     C15133   3.368   1.524   9.469 -0.5553 -0.0589  0.1054
  113MOL0     C15134   3.231   1.459   9.421 -0.5736  0.2317 -0.0586
  113MOL0     C15135   3.147   1.526   9.317 -0.3730  0.2754  0.4051
  113MOL0     C15136   3.080   1.650   9.376  0.0055  0.4655 -0.4323
  113MOL0     N15137   2.988   1.716   9.282 -0.0949 -0.8471  0.1730
  113MOL0     C15138   3.039   1.805   9.195  0.5269  0.0697  0.5978
  113MOL0     C15139   2.937   1.816   9.103 -0.6503  0.8059  0.3842
  113MOL0     C15140   2.924   1.924   9.000  0.3669  0.6900  0.0404
  113MOL0     C15141   3.007   1.895   8.874 -0.0207  0.3343  0.0186
  113MOL0     C15142   2.974   1.753   8.819  0.0234  0.0399 -0.2188
  113MOL0     C15143   3.064   1.732   8.694 -0.4095 -1.1288  0.3412
  113MOL0     O15144   3.179   1.654   8.717 -0.2536 -0.3464  0.2507
  113MOL0     C15145   3.276   1.702   8.794 -0.7602  0.7863  0.4619
  113MOL0     C15146   3.354   1.809   8.762  0.0877  0.4523 -0.3788
  113MOL0     C15147   3.450   1.862   8.852  0.0803 -0.2533  0.3587
  113MOL0     C15148   3.518   1.997   8.806 -0.3559  0.1964 -0.2051
  113MOL0     C15149   3.472   1.794   8.975  0.6740  0.1690  0.7981
  113MOL0     C15150   3.565   1.841   9.079  0.1316 -0.4360 -0.4920
  113MOL0     O15151   3.633   1.946   9.048  0.6143 -0.0258  0.6822
  113MOL0     C15152   3.713   1.999   9.150 -0.1084  0.4940 -0.8011
  113MOL0     C15153   3.845   1.962   9.164  0.6945  0.5409  0.8326
  113MOL0     C15154   3.917   2.015   9.269  0.7296 -0.3586 -1.1040
  113MOL0     C15155   3.855   2.115   9.351  1.1075 -0.1484  1.0340
  113MOL0     O15156   3.917   2.195   9.438  0.3277  0.0990  0.1923
  113MOL0     C15157   3.978   2.121   9.546 -0.0958  0.4027 -0.1177
  113MOL0     C15158   3.949   2.188   9.680 -0.6988  0.6365 -0.0643
  113MOL0     C15159   3.795   2.212   9.701  0.0182  0.1639 -0.6166
  113MOL0     C15160   3.712   2.084   9.693 -1.3081 -0.8396 -0.3545
  113MOL0     C15161   3.557   2.115   9.731 -0.0867  0.8424  0.5486
  113MOL0     C15162   3.491   1.979   9.770 -0.0456  0.3093 -0.2954
  113MOL0     C15163   3.342   1.989   9.780 -0.2751 -0.0895  0.2576
  113MOL0     C15164   3.267   1.858   9.791  0.3958 -0.9534  0.1327
  113MOL0    Cl15165   3.098   1.887   9.861  0.1462 -0.5193 -0.3829
  113MOL0     C15166   3.727   2.161   9.322 -0.2971  0.3612  0.5277
  113MOL0     C15167   3.655   2.096   9.226 -0.0257  0.6316  0.1743
  113MOL0     O15168   3.561   1.786   9.189 -0.0734 -0.4914  1.2258
  113MOL0     C15169   3.400   1.680   8.996 -0.5228 -0.0252 -0.4639
  113MOL0     C15170   3.306   1.630   8.905  0.4333 -0.7055  0.3720
  113MOL0     N15171   2.840   1.720   9.125 -0.0782 -0.2786  0.4892
  113MOL0     N15172   2.867   1.668   9.237  0.3460  0.5510 -0.6429
  113MOL0     C15173   3.930   1.546  10.040  0.1451 -0.0533  0.2216
  113MOL0     C15174   4.050   1.609  10.090 -0.7425 -0.4036 -0.6458
  113MOL0     C15175   4.340   1.915  10.259  0.0354  0.1294  0.1261
  113MOL0     C15176   4.339   2.025  10.353  0.6136  1.0369  0.4406
  113MOL0     C15177   4.465   2.069  10.402 -0.8308 -1.0412  0.4525
  113MOL0     C15178   4.588   2.012  10.356 -0.6148  0.1248  0.3111
  113MOL0     O15179   4.715   2.050  10.406  0.6891  0.2983  0.4242
  113MOL0     C15180   4.732   2.173  10.480  0.8461 -0.2778 -0.2123
  113MOL0     C15181   4.868   2.193  10.548  0.5141  0.0182  0.5127
  113MOL0     C15182   4.892   2.076  10.648 -0.0040  0.3468 -0.9382
  113MOL0     C15183   4.935   1.940  10.591  0.9764 -0.6414  0.0206
  113MOL0     C15184   5.039   1.936  10.491 -1.1099  0.4547 -0.5739
  113MOL0     C15185   5.129   1.936  10.413  0.4068 -0.0407  1.1159
  113MOL0     C15186   4.588   1.909  10.251 -0.4622 -0.0920 -0.2557
  113MOL0     C15187   4.462   1.868  10.211  0.0563 -0.4810  0.3776
  113MOL0     H15188   4.054   1.901   9.926  3.4695 -0.7020  2.4021
  113MOL0     H15189   3.852   1.800   9.825  0.4288  0.5035 -1.0754
  113MOL0     H15190   3.809   1.413   9.769  0.7405  1.5685  0.1104
  113MOL0     H15191   3.731   1.362   9.913 -0.3756 -4.3049 -2.5466
  113MOL0     H15192   3.573   1.321   9.767  0.4823 -0.1693 -1.1212
  113MOL0     H15193   3.525   1.458   9.863  3.2601  1.6928  2.3636
  113MOL0     H15194   3.565   1.610   9.648  3.8588 -0.1330 -1.3165
  113MOL0     H15195   3.638   1.479   9.569 -2.8490  1.3735 -2.4794
  113MOL0     H15196   3.437   1.336   9.563 -4.1248 -0.4775 -1.2744
  113MOL0     H15197   3.346   1.449   9.669 -0.6551  2.1775  0.0423
  113MOL0     H15198   3.359   1.630   9.494 -2.0797 -0.4479  1.4092
  113MOL0     H15199   3.430   1.508   9.381  1.0708  0.1847  1.1747
  113MOL0     H15200   3.256   1.357   9.391 -1.2845  0.2583 -0.7452
  113MOL0     H15201   3.176   1.441   9.514  1.7352 -3.4920  0.7751
  113MOL0     H15202   3.218   1.545   9.236  1.9472 -1.4120  1.8874
  113MOL0     H15203   3.064   1.462   9.286 -0.4312  1.2327 -1.5720
  113MOL0     H15204   3.158   1.717   9.412  0.2841 -1.5124  3.0658
  113MOL0     H15205   3.027   1.615   9.465 -0.9742  2.5691 -0.1325
  113MOL0     H15206   3.133   1.858   9.198  0.4077  0.3280  0.0167
  113MOL0     H15207   2.820   1.938   8.968  0.3829  0.7416  0.0102
  113MOL0     H15208   2.960   2.020   9.038 -1.7423  1.4262  0.2943
  113MOL0     H15209   3.113   1.890   8.898 -0.3284 -0.5844  1.3232
  113MOL0     H15210   2.990   1.973   8.799  0.2000 -2.7692 -3.5649
  113MOL0     H15211   2.869   1.745   8.788  0.2426 -0.0952 -0.9561
  113MOL0     H15212   3.005   1.671   8.884  1.1560  1.9051  1.7031
  113MOL0     H15213   3.084   1.829   8.648 -1.6660 -0.9643  0.0845
  113MOL0     H15214   3.004   1.669   8.628 -0.7458  0.6178 -1.1001
  113MOL0     H15215   3.325   1.855   8.669  1.4210  0.5530 -0.7516
  113MOL0     H15216   3.625   1.993   8.827  0.0595  1.4511 -1.8649
  113MOL0     H15217   3.496   2.015   8.700 -0.1181 -1.6083 -0.6011
  113MOL0     H15218   3.492   2.084   8.867  4.2574 -0.1255  2.6558
  113MOL0     H15219   3.881   1.877   9.107 -2.6272 -1.0210  0.8204
  113MOL0     H15220   4.019   1.991   9.298  0.1028 -0.8036  0.9194
  113MOL0     H15221   3.936   2.020   9.555 -1.0447  0.5990 -2.0278
  113MOL0     H15222   4.087   2.114   9.540  0.0235  1.9199 -0.1320
  113MOL0     H15223   3.975   2.108   9.749 -1.3288  1.8249  1.6074
  113MOL0     H15224   4.000   2.282   9.703  0.6296  0.0446 -0.5033
  113MOL0     H15225   3.747   2.287   9.638 -0.9204  2.0493  2.1734
  113MOL0     H15226   3.770   2.260   9.796 -2.3624  1.5116 -1.8153
  113MOL0     H15227   3.721   2.029   9.599 -2.5211 -1.8790  0.1019
  113MOL0     H15228   3.737   2.004   9.763 -0.7892 -0.0580  0.3694
  113MOL0     H15229   3.503   2.167   9.651 -0.5875 -0.6963 -0.1606
  113MOL0     H15230   3.543   2.188   9.811 -0.9707  1.4658 -0.1517
  113MOL0     H15231   3.513   1.912   9.686  1.4623 -0.3948  0.6113
  113MOL0     H15232   3.521   1.929   9.862 -1.5438  0.3596  0.2426
  113MOL0     H15233   3.312   2.028   9.682  0.4434 -0.6335 -0.1944
  113MOL0     H15234   3.312   2.066   9.852  1.0140  1.3567 -0.6910
  113MOL0     H15235   3.326   1.801   9.863 -0.3131  0.1306  1.6348
  113MOL0     H15236   3.259   1.814   9.692  1.4215 -1.5217  0.2850
  113MOL0     H15237   3.666   2.227   9.382 -0.4361 -0.8948  1.8223
  113MOL0     H15238   3.550   2.110   9.206  0.1166  0.4663 -0.7391
  113MOL0     H15239   3.410   1.622   9.087  0.9959 -0.6812 -1.0297
  113MOL0     H15240   3.248   1.540   8.924 -0.0515 -1.0122 -2.1983
  113MOL0     H15241   3.888   1.454  10.080 -1.9099  0.2220 -1.1299
  113MOL0     H15242   4.093   1.551  10.172  1.1898  0.4117 -1.0372
  113MOL0     H15243   4.248   2.065  10.394 -0.8546  0.8287 -2.3530
  113MOL0     H15244   4.450   2.146  10.476 -2.4992  0.7333 -1.6110
  113MOL0     H15245   4.716   2.256  10.411  3.0772 -0.8270 -1.4787
  113MOL0     H15246   4.660   2.181  10.562  0.2630  0.8963 -0.8175
  113MOL0     H15247   4.875   2.288  10.600  1.4868  2.1798 -3.2031
  113MOL0     H15248   4.943   2.193  10.467 -0.1726  0.0713 -0.1361
  113MOL0     H15249   4.800   2.061  10.706 -0.4859 -0.4634 -1.8727
  113MOL0     H15250   4.967   2.110  10.720  2.0007  0.4683 -2.9610
  113MOL0     H15251   4.865   1.876  10.537  2.6585 -3.6354  1.1481
  113MOL0     H15252   4.958   1.879  10.679  0.4823 -3.2379 -1.5610
  113MOL0     H15253   5.194   1.942  10.327 -2.5772 -0.2113 -1.3372
  113MOL0     H15254   4.681   1.862  10.221  0.2949  0.4159  1.1843
  113MOL0     H15255   4.469   1.782  10.145  1.8164 -1.0235  1.2145
  114MOL0     O15256   8.925   8.977  10.645 -0.4618 -0.6439 -0.5866
  114MOL0     C15257   8.881   8.874  10.697 -1.5952 -1.5042 -0.2670
  114MOL0     O15258   8.755   8.827  10.699 -0.2152  0.3054 -0.7368
  114MOL0     C15259   8.673   8.867  10.599 -0.6772  0.1840  0.3749
  114MOL0     C15260   8.699   8.822  10.469  0.0272  0.8816  0.0768
  114MOL0     C15261   8.620   8.858  10.365 -1.0773 -0.1437  0.6540
  114MOL0     C15262   8.514   8.954  10.384 -0.2976  0.2552  0.6652
  114MOL0     O15263   8.429   8.991  10.287 -0.6298  0.4414  0.6337
  114MOL0     C15264   8.393   8.878  10.196  0.1067  0.1168  0.9095
  114MOL0     C15265   8.274   8.925  10.117 -0.1206 -0.0849  0.8519
  114MOL0     C15266   8.156   8.912  10.212  0.0881  0.1291  0.0991
  114MOL0     C15267   8.028   8.962  10.139 -1.2300 -0.4080  0.7379
  114MOL0     C15268   7.894   8.919  10.208  0.3554  0.2946  0.0105
  114MOL0     C15269   7.777   8.970  10.130  1.0580  0.0582 -0.4478
  114MOL0     C15270   7.652   8.961  10.224 -0.2054  0.2382 -1.1221
  114MOL0     C15271   7.524   8.982  10.144  0.2079  0.3856  0.4332
  114MOL0     N15272   7.495   9.118  10.105 -0.0860 -0.1616 -0.8324
  114MOL0     C15273   7.416   9.206  10.182 -0.5775  1.0181  1.0082
  114MOL0     C15274   7.398   9.316  10.108 -0.3012 -0.1036  0.6544
  114MOL0     C15275   7.313   9.427  10.156 -0.4436 -0.2730 -1.0472
  114MOL0     C15276   7.375   9.495  10.279 -0.7613 -0.3172 -0.3380
  114MOL0     C15277   7.524   9.549  10.254 -0.2832  0.0499 -0.3487
  114MOL0     C15278   7.574   9.611  10.387  0.0541 -0.4857  0.5625
  114MOL0     O15279   7.568   9.520  10.503 -0.1373  0.3940  0.1122
  114MOL0     C15280   7.656   9.559  10.601  0.1348 -0.2783  0.5609
  114MOL0     C15281   7.681   9.691  10.640  0.0928  0.2398  0.4133
  114MOL0     C15282   7.753   9.723  10.755 -0.3040 -0.2745 -0.3507
  114MOL0     C15283   7.780   9.874  10.790 -0.3625  0.1351  0.6802
  114MOL0     C15284   7.818   9.615  10.828  1.8222  0.3884  0.5931
  114MOL0     C15285   7.888   9.634  10.958 -0.7609  0.7982  0.3710
  114MOL0     O15286   7.938   9.513  11.015  0.4429 -0.2417  0.3331
  114MOL0     C15287   7.969   9.502  11.143  0.4386 -0.3327  0.2121
  114MOL0     C15288   7.953   9.591  11.255  0.1290  0.3725  0.5788
  114MOL0     C15289   7.980   9.546  11.385  0.2778 -0.5648  0.4156
  114MOL0     C15290   8.033   9.427  11.411 -0.4460  0.0970  0.2223
  114MOL0     O15291   8.063   9.389  11.539  0.6630  0.1879 -0.5253
  114MOL0     C15292   8.178   9.314  11.569 -0.0981  0.0622 -0.3233
  114MOL0     C15293   8.234   9.345  11.708 -0.2734 -0.3405  0.3486
  114MOL0     C15294   8.306   9.479  11.702 -0.2470  0.0186  0.0492
  114MOL0     C15295   8.332   9.543  11.840  0.6032 -0.2405 -0.7462
  114MOL0     C15296   8.363   9.690  11.846  1.1131  0.0645  1.0287
  114MOL0     C15297   8.378   9.738  11.996 -0.8432 -0.1604 -0.3028
  114MOL0     C15298   8.242   9.753  12.065 -0.3063 -0.6246  0.3371
  114MOL0     C15299   8.262   9.704  12.209 -0.8444  0.0684  0.0236
  114MOL0    Cl15300   8.249   9.527  12.217  0.2111 -0.2359 -0.5659
  114MOL0     C15301   8.049   9.339  11.296  0.2167  0.4351 -0.3765
  114MOL0     C15302   8.019   9.373  11.167  0.7830 -0.4610  0.5110
  114MOL0     O15303   7.920   9.746  11.004 -0.3909  0.0930  0.1528
  114MOL0     C15304   7.795   9.480  10.777 -0.0693 -0.3619  0.4715
  114MOL0     C15305   7.716   9.457  10.665 -0.2705  0.5360 -0.6885
  114MOL0     N15306   7.464   9.296   9.985 -0.8086 -0.3864 -1.9764
  114MOL0     N15307   7.518   9.181   9.989  0.2393  0.6497 -0.7491
  114MOL0     C15308   8.505   9.010  10.509 -0.6479 -0.2553 -0.4647
  114MOL0     C15309   8.585   8.972  10.616  0.0269  0.0866  0.5626
  114MOL0     C15310   8.985   8.795  10.777  0.2950 -0.3439 -0.5620
  114MOL0     C15311   8.949   8.717  10.888 -0.5241 -0.1695 -0.2789
  114MOL0     C15312   9.054   8.666  10.971  0.2054  0.4160  0.4563
  114MOL0     C15313   9.193   8.693  10.935  0.4460  1.0047  0.9175
  114MOL0     O15314   9.295   8.651  11.012 -0.1749  0.6632 -0.2028
  114MOL0     C15315   9.270   8.582  11.135  0.7926 -0.4597 -0.3768
  114MOL0     C15316   9.401   8.551  11.217  0.8066  0.5209 -0.7205
  114MOL0     C15317   9.383   8.452  11.332 -0.0314 -0.0236  1.0407
  114MOL0     C15318   9.461   8.478  11.460  0.1273  0.1131 -0.5167
  114MOL0     C15319   9.599   8.537  11.455  0.3685 -0.6888  0.1649
  114MOL0     C15320   9.706   8.593  11.443  0.4114  0.6263  0.7892
  114MOL0     C15321   9.227   8.766  10.823  0.4162  0.1782  0.1050
  114MOL0     C15322   9.125   8.823  10.745  0.3789  0.5025  0.4599
  114MOL0     H15323   8.785   8.758  10.453  1.5234  2.4807  1.3748
  114MOL0     H15324   8.646   8.817  10.268  0.9282  1.0731  0.6389
  114MOL0     H15325   8.466   8.864  10.116 -1.6150 -0.5103 -0.6217
  114MOL0     H15326   8.383   8.780  10.244  2.4402 -0.3561  0.5882
  114MOL0     H15327   8.294   9.024  10.075  0.5677  0.7023  2.9029
  114MOL0     H15328   8.259   8.857  10.032 -1.3450 -1.0005  1.7679
  114MOL0     H15329   8.136   8.809  10.240  0.8154  0.1635  0.7509
  114MOL0     H15330   8.180   8.974  10.299  1.4308 -1.0111  0.5731
  114MOL0     H15331   8.035   9.072  10.139  1.7404 -0.5138 -0.4646
  114MOL0     H15332   8.023   8.931  10.035  1.2510  0.5870  0.2394
  114MOL0     H15333   7.890   8.810  10.195  0.7949  0.3753 -0.8888
  114MOL0     H15334   7.902   8.945  10.313 -0.6888 -2.6205  0.9092
  114MOL0     H15335   7.790   9.067  10.081 -1.1834  0.9870  0.6430
  114MOL0     H15336   7.760   8.909  10.041  1.0472  3.7117 -3.2023
  114MOL0     H15337   7.642   8.861  10.269 -0.5641  0.8089  0.1358
  114MOL0     H15338   7.652   9.032  10.308 -0.5426 -1.6876  0.5996
  114MOL0     H15339   7.440   8.943  10.203  0.7665 -0.3418  0.7688
  114MOL0     H15340   7.536   8.914  10.059  2.9540  0.4498  0.6686
  114MOL0     H15341   7.375   9.205  10.283 -0.8775  4.4829  1.0525
  114MOL0     H15342   7.294   9.495  10.073  0.3121 -2.9574 -3.5818
  114MOL0     H15343   7.216   9.382  10.178 -1.3671  2.2818  0.6479
  114MOL0     H15344   7.404   9.420  10.354  3.9782  1.7708  0.2754
  114MOL0     H15345   7.317   9.572  10.331 -0.8307 -1.6098  1.6302
  114MOL0     H15346   7.521   9.626  10.177 -0.8516  0.8717  0.4727
  114MOL0     H15347   7.588   9.468  10.219 -1.4061 -1.0393  0.0404
  114MOL0     H15348   7.524   9.706  10.406  1.1759  0.1650  0.3540
  114MOL0     H15349   7.675   9.639  10.355  0.1778 -1.3383  0.1822
  114MOL0     H15350   7.625   9.759  10.577  0.4281 -0.0723 -0.2316
  114MOL0     H15351   7.722   9.898  10.880 -0.4848  0.7097  0.4497
  114MOL0     H15352   7.884   9.900  10.808 -1.0962  4.7333 -0.5162
  114MOL0     H15353   7.747   9.931  10.703 -0.2301  3.4335  2.6440
  114MOL0     H15354   7.924   9.693  11.233 -3.7303 -0.4870  0.8952
  114MOL0     H15355   7.968   9.613  11.470 -1.4228 -0.5377  0.1674
  114MOL0     H15356   8.161   9.208  11.550  2.5159 -1.2606  3.4511
  114MOL0     H15357   8.258   9.338  11.498  0.8973  3.1067  1.6127
  114MOL0     H15358   8.149   9.336  11.775 -0.0612  0.5736  0.7633
  114MOL0     H15359   8.306   9.267  11.733  0.3163 -0.8993 -2.6607
  114MOL0     H15360   8.249   9.547  11.636 -2.7858 -0.5267  1.5281
  114MOL0     H15361   8.407   9.479  11.662  0.5672 -1.5778  1.9791
  114MOL0     H15362   8.240   9.534  11.899  2.3150 -1.6944  1.8778
  114MOL0     H15363   8.401   9.483  11.899 -0.0236 -1.6114 -1.3710
  114MOL0     H15364   8.285   9.739  11.787  0.5513 -1.5268  0.3886
  114MOL0     H15365   8.454   9.709  11.788  1.2511  1.4951  1.6876
  114MOL0     H15366   8.456   9.686  12.051 -0.8337 -0.6220 -0.7548
  114MOL0     H15367   8.408   9.842  11.982  0.0589 -0.3206  0.4209
  114MOL0     H15368   8.170   9.696  12.005 -1.4725  0.0619  1.0567
  114MOL0     H15369   8.210   9.857  12.071  0.2202 -0.2199 -2.5027
  114MOL0     H15370   8.191   9.751  12.277 -0.4868  2.0233 -0.8972
  114MOL0     H15371   8.355   9.739  12.253 -1.0008 -0.0836  0.4777
  114MOL0     H15372   8.074   9.235  11.314  0.5780  1.1353  4.4635
  114MOL0     H15373   8.021   9.302  11.085  0.4719  0.6538 -0.4811
  114MOL0     H15374   7.832   9.394  10.832  0.5932 -1.3189 -1.3774
  114MOL0     H15375   7.686   9.355  10.641 -0.1279  0.3161  0.0529
  114MOL0     H15376   8.438   9.093  10.528  3.0164  2.6625  1.0475
  114MOL0     H15377   8.572   8.994  10.721 -0.4277  0.0641  0.5114
  114MOL0     H15378   8.843   8.707  10.905 -0.5090  1.0277  0.7196
  114MOL0     H15379   9.007   8.602  11.045 -0.2396 -1.8966 -1.6479
  114MOL0     H15380   9.191   8.636  11.189  0.1307 -1.0955 -0.6942
  114MOL0     H15381   9.228   8.482  11.123 -0.1195 -0.1999  0.4493
  114MOL0     H15382   9.416   8.653  11.253  2.1316  0.1890 -0.2735
  114MOL0     H15383   9.475   8.511  11.146  0.4893 -0.4141 -0.5387
  114MOL0     H15384   9.409   8.363  11.274 -0.7246 -0.2362  1.0418
  114MOL0     H15385   9.274   8.447  11.344 -0.2323  3.7560  1.8410
  114MOL0     H15386   9.467   8.379  11.505 -3.4674 -0.3945 -0.8275
  114MOL0     H15387   9.397   8.534  11.529 -2.0462 -2.3376 -0.3693
  114MOL0     H15388   9.809   8.619  11.434  1.3549 -3.3707 -2.9373
  114MOL0     H15389   9.327   8.805  10.804 -0.9011  2.1989 -3.8491
  114MOL0     H15390   9.148   8.873  10.651 -2.5354  3.2356  1.0023
  115MOL0     O15391  10.654   8.620   1.359  0.2370 -0.4749  0.0591
  115MOL0     C15392  10.745   8.535   1.330  1.3428 -0.1598 -0.6289
  115MOL0     O15393  10.877   8.556   1.345  0.5294 -0.6046  0.2041
  115MOL0     C15394  10.919   8.669   1.413 -0.0972  0.3121 -0.1442
  115MOL0     C15395  10.900   8.675   1.554 -0.2976 -0.1274  0.2851
  115MOL0     C15396  10.956   8.774   1.629 -0.0282  0.8066 -0.4304
  115MOL0     C15397  11.019   8.881   1.565 -0.0152 -0.0535 -0.0803
  115MOL0     O15398  11.029   8.991   1.645 -0.1831 -0.1352 -0.5211
  115MOL0     C15399  11.118   9.103   1.617  1.0015  0.0240  0.0286
  115MOL0     C15400  11.033   9.226   1.568 -0.1678  0.1438  1.1726
  115MOL0     C15401  10.972   9.295   1.683 -0.1857  0.1235 -0.8450
  115MOL0     C15402  10.899   9.422   1.652  0.3904  0.2957 -0.3185
  115MOL0     C15403  10.747   9.396   1.604  0.1694  0.7664  0.2021
  115MOL0     C15404  10.672   9.515   1.540 -0.9764 -0.0188  0.0705
  115MOL0     C15405  10.656   9.626   1.639 -0.4095 -0.2084  0.4505
  115MOL0     C15406  10.586   9.742   1.587  0.4218  0.5514  1.0495
  115MOL0     N15407  10.562   9.840   1.686  0.0726  0.2403 -0.2270
  115MOL0     C15408  10.653   9.936   1.714  0.5321  0.1314  0.1603
  115MOL0     C15409  10.573  10.037   1.773 -0.5794 -0.2009  1.0077
  115MOL0     C15410  10.623  10.179   1.805 -1.0840  0.2925 -0.1887
  115MOL0     C15411  10.616  10.266   1.684  1.1414  0.7589  0.4138
  115MOL0     C15412  10.475  10.277   1.625  0.1793 -0.4652  0.2987
  115MOL0     C15413  10.474  10.386   1.521  0.1954 -0.2071 -0.0117
  115MOL0     O15414  10.567  10.374   1.408  0.3226  0.2022 -0.0419
  115MOL0     C15415  10.570  10.468   1.307 -0.4078 -0.3883 -0.0306
  115MOL0     C15416  10.502  10.588   1.307 -0.9876 -0.9162 -0.0138
  115MOL0     C15417  10.507  10.682   1.197 -0.2664  1.0884 -0.1248
  115MOL0     C15418  10.443  10.818   1.207 -0.5721 -0.5872 -0.3983
  115MOL0     C15419  10.583  10.644   1.080 -0.5402 -0.0748 -0.1780
  115MOL0     C15420  10.622  10.738   0.966 -0.7832  1.5230  0.1717
  115MOL0     O15421  10.688  10.677   0.858  0.7722 -0.0901 -1.2162
  115MOL0     C15422  10.710  10.745   0.748 -0.5049  0.0658  1.2034
  115MOL0     C15423  10.602  10.799   0.672 -0.5314  0.3846 -0.4822
  115MOL0     C15424  10.632  10.886   0.568  0.2136  0.1197  0.1630
  115MOL0     C15425  10.763  10.936   0.547  0.1161 -0.4065 -0.5554
  115MOL0     O15426  10.797  11.038   0.462  0.5410 -0.5679 -0.2938
  115MOL0     C15427  10.717  11.066   0.341  0.0288  0.3311 -0.5113
  115MOL0     C15428  10.819  11.125   0.248  0.1105  0.7360  0.5690
  115MOL0     C15429  10.762  11.105   0.102 -0.7773 -0.5120  0.7330
  115MOL0     C15430  10.873  11.131   0.012 -0.7298 -0.7019 -0.4928
  115MOL0     C15431  10.902  11.276   0.001 -0.1868  0.0569 -0.1277
  115MOL0     C15432  11.013  11.307  -0.108 -0.5789  0.4939  0.4876
  115MOL0     C15433  11.154  11.249  -0.045  0.8445 -0.1800  0.2210
  115MOL0     C15434  11.282  11.286  -0.126 -0.1050 -0.4937  0.4529
  115MOL0    Cl15435  11.428  11.248  -0.029  0.2269  0.3553 -0.2527
  115MOL0     C15436  10.861  10.876   0.622  0.9363 -0.3729 -0.2724
  115MOL0     C15437  10.844  10.773   0.719 -0.9251  0.0789  0.5665
  115MOL0     O15438  10.591  10.856   0.975 -0.9580  1.0108 -0.2273
  115MOL0     C15439  10.643  10.527   1.085  0.3027 -0.4022  0.9959
  115MOL0     C15440  10.636  10.439   1.198  0.2081 -0.0312 -0.2145
  115MOL0     N15441  10.446   9.992   1.797 -0.3989  0.5913  0.0084
  115MOL0     N15442  10.441   9.877   1.738 -0.5702 -0.4344  0.8771
  115MOL0     C15443  11.036   8.884   1.431  0.1503 -0.3038 -0.1506
  115MOL0     C15444  10.982   8.778   1.352 -0.0632  0.2714  0.3863
  115MOL0     C15445  10.705   8.410   1.263  0.4014  0.8569 -0.6851
  115MOL0     C15446  10.576   8.393   1.209 -0.2461  0.7987  0.8815
  115MOL0     C15447  10.530   8.272   1.151 -0.6108 -1.6418  0.0138
  115MOL0     C15448  10.615   8.156   1.164  1.1269 -0.6914 -0.0740
  115MOL0     O15449  10.595   8.030   1.124  0.4910  0.4639  0.0057
  115MOL0     C15450  10.457   8.009   1.097 -0.0529 -0.4228  0.2566
  115MOL0     C15451  10.425   7.862   1.116  0.9156  0.6015  1.2884
  115MOL0     C15452  10.297   7.817   1.040  0.4923 -0.1167  0.5150
  115MOL0     C15453  10.259   7.673   1.078 -0.9311 -0.3229 -0.1631
  115MOL0     C15454  10.119   7.647   1.053  0.4991 -0.1088  0.4495
  115MOL0     C15455  10.004   7.621   1.033 -0.1591  0.2235  0.3805
  115MOL0     C15456  10.733   8.175   1.223 -0.2975 -0.1350  0.5141
  115MOL0     C15457  10.785   8.289   1.287  0.4276 -0.4240  0.1330
  115MOL0     H15458  10.861   8.587   1.605  1.5208  0.4096  2.8269
  115MOL0     H15459  10.957   8.773   1.737  0.9276  1.5421 -0.4194
  115MOL0     H15460  11.170   9.120   1.712 -1.7865 -4.4655  2.7555
  115MOL0     H15461  11.196   9.077   1.545  2.4355  1.2257  1.0968
  115MOL0     H15462  11.107   9.292   1.523  0.1086 -1.4380 -0.8534
  115MOL0     H15463  10.953   9.203   1.497  0.7739  0.2085  0.0452
  115MOL0     H15464  10.891   9.230   1.715 -0.3670 -0.1628 -1.8632
  115MOL0     H15465  11.042   9.316   1.765  0.1186 -2.2577 -0.4381
  115MOL0     H15466  10.901   9.474   1.748 -3.5152 -0.9098  0.6006
  115MOL0     H15467  10.963   9.483   1.588 -1.0734  2.5573  0.2786
  115MOL0     H15468  10.750   9.313   1.533  1.1145 -0.0115  1.1113
  115MOL0     H15469  10.689   9.374   1.694 -0.1174  2.2722  0.4166
  115MOL0     H15470  10.724   9.553   1.451 -1.3961  0.5869  0.0750
  115MOL0     H15471  10.576   9.488   1.495 -0.2352 -0.2703 -1.4327
  115MOL0     H15472  10.590   9.596   1.721 -2.8361  0.3547 -1.2049
  115MOL0     H15473  10.755   9.657   1.674 -0.3910 -0.7956  0.9287
  115MOL0     H15474  10.496   9.706   1.538  1.2264 -0.0088 -0.0501
  115MOL0     H15475  10.654   9.787   1.514 -2.6958  5.4174  0.6693
  115MOL0     H15476  10.758   9.938   1.686  0.5964  1.1832  0.4302
  115MOL0     H15477  10.562  10.208   1.891 -0.4166 -0.7905  0.6753
  115MOL0     H15478  10.729  10.163   1.827 -1.0294 -0.6079 -1.0285
  115MOL0     H15479  10.682  10.247   1.598  1.6643  3.6619  0.0383
  115MOL0     H15480  10.641  10.371   1.702 -2.3214  1.9090 -0.7316
  115MOL0     H15481  10.398  10.284   1.703 -1.3291 -1.7872 -0.9768
  115MOL0     H15482  10.452  10.188   1.565 -0.3897  1.6386 -2.8201
  115MOL0     H15483  10.488  10.485   1.565  0.4525 -0.5063  0.5900
  115MOL0     H15484  10.372  10.396   1.483  0.7201  0.2943 -1.3849
  115MOL0     H15485  10.444  10.630   1.389 -0.2210  1.9494 -0.8055
  115MOL0     H15486  10.389  10.832   1.113 -0.8969 -1.3302 -0.3340
  115MOL0     H15487  10.370  10.824   1.288  0.5325 -1.5984  0.7263
  115MOL0     H15488  10.517  10.894   1.233 -0.5686 -1.2829  1.8381
  115MOL0     H15489  10.499  10.776   0.697 -0.3062 -2.2029 -1.6502
  115MOL0     H15490  10.560  10.934   0.503  2.0607 -1.1225 -3.0729
  115MOL0     H15491  10.677  10.969   0.310 -0.1434 -0.7961  2.8121
  115MOL0     H15492  10.631  11.132   0.356 -1.9586 -2.3318  0.4817
  115MOL0     H15493  10.834  11.230   0.277 -1.7025  0.6591  1.9990
  115MOL0     H15494  10.914  11.071   0.251 -1.7624 -2.7907  0.7339
  115MOL0     H15495  10.672  11.161   0.074 -0.9285  0.9380  3.7099
  115MOL0     H15496  10.728  11.001   0.091  0.1628 -0.9295  1.5266
  115MOL0     H15497  10.966  11.076   0.032 -0.3407 -0.1161 -0.6469
  115MOL0     H15498  10.841  11.096  -0.087 -2.4510  0.7506 -0.5024
  115MOL0     H15499  10.955  11.304   0.093  2.3303 -0.9383 -1.1995
  115MOL0     H15500  10.812  11.334  -0.023 -0.1974 -0.7046 -2.0729
  115MOL0     H15501  11.005  11.254  -0.203 -1.8605  2.0331 -0.3014
  115MOL0     H15502  11.024  11.414  -0.125  5.2382 -0.0620 -1.5332
  115MOL0     H15503  11.150  11.140  -0.055  2.1437 -0.0574 -2.7088
  115MOL0     H15504  11.173  11.277   0.059  0.8155 -0.1578  0.2200
  115MOL0     H15505  11.288  11.393  -0.148  0.8533  0.0801  3.1007
  115MOL0     H15506  11.290  11.228  -0.218  0.7736 -1.2341  0.9783
  115MOL0     H15507  10.964  10.892   0.592  0.2065 -1.8891 -4.1133
  115MOL0     H15508  10.926  10.707   0.745 -1.2672 -1.8782 -2.7224
  115MOL0     H15509  10.707  10.510   1.000 -1.9382  1.9543 -1.3621
  115MOL0     H15510  10.709  10.358   1.201  0.4186  0.1468 -0.4088
  115MOL0     H15511  11.074   8.969   1.376  0.4628  0.0664  0.6248
  115MOL0     H15512  10.994   8.793   1.245 -3.2058  0.6879 -0.0071
  115MOL0     H15513  10.516   8.479   1.179  2.9846  3.4563  1.4406
  115MOL0     H15514  10.447   8.275   1.082 -1.6070 -0.1939  1.2032
  115MOL0     H15515  10.391   8.062   1.167  0.3696 -1.1970  1.2797
  115MOL0     H15516  10.435   8.052   0.999  0.3765 -1.4232 -0.2978
  115MOL0     H15517  10.407   7.855   1.223 -1.3155  3.1562  1.1828
  115MOL0     H15518  10.512   7.806   1.081 -0.7239  0.6464 -3.6270
  115MOL0     H15519  10.299   7.835   0.932 -0.7275  1.6074  0.7457
  115MOL0     H15520  10.214   7.883   1.065 -0.2395  0.0372 -2.0248
  115MOL0     H15521  10.289   7.651   1.181  0.5794  1.2687 -0.2124
  115MOL0     H15522  10.314   7.595   1.025 -2.7329 -0.9745 -1.1389
  115MOL0     H15523   9.903   7.598   1.004 -0.0789  2.2895 -1.9685
  115MOL0     H15524  10.797   8.090   1.244 -2.2693 -1.3179  2.1748
  115MOL0     H15525  10.873   8.282   1.350 -1.1032  0.0887  2.4844
  116MOL0     O15526   2.691   8.748   9.883  0.5398 -0.2818 -0.1467
  116MOL0     C15527   2.777   8.713   9.802  1.0947  0.1331 -0.6909
  116MOL0     O15528   2.869   8.789   9.736 -0.2302 -0.5788 -0.6636
  116MOL0     C15529   2.882   8.911   9.778  0.4099 -0.9143 -0.5924
  116MOL0     C15530   2.988   8.946   9.868  0.3925 -0.2117 -0.2105
  116MOL0     C15531   2.997   9.079   9.922 -0.3246 -0.2167  0.5933
  116MOL0     C15532   2.909   9.179   9.874 -0.2212  0.8005  0.1768
  116MOL0     O15533   2.929   9.300   9.924 -1.1409  0.0605 -0.3487
  116MOL0     C15534   2.841   9.407   9.894 -0.0917  0.5439  0.3862
  116MOL0     C15535   2.882   9.531   9.971  0.1249 -1.0182  1.5546
  116MOL0     C15536   2.775   9.651   9.940 -0.1036  1.5624  0.1198
  116MOL0     C15537   2.823   9.774  10.011 -0.2922 -0.3020  0.0551
  116MOL0     C15538   2.717   9.880   9.998 -0.4268 -0.3094 -0.0805
  116MOL0     C15539   2.710   9.960  10.129  0.1359 -0.6355  0.0489
  116MOL0     C15540   2.609  10.076  10.121  0.7000 -0.3205  0.4637
  116MOL0     C15541   2.468  10.041  10.081  0.8343 -0.6222  0.5523
  116MOL0     N15542   2.368  10.142  10.130 -0.1786  1.1207  0.7010
  116MOL0     C15543   2.328  10.122  10.258 -0.4774  0.3018 -0.4806
  116MOL0     C15544   2.261  10.231  10.294 -0.1108  0.4712 -0.1905
  116MOL0     C15545   2.214  10.276  10.430  0.4824 -0.8319 -0.6992
  116MOL0     C15546   2.229  10.162  10.528  0.4293  0.6837 -0.4571
  116MOL0     C15547   2.181  10.209  10.666 -0.2643 -0.0458 -0.6329
  116MOL0     C15548   2.185  10.104  10.779 -0.6250 -0.5025 -0.2636
  116MOL0     O15549   2.097  10.147  10.888 -0.3278 -0.6311 -0.4280
  116MOL0     C15550   2.143  10.139  11.018 -0.2039 -0.4972  0.3860
  116MOL0     C15551   2.278  10.140  11.058 -0.4751  0.8609 -0.1862
  116MOL0     C15552   2.317  10.112  11.188  0.6666 -0.2368  0.5731
  116MOL0     C15553   2.463  10.101  11.215 -0.3675 -0.7525 -0.3803
  116MOL0     C15554   2.213  10.095  11.286  1.2944  0.1314  0.4456
  116MOL0     C15555   2.243  10.074  11.430  0.5285 -0.6961  0.2889
  116MOL0     O15556   2.183   9.969  11.487  0.2778 -0.2700  0.5698
  116MOL0     C15557   2.179   9.943  11.620 -0.7327 -0.4085 -0.2822
  116MOL0     C15558   2.159  10.033  11.723 -0.4148 -0.4167  0.3843
  116MOL0     C15559   2.150   9.991  11.861 -1.0557  0.2215 -0.1129
  116MOL0     C15560   2.154   9.854  11.886 -0.1269  0.6367 -0.4315
  116MOL0     O15561   2.153   9.823  12.019 -0.6259 -0.3143 -0.2929
  116MOL0     C15562   2.257   9.729  12.063 -0.7866 -0.6782  0.3084
  116MOL0     C15563   2.299   9.752  12.207  0.2101  0.3269 -1.6401
  116MOL0     C15564   2.339   9.887  12.248  0.2132 -1.8052 -0.0630
  116MOL0     C15565   2.477   9.936  12.206 -0.2109 -0.3705 -0.7297
  116MOL0     C15566   2.529  10.049  12.289 -0.1673  0.1627  0.1370
  116MOL0     C15567   2.667  10.096  12.263 -0.2835  0.5612 -0.2215
  116MOL0     C15568   2.702  10.219  12.343 -0.1125  0.6847  0.4587
  116MOL0     C15569   2.854  10.259  12.325 -0.3522  0.1029  0.1461
  116MOL0    Cl15570   2.888  10.284  12.159 -0.1435  0.1270  0.1471
  116MOL0     C15571   2.169   9.762  11.776 -0.4345 -0.0756  0.2173
  116MOL0     C15572   2.184   9.812  11.649  0.0064  0.1869  0.3054
  116MOL0     O15573   2.318  10.156  11.482  0.0421  0.3159 -0.7507
  116MOL0     C15574   2.073  10.107  11.247 -1.0166  1.1783  0.6331
  116MOL0     C15575   2.050  10.127  11.112  0.4725 -0.5168 -0.6497
  116MOL0     N15576   2.262  10.316  10.182  0.4544  0.4248  0.1488
  116MOL0     N15577   2.335  10.263  10.085  0.9814  0.7208 -0.2520
  116MOL0     C15578   2.821   9.144   9.769 -0.3488  0.2971 -0.0243
  116MOL0     C15579   2.797   9.009   9.730  0.5835  0.3123  0.5534
  116MOL0     C15580   2.787   8.572   9.770  0.5589 -0.4239 -0.0183
  116MOL0     C15581   2.890   8.521   9.680  0.0461 -0.6358  0.5870
  116MOL0     C15582   2.898   8.390   9.648 -0.1854  0.0897 -0.6339
  116MOL0     C15583   2.809   8.301   9.715 -0.2564 -0.4390 -0.2563
  116MOL0     O15584   2.852   8.171   9.685 -0.5602 -0.1119  1.3672
  116MOL0     C15585   2.746   8.068   9.661 -1.0982 -0.1944 -0.4434
  116MOL0     C15586   2.662   8.109   9.537  0.0862  0.5190  0.1661
  116MOL0     C15587   2.735   8.123   9.407 -0.2128 -0.8721  0.2818
  116MOL0     C15588   2.645   8.214   9.317 -1.1161  0.1446  0.0916
  116MOL0     C15589   2.693   8.213   9.174 -0.1620 -0.4284 -0.6839
  116MOL0     C15590   2.733   8.203   9.060  0.3145 -0.2529  0.8310
  116MOL0     C15591   2.708   8.342   9.799  0.0264  0.6108  0.0367
  116MOL0     C15592   2.694   8.477   9.829 -0.3124  0.7936 -0.7840
  116MOL0     H15593   3.053   8.867   9.902 -1.0383 -3.1980 -3.6511
  116MOL0     H15594   3.079   9.094   9.991  3.0359 -2.6850 -2.4416
  116MOL0     H15595   2.868   9.426   9.790  0.6763 -2.1715 -0.0021
  116MOL0     H15596   2.735   9.383   9.898  0.7502 -4.0202  1.3082
  116MOL0     H15597   2.865   9.517  10.078  0.7675  1.4033  2.0285
  116MOL0     H15598   2.988   9.554   9.961  0.4493 -2.3392  1.7789
  116MOL0     H15599   2.783   9.670   9.833 -1.8307 -2.6457 -0.9482
  116MOL0     H15600   2.672   9.625   9.967 -0.5272  2.4388 -0.6218
  116MOL0     H15601   2.829   9.750  10.118 -0.8828  2.0782  0.7023
  116MOL0     H15602   2.919   9.808   9.972 -1.1170 -0.5773 -2.3330
  116MOL0     H15603   2.751   9.946   9.918  2.5131  0.4054  1.6292
  116MOL0     H15604   2.617   9.839   9.978 -0.5755  0.0253 -0.0270
  116MOL0     H15605   2.669   9.901  10.211 -1.6979  1.9295  1.1251
  116MOL0     H15606   2.801  10.010  10.163 -1.0026  1.0278  0.8444
  116MOL0     H15607   2.593  10.118  10.221 -2.2673  4.2174 -1.5514
  116MOL0     H15608   2.659  10.142  10.050 -1.6141 -1.1162 -2.0480
  116MOL0     H15609   2.442   9.940  10.113  3.1184 -0.9458  1.5908
  116MOL0     H15610   2.459  10.048   9.972  1.0199  3.2346  0.6402
  116MOL0     H15611   2.339  10.038  10.326 -1.3095 -0.1195 -0.8692
  116MOL0     H15612   2.293  10.349  10.451 -0.0103 -0.1149 -1.2919
  116MOL0     H15613   2.116  10.325  10.425  1.4886  1.4089  0.0491
  116MOL0     H15614   2.333  10.128  10.533 -0.4117 -2.4123 -1.7114
  116MOL0     H15615   2.167  10.075  10.503  2.6281 -0.9202 -0.7008
  116MOL0     H15616   2.080  10.250  10.658 -1.1546 -2.3870 -2.6383
  116MOL0     H15617   2.248  10.292  10.692 -0.3474  0.0253 -0.6417
  116MOL0     H15618   2.287  10.086  10.815 -1.4207  1.6424  3.5715
  116MOL0     H15619   2.148  10.005  10.752 -1.0868 -0.8944  1.6662
  116MOL0     H15620   2.360  10.153  10.988 -0.8649 -2.0721 -1.3495
  116MOL0     H15621   2.479  10.018  11.285 -0.8498  0.5107  1.2952
  116MOL0     H15622   2.521  10.087  11.124 -0.3055  0.3352 -0.5133
  116MOL0     H15623   2.501  10.184  11.275  0.1185  0.1387 -1.8803
  116MOL0     H15624   2.159  10.139  11.703 -1.5713 -0.8559 -2.3432
  116MOL0     H15625   2.148  10.061  11.945  2.0956 -0.7105  0.9061
  116MOL0     H15626   2.227   9.626  12.043  1.2922 -0.9439 -1.9206
  116MOL0     H15627   2.344   9.739  11.997 -1.2400  0.5595 -0.1368
  116MOL0     H15628   2.214   9.722  12.269  2.1076  1.1268  1.5776
  116MOL0     H15629   2.381   9.683  12.231 -1.4080 -0.5460  2.1410
  116MOL0     H15630   2.325   9.881  12.356  0.7652  2.0158  0.3939
  116MOL0     H15631   2.258   9.952  12.212  1.2614  1.0245  2.2455
  116MOL0     H15632   2.549   9.854  12.213 -0.8261 -0.8792 -0.1177
  116MOL0     H15633   2.474   9.964  12.101 -1.3469 -0.9052 -0.8581
  116MOL0     H15634   2.527  10.029  12.397 -0.6553  0.6624  0.2212
  116MOL0     H15635   2.465  10.133  12.262  1.7041  1.7044  0.3644
  116MOL0     H15636   2.733  10.016  12.298 -0.9256  0.2678  0.3283
  116MOL0     H15637   2.697  10.112  12.159  5.8008 -0.6631  0.9206
  116MOL0     H15638   2.687  10.202  12.450  0.1580 -0.4157  0.3315
  116MOL0     H15639   2.641  10.302  12.308  0.3939  2.0089  2.5472
  116MOL0     H15640   2.920  10.186  12.372 -1.6302  0.7917  3.2598
  116MOL0     H15641   2.881  10.343  12.390  0.5110  0.2983 -0.4368
  116MOL0     H15642   2.176   9.656  11.797 -1.7700 -0.2560 -0.1034
  116MOL0     H15643   2.192   9.741  11.567  2.5177  1.0489 -0.2738
  116MOL0     H15644   1.989  10.087  11.313  0.5075 -0.5824  2.1704
  116MOL0     H15645   1.947  10.115  11.078 -0.1088  0.2395  0.7520
  116MOL0     H15646   2.761   9.222   9.722 -0.4387 -0.3058 -0.9319
  116MOL0     H15647   2.721   8.985   9.656  1.0486  0.3713  0.0523
  116MOL0     H15648   2.960   8.592   9.639 -0.6635  0.1617  0.7316
  116MOL0     H15649   2.984   8.349   9.596 -0.3181  0.6373 -1.3017
  116MOL0     H15650   2.782   7.965   9.667 -0.3482 -0.0410 -1.7378
  116MOL0     H15651   2.682   8.074   9.749 -1.9923 -1.2607 -0.9913
  116MOL0     H15652   2.609   8.199   9.571 -2.8952 -1.7394  1.9847
  116MOL0     H15653   2.595   8.023   9.538  0.2045  0.4064  2.0245
  116MOL0     H15654   2.749   8.024   9.361  0.0705  0.9835 -4.1001
  116MOL0     H15655   2.836   8.165   9.409 -1.0252  1.1871  0.5092
  116MOL0     H15656   2.657   8.314   9.360 -2.1027 -0.5665  2.1569
  116MOL0     H15657   2.540   8.182   9.313 -1.5241  1.5187 -1.8054
  116MOL0     H15658   2.768   8.184   8.961 -0.5187  0.9944  0.2645
  116MOL0     H15659   2.642   8.282   9.860  2.3028 -1.8114  0.2768
  116MOL0     H15660   2.610   8.513   9.888 -1.8704 -3.8588  0.2381
  117MOL0     O15661   5.400   2.531   3.913  0.1205 -0.1575 -0.3606
  117MOL0     C15662   5.499   2.594   3.867 -0.8420  0.3679 -0.0080
  117MOL0     O15663   5.554   2.577   3.752 -0.4500  0.2770  0.0493
  117MOL0     C15664   5.502   2.505   3.643 -0.0150  0.6476 -0.1556
  117MOL0     C15665   5.598   2.469   3.549 -0.0786 -0.4388 -0.2279
  117MOL0     C15666   5.566   2.425   3.422 -0.7198  0.0733  0.5592
  117MOL0     C15667   5.428   2.386   3.393 -0.3309 -0.0965  0.3312
  117MOL0     O15668   5.366   2.332   3.275  0.1183 -0.3536  0.5984
  117MOL0     C15669   5.409   2.195   3.239 -0.7402 -0.2680  0.5602
  117MOL0     C15670   5.306   2.098   3.304 -0.1646 -0.7130 -0.2666
  117MOL0     C15671   5.165   2.098   3.237 -0.7250 -0.6822 -0.3935
  117MOL0     C15672   5.061   2.018   3.310  1.0026 -0.0462 -0.6819
  117MOL0     C15673   5.075   1.868   3.337  0.5841  0.7796 -0.6729
  117MOL0     C15674   5.098   1.796   3.206 -0.7446  0.7149 -0.4993
  117MOL0     C15675   5.108   1.647   3.225 -0.3599  0.8817 -1.3785
  117MOL0     C15676   5.110   1.572   3.090  0.3213  0.8486 -0.3187
  117MOL0     N15677   5.052   1.437   3.117 -0.1468 -1.4079  0.8045
  117MOL0     C15678   5.120   1.328   3.176  0.7591  0.5918 -0.2013
  117MOL0     C15679   5.040   1.218   3.150 -0.1913 -0.6956  0.0708
  117MOL0     C15680   5.071   1.082   3.201 -0.1573 -0.5539  0.0545
  117MOL0     C15681   4.954   0.974   3.198 -0.0254  0.3212  0.9759
  117MOL0     C15682   4.997   0.852   3.282 -0.4858  0.1499 -0.0919
  117MOL0     C15683   5.088   0.755   3.209 -0.0502  0.0707 -1.2081
  117MOL0     O15684   5.206   0.738   3.285 -0.0526 -0.7126 -0.8179
  117MOL0     C15685   5.299   0.661   3.225  0.0906  0.2491  0.2311
  117MOL0     C15686   5.286   0.587   3.106  0.8589  0.0520 -0.6138
  117MOL0     C15687   5.382   0.496   3.052  0.1171  0.3805 -0.5431
  117MOL0     C15688   5.353   0.441   2.916  1.0202  0.1247  0.1791
  117MOL0     C15689   5.503   0.483   3.127 -0.0206  0.4572  0.2603
  117MOL0     C15690   5.620   0.404   3.085 -0.3879 -0.3201 -1.0697
  117MOL0     O15691   5.702   0.346   3.189  0.1838  0.5067  0.1132
  117MOL0     C15692   5.793   0.253   3.136  0.1792 -0.7915  1.0184
  117MOL0     C15693   5.921   0.301   3.118 -0.8637 -0.2838  0.3844
  117MOL0     C15694   6.016   0.204   3.074 -0.4521  0.3067 -0.2684
  117MOL0     C15695   5.986   0.070   3.052  0.3790 -0.1811 -0.4295
  117MOL0     O15696   6.074  -0.030   3.023 -0.4199  0.3003 -0.5638
  117MOL0     C15697   6.215   0.007   3.020  0.7854 -0.1162  0.9239
  117MOL0     C15698   6.304  -0.116   3.003 -0.1493 -0.3113 -0.7386
  117MOL0     C15699   6.304  -0.204   3.131 -0.4470 -0.0605  0.2028
  117MOL0     C15700   6.424  -0.305   3.127  0.2786  1.1081 -0.0542
  117MOL0     C15701   6.385  -0.410   3.016 -0.2472 -0.3723  0.1675
  117MOL0     C15702   6.506  -0.499   2.994  0.1330 -0.7016  0.0494
  117MOL0     C15703   6.470  -0.596   2.878 -0.2106 -0.0948 -0.9511
  117MOL0     C15704   6.596  -0.661   2.824  0.0077  0.0670 -0.0321
  117MOL0    Cl15705   6.700  -0.522   2.765 -0.0717 -0.0687  0.4042
  117MOL0     C15706   5.857   0.027   3.067 -0.2374  0.9382 -0.0799
  117MOL0     C15707   5.752   0.114   3.114 -0.2018  0.4253  0.1626
  117MOL0     O15708   5.649   0.416   2.969  0.6314  0.6309 -0.8280
  117MOL0     C15709   5.511   0.539   3.257 -0.0068 -0.1820 -0.2370
  117MOL0     C15710   5.408   0.628   3.300  0.5835 -0.1712  0.0047
  117MOL0     N15711   4.942   1.259   3.078 -0.1503 -0.4152 -0.0615
  117MOL0     N15712   4.943   1.384   3.053  0.3037 -0.6084  0.1099
  117MOL0     C15713   5.332   2.418   3.496  0.0515  0.5581  0.0204
  117MOL0     C15714   5.376   2.492   3.612 -0.0786  0.0715  0.5592
  117MOL0     C15715   5.572   2.683   3.958 -1.0093 -0.5262 -0.2053
  117MOL0     C15716   5.662   2.777   3.896  0.6460  0.2318  0.5940
  117MOL0     C15717   5.713   2.878   3.970 -0.3472 -0.0289 -0.1437
  117MOL0     C15718   5.695   2.875   4.113  0.3821 -1.1153  0.5709
  117MOL0     O15719   5.775   2.965   4.180 -0.0283  0.8935 -0.4671
  117MOL0     C15720   5.768   2.967   4.326 -0.4153 -0.0068  0.4293
  117MOL0     C15721   5.856   3.083   4.376  0.4261 -0.4576 -0.5797
  117MOL0     C15722   5.822   3.222   4.308 -0.4023  0.1294 -0.9178
  117MOL0     C15723   5.930   3.270   4.201  0.6898 -0.1844  0.7815
  117MOL0     C15724   5.896   3.397   4.129  0.1318  0.8402  0.1840
  117MOL0     C15725   5.864   3.498   4.073  0.4528 -0.9078 -0.4797
  117MOL0     C15726   5.615   2.779   4.177  0.0185  1.1112 -0.6589
  117MOL0     C15727   5.550   2.694   4.098  1.0208  0.5588  0.4459
  117MOL0     H15728   5.699   2.488   3.583 -0.4113 -0.5067  0.8208
  117MOL0     H15729   5.646   2.413   3.349 -1.5798  0.5293 -0.4762
  117MOL0     H15730   5.411   2.173   3.132 -0.1041  0.4426  0.4157
  117MOL0     H15731   5.511   2.180   3.274 -1.2490  0.7570  2.6365
  117MOL0     H15732   5.348   1.998   3.291  1.6904  0.0944 -0.9687
  117MOL0     H15733   5.298   2.130   3.408  1.6844 -0.8333 -0.0534
  117MOL0     H15734   5.125   2.199   3.240  3.4545  1.1991 -0.4297
  117MOL0     H15735   5.187   2.068   3.134  0.6692  2.3544 -1.0751
  117MOL0     H15736   5.069   2.056   3.413 -0.7309 -0.9321 -0.1889
  117MOL0     H15737   4.960   2.031   3.270 -0.5538 -0.4699  2.7239
  117MOL0     H15738   5.162   1.851   3.401  1.1544  1.8598 -1.1419
  117MOL0     H15739   4.979   1.832   3.374  1.2810 -2.8857 -1.9506
  117MOL0     H15740   5.007   1.811   3.148 -2.0171  1.6979  1.6567
  117MOL0     H15741   5.186   1.841   3.159 -1.0012  1.8351  0.0609
  117MOL0     H15742   5.195   1.614   3.284 -1.3054 -2.6131 -1.6966
  117MOL0     H15743   5.021   1.621   3.286 -0.6822  3.5641 -0.5986
  117MOL0     H15744   5.211   1.568   3.050  0.8061  4.2250  0.3386
  117MOL0     H15745   5.057   1.619   3.007 -0.6980 -3.2898 -2.2893
  117MOL0     H15746   5.206   1.328   3.243 -0.9391 -1.4645  2.1479
  117MOL0     H15747   5.148   1.021   3.153 -2.7862 -3.7173 -0.5134
  117MOL0     H15748   5.101   1.090   3.305 -0.8046  3.7305  0.0891
  117MOL0     H15749   4.935   0.942   3.095 -0.3483  0.7945  0.8814
  117MOL0     H15750   4.873   1.028   3.249  0.8943  2.1072  0.6241
  117MOL0     H15751   4.895   0.822   3.306 -0.6437  1.9120  1.7504
  117MOL0     H15752   5.041   0.868   3.381  1.2261 -2.4714 -0.3333
  117MOL0     H15753   5.113   0.808   3.117  0.3769  2.1391  0.0449
  117MOL0     H15754   5.044   0.656   3.191  0.6039 -0.5067  0.1903
  117MOL0     H15755   5.194   0.595   3.048  0.5694 -1.1651 -0.3521
  117MOL0     H15756   5.395   0.342   2.893 -0.1146  0.2157 -2.7805
  117MOL0     H15757   5.244   0.436   2.904  0.9709 -0.4201  0.7672
  117MOL0     H15758   5.397   0.512   2.845 -1.3832  1.5992  0.0457
  117MOL0     H15759   5.951   0.397   3.159  3.3061 -1.4553  0.6216
  117MOL0     H15760   6.119   0.239   3.065 -0.9268  1.2630 -2.7279
  117MOL0     H15761   6.218   0.072   2.932 -4.3451 -0.5579  0.0825
  117MOL0     H15762   6.240   0.056   3.114 -0.1757  0.9565  0.6496
  117MOL0     H15763   6.267  -0.171   2.916  0.3938 -1.6860 -0.1239
  117MOL0     H15764   6.407  -0.088   2.976 -0.2525 -0.0211 -0.8375
  117MOL0     H15765   6.206  -0.251   3.145 -0.8265  0.4722 -0.6441
  117MOL0     H15766   6.326  -0.138   3.216 -0.8348 -0.6655  0.7860
  117MOL0     H15767   6.521  -0.258   3.106  0.9436 -0.4152 -0.5383
  117MOL0     H15768   6.443  -0.340   3.229  0.9904 -0.4620 -0.6780
  117MOL0     H15769   6.351  -0.362   2.923  0.7841  4.1456  1.8827
  117MOL0     H15770   6.307  -0.469   3.065 -1.6038  0.5776 -0.7716
  117MOL0     H15771   6.594  -0.436   2.976  0.2456 -1.2733 -1.5134
  117MOL0     H15772   6.519  -0.551   3.090  0.3965  3.0708  2.2710
  117MOL0     H15773   6.418  -0.543   2.798 -0.3363  0.6280 -0.4031
  117MOL0     H15774   6.397  -0.668   2.915 -0.3449  0.6355  0.2501
  117MOL0     H15775   6.587  -0.735   2.744  1.6044  0.6063 -0.7445
  117MOL0     H15776   6.648  -0.715   2.905  1.7350  3.1303  1.0658
  117MOL0     H15777   5.841  -0.080   3.078  2.3001  0.6288  1.3793
  117MOL0     H15778   5.654   0.077   3.143  0.3005 -2.4560 -1.4474
  117MOL0     H15779   5.603   0.515   3.310 -0.2602 -2.7950 -0.8348
  117MOL0     H15780   5.418   0.665   3.401  5.0636 -0.6362 -0.0718
  117MOL0     H15781   5.227   2.397   3.480 -0.8321  3.1675  1.5744
  117MOL0     H15782   5.304   2.506   3.693 -1.8895  0.9232 -1.1256
  117MOL0     H15783   5.672   2.794   3.789 -0.1702  1.3019  0.6715
  117MOL0     H15784   5.775   2.947   3.914  0.1810  0.8475  1.4678
  117MOL0     H15785   5.668   2.977   4.368 -0.2462  0.2913  0.7808
  117MOL0     H15786   5.810   2.876   4.369  0.6926  0.7434  1.0138
  117MOL0     H15787   5.959   3.070   4.342  0.0778  0.7562 -2.2286
  117MOL0     H15788   5.864   3.096   4.484 -1.0574  1.1631 -0.6296
  117MOL0     H15789   5.820   3.287   4.396  3.0603 -3.8465  2.5225
  117MOL0     H15790   5.724   3.226   4.259 -0.5612  3.8012 -0.6211
  117MOL0     H15791   5.964   3.191   4.133 -1.1515 -0.0472 -0.3946
  117MOL0     H15792   6.014   3.303   4.262  0.8115 -0.2167  0.6334
  117MOL0     H15793   5.830   3.589   4.028 -3.7234  0.0180  3.7706
  117MOL0     H15794   5.608   2.781   4.285  0.7930 -0.7897 -0.5309
  117MOL0     H15795   5.501   2.615   4.154 -1.0626  2.2028  1.1062
  118MOL0     O15796   4.076   0.071   7.332  0.5201 -0.7804  0.4599
  118MOL0     C15797   4.071  -0.046   7.326 -0.6618  0.2262 -0.4345
  118MOL0     O15798   4.139  -0.136   7.403  0.1156 -0.0079  0.6870
  118MOL0     C15799   4.256  -0.089   7.454  0.4512  0.6107  0.7169
  118MOL0     C15800   4.275  -0.087   7.590 -0.1248  0.0267  0.0796
  118MOL0     C15801   4.405  -0.051   7.636  0.3461  0.7695 -0.4293
  118MOL0     C15802   4.508  -0.003   7.558  1.3030  0.2832 -0.2437
  118MOL0     O15803   4.631   0.028   7.616 -0.2486 -0.2637  0.3828
  118MOL0     C15804   4.746   0.006   7.535  0.4735  0.2428  0.2089
  118MOL0     C15805   4.874   0.016   7.618  0.0100  0.4397 -0.2593
  118MOL0     C15806   4.882  -0.115   7.700 -0.1536 -0.3526 -0.0643
  118MOL0     C15807   5.011  -0.127   7.789  0.0699  0.6474 -0.1465
  118MOL0     C15808   4.990  -0.240   7.885  0.5523  0.8329  0.4329
  118MOL0     C15809   5.126  -0.318   7.926 -0.1864  0.5483 -0.4330
  118MOL0     C15810   5.251  -0.223   7.937  1.0629 -0.7227  0.4253
  118MOL0     C15811   5.246  -0.116   8.053 -0.6795 -0.9821 -0.1983
  118MOL0     N15812   5.370  -0.037   8.076 -0.5884 -0.4367  0.6468
  118MOL0     C15813   5.423  -0.029   8.201  0.4008  0.4976  0.2086
  118MOL0     C15814   5.544   0.023   8.187  0.7858 -0.7348 -0.8003
  118MOL0     C15815   5.645   0.059   8.297 -0.3163 -0.7829 -0.5049
  118MOL0     C15816   5.753  -0.049   8.322 -0.0320 -0.0360 -0.1375
  118MOL0     C15817   5.859  -0.004   8.404 -0.7916 -0.5590  0.2776
  118MOL0     C15818   5.978  -0.106   8.427  0.5277  0.5045 -0.1917
  118MOL0     O15819   5.927  -0.231   8.467 -0.2948  1.1265  0.6561
  118MOL0     C15820   6.001  -0.344   8.484 -0.1401  0.0069 -0.5745
  118MOL0     C15821   5.942  -0.466   8.491 -0.6458  0.6635 -0.1546
  118MOL0     C15822   6.019  -0.580   8.524  0.0547  0.7482  0.6517
  118MOL0     C15823   5.950  -0.719   8.523  1.1094 -0.6442 -0.0896
  118MOL0     C15824   6.159  -0.565   8.523  0.5298 -0.5703  0.6462
  118MOL0     C15825   6.247  -0.678   8.545 -0.0455 -0.4222  0.9093
  118MOL0     O15826   6.240  -0.750   8.658 -0.2368 -0.3303 -0.8870
  118MOL0     C15827   6.324  -0.856   8.673  0.4078 -0.4479  0.1993
  118MOL0     C15828   6.430  -0.841   8.763  0.3810 -0.5870 -0.9173
  118MOL0     C15829   6.522  -0.942   8.786  0.3101  0.1027 -0.8678
  118MOL0     C15830   6.523  -1.047   8.696  0.3727  0.1995  0.2471
  118MOL0     O15831   6.626  -1.142   8.682 -0.2653  1.0611  0.3076
  118MOL0     C15832   6.756  -1.097   8.718 -0.5014  0.0104 -0.3618
  118MOL0     C15833   6.846  -1.222   8.713  0.6500  0.4735  0.2950
  118MOL0     C15834   6.989  -1.197   8.767  0.0032 -0.3761  0.5389
  118MOL0     C15835   7.041  -1.059   8.723  0.1694 -1.5344 -0.2391
  118MOL0     C15836   7.175  -1.031   8.762  0.1573  0.2903  0.4158
  118MOL0     C15837   7.208  -0.889   8.736  0.0835 -0.9265  0.1294
  118MOL0     C15838   7.305  -0.830   8.835 -0.2918 -0.1736  0.0660
  118MOL0     C15839   7.346  -0.689   8.781 -0.2785  0.0978 -0.7099
  118MOL0    Cl15840   7.203  -0.586   8.740 -0.4893  0.3435  0.6784
  118MOL0     C15841   6.416  -1.071   8.611 -0.3291  0.4484 -0.7737
  118MOL0     C15842   6.310  -0.981   8.607 -0.4384 -0.9105  0.3391
  118MOL0     O15843   6.336  -0.682   8.465 -0.7983 -0.1136  0.1494
  118MOL0     C15844   6.225  -0.438   8.510 -0.2718 -0.2031 -0.0199
  118MOL0     C15845   6.138  -0.328   8.490 -0.3458 -0.9342 -0.0760
  118MOL0     N15846   5.567   0.050   8.053 -0.5287  0.5284  0.3034
  118MOL0     N15847   5.452   0.027   7.992  0.9537 -0.6851  0.5440
  118MOL0     C15848   4.476   0.016   7.420  1.4923 -0.4700  0.2256
  118MOL0     C15849   4.353  -0.031   7.369 -0.4336  0.3558 -0.3949
  118MOL0     C15850   4.004  -0.109   7.213  0.0530 -0.6971 -0.0015
  118MOL0     C15851   3.975  -0.247   7.205 -1.5162  0.2396 -0.1100
  118MOL0     C15852   3.921  -0.304   7.096  0.3904 -0.1090 -0.4082
  118MOL0     C15853   3.874  -0.226   6.997  0.4419 -0.8228  0.3981
  118MOL0     O15854   3.800  -0.290   6.895  0.1907  0.9747 -0.5953
  118MOL0     C15855   3.701  -0.395   6.929  0.9321  0.0017  0.4383
  118MOL0     C15856   3.653  -0.457   6.799 -0.1916  0.5813  0.3143
  118MOL0     C15857   3.752  -0.544   6.719 -0.2386 -0.8742  0.0729
  118MOL0     C15858   3.687  -0.587   6.586 -0.7607 -0.0342  0.2690
  118MOL0     C15859   3.769  -0.677   6.503 -0.4973  0.2186 -0.5804
  118MOL0     C15860   3.833  -0.758   6.435 -1.0282 -0.6654 -0.3866
  118MOL0     C15861   3.881  -0.087   6.999 -0.3186 -0.6773 -1.2567
  118MOL0     C15862   3.947  -0.027   7.110 -0.2205  0.9406  0.5534
  118MOL0     H15863   4.210  -0.127   7.667 -1.2873  0.1650 -0.8037
  118MOL0     H15864   4.422  -0.050   7.743  0.0071  1.6910 -0.3761
  118MOL0     H15865   4.735  -0.093   7.489 -2.8319  1.1441 -1.2365
  118MOL0     H15866   4.751   0.074   7.450  2.0354 -0.8435 -0.6105
  118MOL0     H15867   4.963   0.024   7.554  1.9348 -1.9886  1.9353
  118MOL0     H15868   4.874   0.105   7.682 -1.3914  0.8135 -0.7240
  118MOL0     H15869   4.799  -0.108   7.771  0.0812  0.3837  0.1552
  118MOL0     H15870   4.865  -0.198   7.631 -1.8489  0.4346 -0.6484
  118MOL0     H15871   5.090  -0.150   7.718  3.1270  0.5980  3.0142
  118MOL0     H15872   5.040  -0.034   7.840 -1.2042 -0.2652  2.4392
  118MOL0     H15873   4.947  -0.203   7.978  2.2365 -1.1275  2.0993
  118MOL0     H15874   4.914  -0.307   7.845  0.7439 -1.2466  3.2085
  118MOL0     H15875   5.109  -0.366   8.023 -0.1238  1.8028  0.2150
  118MOL0     H15876   5.145  -0.388   7.844  0.5356  1.6836 -1.2672
  118MOL0     H15877   5.343  -0.281   7.951  0.5568 -1.1654  2.1016
  118MOL0     H15878   5.266  -0.167   7.844  3.2255 -1.3277  0.3608
  118MOL0     H15879   5.224  -0.175   8.142  2.8056 -0.6480  1.0567
  118MOL0     H15880   5.164  -0.044   8.053 -1.6909 -1.9604  2.7692
  118MOL0     H15881   5.385  -0.058   8.298  3.4764 -1.6647  0.9097
  118MOL0     H15882   5.695   0.150   8.264  0.2777  0.5634  3.5356
  118MOL0     H15883   5.590   0.085   8.389 -2.4103  0.6691 -2.0715
  118MOL0     H15884   5.790  -0.076   8.223 -1.2830 -0.0568 -0.6168
  118MOL0     H15885   5.713  -0.140   8.368  1.9895  0.2041  2.2994
  118MOL0     H15886   5.805   0.014   8.498 -3.5756 -3.1527 -0.6776
  118MOL0     H15887   5.900   0.092   8.372 -1.6593 -0.2961 -0.0855
  118MOL0     H15888   6.054  -0.071   8.497  1.1122 -3.4921  1.4690
  118MOL0     H15889   6.035  -0.120   8.335 -0.8861  1.1746 -1.2081
  118MOL0     H15890   5.835  -0.465   8.472 -0.3514  0.3412 -1.9582
  118MOL0     H15891   5.979  -0.771   8.615  2.9851  0.6063  0.0887
  118MOL0     H15892   5.841  -0.712   8.520  1.0068 -1.8436  0.4346
  118MOL0     H15893   5.979  -0.773   8.432  1.0872  1.0716 -1.1653
  118MOL0     H15894   6.443  -0.754   8.826 -2.2263 -0.2072 -0.8080
  118MOL0     H15895   6.607  -0.939   8.853  1.6445  0.4511 -2.5104
  118MOL0     H15896   6.789  -1.028   8.639  0.5510  0.6893  0.6294
  118MOL0     H15897   6.765  -1.045   8.814 -0.5377  1.3991 -1.0728
  118MOL0     H15898   6.813  -1.304   8.778  1.3301 -1.4358 -1.6482
  118MOL0     H15899   6.853  -1.264   8.612 -1.8488 -4.7859  1.9360
  118MOL0     H15900   7.064  -1.271   8.737 -2.2274 -2.9179  0.8429
  118MOL0     H15901   6.990  -1.202   8.877  1.8639 -3.1842  0.5135
  118MOL0     H15902   7.031  -1.045   8.615 -1.4765 -1.1822 -0.0579
  118MOL0     H15903   6.975  -0.990   8.777  1.4274  0.7575 -1.4631
  118MOL0     H15904   7.239  -1.105   8.713  1.7419 -0.3532  3.2215
  118MOL0     H15905   7.185  -1.050   8.869 -1.3764 -1.5382  0.2877
  118MOL0     H15906   7.240  -0.886   8.631  0.9094  0.2067  0.3874
  118MOL0     H15907   7.117  -0.830   8.748  0.0065 -0.9775 -0.2023
  118MOL0     H15908   7.392  -0.893   8.850  0.6371  1.3683  1.5508
  118MOL0     H15909   7.255  -0.815   8.932  0.2359  3.3800 -0.0938
  118MOL0     H15910   7.401  -0.699   8.687  1.6018 -0.2325  0.3709
  118MOL0     H15911   7.412  -0.644   8.856  1.3352 -4.0589  0.6851
  118MOL0     H15912   6.426  -1.159   8.547 -0.0412 -0.3545  0.3538
  118MOL0     H15913   6.224  -0.993   8.542 -2.3822 -0.2698  2.6202
  118MOL0     H15914   6.331  -0.418   8.514  0.0804 -1.3271 -2.3253
  118MOL0     H15915   6.195  -0.236   8.488 -0.3271 -0.9418  0.0684
  118MOL0     H15916   4.544   0.055   7.345  1.8788 -1.3087  0.1302
  118MOL0     H15917   4.333  -0.038   7.263  0.7421  0.4705 -0.6333
  118MOL0     H15918   4.004  -0.319   7.281  0.6232  0.0957 -0.9786
  118MOL0     H15919   3.924  -0.411   7.083 -0.1409 -0.1732 -0.0557
  118MOL0     H15920   3.748  -0.474   6.988  0.1257 -2.0093 -1.4972
  118MOL0     H15921   3.612  -0.348   6.973  1.7261  1.6369  0.3822
  118MOL0     H15922   3.615  -0.377   6.735 -1.9887  0.0670  0.6742
  118MOL0     H15923   3.567  -0.521   6.819  0.8519 -3.9892 -6.3737
  118MOL0     H15924   3.795  -0.622   6.782  4.5958  3.0116  2.2648
  118MOL0     H15925   3.826  -0.464   6.702 -0.6930  0.1970  2.6358
  118MOL0     H15926   3.662  -0.505   6.518 -0.5370  1.1148  1.5191
  118MOL0     H15927   3.591  -0.635   6.604 -1.0328 -0.0154 -1.0276
  118MOL0     H15928   3.876  -0.832   6.371 -0.7664 -1.2169  0.4192
  118MOL0     H15929   3.836  -0.027   6.920 -1.1593 -1.0104 -1.0448
  118MOL0     H15930   3.963   0.080   7.118  2.4378  0.6556  0.1266
  119MOL0     O15931   4.765   7.500   4.984  0.3832  0.4275 -0.2555
  119MOL0     C15932   4.772   7.599   4.912  0.5308  0.0355  0.0563
  119MOL0     O15933   4.815   7.596   4.779  0.9332 -0.4217 -0.0271
  119MOL0     C15934   4.878   7.478   4.739  1.9830 -0.1066 -0.4180
  119MOL0     C15935   4.835   7.434   4.618 -0.1834  0.0806  0.0389
  119MOL0     C15936   4.902   7.323   4.558  0.5344  0.6506  0.1868
  119MOL0     C15937   5.000   7.257   4.619 -0.5826 -0.7236 -0.4134
  119MOL0     O15938   5.065   7.157   4.552  0.0614  0.4850 -0.3060
  119MOL0     C15939   5.128   7.048   4.624  0.2938  0.4055  0.2275
  119MOL0     C15940   5.180   6.942   4.523 -0.5745 -0.6779 -0.1893
  119MOL0     C15941   5.287   6.988   4.421 -1.4287  0.2707 -0.3975
  119MOL0     C15942   5.234   7.091   4.329 -1.5840 -0.7803  1.0840
  119MOL0     C15943   5.105   7.044   4.248 -0.1678  1.1398  0.7456
  119MOL0     C15944   5.060   7.147   4.143 -0.1153  0.5244 -0.3270
  119MOL0     C15945   5.160   7.188   4.037  0.7938 -0.7379 -0.5478
  119MOL0     C15946   5.248   7.071   3.983  0.0142 -0.1636 -1.0202
  119MOL0     N15947   5.358   7.128   3.907  0.4045 -0.0539 -0.2514
  119MOL0     C15948   5.371   7.131   3.768 -0.1303 -1.1114 -0.8029
  119MOL0     C15949   5.492   7.182   3.749  0.2351 -0.1374  0.2825
  119MOL0     C15950   5.542   7.216   3.605 -0.0928  0.3475 -0.1791
  119MOL0     C15951   5.597   7.095   3.531 -0.3243 -0.1344  0.2225
  119MOL0     C15952   5.608   7.098   3.382 -0.6113 -0.6473  0.2565
  119MOL0     C15953   5.464   7.099   3.326  0.0007  0.3262  0.7283
  119MOL0     O15954   5.473   7.067   3.189  0.2612 -0.0343  0.2407
  119MOL0     C15955   5.392   7.126   3.100 -0.6110 -0.0687 -0.2478
  119MOL0     C15956   5.395   7.066   2.974  0.5814 -0.2262 -1.3844
  119MOL0     C15957   5.332   7.119   2.857 -0.5345  0.4817 -1.2383
  119MOL0     C15958   5.371   7.065   2.723 -0.1561  0.5700  0.2651
  119MOL0     C15959   5.238   7.231   2.866 -1.0432  0.8851 -0.0574
  119MOL0     C15960   5.159   7.288   2.751  0.8968  0.7464  0.3695
  119MOL0     O15961   5.074   7.386   2.798 -0.5193 -0.8030  0.0554
  119MOL0     C15962   5.034   7.479   2.702 -0.3288  0.7211 -0.4695
  119MOL0     C15963   4.894   7.494   2.668 -0.0309 -0.4889 -0.8780
  119MOL0     C15964   4.843   7.604   2.598  0.1579 -0.0179  0.4361
  119MOL0     C15965   4.929   7.696   2.538  0.1366 -0.4589 -0.8522
  119MOL0     O15966   4.872   7.791   2.459  0.2146 -0.9590 -0.2727
  119MOL0     C15967   4.969   7.897   2.420 -0.8569  0.3952  0.9572
  119MOL0     C15968   4.879   7.999   2.348 -0.3283 -0.0526 -1.0437
  119MOL0     C15969   4.968   8.121   2.321  0.0432  0.2215  0.6023
  119MOL0     C15970   4.891   8.229   2.234  0.3185  0.2243  0.1336
  119MOL0     C15971   4.943   8.366   2.249 -1.0415 -0.3366 -0.2300
  119MOL0     C15972   4.873   8.462   2.150  0.4691  0.0720 -0.7111
  119MOL0     C15973   4.921   8.608   2.157 -0.3717  0.6606 -0.3941
  119MOL0     C15974   4.865   8.701   2.030 -1.2386  0.7661 -0.0607
  119MOL0    Cl15975   4.938   8.652   1.875  0.0442  0.2258  0.1591
  119MOL0     C15976   5.068   7.669   2.552  0.5962 -0.0931  0.3018
  119MOL0     C15977   5.116   7.565   2.637  0.1467  0.3533  0.0435
  119MOL0     O15978   5.186   7.268   2.631  0.5211  0.4514  0.0117
  119MOL0     C15979   5.246   7.291   2.996  0.8779  0.3540 -0.7063
  119MOL0     C15980   5.312   7.241   3.106 -0.7382  0.0715 -0.6338
  119MOL0     N15981   5.548   7.210   3.875 -0.0968  0.2572 -0.2658
  119MOL0     N15982   5.474   7.165   3.967  0.3410  0.6543  0.5870
  119MOL0     C15983   5.046   7.311   4.745 -0.6178  0.3535  1.2010
  119MOL0     C15984   4.986   7.422   4.802  0.4767 -0.2840 -0.7622
  119MOL0     C15985   4.733   7.727   4.972 -0.7677 -0.5697 -0.0445
  119MOL0     C15986   4.702   7.841   4.895 -0.0054  0.2724  0.0552
  119MOL0     C15987   4.669   7.961   4.962 -0.2047  1.1516  0.4065
  119MOL0     C15988   4.664   7.972   5.107  0.3368 -0.0105  0.2742
  119MOL0     O15989   4.630   8.092   5.157  0.1345  0.7862 -0.1658
  119MOL0     C15990   4.651   8.115   5.299  0.5876 -0.8083 -0.1357
  119MOL0     C15991   4.592   8.245   5.354  0.5451 -0.0706  0.1641
  119MOL0     C15992   4.679   8.371   5.349 -0.1425 -1.2662 -0.3645
  119MOL0     C15993   4.608   8.496   5.408  0.5210  0.6533  0.0979
  119MOL0     C15994   4.479   8.507   5.336  0.4944 -0.4002 -0.0007
  119MOL0     C15995   4.391   8.495   5.254  0.2258  0.1121 -0.1483
  119MOL0     C15996   4.704   7.862   5.182  0.3838 -0.0707  0.0366
  119MOL0     C15997   4.734   7.743   5.111  0.0605  0.2606 -0.0565
  119MOL0     H15998   4.756   7.488   4.567 -1.2733  1.2451  2.7364
  119MOL0     H15999   4.887   7.288   4.457 -0.3826 -0.3058  0.6365
  119MOL0     H16000   5.193   7.077   4.707 -1.3591  0.9652  1.3669
  119MOL0     H16001   5.050   7.001   4.684  0.0529  2.1812  1.3836
  119MOL0     H16002   5.228   6.864   4.583 -0.8809  1.4284  3.0328
  119MOL0     H16003   5.084   6.909   4.484 -1.3292  1.6336 -0.4925
  119MOL0     H16004   5.374   7.032   4.471 -2.1161 -0.1510  1.2271
  119MOL0     H16005   5.320   6.899   4.367 -1.5651  0.7925 -1.3730
  119MOL0     H16006   5.206   7.185   4.377 -1.4366 -1.4985  2.6272
  119MOL0     H16007   5.317   7.114   4.262 -2.6821  1.1609  0.3016
  119MOL0     H16008   5.119   6.945   4.203 -2.5495  1.1281 -0.1075
  119MOL0     H16009   5.013   7.028   4.305 -0.1521 -1.1318  0.2405
  119MOL0     H16010   4.975   7.108   4.086  0.6956 -0.0846 -1.1522
  119MOL0     H16011   5.036   7.235   4.203  1.8215 -0.6319  2.3477
  119MOL0     H16012   5.114   7.239   3.952  1.3340 -0.7815 -0.8674
  119MOL0     H16013   5.230   7.248   4.095 -0.7099  1.9169 -1.3244
  119MOL0     H16014   5.182   7.008   3.922 -1.6632  0.8623 -0.3310
  119MOL0     H16015   5.294   7.015   4.065 -1.5027 -2.5393 -1.6968
  119MOL0     H16016   5.290   7.103   3.701 -0.6019 -0.3123 -0.5774
  119MOL0     H16017   5.455   7.259   3.555  1.0184  0.8000 -1.7806
  119MOL0     H16018   5.610   7.295   3.638 -0.6057 -0.4590  3.1972
  119MOL0     H16019   5.543   7.004   3.557  0.6311 -0.7252  0.2159
  119MOL0     H16020   5.696   7.072   3.572 -1.0775 -2.3578  0.9250
  119MOL0     H16021   5.672   7.018   3.345 -0.3050 -1.2899  2.0639
  119MOL0     H16022   5.657   7.191   3.354 -2.3269  0.1544 -0.2231
  119MOL0     H16023   5.413   7.194   3.343 -0.3169  0.1405  0.8143
  119MOL0     H16024   5.415   7.018   3.380 -0.1845 -1.6695 -2.2375
  119MOL0     H16025   5.468   6.985   2.969  4.3762  2.6241  1.3360
  119MOL0     H16026   5.455   6.996   2.734  0.3714  1.0676 -0.5647
  119MOL0     H16027   5.287   7.014   2.674  1.7710 -0.4011 -2.2021
  119MOL0     H16028   5.412   7.141   2.657  0.8980  0.2214  0.4973
  119MOL0     H16029   4.823   7.427   2.716  1.7799  0.0871  2.9810
  119MOL0     H16030   4.737   7.616   2.582 -0.3706 -0.6195  3.0292
  119MOL0     H16031   5.014   7.927   2.515 -0.8477 -2.5380  1.9864
  119MOL0     H16032   5.051   7.853   2.362 -0.9851  0.5103  0.6895
  119MOL0     H16033   4.837   7.950   2.259  1.7390 -0.3446 -1.9053
  119MOL0     H16034   4.803   8.031   2.420  2.4694  0.8813  1.6946
  119MOL0     H16035   5.064   8.102   2.273 -0.2319  1.3839 -0.4718
  119MOL0     H16036   4.986   8.157   2.423 -4.5138  0.2062  1.6319
  119MOL0     H16037   4.912   8.201   2.130  0.1469  1.7362 -0.3318
  119MOL0     H16038   4.785   8.231   2.259  0.6725  2.5064  1.7798
  119MOL0     H16039   5.052   8.361   2.241 -1.1367 -0.0555 -2.3045
  119MOL0     H16040   4.931   8.403   2.351  0.4514 -0.4406 -0.0008
  119MOL0     H16041   4.895   8.439   2.045  0.1864  3.3849 -1.6069
  119MOL0     H16042   4.766   8.473   2.168  0.2347  1.0136 -2.4246
  119MOL0     H16043   5.029   8.616   2.169 -0.7150  1.5720  3.4022
  119MOL0     H16044   4.881   8.653   2.248 -0.6353  0.0598 -0.2046
  119MOL0     H16045   4.888   8.808   2.040  0.9721  0.5006 -1.7132
  119MOL0     H16046   4.758   8.679   2.017 -0.3542 -3.1464 -2.4266
  119MOL0     H16047   5.135   7.744   2.510 -0.9529  0.4194 -1.3676
  119MOL0     H16048   5.223   7.550   2.647  0.1147 -3.2513 -2.8624
  119MOL0     H16049   5.199   7.389   3.001 -1.8858 -0.6760 -3.2262
  119MOL0     H16050   5.318   7.290   3.202 -0.3443 -0.7965 -0.2084
  119MOL0     H16051   5.133   7.267   4.794  0.4493  2.4725  1.3315
  119MOL0     H16052   5.015   7.467   4.896  1.8374  2.1473 -2.2334
  119MOL0     H16053   4.706   7.817   4.789 -0.8640 -2.6440  0.6082
  119MOL0     H16054   4.641   8.038   4.891 -1.0522 -0.5578 -1.2102
  119MOL0     H16055   4.602   8.032   5.351 -0.9854  1.0566  1.5278
  119MOL0     H16056   4.760   8.115   5.304  0.6466 -0.5745 -1.1118
  119MOL0     H16057   4.571   8.224   5.460  0.2304  1.0014  0.3365
  119MOL0     H16058   4.499   8.254   5.298  2.9180 -1.1071 -4.3971
  119MOL0     H16059   4.706   8.393   5.246 -0.3297 -0.8654 -0.3321
  119MOL0     H16060   4.774   8.364   5.403 -0.5750  3.7198  1.6081
  119MOL0     H16061   4.662   8.590   5.392  0.2100  0.6342 -1.2162
  119MOL0     H16062   4.581   8.480   5.513 -4.6545  0.0986 -1.0862
  119MOL0     H16063   4.311   8.472   5.186  0.5046  4.2320 -2.1786
  119MOL0     H16064   4.704   7.881   5.289 -1.3502  2.9542 -0.3817
  119MOL0     H16065   4.746   7.654   5.173  0.4642 -0.9213 -1.7609
  120MOL0     O16066   4.325   9.566   7.639  0.9873  0.1131  0.7997
  120MOL0     C16067   4.434   9.581   7.590 -0.1916  0.1889  0.4807
  120MOL0     O16068   4.459   9.611   7.458 -0.5257  0.0644  0.7940
  120MOL0     C16069   4.359   9.623   7.365 -0.1792  0.4570  0.0834
  120MOL0     C16070   4.339   9.734   7.291 -0.6977 -0.1620 -0.7212
  120MOL0     C16071   4.241   9.743   7.195  1.1314 -0.7160 -0.3635
  120MOL0     C16072   4.148   9.633   7.179 -0.6741  1.4928 -0.0939
  120MOL0     O16073   4.048   9.615   7.095  0.2998 -0.3106 -0.0790
  120MOL0     C16074   3.932   9.707   7.100 -0.0644 -0.3283 -0.0042
  120MOL0     C16075   3.824   9.631   7.171  0.4150 -0.4188  0.1612
  120MOL0     C16076   3.810   9.633   7.314  0.4771 -0.3545 -0.7407
  120MOL0     C16077   3.811   9.780   7.375 -0.5524 -0.6210 -0.1646
  120MOL0     C16078   3.811   9.781   7.530  0.2612  0.4984  0.4122
  120MOL0     C16079   3.942   9.726   7.600  0.2788  0.8901  0.6594
  120MOL0     C16080   4.070   9.792   7.554  0.0075 -0.3074  0.3195
  120MOL0     C16081   4.097   9.933   7.614 -0.7770 -0.5442  0.1039
  120MOL0     N16082   4.230   9.989   7.587 -0.1679 -0.2332  0.2371
  120MOL0     C16083   4.346   9.929   7.631  1.1249  0.1015 -0.6120
  120MOL0     C16084   4.447   9.993   7.572 -0.8787  0.6569 -1.0533
  120MOL0     C16085   4.597   9.968   7.577  0.4912 -0.9547 -0.2470
  120MOL0     C16086   4.659  10.068   7.685  0.1790  0.7800 -0.3703
  120MOL0     C16087   4.806  10.056   7.729  0.2915 -0.2933 -0.0725
  120MOL0     C16088   4.862   9.912   7.716 -0.0417 -0.5627  0.6071
  120MOL0     O16089   4.891   9.882   7.578 -0.0445 -0.1983 -0.1210
  120MOL0     C16090   5.027   9.860   7.560 -0.7602 -0.7774 -0.7893
  120MOL0     C16091   5.104   9.755   7.613 -0.2466  0.9343 -0.9549
  120MOL0     C16092   5.238   9.736   7.577 -0.0877 -0.8546  0.6369
  120MOL0     C16093   5.322   9.617   7.627 -0.2152  0.8522  0.3675
  120MOL0     C16094   5.293   9.833   7.492  0.4578  0.7784  0.6322
  120MOL0     C16095   5.442   9.830   7.457  0.5834 -0.8575 -0.4400
  120MOL0     O16096   5.536   9.787   7.542 -0.4242  0.4597  0.2809
  120MOL0     C16097   5.666   9.782   7.500 -1.2150  0.0745  0.3908
  120MOL0     C16098   5.773   9.799   7.591  0.5922  0.3780 -1.0678
  120MOL0     C16099   5.910   9.816   7.560 -0.3163  0.8986  0.6182
  120MOL0     C16100   5.954   9.788   7.422  0.4987 -0.2030  0.2641
  120MOL0     O16101   6.082   9.779   7.369  0.6031  0.1862 -0.0814
  120MOL0     C16102   6.179   9.868   7.430 -0.8498 -0.9344  0.1542
  120MOL0     C16103   6.157  10.012   7.377 -0.9932  0.6902 -0.1027
  120MOL0     C16104   6.218  10.024   7.236  0.1698  0.9433 -0.3034
  120MOL0     C16105   6.149  10.118   7.140 -0.3564  0.8779 -0.0920
  120MOL0     C16106   6.001  10.068   7.110 -0.8640 -0.5098  0.3360
  120MOL0     C16107   5.912  10.187   7.073  0.4434 -0.6474 -0.6960
  120MOL0     C16108   5.765  10.159   7.087 -0.4375 -0.1818 -0.2536
  120MOL0     C16109   5.666  10.274   7.041  0.9184 -0.3401 -0.3323
  120MOL0    Cl16110   5.683  10.401   7.164  0.3227 -0.2353 -0.3252
  120MOL0     C16111   5.848   9.767   7.325 -0.3666 -0.2588 -0.0569
  120MOL0     C16112   5.716   9.758   7.367 -0.2015  1.5952 -0.0169
  120MOL0     O16113   5.473   9.884   7.352 -0.3011 -0.3024 -0.4222
  120MOL0     C16114   5.207   9.931   7.439 -1.2054  0.4652 -0.8784
  120MOL0     C16115   5.080   9.953   7.478  0.0794  0.4357  1.1842
  120MOL0     N16116   4.385  10.088   7.490  0.3391 -0.1620 -0.2057
  120MOL0     N16117   4.259  10.080   7.499  0.2297 -0.6504  0.0764
  120MOL0     C16118   4.176   9.516   7.255 -0.5433 -0.6236 -0.3012
  120MOL0     C16119   4.274   9.518   7.347  0.3993 -0.1126 -0.3533
  120MOL0     C16120   4.544   9.543   7.697  0.1287  0.4829 -0.2080
  120MOL0     C16121   4.678   9.578   7.668 -0.5701 -0.0634 -0.6348
  120MOL0     C16122   4.774   9.539   7.762  0.3683  0.5726 -0.1285
  120MOL0     C16123   4.753   9.470   7.879  0.5653  0.8889 -0.3254
  120MOL0     O16124   4.850   9.429   7.973 -0.3067 -0.6222  0.0777
  120MOL0     C16125   4.859   9.294   8.003 -0.7368  0.5602  0.3337
  120MOL0     C16126   4.887   9.249   8.152 -0.3967  0.1367  0.2194
  120MOL0     C16127   5.036   9.252   8.186 -0.7730 -0.4532  0.9314
  120MOL0     C16128   5.065   9.209   8.324 -0.4737 -0.4510 -0.7860
  120MOL0     C16129   5.209   9.211   8.351  1.3953  0.1959  0.8371
  120MOL0     C16130   5.329   9.222   8.358 -0.4510 -0.6315  0.6667
  120MOL0     C16131   4.615   9.453   7.904 -0.4367 -0.7713 -0.2267
  120MOL0     C16132   4.512   9.484   7.819 -0.4950 -0.3162 -0.6496
  120MOL0     H16133   4.401   9.818   7.319 -0.8821 -0.4471  0.6228
  120MOL0     H16134   4.223   9.834   7.139 -0.7572 -1.0096 -0.2961
  120MOL0     H16135   3.959   9.802   7.149 -0.7761 -0.6801  1.1131
  120MOL0     H16136   3.901   9.729   6.998 -2.0976 -3.0208 -0.0747
  120MOL0     H16137   3.726   9.665   7.135 -0.1400 -1.1362  0.9286
  120MOL0     H16138   3.819   9.527   7.136  0.5961  0.2869 -2.1228
  120MOL0     H16139   3.713   9.584   7.328  0.2090 -0.1958 -1.9530
  120MOL0     H16140   3.893   9.575   7.355 -0.2278 -1.1413 -0.4136
  120MOL0     H16141   3.891   9.839   7.331 -0.3060 -1.5250 -0.9506
  120MOL0     H16142   3.721   9.832   7.341  0.1877  0.5427 -0.4014
  120MOL0     H16143   3.803   9.882   7.572 -2.0633 -0.2240  1.9603
  120MOL0     H16144   3.720   9.732   7.565  0.8243 -0.5358  0.4611
  120MOL0     H16145   3.934   9.745   7.708  0.2574 -1.5794  1.1645
  120MOL0     H16146   3.959   9.619   7.586  1.1456  1.0718  0.2567
  120MOL0     H16147   4.151   9.726   7.587  0.4939 -0.2717 -0.7490
  120MOL0     H16148   4.075   9.800   7.445  1.2129  5.6484  0.4856
  120MOL0     H16149   4.089   9.924   7.723 -0.6721 -1.3409  0.0499
  120MOL0     H16150   4.033  10.013   7.576  1.7936  1.0130 -1.2233
  120MOL0     H16151   4.359   9.856   7.710 -0.9265 -0.0123 -0.3367
  120MOL0     H16152   4.609   9.862   7.600  0.0199 -1.0425 -0.4081
  120MOL0     H16153   4.637   9.975   7.475 -0.5687  3.4765 -0.5863
  120MOL0     H16154   4.595  10.070   7.774  1.0533  1.5402  0.2517
  120MOL0     H16155   4.651  10.162   7.631 -1.4363 -0.2786 -2.1140
  120MOL0     H16156   4.816  10.102   7.828 -1.4419  1.9212 -0.8446
  120MOL0     H16157   4.860  10.129   7.668  1.1717  0.1445  1.1726
  120MOL0     H16158   4.790   9.848   7.769 -1.0976  0.3855  0.3508
  120MOL0     H16159   4.949   9.894   7.780  0.2188 -0.7207  0.2138
  120MOL0     H16160   5.058   9.680   7.675  0.7111 -1.0013 -2.4561
  120MOL0     H16161   5.379   9.648   7.715  1.2197  0.8382 -0.5145
  120MOL0     H16162   5.251   9.535   7.642 -0.7704  0.8722 -1.8123
  120MOL0     H16163   5.394   9.569   7.560 -1.7047 -0.3517 -0.4363
  120MOL0     H16164   5.730   9.807   7.690 -2.0798  1.5510 -2.2434
  120MOL0     H16165   5.978   9.829   7.643 -1.6816  0.7973  1.7860
  120MOL0     H16166   6.179   9.872   7.539  1.9434  0.2202  0.1920
  120MOL0     H16167   6.281   9.841   7.401 -0.0100 -0.8237  2.7699
  120MOL0     H16168   6.052  10.044   7.375 -0.8204  1.3234  0.5338
  120MOL0     H16169   6.213  10.080   7.442 -1.3414  4.0059 -2.9749
  120MOL0     H16170   6.223   9.921   7.201 -0.7295  0.4505  0.9313
  120MOL0     H16171   6.318  10.064   7.257  0.6774 -1.6346  3.2220
  120MOL0     H16172   6.148  10.218   7.187 -1.0554  1.5874 -1.5545
  120MOL0     H16173   6.204  10.145   7.050  3.0133 -3.2435  0.4211
  120MOL0     H16174   5.953  10.014   7.192 -1.9955  0.2386  0.1878
  120MOL0     H16175   6.011  10.009   7.018 -4.2193 -0.7838  0.0171
  120MOL0     H16176   5.942  10.276   7.129  0.3863  0.2526 -2.0526
  120MOL0     H16177   5.932  10.213   6.968 -0.2655  0.8869 -0.4639
  120MOL0     H16178   5.735  10.137   7.190 -3.0706  2.6561 -0.2640
  120MOL0     H16179   5.747  10.070   7.026 -5.4103  0.5887 -0.3362
  120MOL0     H16180   5.563  10.237   7.049  0.3678  1.0937 -0.5476
  120MOL0     H16181   5.681  10.299   6.935  1.8437 -0.1780 -0.1735
  120MOL0     H16182   5.869   9.750   7.220 -1.3219  0.6415 -0.4134
  120MOL0     H16183   5.646   9.739   7.286 -0.5512  3.3792 -0.1694
  120MOL0     H16184   5.243  10.001   7.364 -0.5302  0.1504 -0.8567
  120MOL0     H16185   5.022  10.036   7.439  1.6061  1.9777  2.0449
  120MOL0     H16186   4.122   9.427   7.223  0.0165 -0.8344 -0.6739
  120MOL0     H16187   4.287   9.428   7.406  2.2165 -0.0996 -0.6949
  120MOL0     H16188   4.702   9.635   7.579  1.0538 -2.1410 -1.6160
  120MOL0     H16189   4.877   9.571   7.752  0.0770  2.6567  2.5417
  120MOL0     H16190   4.764   9.255   7.965  0.4491 -0.7375 -1.4683
  120MOL0     H16191   4.935   9.250   7.937 -1.8357  2.6342 -2.5007
  120MOL0     H16192   4.853   9.145   8.161  2.2033 -0.7778  0.3347
  120MOL0     H16193   4.832   9.312   8.222 -1.8387 -0.6551 -0.1667
  120MOL0     H16194   5.074   9.349   8.152 -3.9101  0.3650 -0.5953
  120MOL0     H16195   5.076   9.172   8.122  1.7142 -0.2658  2.1145
  120MOL0     H16196   5.025   9.109   8.342  1.3080 -0.9292  0.8545
  120MOL0     H16197   5.022   9.274   8.400  4.5164 -0.5875  2.6033
  120MOL0     H16198   5.434   9.239   8.354 -0.5570  0.1111 -2.9553
  120MOL0     H16199   4.587   9.390   7.987  4.4017 -0.2349  2.1213
  120MOL0     H16200   4.406   9.472   7.842 -0.3369  1.0440  1.0325
  121MOL0     O16201   3.389   4.758   8.943 -0.2431 -0.6870  0.2488
  121MOL0     C16202   3.298   4.839   8.941  0.1373 -0.9479  0.0518
  121MOL0     O16203   3.202   4.850   9.029  0.3853  0.3365  0.0817
  121MOL0     C16204   3.190   4.733   9.115  0.1466  0.7229 -0.3678
  121MOL0     C16205   3.265   4.735   9.233 -0.1495 -0.3462  0.6501
  121MOL0     C16206   3.254   4.619   9.318  0.4821 -0.8803 -0.0769
  121MOL0     C16207   3.170   4.515   9.284  0.4922  0.7022  0.5496
  121MOL0     O16208   3.141   4.410   9.369 -0.2040  0.4655 -0.4119
  121MOL0     C16209   3.226   4.387   9.487  0.3914 -0.3111  0.6990
  121MOL0     C16210   3.157   4.287   9.567 -0.2932  0.0455  0.3870
  121MOL0     C16211   3.036   4.351   9.650  1.0139  0.0080  0.6313
  121MOL0     C16212   2.938   4.238   9.699  0.0598  0.2058 -0.4188
  121MOL0     C16213   2.851   4.294   9.814  0.7447  0.5509  0.4425
  121MOL0     C16214   2.739   4.201   9.871  0.1516 -0.5467  0.4006
  121MOL0     C16215   2.611   4.207   9.780 -0.7260 -0.0744 -0.2572
  121MOL0     C16216   2.493   4.129   9.840  0.2152  0.2543  0.6082
  121MOL0     N16217   2.397   4.082   9.736  0.1380  0.0500 -0.5038
  121MOL0     C16218   2.299   4.162   9.682  0.1166 -0.2254 -0.2189
  121MOL0     C16219   2.260   4.102   9.573 -0.1833 -0.3903  0.5494
  121MOL0     C16220   2.155   4.160   9.486 -0.4984 -0.3810  0.0988
  121MOL0     C16221   2.016   4.134   9.540  0.5638  0.5862 -0.6614
  121MOL0     C16222   1.906   4.140   9.425 -0.0781 -0.4252  0.3023
  121MOL0     C16223   1.775   4.074   9.457  0.1011  0.7193  0.0892
  121MOL0     O16224   1.687   4.089   9.345  0.4956 -0.3774 -0.8263
  121MOL0     C16225   1.550   4.069   9.360 -0.3671  0.5154 -0.5527
  121MOL0     C16226   1.473   4.092   9.250 -0.2103 -0.1301  0.4448
  121MOL0     C16227   1.336   4.063   9.244 -0.4667 -0.2511 -1.1190
  121MOL0     C16228   1.266   4.092   9.121  0.6898 -0.1194  0.3045
  121MOL0     C16229   1.280   4.003   9.360 -0.4268 -0.2471 -0.6201
  121MOL0     C16230   1.144   3.947   9.375  0.8525 -0.1963  0.0215
  121MOL0     O16231   1.111   3.875   9.500 -0.2365 -0.1502  1.1035
  121MOL0     C16232   0.983   3.831   9.516 -0.6442 -0.6061 -0.2823
  121MOL0     C16233   0.963   3.700   9.557  0.0759 -0.2537 -0.2550
  121MOL0     C16234   0.837   3.658   9.599  0.3867  1.2221  0.7254
  121MOL0     C16235   0.728   3.752   9.593  0.6582 -0.0070  0.4004
  121MOL0     O16236   0.596   3.710   9.624  0.9609  0.1962  0.1815
  121MOL0     C16237   0.558   3.591   9.703 -0.7338 -0.1520  0.1327
  121MOL0     C16238   0.401   3.576   9.689  0.3464  0.5015 -0.6256
  121MOL0     C16239   0.339   3.681   9.777  0.4484 -1.1178 -0.1014
  121MOL0     C16240   0.186   3.679   9.780 -0.4584  0.6068 -0.2013
  121MOL0     C16241   0.120   3.566   9.854 -0.0839  0.6234 -1.0655
  121MOL0     C16242  -0.027   3.556   9.818 -0.3487 -0.8549 -0.8587
  121MOL0     C16243  -0.118   3.684   9.831 -0.2311  0.0424 -0.2525
  121MOL0     C16244  -0.265   3.637   9.817 -0.0013 -0.0465  0.1392
  121MOL0    Cl16245  -0.392   3.764   9.848 -0.3226  0.3083  0.9355
  121MOL0     C16246   0.751   3.878   9.559 -0.5088 -0.2639 -0.0972
  121MOL0     C16247   0.874   3.922   9.525 -0.7878  0.2793  1.1923
  121MOL0     O16248   1.059   3.964   9.284 -0.3341  0.2329  0.5768
  121MOL0     C16249   1.359   3.980   9.471 -0.9479  0.7796 -1.3028
  121MOL0     C16250   1.493   4.010   9.468 -0.1628  0.7222  0.4108
  121MOL0     N16251   2.326   3.993   9.550 -0.7765 -0.4673 -0.1555
  121MOL0     N16252   2.414   3.980   9.646  0.1212 -0.0243 -0.7872
  121MOL0     C16253   3.097   4.521   9.169  0.5344 -0.0461 -0.4354
  121MOL0     C16254   3.111   4.635   9.082 -0.0225  1.0304 -0.0132
  121MOL0     C16255   3.305   4.940   8.833  0.2923  0.0304 -0.3691
  121MOL0     C16256   3.272   5.075   8.857 -0.1021  0.4052  0.7251
  121MOL0     C16257   3.244   5.153   8.748  0.5471  0.6775  0.0261
  121MOL0     C16258   3.245   5.107   8.614  0.1064 -0.3244  0.3803
  121MOL0     O16259   3.222   5.210   8.517  0.3124  0.0895 -0.0864
  121MOL0     C16260   3.252   5.189   8.372  1.4532  0.0605 -0.7759
  121MOL0     C16261   3.399   5.170   8.352 -0.1041  0.9495 -0.2059
  121MOL0     C16262   3.426   5.154   8.198  0.2548  0.0404  0.4181
  121MOL0     C16263   3.425   5.283   8.121 -0.1278  0.6497 -1.0376
  121MOL0     C16264   3.443   5.255   7.978 -0.2704 -0.8301 -0.2257
  121MOL0     C16265   3.463   5.238   7.864 -0.1864  0.0930  0.5468
  121MOL0     C16266   3.275   4.973   8.593 -0.0207 -1.0458 -0.2889
  121MOL0     C16267   3.296   4.887   8.707 -0.1003 -0.4837  0.2049
  121MOL0     H16268   3.321   4.823   9.264 -0.0638 -0.5644  1.1305
  121MOL0     H16269   3.316   4.644   9.403 -0.6724  0.9403  0.2908
  121MOL0     H16270   3.328   4.354   9.462  1.1982  1.0768  1.9796
  121MOL0     H16271   3.244   4.470   9.556  0.9391 -1.0709  1.4956
  121MOL0     H16272   3.114   4.205   9.508  0.7443  0.2992 -0.7354
  121MOL0     H16273   3.227   4.240   9.637  1.5677  0.6671 -0.9971
  121MOL0     H16274   3.083   4.385   9.742 -2.2629 -0.3119  2.5995
  121MOL0     H16275   2.982   4.426   9.591 -0.9068 -0.3200  1.8596
  121MOL0     H16276   2.879   4.193   9.619  0.4644  1.5124 -1.4851
  121MOL0     H16277   2.989   4.154   9.747  0.4030  1.4849  1.5941
  121MOL0     H16278   2.921   4.307   9.897  1.3963  1.2721 -0.2062
  121MOL0     H16279   2.814   4.393   9.786  0.5236  0.2322 -0.4167
  121MOL0     H16280   2.777   4.099   9.882  1.2072 -0.2588 -0.3710
  121MOL0     H16281   2.718   4.242   9.969 -1.1408 -0.5964  0.1577
  121MOL0     H16282   2.595   4.311   9.751  1.6488  0.2635 -0.5714
  121MOL0     H16283   2.650   4.163   9.688  2.8552  0.5031  0.8349
  121MOL0     H16284   2.435   4.194   9.906  1.1983 -1.1651  2.9926
  121MOL0     H16285   2.530   4.049   9.904  2.8646  0.1878 -0.8616
  121MOL0     H16286   2.251   4.247   9.729  0.9945  0.1153  0.0769
  121MOL0     H16287   2.167   4.268   9.479  0.4478 -0.4992 -0.2840
  121MOL0     H16288   2.167   4.127   9.382  3.0290  0.3396  0.1559
  121MOL0     H16289   2.005   4.224   9.601 -3.8406  1.0463 -1.7760
  121MOL0     H16290   2.001   4.043   9.598  0.0853  0.7842 -0.4721
  121MOL0     H16291   1.944   4.093   9.333  0.3247  1.1748 -0.3869
  121MOL0     H16292   1.878   4.245   9.412  1.0158 -0.3339 -1.9776
  121MOL0     H16293   1.744   4.120   9.551 -0.0901  2.1632 -0.6439
  121MOL0     H16294   1.790   3.968   9.478  1.1998  0.7030 -0.6843
  121MOL0     H16295   1.523   4.123   9.158 -1.8758  0.7439 -0.2182
  121MOL0     H16296   1.271   3.996   9.068 -1.1314 -0.6578  1.0225
  121MOL0     H16297   1.161   4.121   9.131 -0.1077 -2.7740  0.4298
  121MOL0     H16298   1.322   4.169   9.068  1.8931 -2.2953 -1.8051
  121MOL0     H16299   1.042   3.628   9.574 -0.7238 -0.8477  1.1779
  121MOL0     H16300   0.809   3.558   9.631  1.0055  0.6629 -0.3823
  121MOL0     H16301   0.602   3.506   9.649 -1.4112 -0.9208  0.7748
  121MOL0     H16302   0.590   3.596   9.807 -1.7240  6.7832  0.5798
  121MOL0     H16303   0.372   3.594   9.585 -0.2298 -0.1074 -0.5847
  121MOL0     H16304   0.389   3.476   9.733  1.4624  0.8426  0.5071
  121MOL0     H16305   0.374   3.778   9.741  0.0700 -0.1311  2.0218
  121MOL0     H16306   0.386   3.671   9.876 -0.0552  1.3409  0.4574
  121MOL0     H16307   0.164   3.777   9.824  0.5027  0.5026  0.5657
  121MOL0     H16308   0.159   3.676   9.674  0.8478 -1.9185 -0.5457
  121MOL0     H16309   0.114   3.586   9.961  0.9980 -0.1705 -0.8347
  121MOL0     H16310   0.181   3.476   9.838 -0.3462  0.2508 -0.0232
  121MOL0     H16311  -0.035   3.519   9.715 -3.1622 -1.6253 -0.4624
  121MOL0     H16312  -0.076   3.480   9.879  1.3193 -0.8343  0.5763
  121MOL0     H16313  -0.104   3.754   9.749 -0.7512  0.3626 -0.0682
  121MOL0     H16314  -0.092   3.748   9.916 -2.3812  2.5663 -1.3908
  121MOL0     H16315  -0.273   3.570   9.903  3.1990  0.1808  0.7218
  121MOL0     H16316  -0.284   3.579   9.726  3.1449  0.6820 -1.1162
  121MOL0     H16317   0.667   3.947   9.563  0.0769  0.5038 -0.9346
  121MOL0     H16318   0.880   4.030   9.514  0.8002  0.0521 -0.6888
  121MOL0     H16319   1.329   3.943   9.568 -1.2614  1.5130 -1.1132
  121MOL0     H16320   1.538   3.989   9.564 -2.2575 -3.3343  0.7345
  121MOL0     H16321   3.028   4.439   9.149 -1.7788  1.7045 -0.0950
  121MOL0     H16322   3.059   4.643   8.988  2.9652 -0.9189 -2.0090
  121MOL0     H16323   3.253   5.123   8.952  0.1105  3.4940 -0.6873
  121MOL0     H16324   3.196   5.249   8.768 -1.2455 -0.0884 -0.4025
  121MOL0     H16325   3.196   5.112   8.318  0.8265  1.3695 -2.0436
  121MOL0     H16326   3.213   5.275   8.317  0.8611 -1.2185 -2.4558
  121MOL0     H16327   3.438   5.084   8.407 -3.4135 -1.1131 -0.8602
  121MOL0     H16328   3.455   5.257   8.390 -1.7232  1.6928  0.6071
  121MOL0     H16329   3.364   5.079   8.150  0.7463  0.2347 -0.5598
  121MOL0     H16330   3.520   5.099   8.184 -0.8768 -1.6926 -0.8008
  121MOL0     H16331   3.515   5.332   8.159  1.7578 -0.6483 -3.6230
  121MOL0     H16332   3.328   5.333   8.133 -0.2739  0.7248 -2.3992
  121MOL0     H16333   3.463   5.223   7.758 -1.2438  2.0514  0.2272
  121MOL0     H16334   3.273   4.922   8.497 -1.3229  1.0524 -1.4451
  121MOL0     H16335   3.308   4.780   8.692 -0.4089 -0.6212  0.8956
  122MOL0     O16336   8.876   1.066   3.138  0.5502  0.7673 -0.2726
  122MOL0     C16337   8.980   1.095   3.198  0.6057  0.5890  0.0522
  122MOL0     O16338   9.003   1.069   3.329 -0.5892  0.1673 -0.0192
  122MOL0     C16339   8.899   1.010   3.408 -0.3275 -0.3693  0.0810
  122MOL0     C16340   8.861   1.076   3.527  0.4510 -0.2884  0.3604
  122MOL0     C16341   8.762   1.026   3.607  0.6035 -0.1502  0.3453
  122MOL0     C16342   8.711   0.895   3.571  0.0448 -0.8227  0.2562
  122MOL0     O16343   8.621   0.830   3.650 -0.7132 -0.6089  0.4368
  122MOL0     C16344   8.608   0.878   3.787  0.6586 -0.1889  0.2285
  122MOL0     C16345   8.546   0.781   3.890  0.8290 -0.2578  0.7224
  122MOL0     C16346   8.411   0.740   3.849 -0.1812 -0.1166 -0.4281
  122MOL0     C16347   8.345   0.662   3.954 -0.6185  0.2249  0.6995
  122MOL0     C16348   8.192   0.626   3.930  0.8197 -0.3586  0.0147
  122MOL0     C16349   8.137   0.536   4.035  0.9602  0.5643 -0.6707
  122MOL0     C16350   7.976   0.551   4.054 -0.0738 -0.2108 -0.3274
  122MOL0     C16351   7.907   0.504   4.185 -0.5466  0.1844  0.1751
  122MOL0     N16352   7.901   0.359   4.186  0.8024 -0.2241 -0.5595
  122MOL0     C16353   7.965   0.263   4.261 -0.0228  0.5083 -0.7340
  122MOL0     C16354   7.887   0.148   4.272 -0.2513 -0.3925 -0.1143
  122MOL0     C16355   7.930   0.013   4.331  0.1874 -0.8380  0.2409
  122MOL0     C16356   7.833  -0.048   4.426 -0.1106 -1.3099 -0.2166
  122MOL0     C16357   7.783   0.053   4.529  0.0609  0.2420  0.4154
  122MOL0     C16358   7.703  -0.021   4.629  0.6916 -0.6392  0.0770
  122MOL0     O16359   7.662   0.061   4.741 -0.4504 -0.5791  0.2135
  122MOL0     C16360   7.535   0.034   4.794 -0.4039  0.4741 -0.0153
  122MOL0     C16361   7.519   0.026   4.933 -0.7351 -0.0735  0.2382
  122MOL0     C16362   7.398  -0.005   4.987 -0.1301 -0.0374 -0.2977
  122MOL0     C16363   7.390   0.004   5.137 -0.4792  0.1510 -0.4041
  122MOL0     C16364   7.284  -0.034   4.905  0.1733  0.8464 -0.1281
  122MOL0     C16365   7.147  -0.062   4.954 -0.1048 -0.1642 -0.0725
  122MOL0     O16366   7.068  -0.135   4.868  0.1344  0.8072  0.3078
  122MOL0     C16367   6.937  -0.114   4.842 -0.5977  1.1139  0.4392
  122MOL0     C16368   6.844  -0.021   4.891 -0.4312 -0.2379  0.1994
  122MOL0     C16369   6.710  -0.014   4.854 -0.5618  0.2933 -0.8646
  122MOL0     C16370   6.660  -0.121   4.772  0.1253  0.7268  0.3015
  122MOL0     O16371   6.519  -0.128   4.758  0.4348  0.1151  0.2511
  122MOL0     C16372   6.483  -0.233   4.670  1.5151 -0.2684 -0.5156
  122MOL0     C16373   6.337  -0.275   4.658  1.3401 -0.1923  0.3636
  122MOL0     C16374   6.256  -0.170   4.589  0.2640 -0.3666 -0.1808
  122MOL0     C16375   6.112  -0.224   4.548 -0.5396  0.0550 -0.0396
  122MOL0     C16376   6.044  -0.128   4.460  0.6399  0.3048  0.3328
  122MOL0     C16377   5.925  -0.188   4.376 -1.0964  0.8507  0.8386
  122MOL0     C16378   5.797  -0.225   4.436 -0.0688 -0.3326  0.3246
  122MOL0     C16379   5.707  -0.112   4.486  0.0022 -0.8789 -0.4774
  122MOL0    Cl16380   5.597  -0.201   4.590 -0.2004  0.5262 -0.1970
  122MOL0     C16381   6.745  -0.217   4.726 -0.6759  0.1470 -0.5354
  122MOL0     C16382   6.881  -0.208   4.751  1.0825 -0.6865 -0.3338
  122MOL0     O16383   7.105   0.009   5.050  0.9500 -0.0849  0.6432
  122MOL0     C16384   7.302  -0.038   4.757 -0.8456  0.2965 -0.2972
  122MOL0     C16385   7.434  -0.005   4.708 -0.1869  0.4732  0.5171
  122MOL0     N16386   7.771   0.175   4.201  0.2804 -0.9057  0.0396
  122MOL0     N16387   7.781   0.298   4.147  0.1882 -0.2509 -0.1927
  122MOL0     C16388   8.755   0.821   3.462 -0.5731 -0.6118  1.1728
  122MOL0     C16389   8.846   0.883   3.378  0.1408 -1.2116  0.4901
  122MOL0     C16390   9.092   1.161   3.126 -0.1034  0.1544 -0.6306
  122MOL0     C16391   9.076   1.196   2.989 -0.0012  0.1336  0.4596
  122MOL0     C16392   9.166   1.274   2.923 -0.4041  0.9906 -0.1541
  122MOL0     C16393   9.277   1.320   2.991 -0.3294  0.4796  0.2166
  122MOL0     O16394   9.362   1.405   2.918 -0.7604 -0.8292  0.4009
  122MOL0     C16395   9.486   1.453   2.981 -0.0043  0.1264  0.0760
  122MOL0     C16396   9.453   1.576   3.066 -0.9486 -0.9031 -0.0235
  122MOL0     C16397   9.565   1.612   3.171 -0.3163 -1.4394 -0.4975
  122MOL0     C16398   9.543   1.747   3.243  0.8421 -0.0825 -0.0386
  122MOL0     C16399   9.415   1.760   3.326 -0.8687 -0.1533 -0.3229
  122MOL0     C16400   9.317   1.754   3.394 -0.6588 -0.4280  0.3294
  122MOL0     C16401   9.300   1.279   3.128  0.0974  0.5690 -0.6732
  122MOL0     C16402   9.201   1.201   3.203 -0.3552  0.0131 -0.4562
  122MOL0     H16403   8.904   1.174   3.546 -1.8745  0.3768  2.7930
  122MOL0     H16404   8.718   1.087   3.685 -1.0477 -1.3110  0.3706
  122MOL0     H16405   8.702   0.919   3.825 -1.0156  0.9392  3.5205
  122MOL0     H16406   8.537   0.961   3.786 -0.3513 -1.0319  0.3440
  122MOL0     H16407   8.613   0.695   3.897  1.5864  0.1438 -0.9386
  122MOL0     H16408   8.534   0.823   3.990  0.2347  0.6624  0.2765
  122MOL0     H16409   8.352   0.832   3.837  1.1449  0.8563  0.2211
  122MOL0     H16410   8.416   0.675   3.761  0.5171 -0.8664  0.1516
  122MOL0     H16411   8.410   0.575   3.969 -1.1417 -0.1492  0.8172
  122MOL0     H16412   8.349   0.713   4.050  2.9792 -1.6606  1.7314
  122MOL0     H16413   8.138   0.716   3.902  0.0662 -1.8112 -3.8219
  122MOL0     H16414   8.197   0.560   3.843  1.1152 -1.8281  1.0927
  122MOL0     H16415   8.162   0.433   4.010 -1.4749 -0.2757  0.0455
  122MOL0     H16416   8.192   0.565   4.125  2.6900 -0.0824 -1.4755
  122MOL0     H16417   7.955   0.658   4.054  0.2453 -0.1395 -1.2019
  122MOL0     H16418   7.922   0.516   3.966 -1.1000  0.1796  0.1323
  122MOL0     H16419   7.806   0.541   4.197 -0.7367 -0.5214  0.9030
  122MOL0     H16420   7.972   0.534   4.268  5.6561 -3.3216 -2.6709
  122MOL0     H16421   8.061   0.282   4.307 -0.2289  0.4858 -0.2959
  122MOL0     H16422   7.954  -0.058   4.251 -0.0582 -0.9071  0.2272
  122MOL0     H16423   8.013   0.028   4.401 -1.2682  1.4190  1.6159
  122MOL0     H16424   7.876  -0.132   4.481  2.0337 -1.7575 -2.4366
  122MOL0     H16425   7.744  -0.082   4.373 -0.6069 -0.3885 -0.0036
  122MOL0     H16426   7.728   0.137   4.486  0.6264  1.9743  2.8670
  122MOL0     H16427   7.874   0.091   4.577 -1.4531  2.6155  1.6262
  122MOL0     H16428   7.769  -0.090   4.683  1.1865  0.6119  1.1305
  122MOL0     H16429   7.635  -0.075   4.563  0.8546  2.4242 -2.8859
  122MOL0     H16430   7.609   0.064   4.981 -0.7311  1.6748 -1.0472
  122MOL0     H16431   7.488  -0.029   5.175 -1.2424 -2.7239 -0.7348
  122MOL0     H16432   7.357   0.104   5.167 -0.3443 -0.4586  2.0101
  122MOL0     H16433   7.311  -0.062   5.173 -1.3188 -0.3683 -3.0498
  122MOL0     H16434   6.889   0.054   4.955 -0.1407 -0.0736 -0.1921
  122MOL0     H16435   6.632   0.041   4.906 -2.0647 -3.6283  1.4345
  122MOL0     H16436   6.516  -0.207   4.569  2.0236 -1.1575 -0.5883
  122MOL0     H16437   6.529  -0.327   4.702  2.0660  0.3263  0.4522
  122MOL0     H16438   6.327  -0.361   4.592 -1.0686  0.6902 -0.5413
  122MOL0     H16439   6.300  -0.301   4.758  0.8822 -2.2511 -0.2815
  122MOL0     H16440   6.302  -0.143   4.494 -0.4246  0.7330 -0.2193
  122MOL0     H16441   6.244  -0.082   4.652  1.8185  2.0297 -2.9691
  122MOL0     H16442   6.121  -0.324   4.504  0.9137 -0.1703  0.7007
  122MOL0     H16443   6.057  -0.245   4.640 -0.4741 -3.5662 -0.6624
  122MOL0     H16444   6.117  -0.087   4.389 -0.2034 -0.8613 -1.2418
  122MOL0     H16445   5.995  -0.048   4.517 -0.6305 -0.7630  0.7940
  122MOL0     H16446   5.899  -0.114   4.299 -2.8140 -0.9274 -0.3888
  122MOL0     H16447   5.971  -0.267   4.316 -3.5324  0.0266 -0.0736
  122MOL0     H16448   5.817  -0.291   4.521  0.3765  1.8401  2.0223
  122MOL0     H16449   5.735  -0.272   4.360 -1.2005 -0.2922  1.2006
  122MOL0     H16450   5.661  -0.067   4.398 -0.9899 -0.6860  0.1268
  122MOL0     H16451   5.759  -0.040   4.550 -1.7583 -0.5236  0.6346
  122MOL0     H16452   6.712  -0.297   4.661 -1.5034 -0.1912  0.2748
  122MOL0     H16453   6.941  -0.293   4.718 -0.6262 -1.6816 -0.9896
  122MOL0     H16454   7.215  -0.053   4.693  1.1806 -0.2341 -3.1085
  122MOL0     H16455   7.438  -0.005   4.599  1.5357  0.7928  0.5641
  122MOL0     H16456   8.709   0.725   3.441 -0.8309 -0.0841 -0.8902
  122MOL0     H16457   8.879   0.847   3.281 -1.6671 -0.0943 -0.5820
  122MOL0     H16458   8.981   1.177   2.940  1.5254  1.1651 -3.1884
  122MOL0     H16459   9.152   1.301   2.819 -2.4688  0.4161 -0.0680
  122MOL0     H16460   9.521   1.378   3.052 -1.6995 -1.4684 -0.6695
  122MOL0     H16461   9.563   1.466   2.905  0.0727  1.7203  0.3916
  122MOL0     H16462   9.360   1.568   3.123 -0.7661  0.1531  0.4339
  122MOL0     H16463   9.450   1.656   2.992  2.0813  0.2660  0.9674
  122MOL0     H16464   9.669   1.596   3.138 -0.6638 -2.1894 -1.2766
  122MOL0     H16465   9.541   1.548   3.255 -1.7383 -0.3866 -0.0769
  122MOL0     H16466   9.539   1.819   3.162  1.0566  1.2350  1.0850
  122MOL0     H16467   9.630   1.765   3.307  1.1861 -1.3043 -0.1360
  122MOL0     H16468   9.240   1.743   3.468 -0.1574 -1.5300  0.7227
  122MOL0     H16469   9.387   1.294   3.191 -2.1656 -1.4780  3.3369
  122MOL0     H16470   9.226   1.172   3.305 -0.0148 -0.6656 -0.7244
  123MOL0     O16471   4.779   0.656   4.684  0.1322 -0.2491 -1.0061
  123MOL0     C16472   4.700   0.691   4.771  0.5249  0.2754 -0.2534
  123MOL0     O16473   4.571   0.650   4.777 -0.1191  0.3106 -0.4920
  123MOL0     C16474   4.505   0.566   4.683  1.3511 -0.5243 -0.5194
  123MOL0     C16475   4.520   0.568   4.544  0.0503 -0.2120  0.7474
  123MOL0     C16476   4.452   0.485   4.457  0.0553  0.5897 -0.8698
  123MOL0     C16477   4.371   0.380   4.508 -0.0488 -0.0709  0.2531
  123MOL0     O16478   4.328   0.294   4.407  0.1749  0.2787 -0.7745
  123MOL0     C16479   4.383   0.164   4.410  0.0318  0.5624  0.1303
  123MOL0     C16480   4.388   0.119   4.266 -0.1589 -0.2752 -0.1172
  123MOL0     C16481   4.470  -0.013   4.235  0.6348  0.0954  0.8517
  123MOL0     C16482   4.426  -0.067   4.088 -0.7465 -0.1307 -0.1050
  123MOL0     C16483   4.495  -0.203   4.062 -0.1585 -0.1457 -0.4826
  123MOL0     C16484   4.645  -0.186   4.041  0.0082 -0.1554 -0.4091
  123MOL0     C16485   4.698  -0.078   3.949 -0.4171 -0.2461 -1.3037
  123MOL0     C16486   4.845  -0.101   3.910 -0.6518 -0.7471 -0.1296
  123MOL0     N16487   4.938  -0.121   4.012  0.4322  0.4349  0.7243
  123MOL0     C16488   5.008  -0.015   4.062  0.9780  0.1952  0.3135
  123MOL0     C16489   5.086  -0.070   4.144  0.1929  0.9590 -0.4119
  123MOL0     C16490   5.199  -0.007   4.218 -0.2235 -0.8450 -0.4730
  123MOL0     C16491   5.142   0.076   4.337 -0.0410  0.1473  0.5535
  123MOL0     C16492   5.263   0.130   4.431  0.0605  0.8561  0.4122
  123MOL0     C16493   5.341   0.027   4.501 -0.3605 -0.8008  0.5804
  123MOL0     O16494   5.280   0.020   4.631  0.4470 -0.1569 -0.3048
  123MOL0     C16495   5.339   0.076   4.739  0.0547 -0.3765 -0.0025
  123MOL0     C16496   5.260   0.066   4.851 -0.2401  0.3474 -0.2982
  123MOL0     C16497   5.302   0.101   4.984 -0.8799 -0.1945  0.8307
  123MOL0     C16498   5.201   0.091   5.092 -0.2569  0.6024  0.5797
  123MOL0     C16499   5.440   0.156   5.002  0.7640  0.9262  0.2548
  123MOL0     C16500   5.494   0.211   5.129  0.0506 -1.0932  0.2706
  123MOL0     O16501   5.429   0.311   5.191  0.9081 -0.2150 -0.4010
  123MOL0     C16502   5.501   0.353   5.304  0.3575 -1.2393 -0.1356
  123MOL0     C16503   5.585   0.461   5.296 -0.7636  0.1879  0.8277
  123MOL0     C16504   5.666   0.498   5.405  0.4282 -0.0207 -0.0502
  123MOL0     C16505   5.652   0.431   5.532  0.1348  0.0513 -0.0369
  123MOL0     O16506   5.715   0.475   5.651  0.0876 -0.1725  0.2475
  123MOL0     C16507   5.806   0.589   5.648  0.3044  0.2689 -1.2047
  123MOL0     C16508   5.906   0.604   5.763 -0.0503 -0.8212 -0.4119
  123MOL0     C16509   6.034   0.682   5.733 -0.4137  1.1628 -0.8470
  123MOL0     C16510   6.116   0.615   5.630  0.2252  0.3139 -0.4294
  123MOL0     C16511   6.261   0.663   5.656  1.3705  0.1582 -0.0845
  123MOL0     C16512   6.279   0.808   5.603  0.0823 -0.9921  0.0839
  123MOL0     C16513   6.422   0.854   5.641  0.7306 -0.3234 -0.3208
  123MOL0     C16514   6.468   0.983   5.575  0.5210 -1.1382  1.3176
  123MOL0    Cl16515   6.343   1.112   5.576  0.2953 -0.1492  0.2320
  123MOL0     C16516   5.565   0.322   5.535 -0.0330 -0.3495 -0.3489
  123MOL0     C16517   5.494   0.279   5.425  0.7635  0.0450 -0.1905
  123MOL0     O16518   5.604   0.178   5.157  0.1731 -0.8205  0.3190
  123MOL0     C16519   5.520   0.165   4.889  0.8487  0.2695  0.4213
  123MOL0     C16520   5.472   0.124   4.760  0.9722  0.0912 -0.2325
  123MOL0     N16521   5.063  -0.208   4.148 -0.5076  0.5806 -0.2158
  123MOL0     N16522   4.965  -0.237   4.075 -0.5105  0.0020 -0.1801
  123MOL0     C16523   4.369   0.364   4.649 -0.5279  0.3588 -0.0952
  123MOL0     C16524   4.422   0.456   4.740  0.4528 -0.7503  0.9989
  123MOL0     C16525   4.756   0.757   4.889  0.3127  0.0139 -0.3764
  123MOL0     C16526   4.670   0.779   5.002  0.9697 -0.5256  0.0169
  123MOL0     C16527   4.719   0.847   5.114  0.2976 -0.1971 -0.1186
  123MOL0     C16528   4.853   0.893   5.130  0.6606  0.0381  0.7709
  123MOL0     O16529   4.884   0.972   5.236  0.0498  0.3536  0.2679
  123MOL0     C16530   5.022   1.004   5.269 -0.0563  0.5580  0.6043
  123MOL0     C16531   5.046   1.084   5.389  0.0268  0.0138 -0.7969
  123MOL0     C16532   5.200   1.082   5.411 -0.4789 -0.8667  0.2762
  123MOL0     C16533   5.257   1.187   5.502 -0.0640 -0.1317 -0.3297
  123MOL0     C16534   5.191   1.198   5.635 -0.4667  0.3481  0.2121
  123MOL0     C16535   5.137   1.214   5.740  0.1689 -0.1789 -0.7287
  123MOL0     C16536   4.939   0.852   5.021 -1.0048 -0.1157  0.4199
  123MOL0     C16537   4.896   0.785   4.909  0.6781 -0.1266 -0.3675
  123MOL0     H16538   4.599   0.633   4.507  1.1186 -0.8720  1.7839
  123MOL0     H16539   4.476   0.483   4.351  4.3706  2.5594 -0.1442
  123MOL0     H16540   4.486   0.171   4.447  0.2888  2.3222 -0.8128
  123MOL0     H16541   4.321   0.099   4.472 -1.4319  1.5252 -0.2827
  123MOL0     H16542   4.283   0.107   4.236 -1.0768 -1.4555  3.1797
  123MOL0     H16543   4.420   0.188   4.187 -0.0756 -1.2055 -0.9126
  123MOL0     H16544   4.578   0.003   4.237  0.6013  1.6727 -2.6211
  123MOL0     H16545   4.446  -0.089   4.310  0.3401  0.5550  1.2311
  123MOL0     H16546   4.318  -0.081   4.090 -0.7292 -0.1611  2.0123
  123MOL0     H16547   4.450  -0.001   4.004  0.5615 -0.9886 -0.4364
  123MOL0     H16548   4.481  -0.265   4.151 -0.8866  1.5925  0.6692
  123MOL0     H16549   4.459  -0.256   3.974  0.9564 -1.0848 -0.3998
  123MOL0     H16550   4.690  -0.174   4.140 -1.4315 -3.8884  0.8602
  123MOL0     H16551   4.677  -0.285   4.007  3.9789  0.3420  1.3074
  123MOL0     H16552   4.641  -0.074   3.856 -2.9926  3.0144  0.2129
  123MOL0     H16553   4.676   0.018   3.997  1.1391 -0.8133  0.6870
  123MOL0     H16554   4.873  -0.006   3.864 -1.0761 -1.0795 -1.1064
  123MOL0     H16555   4.857  -0.177   3.833  3.2056  1.4047 -1.9431
  123MOL0     H16556   4.988   0.089   4.040  2.4363  0.9500  2.3103
  123MOL0     H16557   5.271  -0.079   4.259 -0.1121  2.1457  5.7278
  123MOL0     H16558   5.261   0.063   4.161 -0.0998 -1.3887 -1.0210
  123MOL0     H16559   5.077   0.009   4.393 -1.1290  0.2740 -0.5174
  123MOL0     H16560   5.082   0.156   4.293  0.2716  0.2842  0.3680
  123MOL0     H16561   5.226   0.205   4.501 -3.6463  1.2260 -1.6957
  123MOL0     H16562   5.334   0.183   4.366  0.2960  0.2748  0.1939
  123MOL0     H16563   5.443   0.066   4.501 -0.5342 -0.3333  0.0850
  123MOL0     H16564   5.345  -0.070   4.450  2.4466 -1.3395  1.6417
  123MOL0     H16565   5.155   0.041   4.838 -0.8381  1.4151  1.9703
  123MOL0     H16566   5.230   0.000   5.146  3.0932  1.7246  0.8758
  123MOL0     H16567   5.208   0.182   5.152  0.8523  0.5410  0.5620
  123MOL0     H16568   5.098   0.076   5.058  0.1322 -0.9286  0.0082
  123MOL0     H16569   5.593   0.518   5.204  0.9528 -0.2190  0.6815
  123MOL0     H16570   5.719   0.592   5.409 -0.1317  0.2643  2.3958
  123MOL0     H16571   5.867   0.576   5.558  1.9700  0.8001 -0.1901
  123MOL0     H16572   5.732   0.670   5.642  0.1263  0.1408 -0.7703
  123MOL0     H16573   5.848   0.671   5.827  1.4414  0.6081 -0.4935
  123MOL0     H16574   5.918   0.514   5.824 -2.8360 -1.0834 -0.1205
  123MOL0     H16575   6.086   0.686   5.829 -0.5643  0.3398 -0.7241
  123MOL0     H16576   6.021   0.785   5.699  4.3389  1.5051 -2.3234
  123MOL0     H16577   6.113   0.506   5.641  2.8761  0.4106  2.9931
  123MOL0     H16578   6.086   0.642   5.528 -3.8777 -0.4133  0.3945
  123MOL0     H16579   6.334   0.594   5.612 -0.6802 -2.1137 -0.1559
  123MOL0     H16580   6.277   0.653   5.763 -0.5303 -2.3023  0.0545
  123MOL0     H16581   6.264   0.820   5.495  3.1731 -0.9359 -0.4579
  123MOL0     H16582   6.210   0.881   5.646  0.6173  1.2027 -2.4431
  123MOL0     H16583   6.497   0.776   5.628  0.9283 -0.1289 -0.3452
  123MOL0     H16584   6.431   0.884   5.746 -0.8218 -1.5722  0.2136
  123MOL0     H16585   6.489   0.959   5.471  1.6562  0.7027  1.0648
  123MOL0     H16586   6.567   1.010   5.613  1.3819 -2.1839 -0.1099
  123MOL0     H16587   5.540   0.261   5.621 -5.9953 -1.6463 -2.5004
  123MOL0     H16588   5.430   0.194   5.402  0.6702  0.1536 -0.3349
  123MOL0     H16589   5.618   0.210   4.895 -0.3897  3.4754 -0.7564
  123MOL0     H16590   5.540   0.140   4.676  1.3352 -3.0084 -0.6538
  123MOL0     H16591   4.311   0.278   4.683  0.5323 -0.2345  0.2394
  123MOL0     H16592   4.415   0.444   4.847  0.4585 -1.5622  0.9142
  123MOL0     H16593   4.564   0.757   4.998  1.0831 -0.9561 -0.8782
  123MOL0     H16594   4.662   0.872   5.203  1.6616  4.5246 -0.3228
  123MOL0     H16595   5.073   0.908   5.280 -0.5335  0.0939 -0.9377
  123MOL0     H16596   5.071   1.052   5.183  1.1666 -0.4586  0.7158
  123MOL0     H16597   5.005   1.040   5.480  0.1886  3.3739  1.0604
  123MOL0     H16598   5.014   1.187   5.377 -1.5028 -0.6786 -3.2116
  123MOL0     H16599   5.256   1.095   5.318 -0.1136 -0.8122  0.5000
  123MOL0     H16600   5.237   0.987   5.450  2.3373  0.2661  0.6141
  123MOL0     H16601   5.264   1.287   5.458 -0.5862 -0.8790 -2.2272
  123MOL0     H16602   5.364   1.168   5.515 -0.0675 -1.1172 -1.5790
  123MOL0     H16603   5.090   1.225   5.836 -0.8887 -1.1512 -1.1079
  123MOL0     H16604   5.043   0.885   5.016 -0.8731 -0.3516  1.4528
  123MOL0     H16605   4.974   0.779   4.833  3.2626 -0.9728  2.1539
  124MOL0     O16606   7.116   8.318   0.387 -0.0455 -0.4972  0.5260
  124MOL0     C16607   7.054   8.218   0.422 -0.6114 -0.9739 -0.4544
  124MOL0     O16608   7.012   8.189   0.545  0.3227 -0.2182 -0.4354
  124MOL0     C16609   7.030   8.285   0.640 -0.3378 -0.2239  0.5444
  124MOL0     C16610   7.161   8.347   0.656 -0.8422 -0.5959 -0.7257
  124MOL0     C16611   7.179   8.439   0.760  0.3973 -0.9044  0.3789
  124MOL0     C16612   7.065   8.496   0.826  0.4982 -0.3915  0.7565
  124MOL0     O16613   7.065   8.608   0.910  0.8079  0.9489 -0.9219
  124MOL0     C16614   7.149   8.588   1.023  0.6415  0.4239  0.2485
  124MOL0     C16615   7.121   8.698   1.128  0.3472  0.6087  0.4830
  124MOL0     C16616   6.972   8.666   1.176 -0.0679  0.2639 -0.1682
  124MOL0     C16617   6.940   8.745   1.304 -0.1740  0.1538  0.4413
  124MOL0     C16618   6.801   8.723   1.366  1.2575 -0.1759 -0.5755
  124MOL0     C16619   6.764   8.830   1.474  0.1620 -0.3634  1.2516
  124MOL0     C16620   6.625   8.803   1.525  0.6422  0.8220  0.4816
  124MOL0     C16621   6.549   8.928   1.578  0.4553  0.1520  0.0400
  124MOL0     N16622   6.524   9.022   1.473 -0.2960 -0.2254 -0.2228
  124MOL0     C16623   6.413   9.006   1.400  1.1187  0.4213  0.0679
  124MOL0     C16624   6.432   9.104   1.299 -0.3660 -0.2914 -1.5246
  124MOL0     C16625   6.332   9.136   1.189 -0.4834  0.3598 -0.0916
  124MOL0     C16626   6.226   9.237   1.228  0.0215 -0.2401 -0.9112
  124MOL0     C16627   6.156   9.313   1.120  0.7167  0.7942 -0.2107
  124MOL0     C16628   6.125   9.233   0.993 -0.9923 -0.1515  0.1884
  124MOL0     O16629   5.985   9.208   0.988  0.3669  0.3917 -0.2200
  124MOL0     C16630   5.940   9.097   1.054 -0.7459 -0.0999 -0.2568
  124MOL0     C16631   5.996   8.970   1.030  0.2065  0.5759 -0.8095
  124MOL0     C16632   5.943   8.856   1.105 -0.0215 -0.4517  0.4824
  124MOL0     C16633   6.023   8.738   1.127 -0.2493  1.0738 -0.0611
  124MOL0     C16634   5.822   8.868   1.172 -0.7256  0.4871 -0.1186
  124MOL0     C16635   5.744   8.754   1.229 -0.6333 -0.2594  0.0849
  124MOL0     O16636   5.727   8.643   1.144 -0.0175 -0.0657  1.1098
  124MOL0     C16637   5.676   8.528   1.199 -0.5605 -0.2804 -0.7412
  124MOL0     C16638   5.734   8.410   1.144 -0.9564 -0.2131 -0.1227
  124MOL0     C16639   5.684   8.278   1.184  0.5862  0.2637 -0.4053
  124MOL0     C16640   5.582   8.269   1.280 -0.0115  0.7901 -0.0905
  124MOL0     O16641   5.528   8.149   1.313  0.3908  0.0556  0.8773
  124MOL0     C16642   5.390   8.140   1.357 -0.9431  0.2502  0.4341
  124MOL0     C16643   5.375   7.992   1.388 -0.2284 -0.0023 -0.4356
  124MOL0     C16644   5.226   7.948   1.404 -0.7615 -0.0645  0.4841
  124MOL0     C16645   5.158   7.991   1.538 -0.4656  0.3507 -0.3582
  124MOL0     C16646   5.015   7.937   1.559 -0.6645  0.1668  0.6057
  124MOL0     C16647   4.975   7.983   1.697  0.3302  0.0339 -0.3212
  124MOL0     C16648   4.833   7.932   1.718  0.5115 -0.1142  0.2917
  124MOL0     C16649   4.753   7.981   1.847 -0.3635 -0.6900 -0.2779
  124MOL0    Cl16650   4.844   7.898   1.970  0.2888 -0.3889 -0.4734
  124MOL0     C16651   5.536   8.388   1.337 -0.0552  0.2060  0.2247
  124MOL0     C16652   5.576   8.517   1.293 -0.3530  0.2882  0.7465
  124MOL0     O16653   5.710   8.763   1.342 -0.2419  0.2331  0.3418
  124MOL0     C16654   5.769   8.995   1.190 -0.1497  0.5308  0.6112
  124MOL0     C16655   5.825   9.105   1.133 -0.8142 -0.1460 -0.5269
  124MOL0     N16656   6.546   9.179   1.328  0.3293 -0.0284  0.1112
  124MOL0     N16657   6.592   9.133   1.446 -0.1724 -0.3495  0.4350
  124MOL0     C16658   6.940   8.448   0.795 -0.6561 -0.2365 -0.0967
  124MOL0     C16659   6.918   8.342   0.712  0.4128 -0.1845  0.3567
  124MOL0     C16660   7.010   8.121   0.320  0.2930 -0.4316 -0.0014
  124MOL0     C16661   7.079   8.110   0.204  0.8076  0.2590  0.3206
  124MOL0     C16662   7.046   8.001   0.124 -0.2407  0.1548 -0.4273
  124MOL0     C16663   6.939   7.914   0.150  0.6060 -0.1956 -0.0576
  124MOL0     O16664   6.900   7.812   0.064  0.4407  0.0055 -0.1370
  124MOL0     C16665   6.787   7.722   0.089  0.0300 -0.8889 -0.5479
  124MOL0     C16666   6.756   7.641  -0.031  0.0056 -0.5223  0.6520
  124MOL0     C16667   6.715   7.503   0.011 -0.8208 -0.2033  0.6149
  124MOL0     C16668   6.677   7.411  -0.104 -1.0559 -0.3432 -0.2090
  124MOL0     C16669   6.788   7.356  -0.187  0.4114 -0.9632  0.0658
  124MOL0     C16670   6.867   7.317  -0.271 -0.1880  0.0099 -0.1612
  124MOL0     C16671   6.873   7.929   0.266  0.1447  0.2670  0.1398
  124MOL0     C16672   6.911   8.025   0.356  0.4677  1.0132  0.8207
  124MOL0     H16673   7.249   8.323   0.597 -1.0602  0.8198 -1.6901
  124MOL0     H16674   7.279   8.482   0.764  0.3463 -0.8096  0.6371
  124MOL0     H16675   7.126   8.493   1.072 -2.0535  2.0724  2.5489
  124MOL0     H16676   7.253   8.592   0.992  0.3244  0.0027 -0.9263
  124MOL0     H16677   7.194   8.695   1.210  3.7895  3.8398 -2.0875
  124MOL0     H16678   7.125   8.793   1.075  0.4762 -0.2254 -1.0801
  124MOL0     H16679   6.919   8.718   1.096  1.1376 -1.5302 -2.2365
  124MOL0     H16680   6.953   8.559   1.187  2.2626 -0.1248  0.7268
  124MOL0     H16681   7.016   8.715   1.376 -1.9902 -0.6249  2.0958
  124MOL0     H16682   6.963   8.852   1.293 -0.0292 -0.0296 -1.3453
  124MOL0     H16683   6.725   8.719   1.287 -1.9409 -0.7615  2.2770
  124MOL0     H16684   6.787   8.626   1.414  1.1346 -0.9033 -2.0036
  124MOL0     H16685   6.830   8.819   1.560  1.5329  0.1471  0.3125
  124MOL0     H16686   6.784   8.929   1.432  3.5091 -0.9075  1.3024
  124MOL0     H16687   6.571   8.754   1.444  4.1224 -3.6642  0.5005
  124MOL0     H16688   6.634   8.734   1.609  1.9718  0.9994  0.5029
  124MOL0     H16689   6.614   8.970   1.656  0.0746  1.6069 -0.3992
  124MOL0     H16690   6.456   8.893   1.624  0.9290 -1.2007  0.0289
  124MOL0     H16691   6.329   8.937   1.411  1.9785 -0.7151 -0.3316
  124MOL0     H16692   6.388   9.175   1.103 -0.4764  2.4270  0.7720
  124MOL0     H16693   6.287   9.043   1.153 -2.6678  0.3343  2.3694
  124MOL0     H16694   6.273   9.318   1.286  1.1852 -2.4914  1.4928
  124MOL0     H16695   6.153   9.192   1.296  0.6896 -0.2390 -0.1818
  124MOL0     H16696   6.218   9.401   1.097  2.0723 -0.4172 -1.4510
  124MOL0     H16697   6.065   9.346   1.170  0.5245 -1.5825  1.1308
  124MOL0     H16698   6.191   9.147   0.978  0.3668  0.8056  0.5606
  124MOL0     H16699   6.146   9.295   0.906 -1.9114 -1.2667 -0.8657
  124MOL0     H16700   6.074   8.960   0.955  0.5601  0.2077 -0.4005
  124MOL0     H16701   6.023   8.706   1.231  2.1573  1.7642  0.2269
  124MOL0     H16702   5.986   8.659   1.062 -1.2464  3.0701 -2.0663
  124MOL0     H16703   6.121   8.772   1.091 -0.8822  1.6564 -1.3092
  124MOL0     H16704   5.812   8.416   1.069 -0.8154 -3.8533 -0.4212
  124MOL0     H16705   5.727   8.188   1.140 -2.4694 -2.9328  2.5700
  124MOL0     H16706   5.384   8.192   1.452 -2.0634  1.9164 -0.4952
  124MOL0     H16707   5.316   8.179   1.286 -1.5625  0.0281  0.9588
  124MOL0     H16708   5.428   7.933   1.312  0.7622 -1.0231  0.9908
  124MOL0     H16709   5.433   7.962   1.476 -1.0870 -0.3773  0.0110
  124MOL0     H16710   5.213   7.840   1.402 -0.5855 -0.0856  0.3970
  124MOL0     H16711   5.168   7.982   1.318 -0.3059 -0.2167  0.1110
  124MOL0     H16712   5.214   7.949   1.622  1.7657  3.2566 -0.1997
  124MOL0     H16713   5.172   8.099   1.548  1.4448 -0.0577  3.5270
  124MOL0     H16714   5.025   7.828   1.560  3.7953  0.3719 -0.9331
  124MOL0     H16715   4.950   7.966   1.476 -1.0331 -2.3310 -0.0522
  124MOL0     H16716   5.041   7.944   1.775  0.2311 -2.2879 -1.3211
  124MOL0     H16717   4.962   8.091   1.691 -2.6068 -0.2049 -0.0909
  124MOL0     H16718   4.836   7.823   1.722 -2.5528 -0.2542  0.7911
  124MOL0     H16719   4.762   7.960   1.640 -0.2254 -1.5057  0.4268
  124MOL0     H16720   4.646   7.959   1.845 -1.1749  2.1259 -5.1735
  124MOL0     H16721   4.764   8.089   1.858  0.9834 -0.7832 -0.4687
  124MOL0     H16722   5.474   8.394   1.427 -0.7456  2.5777 -0.3417
  124MOL0     H16723   5.520   8.605   1.325  1.2465  2.0019 -0.8615
  124MOL0     H16724   5.680   9.010   1.251 -0.7894  1.5801 -0.5514
  124MOL0     H16725   5.769   9.196   1.149  4.1216  3.1736  0.1571
  124MOL0     H16726   6.854   8.493   0.843 -0.3779  1.4280 -1.0699
  124MOL0     H16727   6.813   8.316   0.702  0.4614 -0.1567 -0.2863
  124MOL0     H16728   7.163   8.177   0.188  3.3356 -2.2914  1.7743
  124MOL0     H16729   7.094   7.998   0.027  1.9471  1.4016  0.5463
  124MOL0     H16730   6.823   7.646   0.158 -0.9826 -1.3711 -0.5302
  124MOL0     H16731   6.701   7.776   0.130  0.4812  0.4191 -1.2387
  124MOL0     H16732   6.833   7.650  -0.108 -0.5063  2.8038  0.3590
  124MOL0     H16733   6.669   7.684  -0.082  1.5752  2.7651  0.4796
  124MOL0     H16734   6.631   7.489   0.079 -1.0756 -5.5686 -0.3038
  124MOL0     H16735   6.794   7.451   0.066  0.2998 -0.5067 -1.2087
  124MOL0     H16736   6.611   7.468  -0.170  0.1634 -0.2396 -1.3891
  124MOL0     H16737   6.618   7.329  -0.062 -2.4350  0.4233 -0.5815
  124MOL0     H16738   6.940   7.282  -0.341 -1.1876 -1.1549 -0.6644
  124MOL0     H16739   6.794   7.868   0.309  0.4400  0.1521  0.5265
  124MOL0     H16740   6.862   8.027   0.452 -0.9795  0.5319  0.1179
  125MOL0     O16741   2.349   6.599   1.422  0.0729  0.5170 -0.0051
  125MOL0     C16742   2.225   6.603   1.431 -0.3855  0.3035  0.8184
  125MOL0     O16743   2.144   6.515   1.487 -0.3079 -0.2711  0.3953
  125MOL0     C16744   2.181   6.393   1.523  0.7008  0.0082 -0.3967
  125MOL0     C16745   2.310   6.333   1.549  0.0775 -0.2837  0.4088
  125MOL0     C16746   2.321   6.204   1.596  0.1829 -0.4514  0.0894
  125MOL0     C16747   2.210   6.128   1.627  0.8864 -0.8009 -0.0804
  125MOL0     O16748   2.211   6.007   1.692  0.2013  0.2293  0.0615
  125MOL0     C16749   2.301   5.898   1.653 -0.3551 -0.2812  0.1333
  125MOL0     C16750   2.309   5.797   1.776 -0.4429 -0.4151 -0.4274
  125MOL0     C16751   2.387   5.671   1.750 -0.8236 -0.7761  0.1121
  125MOL0     C16752   2.356   5.569   1.864  0.3069 -0.5430  0.2684
  125MOL0     C16753   2.422   5.432   1.847  1.0672  0.9589  1.0545
  125MOL0     C16754   2.339   5.346   1.761 -0.2860  0.0866  0.9038
  125MOL0     C16755   2.382   5.191   1.765  0.7050 -0.0140 -0.3400
  125MOL0     C16756   2.360   5.135   1.909  0.4998 -0.1631  0.1746
  125MOL0     N16757   2.363   4.991   1.922  0.1039  0.4619  1.0504
  125MOL0     C16758   2.290   4.898   1.856  0.2501  0.4479  0.5292
  125MOL0     C16759   2.326   4.777   1.894  0.0719  0.2222  0.6175
  125MOL0     C16760   2.282   4.642   1.838  0.4914  0.4402 -0.1770
  125MOL0     C16761   2.307   4.634   1.684  0.0863 -0.2112  1.0670
  125MOL0     C16762   2.185   4.592   1.604  0.4230  0.2566  0.5172
  125MOL0     C16763   2.084   4.707   1.581  0.1548 -0.6369 -0.6835
  125MOL0     O16764   2.127   4.798   1.480 -0.7140 -0.1184 -0.2028
  125MOL0     C16765   2.109   4.935   1.511  0.4294  0.9007  0.4233
  125MOL0     C16766   2.170   5.037   1.440 -0.6955  0.6512  0.8899
  125MOL0     C16767   2.147   5.172   1.441  0.5681 -0.6137  0.1032
  125MOL0     C16768   2.215   5.261   1.338 -0.0059 -0.1789 -0.4216
  125MOL0     C16769   2.045   5.215   1.535 -0.4795  0.1434 -0.6408
  125MOL0     C16770   2.007   5.356   1.552 -1.2718 -0.7147  1.0668
  125MOL0     O16771   1.963   5.394   1.676  0.1159  0.1445  0.5655
  125MOL0     C16772   1.937   5.516   1.725  0.3420  0.1311  1.0215
  125MOL0     C16773   1.863   5.516   1.845 -0.0899 -0.7126  0.0505
  125MOL0     C16774   1.845   5.632   1.918 -0.0765 -0.3021 -0.0686
  125MOL0     C16775   1.893   5.758   1.871  0.3822 -0.8968 -0.1250
  125MOL0     O16776   1.884   5.883   1.937 -0.0369  0.7645  0.3177
  125MOL0     C16777   1.752   5.914   1.992 -0.5564  0.1305  0.0147
  125MOL0     C16778   1.745   6.053   2.050 -0.4757 -0.3337  1.4378
  125MOL0     C16779   1.762   6.162   1.931  0.5831  1.1301 -0.0305
  125MOL0     C16780   1.646   6.179   1.827 -0.3051 -0.7050  0.0692
  125MOL0     C16781   1.656   6.316   1.758  0.1193  0.2756  1.7733
  125MOL0     C16782   1.518   6.361   1.693 -1.1873  0.1386 -0.4017
  125MOL0     C16783   1.536   6.507   1.646 -0.0838 -0.8069 -0.6804
  125MOL0     C16784   1.563   6.521   1.502 -1.3789 -0.7850 -0.0352
  125MOL0    Cl16785   1.723   6.465   1.445  0.0787  0.0959 -0.0403
  125MOL0     C16786   1.937   5.766   1.734 -0.4753  0.3101 -0.0382
  125MOL0     C16787   1.972   5.642   1.670 -0.2230 -0.4577 -0.3669
  125MOL0     O16788   2.003   5.430   1.448 -0.3711 -0.3285  0.4052
  125MOL0     C16789   1.993   5.116   1.621  0.5879  0.2966  0.0659
  125MOL0     C16790   2.009   4.983   1.598  0.4321  0.0997  0.7418
  125MOL0     N16791   2.424   4.794   1.988 -0.5095  0.5879  0.1222
  125MOL0     N16792   2.445   4.920   2.015  0.5123  0.0852 -0.1784
  125MOL0     C16793   2.088   6.185   1.610  0.8794  0.6487 -0.8696
  125MOL0     C16794   2.069   6.309   1.552 -0.3222 -0.4726 -0.3658
  125MOL0     C16795   2.163   6.719   1.362 -0.4951  0.6852  0.4479
  125MOL0     C16796   2.033   6.701   1.321  0.3831  0.1419  0.2850
  125MOL0     C16797   1.978   6.793   1.232 -0.4619  0.5501  0.5782
  125MOL0     C16798   2.058   6.901   1.197 -0.1850 -0.4839 -0.0676
  125MOL0     O16799   1.998   6.991   1.108 -0.3759  0.0369 -0.3257
  125MOL0     C16800   2.075   7.106   1.055 -0.1192 -0.6402 -0.3933
  125MOL0     C16801   1.990   7.199   0.961 -0.5927  0.3572 -0.5534
  125MOL0     C16802   1.842   7.208   0.993  0.8025  0.0874  0.1178
  125MOL0     C16803   1.768   7.298   0.897 -0.3894  0.1138  0.1573
  125MOL0     C16804   1.735   7.234   0.765  0.0636 -1.5732  0.5704
  125MOL0     C16805   1.714   7.191   0.651  0.5021 -0.2966  0.4655
  125MOL0     C16806   2.188   6.917   1.250  0.0948 -0.4250 -0.4252
  125MOL0     C16807   2.245   6.819   1.316 -0.5833 -0.1780 -0.7617
  125MOL0     H16808   2.404   6.383   1.529  1.2236 -2.1996  0.7260
  125MOL0     H16809   2.419   6.161   1.611  2.5609  3.8901 -1.2819
  125MOL0     H16810   2.269   5.845   1.564  1.2718 -0.9377 -0.0816
  125MOL0     H16811   2.399   5.933   1.621 -1.8137  1.7968 -2.5577
  125MOL0     H16812   2.358   5.856   1.854  1.5494 -2.3965 -0.0651
  125MOL0     H16813   2.206   5.775   1.804  0.0195 -3.2346 -0.6475
  125MOL0     H16814   2.364   5.626   1.653  0.6069 -0.7730 -0.2521
  125MOL0     H16815   2.488   5.713   1.749 -1.3916  0.9371  3.0255
  125MOL0     H16816   2.408   5.626   1.942 -0.5239 -0.6965  0.9441
  125MOL0     H16817   2.249   5.559   1.880  0.3342  0.2983  1.0337
  125MOL0     H16818   2.526   5.436   1.816  0.4615 -0.0278 -1.2798
  125MOL0     H16819   2.428   5.397   1.951 -0.5504  0.4768  1.0136
  125MOL0     H16820   2.236   5.349   1.798 -0.2748 -1.3574  1.0975
  125MOL0     H16821   2.338   5.366   1.653 -1.2956  1.7032  1.1719
  125MOL0     H16822   2.310   5.132   1.707  0.2194 -1.5782  1.7480
  125MOL0     H16823   2.480   5.163   1.725 -0.3270  0.5726 -3.5616
  125MOL0     H16824   2.262   5.162   1.950  0.7663 -0.7679  1.2493
  125MOL0     H16825   2.434   5.189   1.968  2.5654 -2.1826 -0.4260
  125MOL0     H16826   2.221   4.924   1.776  0.8513 -0.0305 -0.1627
  125MOL0     H16827   2.332   4.558   1.887  1.0105  0.5930 -0.4379
  125MOL0     H16828   2.176   4.628   1.857  0.7206 -1.2627  0.0223
  125MOL0     H16829   2.383   4.556   1.676  0.3070  0.0644  0.3699
  125MOL0     H16830   2.353   4.726   1.646 -3.7756  2.8934  3.1678
  125MOL0     H16831   2.134   4.512   1.658  2.0002  0.2937  2.1650
  125MOL0     H16832   2.213   4.557   1.504 -1.9384  1.9305 -0.8233
  125MOL0     H16833   2.071   4.755   1.679 -2.1699  0.9461 -1.6877
  125MOL0     H16834   1.995   4.659   1.540  0.9540 -1.9910 -0.9002
  125MOL0     H16835   2.242   5.009   1.364  0.0138  1.2368  1.3247
  125MOL0     H16836   2.317   5.230   1.315  1.1608  0.5931  3.0855
  125MOL0     H16837   2.145   5.281   1.256  0.8411  1.0359 -0.8613
  125MOL0     H16838   2.241   5.348   1.399  1.1355  0.9156 -2.3796
  125MOL0     H16839   1.832   5.418   1.880 -6.1460 -0.1216 -2.4263
  125MOL0     H16840   1.805   5.637   2.018  2.4741  0.8783  0.9808
  125MOL0     H16841   1.680   5.898   1.911  0.4797  0.6424 -1.0190
  125MOL0     H16842   1.726   5.843   2.072  0.9877 -1.3309 -0.7284
  125MOL0     H16843   1.647   6.066   2.096 -3.8051 -0.8341 -4.5501
  125MOL0     H16844   1.822   6.063   2.128  1.0838 -1.8822  0.1818
  125MOL0     H16845   1.848   6.125   1.874 -0.1240 -2.3496  0.9298
  125MOL0     H16846   1.784   6.259   1.977  0.5136  1.6313 -1.0096
  125MOL0     H16847   1.654   6.098   1.755  1.7267  0.1118 -0.6817
  125MOL0     H16848   1.550   6.169   1.879  0.1575  0.2205  1.1594
  125MOL0     H16849   1.734   6.310   1.681 -2.1785 -2.4146 -0.5795
  125MOL0     H16850   1.689   6.393   1.828  0.3126  0.3210  1.6333
  125MOL0     H16851   1.499   6.298   1.606 -1.2726 -1.0625  0.4635
  125MOL0     H16852   1.435   6.356   1.765 -1.0407 -3.6502 -0.3203
  125MOL0     H16853   1.628   6.542   1.694  0.9634 -0.5362 -2.8030
  125MOL0     H16854   1.458   6.571   1.687 -0.4194 -2.7501  2.0599
  125MOL0     H16855   1.566   6.628   1.481  3.4669 -0.8735 -0.8419
  125MOL0     H16856   1.484   6.477   1.439  1.8354 -2.3772 -3.3246
  125MOL0     H16857   1.961   5.862   1.689 -0.3450 -0.3966 -1.5433
  125MOL0     H16858   2.014   5.652   1.571 -2.7372 -0.0900 -1.4734
  125MOL0     H16859   1.917   5.151   1.690 -1.4245  0.7636 -2.2347
  125MOL0     H16860   1.952   4.911   1.654 -0.6431  2.9724  3.6483
  125MOL0     H16861   1.994   6.134   1.627  1.7073 -1.1361 -1.3853
  125MOL0     H16862   1.970   6.354   1.544 -0.9772 -1.9863 -1.0231
  125MOL0     H16863   1.964   6.621   1.346 -1.5262  1.0052 -1.8060
  125MOL0     H16864   1.879   6.773   1.191  0.5881 -1.9372 -0.9805
  125MOL0     H16865   2.101   7.147   1.153 -1.1676 -2.7353  0.8221
  125MOL0     H16866   2.170   7.066   1.018  1.2545  0.4012  1.7758
  125MOL0     H16867   2.006   7.168   0.857  0.7912  2.8114 -1.1557
  125MOL0     H16868   2.035   7.298   0.948  0.2764 -0.2195 -2.4251
  125MOL0     H16869   1.822   7.233   1.098 -3.7806 -1.1275 -0.2365
  125MOL0     H16870   1.811   7.104   0.983  1.1271 -0.0608  0.6272
  125MOL0     H16871   1.836   7.382   0.880  0.5024 -1.0537 -2.6995
  125MOL0     H16872   1.674   7.343   0.928  0.6644  1.7853  1.0451
  125MOL0     H16873   1.683   7.154   0.555 -2.3791 -0.0199  1.1769
  125MOL0     H16874   2.256   7.000   1.236 -0.3871  1.0030  4.0523
  125MOL0     H16875   2.346   6.830   1.354 -0.0833 -0.4120 -1.9667
  126MOL0     O16876  10.465   1.113   1.271  0.0723 -0.0437 -0.2201
  126MOL0     C16877  10.439   1.017   1.344  0.2568  0.6612 -0.7450
  126MOL0     O16878  10.314   0.981   1.375 -0.2839 -1.2136 -0.8661
  126MOL0     C16879  10.215   1.076   1.340 -0.5131  0.1369  0.9166
  126MOL0     C16880  10.169   1.104   1.216 -0.0662  0.6336 -0.8728
  126MOL0     C16881  10.056   1.188   1.187  0.1879 -0.8270 -0.2684
  126MOL0     C16882  10.012   1.263   1.301 -1.0853 -0.3378 -0.0114
  126MOL0     O16883   9.907   1.352   1.302 -0.6335 -0.7028  0.3861
  126MOL0     C16884   9.868   1.412   1.175  0.1151 -0.2040 -0.6896
  126MOL0     C16885   9.747   1.505   1.202 -0.1644 -0.2023  0.1443
  126MOL0     C16886   9.669   1.549   1.077 -0.6654  0.5229 -0.1700
  126MOL0     C16887   9.569   1.654   1.117  0.4936  0.0821 -0.7021
  126MOL0     C16888   9.529   1.759   1.016  0.0946  0.1124  0.2995
  126MOL0     C16889   9.386   1.816   1.022 -0.2335 -0.5347  0.3785
  126MOL0     C16890   9.281   1.711   0.973  0.5807  0.1032  0.3321
  126MOL0     C16891   9.128   1.739   1.006  0.4080  0.2139 -0.0022
  126MOL0     N16892   9.031   1.637   0.958  0.1688 -0.0355  1.8823
  126MOL0     C16893   9.051   1.502   0.945 -0.6928  0.8094  0.0468
  126MOL0     C16894   8.931   1.462   0.875 -0.8096  0.2308  0.0474
  126MOL0     C16895   8.892   1.322   0.831 -0.4755 -0.4549  0.2097
  126MOL0     C16896   8.839   1.250   0.963 -1.7442 -0.5590  0.4063
  126MOL0     C16897   8.772   1.118   0.943  0.7886 -0.0323 -0.0010
  126MOL0     C16898   8.653   1.122   0.846 -0.3731 -0.5894  0.2053
  126MOL0     O16899   8.548   1.203   0.890  0.4504 -0.7063 -0.0166
  126MOL0     C16900   8.441   1.135   0.953  0.3197 -0.7628 -0.9223
  126MOL0     C16901   8.451   1.043   1.060 -0.3179 -1.1558  0.4416
  126MOL0     C16902   8.344   0.963   1.096  0.4762 -0.1468 -0.2033
  126MOL0     C16903   8.379   0.874   1.207 -0.1382 -0.4726 -0.2431
  126MOL0     C16904   8.217   0.982   1.029 -0.4784  0.0837 -0.2151
  126MOL0     C16905   8.100   0.907   1.061 -0.4436 -0.1509  0.1180
  126MOL0     O16906   8.111   0.820   1.176 -0.1807  0.1106  0.3494
  126MOL0     C16907   7.988   0.793   1.237 -0.6405 -0.0208  0.0535
  126MOL0     C16908   7.939   0.901   1.311  0.0487  0.7610  0.2697
  126MOL0     C16909   7.819   0.898   1.386  0.1908 -0.4568 -0.2132
  126MOL0     C16910   7.745   0.774   1.393 -0.3382 -0.0852  0.0672
  126MOL0     O16911   7.629   0.768   1.450  0.6001  1.0703  0.2481
  126MOL0     C16912   7.526   0.836   1.379 -0.1264  0.4556 -0.8394
  126MOL0     C16913   7.394   0.792   1.438 -0.0924  0.3687 -0.2690
  126MOL0     C16914   7.336   0.672   1.366 -0.3381 -0.2252 -0.2146
  126MOL0     C16915   7.433   0.556   1.348  0.1027  1.2061 -0.4137
  126MOL0     C16916   7.350   0.435   1.299 -0.5290 -0.1847  0.3475
  126MOL0     C16917   7.432   0.323   1.236 -0.3631  0.1386  0.1498
  126MOL0     C16918   7.542   0.269   1.333  0.1855 -0.4657 -0.4612
  126MOL0     C16919   7.620   0.152   1.285  0.0797  0.3800  0.3921
  126MOL0    Cl16920   7.695   0.170   1.124 -0.1935  0.1452 -0.0343
  126MOL0     C16921   7.798   0.661   1.330 -0.1975 -1.0647 -0.6231
  126MOL0     C16922   7.917   0.673   1.251  0.0408  0.5963 -0.6553
  126MOL0     O16923   7.994   0.943   1.002 -0.5171  0.2197  0.2195
  126MOL0     C16924   8.206   1.090   0.929  0.1440 -0.6246 -1.1176
  126MOL0     C16925   8.319   1.164   0.900 -0.0062 -0.5367 -0.1687
  126MOL0     N16926   8.845   1.569   0.858  0.3161  0.1275 -0.5077
  126MOL0     N16927   8.909   1.673   0.899  0.6066 -0.5164  0.0559
  126MOL0     C16928  10.061   1.241   1.430  0.7409 -0.1266  0.0964
  126MOL0     C16929  10.157   1.144   1.449  0.6515 -0.3724 -0.6034
  126MOL0     C16930  10.551   0.922   1.370  0.2170  0.0682  0.0561
  126MOL0     C16931  10.678   0.965   1.371 -0.0668  0.1241  0.5035
  126MOL0     C16932  10.784   0.882   1.406 -0.5696  0.0734  0.6109
  126MOL0     C16933  10.758   0.749   1.432  0.5001 -0.5445 -0.1507
  126MOL0     O16934  10.847   0.654   1.480 -0.3040 -0.4259  0.3892
  126MOL0     C16935  10.972   0.707   1.520 -0.1066 -0.5638  0.1123
  126MOL0     C16936  11.068   0.588   1.549 -0.0587 -0.1077 -0.7301
  126MOL0     C16937  11.115   0.501   1.425 -0.4743 -0.4583  0.0330
  126MOL0     C16938  11.202   0.390   1.473 -0.7084  0.9711 -0.4863
  126MOL0     C16939  11.147   0.294   1.564 -0.4393 -0.3465 -0.5160
  126MOL0     C16940  11.102   0.202   1.626 -0.2146  0.8141 -0.1893
  126MOL0     C16941  10.622   0.710   1.431  0.2692 -0.5318 -0.1683
  126MOL0     C16942  10.519   0.790   1.400  0.6677  0.4582 -0.0874
  126MOL0     H16943  10.221   1.067   1.128 -0.6041 -1.2506 -0.4611
  126MOL0     H16944  10.025   1.203   1.084 -0.8561 -0.1334  0.1320
  126MOL0     H16945   9.954   1.462   1.130  0.1089  0.4675  0.0271
  126MOL0     H16946   9.833   1.332   1.108  0.1060 -1.0428  0.2875
  126MOL0     H16947   9.683   1.434   1.256  0.4698 -0.9881 -0.1132
  126MOL0     H16948   9.781   1.589   1.264  4.7353 -1.2918 -0.6586
  126MOL0     H16949   9.737   1.593   1.004  1.8472  0.8847  2.2259
  126MOL0     H16950   9.623   1.456   1.042 -3.7327  1.2257  1.6492
  126MOL0     H16951   9.480   1.593   1.136 -1.6054  3.0171 -0.4240
  126MOL0     H16952   9.600   1.711   1.205  0.0859  0.5547 -0.8592
  126MOL0     H16953   9.589   1.847   1.038  0.2649 -0.8608  4.6711
  126MOL0     H16954   9.539   1.722   0.914 -0.7163  1.5883 -0.3435
  126MOL0     H16955   9.363   1.849   1.124 -3.6662  0.0044 -0.4544
  126MOL0     H16956   9.376   1.903   0.956 -2.5147 -2.0988 -1.5010
  126MOL0     H16957   9.297   1.702   0.865 -1.9847 -3.7478  0.0784
  126MOL0     H16958   9.305   1.615   1.019 -0.1394 -2.2629 -3.7545
  126MOL0     H16959   9.100   1.831   0.955  1.7418  0.1139 -0.9589
  126MOL0     H16960   9.110   1.762   1.112  0.8360 -2.6214  0.7763
  126MOL0     H16961   9.134   1.435   0.966 -1.6022  0.2090  2.0213
  126MOL0     H16962   8.823   1.341   0.748  0.7170 -4.5115 -2.0140
  126MOL0     H16963   8.974   1.270   0.781  2.0976  3.7980 -0.4880
  126MOL0     H16964   8.768   1.318   1.010 -2.5342 -0.6478 -0.6056
  126MOL0     H16965   8.928   1.242   1.026 -0.4729  0.7340 -1.1117
  126MOL0     H16966   8.748   1.076   1.041 -1.7299  1.1357 -0.0309
  126MOL0     H16967   8.836   1.044   0.894 -0.7499 -1.1543 -0.4184
  126MOL0     H16968   8.617   1.025   0.810 -2.7443  1.0430 -2.2718
  126MOL0     H16969   8.682   1.168   0.751  0.4881 -2.1877 -0.3275
  126MOL0     H16970   8.546   1.045   1.111 -1.7437  0.5837  3.2928
  126MOL0     H16971   8.356   0.769   1.186 -1.1000 -0.8006  2.0509
  126MOL0     H16972   8.484   0.883   1.236 -0.8640  2.0129  2.0533
  126MOL0     H16973   8.324   0.898   1.299 -1.2570 -1.4495 -0.6330
  126MOL0     H16974   8.009   0.984   1.311  1.1332  0.0359  3.9334
  126MOL0     H16975   7.785   0.981   1.447 -0.4185 -2.5016  2.4134
  126MOL0     H16976   7.531   0.943   1.403 -1.4080  0.0308  1.6962
  126MOL0     H16977   7.531   0.827   1.270  1.0001 -0.6492 -0.7102
  126MOL0     H16978   7.386   0.779   1.546 -1.3472 -1.1563 -0.5103
  126MOL0     H16979   7.325   0.878   1.441  0.4501  0.7815  0.7840
  126MOL0     H16980   7.306   0.711   1.268  1.1999 -0.9569 -1.0040
  126MOL0     H16981   7.249   0.640   1.424  0.3187  0.5536  1.2497
  126MOL0     H16982   7.515   0.585   1.282  2.3161  0.1005  1.6778
  126MOL0     H16983   7.479   0.526   1.443 -1.1583 -2.2772 -0.7446
  126MOL0     H16984   7.284   0.458   1.215  1.1023  1.7727 -0.4668
  126MOL0     H16985   7.298   0.403   1.389  1.0630  1.6751  2.0273
  126MOL0     H16986   7.355   0.249   1.214 -0.5195  0.2991  0.1570
  126MOL0     H16987   7.474   0.354   1.140 -0.8890  0.4420  0.0122
  126MOL0     H16988   7.491   0.239   1.425  0.4665 -2.8754 -1.0195
  126MOL0     H16989   7.610   0.351   1.356 -0.9535  0.6560 -0.9906
  126MOL0     H16990   7.556   0.065   1.268  0.4000  0.3984 -1.0153
  126MOL0     H16991   7.692   0.113   1.357 -1.0717  1.9744  2.5279
  126MOL0     H16992   7.740   0.570   1.344 -1.9683  0.0290 -0.4776
  126MOL0     H16993   7.953   0.582   1.205  0.2123 -0.0935  0.7792
  126MOL0     H16994   8.113   1.113   0.880 -0.6117  0.7205  0.8241
  126MOL0     H16995   8.306   1.240   0.824  0.7685 -2.2780 -2.1591
  126MOL0     H16996  10.014   1.268   1.524  2.9506 -0.3746  1.3286
  126MOL0     H16997  10.191   1.129   1.551  0.8594  0.5239 -0.5338
  126MOL0     H16998  10.690   1.072   1.357  0.2450  0.0410  0.1027
  126MOL0     H16999  10.883   0.923   1.424 -1.9082  3.2633  1.4710
  126MOL0     H17000  11.029   0.768   1.449  0.7430 -1.6186 -0.1397
  126MOL0     H17001  10.955   0.748   1.620 -1.8039  1.3768 -0.8924
  126MOL0     H17002  11.009   0.531   1.622 -2.2496  1.5810 -1.0621
  126MOL0     H17003  11.147   0.628   1.613 -1.1267 -0.7419  1.0585
  126MOL0     H17004  11.165   0.568   1.354  4.0057 -2.0479  1.3648
  126MOL0     H17005  11.028   0.463   1.371 -2.0557  2.0195  0.6531
  126MOL0     H17006  11.293   0.432   1.517  1.5532 -0.9109 -3.0216
  126MOL0     H17007  11.245   0.345   1.382  0.5524  2.9207 -0.9319
  126MOL0     H17008  11.083   0.109   1.676  2.3123  0.7898  0.8833
  126MOL0     H17009  10.600   0.606   1.454 -3.1765  0.3228  1.0227
  126MOL0     H17010  10.419   0.746   1.409  0.9786 -0.4011 -0.7444
  127MOL0     O17011   8.683   0.781   6.367  0.6997 -0.5105  0.2887
  127MOL0     C17012   8.770   0.706   6.325 -0.1378  0.1611 -0.1412
  127MOL0     O17013   8.841   0.729   6.217  0.1437  0.1159  0.4507
  127MOL0     C17014   8.829   0.860   6.174 -0.2042 -0.1197 -0.0824
  127MOL0     C17015   8.923   0.956   6.219 -0.5210 -0.3106 -0.0771
  127MOL0     C17016   8.912   1.092   6.185  0.2222 -0.0491 -0.5819
  127MOL0     C17017   8.819   1.129   6.095  0.8427 -0.2583 -0.3529
  127MOL0     O17018   8.804   1.252   6.038  0.3599 -0.2442 -0.0303
  127MOL0     C17019   8.829   1.373   6.108 -0.5539 -0.7170 -1.1129
  127MOL0     C17020   8.797   1.488   6.023 -0.5079 -0.0286  0.4450
  127MOL0     C17021   8.770   1.621   6.111 -1.3413 -0.2503  0.4182
  127MOL0     C17022   8.806   1.745   6.020 -0.5875  0.4784  0.1384
  127MOL0     C17023   8.676   1.789   5.961 -0.4545 -0.4674 -0.1269
  127MOL0     C17024   8.702   1.921   5.873  0.7347  0.8716 -0.1420
  127MOL0     C17025   8.589   1.966   5.779  0.4419 -0.1281 -0.5167
  127MOL0     C17026   8.487   2.048   5.864  0.3000  0.7121  0.2421
  127MOL0     N17027   8.382   2.107   5.771 -0.3596  0.2593 -0.9110
  127MOL0     C17028   8.284   2.036   5.717 -0.5210 -0.2730  0.0590
  127MOL0     C17029   8.199   2.132   5.678 -0.8579 -0.2531  0.0227
  127MOL0     C17030   8.057   2.095   5.638 -0.0886 -0.2749 -0.3024
  127MOL0     C17031   8.052   2.087   5.489 -0.8770 -0.0159  0.5240
  127MOL0     C17032   7.914   2.033   5.442 -0.2590  0.5728  0.2410
  127MOL0     C17033   7.915   1.991   5.290  0.1885 -0.2822  0.9264
  127MOL0     O17034   7.934   2.119   5.221 -0.6489 -0.1858 -0.0841
  127MOL0     C17035   7.949   2.109   5.085 -0.3262  0.5833  0.6241
  127MOL0     C17036   7.998   1.993   5.017 -0.5036  0.8189  0.3751
  127MOL0     C17037   8.008   2.002   4.875 -0.4053  0.0449  0.1269
  127MOL0     C17038   8.049   1.877   4.797  0.0310 -1.1947 -0.5451
  127MOL0     C17039   7.980   2.123   4.800 -0.1576 -0.0687  0.1052
  127MOL0     C17040   8.006   2.136   4.654  0.5275 -0.7188 -0.6376
  127MOL0     O17041   8.034   2.256   4.602  0.5743 -0.9155 -0.1346
  127MOL0     C17042   8.012   2.273   4.462 -0.3202 -0.8713  0.2562
  127MOL0     C17043   7.890   2.294   4.406  0.5891 -0.2694 -0.2370
  127MOL0     C17044   7.870   2.307   4.267 -0.7948  0.4018  0.9387
  127MOL0     C17045   7.979   2.299   4.177  0.3495 -0.3061 -0.6847
  127MOL0     O17046   7.968   2.308   4.039  0.5333 -0.2468 -0.5251
  127MOL0     C17047   7.943   2.178   3.990  0.1418 -0.1172 -0.3811
  127MOL0     C17048   7.925   2.180   3.838  0.1927  0.7785 -0.0578
  127MOL0     C17049   7.793   2.249   3.789  0.1813  0.6385  1.2675
  127MOL0     C17050   7.808   2.375   3.702  0.5159 -0.1217  0.4268
  127MOL0     C17051   7.771   2.335   3.544 -0.1976 -0.3701  0.3156
  127MOL0     C17052   7.876   2.242   3.481 -0.8249 -0.5447  0.4762
  127MOL0     C17053   7.859   2.237   3.328 -0.4473 -0.4212  0.2577
  127MOL0     C17054   7.733   2.177   3.285 -0.4555  0.7857  0.1838
  127MOL0    Cl17055   7.727   2.000   3.304  0.1273 -0.0651  0.2000
  127MOL0     C17056   8.106   2.286   4.232 -0.3615 -0.9844  0.3025
  127MOL0     C17057   8.120   2.264   4.370  0.3439  0.5813 -0.0734
  127MOL0     O17058   7.967   2.042   4.584 -0.0564  0.2146  0.1003
  127MOL0     C17059   7.945   2.242   4.876  0.7050  0.3350 -0.4515
  127MOL0     C17060   7.931   2.229   5.018 -0.4264  0.1776  0.8915
  127MOL0     N17061   8.244   2.259   5.706 -0.4819  0.3782 -0.1881
  127MOL0     N17062   8.359   2.240   5.762  0.4619  0.3697  0.3172
  127MOL0     C17063   8.741   1.030   6.037 -0.5650 -0.4519 -0.2095
  127MOL0     C17064   8.736   0.898   6.081 -0.3156 -1.0485  0.1193
  127MOL0     C17065   8.769   0.572   6.384 -1.0130 -0.2221 -0.6990
  127MOL0     C17066   8.838   0.463   6.333 -0.0048  0.2102  0.2056
  127MOL0     C17067   8.847   0.334   6.396 -0.1041 -0.3791 -0.1519
  127MOL0     C17068   8.782   0.320   6.516 -0.1941  0.1810 -0.3494
  127MOL0     O17069   8.801   0.197   6.575 -0.2197 -0.2127  0.1535
  127MOL0     C17070   8.825   0.201   6.720  0.5184  0.1736  0.2481
  127MOL0     C17071   8.906   0.076   6.765  0.3910  0.3400  0.1671
  127MOL0     C17072   8.880   0.029   6.906 -0.1943  0.3947 -0.8518
  127MOL0     C17073   8.945   0.133   7.009  0.1243  0.3634 -0.2599
  127MOL0     C17074   8.895   0.111   7.148 -0.5298 -0.3426  0.2538
  127MOL0     C17075   8.852   0.092   7.258  0.0615  0.0931 -0.1943
  127MOL0     C17076   8.692   0.419   6.561  0.5393 -1.1033  0.3158
  127MOL0     C17077   8.692   0.540   6.497 -0.1562 -0.1851  0.2598
  127MOL0     H17078   8.997   0.926   6.292  2.4720 -2.7577 -3.7462
  127MOL0     H17079   8.969   1.165   6.243  3.0398 -2.0137 -0.6695
  127MOL0     H17080   8.752   1.386   6.184 -0.2321 -0.0929 -0.8869
  127MOL0     H17081   8.925   1.393   6.156 -1.5007  1.5949 -0.0043
  127MOL0     H17082   8.889   1.487   5.963 -3.2749 -2.3663 -4.3492
  127MOL0     H17083   8.713   1.486   5.953 -0.3245  2.7489  0.0260
  127MOL0     H17084   8.667   1.626   6.149 -0.7462  2.1793  1.8953
  127MOL0     H17085   8.835   1.625   6.199  1.8647  0.6370 -1.8120
  127MOL0     H17086   8.842   1.822   6.090  1.3526 -0.8019  0.6102
  127MOL0     H17087   8.881   1.732   5.942 -0.5693  1.2588  0.0107
  127MOL0     H17088   8.643   1.711   5.893  1.0491 -0.3495 -1.0292
  127MOL0     H17089   8.593   1.789   6.033 -0.1647 -0.9725  0.2182
  127MOL0     H17090   8.728   2.011   5.929 -1.1860  3.3519 -2.9259
  127MOL0     H17091   8.784   1.897   5.805  2.7850  1.0189  2.1314
  127MOL0     H17092   8.630   2.025   5.697  0.0394  0.1162 -0.5466
  127MOL0     H17093   8.533   1.884   5.733 -0.1103  0.6607 -1.2780
  127MOL0     H17094   8.548   2.113   5.926  2.6058 -0.9578 -0.1508
  127MOL0     H17095   8.434   1.979   5.931 -1.4945  0.1497 -1.6398
  127MOL0     H17096   8.247   1.934   5.723 -1.7498 -0.0260 -2.3832
  127MOL0     H17097   8.025   1.999   5.680  0.5047 -2.1880 -3.8732
  127MOL0     H17098   7.979   2.163   5.673 -1.7754 -1.7259 -1.1097
  127MOL0     H17099   8.133   2.026   5.450 -0.3198  1.2878 -0.4261
  127MOL0     H17100   8.074   2.183   5.441  2.3217 -1.4563 -1.1905
  127MOL0     H17101   7.834   2.104   5.468  1.3858  2.2910  0.8844
  127MOL0     H17102   7.887   1.947   5.505  3.2219 -0.4016  0.5752
  127MOL0     H17103   7.829   1.933   5.257  0.6318 -1.3243  1.5627
  127MOL0     H17104   8.000   1.927   5.265 -0.8379 -0.2833 -3.4776
  127MOL0     H17105   8.030   1.900   5.063  0.5918  1.5866  1.2178
  127MOL0     H17106   8.053   1.794   4.869 -4.3231  0.2857  1.7750
  127MOL0     H17107   7.964   1.852   4.733 -2.0173  2.2548  0.5539
  127MOL0     H17108   8.144   1.897   4.747 -0.3437 -2.1111 -1.6681
  127MOL0     H17109   7.803   2.313   4.469 -0.1341  1.6663 -1.7344
  127MOL0     H17110   7.772   2.333   4.228  1.0680  3.3367 -2.3027
  127MOL0     H17111   8.036   2.124   4.006 -1.0477 -2.9849 -2.1870
  127MOL0     H17112   7.856   2.129   4.035  0.6274 -1.9207 -1.3264
  127MOL0     H17113   8.011   2.229   3.791  0.0952  0.0543 -1.0136
  127MOL0     H17114   7.917   2.078   3.800 -2.2043 -0.0503  2.2966
  127MOL0     H17115   7.737   2.296   3.870 -1.0446 -0.6576  1.2119
  127MOL0     H17116   7.729   2.175   3.739 -2.7257  2.4403  2.0772
  127MOL0     H17117   7.742   2.455   3.737 -0.0123 -0.6321  0.6088
  127MOL0     H17118   7.911   2.410   3.714  1.3518 -2.3469  0.1612
  127MOL0     H17119   7.770   2.436   3.501 -2.3460 -0.3218  0.3541
  127MOL0     H17120   7.671   2.290   3.538 -0.4824  0.2362  0.3873
  127MOL0     H17121   7.975   2.276   3.512 -0.3201 -1.0950 -0.4697
  127MOL0     H17122   7.869   2.143   3.529 -1.5402 -0.2312  1.0339
  127MOL0     H17123   7.935   2.169   3.289  0.2549 -0.3918  1.5180
  127MOL0     H17124   7.874   2.338   3.288 -3.6958  0.8419  1.8964
  127MOL0     H17125   7.721   2.194   3.177 -0.3865  0.1340  0.0663
  127MOL0     H17126   7.646   2.221   3.334  0.3964  1.8515  0.7586
  127MOL0     H17127   8.188   2.281   4.161 -0.5921  2.4454 -0.4084
  127MOL0     H17128   8.221   2.263   4.409 -0.0028 -0.9257  0.8691
  127MOL0     H17129   7.937   2.341   4.833  1.2900  0.2289 -0.8236
  127MOL0     H17130   7.909   2.317   5.077  1.0008  0.3105  1.2432
  127MOL0     H17131   8.682   1.080   5.960  1.5761  0.6526 -1.2098
  127MOL0     H17132   8.683   0.814   6.037  2.3099 -1.8008 -1.8551
  127MOL0     H17133   8.891   0.474   6.240  2.7494 -3.0564  1.1846
  127MOL0     H17134   8.908   0.259   6.346 -0.5252  0.6078 -2.2386
  127MOL0     H17135   8.872   0.290   6.764  1.3902 -1.4462  2.8233
  127MOL0     H17136   8.726   0.193   6.764 -0.0704 -2.6254 -1.3662
  127MOL0     H17137   9.009   0.099   6.737 -0.2202 -0.7658 -3.4975
  127MOL0     H17138   8.882  -0.010   6.702  0.3028  1.0526 -0.8022
  127MOL0     H17139   8.921  -0.072   6.913  0.8480  0.8582 -0.0590
  127MOL0     H17140   8.772   0.017   6.920  0.2402 -4.5591  0.1568
  127MOL0     H17141   8.931   0.239   6.984 -0.8090  0.3203  0.0440
  127MOL0     H17142   9.050   0.104   6.998 -0.1218 -0.0597 -1.6201
  127MOL0     H17143   8.810   0.084   7.356  1.6633 -2.3331  0.3554
  127MOL0     H17144   8.632   0.413   6.651 -1.0612  1.7310 -0.4542
  127MOL0     H17145   8.613   0.600   6.540 -1.3487  0.3422 -2.4700
  128MOL0     O17146   2.314   5.170   5.965  0.0195  0.4910  0.6257
  128MOL0     C17147   2.421   5.230   5.959  1.1538 -0.0784  1.0527
  128MOL0     O17148   2.538   5.177   5.990 -0.0702 -0.3451  0.5060
  128MOL0     C17149   2.565   5.041   6.015 -0.0511 -0.2588 -0.1186
  128MOL0     C17150   2.632   4.967   5.915 -0.2517 -0.1203  0.8518
  128MOL0     C17151   2.652   4.830   5.939  0.2738  0.7171  0.3026
  128MOL0     C17152   2.605   4.767   6.048 -0.9445  0.4504  0.0506
  128MOL0     O17153   2.625   4.632   6.062 -0.1354  0.0801 -0.0633
  128MOL0     C17154   2.749   4.569   6.038  0.4864 -0.7506 -0.7651
  128MOL0     C17155   2.761   4.436   6.110  0.4769 -0.4929  0.6977
  128MOL0     C17156   2.869   4.343   6.050 -0.7204  0.7144  0.0183
  128MOL0     C17157   2.821   4.277   5.910 -0.3247 -0.7215 -0.3322
  128MOL0     C17158   2.931   4.227   5.832 -0.0922 -0.6599  0.3621
  128MOL0     C17159   2.882   4.176   5.700 -0.4623  0.1053  0.1070
  128MOL0     C17160   2.919   4.267   5.583 -0.1798  0.6199 -0.0939
  128MOL0     C17161   3.075   4.266   5.543 -0.0368  0.6524  0.2012
  128MOL0     N17162   3.095   4.373   5.442 -0.2111 -0.9835  0.4968
  128MOL0     C17163   3.005   4.456   5.377 -0.0711  0.0563  0.6115
  128MOL0     C17164   3.078   4.525   5.286  0.6073 -0.4858 -0.5947
  128MOL0     C17165   3.019   4.596   5.176  0.6764 -0.6536  0.5491
  128MOL0     C17166   2.960   4.489   5.080 -0.3796  1.2672 -0.1510
  128MOL0     C17167   2.908   4.549   4.952  0.6998 -0.6703  0.1025
  128MOL0     C17168   2.829   4.455   4.863 -0.1214  0.1813 -0.4947
  128MOL0     O17169   2.896   4.328   4.847  0.1171 -0.0584  0.8031
  128MOL0     C17170   2.850   4.235   4.757  0.5865  0.2475 -0.1310
  128MOL0     C17171   2.911   4.105   4.768  0.0171  1.1059  0.4365
  128MOL0     C17172   2.887   4.006   4.676 -0.2381  0.1035 -0.5357
  128MOL0     C17173   2.959   3.870   4.691 -0.2380  0.7053  0.6314
  128MOL0     C17174   2.793   4.041   4.568 -0.2625 -0.5495  0.0770
  128MOL0     C17175   2.752   3.932   4.470  0.3297 -0.0440  0.5253
  128MOL0     O17176   2.752   3.799   4.509 -0.3541 -0.7572  0.1857
  128MOL0     C17177   2.736   3.702   4.419 -0.1677 -0.0383  0.3447
  128MOL0     C17178   2.637   3.705   4.326  0.6672  1.1502  0.1844
  128MOL0     C17179   2.613   3.590   4.241 -0.4402 -0.3876  0.7635
  128MOL0     C17180   2.704   3.487   4.241  0.9136 -0.4274 -0.0941
  128MOL0     O17181   2.681   3.368   4.172  1.0853  0.1499 -0.0008
  128MOL0     C17182   2.742   3.386   4.037  0.8858 -0.6025 -0.0661
  128MOL0     C17183   2.645   3.444   3.930  0.0420  0.3707  0.0589
  128MOL0     C17184   2.685   3.400   3.796 -0.3054 -0.7652 -0.4060
  128MOL0     C17185   2.611   3.467   3.675  0.0905 -0.3142  0.4632
  128MOL0     C17186   2.661   3.401   3.544  0.3082  0.3106 -0.4769
  128MOL0     C17187   2.579   3.459   3.425  0.4120  0.0503  0.6272
  128MOL0     C17188   2.629   3.381   3.296  0.7761  0.4618  0.3052
  128MOL0     C17189   2.704   3.471   3.199 -0.7135  0.0833  1.0703
  128MOL0    Cl17190   2.872   3.484   3.269  0.6059  0.0527  0.0052
  128MOL0     C17191   2.799   3.481   4.342 -0.4976  0.1028  0.1753
  128MOL0     C17192   2.808   3.579   4.434  0.2237  0.3926  0.0667
  128MOL0     O17193   2.715   3.970   4.366  0.5999 -0.0023  0.2313
  128MOL0     C17194   2.740   4.162   4.553 -0.6421 -0.1495  0.1605
  128MOL0     C17195   2.751   4.259   4.654  0.4696 -0.1840 -0.2088
  128MOL0     N17196   3.215   4.502   5.313  0.0522 -0.1581 -0.3469
  128MOL0     N17197   3.220   4.414   5.411  0.4399  0.0370 -0.4744
  128MOL0     C17198   2.548   4.836   6.153  0.9179 -0.0464  0.2264
  128MOL0     C17199   2.530   4.976   6.138  0.1667  0.0175  0.2258
  128MOL0     C17200   2.415   5.383   5.945  0.7477  0.7249  0.4725
  128MOL0     C17201   2.291   5.450   5.934 -0.4271  0.1482  0.3360
  128MOL0     C17202   2.300   5.592   5.902  0.1920  1.1615  0.2793
  128MOL0     C17203   2.424   5.658   5.904 -0.1929 -1.2034  0.1442
  128MOL0     O17204   2.435   5.788   5.869  0.7147 -0.0337  0.1784
  128MOL0     C17205   2.349   5.841   5.763 -0.0277 -0.3614  0.4667
  128MOL0     C17206   2.423   5.959   5.703 -0.7926  0.1777 -0.1678
  128MOL0     C17207   2.536   5.905   5.620 -0.8123  0.7144  0.4365
  128MOL0     C17208   2.542   5.953   5.475  0.2670 -0.3279  0.8857
  128MOL0     C17209   2.682   5.944   5.419 -0.5973 -0.2893 -0.1433
  128MOL0     C17210   2.799   5.959   5.377  0.4278 -0.2788 -0.1270
  128MOL0     C17211   2.541   5.584   5.919  0.7491 -0.4230  1.0930
  128MOL0     C17212   2.531   5.451   5.935 -0.6603 -0.1223 -0.1126
  128MOL0     H17213   2.663   5.015   5.823 -1.1695 -0.4243  0.3827
  128MOL0     H17214   2.687   4.771   5.855 -3.3860 -2.6395  0.8546
  128MOL0     H17215   2.779   4.553   5.934  0.9878 -0.5007 -0.6620
  128MOL0     H17216   2.831   4.637   6.064 -0.2993  0.5432 -1.5567
  128MOL0     H17217   2.800   4.449   6.212  1.5160 -5.1975  1.1677
  128MOL0     H17218   2.665   4.384   6.113  0.1884  0.0649  1.3618
  128MOL0     H17219   2.965   4.393   6.034 -0.1971 -0.7051 -1.7496
  128MOL0     H17220   2.879   4.263   6.123  1.6597  1.1306  0.2129
  128MOL0     H17221   2.754   4.194   5.933 -0.2916 -0.1923  1.8858
  128MOL0     H17222   2.766   4.348   5.848  2.2013  1.5098 -0.2383
  128MOL0     H17223   3.013   4.298   5.824 -0.3598 -0.5502 -2.2323
  128MOL0     H17224   2.977   4.141   5.881  2.1514  0.2844  0.0302
  128MOL0     H17225   2.909   4.071   5.691 -0.0930  0.0902  1.1343
  128MOL0     H17226   2.775   4.159   5.694  0.0009 -3.2328 -0.3466
  128MOL0     H17227   2.862   4.221   5.501 -1.9953 -2.2033  2.5171
  128MOL0     H17228   2.885   4.371   5.592 -0.5311  0.5987 -1.0015
  128MOL0     H17229   3.094   4.169   5.496  0.7099  0.7915  0.2119
  128MOL0     H17230   3.149   4.273   5.623  1.1334 -1.8367 -0.5484
  128MOL0     H17231   2.897   4.448   5.369  0.1529 -2.2258 -1.0987
  128MOL0     H17232   2.938   4.656   5.216 -2.2128 -2.7145 -1.7978
  128MOL0     H17233   3.076   4.672   5.121  0.1166 -1.3645 -1.0829
  128MOL0     H17234   2.872   4.443   5.126  0.0155  1.7742  1.1534
  128MOL0     H17235   3.040   4.417   5.062 -0.2803  0.6631  2.2958
  128MOL0     H17236   2.989   4.595   4.894  0.6561  0.4730  0.9192
  128MOL0     H17237   2.839   4.632   4.972 -0.0733 -1.1695 -0.4029
  128MOL0     H17238   2.814   4.505   4.767 -0.9412  1.2483  0.1592
  128MOL0     H17239   2.732   4.439   4.911 -0.9592 -0.3095 -2.2671
  128MOL0     H17240   2.975   4.073   4.849  0.5626  0.5034 -0.2179
  128MOL0     H17241   2.997   3.833   4.595 -1.8010  0.0683  0.2270
  128MOL0     H17242   3.024   3.866   4.779 -1.4400 -1.3972  1.5139
  128MOL0     H17243   2.891   3.794   4.730 -1.4928  3.5798  4.7946
  128MOL0     H17244   2.581   3.795   4.307  1.2772  2.2493  2.9714
  128MOL0     H17245   2.538   3.589   4.164  1.6886  0.8931 -1.4629
  128MOL0     H17246   2.832   3.448   4.036  2.4214 -2.5866 -3.1817
  128MOL0     H17247   2.779   3.287   4.008 -2.5210 -2.0258 -0.0938
  128MOL0     H17248   2.544   3.408   3.953  0.5856 -2.8119 -1.8482
  128MOL0     H17249   2.648   3.553   3.936  0.9655  0.4094 -0.7379
  128MOL0     H17250   2.670   3.293   3.782 -1.4748 -0.5043 -1.4158
  128MOL0     H17251   2.793   3.414   3.798 -0.3237  0.7061  5.2776
  128MOL0     H17252   2.503   3.450   3.683  0.1056 -0.9607 -0.5908
  128MOL0     H17253   2.635   3.573   3.680  0.5337 -0.4453  1.3768
  128MOL0     H17254   2.630   3.297   3.558 -0.0455  0.2694 -1.4852
  128MOL0     H17255   2.769   3.409   3.535  0.5192  1.3436  2.1411
  128MOL0     H17256   2.471   3.444   3.434  0.1345  1.4965 -0.0262
  128MOL0     H17257   2.592   3.568   3.423 -0.1612  0.1173 -0.2160
  128MOL0     H17258   2.534   3.365   3.244  0.6899 -0.3363  0.6966
  128MOL0     H17259   2.675   3.286   3.323  0.6104  0.0055 -0.9451
  128MOL0     H17260   2.669   3.575   3.201  0.7869  0.8340 -2.5730
  128MOL0     H17261   2.712   3.421   3.102  0.4691 -0.4499  1.4345
  128MOL0     H17262   2.858   3.391   4.358 -0.1743  0.6086  2.1167
  128MOL0     H17263   2.875   3.564   4.518 -0.5917  0.9853  0.8402
  128MOL0     H17264   2.675   4.193   4.472  2.8282 -0.9778 -3.2309
  128MOL0     H17265   2.696   4.353   4.656 -0.7616 -0.8336  3.0591
  128MOL0     H17266   2.518   4.777   6.239  0.5905 -2.2814 -1.3459
  128MOL0     H17267   2.492   5.029   6.224 -0.6473 -1.2831  0.6925
  128MOL0     H17268   2.198   5.394   5.930 -0.1300 -0.2771 -1.5066
  128MOL0     H17269   2.200   5.630   5.882 -0.3532 -0.6481 -0.7102
  128MOL0     H17270   2.323   5.767   5.686 -0.0907 -1.1263  1.2094
  128MOL0     H17271   2.254   5.877   5.803  0.6323 -1.7620  3.5678
  128MOL0     H17272   2.458   6.031   5.778 -2.8237  2.4803 -1.2928
  128MOL0     H17273   2.351   6.008   5.637 -1.2379  0.9125  0.8390
  128MOL0     H17274   2.551   5.797   5.626 -2.5607  0.4474  0.5406
  128MOL0     H17275   2.627   5.946   5.664 -1.1759  0.8354  1.0837
  128MOL0     H17276   2.506   6.056   5.467 -1.3169 -0.7809  1.6474
  128MOL0     H17277   2.474   5.891   5.415  2.3324 -2.0912  0.2597
  128MOL0     H17278   2.900   5.963   5.341  0.6175 -2.6507 -0.0080
  128MOL0     H17279   2.632   5.642   5.909 -0.2873  1.5050  2.1016
  128MOL0     H17280   2.627   5.404   5.952 -1.4161 -0.7333  3.1316
  129MOL0     O17281   9.837   7.756   4.078 -0.2742  0.4550  0.4141
  129MOL0     C17282   9.857   7.852   4.013  0.2946 -0.4575  1.4149
  129MOL0     O17283   9.864   7.860   3.873  0.2992  0.2569  0.0329
  129MOL0     C17284   9.872   7.741   3.805 -0.5588 -1.3854  0.2508
  129MOL0     C17285   9.973   7.647   3.833 -0.9682  0.3190 -0.4842
  129MOL0     C17286   9.983   7.535   3.759 -0.3386 -0.5292  0.2244
  129MOL0     C17287   9.903   7.506   3.650 -0.3386  0.6512  0.1700
  129MOL0     O17288   9.910   7.388   3.575 -0.1173 -0.7692  0.2311
  129MOL0     C17289   9.993   7.273   3.606  0.3419  0.1071  1.0662
  129MOL0     C17290   9.993   7.186   3.472 -0.4760  0.2796 -1.7489
  129MOL0     C17291   9.858   7.112   3.457 -0.6099 -0.2344 -0.5302
  129MOL0     C17292   9.879   6.997   3.359  0.2692 -0.3858 -0.0136
  129MOL0     C17293   9.770   6.894   3.379  1.3128 -0.2303  0.1961
  129MOL0     C17294   9.764   6.807   3.259  0.2599  0.3870 -0.6717
  129MOL0     C17295   9.654   6.707   3.270  0.0440  0.6499  0.2928
  129MOL0     C17296   9.668   6.596   3.375  0.4091 -0.4116  0.1798
  129MOL0     N17297   9.773   6.498   3.336  0.6075  0.4982  0.1202
  129MOL0     C17298   9.783   6.422   3.231 -0.7158  0.6345  0.2717
  129MOL0     C17299   9.901   6.362   3.230  0.5627 -0.1766  0.7083
  129MOL0     C17300   9.946   6.273   3.120  0.1056  0.6750  0.4234
  129MOL0     C17301  10.048   6.351   3.032  0.1364 -1.4532  0.0098
  129MOL0     C17302  10.117   6.249   2.932  0.3380  0.2323  0.0891
  129MOL0     C17303  10.179   6.328   2.816  0.1317 -0.5340  0.9091
  129MOL0     O17304  10.086   6.405   2.744 -1.2618 -0.3144  0.0115
  129MOL0     C17305  10.013   6.338   2.651  0.4332  0.7442 -0.0130
  129MOL0     C17306   9.917   6.409   2.592  0.1483 -0.5382  0.8967
  129MOL0     C17307   9.856   6.375   2.468 -0.2619  0.6502 -0.2653
  129MOL0     C17308   9.735   6.454   2.416 -0.4678  0.0436  0.2352
  129MOL0     C17309   9.896   6.255   2.407  0.3873 -0.2641  0.6582
  129MOL0     C17310   9.871   6.229   2.261 -0.3163 -0.3158  0.2248
  129MOL0     O17311   9.924   6.116   2.215  0.2623  0.3951  0.3700
  129MOL0     C17312   9.880   6.052   2.102  0.2028  0.0111  0.4670
  129MOL0     C17313   9.750   6.012   2.089  0.4921  0.1049  0.5562
  129MOL0     C17314   9.705   5.965   1.974 -0.7856  0.8695  2.0492
  129MOL0     C17315   9.782   5.954   1.857 -0.3847  0.0178  0.8536
  129MOL0     O17316   9.755   5.885   1.741 -0.2452  0.4916 -0.0481
  129MOL0     C17317   9.624   5.834   1.713  0.0296  0.6250  0.4216
  129MOL0     C17318   9.630   5.760   1.576  0.5037  0.1025  0.0603
  129MOL0     C17319   9.674   5.864   1.462 -0.4986 -0.1882  0.7365
  129MOL0     C17320   9.791   5.820   1.360  0.0358  0.7396 -0.3139
  129MOL0     C17321   9.797   5.892   1.231  0.3460  0.1927  0.4356
  129MOL0     C17322   9.889   6.019   1.244  0.3168 -0.2449 -0.2227
  129MOL0     C17323   9.904   6.111   1.125 -0.1939 -0.4609 -0.0198
  129MOL0     C17324   9.914   6.039   0.985 -0.3948 -0.1678 -1.7179
  129MOL0    Cl17325   9.750   5.984   0.934  0.0451 -0.3955  0.0649
  129MOL0     C17326   9.913   6.020   1.859 -0.0838  0.6331 -0.2374
  129MOL0     C17327   9.963   6.058   1.985  0.6844 -0.3559 -1.4299
  129MOL0     O17328   9.808   6.316   2.194  0.4236 -0.2348 -0.1468
  129MOL0     C17329   9.987   6.168   2.480  0.5740  0.0830  0.2759
  129MOL0     C17330  10.036   6.204   2.604  0.2988 -0.2533 -0.3179
  129MOL0     N17331   9.975   6.413   3.325  0.7434  0.5530  0.3299
  129MOL0     N17332   9.904   6.499   3.391  0.4369  1.4719 -1.0172
  129MOL0     C17333   9.806   7.602   3.616  0.6970  0.4899  0.8001
  129MOL0     C17334   9.802   7.728   3.684 -0.0784 -0.0173 -0.0934
  129MOL0     C17335   9.871   7.981   4.086  0.3932  0.3518  0.2150
  129MOL0     C17336   9.857   7.990   4.228  0.5554  0.1489 -0.2362
  129MOL0     C17337   9.879   8.107   4.298  0.6197  0.1169  0.1065
  129MOL0     C17338   9.900   8.223   4.222  0.0760 -0.1054 -0.8990
  129MOL0     O17339   9.932   8.332   4.293 -0.5836 -1.0601  0.7657
  129MOL0     C17340   9.969   8.346   4.430  0.2604  0.1420  1.1509
  129MOL0     C17341  10.025   8.489   4.465  0.7197  0.3046  0.0740
  129MOL0     C17342  10.063   8.483   4.614  0.0647 -0.9458  0.5578
  129MOL0     C17343  10.074   8.628   4.674 -0.7213  0.5874  0.2701
  129MOL0     C17344  10.139   8.623   4.804 -1.2219  0.0161 -0.6751
  129MOL0     C17345  10.182   8.621   4.918 -0.0900  0.0432  0.4929
  129MOL0     C17346   9.896   8.222   4.083 -0.4286 -0.5832  0.1773
  129MOL0     C17347   9.872   8.102   4.016 -1.1561 -0.5443  0.6194
  129MOL0     H17348  10.036   7.657   3.921 -2.4013  0.1293  0.6001
  129MOL0     H17349  10.055   7.460   3.789 -0.7197 -0.9014  0.2125
  129MOL0     H17350  10.096   7.290   3.638  0.9375 -1.3921  0.0470
  129MOL0     H17351   9.952   7.209   3.685  2.0882 -1.9695  0.3953
  129MOL0     H17352  10.019   7.231   3.376 -2.0419  1.7475 -1.5208
  129MOL0     H17353  10.078   7.118   3.490 -1.0828 -0.0037  0.2654
  129MOL0     H17354   9.823   7.064   3.548 -0.5756 -0.7942 -0.8088
  129MOL0     H17355   9.783   7.179   3.415 -1.5130  1.1722  2.9854
  129MOL0     H17356   9.874   7.038   3.257 -1.1810  0.5639  0.4030
  129MOL0     H17357   9.974   6.944   3.365  1.2294  0.9622 -1.9938
  129MOL0     H17358   9.791   6.837   3.470  1.6872  0.3522  0.4808
  129MOL0     H17359   9.680   6.953   3.396  2.7109  1.6676  1.4468
  129MOL0     H17360   9.748   6.867   3.169  1.7691  0.9620 -0.5826
  129MOL0     H17361   9.855   6.746   3.258  1.0454  1.5167 -1.2771
  129MOL0     H17362   9.557   6.755   3.289  1.3111  2.6594  2.2084
  129MOL0     H17363   9.657   6.652   3.175  0.9114  0.0363  0.6621
  129MOL0     H17364   9.573   6.542   3.375 -0.0143  0.3203  0.7807
  129MOL0     H17365   9.689   6.650   3.468 -0.9825  2.7881 -1.2189
  129MOL0     H17366   9.710   6.400   3.153  3.2322  0.0629 -3.6579
  129MOL0     H17367  10.004   6.203   3.180 -0.3431  1.7400  2.2159
  129MOL0     H17368   9.873   6.223   3.056  0.4164  1.7405 -0.8165
  129MOL0     H17369  10.114   6.420   3.085 -0.1123  0.2749 -1.8160
  129MOL0     H17370   9.989   6.431   2.986  0.3020  0.8586  3.4158
  129MOL0     H17371  10.041   6.180   2.893  2.9322 -2.8713  0.1179
  129MOL0     H17372  10.188   6.185   2.984  0.8063  1.5728  1.1549
  129MOL0     H17373  10.249   6.273   2.752  1.3327  3.0145 -1.1375
  129MOL0     H17374  10.248   6.398   2.864 -1.8191  2.5254 -0.4478
  129MOL0     H17375   9.890   6.507   2.630 -2.9000 -1.2612  0.8600
  129MOL0     H17376   9.749   6.498   2.317 -0.3141  1.1812  0.7508
  129MOL0     H17377   9.640   6.400   2.412 -0.4333 -0.0014  0.0325
  129MOL0     H17378   9.721   6.546   2.474 -0.9545  1.9928 -2.7415
  129MOL0     H17379   9.676   6.022   2.167 -0.5954  0.7524 -0.5127
  129MOL0     H17380   9.603   5.929   1.966 -0.4527  0.2903 -2.0056
  129MOL0     H17381   9.587   5.770   1.794  1.9189  1.4693  2.0464
  129MOL0     H17382   9.554   5.916   1.695  1.1002  1.0479 -2.4364
  129MOL0     H17383   9.702   5.679   1.589 -2.9535 -3.3327 -0.2816
  129MOL0     H17384   9.528   5.724   1.561  0.0493 -0.8488  4.1651
  129MOL0     H17385   9.686   5.966   1.499 -4.5024  0.8909 -0.4357
  129MOL0     H17386   9.588   5.870   1.395 -0.2506  3.0768  0.5420
  129MOL0     H17387   9.886   5.833   1.413 -0.3487 -1.4584  1.0091
  129MOL0     H17388   9.789   5.716   1.326 -1.5277  0.0911  1.6086
  129MOL0     H17389   9.695   5.911   1.198 -0.1298 -3.4454 -0.5912
  129MOL0     H17390   9.845   5.831   1.154  1.0571  0.5373  0.5958
  129MOL0     H17391   9.854   6.084   1.326 -1.7533 -3.1635  1.3813
  129MOL0     H17392   9.985   5.987   1.285  0.6734  0.7035 -0.2911
  129MOL0     H17393   9.999   6.163   1.141 -0.1135 -0.3825 -0.7080
  129MOL0     H17394   9.825   6.186   1.118 -1.9066 -2.2966 -1.6025
  129MOL0     H17395   9.998   5.972   1.007  0.2472  1.0132 -0.3900
  129MOL0     H17396   9.946   6.102   0.901 -1.0770 -2.4593 -3.8037
  129MOL0     H17397   9.981   6.019   1.775  0.5809 -1.9574  0.2625
  129MOL0     H17398  10.065   6.094   1.994  1.1745 -1.7006 -1.3907
  129MOL0     H17399  10.015   6.069   2.447  0.2881 -0.2737  1.0795
  129MOL0     H17400  10.120   6.154   2.649  0.3082  0.0305 -0.0217
  129MOL0     H17401   9.747   7.579   3.527  0.4738 -2.1985  1.5489
  129MOL0     H17402   9.736   7.813   3.671  3.6115  3.4238  1.5298
  129MOL0     H17403   9.843   7.898   4.284 -0.5644  1.5726  1.9293
  129MOL0     H17404   9.897   8.104   4.405  2.2356 -1.0349 -0.1664
  129MOL0     H17405   9.881   8.329   4.493  0.5968 -0.4903  1.4638
  129MOL0     H17406  10.046   8.273   4.455  0.1546 -0.1628  0.6059
  129MOL0     H17407   9.945   8.555   4.431  1.8319 -0.1777 -3.9853
  129MOL0     H17408  10.108   8.521   4.402 -2.3013  1.0270 -3.9698
  129MOL0     H17409  10.163   8.439   4.622  1.5962  2.3915  1.9017
  129MOL0     H17410  10.002   8.424   4.683  1.6212 -1.2178  1.7623
  129MOL0     H17411   9.968   8.654   4.680 -0.4893  1.4588  0.7543
  129MOL0     H17412  10.118   8.703   4.609 -1.4954 -0.0003 -0.9764
  129MOL0     H17413  10.228   8.618   5.015  1.1927  0.5353 -0.0643
  129MOL0     H17414   9.915   8.316   4.033 -2.4389  0.0092  0.4508
  129MOL0     H17415   9.878   8.126   3.910 -2.1773  0.0387  0.6740
  130MOL0     O17416   3.569   5.641   9.464 -0.0138 -0.1508  0.6877
  130MOL0     C17417   3.607   5.587   9.367  0.3367  0.3825  0.1031
  130MOL0     O17418   3.707   5.495   9.370  1.0466  0.4916 -0.2620
  130MOL0     C17419   3.762   5.441   9.484 -0.1670  0.7818 -0.2833
  130MOL0     C17420   3.872   5.361   9.456 -0.1938  0.3001 -0.9602
  130MOL0     C17421   3.935   5.286   9.558 -0.2467 -0.3352  0.0076
  130MOL0     C17422   3.894   5.298   9.694 -0.2636 -0.4744  0.2167
  130MOL0     O17423   3.959   5.215   9.789  0.4933  1.7721 -0.0518
  130MOL0     C17424   3.968   5.285   9.917  0.2816 -0.5153 -0.0891
  130MOL0     C17425   4.108   5.272   9.963  0.3646 -0.8701  0.0832
  130MOL0     C17426   4.129   5.352  10.090 -0.4458 -0.4566  0.0427
  130MOL0     C17427   4.274   5.407  10.099  0.3796  0.2171 -0.2251
  130MOL0     C17428   4.306   5.448  10.254 -0.0465 -0.6278 -0.0672
  130MOL0     C17429   4.367   5.331  10.332  0.2512  1.3897  0.5301
  130MOL0     C17430   4.491   5.373  10.424  1.0593  1.2298  0.1150
  130MOL0     C17431   4.571   5.250  10.476 -0.4753  0.4253  0.0884
  130MOL0     N17432   4.646   5.208  10.350  0.0351 -0.5047  0.4372
  130MOL0     C17433   4.759   5.271  10.290 -0.1819  0.3736  0.4424
  130MOL0     C17434   4.791   5.185  10.180 -0.0611  0.5609 -0.3544
  130MOL0     C17435   4.916   5.199  10.095  0.2334 -0.5605  0.4244
  130MOL0     C17436   5.031   5.128  10.144 -0.3882 -0.1728 -0.4984
  130MOL0     C17437   5.022   4.984  10.084  0.3271  0.4193 -0.7437
  130MOL0     C17438   5.126   4.892  10.148 -0.2147  0.3175 -0.0375
  130MOL0     O17439   5.138   4.905  10.290 -0.7759 -0.1526  0.6258
  130MOL0     C17440   5.040   4.838  10.347 -0.4906 -0.1314  0.0918
  130MOL0     C17441   5.067   4.703  10.365 -0.5559 -0.3661 -0.2510
  130MOL0     C17442   4.982   4.623  10.443 -0.1477 -0.5628  0.6032
  130MOL0     C17443   5.022   4.476  10.456  0.1624  0.3687  0.8214
  130MOL0     C17444   4.866   4.686  10.498 -0.4501  0.5798 -0.3319
  130MOL0     C17445   4.756   4.605  10.562 -0.1058 -0.5720  0.1461
  130MOL0     O17446   4.796   4.488  10.616 -0.2551  0.6062  0.4089
  130MOL0     C17447   4.698   4.430  10.695 -0.0995 -0.4305  1.0892
  130MOL0     C17448   4.676   4.460  10.832  1.0827  0.1823  0.0557
  130MOL0     C17449   4.594   4.382  10.907  0.7096 -0.5289  0.2583
  130MOL0     C17450   4.522   4.279  10.852 -0.4669  0.0282  0.5658
  130MOL0     O17451   4.465   4.193  10.938  0.1483  0.1009  0.4553
  130MOL0     C17452   4.354   4.242  11.016 -0.0259 -0.7399  0.2093
  130MOL0     C17453   4.256   4.125  11.038 -0.6723  0.4202 -0.1816
  130MOL0     C17454   4.314   4.000  11.094  0.4532 -1.1756 -0.3556
  130MOL0     C17455   4.208   3.889  11.109 -0.2654  0.5390 -0.2395
  130MOL0     C17456   4.289   3.767  11.175 -1.3709 -0.6122  0.3166
  130MOL0     C17457   4.211   3.640  11.217  0.4295  0.2092 -0.1668
  130MOL0     C17458   4.256   3.567  11.347  0.1177  0.0744 -0.7713
  130MOL0     C17459   4.409   3.549  11.364 -0.8451  0.4696  0.3847
  130MOL0    Cl17460   4.457   3.449  11.214  0.2029  0.4019 -0.3163
  130MOL0     C17461   4.530   4.262  10.711 -0.3677  0.1287 -0.8207
  130MOL0     C17462   4.614   4.333  10.631 -0.5157  0.1053  0.5729
  130MOL0     O17463   4.637   4.656  10.563 -0.3869  0.3930  0.3196
  130MOL0     C17464   4.843   4.828  10.472  0.2355 -0.2899 -0.7380
  130MOL0     C17465   4.933   4.905  10.402 -0.0717  0.0428  0.4555
  130MOL0     N17466   4.702   5.080  10.176 -0.1586 -1.1607  0.1283
  130MOL0     N17467   4.616   5.098  10.267  0.3132  0.0183 -0.2477
  130MOL0     C17468   3.778   5.378   9.714 -0.3242 -0.5649 -0.6007
  130MOL0     C17469   3.702   5.441   9.611 -0.0267  0.3651  0.6802
  130MOL0     C17470   3.554   5.612   9.233  0.0866 -0.3979  0.0430
  130MOL0     C17471   3.442   5.684   9.216  1.1057  0.3089  0.6514
  130MOL0     C17472   3.387   5.706   9.087 -0.8665  0.5268 -0.2043
  130MOL0     C17473   3.453   5.660   8.972 -1.0270  0.9475 -0.6803
  130MOL0     O17474   3.400   5.692   8.850  0.2774  0.4447 -0.3951
  130MOL0     C17475   3.446   5.635   8.725  0.0062  0.1619  0.2559
  130MOL0     C17476   3.333   5.651   8.613 -0.0766 -1.1162 -0.3056
  130MOL0     C17477   3.374   5.580   8.484 -0.1694 -0.7445  0.9634
  130MOL0     C17478   3.502   5.647   8.423  0.4142 -0.1396  0.4504
  130MOL0     C17479   3.507   5.629   8.276 -0.4597  0.8526 -0.1586
  130MOL0     C17480   3.518   5.606   8.158 -0.8422  0.1211 -0.0854
  130MOL0     C17481   3.572   5.588   8.997 -0.4990 -0.3885  0.8428
  130MOL0     C17482   3.631   5.574   9.118 -0.1485 -0.5926  0.3843
  130MOL0     H17483   3.906   5.360   9.353  3.8106  2.1855  0.1216
  130MOL0     H17484   4.018   5.217   9.547  1.9354  0.6989  5.9805
  130MOL0     H17485   3.946   5.392   9.910  2.7365  0.0713  0.3085
  130MOL0     H17486   3.889   5.250   9.985  0.3260  0.4595  0.4874
  130MOL0     H17487   4.139   5.168   9.979  0.8644 -0.9343 -1.2338
  130MOL0     H17488   4.168   5.328   9.892 -2.0872 -0.7064 -2.0196
  130MOL0     H17489   4.063   5.439  10.092  0.4568  0.2639 -0.3749
  130MOL0     H17490   4.106   5.292  10.178 -0.3612 -2.0081 -0.9640
  130MOL0     H17491   4.350   5.343  10.055 -0.3780 -0.7336 -0.1919
  130MOL0     H17492   4.273   5.494  10.034 -0.1196 -1.5534 -2.7398
  130MOL0     H17493   4.372   5.534  10.263  0.3432 -0.9256 -0.0535
  130MOL0     H17494   4.216   5.480  10.307  0.2316  0.5537 -0.2868
  130MOL0     H17495   4.283   5.279  10.378 -2.8059  4.1683 -1.5146
  130MOL0     H17496   4.402   5.251  10.266  1.3541  0.4654  2.1644
  130MOL0     H17497   4.551   5.445  10.368  1.5316 -0.1947 -1.2912
  130MOL0     H17498   4.449   5.432  10.506 -0.4783  3.3835 -2.0669
  130MOL0     H17499   4.503   5.176  10.517  1.4537 -1.4684  0.0629
  130MOL0     H17500   4.636   5.281  10.559  0.4208  1.9210 -1.1044
  130MOL0     H17501   4.824   5.350  10.326  0.9668 -0.5076  0.3600
  130MOL0     H17502   4.899   5.167   9.992  0.7067  2.1661 -0.6086
  130MOL0     H17503   4.935   5.306  10.080 -0.6645 -0.6383 -1.5273
  130MOL0     H17504   5.031   5.127  10.254 -0.0829 -0.8593 -0.4977
  130MOL0     H17505   5.127   5.164  10.104 -0.1476 -0.5524 -0.2741
  130MOL0     H17506   5.024   4.978   9.975 -3.6255  0.2772 -0.9607
  130MOL0     H17507   4.928   4.940  10.119 -0.4392  0.8017 -2.2344
  130MOL0     H17508   5.227   4.910  10.110  0.6604 -3.4619  0.1165
  130MOL0     H17509   5.099   4.791  10.117 -2.0292  0.8042 -0.1114
  130MOL0     H17510   5.162   4.674  10.320 -0.9106 -0.2387 -1.0778
  130MOL0     H17511   5.019   4.433  10.556  2.1698  0.2592  0.8595
  130MOL0     H17512   4.949   4.434  10.385 -0.9833  0.9523  1.6138
  130MOL0     H17513   5.120   4.448  10.418 -1.1718 -0.5999 -2.2572
  130MOL0     H17514   4.745   4.535  10.868  2.5392 -1.9688  1.9889
  130MOL0     H17515   4.599   4.382  11.016 -0.8674 -0.4180  0.3530
  130MOL0     H17516   4.394   4.297  11.102 -0.0334 -1.5905  0.7696
  130MOL0     H17517   4.299   4.323  10.967  0.8928 -2.3221 -3.8083
  130MOL0     H17518   4.166   4.141  11.098 -0.9702  1.7879 -0.9344
  130MOL0     H17519   4.233   4.096  10.935 -1.3813  0.3701 -0.0143
  130MOL0     H17520   4.370   4.033  11.182  1.7404  0.5132 -1.7532
  130MOL0     H17521   4.385   3.962  11.021  1.1533 -0.3127 -0.1397
  130MOL0     H17522   4.126   3.911  11.178  0.1528 -1.2034  0.8891
  130MOL0     H17523   4.165   3.863  11.012 -2.5583  1.0349  0.5974
  130MOL0     H17524   4.326   3.807  11.269  1.9470  1.7910 -1.7900
  130MOL0     H17525   4.376   3.742  11.113  0.0960  1.2718  1.5334
  130MOL0     H17526   4.106   3.669  11.229  0.9310  2.3517 -0.4817
  130MOL0     H17527   4.218   3.574  11.131  2.0016 -0.6959  0.6172
  130MOL0     H17528   4.219   3.466  11.365  2.5349 -0.4122  2.3458
  130MOL0     H17529   4.217   3.623  11.433 -1.4928 -0.6927 -0.9712
  130MOL0     H17530   4.443   3.485  11.446  2.0796 -0.0499 -1.1098
  130MOL0     H17531   4.453   3.649  11.369  3.2660 -1.0364 -0.9538
  130MOL0     H17532   4.467   4.183  10.671  1.9043 -0.9680 -2.5090
  130MOL0     H17533   4.625   4.307  10.526 -1.1936  1.4965  0.1250
  130MOL0     H17534   4.746   4.864  10.504 -1.0881 -4.1889  0.0914
  130MOL0     H17535   4.912   5.011  10.400 -0.2662  0.0619  2.0191
  130MOL0     H17536   3.738   5.375   9.815  3.4486 -2.2088  1.0245
  130MOL0     H17537   3.610   5.486   9.645 -0.0907  3.0474 -2.5288
  130MOL0     H17538   3.381   5.708   9.303 -0.1278  1.4482 -0.4761
  130MOL0     H17539   3.301   5.773   9.092 -0.3926  1.1803 -0.7078
  130MOL0     H17540   3.535   5.694   8.700  0.3930 -0.6675 -0.3850
  130MOL0     H17541   3.474   5.529   8.722 -0.1104  0.1517 -1.5200
  130MOL0     H17542   3.308   5.758   8.610 -1.4601 -1.3522  1.2860
  130MOL0     H17543   3.250   5.598   8.661 -1.4760  0.3631 -0.9915
  130MOL0     H17544   3.290   5.585   8.414 -0.0971 -0.0287  0.9241
  130MOL0     H17545   3.389   5.473   8.503 -1.9476 -0.9013  1.7257
  130MOL0     H17546   3.596   5.597   8.453 -0.4584 -2.5491 -0.5537
  130MOL0     H17547   3.503   5.755   8.438  3.1517  0.0551 -0.5354
  130MOL0     H17548   3.529   5.608   8.051 -1.2979 -4.3905 -0.4212
  130MOL0     H17549   3.631   5.556   8.912  0.7486 -0.3049  1.6602
  130MOL0     H17550   3.726   5.524   9.137  0.7054  0.5661 -0.6840
  131MOL0     O17551   8.947   3.673  11.067 -0.4045 -0.0742  0.2753
  131MOL0     C17552   8.902   3.718  11.173  0.0988  0.2177 -0.3405
  131MOL0     O17553   8.972   3.736  11.291 -0.2390 -0.2854 -0.0313
  131MOL0     C17554   9.106   3.750  11.303 -1.0050 -0.0767  0.4628
  131MOL0     C17555   9.170   3.744  11.428 -0.1292 -0.4609 -0.1674
  131MOL0     C17556   9.305   3.776  11.439 -0.1434 -0.7808 -1.0993
  131MOL0     C17557   9.385   3.816  11.335 -0.8794 -0.1506  0.2249
  131MOL0     O17558   9.517   3.843  11.357 -0.3895 -0.1730 -0.5062
  131MOL0     C17559   9.579   3.950  11.285 -0.5424  0.5417  0.3673
  131MOL0     C17560   9.729   3.941  11.289 -0.2362 -0.5788 -0.0482
  131MOL0     C17561   9.773   3.983  11.432  0.6611  0.2522  0.1702
  131MOL0     C17562   9.824   4.127  11.433  0.5342 -0.7555  0.0277
  131MOL0     C17563   9.881   4.180  11.569 -0.1742 -1.1045 -0.1283
  131MOL0     C17564   9.772   4.210  11.673  0.2265 -0.4869 -0.4716
  131MOL0     C17565   9.834   4.257  11.812  0.1035 -0.7160  0.6258
  131MOL0     C17566   9.932   4.367  11.796 -0.1232  0.0112  0.7953
  131MOL0     N17567   9.988   4.418  11.922  0.7720 -0.0111  0.4760
  131MOL0     C17568  10.099   4.377  11.995 -0.1096  0.4255  0.5991
  131MOL0     C17569  10.089   4.445  12.114 -0.0067  0.2199 -0.6197
  131MOL0     C17570  10.174   4.404  12.236  0.2568 -0.4369 -0.8540
  131MOL0     C17571  10.307   4.478  12.239  0.4144 -0.4053 -0.0467
  131MOL0     C17572  10.284   4.629  12.266 -0.0430 -0.0833 -0.5802
  131MOL0     C17573  10.409   4.710  12.254  0.5015 -0.2576  0.2255
  131MOL0     O17574  10.517   4.660  12.338  0.2216 -0.0674  0.8323
  131MOL0     C17575  10.638   4.702  12.304 -0.7392  0.1951 -1.0974
  131MOL0     C17576  10.675   4.832  12.253 -0.6409  0.4475 -0.2193
  131MOL0     C17577  10.802   4.864  12.202  0.2726  0.1034  0.6691
  131MOL0     C17578  10.826   5.005  12.147 -0.4998  0.7380 -0.7071
  131MOL0     C17579  10.912   4.769  12.237  0.2672 -0.0488 -0.2520
  131MOL0     C17580  11.056   4.780  12.198  0.9758  0.2021 -0.1895
  131MOL0     O17581  11.132   4.673  12.217 -0.3211  0.5342  0.2855
  131MOL0     C17582  11.248   4.675  12.136 -0.0060 -0.7662 -0.0858
  131MOL0     C17583  11.371   4.718  12.190  0.4067 -0.2951 -0.3691
  131MOL0     C17584  11.481   4.730  12.109  0.1111  0.0869  0.1201
  131MOL0     C17585  11.478   4.692  11.974 -0.6433  0.8552 -0.0934
  131MOL0     O17586  11.600   4.671  11.899 -0.0733  0.1055  0.5593
  131MOL0     C17587  11.612   4.779  11.806 -0.0061 -0.8891 -1.0842
  131MOL0     C17588  11.691   4.899  11.880  0.4019 -0.2547  0.1615
  131MOL0     C17589  11.735   5.006  11.781 -0.4245  0.1705  0.0450
  131MOL0     C17590  11.823   5.110  11.860  0.0185 -0.1505 -0.1344
  131MOL0     C17591  11.881   5.223  11.776 -0.3743  0.2173 -0.2325
  131MOL0     C17592  11.900   5.355  11.847 -0.6831  0.1538 -0.0025
  131MOL0     C17593  11.973   5.453  11.758 -0.5118  0.9753 -0.2054
  131MOL0     C17594  12.002   5.574  11.827  0.8852 -0.1846 -0.6450
  131MOL0    Cl17595  12.124   5.679  11.751 -0.9419  0.3988 -0.3041
  131MOL0     C17596  11.354   4.646  11.923  0.4123 -0.0232  0.1052
  131MOL0     C17597  11.238   4.641  11.998  0.2781  0.6246 -0.0141
  131MOL0     O17598  11.093   4.885  12.145 -0.1327 -0.0966  0.0415
  131MOL0     C17599  10.872   4.646  12.296  0.1216  1.2454 -0.6704
  131MOL0     C17600  10.739   4.608  12.332 -0.0655  0.6006 -0.2518
  131MOL0     N17601   9.975   4.514  12.118  0.0509 -0.2005  0.8402
  131MOL0     N17602   9.917   4.506  12.005 -0.9899  1.0070 -0.4696
  131MOL0     C17603   9.332   3.812  11.208  0.6778 -0.0090 -0.1133
  131MOL0     C17604   9.192   3.790  11.192  0.4013  0.8048  0.8144
  131MOL0     C17605   8.756   3.759  11.174  0.1294 -0.2444 -1.1125
  131MOL0     C17606   8.737   3.860  11.276 -0.0831  1.2057 -0.0517
  131MOL0     C17607   8.601   3.896  11.303  0.1771  0.1859  0.0705
  131MOL0     C17608   8.488   3.845  11.230 -0.2108  0.3275 -0.3924
  131MOL0     O17609   8.354   3.874  11.248 -0.1899  0.4373  0.4862
  131MOL0     C17610   8.319   3.867  11.387 -0.0471 -0.2779  0.6583
  131MOL0     C17611   8.165   3.878  11.409 -0.4260  1.0691  0.0122
  131MOL0     C17612   8.097   3.998  11.342  0.1861 -0.7488 -0.5559
  131MOL0     C17613   7.949   4.015  11.364 -0.1641 -0.2749 -0.1083
  131MOL0     C17614   7.901   4.148  11.332 -0.3439 -0.2307 -0.3253
  131MOL0     C17615   7.845   4.244  11.287  0.2860  0.9197 -0.0382
  131MOL0     C17616   8.512   3.756  11.129  0.1845 -0.2125  0.4584
  131MOL0     C17617   8.645   3.712  11.095  0.9301 -0.0938  0.1653
  131MOL0     H17618   9.107   3.698  11.504 -3.5816  1.2553 -1.7337
  131MOL0     H17619   9.348   3.744  11.534  0.0004 -0.8701 -1.1929
  131MOL0     H17620   9.551   3.935  11.181 -1.3745 -3.4134  1.0279
  131MOL0     H17621   9.551   4.044  11.335  2.5865  1.5836  0.4192
  131MOL0     H17622   9.758   3.836  11.274 -0.9142 -1.2861  2.7972
  131MOL0     H17623   9.786   4.003  11.220  1.4080  1.1284  2.6802
  131MOL0     H17624   9.691   3.970  11.503  0.6105  1.4902  0.3701
  131MOL0     H17625   9.865   3.930  11.459 -1.1806 -1.3379  4.0575
  131MOL0     H17626   9.910   4.141  11.367  0.1776  0.1369 -0.2564
  131MOL0     H17627   9.749   4.195  11.392  2.0703  2.4095  2.0298
  131MOL0     H17628   9.951   4.108  11.613 -0.0433 -0.4118  0.8282
  131MOL0     H17629   9.927   4.278  11.550 -1.0573 -0.3012  1.6577
  131MOL0     H17630   9.700   4.282  11.633  0.6646  0.5754  0.5615
  131MOL0     H17631   9.730   4.112  11.698 -0.7629  0.6789  3.0566
  131MOL0     H17632   9.758   4.284  11.886  0.7195  1.6313  0.4687
  131MOL0     H17633   9.903   4.183  11.853  3.3995  2.4121  1.2402
  131MOL0     H17634   9.864   4.442  11.754 -1.2885 -2.9118 -3.2435
  131MOL0     H17635  10.010   4.338  11.725 -0.9682 -2.4136  0.7657
  131MOL0     H17636  10.176   4.304  11.971  0.8751  1.9133 -0.9704
  131MOL0     H17637  10.125   4.420  12.333 -0.1353 -0.7201 -1.0051
  131MOL0     H17638  10.180   4.295  12.227  1.4114 -0.5026  0.2602
  131MOL0     H17639  10.362   4.463  12.146  2.0707 -0.3589  0.8837
  131MOL0     H17640  10.370   4.432  12.316  0.6854  0.5392  0.3062
  131MOL0     H17641  10.247   4.654  12.366 -1.9048 -0.0022 -1.2517
  131MOL0     H17642  10.204   4.679  12.211 -2.8624 -1.3924  2.0506
  131MOL0     H17643  10.388   4.817  12.267 -2.9627 -0.6960 -0.7750
  131MOL0     H17644  10.433   4.716  12.147  1.3914 -1.9637  0.2977
  131MOL0     H17645  10.595   4.906  12.246 -0.7933  0.8237  3.5595
  131MOL0     H17646  10.730   5.057  12.146 -1.4636 -0.8243  1.6284
  131MOL0     H17647  10.893   5.035  12.229  0.8598  1.3524 -1.9969
  131MOL0     H17648  10.875   5.003  12.050 -0.4053  0.5108 -0.6562
  131MOL0     H17649  11.373   4.747  12.295  1.2224  1.7587 -0.8891
  131MOL0     H17650  11.578   4.753  12.154 -0.7746 -0.2147  2.3243
  131MOL0     H17651  11.674   4.748  11.722  2.0320 -1.3552  0.5142
  131MOL0     H17652  11.512   4.811  11.776 -0.8120 -1.3259  0.9373
  131MOL0     H17653  11.635   4.947  11.960  1.6030  2.2722 -0.4358
  131MOL0     H17654  11.779   4.852  11.926 -0.6317 -0.4165  2.0722
  131MOL0     H17655  11.645   5.049  11.737 -1.3804 -0.9034  0.8916
  131MOL0     H17656  11.805   4.966  11.707  0.6717  3.2016 -0.7034
  131MOL0     H17657  11.751   5.147  11.935 -0.8251 -1.5159 -0.2376
  131MOL0     H17658  11.901   5.066  11.922 -0.1349  2.7199  2.3512
  131MOL0     H17659  11.805   5.221  11.697 -0.1614 -3.3729 -0.5252
  131MOL0     H17660  11.974   5.185  11.733 -0.0455 -0.2377  0.8533
  131MOL0     H17661  11.795   5.383  11.859 -0.8455 -0.5077  0.1689
  131MOL0     H17662  11.943   5.356  11.947  0.9781  3.6678 -0.6052
  131MOL0     H17663  11.893   5.468  11.685 -0.8213  0.5705  0.0519
  131MOL0     H17664  12.068   5.405  11.732  0.1303  1.1151  1.7209
  131MOL0     H17665  12.053   5.546  11.920  4.3273  0.7896 -2.0911
  131MOL0     H17666  11.902   5.616  11.839 -0.3450 -3.2031  0.5650
  131MOL0     H17667  11.348   4.622  11.817 -1.0475  1.0955 -0.1044
  131MOL0     H17668  11.136   4.617  11.969  0.6974 -2.0112  0.4512
  131MOL0     H17669  10.949   4.575  12.324  0.4360  2.4957  2.0246
  131MOL0     H17670  10.719   4.510  12.373  2.4986 -0.8332 -2.0821
  131MOL0     H17671   9.386   3.814  11.114 -1.7207 -0.0696 -1.5871
  131MOL0     H17672   9.158   3.796  11.089 -0.5468 -1.8545  0.8978
  131MOL0     H17673   8.824   3.917  11.305 -0.4929  1.2719  1.0926
  131MOL0     H17674   8.579   3.970  11.380 -1.3866 -0.5178  0.3501
  131MOL0     H17675   8.361   3.782  11.442 -0.8672 -0.0679  1.6498
  131MOL0     H17676   8.371   3.949  11.437 -0.9375 -0.8862  2.6784
  131MOL0     H17677   8.136   3.881  11.514 -4.2917 -4.7412 -0.4014
  131MOL0     H17678   8.118   3.790  11.363 -3.4898  2.3925  0.3718
  131MOL0     H17679   8.104   3.980  11.234  0.9045  1.4621 -0.9283
  131MOL0     H17680   8.151   4.088  11.372 -0.2419 -0.3527 -0.9411
  131MOL0     H17681   7.925   4.001  11.470  1.1480 -1.2648  0.0880
  131MOL0     H17682   7.892   3.944  11.304  0.8865 -1.2123 -0.0418
  131MOL0     H17683   7.812   4.339  11.249 -3.4569 -0.2365 -0.0962
  131MOL0     H17684   8.425   3.737  11.067 -1.7519 -1.4405  3.3173
  131MOL0     H17685   8.644   3.643  11.011  1.5579  0.5227 -0.3634
  132MOL0     O17686   6.002   0.633   2.733  0.7777 -0.0193 -0.8229
  132MOL0     C17687   6.083   0.543   2.726 -0.4516  0.1703  0.9676
  132MOL0     O17688   6.218   0.554   2.743  0.2975 -0.1256  0.2022
  132MOL0     C17689   6.287   0.667   2.722  1.2124  0.1747  0.1448
  132MOL0     C17690   6.294   0.742   2.840  0.1026 -0.5949 -0.8367
  132MOL0     C17691   6.343   0.871   2.826  0.0951 -0.4217 -0.4290
  132MOL0     C17692   6.400   0.920   2.706  0.1834  0.7549 -0.0423
  132MOL0     O17693   6.469   1.035   2.700 -0.4644  0.4572 -0.1674
  132MOL0     C17694   6.602   1.041   2.756  0.8481  0.6768 -0.2248
  132MOL0     C17695   6.659   1.176   2.705 -0.4326  0.1193 -0.9125
  132MOL0     C17696   6.760   1.226   2.797 -0.3037  0.4204  0.2821
  132MOL0     C17697   6.856   1.340   2.754  0.9000  0.0536 -0.0436
  132MOL0     C17698   6.785   1.482   2.730 -1.1579  0.6209 -0.4718
  132MOL0     C17699   6.895   1.579   2.704 -0.0397 -0.6191  1.0354
  132MOL0     C17700   6.985   1.567   2.578 -0.4922  0.1466  0.5548
  132MOL0     C17701   7.058   1.693   2.532 -0.0409  0.2717  0.4401
  132MOL0     N17702   7.056   1.694   2.386  1.1510  0.4900 -0.1239
  132MOL0     C17703   6.965   1.759   2.310  0.0645  0.0773  0.9039
  132MOL0     C17704   7.003   1.725   2.182 -0.8587  0.8200 -0.2147
  132MOL0     C17705   6.931   1.753   2.052  0.1080  0.0828 -0.4085
  132MOL0     C17706   6.909   1.624   1.969 -1.0252  0.3091  0.1280
  132MOL0     C17707   6.820   1.652   1.861  0.1488  0.2045 -0.3512
  132MOL0     C17708   6.849   1.554   1.742 -0.3379 -0.0808  1.0227
  132MOL0     O17709   6.837   1.417   1.791  0.1724  1.0912  0.3599
  132MOL0     C17710   6.729   1.342   1.767  0.0794 -0.0562 -0.2869
  132MOL0     C17711   6.743   1.202   1.786 -0.6020  0.0741 -0.3412
  132MOL0     C17712   6.634   1.114   1.757 -0.0358 -0.3613 -0.1457
  132MOL0     C17713   6.653   0.969   1.768 -0.3710 -0.3977 -0.5352
  132MOL0     C17714   6.505   1.174   1.730  0.6032  0.0657 -0.1921
  132MOL0     C17715   6.384   1.093   1.703  0.2420 -0.0121  0.1754
  132MOL0     O17716   6.262   1.159   1.668 -0.0222  0.1366 -0.3539
  132MOL0     C17717   6.154   1.080   1.625 -0.6657 -0.0816  0.4397
  132MOL0     C17718   6.095   1.113   1.506  0.6429 -0.2657 -0.5205
  132MOL0     C17719   5.983   1.048   1.461  0.1829 -0.7272  0.0641
  132MOL0     C17720   5.934   0.933   1.522 -0.2479  0.5697 -0.0011
  132MOL0     O17721   5.828   0.864   1.475  0.3411  0.4126  0.5014
  132MOL0     C17722   5.830   0.849   1.331 -0.2448 -0.1574  0.3929
  132MOL0     C17723   5.719   0.752   1.272 -0.1072  0.0254 -0.0030
  132MOL0     C17724   5.748   0.612   1.309  0.3511  0.1802  0.1213
  132MOL0     C17725   5.634   0.521   1.264  0.3610 -0.1455  0.1964
  132MOL0     C17726   5.662   0.380   1.318  0.6516  0.0238  0.5532
  132MOL0     C17727   5.536   0.304   1.359  0.4336 -0.2641  0.1172
  132MOL0     C17728   5.580   0.164   1.427 -0.5682  0.1508  0.4414
  132MOL0     C17729   5.482   0.042   1.386  0.6879 -0.1286  0.3231
  132MOL0    Cl17730   5.536  -0.037   1.241 -0.5898  0.0859 -0.3345
  132MOL0     C17731   5.990   0.907   1.643 -0.3558  0.1197  0.1536
  132MOL0     C17732   6.096   0.977   1.703 -0.9690 -0.4020 -0.6929
  132MOL0     O17733   6.383   0.976   1.732 -0.2236  1.1610 -0.0495
  132MOL0     C17734   6.492   1.307   1.709 -0.8305  0.0028 -0.1043
  132MOL0     C17735   6.603   1.393   1.723 -0.9716 -0.4923  0.1421
  132MOL0     N17736   7.123   1.651   2.180 -0.2327  0.4366 -0.1518
  132MOL0     N17737   7.151   1.643   2.308 -0.0889  0.8848 -0.0877
  132MOL0     C17738   6.380   0.848   2.592  0.0139  0.4780  0.5500
  132MOL0     C17739   6.322   0.719   2.597  0.1094 -1.4274 -0.3059
  132MOL0     C17740   6.025   0.413   2.691  0.3378  0.0721  0.1219
  132MOL0     C17741   6.119   0.306   2.678  0.6677  0.2254 -0.2150
  132MOL0     C17742   6.078   0.176   2.640  0.2262 -0.0227  0.6546
  132MOL0     C17743   5.938   0.149   2.615 -0.2411 -0.2311 -0.0465
  132MOL0     O17744   5.886   0.024   2.582  0.4842 -0.1694 -0.7103
  132MOL0     C17745   5.975  -0.085   2.577  0.3201 -0.3326  0.0526
  132MOL0     C17746   5.898  -0.204   2.508  0.6809 -0.7391 -0.1596
  132MOL0     C17747   5.979  -0.328   2.475  0.7930  0.4120 -0.6622
  132MOL0     C17748   6.073  -0.381   2.589 -0.2286 -0.4065  0.0391
  132MOL0     C17749   6.156  -0.493   2.544 -0.6159  0.0108  0.1010
  132MOL0     C17750   6.236  -0.569   2.490 -0.7076 -0.6386 -0.2415
  132MOL0     C17751   5.851   0.257   2.641  0.1104  0.6851  0.3525
  132MOL0     C17752   5.892   0.384   2.680 -0.9735  0.6021  0.2051
  132MOL0     H17753   6.245   0.718   2.934 -0.6215 -1.1115 -1.3389
  132MOL0     H17754   6.345   0.939   2.910  3.0679 -0.4771 -0.3662
  132MOL0     H17755   6.597   1.028   2.864  0.9074 -0.4661 -0.3486
  132MOL0     H17756   6.657   0.953   2.721 -1.4389 -0.3036 -1.6629
  132MOL0     H17757   6.704   1.162   2.606 -0.3258  1.9581 -1.1512
  132MOL0     H17758   6.572   1.242   2.697  0.0016  1.0564  1.2903
  132MOL0     H17759   6.716   1.273   2.885  0.9209 -0.2918  1.3114
  132MOL0     H17760   6.815   1.148   2.852  2.6868  1.4398 -1.0536
  132MOL0     H17761   6.923   1.372   2.834 -0.0227  3.2620 -0.4283
  132MOL0     H17762   6.916   1.308   2.668 -0.6684 -0.0774 -1.1311
  132MOL0     H17763   6.717   1.473   2.645 -0.2242 -2.8482 -1.0106
  132MOL0     H17764   6.732   1.507   2.822 -0.4951 -0.8906  0.3636
  132MOL0     H17765   6.853   1.680   2.699  1.9771  0.1900 -2.2144
  132MOL0     H17766   6.963   1.574   2.790  1.8265  0.9298 -0.2541
  132MOL0     H17767   7.059   1.487   2.592 -0.6873  0.1224  1.5545
  132MOL0     H17768   6.924   1.541   2.492  0.3450 -0.8078  0.2243
  132MOL0     H17769   7.159   1.688   2.573  0.0302 -0.3511  0.1882
  132MOL0     H17770   7.020   1.787   2.574  0.7670  0.0584  1.6886
  132MOL0     H17771   6.875   1.806   2.346  0.1008 -0.3970  1.6428
  132MOL0     H17772   6.827   1.786   2.063 -0.1540 -0.3322 -1.5317
  132MOL0     H17773   6.971   1.836   1.994 -2.9049  1.9681 -0.0170
  132MOL0     H17774   6.871   1.536   2.021 -0.5749  0.8449  1.3990
  132MOL0     H17775   7.008   1.589   1.935 -0.4704  1.6534  0.2924
  132MOL0     H17776   6.835   1.755   1.830 -1.2616 -0.4913 -3.8347
  132MOL0     H17777   6.714   1.637   1.886  0.0061 -1.3320 -1.7307
  132MOL0     H17778   6.950   1.573   1.704 -0.2045 -2.7495 -0.2165
  132MOL0     H17779   6.773   1.576   1.667  1.0704 -1.7221 -1.0033
  132MOL0     H17780   6.834   1.158   1.826  0.1718 -1.1589 -3.2471
  132MOL0     H17781   6.600   0.907   1.696 -3.3275  0.9333  0.3501
  132MOL0     H17782   6.756   0.932   1.769  0.1283  0.8310  2.2280
  132MOL0     H17783   6.612   0.947   1.867 -1.0356 -0.9943 -0.9315
  132MOL0     H17784   6.134   1.200   1.453  3.2280  0.0804  1.7441
  132MOL0     H17785   5.944   1.105   1.378  0.3263  1.0998  1.2028
  132MOL0     H17786   5.810   0.941   1.276 -2.7144 -0.6061  0.4171
  132MOL0     H17787   5.924   0.801   1.303 -1.0868 -0.1126 -2.8302
  132MOL0     H17788   5.627   0.778   1.324 -1.4079 -2.5070 -0.8447
  132MOL0     H17789   5.713   0.773   1.165 -2.7129 -2.9615 -0.5848
  132MOL0     H17790   5.750   0.612   1.419 -0.9769  1.1479  0.1690
  132MOL0     H17791   5.849   0.581   1.281  0.5536 -1.4523  2.3149
  132MOL0     H17792   5.544   0.554   1.317 -0.9101  0.0960 -2.0113
  132MOL0     H17793   5.614   0.516   1.157 -0.6378 -0.1945  0.3702
  132MOL0     H17794   5.726   0.374   1.406  0.1022 -0.0630  0.9465
  132MOL0     H17795   5.715   0.320   1.243  2.1314  1.6877  0.2024
  132MOL0     H17796   5.480   0.362   1.433  1.0832  0.0760  0.3498
  132MOL0     H17797   5.477   0.289   1.269  0.3692  1.0151 -0.0683
  132MOL0     H17798   5.590   0.162   1.536 -1.5716 -2.1192  0.5339
  132MOL0     H17799   5.684   0.144   1.402 -0.5714 -1.3027  1.4929
  132MOL0     H17800   5.384   0.074   1.351  1.1002 -0.8375 -1.6078
  132MOL0     H17801   5.473  -0.029   1.469 -1.0264  0.5218  0.7372
  132MOL0     H17802   5.941   0.836   1.708  0.0151  1.2619  1.7563
  132MOL0     H17803   6.117   0.953   1.806 -1.4661  3.1272  0.3503
  132MOL0     H17804   6.408   1.359   1.665 -1.6893 -0.6104  0.7736
  132MOL0     H17805   6.587   1.496   1.691 -2.3570  0.0816  2.4374
  132MOL0     H17806   6.415   0.884   2.496  0.7679 -2.5832 -0.4271
  132MOL0     H17807   6.285   0.665   2.511  0.1192 -1.2625 -0.4138
  132MOL0     H17808   6.222   0.324   2.705  0.1005  0.1490  2.3238
  132MOL0     H17809   6.163   0.108   2.632  0.4911  0.0026  2.7300
  132MOL0     H17810   6.064  -0.066   2.517  1.7663 -0.3865  2.0531
  132MOL0     H17811   6.013  -0.123   2.673 -2.8441 -0.3895  1.4082
  132MOL0     H17812   5.866  -0.167   2.410  0.5486  0.7475  0.4268
  132MOL0     H17813   5.810  -0.232   2.567 -0.9884 -1.8151 -2.9596
  132MOL0     H17814   6.034  -0.311   2.382 -1.9996  2.6510 -2.0533
  132MOL0     H17815   5.909  -0.405   2.441 -0.3268  2.4283 -3.2589
  132MOL0     H17816   6.022  -0.399   2.684  1.7762  1.4706  1.5702
  132MOL0     H17817   6.150  -0.307   2.611 -0.7734  0.1916 -0.0436
  132MOL0     H17818   6.303  -0.636   2.441 -0.6046 -1.8333  1.4374
  132MOL0     H17819   5.743   0.241   2.635  0.5270 -1.8559 -2.7543
  132MOL0     H17820   5.822   0.464   2.701 -1.7493  0.3817 -1.3977
  133MOL0     O17821   8.249  10.558   4.409  0.0190  0.0825  0.1603
  133MOL0     C17822   8.268  10.474   4.326 -0.4515 -0.1130  0.2069
  133MOL0     O17823   8.393  10.437   4.287  0.5278  0.3827 -0.5022
  133MOL0     C17824   8.511  10.446   4.366  0.0193  0.2011 -0.5092
  133MOL0     C17825   8.544  10.548   4.459  0.4875 -1.3365 -0.1963
  133MOL0     C17826   8.666  10.548   4.525  0.4096  0.2706 -0.8197
  133MOL0     C17827   8.757  10.450   4.506 -0.5929  1.2981 -0.4965
  133MOL0     O17828   8.883  10.446   4.568 -0.5150 -0.1831  0.5911
  133MOL0     C17829   8.921  10.568   4.644  0.0050 -0.0888 -0.2913
  133MOL0     C17830   9.067  10.569   4.714  0.5568 -0.5000  0.1176
  133MOL0     C17831   9.183  10.529   4.617  0.1907 -0.4483  0.0464
  133MOL0     C17832   9.304  10.510   4.715 -0.2896 -0.8904 -1.2911
  133MOL0     C17833   9.429  10.453   4.654 -0.1395  0.3814  0.2238
  133MOL0     C17834   9.430  10.294   4.655  0.7935 -0.3036  0.7691
  133MOL0     C17835   9.547  10.224   4.595  0.0463  0.3139  0.7923
  133MOL0     C17836   9.556  10.074   4.634 -0.3968 -0.2058  0.6759
  133MOL0     N17837   9.673  10.023   4.564  0.5761  1.2620  0.0706
  133MOL0     C17838   9.718  10.060   4.439 -0.6875 -0.4675  0.5167
  133MOL0     C17839   9.833   9.989   4.423  0.1135 -0.8135 -0.4947
  133MOL0     C17840   9.916  10.002   4.301 -0.9319  0.3674 -0.6689
  133MOL0     C17841  10.023  10.105   4.315  0.6075 -0.1584  0.4517
  133MOL0     C17842   9.998  10.224   4.216 -0.7292 -1.0965  0.1686
  133MOL0     C17843   9.890  10.326   4.274 -0.1863 -0.4469 -0.6310
  133MOL0     O17844   9.900  10.442   4.185 -0.5725 -0.1815  0.1887
  133MOL0     C17845   9.785  10.526   4.189 -0.0328 -0.0960  0.5335
  133MOL0     C17846   9.803  10.650   4.108  0.6080  0.1276 -0.2554
  133MOL0     C17847   9.697  10.732   4.086 -0.2043  0.0876 -0.5337
  133MOL0     C17848   9.733  10.847   3.992  1.0694  0.2549  0.3590
  133MOL0     C17849   9.573  10.724   4.162 -0.9746  0.6460  0.1894
  133MOL0     C17850   9.462  10.813   4.153 -0.7189  0.0122 -0.3537
  133MOL0     O17851   9.412  10.859   4.270 -0.2433 -0.2323 -0.7123
  133MOL0     C17852   9.275  10.867   4.270  0.1929  0.5728 -0.3431
  133MOL0     C17853   9.193  10.760   4.216 -0.2863  0.8166  0.1946
  133MOL0     C17854   9.053  10.778   4.220 -0.0334  0.1146  0.1314
  133MOL0     C17855   8.989  10.892   4.263  1.0796 -0.1040 -0.6210
  133MOL0     O17856   8.854  10.915   4.248  0.8072 -0.4857 -0.3511
  133MOL0     C17857   8.766  10.807   4.213 -0.0263  0.4768  0.1208
  133MOL0     C17858   8.631  10.867   4.179 -0.3607  0.5273 -0.4625
  133MOL0     C17859   8.559  10.938   4.303  0.9691 -0.0161 -0.2425
  133MOL0     C17860   8.429  11.009   4.256  0.5651 -0.2087 -0.4764
  133MOL0     C17861   8.333  10.913   4.193 -0.3832  0.3674  0.5509
  133MOL0     C17862   8.188  10.960   4.173  0.8944 -0.9460 -0.3929
  133MOL0     C17863   8.150  11.105   4.129  0.2937  0.1129  0.1495
  133MOL0     C17864   8.001  11.110   4.094  0.9401 -0.2458 -0.0331
  133MOL0    Cl17865   7.903  11.121   4.248 -0.1945 -0.6181  0.2897
  133MOL0     C17866   9.068  10.998   4.300  0.1410  0.7756  0.4078
  133MOL0     C17867   9.210  10.990   4.306 -0.3448 -0.8088  0.2833
  133MOL0     O17868   9.421  10.834   4.042 -0.1670 -0.2005  0.7989
  133MOL0     C17869   9.569  10.612   4.249  0.0635 -0.7030 -0.6626
  133MOL0     C17870   9.667  10.514   4.270 -0.9770 -0.3879  0.4423
  133MOL0     N17871   9.848   9.908   4.532  0.0076  0.2612 -0.1643
  133MOL0     N17872   9.752   9.923   4.616  0.1091 -0.2775 -0.3029
  133MOL0     C17873   8.731  10.346   4.415 -0.2265 -0.0323  0.4585
  133MOL0     C17874   8.607  10.346   4.345 -0.4652 -0.4860 -0.0861
  133MOL0     C17875   8.161  10.427   4.250 -0.2496  0.2871  0.1347
  133MOL0     C17876   8.032  10.466   4.259  0.9111 -0.3100  0.4880
  133MOL0     C17877   7.942  10.412   4.170 -0.3773 -0.1832  0.5496
  133MOL0     C17878   7.976  10.329   4.059 -0.2043 -0.0726 -1.0396
  133MOL0     O17879   7.884  10.275   3.975 -0.5838 -0.3490  0.1712
  133MOL0     C17880   7.747  10.274   4.014  0.5688 -0.7414  0.1611
  133MOL0     C17881   7.645  10.188   3.929 -0.2171 -1.0701 -0.3970
  133MOL0     C17882   7.530  10.172   4.021  0.0440 -0.6518 -0.6489
  133MOL0     C17883   7.420  10.086   3.950 -0.1778 -0.0435  0.6627
  133MOL0     C17884   7.290  10.110   4.014  0.0504 -0.0518 -0.5146
  133MOL0     C17885   7.172  10.122   4.046  0.1270 -1.1838  1.1242
  133MOL0     C17886   8.103  10.283   4.058  0.5834 -0.5656 -0.5160
  133MOL0     C17887   8.190  10.329   4.150 -0.8331 -0.5429  0.3673
  133MOL0     H17888   8.480  10.633   4.477  0.9212 -1.3232  1.3572
  133MOL0     H17889   8.685  10.640   4.580  0.3691 -1.6110  2.5662
  133MOL0     H17890   8.930  10.653   4.575  1.6367  1.5891  1.8481
  133MOL0     H17891   8.853  10.580   4.728 -1.7814 -1.7028 -1.4134
  133MOL0     H17892   9.082  10.672   4.749 -2.5317  0.5457 -1.2950
  133MOL0     H17893   9.069  10.508   4.805  1.3889  0.5081  0.8018
  133MOL0     H17894   9.155  10.431   4.577 -3.0101  1.2589 -2.2564
  133MOL0     H17895   9.193  10.592   4.528 -0.1484 -1.2937 -0.6010
  133MOL0     H17896   9.318  10.606   4.766 -0.7524 -1.0094 -0.9289
  133MOL0     H17897   9.276  10.447   4.800 -2.9630  0.9367 -0.6661
  133MOL0     H17898   9.438  10.491   4.552  0.1777 -0.1423  0.0554
  133MOL0     H17899   9.513  10.492   4.712  0.2297  0.1135 -0.1340
  133MOL0     H17900   9.418  10.266   4.760  1.5834  0.4094  1.0628
  133MOL0     H17901   9.334  10.255   4.621  1.9066 -3.3387  0.8011
  133MOL0     H17902   9.538  10.239   4.487 -1.1068 -0.0977  0.8169
  133MOL0     H17903   9.640  10.271   4.628  0.2493  1.2667 -0.9866
  133MOL0     H17904   9.464  10.025   4.600  0.0877 -1.5180  1.1957
  133MOL0     H17905   9.551  10.070   4.743 -1.9250  0.9409  0.6672
  133MOL0     H17906   9.668  10.124   4.366 -0.3604 -1.0830 -0.2665
  133MOL0     H17907   9.966   9.905   4.285  3.4301  1.9624  1.4919
  133MOL0     H17908   9.851  10.024   4.216 -0.8221 -4.9963 -2.5251
  133MOL0     H17909  10.123  10.065   4.297  1.2990  1.9087 -0.5759
  133MOL0     H17910  10.021  10.133   4.421 -0.1187 -0.5201  0.5418
  133MOL0     H17911   9.970  10.194   4.114  0.6033 -0.5597 -0.3700
  133MOL0     H17912  10.091  10.281   4.209  0.7860 -3.1546  2.0387
  133MOL0     H17913   9.921  10.347   4.376 -1.4555  0.4067 -0.4021
  133MOL0     H17914   9.789  10.284   4.266 -0.8234  0.7141  0.9854
  133MOL0     H17915   9.886  10.640   4.037 -1.3186 -4.0750 -2.2910
  133MOL0     H17916   9.704  10.938   4.046 -1.6076  0.1191 -0.7163
  133MOL0     H17917   9.836  10.839   3.956  0.4016 -0.1514 -1.5930
  133MOL0     H17918   9.673  10.851   3.900  2.5586  0.4843 -0.6350
  133MOL0     H17919   9.248  10.669   4.198 -0.4010  1.0739 -1.5810
  133MOL0     H17920   8.996  10.691   4.188 -0.0615 -0.5695  1.9065
  133MOL0     H17921   8.803  10.759   4.122  0.8014  0.3223  0.5258
  133MOL0     H17922   8.755  10.745   4.303  1.0125  1.2511  0.7922
  133MOL0     H17923   8.637  10.939   4.097 -2.1153  1.8657  0.5094
  133MOL0     H17924   8.563  10.784   4.158 -1.3976  1.1710  0.2047
  133MOL0     H17925   8.630  11.006   4.351  0.3207  1.2300 -0.9988
  133MOL0     H17926   8.522  10.866   4.377 -0.2822 -0.4939 -1.2973
  133MOL0     H17927   8.383  11.061   4.340  1.1338 -0.2362 -0.1449
  133MOL0     H17928   8.449  11.093   4.189 -0.1908 -1.1813 -2.0074
  133MOL0     H17929   8.332  10.826   4.259 -0.7499  0.9458  1.3201
  133MOL0     H17930   8.369  10.887   4.093 -2.5083  0.3332 -0.2539
  133MOL0     H17931   8.124  10.888   4.120  1.4739 -0.9059 -1.1661
  133MOL0     H17932   8.153  10.949   4.276 -2.2692  1.0696 -1.1184
  133MOL0     H17933   8.207  11.134   4.040  0.6361  1.1259  0.6881
  133MOL0     H17934   8.169  11.181   4.205  1.1717  0.6359 -0.5680
  133MOL0     H17935   7.969  11.027   4.031  3.0711 -0.5730 -0.7570
  133MOL0     H17936   7.976  11.196   4.030 -0.4319 -0.2337  0.4916
  133MOL0     H17937   9.014  11.083   4.341 -0.6185  1.1135 -1.2110
  133MOL0     H17938   9.271  11.076   4.331  0.5342 -0.8648 -1.5029
  133MOL0     H17939   9.479  10.592   4.305 -0.5842 -0.5070 -1.6070
  133MOL0     H17940   9.644  10.425   4.327 -1.1344 -0.8103 -0.2690
  133MOL0     H17941   8.808  10.271   4.400 -0.9830 -1.0325  1.4005
  133MOL0     H17942   8.586  10.265   4.276  0.3150 -0.7667 -0.0070
  133MOL0     H17943   8.003  10.534   4.338  0.4446  0.8624 -0.6526
  133MOL0     H17944   7.836  10.435   4.164 -0.2767  0.5173  1.3522
  133MOL0     H17945   7.739  10.242   4.119  3.4407  2.7576  1.6441
  133MOL0     H17946   7.708  10.377   4.018  0.9719 -0.6150  1.7650
  133MOL0     H17947   7.679  10.084   3.916 -2.3488 -1.7630 -0.8725
  133MOL0     H17948   7.616  10.244   3.840  0.6912  0.1909  0.0736
  133MOL0     H17949   7.496  10.271   4.054  2.6147 -0.8514  3.2920
  133MOL0     H17950   7.563  10.112   4.106  2.0541  0.9235 -0.2546
  133MOL0     H17951   7.449   9.981   3.964  4.0925  1.1816  2.7400
  133MOL0     H17952   7.418  10.108   3.843  0.1112  1.1007  0.8811
  133MOL0     H17953   7.067  10.121   4.066 -1.0870  2.1243 -3.4676
  133MOL0     H17954   8.136  10.219   3.976 -0.7494 -2.1939  0.1677
  133MOL0     H17955   8.286  10.287   4.121  0.4005  3.0230 -1.3375
  134MOL0     O17956   1.149   8.021  10.306  0.6798  0.5548 -0.3597
  134MOL0     C17957   1.231   7.969  10.379 -0.9129 -0.1268  0.6828
  134MOL0     O17958   1.257   7.994  10.517 -0.4988  0.1404 -0.4173
  134MOL0     C17959   1.164   8.075  10.588 -0.4780  0.1264 -0.0258
  134MOL0     C17960   1.136   8.200  10.540 -0.6804  0.6531 -0.2122
  134MOL0     C17961   1.064   8.286  10.621  0.3480  0.1731  0.0224
  134MOL0     C17962   1.028   8.246  10.752 -1.0058  1.2005 -0.7403
  134MOL0     O17963   0.965   8.321  10.847  0.6732 -0.1475 -0.6476
  134MOL0     C17964   0.912   8.454  10.817 -0.7264 -0.9133 -0.2265
  134MOL0     C17965   0.788   8.464  10.726  0.1606 -0.0637  0.3829
  134MOL0     C17966   0.692   8.341  10.736 -0.4381 -0.5136  0.3104
  134MOL0     C17967   0.561   8.400  10.692 -0.5455 -0.1456 -0.6779
  134MOL0     C17968   0.455   8.282  10.688  0.5627  0.3587 -0.6275
  134MOL0     C17969   0.312   8.322  10.631 -0.8693  0.3450 -0.0491
  134MOL0     C17970   0.233   8.198  10.644  0.2107 -0.1071 -0.6890
  134MOL0     C17971   0.085   8.233  10.628  0.4365  0.2903 -0.0695
  134MOL0     N17972   0.000   8.121  10.688  1.5532 -2.0453  0.8915
  134MOL0     C17973  -0.013   7.995  10.630 -0.2272 -0.5662 -0.0456
  134MOL0     C17974  -0.068   7.926  10.724 -0.4318  0.1127 -0.9003
  134MOL0     C17975  -0.116   7.785  10.729  0.3059 -0.2808  0.7931
  134MOL0     C17976  -0.266   7.765  10.762  0.4807  0.8649  0.6741
  134MOL0     C17977  -0.347   7.801  10.636  0.4132  0.3236  0.5803
  134MOL0     C17978  -0.388   7.689  10.561 -0.1334  0.7476 -0.4342
  134MOL0     O17979  -0.508   7.641  10.622  0.0112 -0.0419 -0.3640
  134MOL0     C17980  -0.580   7.541  10.562 -0.3709 -1.0407  1.0145
  134MOL0     C17981  -0.532   7.446  10.474  0.1227  0.0581  0.9305
  134MOL0     C17982  -0.610   7.353  10.403 -0.9065  0.3227 -0.5072
  134MOL0     C17983  -0.531   7.258  10.310  0.0220  0.4439  0.1104
  134MOL0     C17984  -0.749   7.369  10.416 -0.2093  0.9339  1.3331
  134MOL0     C17985  -0.842   7.297  10.323 -0.2010 -1.1343 -0.2684
  134MOL0     O17986  -0.949   7.232  10.378 -0.0611  0.3688  0.1711
  134MOL0     C17987  -1.041   7.187  10.285  0.0391 -1.2124  0.2684
  134MOL0     C17988  -0.997   7.073  10.224  0.6447  0.7656 -0.2065
  134MOL0     C17989  -1.070   7.010  10.123  0.0821 -0.2775  0.3257
  134MOL0     C17990  -1.204   7.055  10.094  0.3494 -0.6827  0.2826
  134MOL0     O17991  -1.303   6.994  10.018  0.3266  0.4743  0.0196
  134MOL0     C17992  -1.269   6.874   9.948 -0.5507 -0.7362  0.3235
  134MOL0     C17993  -1.211   6.900   9.804 -0.3255 -0.8000 -1.0095
  134MOL0     C17994  -1.218   6.772   9.725  1.5842 -0.4079 -0.1716
  134MOL0     C17995  -1.160   6.789   9.582  0.1932 -0.9894  0.4362
  134MOL0     C17996  -1.163   6.662   9.499  0.0281 -0.8393  0.3258
  134MOL0     C17997  -1.089   6.677   9.363  0.1564  0.0786  1.3932
  134MOL0     C17998  -1.124   6.561   9.271 -0.3664 -0.2170 -0.6934
  134MOL0     C17999  -1.088   6.433   9.339  0.7695  0.4851  0.1305
  134MOL0    Cl18000  -1.099   6.298   9.212 -0.6685  0.2968 -0.3809
  134MOL0     C18001  -1.244   7.171  10.157  0.1937 -0.4852 -0.0106
  134MOL0     C18002  -1.166   7.247  10.245 -0.2443 -0.1843  0.2997
  134MOL0     O18003  -0.825   7.317  10.198  0.3602 -0.3742  0.6499
  134MOL0     C18004  -0.801   7.458  10.504  0.1981  0.7920 -0.4073
  134MOL0     C18005  -0.719   7.544  10.581  0.4790  0.7661  0.1219
  134MOL0     N18006  -0.106   8.012  10.835 -1.0771  0.5284 -0.2119
  134MOL0     N18007  -0.051   8.123  10.814  0.5233  0.7546  1.9568
  134MOL0     C18008   1.059   8.126  10.798  0.2023 -0.1476 -0.2575
  134MOL0     C18009   1.126   8.035  10.712  0.4087 -0.2356 -1.2540
  134MOL0     C18010   1.285   7.843  10.327 -0.1978 -0.5233  0.9780
  134MOL0     C18011   1.242   7.806  10.190 -0.4245  0.0489 -0.5775
  134MOL0     C18012   1.303   7.699  10.123  0.0686  0.2072 -0.4430
  134MOL0     C18013   1.399   7.623  10.198 -0.2948 -0.4061  0.0524
  134MOL0     O18014   1.465   7.532  10.124  0.0201 -0.0714  0.5074
  134MOL0     C18015   1.551   7.434  10.183 -0.1580 -0.7599 -0.7294
  134MOL0     C18016   1.590   7.338  10.062  0.2021 -0.1836 -0.7040
  134MOL0     C18017   1.708   7.383   9.972  0.9397 -0.8487  0.5522
  134MOL0     C18018   1.679   7.516   9.896 -0.1039  0.1612  0.2080
  134MOL0     C18019   1.550   7.511   9.825  0.2416 -0.0468 -0.1692
  134MOL0     C18020   1.452   7.511   9.751  0.5744 -0.0019  0.1006
  134MOL0     C18021   1.437   7.655  10.331  0.3890  0.2854  0.2143
  134MOL0     C18022   1.387   7.768  10.391  0.5824  0.2121 -0.0813
  134MOL0     H18023   1.167   8.236  10.443  1.0172  0.3716  0.2065
  134MOL0     H18024   1.029   8.386  10.597 -1.8225  0.0135  2.0782
  134MOL0     H18025   0.874   8.495  10.910 -0.6938 -3.2652  0.9062
  134MOL0     H18026   0.985   8.520  10.769 -0.3606 -1.3747 -0.3120
  134MOL0     H18027   0.738   8.557  10.755 -1.1269 -1.6295  3.7094
  134MOL0     H18028   0.828   8.476  10.625  2.6988  1.0620  1.4450
  134MOL0     H18029   0.721   8.246  10.690  2.3147  0.1486  0.4967
  134MOL0     H18030   0.685   8.313  10.842  1.6232  0.1752  0.6683
  134MOL0     H18031   0.523   8.475  10.762 -1.0547  1.0021 -2.1341
  134MOL0     H18032   0.568   8.436  10.589 -1.3371  0.1351 -0.6431
  134MOL0     H18033   0.499   8.202  10.629 -0.9034  0.5644 -2.0725
  134MOL0     H18034   0.437   8.243  10.789 -0.7429 -1.9741 -1.6725
  134MOL0     H18035   0.269   8.399  10.695  0.5998  0.7419  0.4831
  134MOL0     H18036   0.345   8.360  10.533  4.8661  0.9764  1.7777
  134MOL0     H18037   0.266   8.119  10.576  1.1357 -1.1281  0.8824
  134MOL0     H18038   0.251   8.166  10.747  0.7606 -0.2372 -0.8256
  134MOL0     H18039   0.070   8.225  10.520 -1.0529 -0.6933  0.1931
  134MOL0     H18040   0.054   8.325  10.680 -2.1594 -0.0192 -0.9184
  134MOL0     H18041   0.023   7.947  10.540 -0.9058 -1.4827  0.1524
  134MOL0     H18042  -0.098   7.747  10.628  2.6930  4.1258 -0.7123
  134MOL0     H18043  -0.056   7.733  10.804  2.2013  2.8646  1.6650
  134MOL0     H18044  -0.297   7.824  10.848 -0.0548  1.8711 -0.1774
  134MOL0     H18045  -0.277   7.660  10.791  3.3452  1.0304  2.7859
  134MOL0     H18046  -0.296   7.878  10.578  3.1324 -0.4708  1.7436
  134MOL0     H18047  -0.436   7.855  10.672  0.0022 -0.5448  0.9047
  134MOL0     H18048  -0.315   7.608  10.557  0.9480  1.5574  1.5563
  134MOL0     H18049  -0.409   7.713  10.456 -1.6309  2.4664  0.1986
  134MOL0     H18050  -0.425   7.451  10.457  0.4714  1.1969  3.1237
  134MOL0     H18051  -0.527   7.298  10.208  0.3719 -0.4217 -0.2208
  134MOL0     H18052  -0.427   7.243  10.338  0.1397 -0.9536 -0.9557
  134MOL0     H18053  -0.576   7.159  10.301 -2.2158  1.0253  3.2729
  134MOL0     H18054  -0.907   7.025  10.260 -0.9189 -0.3880  2.5254
  134MOL0     H18055  -1.032   6.918  10.082 -1.3164  0.4217 -2.8398
  134MOL0     H18056  -1.205   6.813  10.013  5.1178  3.6547 -0.3160
  134MOL0     H18057  -1.358   6.814   9.930 -3.7545  3.1557  1.5864
  134MOL0     H18058  -1.275   6.974   9.755 -2.6125 -2.7442 -1.1318
  134MOL0     H18059  -1.108   6.936   9.805  0.5067 -2.9910 -1.3028
  134MOL0     H18060  -1.323   6.743   9.714  1.3733  0.9250 -2.2597
  134MOL0     H18061  -1.165   6.694   9.780 -0.3900 -0.1893  2.2044
  134MOL0     H18062  -1.215   6.859   9.519  1.8513 -0.4796 -0.5141
  134MOL0     H18063  -1.054   6.814   9.591 -0.1719  0.5862  0.6342
  134MOL0     H18064  -1.266   6.624   9.495  0.0206 -0.8219  0.3550
  134MOL0     H18065  -1.116   6.577   9.549  2.1073  0.0434 -0.0394
  134MOL0     H18066  -1.122   6.770   9.314  1.4106 -0.3192 -0.2783
  134MOL0     H18067  -0.984   6.698   9.386  0.1742 -0.4532  1.8080
  134MOL0     H18068  -1.071   6.567   9.176  0.5374  1.5481 -0.1226
  134MOL0     H18069  -1.228   6.558   9.235 -0.0252 -2.7128 -1.6335
  134MOL0     H18070  -1.146   6.395   9.423  0.5437 -3.4717 -1.6083
  134MOL0     H18071  -0.985   6.441   9.376  0.2299  1.2265  1.5458
  134MOL0     H18072  -1.347   7.201  10.139  0.3456  0.4532  0.6445
  134MOL0     H18073  -1.200   7.343  10.283 -2.2858 -0.6225 -0.3050
  134MOL0     H18074  -0.908   7.471  10.518 -0.3862 -2.3579 -1.1164
  134MOL0     H18075  -0.755   7.614  10.656 -0.2118 -3.7844  4.5176
  134MOL0     H18076   1.037   8.100  10.901 -2.1648  0.8112 -0.4644
  134MOL0     H18077   1.148   7.939  10.757  2.5193  0.6242 -0.3012
  134MOL0     H18078   1.168   7.856  10.129  0.5987  1.2550 -0.8946
  134MOL0     H18079   1.280   7.669  10.022 -0.4062 -4.2604  0.7407
  134MOL0     H18080   1.646   7.468  10.226 -1.2685 -1.1687  2.3048
  134MOL0     H18081   1.512   7.392  10.276 -2.5824  5.9542  1.8925
  134MOL0     H18082   1.499   7.328  10.003  0.2693  0.3161 -0.9021
  134MOL0     H18083   1.622   7.239  10.097  1.5021  0.5136  0.1546
  134MOL0     H18084   1.733   7.304   9.900 -1.1421 -0.7611 -0.3409
  134MOL0     H18085   1.790   7.403  10.041 -0.0294 -0.1296  1.5214
  134MOL0     H18086   1.746   7.530   9.811 -3.4538 -1.7404 -3.0659
  134MOL0     H18087   1.683   7.593   9.974 -1.2209 -1.1241  1.6148
  134MOL0     H18088   1.367   7.531   9.689  0.3947  3.0614  1.1856
  134MOL0     H18089   1.510   7.603  10.392  0.5705  1.3257  0.8940
  134MOL0     H18090   1.420   7.793  10.492 -0.3313 -0.8551  0.4941
  135MOL0     O18091   6.205   9.300   8.466  0.1413 -0.4462 -0.0604
  135MOL0     C18092   6.197   9.418   8.489  0.1868 -0.9462  0.9234
  135MOL0     O18093   6.263   9.472   8.591 -0.1474 -0.1150 -0.3931
  135MOL0     C18094   6.344   9.396   8.666 -0.3658  0.1216 -0.9089
  135MOL0     C18095   6.479   9.422   8.635  0.1642  0.1608 -0.2141
  135MOL0     C18096   6.577   9.347   8.703 -0.0103 -0.3504 -0.0607
  135MOL0     C18097   6.547   9.255   8.801 -0.2769  0.9391 -0.4845
  135MOL0     O18098   6.652   9.194   8.855 -0.2695  1.3853  0.5545
  135MOL0     C18099   6.637   9.074   8.935  0.3745  0.2330 -0.5524
  135MOL0     C18100   6.772   9.044   8.992 -0.3274  0.2769 -0.4534
  135MOL0     C18101   6.787   8.892   9.028 -0.5710  0.3944  0.0438
  135MOL0     C18102   6.772   8.866   9.182 -0.2302 -0.2029 -0.0570
  135MOL0     C18103   6.644   8.922   9.248  0.0099  0.2933 -0.2124
  135MOL0     C18104   6.504   8.863   9.194 -0.3972 -0.2747  0.3834
  135MOL0     C18105   6.377   8.892   9.276  0.1776  0.4313 -0.6779
  135MOL0     C18106   6.311   9.021   9.242 -0.5333 -0.8895  0.3535
  135MOL0     N18107   6.239   9.010   9.117  0.7933 -0.4906 -0.7045
  135MOL0     C18108   6.219   8.896   9.033  0.0055  0.3856  0.8730
  135MOL0     C18109   6.138   8.941   8.933 -0.1027  1.0085  0.4539
  135MOL0     C18110   6.097   8.846   8.825  0.2651  0.2638  0.1833
  135MOL0     C18111   6.100   8.911   8.693 -0.3302 -0.4050  0.4107
  135MOL0     C18112   6.238   8.954   8.644 -0.3140 -0.3706  0.7285
  135MOL0     C18113   6.240   8.966   8.494  0.2350 -0.1619  0.1965
  135MOL0     O18114   6.241   8.841   8.423 -0.1885 -0.3575 -0.1331
  135MOL0     C18115   6.222   8.835   8.287 -0.6834  0.6377  0.1644
  135MOL0     C18116   6.179   8.942   8.208 -0.2167 -0.0946  0.2079
  135MOL0     C18117   6.204   8.942   8.074  0.1184  0.1370  0.7286
  135MOL0     C18118   6.166   9.067   7.999  0.4107 -0.1004 -0.5048
  135MOL0     C18119   6.261   8.831   8.010  0.1238  0.3388  0.6765
  135MOL0     C18120   6.304   8.819   7.869 -0.8251 -0.2034  0.2926
  135MOL0     O18121   6.296   8.699   7.800 -0.0701  0.5116 -0.0280
  135MOL0     C18122   6.292   8.701   7.663 -0.6948  0.1140 -0.7383
  135MOL0     C18123   6.399   8.654   7.586 -0.2307 -0.0084  0.1003
  135MOL0     C18124   6.405   8.661   7.444  0.3504  0.3673 -0.1976
  135MOL0     C18125   6.294   8.701   7.380 -0.0426  0.4944 -0.6562
  135MOL0     O18126   6.296   8.705   7.249  0.2293  0.2795  0.3102
  135MOL0     C18127   6.305   8.570   7.192  0.3989 -0.2730  0.0939
  135MOL0     C18128   6.172   8.503   7.181 -0.1857  0.3684  0.0077
  135MOL0     C18129   6.081   8.565   7.074  0.0937 -0.4333 -0.4975
  135MOL0     C18130   5.995   8.681   7.132  1.3147  0.0091  0.2596
  135MOL0     C18131   5.918   8.744   7.018 -0.2919 -0.6357  0.1044
  135MOL0     C18132   5.838   8.856   7.078  0.5568  0.4451 -0.3910
  135MOL0     C18133   5.724   8.885   6.980  0.5656 -0.0063 -1.0859
  135MOL0     C18134   5.602   8.955   7.047 -0.2931  0.5544 -0.2150
  135MOL0    Cl18135   5.509   8.837   7.160  0.3978 -0.2108 -0.0555
  135MOL0     C18136   6.184   8.747   7.456 -0.2720 -1.1088 -0.6911
  135MOL0     C18137   6.179   8.752   7.599  1.1879  1.1340  1.1180
  135MOL0     O18138   6.363   8.911   7.820 -0.0644  0.2828  0.2383
  135MOL0     C18139   6.283   8.712   8.086  0.1878  1.0887 -0.3872
  135MOL0     C18140   6.263   8.715   8.224  0.0459 -0.0116 -0.3665
  135MOL0     N18141   6.110   9.073   8.952 -0.3538 -0.0458  0.1321
  135MOL0     N18142   6.158   9.113   9.064  0.3248  1.0266  0.3722
  135MOL0     C18143   6.410   9.245   8.842 -0.0155 -0.2128  0.4017
  135MOL0     C18144   6.310   9.308   8.771 -0.9883  0.8048  0.4076
  135MOL0     C18145   6.101   9.503   8.408  0.6760  0.1816  0.0169
  135MOL0     C18146   6.065   9.634   8.455  0.1094  1.2579  0.9850
  135MOL0     C18147   5.968   9.703   8.380 -1.0484  0.4030  0.1881
  135MOL0     C18148   5.921   9.655   8.254 -0.9157 -0.7136 -0.0495
  135MOL0     O18149   5.862   9.750   8.172 -0.4312 -0.2166  0.3472
  135MOL0     C18150   5.753   9.695   8.084 -0.8575 -0.0868  0.5458
  135MOL0     C18151   5.640   9.799   8.089  0.1778 -0.1992 -0.3358
  135MOL0     C18152   5.516   9.744   8.026  0.7753  0.3590  0.2888
  135MOL0     C18153   5.401   9.846   8.043 -1.0887 -0.2042 -0.2697
  135MOL0     C18154   5.287   9.762   8.077 -0.4690 -0.7744 -0.0257
  135MOL0     C18155   5.195   9.681   8.099 -1.0838  0.0507  1.0400
  135MOL0     C18156   5.952   9.528   8.220  0.5357 -0.3202  0.7036
  135MOL0     C18157   6.032   9.448   8.293 -1.9138  0.2146 -0.5587
  135MOL0     H18158   6.503   9.499   8.562 -0.7655  0.2270 -0.4602
  135MOL0     H18159   6.680   9.369   8.675 -0.3884 -0.7160 -1.8729
  135MOL0     H18160   6.561   9.087   9.013  0.9080  2.4321 -0.3435
  135MOL0     H18161   6.599   8.997   8.868 -1.0546  0.3444  0.0708
  135MOL0     H18162   6.855   9.069   8.926 -0.8998  4.6540  0.1471
  135MOL0     H18163   6.794   9.108   9.079  1.6835  0.5997 -1.1520
  135MOL0     H18164   6.727   8.825   8.966 -0.7651 -1.3803  2.0471
  135MOL0     H18165   6.887   8.866   8.993  0.4321  3.8443 -0.0518
  135MOL0     H18166   6.778   8.759   9.198  0.0823 -0.8991 -3.8207
  135MOL0     H18167   6.856   8.926   9.220 -0.7846  1.1574 -0.8830
  135MOL0     H18168   6.655   8.908   9.356  1.9538  0.0916 -0.3946
  135MOL0     H18169   6.645   9.031   9.237  2.3810  0.6475  2.3905
  135MOL0     H18170   6.488   8.897   9.091 -2.9480 -0.3095  0.6938
  135MOL0     H18171   6.530   8.757   9.189  3.7973  0.6433 -0.9026
  135MOL0     H18172   6.302   8.813   9.266  0.9300 -0.2064 -1.5383
  135MOL0     H18173   6.414   8.884   9.378 -1.5958 -1.5173 -0.1017
  135MOL0     H18174   6.385   9.101   9.232 -1.2307 -0.1442  0.9698
  135MOL0     H18175   6.244   9.050   9.324  1.0521  1.6364  0.8534
  135MOL0     H18176   6.270   8.800   9.039 -2.2234 -0.8521  0.8790
  135MOL0     H18177   6.163   8.758   8.827  2.0393  1.5469  1.0529
  135MOL0     H18178   6.002   8.799   8.853  0.1389 -1.8842 -3.2736
  135MOL0     H18179   6.046   9.006   8.692 -1.0877 -0.8231 -1.1732
  135MOL0     H18180   6.049   8.842   8.625 -2.9497  1.9454 -0.2055
  135MOL0     H18181   6.318   8.888   8.680  0.3745  0.9548  1.7151
  135MOL0     H18182   6.273   9.053   8.675  4.3470 -1.5892  0.1287
  135MOL0     H18183   6.332   9.018   8.467 -0.8123  1.7637  0.1605
  135MOL0     H18184   6.160   9.032   8.458  0.5995  0.3580  0.3300
  135MOL0     H18185   6.153   9.036   8.255 -1.1919 -1.0257  1.6307
  135MOL0     H18186   6.094   9.041   7.921  0.5106 -1.3031 -0.2261
  135MOL0     H18187   6.127   9.150   8.058  0.6075 -0.6498  0.4175
  135MOL0     H18188   6.254   9.105   7.946  0.9388 -2.5441 -1.5543
  135MOL0     H18189   6.487   8.619   7.639 -1.8258  1.3869  4.1013
  135MOL0     H18190   6.494   8.634   7.389  0.5372  0.0840  0.2302
  135MOL0     H18191   6.341   8.559   7.089 -1.4847  1.6913 -0.8736
  135MOL0     H18192   6.360   8.505   7.261 -0.9197 -0.0286  1.4299
  135MOL0     H18193   6.195   8.400   7.155  1.5826  0.1489  2.1435
  135MOL0     H18194   6.131   8.502   7.283 -0.5808 -2.6515 -0.0955
  135MOL0     H18195   6.013   8.491   7.030 -1.9552 -1.1996  3.5035
  135MOL0     H18196   6.151   8.607   7.000 -2.6087  1.7642 -2.0105
  135MOL0     H18197   5.925   8.650   7.209 -0.3847  0.9614 -0.8438
  135MOL0     H18198   6.065   8.754   7.174  1.1165 -0.3059  1.1609
  135MOL0     H18199   5.863   8.658   6.980  2.6908 -2.6076 -0.0325
  135MOL0     H18200   5.992   8.777   6.945  1.6758 -0.5807  2.0488
  135MOL0     H18201   5.786   8.816   7.166 -1.0733  0.3582 -1.3463
  135MOL0     H18202   5.900   8.944   7.095 -0.5081  1.6649 -2.4037
  135MOL0     H18203   5.693   8.788   6.940  2.1838 -0.6322 -0.8722
  135MOL0     H18204   5.758   8.962   6.910 -0.2112  1.8403  0.4540
  135MOL0     H18205   5.540   9.007   6.974 -0.2347  0.9691  0.0249
  135MOL0     H18206   5.647   9.035   7.107 -0.5803  0.8254 -0.3581
  135MOL0     H18207   6.095   8.781   7.404 -1.3958  1.0697  2.3945
  135MOL0     H18208   6.086   8.779   7.648 -0.3062 -1.8310  0.0786
  135MOL0     H18209   6.319   8.622   8.038 -1.5259  0.4276 -0.5313
  135MOL0     H18210   6.284   8.622   8.276 -1.1412 -1.1180 -1.7856
  135MOL0     H18211   6.394   9.175   8.923 -1.5011 -1.5784 -0.9996
  135MOL0     H18212   6.204   9.298   8.792 -1.3056 -0.8886 -1.5724
  135MOL0     H18213   6.108   9.672   8.547 -0.8814 -0.7333  2.3607
  135MOL0     H18214   5.933   9.800   8.413 -0.7943  0.6724 -0.3166
  135MOL0     H18215   5.802   9.681   7.987 -0.9801  1.1210  0.2899
  135MOL0     H18216   5.719   9.595   8.109  1.3585 -1.0213  0.0889
  135MOL0     H18217   5.671   9.895   8.047 -4.0425  0.6142 -2.1149
  135MOL0     H18218   5.620   9.803   8.196 -2.2877 -3.1884 -0.5195
  135MOL0     H18219   5.491   9.649   8.075 -2.3425 -0.7486 -3.0038
  135MOL0     H18220   5.521   9.716   7.920  0.9261 -1.0840  0.6518
  135MOL0     H18221   5.387   9.898   7.947 -2.2965 -1.8913 -1.0597
  135MOL0     H18222   5.428   9.910   8.128 -1.8033  1.5582 -1.3060
  135MOL0     H18223   5.112   9.618   8.123 -1.5342 -1.7821 -3.9308
  135MOL0     H18224   5.927   9.493   8.120 -0.2723  2.3002 -0.0733
  135MOL0     H18225   6.050   9.342   8.277  0.7350  0.5920 -0.5322
  136MOL0     O18226   2.338   8.053   1.960 -0.7755 -0.0320  0.4629
  136MOL0     C18227   2.436   7.966   1.964 -0.3476 -0.3449 -0.2168
  136MOL0     O18228   2.543   7.965   1.878 -0.5861 -0.4220  0.0695
  136MOL0     C18229   2.565   8.073   1.792  0.3703  0.5076  0.3742
  136MOL0     C18230   2.673   8.160   1.810  0.3877 -0.1139 -0.4110
  136MOL0     C18231   2.721   8.258   1.715  0.1613  0.1281 -0.1592
  136MOL0     C18232   2.639   8.279   1.605 -0.0756  0.4900 -0.7207
  136MOL0     O18233   2.670   8.397   1.546  0.1672  0.6713 -0.4055
  136MOL0     C18234   2.592   8.517   1.581 -0.7194  0.0531 -0.7962
  136MOL0     C18235   2.675   8.636   1.533  0.4283 -0.0966 -0.2331
  136MOL0     C18236   2.823   8.648   1.592 -1.1534  0.5981  0.1853
  136MOL0     C18237   2.914   8.731   1.497 -0.3881  0.1709  1.0821
  136MOL0     C18238   3.005   8.821   1.579 -0.6701  0.9057 -0.0051
  136MOL0     C18239   3.080   8.913   1.493  0.2729 -1.0266  0.7586
  136MOL0     C18240   3.177   9.002   1.575  0.0433  0.2155  0.1830
  136MOL0     C18241   3.270   9.076   1.473 -0.5918  0.0218  0.5651
  136MOL0     N18242   3.201   9.176   1.386 -0.4148 -0.8061 -0.4635
  136MOL0     C18243   3.178   9.159   1.247 -0.3094 -0.2554 -0.0637
  136MOL0     C18244   3.127   9.277   1.203  0.7627 -0.5684  0.6082
  136MOL0     C18245   3.082   9.298   1.055  0.9171  0.0706 -0.1166
  136MOL0     C18246   3.175   9.379   0.975 -0.6211  0.2001  0.3836
  136MOL0     C18247   3.147   9.529   0.986  0.6888  0.9106  0.6107
  136MOL0     C18248   3.241   9.604   0.886  0.7968 -0.9690  0.1023
  136MOL0     O18249   3.369   9.570   0.931 -0.4860 -0.1190  0.4559
  136MOL0     C18250   3.474   9.657   0.900 -1.3183 -0.0505 -0.5515
  136MOL0     C18251   3.601   9.611   0.941 -0.5737  0.1002  0.6266
  136MOL0     C18252   3.720   9.686   0.930  0.7765 -0.1817  0.5221
  136MOL0     C18253   3.847   9.625   0.986  0.3033  0.5235  0.8872
  136MOL0     C18254   3.713   9.814   0.867 -0.8080  1.4790  0.3948
  136MOL0     C18255   3.830   9.901   0.833  0.0384 -0.7056 -0.3484
  136MOL0     O18256   3.802  10.034   0.795 -0.5837  0.8109  0.2890
  136MOL0     C18257   3.907  10.120   0.780 -0.8052  1.2795  0.2217
  136MOL0     C18258   3.941  10.209   0.877 -0.0299 -0.6331  0.5625
  136MOL0     C18259   4.049  10.301   0.857  0.2260  0.0423  0.0542
  136MOL0     C18260   4.123  10.310   0.742  0.5727 -0.5165 -0.0516
  136MOL0     O18261   4.214  10.404   0.711 -0.7056  0.0546  0.1416
  136MOL0     C18262   4.240  10.510   0.804 -0.4988 -0.2532  0.2754
  136MOL0     C18263   4.347  10.603   0.740  0.4789 -0.1678  0.9764
  136MOL0     C18264   4.470  10.536   0.689  0.0477 -0.2534  0.9096
  136MOL0     C18265   4.571  10.496   0.791  0.0312 -0.8236  0.1569
  136MOL0     C18266   4.692  10.435   0.722 -0.4637  0.6287 -0.2110
  136MOL0     C18267   4.792  10.380   0.824  0.1029 -1.4750 -0.5969
  136MOL0     C18268   4.916  10.330   0.750 -0.6821  0.5885  0.6200
  136MOL0     C18269   4.902  10.275   0.604 -0.2098  0.4778 -0.8224
  136MOL0    Cl18270   5.048  10.180   0.555  0.2390  0.0544  0.0578
  136MOL0     C18271   4.081  10.218   0.648 -0.6387  0.8015 -0.0613
  136MOL0     C18272   3.975  10.123   0.669  0.6087 -0.6725  0.7100
  136MOL0     O18273   3.935   9.852   0.832  0.0195  0.0843  0.7020
  136MOL0     C18274   3.590   9.853   0.829 -1.1052 -0.9953  0.4995
  136MOL0     C18275   3.474   9.783   0.855  0.1297  0.2092  0.1943
  136MOL0     N18276   3.138   9.363   1.312  0.3320 -0.7175 -0.5964
  136MOL0     N18277   3.174   9.307   1.415 -0.0411  0.7537  0.3405
  136MOL0     C18278   2.528   8.200   1.580  0.8810  0.1017 -0.9303
  136MOL0     C18279   2.494   8.096   1.671  1.0870  0.3711  0.8464
  136MOL0     C18280   2.455   7.877   2.078  0.2995 -0.0701  0.0863
  136MOL0     C18281   2.555   7.768   2.073  0.0904 -0.4104  0.2338
  136MOL0     C18282   2.571   7.688   2.186  0.6911  0.3796  0.0006
  136MOL0     C18283   2.501   7.716   2.307 -0.1197 -0.0682  0.7046
  136MOL0     O18284   2.529   7.637   2.413 -1.0489 -0.2886 -0.1263
  136MOL0     C18285   2.621   7.704   2.510  0.0314 -0.2464  0.1636
  136MOL0     C18286   2.619   7.640   2.654 -0.0675 -0.0641  0.6456
  136MOL0     C18287   2.688   7.726   2.760 -0.4021  0.2507 -0.0612
  136MOL0     C18288   2.592   7.765   2.864  0.3293  0.2229  0.5674
  136MOL0     C18289   2.663   7.825   2.980 -0.0378  1.0168  0.1938
  136MOL0     C18290   2.740   7.871   3.063  0.3095 -0.2477 -1.0461
  136MOL0     C18291   2.398   7.809   2.308  0.6665 -0.0570  0.8593
  136MOL0     C18292   2.377   7.898   2.200  0.4154  0.4533  0.1826
  136MOL0     H18293   2.729   8.170   1.902  1.0375  0.2654 -0.8405
  136MOL0     H18294   2.808   8.321   1.735  0.6312 -0.1362 -1.2986
  136MOL0     H18295   2.494   8.523   1.534 -2.8118 -0.9148  3.0120
  136MOL0     H18296   2.563   8.529   1.686  0.0295  0.1433 -0.5911
  136MOL0     H18297   2.684   8.645   1.424  0.7751  1.6928 -0.0832
  136MOL0     H18298   2.610   8.721   1.556 -0.1964 -0.7522  0.5147
  136MOL0     H18299   2.812   8.683   1.696  3.9401 -0.3052  1.3090
  136MOL0     H18300   2.871   8.551   1.604 -0.7402  0.5676 -1.4439
  136MOL0     H18301   2.968   8.670   1.423  0.4034  2.6334 -0.4843
  136MOL0     H18302   2.857   8.802   1.436  0.0147  3.1138  3.8689
  136MOL0     H18303   2.942   8.874   1.650 -0.8732 -1.0323  1.3479
  136MOL0     H18304   3.074   8.756   1.634  1.6989  0.8109 -2.8254
  136MOL0     H18305   3.134   8.859   1.415  0.7956  0.4599  0.0716
  136MOL0     H18306   3.017   8.983   1.438  3.3562 -1.3537 -3.6162
  136MOL0     H18307   3.116   9.078   1.625 -1.1741  0.7374 -1.9252
  136MOL0     H18308   3.214   8.937   1.654 -5.0396 -1.6326  1.4739
  136MOL0     H18309   3.326   8.994   1.428 -3.1587 -1.6294  0.1157
  136MOL0     H18310   3.336   9.133   1.539 -0.2614 -1.0436  1.1771
  136MOL0     H18311   3.185   9.066   1.192 -1.0369 -0.5138  0.2605
  136MOL0     H18312   3.071   9.201   1.006 -3.3324 -0.0393  0.6613
  136MOL0     H18313   2.985   9.349   1.051  0.7077 -0.3309 -0.1820
  136MOL0     H18314   3.174   9.345   0.871  1.8566 -4.6055  1.6167
  136MOL0     H18315   3.279   9.364   1.004 -0.2186 -1.2202 -1.5885
  136MOL0     H18316   3.151   9.580   1.083  2.0702  0.6529  0.7018
  136MOL0     H18317   3.048   9.545   0.943 -0.3579  1.5315  3.0747
  136MOL0     H18318   3.223   9.710   0.908  2.5173 -0.6796  0.2666
  136MOL0     H18319   3.220   9.579   0.782 -0.2226 -1.5360  0.4332
  136MOL0     H18320   3.598   9.507   0.974  1.8429  0.0049  0.7457
  136MOL0     H18321   3.934   9.689   0.972 -0.9479  2.4673  1.4974
  136MOL0     H18322   3.828   9.616   1.094  2.4641 -3.2459  1.1037
  136MOL0     H18323   3.865   9.532   0.933  0.4453  0.2804  1.3541
  136MOL0     H18324   3.902  10.210   0.979 -1.0549 -0.8024  0.1870
  136MOL0     H18325   4.056  10.367   0.943 -2.5030 -2.7565  2.7247
  136MOL0     H18326   4.150  10.568   0.826 -0.6623 -0.3779 -0.0581
  136MOL0     H18327   4.273  10.467   0.900 -2.3850 -1.8545  0.2732
  136MOL0     H18328   4.311  10.647   0.647  0.0567 -0.3236  1.0648
  136MOL0     H18329   4.374  10.683   0.809  1.3120  1.4267 -1.0834
  136MOL0     H18330   4.517  10.611   0.625  1.0359 -0.4477  1.3915
  136MOL0     H18331   4.445  10.449   0.627 -0.9378  0.6370  0.0149
  136MOL0     H18332   4.611  10.584   0.842  2.7657 -0.8904 -1.6304
  136MOL0     H18333   4.523  10.431   0.864  1.9244 -1.2104  1.1089
  136MOL0     H18334   4.760  10.504   0.670  3.5337 -3.3200 -0.8323
  136MOL0     H18335   4.672  10.354   0.652 -1.6984 -1.7721  2.7026
  136MOL0     H18336   4.825  10.452   0.900 -1.7853  0.9392 -1.9150
  136MOL0     H18337   4.747  10.292   0.870 -1.9981  0.9554  2.3820
  136MOL0     H18338   4.969  10.264   0.819  0.5446  0.0004 -0.8284
  136MOL0     H18339   4.982  10.416   0.741 -1.5953  1.3082  0.6674
  136MOL0     H18340   4.874  10.343   0.523  3.2366 -0.6198 -3.1688
  136MOL0     H18341   4.821  10.202   0.600 -1.9221  2.3231 -1.5398
  136MOL0     H18342   4.118  10.214   0.546  2.9345 -1.7217  1.1262
  136MOL0     H18343   3.940  10.055   0.593  0.7701 -1.5982  1.4505
  136MOL0     H18344   3.561   9.953   0.798 -4.5866 -1.6440  1.2554
  136MOL0     H18345   3.376   9.830   0.848  1.0412  2.0398 -1.1689
  136MOL0     H18346   2.470   8.235   1.495 -0.3675 -0.4941 -0.3593
  136MOL0     H18347   2.413   8.030   1.645  1.7372  0.6661 -2.4304
  136MOL0     H18348   2.591   7.741   1.974  1.4616  2.6993 -0.2155
  136MOL0     H18349   2.632   7.598   2.182  0.7742  0.4543 -0.6380
  136MOL0     H18350   2.724   7.698   2.474  1.1277  1.3582  2.7863
  136MOL0     H18351   2.590   7.808   2.516  1.9266  0.2866  1.4145
  136MOL0     H18352   2.656   7.537   2.655 -1.9678 -0.7877  2.3194
  136MOL0     H18353   2.516   7.620   2.685  0.3340 -0.4596  1.7899
  136MOL0     H18354   2.746   7.807   2.714  2.1447 -1.5634 -0.2875
  136MOL0     H18355   2.759   7.653   2.800 -0.0981  0.6146  0.0631
  136MOL0     H18356   2.531   7.682   2.902 -0.0623  1.7777  3.6717
  136MOL0     H18357   2.512   7.826   2.822 -2.4372 -4.6057 -2.0241
  136MOL0     H18358   2.804   7.904   3.143  0.7447 -2.3286 -0.4644
  136MOL0     H18359   2.331   7.816   2.393  1.5053  1.4190  1.4476
  136MOL0     H18360   2.312   7.984   2.209  0.9108  0.7222  1.4340
  137MOL0     O18361   1.104   1.021   7.111 -0.5202 -0.5548  0.0457
  137MOL0     C18362   1.095   1.107   7.022  0.0997 -0.6154  0.2878
  137MOL0     O18363   1.168   1.214   7.017 -0.2213 -0.1690  0.3791
  137MOL0     C18364   1.239   1.256   7.129  0.8069 -0.2095  0.6061
  137MOL0     C18365   1.174   1.273   7.255 -0.1450 -0.2983 -0.4279
  137MOL0     C18366   1.251   1.328   7.363 -0.0875  0.3798 -1.0316
  137MOL0     C18367   1.387   1.371   7.346  0.2790  0.2571  0.6664
  137MOL0     O18368   1.475   1.423   7.441  0.8862 -0.3445  0.5795
  137MOL0     C18369   1.420   1.428   7.583 -0.1893 -0.1400  0.3804
  137MOL0     C18370   1.526   1.497   7.671  0.3167  0.3373 -0.1103
  137MOL0     C18371   1.455   1.533   7.803 -0.7896 -0.3850 -0.0000
  137MOL0     C18372   1.561   1.589   7.901 -0.1115  0.1324 -0.4897
  137MOL0     C18373   1.503   1.656   8.024  0.3373  0.6283 -0.0790
  137MOL0     C18374   1.431   1.563   8.121 -0.8095 -0.6077  0.5387
  137MOL0     C18375   1.376   1.632   8.241  0.0967  0.2641 -0.7459
  137MOL0     C18376   1.464   1.633   8.371  1.1417 -0.4792  0.2403
  137MOL0     N18377   1.577   1.726   8.350 -0.8070  1.1683 -1.1385
  137MOL0     C18378   1.574   1.855   8.316 -0.3421 -0.4915  0.2256
  137MOL0     C18379   1.703   1.899   8.317  0.9314  0.2706 -0.6614
  137MOL0     C18380   1.759   2.031   8.267 -0.3454  0.7750 -0.6846
  137MOL0     C18381   1.747   2.042   8.115 -0.3057  0.1283 -0.7512
  137MOL0     C18382   1.836   2.153   8.055  0.5538 -0.0123  1.0974
  137MOL0     C18383   1.803   2.295   8.101 -0.0890 -0.4955  0.6779
  137MOL0     O18384   1.799   2.308   8.240  0.1033 -0.0514 -0.4085
  137MOL0     C18385   1.911   2.321   8.318 -0.3694  0.0606 -0.8910
  137MOL0     C18386   2.046   2.317   8.274 -0.1470  0.4498  1.3229
  137MOL0     C18387   2.156   2.341   8.363  0.5461  0.0319 -0.2222
  137MOL0     C18388   2.293   2.353   8.304 -1.3629 -0.0494  0.6157
  137MOL0     C18389   2.136   2.343   8.506 -0.0238  0.6882  0.2245
  137MOL0     C18390   2.241   2.349   8.616 -0.0455  0.2497  0.0410
  137MOL0     O18391   2.198   2.343   8.747 -0.2770 -0.3725  0.1731
  137MOL0     C18392   2.295   2.328   8.846 -0.2877 -0.5456 -0.1752
  137MOL0     C18393   2.350   2.207   8.891 -0.5023  0.4433 -0.0276
  137MOL0     C18394   2.459   2.214   8.985  0.4360  0.6116  0.1141
  137MOL0     C18395   2.514   2.330   9.033 -0.1337 -0.2438 -0.2009
  137MOL0     O18396   2.628   2.328   9.116  0.1005 -1.1477 -0.1645
  137MOL0     C18397   2.669   2.442   9.188 -0.7489 -0.9385 -0.7255
  137MOL0     C18398   2.807   2.418   9.254  0.3734  1.2241  0.3314
  137MOL0     C18399   2.858   2.533   9.338  0.9815 -0.9249  0.6166
  137MOL0     C18400   2.997   2.535   9.382 -0.1352 -0.2293 -0.0641
  137MOL0     C18401   3.032   2.661   9.472  0.2478 -0.4994  0.8020
  137MOL0     C18402   3.177   2.671   9.525  0.1818 -0.4865 -0.7333
  137MOL0     C18403   3.194   2.818   9.573 -0.1243  0.5691 -1.1731
  137MOL0     C18404   3.134   2.861   9.707 -0.1456  0.2033  0.1710
  137MOL0    Cl18405   3.201   2.763   9.843  0.0610  0.2773  0.4141
  137MOL0     C18406   2.441   2.447   8.996  0.2956  0.6778 -0.7356
  137MOL0     C18407   2.343   2.444   8.897 -0.2004 -0.9793 -0.4200
  137MOL0     O18408   2.361   2.351   8.584  0.1889  0.1030 -0.2298
  137MOL0     C18409   1.998   2.325   8.551  0.5800 -0.3008  0.1706
  137MOL0     C18410   1.898   2.324   8.456  0.3847  0.6563  0.1038
  137MOL0     N18411   1.779   1.795   8.372 -1.0230  0.3754 -0.8265
  137MOL0     N18412   1.700   1.700   8.396  0.4312  0.6151 -0.5193
  137MOL0     C18413   1.437   1.359   7.215  0.4528  0.5349 -0.1267
  137MOL0     C18414   1.359   1.317   7.110  0.2374  0.8438  0.1615
  137MOL0     C18415   1.042   1.058   6.895  0.0494 -0.4699 -0.6586
  137MOL0     C18416   0.981   0.929   6.900 -0.0915  0.1805  0.1918
  137MOL0     C18417   0.934   0.889   6.780  0.4473  0.7833  0.1401
  137MOL0     C18418   0.929   0.962   6.657 -0.6088 -0.3720  0.0802
  137MOL0     O18419   0.849   0.902   6.574  0.2991 -0.1192  0.0249
  137MOL0     C18420   0.798   0.983   6.469 -0.4787  0.2851 -0.5075
  137MOL0     C18421   0.900   1.002   6.356  0.3703  0.3063 -0.6848
  137MOL0     C18422   0.937   0.858   6.310 -0.0188 -1.0158 -0.2584
  137MOL0     C18423   1.041   0.866   6.196  0.8218 -0.0192 -0.6350
  137MOL0     C18424   1.168   0.897   6.255 -0.1950  0.4042 -0.1464
  137MOL0     C18425   1.273   0.914   6.311 -0.2660 -0.4264  0.6107
  137MOL0     C18426   0.986   1.091   6.654  0.3609 -0.2540  0.2277
  137MOL0     C18427   1.045   1.135   6.772 -0.6246 -0.1181  0.8967
  137MOL0     H18428   1.068   1.251   7.264 -0.6587  1.4072 -1.6938
  137MOL0     H18429   1.210   1.337   7.463  2.5078 -2.1010  0.3929
  137MOL0     H18430   1.324   1.479   7.599  0.1867  0.6034  0.3149
  137MOL0     H18431   1.400   1.327   7.621 -1.9376 -0.6103 -1.5925
  137MOL0     H18432   1.601   1.424   7.704  0.1964  0.1844 -0.1694
  137MOL0     H18433   1.579   1.577   7.618  0.2548 -0.8048 -2.0104
  137MOL0     H18434   1.363   1.591   7.804 -1.6841 -1.7672  0.3141
  137MOL0     H18435   1.415   1.442   7.847 -0.2998 -1.9403 -2.5543
  137MOL0     H18436   1.630   1.510   7.929 -1.7038 -1.3802 -0.6266
  137MOL0     H18437   1.628   1.664   7.856  1.7815  1.4340  3.9876
  137MOL0     H18438   1.582   1.708   8.078  0.1007 -2.1622  3.3524
  137MOL0     H18439   1.439   1.740   7.996  0.6391  1.4345  1.5328
  137MOL0     H18440   1.347   1.519   8.067 -1.5651  0.0923  1.1227
  137MOL0     H18441   1.503   1.490   8.161 -2.7569 -2.1400  1.4099
  137MOL0     H18442   1.344   1.735   8.219  1.2980  1.9400  4.1494
  137MOL0     H18443   1.288   1.571   8.263 -0.7240  1.9275  0.8120
  137MOL0     H18444   1.506   1.533   8.385 -1.0033 -1.4142  0.5224
  137MOL0     H18445   1.404   1.658   8.460  1.0332  1.3302 -0.2914
  137MOL0     H18446   1.498   1.927   8.287  1.5132  0.4922 -2.4859
  137MOL0     H18447   1.721   2.121   8.316  1.4837  2.4147 -2.0762
  137MOL0     H18448   1.863   2.040   8.299 -0.8798 -0.9714  1.8463
  137MOL0     H18449   1.646   2.062   8.079  0.1887 -1.8812 -3.5392
  137MOL0     H18450   1.782   1.950   8.069  2.8360  0.2021  1.1983
  137MOL0     H18451   1.819   2.147   7.947  0.8425 -0.2744  1.0651
  137MOL0     H18452   1.942   2.136   8.074  0.1534 -1.3206  2.4170
  137MOL0     H18453   1.705   2.332   8.070  1.2254  3.6235  0.8613
  137MOL0     H18454   1.870   2.367   8.054  3.4052 -2.1222  2.7406
  137MOL0     H18455   2.062   2.294   8.169  0.8963  0.8945  1.3710
  137MOL0     H18456   2.354   2.434   8.345 -2.3329  0.8006  0.4189
  137MOL0     H18457   2.341   2.255   8.305  2.4656  1.6311  1.0278
  137MOL0     H18458   2.285   2.379   8.198 -0.7822 -0.3352  0.4969
  137MOL0     H18459   2.312   2.116   8.846  1.9566 -1.1233  0.8697
  137MOL0     H18460   2.484   2.114   9.019 -3.3854 -0.0106  1.6585
  137MOL0     H18461   2.666   2.538   9.135 -0.0541 -1.9537 -2.6960
  137MOL0     H18462   2.599   2.450   9.272 -0.2131  0.9518 -0.4205
  137MOL0     H18463   2.803   2.319   9.300 -3.0633  1.1017  0.0011
  137MOL0     H18464   2.874   2.414   9.167  0.7469  0.5290  0.6474
  137MOL0     H18465   2.797   2.542   9.429  0.2835  1.8971 -0.0252
  137MOL0     H18466   2.844   2.630   9.289 -0.3042  0.2674  3.1539
  137MOL0     H18467   3.011   2.439   9.434 -2.2488 -0.0882  0.8460
  137MOL0     H18468   3.061   2.535   9.293 -2.7492 -0.2587 -2.0584
  137MOL0     H18469   2.971   2.669   9.563 -2.1850  0.4521 -0.8408
  137MOL0     H18470   3.009   2.738   9.399  1.4557 -2.0208 -1.3028
  137MOL0     H18471   3.204   2.589   9.592  0.3877  0.1789  0.0149
  137MOL0     H18472   3.245   2.642   9.444  1.7220 -4.2122  1.6421
  137MOL0     H18473   3.172   2.892   9.495 -3.1146  0.3347 -0.6642
  137MOL0     H18474   3.302   2.832   9.587 -0.1358  1.2921 -1.7780
  137MOL0     H18475   3.026   2.855   9.687  0.1526  1.4700 -2.2608
  137MOL0     H18476   3.159   2.967   9.716 -0.0663  0.2052 -0.0680
  137MOL0     H18477   2.483   2.541   9.030  1.7358 -0.4799  0.8879
  137MOL0     H18478   2.327   2.545   8.862  1.0579 -0.0688  1.4306
  137MOL0     H18479   1.980   2.337   8.657  0.8764  0.2823  0.1602
  137MOL0     H18480   1.793   2.315   8.483 -0.2042  0.8098 -1.9419
  137MOL0     H18481   1.537   1.401   7.200  0.4015  0.2691 -1.3353
  137MOL0     H18482   1.392   1.317   7.006 -1.7010  0.0401 -0.5078
  137MOL0     H18483   0.974   0.860   6.984 -0.6211  0.2050  0.1759
  137MOL0     H18484   0.872   0.800   6.783  2.4618 -0.6667  1.1863
  137MOL0     H18485   0.711   0.943   6.418  0.1555 -2.3995  0.3680
  137MOL0     H18486   0.764   1.077   6.515 -1.3105  0.1361 -0.8153
  137MOL0     H18487   0.986   1.060   6.391 -0.1059 -0.0190  1.0970
  137MOL0     H18488   0.858   1.054   6.270  1.9195  1.2654 -0.9015
  137MOL0     H18489   0.846   0.813   6.268 -0.1442 -0.4348 -0.6166
  137MOL0     H18490   0.975   0.795   6.391  1.3303  1.8435  1.5018
  137MOL0     H18491   1.006   0.942   6.126 -2.2299 -1.4022 -0.7696
  137MOL0     H18492   1.048   0.770   6.144 -1.1277  0.2665 -1.4971
  137MOL0     H18493   1.371   0.934   6.351  0.5846 -0.3002 -1.4064
  137MOL0     H18494   0.980   1.161   6.571 -0.6516 -3.8920 -3.0869
  137MOL0     H18495   1.119   1.215   6.771  1.4932 -1.9174  2.9636
  138MOL0     O18496   3.573   1.186   3.646 -0.1377 -0.3482  0.0685
  138MOL0     C18497   3.651   1.275   3.622  0.6431 -0.8673 -0.1991
  138MOL0     O18498   3.783   1.252   3.586  0.2984 -0.4337  0.0242
  138MOL0     C18499   3.838   1.133   3.630  0.6243  0.2566 -0.0697
  138MOL0     C18500   3.798   1.081   3.758  0.1809 -0.6620 -0.6968
  138MOL0     C18501   3.839   0.957   3.801 -0.2601  0.3102  0.5213
  138MOL0     C18502   3.915   0.874   3.721  0.0623 -0.0059 -0.9620
  138MOL0     O18503   3.957   0.752   3.759 -0.4364 -0.2355 -0.3199
  138MOL0     C18504   4.023   0.661   3.658  0.4182 -0.0617  0.1398
  138MOL0     C18505   4.013   0.526   3.728  0.6405 -0.2227  0.8343
  138MOL0     C18506   4.114   0.424   3.687  0.1416 -0.5044  1.0464
  138MOL0     C18507   4.095   0.286   3.738 -0.3732 -0.4929 -0.6786
  138MOL0     C18508   4.132   0.267   3.882 -0.4940  0.4825  0.1893
  138MOL0     C18509   4.184   0.130   3.921 -0.0736  0.0604 -0.2865
  138MOL0     C18510   4.076   0.010   3.920 -0.0591 -0.9558  1.3949
  138MOL0     C18511   3.965   0.037   4.019  0.6170 -0.7116  0.9668
  138MOL0     N18512   3.977  -0.022   4.157  0.4967  0.4782 -0.2505
  138MOL0     C18513   3.888   0.005   4.257 -0.4464 -0.5666 -0.2680
  138MOL0     C18514   3.946  -0.028   4.378 -0.4094  0.1295 -0.1270
  138MOL0     C18515   3.900   0.044   4.505  0.3953 -0.0707  0.3299
  138MOL0     C18516   3.977   0.174   4.527  0.5428 -0.1447 -0.3012
  138MOL0     C18517   3.911   0.272   4.629 -0.9467  0.6067 -0.1311
  138MOL0     C18518   4.003   0.392   4.643  0.1461 -0.9731  0.1298
  138MOL0     O18519   3.935   0.483   4.738  0.0300  0.9556  0.3671
  138MOL0     C18520   4.000   0.596   4.779 -0.6674  0.4924  0.3120
  138MOL0     C18521   4.096   0.655   4.701  1.0132  0.2620 -0.0060
  138MOL0     C18522   4.149   0.788   4.725  1.0676  0.3082 -0.8095
  138MOL0     C18523   4.250   0.848   4.637 -0.4373  0.4923 -0.5671
  138MOL0     C18524   4.101   0.845   4.846  0.4828  0.3109  0.3650
  138MOL0     C18525   4.172   0.965   4.903 -0.0352  0.1100  0.9208
  138MOL0     O18526   4.303   0.987   4.873 -0.3454 -0.4863  0.5721
  138MOL0     C18527   4.354   1.102   4.844 -0.0122  0.3799 -0.3368
  138MOL0     C18528   4.493   1.111   4.833 -0.4415  0.3049  0.4894
  138MOL0     C18529   4.566   1.234   4.832 -0.2593  0.5226  1.4330
  138MOL0     C18530   4.503   1.351   4.828 -0.2456 -0.3049 -0.0249
  138MOL0     O18531   4.573   1.470   4.815  0.3007  0.0492  0.6193
  138MOL0     C18532   4.512   1.599   4.781 -0.0701  0.8787  0.3245
  138MOL0     C18533   4.614   1.708   4.799  0.6931 -0.3597  0.5332
  138MOL0     C18534   4.730   1.676   4.703 -0.5343 -1.0123 -0.5052
  138MOL0     C18535   4.689   1.677   4.555 -0.3673  0.3062 -0.7199
  138MOL0     C18536   4.815   1.660   4.473 -0.5439 -0.5450 -0.5073
  138MOL0     C18537   4.783   1.675   4.318  0.0703 -0.0396 -2.1094
  138MOL0     C18538   4.920   1.660   4.240 -0.2414  0.2747  0.4398
  138MOL0     C18539   4.888   1.670   4.093  0.2769  0.9259 -0.0308
  138MOL0    Cl18540   4.792   1.819   4.049  0.3070  0.2030 -0.2599
  138MOL0     C18541   4.355   1.345   4.834 -0.3960  0.0485 -0.1616
  138MOL0     C18542   4.280   1.220   4.844  0.3117 -0.9111 -0.2587
  138MOL0     O18543   4.102   1.041   4.959  1.2207  0.0394  0.4070
  138MOL0     C18544   3.988   0.797   4.914 -0.4004 -0.5195 -0.3856
  138MOL0     C18545   3.942   0.670   4.881 -0.5909 -1.2424  0.2105
  138MOL0     N18546   4.070  -0.081   4.356 -0.2480 -0.5448 -0.0580
  138MOL0     N18547   4.084  -0.083   4.222 -0.1197 -0.4598  0.1988
  138MOL0     C18548   3.963   0.932   3.596 -0.3933 -0.3328 -0.2933
  138MOL0     C18549   3.926   1.059   3.549 -0.1902 -0.2264 -0.3652
  138MOL0     C18550   3.597   1.410   3.597 -0.6068  0.5255 -0.4632
  138MOL0     C18551   3.473   1.437   3.645  1.4967  0.5037 -0.0587
  138MOL0     C18552   3.421   1.566   3.630 -0.5709  0.3857 -0.0167
  138MOL0     C18553   3.492   1.662   3.556  0.2079  0.2628 -0.2940
  138MOL0     O18554   3.422   1.781   3.552  0.2222 -0.1304  0.3121
  138MOL0     C18555   3.507   1.898   3.561  0.0815  0.4917 -0.8057
  138MOL0     C18556   3.454   1.985   3.671  0.0354  0.3441  0.3130
  138MOL0     C18557   3.533   2.118   3.655 -0.3011  0.2056  0.5131
  138MOL0     C18558   3.486   2.222   3.757 -0.3704  0.2713  0.0140
  138MOL0     C18559   3.569   2.341   3.741 -0.0790  0.8464  0.6037
  138MOL0     C18560   3.616   2.447   3.726 -1.0939  0.4010  0.0523
  138MOL0     C18561   3.614   1.629   3.496  0.1260  0.3160 -0.3194
  138MOL0     C18562   3.675   1.510   3.539 -0.7998 -0.5547  0.7528
  138MOL0     H18563   3.735   1.136   3.828  2.8854 -0.6300  1.9155
  138MOL0     H18564   3.805   0.907   3.891 -2.1454 -3.1054 -1.8481
  138MOL0     H18565   3.979   0.653   3.558  2.6288 -0.0120 -0.8892
  138MOL0     H18566   4.128   0.692   3.654  0.4653 -0.1589  0.5815
  138MOL0     H18567   4.033   0.539   3.834 -0.8798  3.7095  0.8097
  138MOL0     H18568   3.911   0.488   3.720 -0.5147  2.3146  2.4566
  138MOL0     H18569   4.102   0.416   3.578 -0.0914  0.2169  1.0139
  138MOL0     H18570   4.213   0.465   3.708  1.4640 -2.6368 -0.5552
  138MOL0     H18571   3.992   0.250   3.726 -0.7034 -1.5282  3.4870
  138MOL0     H18572   4.165   0.224   3.682  1.4932 -1.2450  2.2576
  138MOL0     H18573   4.217   0.335   3.896 -1.1708  1.1400  1.2324
  138MOL0     H18574   4.048   0.295   3.946 -1.2240 -2.4238  0.6381
  138MOL0     H18575   4.264   0.102   3.852 -1.1187  0.4716 -1.7316
  138MOL0     H18576   4.225   0.137   4.022 -3.6954  0.4614  1.3375
  138MOL0     H18577   4.021  -0.002   3.826 -0.2269  0.4207  1.2969
  138MOL0     H18578   4.119  -0.086   3.952  0.6987 -0.7210  1.0729
  138MOL0     H18579   3.868   0.006   3.980 -0.0168  1.3361  0.7759
  138MOL0     H18580   3.959   0.143   4.048 -0.9819 -0.0602 -1.4959
  138MOL0     H18581   3.796   0.062   4.253 -1.3168 -1.3729  3.6766
  138MOL0     H18582   3.792   0.063   4.500  0.4089  1.4623  3.2815
  138MOL0     H18583   3.898  -0.025   4.591 -3.1785 -2.1987 -1.2196
  138MOL0     H18584   3.985   0.225   4.431  2.1363 -1.4207 -0.8882
  138MOL0     H18585   4.080   0.144   4.546  2.3770  1.3016 -5.9865
  138MOL0     H18586   3.916   0.223   4.727  0.4983  1.6273  0.3392
  138MOL0     H18587   3.807   0.289   4.599 -0.4483  4.3496 -0.1583
  138MOL0     H18588   4.025   0.434   4.544  1.0091 -2.3732 -0.3058
  138MOL0     H18589   4.099   0.367   4.689  1.7679 -0.7400 -2.8916
  138MOL0     H18590   4.140   0.594   4.624 -1.1837 -1.2709 -0.1280
  138MOL0     H18591   4.346   0.813   4.677  0.2457 -0.2976 -2.8104
  138MOL0     H18592   4.250   0.816   4.533 -3.2083 -1.8013  0.0235
  138MOL0     H18593   4.243   0.957   4.638  0.4940  0.5678 -1.2798
  138MOL0     H18594   4.556   1.023   4.825  1.1454  1.5455 -1.7216
  138MOL0     H18595   4.673   1.242   4.814 -0.5661  0.6593 -0.6071
  138MOL0     H18596   4.478   1.589   4.677  1.2771  0.3076 -0.0830
  138MOL0     H18597   4.421   1.620   4.837 -0.6389  2.3879 -1.0855
  138MOL0     H18598   4.567   1.804   4.774 -1.5750 -2.1428 -2.9020
  138MOL0     H18599   4.641   1.707   4.905 -2.8222  1.0565  1.5637
  138MOL0     H18600   4.785   1.584   4.725  1.8000  0.7606  1.7770
  138MOL0     H18601   4.812   1.746   4.724  0.2642 -2.2434  0.6275
  138MOL0     H18602   4.615   1.601   4.530 -0.6933 -0.1553  1.4134
  138MOL0     H18603   4.650   1.773   4.519  4.3011  0.7931 -5.9965
  138MOL0     H18604   4.857   1.561   4.491  0.1091  0.1057  1.9686
  138MOL0     H18605   4.876   1.744   4.508 -2.6701  0.2549  1.5967
  138MOL0     H18606   4.718   1.593   4.286 -0.0855 -0.5894 -0.4949
  138MOL0     H18607   4.731   1.770   4.304 -1.5069 -0.5409 -0.2072
  138MOL0     H18608   4.967   1.561   4.245 -0.3559 -0.1094 -3.0798
  138MOL0     H18609   4.996   1.734   4.264  0.2157 -0.2355  0.5851
  138MOL0     H18610   4.827   1.581   4.073  0.9610  0.5402 -0.4390
  138MOL0     H18611   4.972   1.657   4.024  1.3758  0.1313  1.4189
  138MOL0     H18612   4.296   1.436   4.826 -1.0253  0.0906  3.3528
  138MOL0     H18613   4.176   1.240   4.866 -0.4631 -2.7114 -1.9975
  138MOL0     H18614   3.950   0.851   5.000  2.3381  1.1624 -0.1153
  138MOL0     H18615   3.846   0.632   4.914 -2.0380  1.2550 -0.8609
  138MOL0     H18616   4.014   0.871   3.521 -1.1003 -1.0403 -0.2169
  138MOL0     H18617   3.957   1.098   3.453  0.1085  1.2475  0.3147
  138MOL0     H18618   3.410   1.365   3.695  0.1750 -0.1242 -2.4379
  138MOL0     H18619   3.329   1.596   3.680  1.3546  4.1366  1.6935
  138MOL0     H18620   3.613   1.876   3.576  0.2796  1.3724 -0.8079
  138MOL0     H18621   3.490   1.951   3.466 -1.3956  2.3868  0.4343
  138MOL0     H18622   3.473   1.942   3.770 -2.4158 -3.1061 -0.5424
  138MOL0     H18623   3.347   2.006   3.668  0.1183  0.7267 -0.0591
  138MOL0     H18624   3.505   2.169   3.563  2.6694  0.3499 -0.4111
  138MOL0     H18625   3.641   2.109   3.671  0.3401 -1.2584 -3.4712
  138MOL0     H18626   3.490   2.183   3.859  3.9917 -2.9589 -1.1060
  138MOL0     H18627   3.384   2.251   3.729 -0.4871  0.3972  0.5550
  138MOL0     H18628   3.666   2.537   3.698 -3.1019  1.7331  0.5076
  138MOL0     H18629   3.667   1.695   3.428  0.7857  3.0571  2.5539
  138MOL0     H18630   3.776   1.489   3.505 -1.5247 -1.9054 -0.7050
  139MOL0     O18631   8.155   9.502   3.737  0.0720 -0.0329  0.2570
  139MOL0     C18632   8.087   9.573   3.663  0.0644 -0.2690  0.1708
  139MOL0     O18633   8.089   9.704   3.665 -0.6644  0.0169  0.0237
  139MOL0     C18634   8.158   9.775   3.756  0.3012  0.1448 -0.9343
  139MOL0     C18635   8.115   9.818   3.888 -0.6441  0.6777  0.0429
  139MOL0     C18636   8.187   9.913   3.959 -0.6994 -0.3521 -0.5713
  139MOL0     C18637   8.314   9.950   3.915 -0.2494 -0.1251 -0.6374
  139MOL0     O18638   8.402  10.024   3.993  0.4611  0.2318 -0.5963
  139MOL0     C18639   8.471   9.962   4.101  0.1891  0.4937 -1.0012
  139MOL0     C18640   8.625   9.978   4.097  0.0642  0.6618  0.2891
  139MOL0     C18641   8.694   9.959   4.237 -0.3067 -0.2640 -0.2171
  139MOL0     C18642   8.846   9.961   4.244 -0.3869  0.6947  0.3976
  139MOL0     C18643   8.912  10.100   4.216  0.4442  0.4514 -1.1188
  139MOL0     C18644   9.033  10.137   4.309 -0.5514 -1.7088  0.2894
  139MOL0     C18645   9.097  10.263   4.257  0.6266  0.1144  0.5865
  139MOL0     C18646   9.233  10.304   4.330  0.7916 -0.2983  0.5140
  139MOL0     N18647   9.352  10.239   4.261 -0.4277  0.3489 -0.6496
  139MOL0     C18648   9.414  10.296   4.154  0.6069  0.1251  0.0617
  139MOL0     C18649   9.502  10.207   4.115  0.3549  0.4491  1.1731
  139MOL0     C18650   9.582  10.202   3.994  0.2386 -0.0971  0.2419
  139MOL0     C18651   9.512  10.241   3.860 -0.6676  0.8511 -0.0479
  139MOL0     C18652   9.401  10.126   3.818  0.1714 -1.0869 -0.3405
  139MOL0     C18653   9.371  10.174   3.675  0.1488 -0.4334 -0.0212
  139MOL0     O18654   9.238  10.118   3.666  0.2225 -0.1486  0.3408
  139MOL0     C18655   9.178  10.139   3.547  0.4896  0.2672  0.5513
  139MOL0     C18656   9.222  10.223   3.447  0.2841 -0.1576  0.0380
  139MOL0     C18657   9.166  10.216   3.317  0.4661 -0.5580 -0.4648
  139MOL0     C18658   9.226  10.303   3.213 -0.9394  0.2437  0.2761
  139MOL0     C18659   9.057  10.130   3.285  0.0269 -0.3204 -0.5662
  139MOL0     C18660   8.972  10.137   3.156 -0.6502  0.0386  0.4377
  139MOL0     O18661   8.961  10.265   3.102  0.1717 -0.7363 -0.1742
  139MOL0     C18662   8.899  10.292   2.986 -0.3064 -0.4270  0.0605
  139MOL0     C18663   8.784  10.230   2.941 -0.5849  0.5319 -0.0603
  139MOL0     C18664   8.718  10.272   2.826  0.5209 -0.0685  0.5408
  139MOL0     C18665   8.757  10.385   2.763 -0.7052 -0.8305 -0.3884
  139MOL0     O18666   8.687  10.434   2.652  0.3688 -0.9111 -0.7713
  139MOL0     C18667   8.626  10.556   2.668  0.4327  0.4753  0.3985
  139MOL0     C18668   8.526  10.566   2.786  0.3125  0.4076  0.1785
  139MOL0     C18669   8.536  10.690   2.875  0.7183 -0.1625 -0.0907
  139MOL0     C18670   8.653  10.712   2.979 -0.3590  0.4241  0.1435
  139MOL0     C18671   8.656  10.614   3.088 -0.1742 -0.5993 -0.0203
  139MOL0     C18672   8.788  10.628   3.160 -0.3396 -0.1107 -0.9186
  139MOL0     C18673   8.789  10.522   3.263 -0.4160  0.6795  0.0027
  139MOL0     C18674   8.925  10.532   3.342  0.5018 -0.1860  0.3959
  139MOL0    Cl18675   8.931  10.676   3.449  0.3085 -0.0919  0.0256
  139MOL0     C18676   8.872  10.458   2.803 -0.0396 -0.0464  0.6927
  139MOL0     C18677   8.952  10.404   2.906 -0.3873  0.1256  0.1580
  139MOL0     O18678   8.910  10.041   3.115 -0.4738 -0.2762 -0.2495
  139MOL0     C18679   9.017  10.043   3.388  0.0628 -0.0294 -0.3873
  139MOL0     C18680   9.085  10.040   3.511 -0.5524 -0.5527  1.1914
  139MOL0     N18681   9.500  10.100   4.203 -0.6969  1.0089 -0.0193
  139MOL0     N18682   9.409  10.115   4.289  0.1073  1.0653 -0.1461
  139MOL0     C18683   8.363   9.913   3.788 -0.6858  0.4840 -1.2809
  139MOL0     C18684   8.285   9.827   3.716 -0.1927  0.1591  0.3381
  139MOL0     C18685   7.976   9.505   3.580  0.4059 -0.4571 -0.6108
  139MOL0     C18686   7.924   9.375   3.611 -0.4259  0.3407 -0.5077
  139MOL0     C18687   7.818   9.318   3.543  0.2206 -0.8447 -0.4103
  139MOL0     C18688   7.761   9.392   3.430  0.8407 -0.4227 -0.9244
  139MOL0     O18689   7.657   9.355   3.351 -0.0801 -0.2894  0.7727
  139MOL0     C18690   7.612   9.217   3.352  0.9124  0.1602 -0.7131
  139MOL0     C18691   7.466   9.202   3.425 -0.3353 -0.3999 -0.2456
  139MOL0     C18692   7.352   9.239   3.329  0.4878 -0.7245  0.3529
  139MOL0     C18693   7.220   9.270   3.394  0.2274 -0.2400  0.3864
  139MOL0     C18694   7.135   9.339   3.294  0.0163 -0.4523  1.1515
  139MOL0     C18695   7.061   9.382   3.200  0.1138  0.3378 -0.1708
  139MOL0     C18696   7.814   9.520   3.408  0.3099  0.2876 -0.7033
  139MOL0     C18697   7.918   9.579   3.476  0.2543 -0.2873 -0.2366
  139MOL0     H18698   8.029   9.763   3.925  1.7253 -4.7595 -1.5925
  139MOL0     H18699   8.151   9.966   4.046 -2.5074 -1.6487 -0.4707
  139MOL0     H18700   8.427  10.007   4.191  0.8381  0.5968 -0.7282
  139MOL0     H18701   8.441   9.858   4.116 -2.6623  1.0302 -2.4637
  139MOL0     H18702   8.672   9.911   4.025 -0.9973  0.1663  0.0287
  139MOL0     H18703   8.650  10.080   4.067  1.6497  0.6741  1.5049
  139MOL0     H18704   8.665  10.034   4.312 -1.6093  0.3757 -1.3151
  139MOL0     H18705   8.675   9.854   4.263 -1.9543 -1.1744 -4.4015
  139MOL0     H18706   8.867   9.928   4.346 -1.5114 -1.8266 -0.1167
  139MOL0     H18707   8.892   9.880   4.187  0.7110  0.6514  1.3084
  139MOL0     H18708   8.944  10.101   4.111  3.0310 -1.1232 -0.4271
  139MOL0     H18709   8.829  10.171   4.226  0.7658  0.5887  1.0359
  139MOL0     H18710   8.991  10.160   4.407 -1.2681 -0.1747 -0.3554
  139MOL0     H18711   9.112  10.062   4.321  0.8339 -0.3825 -0.2990
  139MOL0     H18712   9.115  10.255   4.150 -0.4049 -0.4197  0.4380
  139MOL0     H18713   9.023  10.340   4.279 -1.7372 -2.2487  1.5379
  139MOL0     H18714   9.219  10.285   4.436  0.4681 -0.9932  0.3479
  139MOL0     H18715   9.253  10.409   4.303 -0.1759 -0.4240 -0.7891
  139MOL0     H18716   9.391  10.389   4.103  0.1336 -1.4309 -2.8384
  139MOL0     H18717   9.669  10.266   4.008  0.4832 -0.6815  1.6275
  139MOL0     H18718   9.624  10.102   3.982 -0.9777 -0.5299 -0.7027
  139MOL0     H18719   9.593  10.239   3.786  0.2126 -2.1891  0.8267
  139MOL0     H18720   9.462  10.338   3.858 -1.5500  0.4220  0.5145
  139MOL0     H18721   9.304  10.134   3.868  0.7569 -1.3244  0.8819
  139MOL0     H18722   9.441  10.026   3.837  0.4551 -0.7751  0.8537
  139MOL0     H18723   9.455  10.150   3.610  1.0075 -1.9448  1.5689
  139MOL0     H18724   9.356  10.282   3.681 -1.8057 -0.6974  0.9798
  139MOL0     H18725   9.298  10.298   3.468  1.4383 -1.6365  1.3568
  139MOL0     H18726   9.214  10.409   3.236  0.3441  0.3193  0.6922
  139MOL0     H18727   9.334  10.286   3.207 -0.7668  1.4955 -0.5095
  139MOL0     H18728   9.192  10.278   3.112 -1.6911  1.3541  0.2430
  139MOL0     H18729   8.738  10.148   2.995 -0.3737 -0.3840 -1.2517
  139MOL0     H18730   8.641  10.210   2.780  2.3807 -0.3504 -2.5283
  139MOL0     H18731   8.705  10.632   2.670  0.9575  0.0060 -1.3384
  139MOL0     H18732   8.568  10.583   2.580  3.0876 -0.2261 -1.6747
  139MOL0     H18733   8.425  10.561   2.744 -0.6473 -0.8928  2.3978
  139MOL0     H18734   8.529  10.471   2.842  1.9546 -0.9642 -2.0846
  139MOL0     H18735   8.445  10.689   2.936  1.0672  2.7127  0.6339
  139MOL0     H18736   8.521  10.778   2.812  0.7141 -0.7875 -0.9672
  139MOL0     H18737   8.749  10.711   2.928  1.4131 -0.4700  3.2304
  139MOL0     H18738   8.642  10.812   3.022 -0.4833  1.5959 -2.4753
  139MOL0     H18739   8.659  10.527   3.021  0.0795  0.3263 -1.2375
  139MOL0     H18740   8.564  10.623   3.146 -1.0301 -1.3071 -1.2277
  139MOL0     H18741   8.867  10.620   3.084  0.2287 -0.2534 -0.3150
  139MOL0     H18742   8.797  10.724   3.213 -0.6914  1.2888 -3.2386
  139MOL0     H18743   8.779  10.427   3.210 -0.5479  0.5256  0.2998
  139MOL0     H18744   8.712  10.537   3.339 -1.3708 -0.8408 -0.6261
  139MOL0     H18745   9.005  10.545   3.269  0.9536  3.4904  1.3263
  139MOL0     H18746   8.933  10.446   3.409  1.1006 -0.4067  0.0386
  139MOL0     H18747   8.896  10.550   2.749 -2.7537  1.3722  1.6816
  139MOL0     H18748   9.049  10.443   2.933 -0.9410  1.3603  0.4548
  139MOL0     H18749   8.947   9.962   3.369  1.3857 -1.0506 -1.0102
  139MOL0     H18750   9.057   9.979   3.596  0.1439 -0.2644  1.6345
  139MOL0     H18751   8.465   9.941   3.765  0.5192 -2.9541 -0.7355
  139MOL0     H18752   8.328   9.795   3.621  1.0173 -0.8861  1.2034
  139MOL0     H18753   7.979   9.310   3.679  1.8111  1.2131 -1.3645
  139MOL0     H18754   7.788   9.220   3.578  2.5563 -1.5411 -0.1885
  139MOL0     H18755   7.612   9.194   3.245  3.0223 -1.2557 -0.4691
  139MOL0     H18756   7.683   9.146   3.393 -0.3230  0.5110  2.3178
  139MOL0     H18757   7.467   9.273   3.509 -0.1873 -3.8137  2.8809
  139MOL0     H18758   7.448   9.111   3.483  0.1341  1.5236  3.1810
  139MOL0     H18759   7.343   9.149   3.268 -1.0625 -2.1514  2.5442
  139MOL0     H18760   7.385   9.321   3.264  1.0201 -1.1031  0.1407
  139MOL0     H18761   7.230   9.351   3.467  1.8923 -0.0576 -0.0001
  139MOL0     H18762   7.168   9.179   3.424 -0.5618 -0.7349 -2.2331
  139MOL0     H18763   6.989   9.431   3.137  0.6444  1.2516 -0.0920
  139MOL0     H18764   7.765   9.575   3.329 -1.1494  2.8259  1.7941
  139MOL0     H18765   7.959   9.674   3.442 -0.1595  0.0555  0.2228
  140MOL0     O18766   7.239   1.957   9.687 -0.1812  0.3191 -0.0952
  140MOL0     C18767   7.235   2.028   9.784  0.9749  0.0519 -0.3967
  140MOL0     O18768   7.262   1.981   9.911 -0.7642 -0.2142  0.7508
  140MOL0     C18769   7.278   1.844   9.949  0.1758 -0.0119 -0.7351
  140MOL0     C18770   7.187   1.747   9.902 -0.7114  0.9319  0.6096
  140MOL0     C18771   7.170   1.623   9.953 -0.6636  0.0892  0.1638
  140MOL0     C18772   7.259   1.583  10.050  0.3062  1.0494  1.3224
  140MOL0     O18773   7.261   1.463  10.112  0.2630  0.1619  0.0758
  140MOL0     C18774   7.139   1.380  10.118 -0.9876  0.0438 -0.0895
  140MOL0     C18775   7.145   1.263  10.221  0.7568 -0.0171 -1.2705
  140MOL0     C18776   7.183   1.315  10.365 -0.2657 -0.0952 -1.0922
  140MOL0     C18777   7.089   1.414  10.431 -0.1756  0.1218 -0.3329
  140MOL0     C18778   6.955   1.359  10.473 -0.3139  0.7954  0.1327
  140MOL0     C18779   6.862   1.468  10.537  0.0329  0.1497  0.3944
  140MOL0     C18780   6.818   1.582  10.432 -0.4260 -0.1153  0.6736
  140MOL0     C18781   6.744   1.523  10.310 -0.4170  0.0633 -0.6682
  140MOL0     N18782   6.738   1.621  10.200  0.2337  1.2876  0.7625
  140MOL0     C18783   6.831   1.634  10.099  0.1214  0.4384  0.4247
  140MOL0     C18784   6.778   1.734  10.019  0.1637 -0.1895 -0.5351
  140MOL0     C18785   6.836   1.800   9.895  0.3318  0.9294 -0.3090
  140MOL0     C18786   6.841   1.689   9.792  0.1963 -0.7076  0.2643
  140MOL0     C18787   6.697   1.628   9.766  0.4131  0.6288  0.4790
  140MOL0     C18788   6.689   1.558   9.627 -0.4290 -0.0441  0.1763
  140MOL0     O18789   6.814   1.494   9.599  0.3506  0.9554  0.0664
  140MOL0     C18790   6.859   1.373   9.662  1.1381 -0.6250  0.6059
  140MOL0     C18791   6.788   1.299   9.765  0.6127 -0.1838 -0.6875
  140MOL0     C18792   6.842   1.189   9.828 -0.2325 -0.0342 -0.6737
  140MOL0     C18793   6.753   1.135   9.935  0.6402 -0.1277  0.5604
  140MOL0     C18794   6.977   1.164   9.800 -0.3045  0.2458  0.5770
  140MOL0     C18795   7.058   1.067   9.879 -0.3794 -0.0749  0.1963
  140MOL0     O18796   7.156   0.995   9.817 -0.2706 -0.0142  1.0859
  140MOL0     C18797   7.231   0.907   9.890  0.0139  0.9846 -0.1942
  140MOL0     C18798   7.253   0.787   9.827  0.2287 -0.1022  0.0130
  140MOL0     C18799   7.339   0.699   9.874 -0.9849  1.2674 -1.4926
  140MOL0     C18800   7.422   0.729   9.985 -0.1382  0.2822 -0.2729
  140MOL0     O18801   7.500   0.626  10.041  0.0744 -0.0555  0.7081
  140MOL0     C18802   7.637   0.654  10.066 -0.5721 -0.9911 -0.0317
  140MOL0     C18803   7.715   0.526  10.077  0.2902  0.9014  0.1457
  140MOL0     C18804   7.671   0.430  10.195 -0.1738  0.2668 -0.5395
  140MOL0     C18805   7.745   0.300  10.183  0.1417 -0.2772 -0.4907
  140MOL0     C18806   7.725   0.217  10.306  0.3325  0.1412 -0.1635
  140MOL0     C18807   7.776   0.068  10.283  0.0807 -0.7486  0.6380
  140MOL0     C18808   7.677  -0.040  10.338 -0.4634 -0.9625  0.4249
  140MOL0     C18809   7.691  -0.024  10.492 -0.1528  1.0489 -0.0493
  140MOL0    Cl18810   7.569  -0.132  10.570 -0.1471  0.1297  0.0277
  140MOL0     C18811   7.400   0.852  10.050 -1.2774  0.5943  0.1979
  140MOL0     C18812   7.319   0.947   9.993  1.2819  0.6826 -0.2391
  140MOL0     O18813   7.025   1.050   9.995 -0.9134  0.7109 -0.2749
  140MOL0     C18814   7.041   1.223   9.688  0.5681  0.0174  0.1497
  140MOL0     C18815   6.978   1.320   9.619 -0.1182  0.1641 -0.6567
  140MOL0     N18816   6.645   1.756  10.069 -1.2373 -0.3389  0.3817
  140MOL0     N18817   6.632   1.700  10.184 -0.0795 -1.0331  0.8525
  140MOL0     C18818   7.347   1.675  10.107 -0.4641 -0.5199 -0.2698
  140MOL0     C18819   7.361   1.808  10.052 -0.6197  0.4106  0.5477
  140MOL0     C18820   7.200   2.169   9.778 -0.4031 -0.9517  0.0903
  140MOL0     C18821   7.209   2.242   9.664  1.1158 -0.0807  0.3309
  140MOL0     C18822   7.198   2.386   9.654 -0.6779  0.2571  0.6747
  140MOL0     C18823   7.163   2.448   9.777  0.1239 -0.1199  0.4822
  140MOL0     O18824   7.120   2.582   9.759 -0.4452  0.2063 -0.3270
  140MOL0     C18825   7.044   2.653   9.870  0.1722  0.1104  0.1889
  140MOL0     C18826   7.128   2.737   9.963 -0.3294  0.0670  0.0119
  140MOL0     C18827   7.034   2.816  10.055 -0.8890 -0.6858  0.7770
  140MOL0     C18828   7.108   2.931  10.125  0.0523  0.8420  0.1856
  140MOL0     C18829   7.021   3.009  10.207 -0.0273 -0.9652  0.0745
  140MOL0     C18830   6.944   3.062  10.279 -0.0783 -0.3092  0.2389
  140MOL0     C18831   7.162   2.380   9.898 -0.8363  0.9134  0.0767
  140MOL0     C18832   7.174   2.245   9.898  0.9466  0.4982  0.1331
  140MOL0     H18833   7.111   1.781   9.833 -3.2076 -1.0170  2.2619
  140MOL0     H18834   7.102   1.551   9.910 -0.6999  0.5031 -0.4787
  140MOL0     H18835   7.060   1.451  10.141 -0.2851  1.6251 -2.2515
  140MOL0     H18836   7.116   1.342  10.018 -1.4283  1.3039 -0.4859
  140MOL0     H18837   7.050   1.207  10.217  1.5095 -1.9813  2.8601
  140MOL0     H18838   7.224   1.200  10.181  1.9642  0.8587 -0.3345
  140MOL0     H18839   7.203   1.235  10.436 -2.5816  2.6384  3.0509
  140MOL0     H18840   7.282   1.361  10.359 -0.0042 -0.1259  1.8694
  140MOL0     H18841   7.138   1.451  10.522 -0.6363 -1.5059  0.6025
  140MOL0     H18842   7.079   1.498  10.362  2.0739 -0.0522 -0.9610
  140MOL0     H18843   6.903   1.309  10.391 -2.4138  0.0749  1.7956
  140MOL0     H18844   6.968   1.289  10.556 -2.6829  2.2819  1.8996
  140MOL0     H18845   6.775   1.429  10.590  0.8998  1.5324  3.0275
  140MOL0     H18846   6.933   1.508  10.611  1.8957 -1.0864 -0.6462
  140MOL0     H18847   6.754   1.655  10.481 -0.9992  0.2531 -0.5774
  140MOL0     H18848   6.907   1.640  10.404 -1.6696  1.0371 -1.0538
  140MOL0     H18849   6.643   1.498  10.345  0.0853 -0.5283  0.3807
  140MOL0     H18850   6.777   1.423  10.281 -0.1013 -0.6691  2.0178
  140MOL0     H18851   6.917   1.569  10.088  0.2111 -0.3740  4.4330
  140MOL0     H18852   6.774   1.879   9.851  1.4076  1.3476 -1.1183
  140MOL0     H18853   6.933   1.848   9.907  1.4544 -0.4941 -2.9535
  140MOL0     H18854   6.912   1.609   9.814  3.3183  0.2628 -4.5890
  140MOL0     H18855   6.873   1.748   9.705 -2.4114 -1.4940 -1.3450
  140MOL0     H18856   6.624   1.709   9.771 -1.3247 -0.9015  1.3613
  140MOL0     H18857   6.663   1.571   9.854  3.5783  1.4352  2.4018
  140MOL0     H18858   6.670   1.635   9.552  3.6259  2.8528  1.7980
  140MOL0     H18859   6.606   1.487   9.624 -0.3686 -0.3337  2.9563
  140MOL0     H18860   6.691   1.332   9.799  0.3004 -0.0771 -1.6480
  140MOL0     H18861   6.778   1.193  10.024 -1.0175  0.9342  0.3826
  140MOL0     H18862   6.649   1.157   9.911  1.5269  4.0301 -0.1267
  140MOL0     H18863   6.768   1.028   9.953 -2.1114 -0.0621  4.7138
  140MOL0     H18864   7.181   0.758   9.751  0.5087  0.1144 -0.3361
  140MOL0     H18865   7.338   0.599   9.833  0.8139 -0.7679  2.7507
  140MOL0     H18866   7.669   0.713   9.979 -1.5466 -0.1907  0.1379
  140MOL0     H18867   7.662   0.722  10.148  1.9895 -0.5568 -1.0519
  140MOL0     H18868   7.701   0.465   9.987 -0.1303  0.7178  0.3388
  140MOL0     H18869   7.819   0.556  10.096  0.8525 -1.8597  1.9945
  140MOL0     H18870   7.562   0.423  10.187 -0.1150  0.1272 -1.3243
  140MOL0     H18871   7.701   0.472  10.291  1.5546 -0.1998 -0.8446
  140MOL0     H18872   7.719   0.238  10.096 -3.2332 -1.2436  1.0432
  140MOL0     H18873   7.847   0.339  10.180 -0.4906  1.6003  0.6295
  140MOL0     H18874   7.619   0.213  10.333  0.8138 -0.8501  1.6965
  140MOL0     H18875   7.774   0.271  10.388  0.6101  0.6603 -0.6642
  140MOL0     H18876   7.818   0.039  10.187  0.0319 -0.9030  0.6617
  140MOL0     H18877   7.863   0.055  10.348 -0.5857 -0.8763  1.5256
  140MOL0     H18878   7.697  -0.143  10.309 -0.8241 -1.5108  1.9892
  140MOL0     H18879   7.574  -0.013  10.313  0.2073  1.2907 -0.0970
  140MOL0     H18880   7.660   0.078  10.520 -1.7556 -0.0349  2.5495
  140MOL0     H18881   7.789  -0.051  10.533 -0.8802 -1.2401  0.2894
  140MOL0     H18882   7.469   0.887  10.126 -2.1266  3.4563 -0.2075
  140MOL0     H18883   7.304   1.039  10.049  0.5964 -0.9064  2.3318
  140MOL0     H18884   7.138   1.183   9.661 -0.7516 -2.5893 -1.1626
  140MOL0     H18885   7.040   1.369   9.544  0.9397 -0.0589  0.0606
  140MOL0     H18886   7.401   1.657  10.199 -0.6335  1.7965  0.3373
  140MOL0     H18887   7.426   1.888  10.087  2.2686 -1.5621  0.0900
  140MOL0     H18888   7.221   2.180   9.575 -1.3617 -1.4874  0.8746
  140MOL0     H18889   7.205   2.438   9.559  2.5455 -0.9709  0.1036
  140MOL0     H18890   6.968   2.713   9.818 -1.8266 -0.1406  2.6331
  140MOL0     H18891   6.981   2.580   9.921  1.0722  0.5525  2.0238
  140MOL0     H18892   7.182   2.804   9.896 -1.4354  0.8024 -0.1711
  140MOL0     H18893   7.197   2.679  10.026  1.1860  2.2686  0.4990
  140MOL0     H18894   6.992   2.752  10.133  1.5555 -1.8651  1.2071
  140MOL0     H18895   6.953   2.862   9.998  2.1170  4.3791 -0.0930
  140MOL0     H18896   7.135   3.000  10.045 -3.3529  2.5862  0.3469
  140MOL0     H18897   7.197   2.888  10.172 -1.2450 -0.6943  1.3650
  140MOL0     H18898   6.864   3.109  10.333 -0.3417  3.0012 -2.6730
  140MOL0     H18899   7.154   2.436   9.991 -2.9282 -0.0200  0.5226
  140MOL0     H18900   7.171   2.190   9.992  1.7468 -1.9823 -1.2016
  141MOL0     O18901   7.953   8.739   2.479  0.1784  0.5142 -0.8544
  141MOL0     C18902   7.850   8.717   2.543 -0.4819  0.3677  0.1532
  141MOL0     O18903   7.835   8.760   2.664  0.3787  0.1783 -0.6783
  141MOL0     C18904   7.946   8.800   2.735 -0.4763 -0.1686 -0.5389
  141MOL0     C18905   8.057   8.883   2.687  0.0899  0.9388  0.3710
  141MOL0     C18906   8.163   8.904   2.776 -0.2989  0.1386 -0.1102
  141MOL0     C18907   8.157   8.865   2.908 -0.2152  0.1846 -0.5456
  141MOL0     O18908   8.265   8.917   2.986  0.3430  0.5937 -0.3709
  141MOL0     C18909   8.310   8.820   3.078 -0.1393 -0.1811 -0.9099
  141MOL0     C18910   8.463   8.831   3.100  0.7070  0.2730 -0.7693
  141MOL0     C18911   8.559   8.800   2.987 -0.0244  0.2488  0.9968
  141MOL0     C18912   8.533   8.676   2.905 -0.7616  0.0163  0.0979
  141MOL0     C18913   8.591   8.694   2.755  0.2863 -0.8463  0.4355
  141MOL0     C18914   8.580   8.554   2.687 -0.5567  0.6658  0.2617
  141MOL0     C18915   8.583   8.544   2.535 -0.8394 -0.0224 -0.4866
  141MOL0     C18916   8.438   8.554   2.476 -0.5090 -1.1670  0.7524
  141MOL0     N18917   8.439   8.535   2.325 -0.3937  0.0450  0.3213
  141MOL0     C18918   8.345   8.461   2.257  0.7433  0.8150 -0.3519
  141MOL0     C18919   8.377   8.472   2.126 -0.8858 -0.2633 -0.4575
  141MOL0     C18920   8.297   8.411   2.023  0.0836  0.0012  0.3786
  141MOL0     C18921   8.157   8.475   1.985  0.4129  0.0411 -0.2837
  141MOL0     C18922   8.096   8.387   1.872 -0.1065  0.2320 -0.7442
  141MOL0     C18923   7.948   8.412   1.862 -0.1707 -0.8100 -0.3842
  141MOL0     O18924   7.887   8.333   1.756 -0.4566  0.0432  0.5315
  141MOL0     C18925   7.751   8.321   1.748 -0.3385 -0.7465  0.0202
  141MOL0     C18926   7.661   8.397   1.822  0.9141  0.0007 -0.6224
  141MOL0     C18927   7.520   8.373   1.820  0.9958  0.1926  0.5313
  141MOL0     C18928   7.430   8.457   1.897 -0.7826  0.3018  0.4626
  141MOL0     C18929   7.476   8.257   1.749  0.6278  0.5965  0.2809
  141MOL0     C18930   7.340   8.217   1.723  0.0238 -0.5072  0.8498
  141MOL0     O18931   7.316   8.085   1.710  0.4443  0.6542 -0.0221
  141MOL0     C18932   7.193   8.040   1.691 -0.6298 -0.0413  0.3664
  141MOL0     C18933   7.141   8.011   1.560 -0.3905  0.0133  0.1033
  141MOL0     C18934   7.020   7.939   1.548  0.0459 -0.0797 -0.5219
  141MOL0     C18935   6.934   7.926   1.665 -0.0927  1.2425 -0.7331
  141MOL0     O18936   6.811   7.854   1.659  0.5703  0.4484  0.1506
  141MOL0     C18937   6.717   7.885   1.550 -0.4955  0.0673 -0.3223
  141MOL0     C18938   6.585   7.807   1.592 -0.9354  0.4092 -0.3533
  141MOL0     C18939   6.606   7.652   1.579  1.1546 -0.4112 -0.8183
  141MOL0     C18940   6.478   7.571   1.595  0.4553 -0.5120 -0.1961
  141MOL0     C18941   6.487   7.422   1.582 -0.6404  1.0412  0.5385
  141MOL0     C18942   6.589   7.360   1.679 -0.7368 -0.1092 -0.4522
  141MOL0     C18943   6.607   7.205   1.646  1.2044 -0.8380 -0.7651
  141MOL0     C18944   6.692   7.134   1.743  0.0495  0.3469 -0.0172
  141MOL0    Cl18945   6.725   6.961   1.707  0.3900 -0.5679 -0.5786
  141MOL0     C18946   6.983   7.964   1.791  0.0335 -0.2838  0.3789
  141MOL0     C18947   7.110   8.015   1.804 -0.1099  0.0519  0.6397
  141MOL0     O18948   7.252   8.301   1.719 -0.3023  0.2939 -0.0985
  141MOL0     C18949   7.575   8.176   1.692  0.6505  0.4811 -0.2230
  141MOL0     C18950   7.709   8.212   1.687  0.7982  0.2879  0.0816
  141MOL0     N18951   8.499   8.538   2.117  0.2228  0.0113  0.1585
  141MOL0     N18952   8.531   8.590   2.240  0.5828  0.5488  0.4685
  141MOL0     C18953   8.048   8.795   2.958  0.5693  0.4298  0.9026
  141MOL0     C18954   7.953   8.759   2.871 -0.1090 -0.0261 -0.2665
  141MOL0     C18955   7.741   8.638   2.488  0.4796  0.5855  0.6617
  141MOL0     C18956   7.740   8.596   2.351  0.3301  0.1182 -0.4523
  141MOL0     C18957   7.647   8.495   2.307  0.0653 -0.2441 -0.0291
  141MOL0     C18958   7.559   8.436   2.390 -0.9373  0.0398 -0.2398
  141MOL0     O18959   7.484   8.344   2.324 -0.0122  0.9378  0.0508
  141MOL0     C18960   7.401   8.256   2.401 -0.2011 -0.5438  0.0163
  141MOL0     C18961   7.263   8.308   2.416 -0.0550  0.0430 -0.0592
  141MOL0     C18962   7.207   8.371   2.283 -0.1658  0.2587 -0.8896
  141MOL0     C18963   7.052   8.343   2.282 -0.0473  0.5213  0.4237
  141MOL0     C18964   7.027   8.207   2.234  0.1161 -0.2885  0.6948
  141MOL0     C18965   7.025   8.086   2.191  0.1950 -0.2923 -0.0828
  141MOL0     C18966   7.547   8.497   2.515  0.5353  0.3354  0.1834
  141MOL0     C18967   7.630   8.594   2.558  0.0277 -0.2149 -0.4235
  141MOL0     H18968   8.074   8.925   2.588  1.1195  3.5113  1.5400
  141MOL0     H18969   8.253   8.950   2.738  1.2243 -0.2433  2.7125
  141MOL0     H18970   8.253   8.839   3.170 -2.2799 -0.0823 -2.1665
  141MOL0     H18971   8.283   8.721   3.039  0.4053 -1.1040  0.9601
  141MOL0     H18972   8.487   8.931   3.139  1.6740 -0.3937  0.4040
  141MOL0     H18973   8.492   8.751   3.169  0.7708  2.4719  1.9649
  141MOL0     H18974   8.563   8.885   2.918 -2.3663  1.0540  1.7562
  141MOL0     H18975   8.663   8.785   3.017  0.3443 -2.4117 -1.2190
  141MOL0     H18976   8.558   8.582   2.955 -0.5476  1.1059  2.1265
  141MOL0     H18977   8.427   8.668   2.880 -0.1365 -2.9940 -2.2269
  141MOL0     H18978   8.533   8.769   2.699 -1.6208 -1.3175  1.6990
  141MOL0     H18979   8.694   8.731   2.756  1.1859 -3.1820  0.1916
  141MOL0     H18980   8.660   8.489   2.725 -0.8743 -1.3929 -2.3163
  141MOL0     H18981   8.485   8.507   2.714 -0.8030  1.8127  1.4626
  141MOL0     H18982   8.651   8.615   2.487  1.0241 -0.4427  1.3870
  141MOL0     H18983   8.612   8.446   2.496 -1.4433 -0.9998  1.3711
  141MOL0     H18984   8.395   8.652   2.496 -1.2491 -1.3044 -0.1003
  141MOL0     H18985   8.369   8.487   2.528 -3.5342  1.4013  0.3186
  141MOL0     H18986   8.258   8.404   2.288 -1.1622  0.6863 -5.0850
  141MOL0     H18987   8.353   8.423   1.929  1.0275 -1.2786  0.7438
  141MOL0     H18988   8.294   8.306   2.053 -2.4172  0.5114  2.1387
  141MOL0     H18989   8.169   8.575   1.942  0.4119 -0.3546 -1.2229
  141MOL0     H18990   8.093   8.479   2.073  3.2842  2.6934  1.8980
  141MOL0     H18991   8.107   8.281   1.898 -2.2261  0.6577  2.4399
  141MOL0     H18992   8.138   8.402   1.772 -1.1114  1.0507 -1.0620
  141MOL0     H18993   7.939   8.520   1.845 -1.3938 -1.2443 -2.9768
  141MOL0     H18994   7.890   8.400   1.954 -1.9499 -1.3742 -1.5310
  141MOL0     H18995   7.693   8.489   1.870 -0.7335 -0.1852  0.9258
  141MOL0     H18996   7.377   8.521   1.825 -1.5629 -0.6245  0.2042
  141MOL0     H18997   7.366   8.390   1.955 -0.4013  2.0538  3.1198
  141MOL0     H18998   7.486   8.505   1.978 -0.8649 -1.1844  1.4416
  141MOL0     H18999   7.204   8.024   1.472  1.9982 -0.0691  1.6902
  141MOL0     H19000   6.995   7.900   1.450  0.9854  0.2653 -0.9118
  141MOL0     H19001   6.696   7.992   1.552 -1.3773 -0.1005  2.0266
  141MOL0     H19002   6.753   7.849   1.453  1.8561  1.4031 -0.0342
  141MOL0     H19003   6.552   7.833   1.693 -2.8925  0.4830 -0.9733
  141MOL0     H19004   6.513   7.836   1.514  2.3255  0.9376 -3.4465
  141MOL0     H19005   6.685   7.630   1.652 -0.0444 -2.2355  0.0163
  141MOL0     H19006   6.639   7.637   1.476  2.3447  5.4437 -1.6236
  141MOL0     H19007   6.440   7.594   1.695 -1.3260 -0.4316 -0.8651
  141MOL0     H19008   6.405   7.613   1.525  0.9132 -0.0397 -0.3941
  141MOL0     H19009   6.505   7.398   1.476  0.8730  0.7961  0.8270
  141MOL0     H19010   6.389   7.384   1.613 -1.1514  1.6607 -0.2738
  141MOL0     H19011   6.688   7.406   1.676 -0.8349  0.0562 -1.1675
  141MOL0     H19012   6.548   7.365   1.781  1.2602  2.3938  0.3385
  141MOL0     H19013   6.654   7.202   1.547 -0.2056  1.5882 -1.5951
  141MOL0     H19014   6.505   7.165   1.648  0.4288  0.9213  2.7838
  141MOL0     H19015   6.656   7.142   1.846  3.7054 -3.5188  1.8350
  141MOL0     H19016   6.783   7.194   1.734  0.4027  0.2598  2.4332
  141MOL0     H19017   6.916   7.949   1.875  0.9760  1.2130  1.4528
  141MOL0     H19018   7.148   8.032   1.904 -3.3929  0.1715  1.9579
  141MOL0     H19019   7.546   8.086   1.637 -2.5171  0.3488  1.4273
  141MOL0     H19020   7.784   8.148   1.641 -1.7214 -1.4584 -1.9143
  141MOL0     H19021   8.044   8.767   3.063  1.4610 -1.0983  0.5559
  141MOL0     H19022   7.877   8.688   2.903  1.3668 -1.9631 -0.8082
  141MOL0     H19023   7.809   8.633   2.277  2.1914 -2.3897 -0.1079
  141MOL0     H19024   7.641   8.481   2.199 -1.4141 -1.0824  0.1416
  141MOL0     H19025   7.392   8.162   2.347  2.0387 -1.6209  1.3669
  141MOL0     H19026   7.432   8.235   2.504 -0.5716 -3.5052 -0.4035
  141MOL0     H19027   7.267   8.386   2.493  1.3476 -0.1011  0.0298
  141MOL0     H19028   7.210   8.222   2.457  0.7918 -0.0471  0.9023
  141MOL0     H19029   7.250   8.312   2.201  0.2343 -0.3565 -0.2452
  141MOL0     H19030   7.250   8.471   2.268  2.9833 -0.6642  0.9812
  141MOL0     H19031   6.999   8.405   2.210 -0.7125  0.0139  0.4676
  141MOL0     H19032   7.012   8.360   2.382  1.1512 -0.5899  1.1261
  141MOL0     H19033   7.030   7.983   2.161 -1.7011 -1.3234  2.7408
  141MOL0     H19034   7.464   8.458   2.574 -0.1285 -0.6016 -1.3133
  141MOL0     H19035   7.611   8.632   2.657 -0.3234  1.0424 -0.9566
  142MOL0     O19036   1.671   3.198   5.579  0.2853 -0.3333  0.5679
  142MOL0     C19037   1.591   3.293   5.575  0.2997  0.3889 -1.3236
  142MOL0     O19038   1.603   3.404   5.661 -0.7260  0.3005  0.1675
  142MOL0     C19039   1.731   3.443   5.690 -0.4685 -1.2837 -0.9763
  142MOL0     C19040   1.790   3.529   5.603 -0.7863  0.3864  0.1770
  142MOL0     C19041   1.927   3.561   5.617 -0.3214 -0.6053  0.7988
  142MOL0     C19042   1.996   3.527   5.741 -0.6163 -0.3549  0.2801
  142MOL0     O19043   2.114   3.599   5.766 -0.6527 -0.9485  0.8085
  142MOL0     C19044   2.218   3.533   5.843  0.0246  0.0565  0.2515
  142MOL0     C19045   2.355   3.532   5.766  0.1819  0.2177 -0.2377
  142MOL0     C19046   2.330   3.475   5.621 -0.0340  0.8735 -0.0442
  142MOL0     C19047   2.350   3.567   5.503 -0.3924  0.1502 -0.0698
  142MOL0     C19048   2.492   3.609   5.502 -1.0306 -1.0319 -0.6391
  142MOL0     C19049   2.489   3.751   5.452  0.7830 -0.6960 -0.7447
  142MOL0     C19050   2.624   3.827   5.423  0.1647  0.5067 -0.3984
  142MOL0     C19051   2.618   3.961   5.342 -0.1634  0.0195 -0.1848
  142MOL0     N19052   2.554   4.069   5.423  0.3122  0.0498  0.6586
  142MOL0     C19053   2.439   4.131   5.384  0.0255  0.2880 -0.4738
  142MOL0     C19054   2.415   4.209   5.494  0.3674 -0.3166  0.2482
  142MOL0     C19055   2.301   4.303   5.513  0.8315  0.1651  0.3366
  142MOL0     C19056   2.179   4.229   5.581  0.3992 -1.2051 -0.3270
  142MOL0     C19057   2.115   4.131   5.485  1.2317  0.8667  0.0145
  142MOL0     C19058   1.966   4.112   5.531 -0.0376 -0.4258  0.9703
  142MOL0     O19059   1.909   4.012   5.436 -0.4725  0.4177 -0.7119
  142MOL0     C19060   1.777   3.970   5.462 -0.5423 -0.4725 -0.5390
  142MOL0     C19061   1.737   3.851   5.397  0.5361  0.4938  0.3108
  142MOL0     C19062   1.608   3.814   5.410  0.5344 -0.2051 -0.4281
  142MOL0     C19063   1.562   3.699   5.318  0.5638 -0.3920 -0.1022
  142MOL0     C19064   1.515   3.881   5.492 -0.3652 -0.0259  0.5979
  142MOL0     C19065   1.370   3.840   5.514 -0.4838  0.2259 -0.3240
  142MOL0     O19066   1.294   3.927   5.568  0.1473  0.2498 -0.1724
  142MOL0     C19067   1.158   3.909   5.559 -0.2804  1.1987  0.1513
  142MOL0     C19068   1.106   3.941   5.435  0.2512  0.2856 -0.1493
  142MOL0     C19069   0.970   3.935   5.414  0.3401 -0.1654 -0.1469
  142MOL0     C19070   0.881   3.902   5.519  0.0255 -0.6841  0.6222
  142MOL0     O19071   0.741   3.899   5.504 -0.4141 -0.3147  0.5620
  142MOL0     C19072   0.692   3.907   5.371  0.5502 -0.0715  0.2231
  142MOL0     C19073   0.554   3.862   5.376 -0.6403 -0.1793 -0.0246
  142MOL0     C19074   0.505   3.852   5.228 -1.0837  0.4207 -0.8293
  142MOL0     C19075   0.556   3.724   5.153 -0.2704 -0.2543 -0.3289
  142MOL0     C19076   0.503   3.725   5.006 -0.2528  0.3409 -0.7056
  142MOL0     C19077   0.594   3.642   4.921  0.2961 -0.0908  0.0977
  142MOL0     C19078   0.534   3.618   4.780  0.0239 -0.8433 -0.8710
  142MOL0     C19079   0.399   3.530   4.795  0.5603 -1.4816 -0.4991
  142MOL0    Cl19080   0.362   3.434   4.632  0.4548 -0.1716 -0.0677
  142MOL0     C19081   0.930   3.898   5.647  0.5217 -1.2640  0.7362
  142MOL0     C19082   1.074   3.899   5.669 -0.3572  0.1953  0.8765
  142MOL0     O19083   1.333   3.723   5.488  0.3763  0.2469  0.5224
  142MOL0     C19084   1.554   3.996   5.553 -0.5375  1.1176 -0.1207
  142MOL0     C19085   1.687   4.043   5.541  0.4857 -0.3511  1.1414
  142MOL0     N19086   2.512   4.175   5.593  0.3285  0.3687 -0.4560
  142MOL0     N19087   2.592   4.089   5.546  0.2502  0.2363 -0.0354
  142MOL0     C19088   1.925   3.461   5.836  0.2638  0.4483  0.1288
  142MOL0     C19089   1.795   3.422   5.809 -0.4092 -0.1978  0.1184
  142MOL0     C19090   1.475   3.278   5.479  0.2897  0.7678 -1.2020
  142MOL0     C19091   1.368   3.362   5.490 -1.1842 -0.5942  0.8188
  142MOL0     C19092   1.267   3.368   5.388  0.2457  0.3020 -0.7925
  142MOL0     C19093   1.268   3.275   5.279  0.2104 -0.7565 -0.1895
  142MOL0     O19094   1.182   3.277   5.174 -0.0908 -0.1283 -0.6627
  142MOL0     C19095   1.078   3.376   5.155  0.1321 -0.1143 -0.6363
  142MOL0     C19096   1.132   3.502   5.088 -0.0023 -0.4196  0.3325
  142MOL0     C19097   1.031   3.616   5.098 -0.5121  1.4698 -0.5691
  142MOL0     C19098   1.046   3.727   4.999  0.6360 -0.2108  0.5486
  142MOL0     C19099   0.950   3.832   5.036  0.6773  0.1722  0.5706
  142MOL0     C19100   0.880   3.924   5.056 -0.0908  0.1417  0.5627
  142MOL0     C19101   1.377   3.188   5.274  0.3401 -0.4707 -0.0630
  142MOL0     C19102   1.474   3.194   5.370 -0.6848  0.2007 -0.3359
  142MOL0     H19103   1.739   3.558   5.512  0.7578  2.4507 -0.0921
  142MOL0     H19104   1.976   3.630   5.548 -3.0460  0.4208 -0.2276
  142MOL0     H19105   2.248   3.597   5.927 -0.2106 -0.7655  0.9800
  142MOL0     H19106   2.195   3.429   5.865  2.4512 -0.6996 -0.4930
  142MOL0     H19107   2.395   3.634   5.767  1.6996 -0.3412 -1.0303
  142MOL0     H19108   2.429   3.465   5.811  2.2811  1.6635 -1.3922
  142MOL0     H19109   2.403   3.397   5.597  1.2970  1.4491  1.8693
  142MOL0     H19110   2.236   3.419   5.618  0.6561 -0.3253  0.1310
  142MOL0     H19111   2.332   3.506   5.414  3.7505 -1.7805  0.1674
  142MOL0     H19112   2.288   3.657   5.507  1.2165  1.2617  1.3413
  142MOL0     H19113   2.543   3.607   5.599  0.9417 -0.6396 -1.6274
  142MOL0     H19114   2.563   3.554   5.440  3.7643  2.9520  0.6740
  142MOL0     H19115   2.451   3.735   5.350  2.9487 -2.8213 -1.3154
  142MOL0     H19116   2.426   3.813   5.516  0.0271 -3.0895  0.9661
  142MOL0     H19117   2.678   3.845   5.517  0.5082 -0.1290 -0.4674
  142MOL0     H19118   2.678   3.752   5.365 -3.4646 -1.6708 -1.2418
  142MOL0     H19119   2.572   3.932   5.247 -0.4074 -3.9546  0.9604
  142MOL0     H19120   2.718   3.995   5.315 -0.1256 -0.1975 -0.3174
  142MOL0     H19121   2.380   4.117   5.295  1.9531  1.1164 -1.9617
  142MOL0     H19122   2.344   4.378   5.580  1.8293 -1.7346  1.9457
  142MOL0     H19123   2.264   4.340   5.417  1.1020 -2.3723 -0.8246
  142MOL0     H19124   2.099   4.295   5.617  0.6870 -1.9312  1.8341
  142MOL0     H19125   2.221   4.167   5.661  0.5947 -3.3186 -1.9822
  142MOL0     H19126   2.170   4.037   5.480 -4.5958 -3.0110 -2.0114
  142MOL0     H19127   2.096   4.173   5.386 -0.3478 -0.9286 -0.5165
  142MOL0     H19128   1.911   4.203   5.506  1.1405  0.7633  2.5358
  142MOL0     H19129   1.970   4.076   5.635  1.2053  0.6612  1.3137
  142MOL0     H19130   1.802   3.793   5.331  0.9110  1.3320 -0.0735
  142MOL0     H19131   1.635   3.675   5.240  3.2253  2.7491  1.1979
  142MOL0     H19132   1.538   3.612   5.380 -4.7984 -0.3569 -1.5885
  142MOL0     H19133   1.466   3.714   5.266 -2.1104 -0.6719  4.2355
  142MOL0     H19134   1.170   3.966   5.351 -0.0691  2.7748  0.2503
  142MOL0     H19135   0.942   3.946   5.310  0.3787  0.6025 -0.0845
  142MOL0     H19136   0.694   4.002   5.317  0.9030 -0.0001  0.3594
  142MOL0     H19137   0.736   3.835   5.302 -2.3642 -1.2209 -0.5866
  142MOL0     H19138   0.540   3.761   5.415  0.5517 -0.3718 -0.0528
  142MOL0     H19139   0.485   3.931   5.427 -1.4679 -0.2626 -0.9953
  142MOL0     H19140   0.544   3.936   5.169 -1.1880  0.4536 -0.8523
  142MOL0     H19141   0.397   3.858   5.241 -0.7583  0.4425  2.7719
  142MOL0     H19142   0.665   3.710   5.156 -0.1415  0.3412 -1.4694
  142MOL0     H19143   0.505   3.637   5.194 -4.8229  1.2403 -2.1510
  142MOL0     H19144   0.481   3.824   4.966 -3.4654  0.7015  1.5516
  142MOL0     H19145   0.402   3.682   4.999  0.5665 -1.4553 -2.8009
  142MOL0     H19146   0.694   3.686   4.909  0.4373 -0.0973  1.1141
  142MOL0     H19147   0.602   3.542   4.966  0.0291  0.1880  0.7773
  142MOL0     H19148   0.608   3.556   4.729  3.0285  1.6083  0.1711
  142MOL0     H19149   0.513   3.713   4.730 -3.3530 -2.3203 -2.5672
  142MOL0     H19150   0.314   3.595   4.818  1.2559  0.5845 -3.1868
  142MOL0     H19151   0.408   3.460   4.878  0.0802  1.6175  2.3794
  142MOL0     H19152   0.863   3.908   5.731  0.0439  3.0210  0.0758
  142MOL0     H19153   1.124   3.876   5.762 -0.1536 -0.5450  0.5928
  142MOL0     H19154   1.485   4.046   5.620 -1.2030 -1.5667  1.3586
  142MOL0     H19155   1.716   4.136   5.588 -0.7400 -1.0619  3.4878
  142MOL0     H19156   1.958   3.424   5.933  0.1309 -1.3519 -0.4714
  142MOL0     H19157   1.736   3.376   5.887 -1.3693  2.9140  1.3726
  142MOL0     H19158   1.373   3.434   5.571  0.8357 -0.8061  0.9359
  142MOL0     H19159   1.201   3.454   5.385 -1.3145 -0.8509 -1.4075
  142MOL0     H19160   1.002   3.337   5.086  1.3144 -0.4375 -1.7935
  142MOL0     H19161   1.036   3.402   5.253  5.1557  0.5216  1.6453
  142MOL0     H19162   1.162   3.486   4.985 -0.2337  4.5888 -0.7782
  142MOL0     H19163   1.218   3.538   5.147 -1.1094  0.2195  1.6247
  142MOL0     H19164   1.032   3.665   5.196  1.7482  1.1711 -0.3707
  142MOL0     H19165   0.934   3.571   5.076 -0.5082  1.9751 -1.6881
  142MOL0     H19166   1.039   3.698   4.894  3.1628  0.6682  0.0822
  142MOL0     H19167   1.136   3.783   5.023 -0.8000  2.6130 -0.2296
  142MOL0     H19168   0.809   4.003   5.063 -0.2342  0.4019 -2.4160
  142MOL0     H19169   1.395   3.127   5.186 -0.1110  0.3482 -0.7320
  142MOL0     H19170   1.557   3.126   5.354 -0.6573  0.4437 -1.3005
  143MOL0     O19171   2.371   3.558   1.205 -0.0530 -0.3142 -0.6315
  143MOL0     C19172   2.335   3.478   1.288  0.1048  0.0655  0.6694
  143MOL0     O19173   2.420   3.432   1.391  0.1802  0.1647 -0.9151
  143MOL0     C19174   2.538   3.497   1.411  0.3566  0.1413  0.2789
  143MOL0     C19175   2.565   3.590   1.507 -0.3512 -0.3239  0.5047
  143MOL0     C19176   2.694   3.650   1.518  0.4385 -0.1282 -0.1056
  143MOL0     C19177   2.799   3.620   1.435  1.4976  0.4530 -0.8134
  143MOL0     O19178   2.923   3.682   1.436 -0.4060  0.2699  0.2756
  143MOL0     C19179   2.998   3.674   1.553 -1.1101 -0.4647 -1.0314
  143MOL0     C19180   3.121   3.780   1.553 -0.6573  0.6844 -0.8395
  143MOL0     C19181   3.230   3.741   1.663 -0.4117 -0.1570 -0.5706
  143MOL0     C19182   3.356   3.813   1.632 -0.4876 -0.6732  0.4713
  143MOL0     C19183   3.360   3.964   1.660  0.7226  0.7825  0.5082
  143MOL0     C19184   3.509   4.021   1.640  0.0157 -0.7491 -0.0512
  143MOL0     C19185   3.510   4.167   1.699 -0.2043  0.1676  1.2346
  143MOL0     C19186   3.404   4.264   1.645  0.3140 -0.2807 -0.8910
  143MOL0     N19187   3.427   4.398   1.706 -0.8023  0.7353 -0.3204
  143MOL0     C19188   3.513   4.500   1.660 -0.1457 -0.3349  0.0694
  143MOL0     C19189   3.484   4.601   1.750  0.1202  0.8157  0.4091
  143MOL0     C19190   3.560   4.731   1.765 -0.1714 -0.8950 -0.9025
  143MOL0     C19191   3.478   4.852   1.767 -0.4639  0.4911  0.4145
  143MOL0     C19192   3.550   4.969   1.684 -0.7530 -0.8150  0.3964
  143MOL0     C19193   3.692   5.022   1.737  0.4601 -0.4755 -0.3038
  143MOL0     O19194   3.789   4.973   1.645  0.2381  0.1052 -0.4511
  143MOL0     C19195   3.921   5.016   1.661 -0.6420 -0.7516 -0.3151
  143MOL0     C19196   4.005   4.990   1.553  0.7447  0.2120 -0.2414
  143MOL0     C19197   4.137   5.023   1.546 -0.1061  0.1153  0.0571
  143MOL0     C19198   4.204   4.982   1.418  0.2262  0.0706  0.3530
  143MOL0     C19199   4.196   5.102   1.650 -0.3005  0.3038  0.8921
  143MOL0     C19200   4.336   5.154   1.654 -0.8609 -0.1353 -0.1082
  143MOL0     O19201   4.372   5.216   1.771  0.2500 -0.5258 -0.4297
  143MOL0     C19202   4.507   5.235   1.791 -0.3166  0.6387 -0.4353
  143MOL0     C19203   4.601   5.127   1.830 -1.1073 -0.5004  0.6341
  143MOL0     C19204   4.738   5.153   1.836 -0.8021 -0.0407 -0.2260
  143MOL0     C19205   4.790   5.276   1.804  0.2277  0.8380  0.4431
  143MOL0     O19206   4.917   5.323   1.783 -0.2625  0.2038  0.1657
  143MOL0     C19207   5.025   5.226   1.778  1.1086  0.0233  0.7114
  143MOL0     C19208   5.030   5.145   1.653  0.2284 -1.0591  0.3723
  143MOL0     C19209   5.147   5.043   1.637 -0.5809 -0.5966 -0.3813
  143MOL0     C19210   5.277   5.107   1.594  0.2002  0.4198  0.1645
  143MOL0     C19211   5.387   4.997   1.575 -0.2697 -0.0416  0.3699
  143MOL0     C19212   5.469   4.961   1.695 -0.4862  0.5309 -0.5970
  143MOL0     C19213   5.395   4.886   1.808  0.4159 -0.8451  0.3903
  143MOL0     C19214   5.481   4.798   1.899 -0.7471 -0.5764 -0.1324
  143MOL0    Cl19215   5.370   4.704   1.994  0.4831 -0.2564  0.0998
  143MOL0     C19216   4.704   5.383   1.807 -0.6650  1.1395 -0.0319
  143MOL0     C19217   4.564   5.355   1.798  0.1164  0.3345 -0.5663
  143MOL0     O19218   4.423   5.123   1.567  0.5680 -0.9671  0.4829
  143MOL0     C19219   4.106   5.142   1.753  0.0388 -0.1028  0.0557
  143MOL0     C19220   3.973   5.098   1.767 -0.5488 -0.2636 -0.1459
  143MOL0     N19221   3.376   4.569   1.826 -0.1301 -0.1317  0.2595
  143MOL0     N19222   3.342   4.450   1.804 -0.3378  0.0125  1.1037
  143MOL0     C19223   2.769   3.530   1.333 -1.6710 -0.3361 -0.0854
  143MOL0     C19224   2.647   3.458   1.329 -0.0971 -0.1458  0.3567
  143MOL0     C19225   2.195   3.433   1.280 -0.7430 -0.1902 -0.1555
  143MOL0     C19226   2.174   3.299   1.318 -0.5423 -0.0432  0.5824
  143MOL0     C19227   2.038   3.262   1.333 -0.1978  0.4364 -0.4796
  143MOL0     C19228   1.933   3.349   1.295  0.8463 -0.2579 -0.1985
  143MOL0     O19229   1.794   3.322   1.298 -0.0161  0.0192 -0.3024
  143MOL0     C19230   1.756   3.188   1.336 -0.5545  1.3660  0.4002
  143MOL0     C19231   1.617   3.134   1.297  0.6972  0.2793  0.6431
  143MOL0     C19232   1.498   3.227   1.331 -0.3008  0.5765  0.7183
  143MOL0     C19233   1.363   3.156   1.313  1.3156 -0.8271  0.2383
  143MOL0     C19234   1.264   3.260   1.343 -0.0324 -0.1252  0.4119
  143MOL0     C19235   1.185   3.348   1.369  0.2052  0.2104 -1.1366
  143MOL0     C19236   1.964   3.482   1.259 -0.5589  0.3867 -0.2679
  143MOL0     C19237   2.096   3.524   1.248  0.0443 -1.2274 -0.4695
  143MOL0     H19238   2.482   3.619   1.570 -0.3636 -1.0280  0.8259
  143MOL0     H19239   2.707   3.709   1.609 -0.0376 -1.3915  0.8035
  143MOL0     H19240   2.929   3.700   1.634 -0.5208 -1.8446 -0.0501
  143MOL0     H19241   3.043   3.577   1.579 -0.6460  0.7719  3.8081
  143MOL0     H19242   3.163   3.788   1.452 -0.9180  0.8614 -0.9347
  143MOL0     H19243   3.081   3.878   1.581  1.2766  0.7291  2.3230
  143MOL0     H19244   3.184   3.775   1.756 -3.6152  0.4237 -2.2455
  143MOL0     H19245   3.257   3.635   1.665  0.7193  0.1165 -0.2338
  143MOL0     H19246   3.445   3.777   1.685 -0.3043 -0.7798  0.0929
  143MOL0     H19247   3.366   3.799   1.524 -0.6891 -0.6547  0.4490
  143MOL0     H19248   3.287   4.013   1.595 -0.5596 -0.4859  0.9377
  143MOL0     H19249   3.327   3.988   1.761 -2.6228 -2.2895  0.3459
  143MOL0     H19250   3.584   3.964   1.695  0.4014 -1.3663 -1.1802
  143MOL0     H19251   3.532   4.021   1.533 -1.4045 -0.5162 -0.3862
  143MOL0     H19252   3.511   4.163   1.808 -3.5313  3.0453  1.5405
  143MOL0     H19253   3.608   4.203   1.665 -1.1787  2.1945  0.3830
  143MOL0     H19254   3.309   4.224   1.683  0.6063  1.7787  2.3347
  143MOL0     H19255   3.399   4.260   1.536 -0.3408 -1.1377 -0.8374
  143MOL0     H19256   3.583   4.504   1.578  0.6154  3.0978  0.7222
  143MOL0     H19257   3.619   4.726   1.856 -0.7194 -1.1599 -0.5590
  143MOL0     H19258   3.631   4.735   1.682 -2.7777 -2.4382 -3.3994
  143MOL0     H19259   3.446   4.888   1.864 -1.4568  2.6538 -0.6530
  143MOL0     H19260   3.386   4.826   1.714  0.3533  1.9877 -1.8924
  143MOL0     H19261   3.487   5.058   1.699  1.1454  0.6415  0.1649
  143MOL0     H19262   3.564   4.943   1.579  0.4217  1.4200 -0.0639
  143MOL0     H19263   3.705   4.986   1.840  0.7803  0.8529  0.1406
  143MOL0     H19264   3.700   5.131   1.732  2.8029 -0.5176  0.9748
  143MOL0     H19265   3.946   4.939   1.477  1.7016 -1.1369 -0.1175
  143MOL0     H19266   4.225   5.081   1.378  0.2663 -1.1293 -2.9489
  143MOL0     H19267   4.295   4.923   1.429 -1.0190 -1.9726  0.3613
  143MOL0     H19268   4.139   4.925   1.351  2.0715  1.1674 -2.5783
  143MOL0     H19269   4.558   5.028   1.835 -2.8761  0.0057 -2.1352
  143MOL0     H19270   4.805   5.071   1.859 -1.1242  0.1219  1.4819
  143MOL0     H19271   5.125   5.271   1.778  1.0209  0.2220  1.1389
  143MOL0     H19272   5.012   5.156   1.860 -1.3410 -0.6696 -0.1945
  143MOL0     H19273   4.936   5.089   1.650  1.3698 -3.2363  2.2081
  143MOL0     H19274   5.045   5.204   1.562 -1.8134 -2.8530 -1.2430
  143MOL0     H19275   5.119   4.972   1.559  1.5876 -2.2770  0.2672
  143MOL0     H19276   5.161   4.989   1.732  2.7526  1.8894  0.7479
  143MOL0     H19277   5.251   5.145   1.495 -0.6848 -0.3287  0.1032
  143MOL0     H19278   5.317   5.178   1.666  1.9191 -1.3832  1.0871
  143MOL0     H19279   5.451   5.026   1.492  0.1432 -2.7392 -0.3417
  143MOL0     H19280   5.330   4.909   1.545 -1.4119  0.6664  0.4100
  143MOL0     H19281   5.556   4.902   1.665 -2.1904 -3.7328  2.0565
  143MOL0     H19282   5.509   5.056   1.732 -2.4067  1.5703 -1.0616
  143MOL0     H19283   5.321   4.827   1.753  1.8991  0.1719 -2.9945
  143MOL0     H19284   5.354   4.956   1.881 -0.5345  1.6426 -2.3311
  143MOL0     H19285   5.555   4.858   1.953 -1.4363  1.6089 -1.4951
  143MOL0     H19286   5.539   4.734   1.832 -0.0201 -1.2640  1.1269
  143MOL0     H19287   4.739   5.486   1.797  0.7839  0.6921  0.2086
  143MOL0     H19288   4.490   5.434   1.791 -0.1034  0.0854 -1.1298
  143MOL0     H19289   4.144   5.212   1.826 -0.0625  1.7866 -1.6167
  143MOL0     H19290   3.918   5.125   1.856 -0.4401 -3.4128  1.0263
  143MOL0     H19291   2.845   3.510   1.259 -1.9652 -1.4103 -0.1160
  143MOL0     H19292   2.627   3.378   1.259 -0.4418 -1.2351  1.6718
  143MOL0     H19293   2.257   3.234   1.344  1.1555  1.4388 -0.8542
  143MOL0     H19294   2.029   3.167   1.384  2.8689 -0.2772 -1.0390
  143MOL0     H19295   1.818   3.116   1.281 -1.4966  0.2081  0.7967
  143MOL0     H19296   1.756   3.163   1.442 -1.4950 -0.0722  0.0932
  143MOL0     H19297   1.596   3.039   1.348 -2.4119 -1.5550 -3.4784
  143MOL0     H19298   1.618   3.121   1.188  0.2001  1.1769  0.5168
  143MOL0     H19299   1.505   3.309   1.258 -1.6120 -0.1082 -0.2238
  143MOL0     H19300   1.504   3.258   1.435 -2.6182 -0.1537  1.1284
  143MOL0     H19301   1.364   3.078   1.389  1.6739 -0.8014  0.2611
  143MOL0     H19302   1.349   3.114   1.213 -0.1181  0.3358 -0.0866
  143MOL0     H19303   1.111   3.423   1.387 -1.2616 -1.9143  3.1092
  143MOL0     H19304   1.885   3.555   1.242 -1.3740 -0.8959 -2.4012
  143MOL0     H19305   2.128   3.626   1.231  1.6875 -1.1189  2.6312
  144MOL0     O19306   8.779   6.501   9.200 -0.1657  0.1658  0.0168
  144MOL0     C19307   8.777   6.583   9.106 -0.7931  0.1289 -0.0324
  144MOL0     O19308   8.892   6.635   9.048  0.0658 -0.5479  0.3443
  144MOL0     C19309   9.017   6.575   9.074  0.0480 -0.2144 -0.3439
  144MOL0     C19310   9.068   6.472   8.991 -0.8545  0.0616 -0.1278
  144MOL0     C19311   9.190   6.406   9.033 -0.0053 -0.2927  0.6171
  144MOL0     C19312   9.263   6.447   9.145  0.8724 -0.7079 -0.0647
  144MOL0     O19313   9.374   6.388   9.183 -0.2342 -0.0117 -0.9075
  144MOL0     C19314   9.484   6.418   9.096  0.0989  0.4252  0.4069
  144MOL0     C19315   9.610   6.403   9.188  0.8990  0.5939  0.4703
  144MOL0     C19316   9.732   6.464   9.132 -0.1353 -0.3208  0.4551
  144MOL0     C19317   9.775   6.388   8.998 -0.1021  0.1105 -0.2567
  144MOL0     C19318   9.909   6.416   8.923  0.1551 -0.0813 -0.5165
  144MOL0     C19319   9.933   6.323   8.801  0.4572 -0.7909 -0.1338
  144MOL0     C19320  10.075   6.360   8.743  0.6000 -0.1658 -0.1394
  144MOL0     C19321  10.094   6.504   8.675  0.3997 -0.3029 -0.0910
  144MOL0     N19322  10.003   6.510   8.559 -0.0046 -0.6445 -0.0863
  144MOL0     C19323   9.888   6.597   8.549 -0.0693  0.2811 -0.3583
  144MOL0     C19324   9.814   6.535   8.454 -0.1920  0.1545  1.1084
  144MOL0     C19325   9.684   6.575   8.396 -0.2817 -0.2651 -0.4620
  144MOL0     C19326   9.689   6.548   8.246 -0.0803  0.2842 -0.3257
  144MOL0     C19327   9.555   6.590   8.179 -0.0999  0.2397 -0.8344
  144MOL0     C19328   9.552   6.551   8.025 -0.1567 -0.5639  0.8258
  144MOL0     O19329   9.638   6.631   7.943  0.6801  0.5242  0.0874
  144MOL0     C19330   9.670   6.587   7.815 -1.3029 -0.6410  0.0285
  144MOL0     C19331   9.618   6.477   7.745  0.2214 -0.4670 -0.5571
  144MOL0     C19332   9.667   6.444   7.620  0.3590  0.3145 -0.9944
  144MOL0     C19333   9.592   6.330   7.542  0.2799 -0.0807  0.6509
  144MOL0     C19334   9.771   6.518   7.555  0.2944 -0.7421 -0.1840
  144MOL0     C19335   9.832   6.477   7.427  0.1830 -0.3409  0.1415
  144MOL0     O19336   9.856   6.348   7.389 -0.3441  0.5627 -0.5559
  144MOL0     C19337   9.933   6.327   7.277 -0.8716 -0.4636 -1.4060
  144MOL0     C19338  10.051   6.248   7.288  0.6805 -0.0387  0.2763
  144MOL0     C19339  10.125   6.232   7.166  0.1940 -1.1504  1.0261
  144MOL0     C19340  10.074   6.284   7.036 -0.1069  0.3323 -1.1574
  144MOL0     O19341  10.151   6.251   6.930 -0.0527  0.1709 -0.2628
  144MOL0     C19342  10.149   6.339   6.811  0.4060 -0.3828 -0.1223
  144MOL0     C19343  10.114   6.271   6.680  0.2028  0.0080 -0.6367
  144MOL0     C19344  10.235   6.185   6.632 -0.4096  0.1057 -0.1248
  144MOL0     C19345  10.298   6.241   6.499 -0.1720 -0.4424 -0.5524
  144MOL0     C19346  10.441   6.202   6.487 -0.2085  0.1563 -0.7052
  144MOL0     C19347  10.514   6.294   6.389  1.2700 -0.0369 -0.4759
  144MOL0     C19348  10.636   6.224   6.340 -0.2293  0.5285 -1.0702
  144MOL0     C19349  10.719   6.317   6.243 -0.2771 -0.0853 -0.5953
  144MOL0    Cl19350  10.625   6.388   6.111 -0.2789 -0.2407  0.2095
  144MOL0     C19351   9.953   6.349   7.037 -0.8839 -1.2670  0.3031
  144MOL0     C19352   9.886   6.368   7.150  1.0203 -0.4213 -0.9836
  144MOL0     O19353   9.868   6.577   7.361  0.3038  0.2041 -0.4608
  144MOL0     C19354   9.823   6.626   7.621 -0.3038 -0.2531  0.1754
  144MOL0     C19355   9.774   6.663   7.751 -0.8598 -0.2048  0.0226
  144MOL0     N19356   9.868   6.418   8.412 -0.0281 -0.0928 -0.0018
  144MOL0     N19357   9.982   6.414   8.477  0.1885 -0.3690  0.4650
  144MOL0     C19358   9.217   6.550   9.217  0.3828 -0.9017  0.2535
  144MOL0     C19359   9.096   6.615   9.184  0.6743 -0.2437 -0.4854
  144MOL0     C19360   8.637   6.615   9.051  0.6057 -0.3342 -0.2809
  144MOL0     C19361   8.518   6.574   9.105 -0.1226  0.4553 -0.4823
  144MOL0     C19362   8.398   6.608   9.055  0.6315 -0.4520 -0.8115
  144MOL0     C19363   8.385   6.689   8.942 -0.0083  0.2037 -0.6838
  144MOL0     O19364   8.261   6.741   8.899  0.2986  0.2482  0.1746
  144MOL0     C19365   8.163   6.766   8.997  0.5434 -0.3390 -0.2795
  144MOL0     C19366   8.040   6.834   8.939 -0.1012 -0.5664 -0.6319
  144MOL0     C19367   7.965   6.745   8.852  1.1146  0.7540  0.3163
  144MOL0     C19368   7.822   6.808   8.840 -0.1091  0.5486 -0.3885
  144MOL0     C19369   7.749   6.752   8.723 -0.6030 -0.1038  0.5436
  144MOL0     C19370   7.679   6.720   8.628 -0.9414 -0.2175  0.4687
  144MOL0     C19371   8.501   6.718   8.877 -0.4373  0.4896 -0.7410
  144MOL0     C19372   8.625   6.681   8.929 -0.8128 -0.4531 -0.4062
  144MOL0     H19373   9.003   6.433   8.914 -1.2624 -0.7954  0.6264
  144MOL0     H19374   9.235   6.326   8.975  0.8130  1.5974 -1.4871
  144MOL0     H19375   9.486   6.346   9.014 -1.5553 -2.0676  2.4096
  144MOL0     H19376   9.480   6.519   9.054  1.1624  2.1415  4.0103
  144MOL0     H19377   9.596   6.468   9.275 -4.5287  2.6699 -1.4942
  144MOL0     H19378   9.637   6.301   9.218  1.2329  0.8094  0.9214
  144MOL0     H19379   9.702   6.568   9.113 -1.5443 -0.8023 -0.1024
  144MOL0     H19380   9.817   6.462   9.201 -0.4359 -0.5428  0.8268
  144MOL0     H19381   9.782   6.280   9.015  3.3059  0.3322  0.4783
  144MOL0     H19382   9.688   6.409   8.935  0.2286  0.8962 -0.4690
  144MOL0     H19383   9.916   6.520   8.888  2.7293 -0.3416 -0.9670
  144MOL0     H19384   9.981   6.418   9.005  1.2315  0.9939 -1.4432
  144MOL0     H19385   9.930   6.219   8.834 -2.1164 -0.0875  2.1993
  144MOL0     H19386   9.850   6.339   8.731 -1.2221 -2.4057  1.3598
  144MOL0     H19387  10.162   6.348   8.808 -0.1733  1.5739  1.2705
  144MOL0     H19388  10.089   6.287   8.662  2.0092 -0.5871  0.4453
  144MOL0     H19389  10.194   6.524   8.636 -0.0869  3.3425  0.1030
  144MOL0     H19390  10.072   6.579   8.752 -0.9710 -0.2787 -0.4834
  144MOL0     H19391   9.879   6.697   8.591 -1.9492 -0.8275  2.1076
  144MOL0     H19392   9.597   6.522   8.436 -0.1982 -1.6060 -1.9547
  144MOL0     H19393   9.675   6.683   8.414  3.1111 -0.2339  2.0761
  144MOL0     H19394   9.686   6.442   8.220  1.4201  0.3183 -0.7331
  144MOL0     H19395   9.775   6.595   8.198  0.8739 -0.0890  0.9524
  144MOL0     H19396   9.534   6.696   8.195  0.2024  0.0838  0.7787
  144MOL0     H19397   9.477   6.531   8.229  1.9628 -0.6170  1.5809
  144MOL0     H19398   9.455   6.549   7.975  0.6298  2.9286 -1.2450
  144MOL0     H19399   9.572   6.443   8.023 -2.2481 -0.9823  1.1410
  144MOL0     H19400   9.535   6.424   7.791 -1.9061  4.7467  2.4775
  144MOL0     H19401   9.620   6.304   7.439 -0.9111 -3.4231  1.0426
  144MOL0     H19402   9.595   6.238   7.600 -2.6315 -0.2292  0.7141
  144MOL0     H19403   9.487   6.361   7.545  0.1220  0.1476 -2.9599
  144MOL0     H19404  10.095   6.209   7.380  1.2298 -2.9937 -1.1358
  144MOL0     H19405  10.216   6.174   7.170 -1.2232 -3.5089  0.8857
  144MOL0     H19406  10.078   6.422   6.822 -0.6976 -1.2907 -0.1311
  144MOL0     H19407  10.248   6.383   6.811 -0.3356  1.6009  3.4336
  144MOL0     H19408  10.016   6.222   6.688 -0.0538  0.5105 -0.6352
  144MOL0     H19409  10.099   6.347   6.602  2.1537  1.4828  0.3538
  144MOL0     H19410  10.189   6.089   6.609 -0.1421  0.2094 -1.1397
  144MOL0     H19411  10.307   6.174   6.713  0.0283  0.7814 -0.4103
  144MOL0     H19412  10.231   6.227   6.414  0.0412 -0.5067 -0.7123
  144MOL0     H19413  10.305   6.349   6.514  0.8348 -0.4880 -0.5802
  144MOL0     H19414  10.440   6.100   6.448 -2.5215  0.9884 -3.1296
  144MOL0     H19415  10.491   6.200   6.585  1.4456 -1.5984 -1.5369
  144MOL0     H19416  10.447   6.318   6.306 -1.6783 -3.8738  0.5315
  144MOL0     H19417  10.530   6.391   6.438 -1.9569  1.8034 -2.6720
  144MOL0     H19418  10.612   6.140   6.275  1.1575  1.5867 -3.0479
  144MOL0     H19419  10.698   6.190   6.424 -3.3594 -2.2414  0.3780
  144MOL0     H19420  10.805   6.268   6.197  0.9352  2.1309 -0.8448
  144MOL0     H19421  10.753   6.403   6.302 -1.1372  0.3414 -0.7026
  144MOL0     H19422   9.905   6.370   6.943  1.1242  1.7493 -0.2077
  144MOL0     H19423   9.784   6.402   7.132  0.9516 -1.3509 -2.5592
  144MOL0     H19424   9.907   6.682   7.583 -0.6355  2.6953  3.3114
  144MOL0     H19425   9.825   6.746   7.798 -0.1773 -0.9241  0.5762
  144MOL0     H19426   9.259   6.575   9.314  2.3847  0.4614 -0.8930
  144MOL0     H19427   9.060   6.703   9.238  3.7524  0.1717  1.0967
  144MOL0     H19428   8.508   6.519   9.198 -1.9339  0.6473 -0.5373
  144MOL0     H19429   8.308   6.577   9.106  1.2057  2.8087  2.6998
  144MOL0     H19430   8.131   6.675   9.049 -0.0191  0.0865  0.1221
  144MOL0     H19431   8.208   6.830   9.072  1.4338  2.1833 -2.7693
  144MOL0     H19432   8.067   6.919   8.875 -0.1561  1.6266  2.0701
  144MOL0     H19433   7.980   6.876   9.020 -1.6882 -0.8402 -1.6310
  144MOL0     H19434   7.954   6.640   8.880 -0.7559  0.1412 -2.2862
  144MOL0     H19435   8.021   6.739   8.758 -0.5899  0.9893 -0.7814
  144MOL0     H19436   7.829   6.917   8.828 -0.1809  0.6958  0.8593
  144MOL0     H19437   7.768   6.785   8.932  1.8751  1.3522  1.0494
  144MOL0     H19438   7.624   6.687   8.542 -0.1174 -1.1204  0.2748
  144MOL0     H19439   8.494   6.773   8.783  3.2043 -2.3506 -2.9357
  144MOL0     H19440   8.710   6.712   8.869 -1.5946  2.1437 -0.2564
  145MOL0     O19441  10.261   6.297   0.235 -0.5262 -0.8100  0.2511
  145MOL0     C19442  10.237   6.200   0.164 -0.7379  0.0482 -0.4866
  145MOL0     O19443  10.317   6.087   0.156 -0.5490 -0.8951 -0.7002
  145MOL0     C19444  10.431   6.076   0.220 -0.2538  0.1820 -0.1939
  145MOL0     C19445  10.563   6.079   0.150  0.8457 -0.0028  0.6065
  145MOL0     C19446  10.684   6.093   0.219 -0.1907 -0.7954 -0.2252
  145MOL0     C19447  10.680   6.085   0.359  0.1166  0.8196 -0.8639
  145MOL0     O19448  10.798   6.083   0.431 -0.2298  0.6584  0.3844
  145MOL0     C19449  10.871   5.967   0.448  0.6042  0.3988 -0.8657
  145MOL0     C19450  10.794   5.869   0.528 -0.4539 -0.9801  0.1346
  145MOL0     C19451  10.880   5.753   0.583 -0.5339 -0.9430 -0.1240
  145MOL0     C19452  10.792   5.630   0.598  0.3674  0.2363  0.2702
  145MOL0     C19453  10.886   5.509   0.608 -0.1961 -0.4551  0.1153
  145MOL0     C19454  10.811   5.382   0.620  0.1955 -0.1531  0.6599
  145MOL0     C19455  10.741   5.342   0.494  0.2317  0.3698  0.2028
  145MOL0     C19456  10.832   5.336   0.361 -0.8879 -0.9057  0.8819
  145MOL0     N19457  10.837   5.467   0.299 -0.5411 -0.1928 -1.5865
  145MOL0     C19458  10.729   5.522   0.240 -0.2373 -0.1596 -0.8831
  145MOL0     C19459  10.791   5.628   0.172 -0.0616  0.8975 -0.2937
  145MOL0     C19460  10.718   5.726   0.075  0.2019  1.2669  1.0019
  145MOL0     C19461  10.753   5.708  -0.072  0.4637 -0.7198 -0.1608
  145MOL0     C19462  10.890   5.761  -0.112 -1.3213  0.5443  0.9254
  145MOL0     C19463  10.947   5.875  -0.025 -0.1249 -0.5201 -0.0626
  145MOL0     O19464  11.067   5.933  -0.084 -0.9935  0.2447 -0.8238
  145MOL0     C19465  11.135   6.030  -0.013  0.4738 -0.3465 -0.3679
  145MOL0     C19466  11.080   6.100   0.098 -0.1471 -0.2209 -0.0724
  145MOL0     C19467  11.168   6.192   0.169 -0.2593  0.4054  0.1264
  145MOL0     C19468  11.097   6.272   0.269  0.0271  0.4309 -1.1703
  145MOL0     C19469  11.303   6.201   0.139  0.3763 -0.0537 -0.5154
  145MOL0     C19470  11.408   6.287   0.203  0.4231 -0.0681 -0.2870
  145MOL0     O19471  11.535   6.244   0.189 -0.1807  0.3702 -0.2569
  145MOL0     C19472  11.638   6.338   0.195 -0.6121 -0.0433 -0.3893
  145MOL0     C19473  11.710   6.356   0.312 -0.4723 -1.0421  0.2963
  145MOL0     C19474  11.814   6.450   0.326 -0.3307 -1.2314 -0.1464
  145MOL0     C19475  11.842   6.536   0.221  0.7103  0.0847  0.2205
  145MOL0     O19476  11.930   6.644   0.227 -0.2531 -0.3882  0.1959
  145MOL0     C19477  12.045   6.603   0.295 -0.1605  0.1250 -0.3093
  145MOL0     C19478  12.158   6.716   0.290  1.1062  0.1091 -0.3443
  145MOL0     C19479  12.104   6.860   0.292  0.7643  0.6595  0.0854
  145MOL0     C19480  12.182   6.971   0.369 -0.0753  0.4164  0.0121
  145MOL0     C19481  12.115   6.991   0.504 -0.1176 -0.0906 -0.1274
  145MOL0     C19482  12.159   6.875   0.595  0.7111  0.1770 -0.3225
  145MOL0     C19483  12.157   6.912   0.745 -0.1004  0.2169 -0.2851
  145MOL0     C19484  12.211   6.825   0.845  1.1485  0.0416 -0.1874
  145MOL0    Cl19485  12.364   6.765   0.792 -0.3038  0.0896 -0.4111
  145MOL0     C19486  11.779   6.508   0.096 -1.0771  0.2869 -0.5019
  145MOL0     C19487  11.673   6.418   0.082 -0.2713 -0.6340  0.1208
  145MOL0     O19488  11.366   6.401   0.238 -0.6625  0.1256 -0.4279
  145MOL0     C19489  11.347   6.126   0.026  0.2121  0.6895  0.1330
  145MOL0     C19490  11.264   6.040  -0.048 -0.7608 -0.4278  0.5108
  145MOL0     N19491  10.923   5.636   0.208 -0.5163 -0.1762  0.6904
  145MOL0     N19492  10.948   5.539   0.286 -0.0695 -0.2075  0.4871
  145MOL0     C19493  10.563   6.071   0.427 -0.1866 -0.3307  0.0149
  145MOL0     C19494  10.438   6.073   0.365  0.2437  0.0758  0.0507
  145MOL0     C19495  10.102   6.211   0.102 -1.1134  0.8866  0.4986
  145MOL0     C19496  10.036   6.330   0.075 -0.6580  0.0106  1.0583
  145MOL0     C19497   9.903   6.334   0.028 -0.4241 -0.0782  0.0821
  145MOL0     C19498   9.835   6.213   0.017  0.2371 -0.0525  0.9538
  145MOL0     O19499   9.706   6.201  -0.012 -0.1136  0.4034  0.6110
  145MOL0     C19500   9.622   6.315  -0.002  0.9293  0.1166 -0.2173
  145MOL0     C19501   9.496   6.238   0.030  0.7671  0.7931 -0.8807
  145MOL0     C19502   9.382   6.328   0.078 -0.5734 -0.2769 -0.3720
  145MOL0     C19503   9.274   6.261   0.165  0.2424  0.5147  0.3860
  145MOL0     C19504   9.235   6.140   0.104  1.4430 -0.6960  0.0608
  145MOL0     C19505   9.207   6.034   0.065 -0.0709  0.2357  0.1391
  145MOL0     C19506   9.903   6.095   0.049 -0.1728 -0.3940  0.2844
  145MOL0     C19507  10.038   6.088   0.091  0.6009 -0.6906  0.6660
  145MOL0     H19508  10.556   6.085   0.041  1.3420 -1.9355  0.4336
  145MOL0     H19509  10.779   6.095   0.166  1.5404 -0.5276  2.6797
  145MOL0     H19510  10.891   5.917   0.353  1.4033  3.4108 -2.4113
  145MOL0     H19511  10.968   5.993   0.490 -0.0971 -0.0433  1.1833
  145MOL0     H19512  10.746   5.922   0.612 -4.6597 -2.3646 -1.1409
  145MOL0     H19513  10.708   5.831   0.472 -2.5293  1.1855  1.6278
  145MOL0     H19514  10.968   5.734   0.521 -0.8925  0.8790 -1.2594
  145MOL0     H19515  10.926   5.794   0.673  1.1973  0.9791 -1.7731
  145MOL0     H19516  10.734   5.629   0.691  0.7607  0.5082  0.5191
  145MOL0     H19517  10.721   5.622   0.515 -1.9804  1.1090  2.0747
  145MOL0     H19518  10.961   5.515   0.530 -0.7288  0.5241 -0.3377
  145MOL0     H19519  10.948   5.523   0.698  2.3782 -2.5907 -1.1982
  145MOL0     H19520  10.875   5.299   0.654  2.1262  0.7645 -0.5387
  145MOL0     H19521  10.731   5.396   0.693 -1.4661  0.5844 -1.2084
  145MOL0     H19522  10.704   5.241   0.513 -1.0194  1.2974  3.4423
  145MOL0     H19523  10.650   5.398   0.472 -0.5732 -1.5360 -1.6787
  145MOL0     H19524  10.798   5.258   0.293 -0.0501 -1.5939  1.2289
  145MOL0     H19525  10.933   5.308   0.392  0.2583  0.3121 -1.5178
  145MOL0     H19526  10.624   5.494   0.236 -0.6826  1.1274  0.6558
  145MOL0     H19527  10.610   5.711   0.087  0.4416 -1.0159  0.6629
  145MOL0     H19528  10.726   5.830   0.110 -2.5561  1.5471  1.0214
  145MOL0     H19529  10.681   5.764  -0.132  2.6031  2.8802  0.3581
  145MOL0     H19530  10.766   5.600  -0.083 -0.6630 -0.6943 -1.9936
  145MOL0     H19531  10.890   5.795  -0.216  1.0626 -1.0127  0.3183
  145MOL0     H19532  10.955   5.674  -0.101 -2.3867 -0.2700  1.0242
  145MOL0     H19533  10.963   5.825   0.071  0.5485  0.6222  0.4267
  145MOL0     H19534  10.876   5.958  -0.017 -1.0885 -1.2206 -0.9094
  145MOL0     H19535  10.974   6.096   0.121 -0.6710 -0.4357 -2.2390
  145MOL0     H19536  11.155   6.294   0.359 -0.3359  0.2935 -0.9048
  145MOL0     H19537  11.066   6.369   0.227 -3.8463  0.8041  1.9391
  145MOL0     H19538  11.006   6.221   0.300  1.7019 -0.6990  2.3731
  145MOL0     H19539  11.694   6.292   0.398 -2.6597 -1.9047 -0.6895
  145MOL0     H19540  11.856   6.453   0.427 -0.1170 -1.8524 -0.2137
  145MOL0     H19541  12.021   6.586   0.401  0.8093 -3.7869 -0.5709
  145MOL0     H19542  12.098   6.511   0.269 -0.0760 -0.4231  1.6526
  145MOL0     H19543  12.235   6.697   0.365  1.4337 -3.6620 -1.4191
  145MOL0     H19544  12.210   6.694   0.197  1.4872  1.1568 -0.3868
  145MOL0     H19545  12.005   6.856   0.339 -0.2987 -1.9906 -2.1090
  145MOL0     H19546  12.071   6.884   0.190 -2.1347  0.6110  0.9193
  145MOL0     H19547  12.289   6.950   0.380  0.3362  2.6665  0.8548
  145MOL0     H19548  12.178   7.067   0.317 -0.7249 -0.2694 -1.2431
  145MOL0     H19549  12.006   6.990   0.507 -0.1552  0.4455 -0.9895
  145MOL0     H19550  12.157   7.083   0.544  3.2607 -1.5360  0.0287
  145MOL0     H19551  12.087   6.794   0.579  1.6497 -0.6224 -0.6569
  145MOL0     H19552  12.264   6.847   0.577  0.5173 -1.1439  0.4427
  145MOL0     H19553  12.050   6.931   0.760 -0.0927  0.0105  0.0390
  145MOL0     H19554  12.219   7.000   0.762  0.8929  0.1893 -3.2248
  145MOL0     H19555  12.146   6.741   0.871  1.8542  0.5143  3.8165
  145MOL0     H19556  12.233   6.877   0.939  1.3141 -1.5560  0.6894
  145MOL0     H19557  11.822   6.584   0.031  1.9550  0.9263  2.0189
  145MOL0     H19558  11.617   6.421  -0.010 -0.3803  4.2867  0.0539
  145MOL0     H19559  11.446   6.124  -0.019 -0.9553 -0.8816 -2.5589
  145MOL0     H19560  11.318   5.984  -0.125 -0.5222 -0.2027  0.5120
  145MOL0     H19561  10.558   6.042   0.532 -1.2096 -2.1410 -0.4773
  145MOL0     H19562  10.344   6.068   0.420 -0.2424  0.8612 -0.6783
  145MOL0     H19563  10.092   6.423   0.078 -0.7608  0.0868  0.6644
  145MOL0     H19564   9.870   6.431  -0.008 -2.8355 -0.4679  1.0511
  145MOL0     H19565   9.644   6.382   0.081  1.0063 -1.3777  1.0144
  145MOL0     H19566   9.619   6.379  -0.090  0.7453  3.6841  2.2028
  145MOL0     H19567   9.513   6.171   0.114 -0.1732  0.0892 -1.2290
  145MOL0     H19568   9.460   6.184  -0.058 -0.6667 -2.6477  1.5938
  145MOL0     H19569   9.327   6.381  -0.000  0.6176  1.8251  0.1231
  145MOL0     H19570   9.430   6.406   0.138  0.1029 -1.2289  0.3696
  145MOL0     H19571   9.189   6.329   0.174 -0.1423  0.2069 -0.7841
  145MOL0     H19572   9.305   6.248   0.269  1.4683 -0.2226 -0.0547
  145MOL0     H19573   9.201   5.933   0.031 -2.8507 -0.2198  1.6886
  145MOL0     H19574   9.854   6.000   0.032  0.2091 -0.9068  1.9253
  145MOL0     H19575  10.086   5.995   0.121  0.1731 -1.0466  0.2732
  146MOL0     O19576   2.189   7.128   8.818 -0.0776 -0.4740  0.2610
  146MOL0     C19577   2.206   7.176   8.709 -0.0875 -1.2254  0.9474
  146MOL0     O19578   2.132   7.281   8.649 -0.5309  0.0178 -0.0079
  146MOL0     C19579   2.012   7.333   8.700 -0.3544  0.2381  0.0841
  146MOL0     C19580   1.950   7.434   8.622 -0.5867  0.5185  0.5078
  146MOL0     C19581   1.831   7.490   8.664 -0.0550  0.0529 -0.2139
  146MOL0     C19582   1.753   7.439   8.775  0.0816  0.4885  0.3360
  146MOL0     O19583   1.624   7.473   8.806  0.3631 -0.5959  1.1374
  146MOL0     C19584   1.580   7.603   8.742 -0.6297  0.6472 -0.2272
  146MOL0     C19585   1.451   7.641   8.795 -0.5539  1.0322  0.1086
  146MOL0     C19586   1.336   7.543   8.778 -0.1936  0.5199  0.2445
  146MOL0     C19587   1.207   7.615   8.826 -0.1448  0.1089 -0.5399
  146MOL0     C19588   1.083   7.532   8.813  0.2104  0.0610  1.0057
  146MOL0     C19589   1.045   7.461   8.948  0.0515  0.4131  0.1247
  146MOL0     C19590   0.902   7.395   8.940 -0.3982 -0.1639  0.6145
  146MOL0     C19591   0.905   7.269   8.838  0.4632 -1.0187  0.1145
  146MOL0     N19592   0.766   7.222   8.817 -0.2120 -0.3545  0.1961
  146MOL0     C19593   0.698   7.157   8.916 -0.0188 -0.2379  0.3704
  146MOL0     C19594   0.580   7.123   8.860 -0.7919 -0.7983  0.2354
  146MOL0     C19595   0.461   7.065   8.931  0.4796  0.2427 -0.3373
  146MOL0     C19596   0.462   6.916   8.956  0.8853 -0.3122  0.2955
  146MOL0     C19597   0.321   6.865   8.984  0.8823  0.6597  0.7765
  146MOL0     C19598   0.245   6.854   8.843  0.3571 -0.7648 -1.4617
  146MOL0     O19599   0.117   6.802   8.880 -0.2362 -0.2587  0.0657
  146MOL0     C19600   0.024   6.779   8.789 -0.8447 -0.3039  0.7317
  146MOL0     C19601  -0.087   6.701   8.818 -0.7702 -0.2669 -0.1283
  146MOL0     C19602  -0.177   6.651   8.722 -0.1272  0.2984  0.5359
  146MOL0     C19603  -0.288   6.571   8.790  0.5652  0.7845  0.6687
  146MOL0     C19604  -0.169   6.687   8.587 -0.9614 -0.7342  0.4586
  146MOL0     C19605  -0.267   6.660   8.478  0.1340 -0.6508 -0.0767
  146MOL0     O19606  -0.272   6.748   8.378  0.0011  0.1155 -0.2137
  146MOL0     C19607  -0.373   6.741   8.289  0.8261  0.1291  0.8206
  146MOL0     C19608  -0.491   6.792   8.336  0.0293  0.2038 -0.1380
  146MOL0     C19609  -0.595   6.820   8.249 -0.3372  0.0320  0.5724
  146MOL0     C19610  -0.584   6.806   8.105  0.1953 -0.6242  0.2850
  146MOL0     O19611  -0.685   6.829   8.018  0.3505  0.1513 -0.2872
  146MOL0     C19612  -0.719   6.966   7.983  0.1607  0.4893 -0.7177
  146MOL0     C19613  -0.812   6.967   7.864  1.0360 -0.0960 -0.1434
  146MOL0     C19614  -0.817   7.106   7.803 -0.1095  0.0489 -0.0300
  146MOL0     C19615  -0.916   7.106   7.694  0.6773  0.2522 -0.5958
  146MOL0     C19616  -0.887   7.207   7.585  1.6552 -0.1650  0.3411
  146MOL0     C19617  -0.975   7.180   7.463 -0.3360 -0.2712  0.3116
  146MOL0     C19618  -0.954   7.283   7.346 -0.6109  0.8212  0.1741
  146MOL0     C19619  -1.070   7.265   7.232  0.0853  0.0265 -0.3811
  146MOL0    Cl19620  -1.049   7.109   7.157  0.4298 -0.2143 -0.1117
  146MOL0     C19621  -0.460   6.759   8.061 -0.1576 -0.4513 -0.1613
  146MOL0     C19622  -0.356   6.729   8.154  0.9649  0.6621 -1.4627
  146MOL0     O19623  -0.335   6.557   8.481 -0.1428  0.4511 -0.5300
  146MOL0     C19624  -0.058   6.780   8.550  0.3114 -0.5311  0.2218
  146MOL0     C19625   0.028   6.811   8.653 -0.6717  0.7534  0.6739
  146MOL0     N19626   0.591   7.152   8.726  0.0443 -0.1080  0.3785
  146MOL0     N19627   0.706   7.203   8.697  0.1112  0.0589 -0.3273
  146MOL0     C19628   1.819   7.337   8.835 -0.0079  0.2716  0.1175
  146MOL0     C19629   1.940   7.278   8.804 -0.0261  1.0250 -0.6942
  146MOL0     C19630   2.318   7.135   8.623 -0.4168  0.2372 -0.2220
  146MOL0     C19631   2.353   7.208   8.506  0.7797 -0.5070  0.7278
  146MOL0     C19632   2.465   7.171   8.430  0.8786  0.2255 -0.4847
  146MOL0     C19633   2.538   7.055   8.458  0.3780  0.7298 -0.2948
  146MOL0     O19634   2.650   7.043   8.377  0.5297 -0.1311 -0.3093
  146MOL0     C19635   2.634   6.941   8.281  0.0746  0.3672  0.4264
  146MOL0     C19636   2.761   6.861   8.271 -0.1774 -0.0190  0.9925
  146MOL0     C19637   2.800   6.779   8.397  0.3661 -0.2439  0.1154
  146MOL0     C19638   2.907   6.671   8.364 -0.9949 -0.1858 -0.2328
  146MOL0     C19639   3.037   6.734   8.317  0.4884  0.4490  0.0912
  146MOL0     C19640   3.147   6.794   8.292 -0.0320  0.5586 -0.5673
  146MOL0     C19641   2.508   6.978   8.570  1.2049 -0.0006 -0.1751
  146MOL0     C19642   2.397   7.019   8.644 -0.9164  0.1192 -0.4364
  146MOL0     H19643   2.007   7.479   8.541 -2.0895  2.1454  0.3011
  146MOL0     H19644   1.777   7.551   8.592 -0.4921 -0.2567 -0.1518
  146MOL0     H19645   1.649   7.686   8.757  1.6455 -1.5098  2.5971
  146MOL0     H19646   1.550   7.581   8.639  1.6530 -2.6268 -0.3599
  146MOL0     H19647   1.472   7.654   8.901  4.7070  0.0343 -0.5036
  146MOL0     H19648   1.421   7.735   8.747 -1.0017  0.7577 -0.1537
  146MOL0     H19649   1.318   7.506   8.676 -0.0612  0.1013  0.3701
  146MOL0     H19650   1.364   7.448   8.824  0.6051  0.0931 -1.0596
  146MOL0     H19651   1.228   7.655   8.926 -1.5822 -4.5968  1.9762
  146MOL0     H19652   1.200   7.709   8.770 -0.5125 -0.0934 -0.8432
  146MOL0     H19653   0.993   7.589   8.786 -1.1031 -1.6025  1.6620
  146MOL0     H19654   1.093   7.449   8.742 -0.3630 -0.5372  1.6062
  146MOL0     H19655   1.113   7.380   8.977 -0.0214  0.2962 -0.0275
  146MOL0     H19656   1.039   7.536   9.028 -0.9371  1.6535 -1.0788
  146MOL0     H19657   0.881   7.365   9.042 -0.8792  1.2669  0.9544
  146MOL0     H19658   0.828   7.468   8.905 -1.4812 -1.1566  0.7779
  146MOL0     H19659   0.972   7.195   8.882  0.1630 -1.3440  0.0236
  146MOL0     H19660   0.945   7.301   8.741  0.8461  1.0557  0.8870
  146MOL0     H19661   0.728   7.147   9.020 -3.0518 -0.7416  1.2845
  146MOL0     H19662   0.463   7.119   9.026  2.6400 -0.2840 -0.0385
  146MOL0     H19663   0.367   7.095   8.882 -0.9998 -1.8329  1.0543
  146MOL0     H19664   0.510   6.895   9.052  1.7419 -1.9795 -0.4485
  146MOL0     H19665   0.512   6.865   8.873 -1.5846 -1.5540 -0.5496
  146MOL0     H19666   0.271   6.938   9.049  2.5220  1.8249  0.7881
  146MOL0     H19667   0.323   6.776   9.049  0.2093 -0.5115 -0.7380
  146MOL0     H19668   0.306   6.784   8.786  4.9299  1.8809 -0.3025
  146MOL0     H19669   0.222   6.944   8.785 -0.8375 -0.5844 -0.7591
  146MOL0     H19670  -0.110   6.692   8.924 -2.5716  2.5104 -0.1942
  146MOL0     H19671  -0.385   6.599   8.748  0.4581 -2.1493 -1.3004
  146MOL0     H19672  -0.263   6.466   8.773  0.5340  1.0538 -1.2820
  146MOL0     H19673  -0.304   6.589   8.897 -0.8590  0.6735  0.4993
  146MOL0     H19674  -0.502   6.812   8.442 -0.3855 -0.6220 -0.0107
  146MOL0     H19675  -0.681   6.866   8.295 -0.8561  1.3360 -1.5390
  146MOL0     H19676  -0.752   7.019   8.073  1.3737 -0.6732  0.4703
  146MOL0     H19677  -0.624   7.014   7.955  1.2616  0.6856  2.8135
  146MOL0     H19678  -0.765   6.904   7.788 -1.6755  0.5600 -2.5495
  146MOL0     H19679  -0.904   6.925   7.906  1.7135 -2.1695 -0.6322
  146MOL0     H19680  -0.719   7.120   7.755  0.4997 -2.2872  0.4097
  146MOL0     H19681  -0.821   7.186   7.876  1.0219 -1.5893  1.9400
  146MOL0     H19682  -0.926   7.000   7.667 -2.1582 -1.0279  4.2035
  146MOL0     H19683  -1.018   7.124   7.730 -0.8248 -2.2984 -3.0784
  146MOL0     H19684  -0.780   7.203   7.562  2.1556  0.2978  2.3405
  146MOL0     H19685  -0.904   7.308   7.626  1.3927 -0.4682  1.0009
  146MOL0     H19686  -0.944   7.085   7.416 -2.1304 -0.8108  0.1384
  146MOL0     H19687  -1.080   7.167   7.487 -0.8735  2.3353 -0.3835
  146MOL0     H19688  -0.855   7.260   7.304  0.1455 -0.1188  2.3143
  146MOL0     H19689  -0.950   7.387   7.381 -0.0732  0.0173  2.7403
  146MOL0     H19690  -1.048   7.341   7.156  0.9229 -1.7923 -2.0240
  146MOL0     H19691  -1.173   7.267   7.269 -0.5097 -5.7404 -0.9057
  146MOL0     H19692  -0.444   6.743   7.955 -0.6700  0.5211 -0.3911
  146MOL0     H19693  -0.264   6.702   8.104  0.3539  2.4355 -3.6921
  146MOL0     H19694  -0.038   6.817   8.450  3.8433 -0.1048  0.9570
  146MOL0     H19695   0.111   6.874   8.623 -3.4686  4.5763  0.2357
  146MOL0     H19696   1.756   7.291   8.910  0.8820 -2.1587 -0.5290
  146MOL0     H19697   1.980   7.205   8.874 -1.8136  0.8478  0.2095
  146MOL0     H19698   2.293   7.288   8.463  0.4805 -1.7641 -1.3326
  146MOL0     H19699   2.498   7.215   8.337  1.7142  2.2046  0.6790
  146MOL0     H19700   2.549   6.879   8.310 -0.6891  1.9520  1.7487
  146MOL0     H19701   2.622   6.984   8.181 -0.3530 -1.3809 -0.3097
  146MOL0     H19702   2.846   6.918   8.233  0.1242 -1.2668 -0.2873
  146MOL0     H19703   2.745   6.790   8.190  0.5207 -0.4824  1.2588
  146MOL0     H19704   2.707   6.741   8.440 -0.3637 -1.2080 -2.1617
  146MOL0     H19705   2.840   6.843   8.475  0.7464  1.1445 -1.1666
  146MOL0     H19706   2.872   6.595   8.294  3.0873 -2.5418  0.0135
  146MOL0     H19707   2.914   6.615   8.458  0.6811  0.1888 -0.1118
  146MOL0     H19708   3.237   6.842   8.259  0.9441 -2.3602 -2.5941
  146MOL0     H19709   2.568   6.892   8.594  4.6344  2.7201  2.0067
  146MOL0     H19710   2.366   6.966   8.733  1.9544 -3.3860 -1.3278
  147MOL0     O19711   5.158   8.109  11.066 -0.2066  0.1523  0.4485
  147MOL0     C19712   5.199   8.138  11.181 -0.0524 -0.8100 -0.6537
  147MOL0     O19713   5.185   8.259  11.241 -1.0456 -0.3884 -0.3773
  147MOL0     C19714   5.117   8.357  11.163  0.0895  0.2218  0.4660
  147MOL0     C19715   4.981   8.395  11.196 -0.1704  0.0001 -0.6396
  147MOL0     C19716   4.921   8.500  11.124 -0.4849 -0.3542  0.1217
  147MOL0     C19717   4.973   8.563  11.014 -0.2876  0.4427  0.3812
  147MOL0     O19718   4.908   8.672  10.958 -0.4475  0.0148 -0.5919
  147MOL0     C19719   4.768   8.658  10.930 -0.2016 -0.0712 -0.5416
  147MOL0     C19720   4.737   8.734  10.802  1.5237 -0.6211 -0.5725
  147MOL0     C19721   4.719   8.882  10.835  0.6895  0.9170 -0.2911
  147MOL0     C19722   4.723   8.965  10.704 -0.2955 -0.7878 -0.3035
  147MOL0     C19723   4.590   8.957  10.630  0.0262 -0.3042 -0.1004
  147MOL0     C19724   4.576   9.055  10.516  0.7638 -0.1890  0.2496
  147MOL0     C19725   4.651   8.996  10.394  1.1002  0.5273 -0.4852
  147MOL0     C19726   4.640   9.085  10.269  0.1903  0.4428  0.1556
  147MOL0     N19727   4.735   9.059  10.161  0.1669  1.2588 -0.2426
  147MOL0     C19728   4.707   9.008  10.033  0.4734 -0.6354  1.0190
  147MOL0     C19729   4.828   9.020   9.965  0.1066  0.0747 -0.7233
  147MOL0     C19730   4.840   8.990   9.825 -0.1003 -0.0527 -0.2953
  147MOL0     C19731   4.881   9.113   9.740  0.3159 -0.1491 -0.4420
  147MOL0     C19732   4.767   9.211   9.727 -0.6310 -0.0217 -0.0455
  147MOL0     C19733   4.700   9.212   9.591  0.4570 -0.1362  0.5161
  147MOL0     O19734   4.613   9.323   9.586  0.2741 -1.3942 -0.0807
  147MOL0     C19735   4.643   9.445   9.527 -1.7986  0.7725  0.0741
  147MOL0     C19736   4.539   9.497   9.460  0.1990  0.4819  0.0172
  147MOL0     C19737   4.549   9.631   9.421 -0.0001  0.3591 -0.3671
  147MOL0     C19738   4.424   9.687   9.358 -0.5440  0.3558  0.1297
  147MOL0     C19739   4.664   9.708   9.438  1.5234 -0.5043 -0.1043
  147MOL0     C19740   4.667   9.842   9.370 -0.0983  0.8933  0.1067
  147MOL0     O19741   4.630   9.859   9.247  0.2732 -0.6120  0.6108
  147MOL0     C19742   4.642   9.982   9.187 -0.4079  0.1176 -0.6210
  147MOL0     C19743   4.752  10.034   9.125  0.2966 -0.6270  0.2965
  147MOL0     C19744   4.753  10.155   9.052  0.1938 -0.1168  0.5836
  147MOL0     C19745   4.633  10.232   9.039 -0.0076  0.2643  0.1692
  147MOL0     O19746   4.649  10.359   8.986  0.3564  0.0270  0.5192
  147MOL0     C19747   4.532  10.446   8.975 -0.3191  0.5543 -0.0712
  147MOL0     C19748   4.576  10.574   8.912 -0.5313  0.0891 -0.3537
  147MOL0     C19749   4.670  10.652   9.002  0.8982  0.5416 -0.8803
  147MOL0     C19750   4.735  10.767   8.941 -0.5042 -1.1558  0.2621
  147MOL0     C19751   4.826  10.823   9.046  0.3661 -0.3213  0.5567
  147MOL0     C19752   4.872  10.967   9.008 -0.5512  0.6353 -0.1354
  147MOL0     C19753   4.976  10.973   8.899  0.6844  0.1503 -0.6947
  147MOL0     C19754   5.018  11.115   8.867  0.0841  0.6510  0.0297
  147MOL0    Cl19755   5.114  11.112   8.720 -0.0195  0.3685  0.0879
  147MOL0     C19756   4.518  10.175   9.092 -0.9728  0.7188  0.4772
  147MOL0     C19757   4.520  10.053   9.164 -0.1142  1.3217  0.1541
  147MOL0     O19758   4.731   9.921   9.433 -0.3889  0.4207 -0.9931
  147MOL0     C19759   4.767   9.654   9.508 -0.0917  0.5714  1.2673
  147MOL0     C19760   4.761   9.519   9.546  0.2099  0.6440 -0.5784
  147MOL0     N19761   4.905   9.100  10.039  0.2874 -0.0162  0.9510
  147MOL0     N19762   4.855   9.122  10.159 -0.5253 -0.1465 -0.1384
  147MOL0     C19763   5.107   8.536  10.989  0.4060  0.0948  0.1714
  147MOL0     C19764   5.175   8.437  11.058 -0.5382  0.1567 -1.3295
  147MOL0     C19765   5.290   8.036  11.240 -0.4490 -0.2145  0.2137
  147MOL0     C19766   5.311   7.916  11.173  0.4510 -0.5863  0.1164
  147MOL0     C19767   5.419   7.838  11.207  0.4849  0.3682  0.1983
  147MOL0     C19768   5.496   7.869  11.316 -0.2897  0.4413  1.7860
  147MOL0     O19769   5.588   7.772  11.347  0.2886 -0.3737  0.3100
  147MOL0     C19770   5.686   7.769  11.460 -0.4170 -0.5439  0.5842
  147MOL0     C19771   5.828   7.770  11.404  0.4335  0.4554  0.0459
  147MOL0     C19772   5.929   7.716  11.514  1.1570  0.1564 -0.0677
  147MOL0     C19773   5.993   7.593  11.462 -0.1451  0.3577 -0.4926
  147MOL0     C19774   6.081   7.556  11.577  0.2909 -0.0708 -0.4991
  147MOL0     C19775   6.178   7.531  11.657 -0.6048  0.0993  0.1911
  147MOL0     C19776   5.473   7.983  11.388 -1.0641  0.7514  0.1212
  147MOL0     C19777   5.381   8.072  11.348 -0.4425  0.7928  0.7123
  147MOL0     H19778   4.947   8.356  11.291  3.7663  0.4330  1.1550
  147MOL0     H19779   4.821   8.534  11.150 -0.2809  1.3925 -1.1658
  147MOL0     H19780   4.727   8.557  10.936 -2.2279  0.7878  4.3369
  147MOL0     H19781   4.722   8.710  11.014  1.8642  0.7398  0.1641
  147MOL0     H19782   4.828   8.714  10.745 -0.2476  0.1044 -3.8805
  147MOL0     H19783   4.644   8.698  10.758 -0.4553  2.8221  0.3649
  147MOL0     H19784   4.636   8.899  10.903 -1.1955 -0.7498 -2.0354
  147MOL0     H19785   4.811   8.910  10.888  1.6103 -0.9010 -0.8195
  147MOL0     H19786   4.729   9.068  10.741 -1.8076 -1.2126  1.2972
  147MOL0     H19787   4.811   8.935  10.648 -1.2553 -1.5278 -1.4548
  147MOL0     H19788   4.566   8.859  10.588 -0.1472 -0.3848  0.1856
  147MOL0     H19789   4.510   8.973  10.703  2.0186  2.2482  1.7032
  147MOL0     H19790   4.471   9.068  10.488  0.4043  0.1218  1.6973
  147MOL0     H19791   4.597   9.159  10.543 -0.6040  0.8307 -2.2502
  147MOL0     H19792   4.754   8.988  10.430  0.1691  2.3422  3.0256
  147MOL0     H19793   4.609   8.900  10.363 -1.5292  1.2108  0.6665
  147MOL0     H19794   4.649   9.192  10.290  0.3130  0.6751 -1.0160
  147MOL0     H19795   4.541   9.062  10.230  1.3906  1.5838 -4.0568
  147MOL0     H19796   4.610   8.963  10.010 -0.8204  2.2497  0.3859
  147MOL0     H19797   4.924   8.921   9.838 -1.7560 -1.5896  4.0759
  147MOL0     H19798   4.767   8.927   9.774  2.6203 -1.3697 -2.8903
  147MOL0     H19799   4.931   9.091   9.645  1.0102  3.6077 -1.1159
  147MOL0     H19800   4.962   9.160   9.796  0.5872 -0.1705 -0.8135
  147MOL0     H19801   4.803   9.314   9.743 -1.2107  0.0652  0.7613
  147MOL0     H19802   4.692   9.205   9.806 -1.7971  3.7866 -0.6228
  147MOL0     H19803   4.650   9.115   9.579  1.7643 -0.6904 -0.8480
  147MOL0     H19804   4.775   9.220   9.512  0.3133 -0.5429  0.3348
  147MOL0     H19805   4.449   9.439   9.447 -0.1218 -0.0677  3.6184
  147MOL0     H19806   4.334   9.647   9.406 -2.2598  2.4627 -1.1378
  147MOL0     H19807   4.426   9.795   9.373  1.6716  0.2315  1.0782
  147MOL0     H19808   4.419   9.660   9.252 -1.3630  2.6658 -0.4661
  147MOL0     H19809   4.846   9.981   9.136  0.7771  0.7147  3.7578
  147MOL0     H19810   4.847  10.185   9.008 -0.2067  2.0174  1.1018
  147MOL0     H19811   4.474  10.388   8.903 -1.9286  1.7749  0.1683
  147MOL0     H19812   4.487  10.455   9.075 -0.0208 -0.7711  0.2003
  147MOL0     H19813   4.636  10.535   8.829  0.6970 -2.2554  1.5022
  147MOL0     H19814   4.495  10.638   8.877 -0.7749  0.9890  1.6985
  147MOL0     H19815   4.743  10.589   9.052  2.9974  1.8808 -2.0973
  147MOL0     H19816   4.607  10.682   9.086  2.0771 -1.1443  0.6821
  147MOL0     H19817   4.793  10.732   8.856 -2.2317  0.1283 -1.5413
  147MOL0     H19818   4.657  10.838   8.911 -0.5427 -0.7297  1.3324
  147MOL0     H19819   4.911  10.759   9.072  0.4676 -0.3119  0.2499
  147MOL0     H19820   4.768  10.828   9.139 -0.6313  1.6193 -0.1279
  147MOL0     H19821   4.786  11.031   8.984 -0.0937  0.8175 -1.3473
  147MOL0     H19822   4.904  11.007   9.105 -4.6169  3.2928  0.3747
  147MOL0     H19823   4.923  10.925   8.816 -4.8942  0.1949  2.4068
  147MOL0     H19824   5.075  10.932   8.923  2.3235  3.4546 -1.1691
  147MOL0     H19825   5.069  11.160   8.953  1.8887  1.3918 -1.3802
  147MOL0     H19826   4.936  11.180   8.835 -0.6460 -0.3896 -0.2637
  147MOL0     H19827   4.419  10.218   9.082 -1.9285 -0.8616  2.6038
  147MOL0     H19828   4.428  10.001   9.187  0.7107 -0.4338 -0.3897
  147MOL0     H19829   4.856   9.713   9.525  0.8727 -0.7377  0.9629
  147MOL0     H19830   4.853   9.480   9.589  1.1316  1.4310 -1.7712
  147MOL0     H19831   5.157   8.588  10.907 -1.5126  1.5097 -0.1672
  147MOL0     H19832   5.277   8.419  11.027  0.1771  0.8687  0.4738
  147MOL0     H19833   5.236   7.892  11.098 -0.4175  0.5740  0.5794
  147MOL0     H19834   5.434   7.746  11.151 -1.9482  0.6408 -1.0681
  147MOL0     H19835   5.669   7.860  11.519  2.5397  2.1864 -2.3425
  147MOL0     H19836   5.655   7.685  11.522 -4.0120  0.1166 -0.0711
  147MOL0     H19837   5.864   7.870  11.378 -0.5302  1.6888  2.9867
  147MOL0     H19838   5.830   7.712  11.312 -1.7611  1.7137 -0.8717
  147MOL0     H19839   5.877   7.684  11.604  1.1837  3.1265  1.0972
  147MOL0     H19840   6.004   7.790  11.541  0.1886  1.1428 -0.0364
  147MOL0     H19841   6.068   7.605  11.384  0.5301 -0.4817  0.0050
  147MOL0     H19842   5.918   7.518  11.437 -2.0526  1.4109  1.7066
  147MOL0     H19843   6.262   7.494  11.712 -0.2293  0.2651 -0.2712
  147MOL0     H19844   5.539   8.008  11.470  2.5760 -2.3468 -1.5529
  147MOL0     H19845   5.378   8.168  11.398  2.7186  2.6443 -2.1915
  148MOL0     O19846   0.280   6.934   0.411  0.8744  0.1675  0.1613
  148MOL0     C19847   0.218   7.013   0.343  0.1092 -0.9837  0.0130
  148MOL0     O19848   0.235   7.150   0.347  0.2662 -0.2539  0.3892
  148MOL0     C19849   0.324   7.206   0.437 -0.4919 -0.7731 -0.0183
  148MOL0     C19850   0.292   7.209   0.579  0.2852  0.3554  0.3503
  148MOL0     C19851   0.381   7.274   0.659 -1.0950 -0.9280  0.7878
  148MOL0     C19852   0.510   7.314   0.604  0.8306 -0.3468  0.9417
  148MOL0     O19853   0.609   7.377   0.676 -0.0723  0.1580  0.0516
  148MOL0     C19854   0.615   7.346   0.816 -0.0436  0.2215 -0.9766
  148MOL0     C19855   0.736   7.422   0.885  1.1155 -0.4760  0.0187
  148MOL0     C19856   0.868   7.362   0.830 -0.1060  0.4155 -0.6146
  148MOL0     C19857   0.976   7.453   0.869 -0.1266  0.4185  0.9162
  148MOL0     C19858   1.108   7.419   0.795  0.1576  0.9477  0.2340
  148MOL0     C19859   1.216   7.523   0.822  0.0274 -0.2004  0.7245
  148MOL0     C19860   1.328   7.472   0.724 -0.3633 -0.1257 -0.3099
  148MOL0     C19861   1.293   7.480   0.569 -0.8984  1.1547 -0.9918
  148MOL0     N19862   1.416   7.468   0.489 -0.9388  0.1013 -0.3916
  148MOL0     C19863   1.537   7.499   0.535  0.0603 -0.6518  0.0958
  148MOL0     C19864   1.619   7.464   0.434  0.4294 -0.3675 -0.1009
  148MOL0     C19865   1.766   7.488   0.449 -0.6565  0.0770 -0.5921
  148MOL0     C19866   1.808   7.637   0.423 -0.4584 -0.0366 -0.1713
  148MOL0     C19867   1.960   7.660   0.420 -0.2065  0.3835  0.2850
  148MOL0     C19868   1.999   7.802   0.442  0.4491 -0.0654  0.4786
  148MOL0     O19869   2.133   7.814   0.493  0.0763  0.5337 -0.3431
  148MOL0     C19870   2.234   7.777   0.408  0.1248  1.5253  0.1547
  148MOL0     C19871   2.357   7.759   0.463  0.7951 -0.7810 -0.6147
  148MOL0     C19872   2.477   7.714   0.407  0.0761 -0.0555  0.0414
  148MOL0     C19873   2.590   7.703   0.508  0.0643 -0.3695 -0.5636
  148MOL0     C19874   2.478   7.673   0.268  0.0439  0.5006 -0.4051
  148MOL0     C19875   2.596   7.610   0.197  0.2688  0.1983 -0.2040
  148MOL0     O19876   2.701   7.568   0.269 -0.5057  0.5091  0.0887
  148MOL0     C19877   2.804   7.506   0.199 -0.3987 -0.2867 -0.2672
  148MOL0     C19878   2.935   7.567   0.196 -0.2666  0.4021 -0.8204
  148MOL0     C19879   3.038   7.505   0.130  0.2034  0.0193 -0.1936
  148MOL0     C19880   3.014   7.374   0.075 -0.1100  0.0658 -0.5752
  148MOL0     O19881   3.127   7.328   0.009  0.6694 -0.3300 -0.1611
  148MOL0     C19882   3.124   7.210  -0.063  0.0652  0.5622  1.1761
  148MOL0     C19883   3.242   7.221  -0.160  0.2397  0.3032  0.5189
  148MOL0     C19884   3.246   7.098  -0.255 -0.0589 -0.1487 -0.5910
  148MOL0     C19885   3.366   7.090  -0.347 -0.7119 -0.4139  0.8366
  148MOL0     C19886   3.488   7.045  -0.268 -1.2335 -0.0940 -0.5101
  148MOL0     C19887   3.612   7.073  -0.362  0.6189 -0.6558  1.1014
  148MOL0     C19888   3.749   7.080  -0.296  0.4194 -0.5105 -0.7689
  148MOL0     C19889   3.780   6.947  -0.260 -0.4076  1.1706 -0.9402
  148MOL0    Cl19890   3.908   6.946  -0.140 -0.3594 -0.1163 -0.4161
  148MOL0     C19891   2.879   7.317   0.068 -0.0984 -0.2555 -0.1624
  148MOL0     C19892   2.776   7.386   0.139 -0.0061 -0.1635  0.5153
  148MOL0     O19893   2.579   7.602   0.075 -0.0111 -0.0574 -0.7064
  148MOL0     C19894   2.351   7.704   0.203  0.4509 -0.1198  0.1838
  148MOL0     C19895   2.238   7.760   0.267  0.2643 -0.5194  0.4172
  148MOL0     N19896   1.560   7.407   0.326 -0.3762  0.1985 -1.1058
  148MOL0     N19897   1.427   7.418   0.361  0.1435 -0.4785  0.5840
  148MOL0     C19898   0.540   7.306   0.464  0.1127  0.0883 -0.4708
  148MOL0     C19899   0.451   7.235   0.384 -0.9511 -0.5748  0.4070
  148MOL0     C19900   0.112   6.960   0.241 -0.5465 -0.1353 -0.6657
  148MOL0     C19901   0.076   6.823   0.238  0.7084  0.4886  0.2091
  148MOL0     C19902  -0.039   6.777   0.189  0.0529  0.5523 -0.9458
  148MOL0     C19903  -0.103   6.862   0.101 -0.5115 -0.0387  1.2212
  148MOL0     O19904  -0.191   6.814   0.009 -0.3587 -0.9234 -0.6252
  148MOL0     C19905  -0.236   6.684   0.000  0.2001  0.0821 -0.0884
  148MOL0     C19906  -0.348   6.657   0.099  0.2604  0.3956 -0.7361
  148MOL0     C19907  -0.470   6.721   0.065  0.9248 -0.5482 -0.9884
  148MOL0     C19908  -0.586   6.718   0.166 -0.2286  0.0724 -0.5436
  148MOL0     C19909  -0.638   6.582   0.201 -0.3245 -1.5277  0.7318
  148MOL0     C19910  -0.682   6.476   0.238  0.8516 -0.3404 -0.1949
  148MOL0     C19911  -0.061   6.998   0.082 -0.1962 -0.1484 -0.0644
  148MOL0     C19912   0.042   7.048   0.155 -0.5053  0.1048 -0.6173
  148MOL0     H19913   0.204   7.157   0.616  1.6079 -2.0199  0.2819
  148MOL0     H19914   0.349   7.272   0.763  0.7145 -2.0224  1.3697
  148MOL0     H19915   0.529   7.386   0.870  0.2414  1.2620 -1.2854
  148MOL0     H19916   0.621   7.236   0.822 -1.1111  0.0228 -2.9641
  148MOL0     H19917   0.713   7.526   0.862  1.3356 -0.7928 -1.7640
  148MOL0     H19918   0.750   7.398   0.991  3.0415 -2.4051 -0.6133
  148MOL0     H19919   0.891   7.266   0.876  1.4647  1.5028  0.9638
  148MOL0     H19920   0.868   7.365   0.720  1.0245 -0.8495 -0.6643
  148MOL0     H19921   0.961   7.556   0.834  1.8146  0.2424 -0.5977
  148MOL0     H19922   0.986   7.446   0.978  0.0685  1.9768  1.0285
  148MOL0     H19923   1.149   7.319   0.810 -0.7642 -0.1403 -3.5030
  148MOL0     H19924   1.072   7.417   0.692 -2.0186 -0.1956  0.9338
  148MOL0     H19925   1.188   7.623   0.788  2.8232  0.2455 -0.5715
  148MOL0     H19926   1.246   7.522   0.928 -0.5478 -0.3010  0.8899
  148MOL0     H19927   1.418   7.526   0.758 -0.9864 -1.3701  3.8449
  148MOL0     H19928   1.345   7.365   0.739  0.8294  0.4583  3.4946
  148MOL0     H19929   1.247   7.577   0.549 -0.5126  2.2104  2.6426
  148MOL0     H19930   1.233   7.392   0.542  1.6332 -0.6730 -1.1042
  148MOL0     H19931   1.574   7.538   0.629  1.0599 -0.3500 -0.4130
  148MOL0     H19932   1.803   7.463   0.549 -2.0826 -1.4764 -0.4054
  148MOL0     H19933   1.821   7.419   0.385  0.3996 -0.3776  0.7612
  148MOL0     H19934   1.771   7.705   0.501 -0.0573 -0.0731  0.0548
  148MOL0     H19935   1.771   7.658   0.322 -0.8109 -0.0308 -0.0422
  148MOL0     H19936   1.994   7.633   0.320  0.7429  0.2170  0.6421
  148MOL0     H19937   2.008   7.594   0.493 -1.7904  0.8978  1.8548
  148MOL0     H19938   1.920   7.833   0.511 -1.1370 -1.6275 -0.5303
  148MOL0     H19939   1.988   7.855   0.347 -0.7238 -1.4061 -0.1856
  148MOL0     H19940   2.358   7.760   0.572 -0.4665  1.8947 -0.5516
  148MOL0     H19941   2.589   7.788   0.578 -0.4229 -0.8099 -0.0172
  148MOL0     H19942   2.588   7.609   0.564  1.5474  0.2269  0.5612
  148MOL0     H19943   2.689   7.721   0.466  0.2755  0.3217  0.1971
  148MOL0     H19944   2.942   7.668   0.235 -1.0032  0.3038 -0.4065
  148MOL0     H19945   3.134   7.556   0.131  0.0711  0.2889  1.5486
  148MOL0     H19946   3.148   7.127   0.004 -0.1566 -1.8228 -1.4906
  148MOL0     H19947   3.030   7.195  -0.116  0.1462 -1.8599  1.6083
  148MOL0     H19948   3.242   7.317  -0.213  0.4332 -0.3039 -0.6026
  148MOL0     H19949   3.330   7.209  -0.096 -1.5852 -1.7180  2.8224
  148MOL0     H19950   3.157   7.107  -0.319 -1.2084  0.3045  1.0233
  148MOL0     H19951   3.229   7.004  -0.202 -1.1139 -0.7625 -1.9530
  148MOL0     H19952   3.350   7.020  -0.430  0.7677 -0.8545  0.8932
  148MOL0     H19953   3.384   7.193  -0.382  0.1069  0.0786  2.6167
  148MOL0     H19954   3.488   6.939  -0.240  0.0114 -0.2278 -0.9541
  148MOL0     H19955   3.515   7.105  -0.181  2.8684  0.1547 -1.7521
  148MOL0     H19956   3.627   7.006  -0.447  1.8948  2.1184 -1.0079
  148MOL0     H19957   3.599   7.178  -0.392  1.0669 -0.5618  1.2378
  148MOL0     H19958   3.758   7.147  -0.210 -0.0818 -0.4314 -0.7727
  148MOL0     H19959   3.811   7.121  -0.377 -0.3858 -1.4011 -1.8757
  148MOL0     H19960   3.814   6.885  -0.344 -0.2180 -0.7848  0.5167
  148MOL0     H19961   3.694   6.888  -0.229  2.2641 -2.2125  0.7454
  148MOL0     H19962   2.841   7.236   0.006 -1.9630 -0.6615  1.4004
  148MOL0     H19963   2.677   7.344   0.152 -2.7751  4.9987 -0.8655
  148MOL0     H19964   2.333   7.677   0.100  1.4208 -2.0209  0.4536
  148MOL0     H19965   2.158   7.788   0.200  2.0346 -0.3518 -1.7177
  148MOL0     H19966   0.636   7.337   0.425  0.9311  2.2549  2.8386
  148MOL0     H19967   0.491   7.205   0.288  0.2587 -2.9685  1.5723
  148MOL0     H19968   0.140   6.750   0.287 -0.8016 -1.6598 -0.8661
  148MOL0     H19969  -0.061   6.671   0.195  2.0554  0.1639  1.0555
  148MOL0     H19970  -0.282   6.678  -0.099 -3.5533 -0.0430  1.4758
  148MOL0     H19971  -0.163   6.604   0.005 -0.5302 -0.5443  1.1944
  148MOL0     H19972  -0.336   6.707   0.195 -1.6215 -1.7798  0.7160
  148MOL0     H19973  -0.349   6.549   0.117  1.5058  0.7112  1.6505
  148MOL0     H19974  -0.519   6.673  -0.020  1.2130 -1.8750 -0.4329
  148MOL0     H19975  -0.455   6.826   0.041  2.3041 -0.5490 -0.2468
  148MOL0     H19976  -0.662   6.779   0.116  0.2193 -1.2865 -3.0316
  148MOL0     H19977  -0.553   6.781   0.249 -0.1459 -1.6075  0.7350
  148MOL0     H19978  -0.738   6.388   0.262  1.0360  0.1329  2.1369
  148MOL0     H19979  -0.099   7.058   0.000  1.2161 -1.0350 -1.4259
  148MOL0     H19980   0.090   7.145   0.139  0.2082 -0.5658 -2.8969
  149MOL0     O19981   5.044   4.490   4.931  0.2366 -0.1693  0.5313
  149MOL0     C19982   5.074   4.563   4.836  0.5911 -0.4539  0.3235
  149MOL0     O19983   4.990   4.608   4.741 -0.3873 -0.6885 -0.5194
  149MOL0     C19984   4.875   4.538   4.714 -0.2457  0.3161 -0.5235
  149MOL0     C19985   4.866   4.393   4.707  0.7564  0.3591  0.3878
  149MOL0     C19986   4.743   4.340   4.664  0.0989  0.3128  0.3951
  149MOL0     C19987   4.632   4.420   4.625 -0.0943 -0.8177 -1.1886
  149MOL0     O19988   4.512   4.360   4.586  0.6129  0.2009 -0.0255
  149MOL0     C19989   4.433   4.427   4.484 -1.3918 -0.1488  0.8660
  149MOL0     C19990   4.312   4.349   4.453 -0.5280 -0.5228  0.1932
  149MOL0     C19991   4.189   4.391   4.532 -0.3878  0.5286 -0.5027
  149MOL0     C19992   4.144   4.530   4.544 -0.8571  0.4982 -0.4238
  149MOL0     C19993   4.114   4.604   4.413 -0.2466  0.3494 -0.3076
  149MOL0     C19994   4.030   4.733   4.435 -0.5121 -0.3792  0.0207
  149MOL0     C19995   4.100   4.852   4.504 -0.1449  0.9399  0.5214
  149MOL0     C19996   4.005   4.981   4.516 -0.3012  0.7988 -0.6108
  149MOL0     N19997   3.950   5.022   4.387  0.0365  0.6522 -0.7016
  149MOL0     C19998   3.841   4.972   4.319  0.3111  0.2991  0.4915
  149MOL0     C19999   3.852   5.030   4.198 -0.6462  1.0561  0.7532
  149MOL0     C20000   3.768   4.996   4.072 -0.1611 -0.7257 -0.6167
  149MOL0     C20001   3.814   5.090   3.951 -0.0402  0.4482  0.6915
  149MOL0     C20002   3.741   5.230   3.954 -0.5146  0.6986 -0.4828
  149MOL0     C20003   3.588   5.238   3.946  1.0866 -0.0280 -0.4679
  149MOL0     O20004   3.542   5.216   3.813 -0.4885  0.3395  0.6811
  149MOL0     C20005   3.548   5.322   3.733  0.7427 -0.8150 -0.4936
  149MOL0     C20006   3.603   5.310   3.603 -0.3282  0.0221 -0.1256
  149MOL0     C20007   3.613   5.412   3.503 -0.1250  0.2299  0.4654
  149MOL0     C20008   3.708   5.381   3.390 -0.5746 -0.7862 -0.9522
  149MOL0     C20009   3.547   5.532   3.530  0.2312 -0.0314  0.4635
  149MOL0     C20010   3.526   5.646   3.430  0.0672 -0.5618 -0.3470
  149MOL0     O20011   3.412   5.710   3.441  0.0426  0.0521 -0.2342
  149MOL0     C20012   3.390   5.811   3.355  0.1389  0.2147  0.0186
  149MOL0     C20013   3.401   5.781   3.215  0.4590  0.0899  1.4351
  149MOL0     C20014   3.395   5.892   3.131 -0.2980  1.0290  0.2468
  149MOL0     C20015   3.364   6.020   3.183 -0.1660 -0.1562 -0.0357
  149MOL0     O20016   3.334   6.115   3.092  0.5575  0.9440 -0.5134
  149MOL0     C20017   3.316   6.249   3.136  0.7645  0.1967 -0.0637
  149MOL0     C20018   3.301   6.338   3.011 -0.4968 -0.1147 -0.4429
  149MOL0     C20019   3.324   6.484   3.054 -0.6228 -1.0847  0.5724
  149MOL0     C20020   3.204   6.541   3.136  0.0530  0.8371  0.5480
  149MOL0     C20021   3.189   6.688   3.133 -1.0091 -1.0540 -1.1025
  149MOL0     C20022   3.298   6.767   3.214 -0.3723  0.7989 -0.6131
  149MOL0     C20023   3.230   6.890   3.266 -0.1634  0.5059 -0.1513
  149MOL0     C20024   3.333   6.993   3.325  0.6298  0.5754  0.6368
  149MOL0    Cl20025   3.234   7.137   3.361  0.4856 -0.2919 -0.2221
  149MOL0     C20026   3.371   6.046   3.315 -0.5481 -0.7134  0.0358
  149MOL0     C20027   3.382   5.940   3.401  0.8071 -0.6517 -0.5757
  149MOL0     O20028   3.606   5.658   3.343 -0.0297 -0.1873 -0.3244
  149MOL0     C20029   3.464   5.535   3.647 -0.4843 -0.0793 -0.0102
  149MOL0     C20030   3.470   5.437   3.752 -0.2607  0.1849  0.2268
  149MOL0     N20031   3.962   5.113   4.193  0.5034 -0.1022  0.2027
  149MOL0     N20032   4.026   5.101   4.308 -0.5689 -0.1892  0.6604
  149MOL0     C20033   4.646   4.560   4.632 -0.6098 -0.3674 -0.3902
  149MOL0     C20034   4.762   4.608   4.687  0.0126 -0.6389  0.2802
  149MOL0     C20035   5.215   4.604   4.836  0.0044  0.4394 -0.4008
  149MOL0     C20036   5.318   4.531   4.891 -0.2002  0.6865  0.2922
  149MOL0     C20037   5.448   4.569   4.900 -1.5802 -0.5737 -0.5326
  149MOL0     C20038   5.480   4.689   4.841 -0.3912  1.2818  0.3034
  149MOL0     O20039   5.613   4.734   4.840  0.4144  0.3084  0.4077
  149MOL0     C20040   5.733   4.668   4.897  0.0631  0.5108  0.5286
  149MOL0     C20041   5.871   4.729   4.866  0.2681  0.1864 -0.7158
  149MOL0     C20042   5.887   4.749   4.713 -0.1045  0.0653  0.3379
  149MOL0     C20043   6.001   4.844   4.667 -0.8635  0.2814 -0.3283
  149MOL0     C20044   6.142   4.801   4.704 -0.6575 -0.0657  0.4315
  149MOL0     C20045   6.254   4.754   4.733  0.6167  0.6136  0.5220
  149MOL0     C20046   5.387   4.765   4.784  0.7418  0.1610 -0.1331
  149MOL0     C20047   5.252   4.724   4.779  0.4749  0.0547 -0.2233
  149MOL0     H20048   4.951   4.328   4.725  0.2800 -1.1323 -2.2011
  149MOL0     H20049   4.720   4.237   4.640 -1.6725  0.1509  2.4515
  149MOL0     H20050   4.421   4.533   4.508  1.4850 -0.0311  2.2042
  149MOL0     H20051   4.501   4.419   4.398 -3.1293 -0.9812 -0.5098
  149MOL0     H20052   4.287   4.364   4.348  0.5857  3.9203  0.3741
  149MOL0     H20053   4.338   4.249   4.489 -0.1363  0.0926  1.7090
  149MOL0     H20054   4.107   4.325   4.501  0.5642  0.2301 -2.5785
  149MOL0     H20055   4.207   4.358   4.635 -2.4065  1.4170  0.1901
  149MOL0     H20056   4.049   4.535   4.600 -2.1944 -2.0791 -2.2344
  149MOL0     H20057   4.220   4.585   4.599 -1.6345  0.7508  0.4258
  149MOL0     H20058   4.204   4.638   4.362 -1.9023  4.6479 -0.8115
  149MOL0     H20059   4.050   4.531   4.363 -2.2089  1.0886  0.9791
  149MOL0     H20060   4.016   4.761   4.330 -1.2551  0.9839  0.4624
  149MOL0     H20061   3.940   4.709   4.493  0.3845 -2.2261  0.7199
  149MOL0     H20062   4.146   4.830   4.601  2.9797  1.1524 -0.7871
  149MOL0     H20063   4.177   4.889   4.436  0.2689  0.0485  0.4771
  149MOL0     H20064   4.063   5.061   4.563 -0.2213  0.3037  0.1443
  149MOL0     H20065   3.926   4.969   4.591  1.6555  0.2618  1.4808
  149MOL0     H20066   3.766   4.902   4.353  0.9424 -0.9279 -0.5684
  149MOL0     H20067   3.774   4.887   4.057 -1.8772 -0.7986 -0.9472
  149MOL0     H20068   3.662   5.004   4.098  0.0186  2.5933 -0.5542
  149MOL0     H20069   3.773   5.034   3.867  1.3246 -1.3037  1.1334
  149MOL0     H20070   3.920   5.118   3.946 -0.4757  2.2745  0.8702
  149MOL0     H20071   3.777   5.294   3.873 -0.3374  1.8619  0.4750
  149MOL0     H20072   3.778   5.290   4.038  0.9086  2.1829 -2.0774
  149MOL0     H20073   3.550   5.336   3.974 -2.3011 -1.3307 -0.0501
  149MOL0     H20074   3.528   5.174   4.011 -0.6742  3.4018  1.5943
  149MOL0     H20075   3.663   5.220   3.588 -0.4892 -0.0940 -0.0799
  149MOL0     H20076   3.740   5.278   3.407 -1.9673 -0.9153  1.3522
  149MOL0     H20077   3.663   5.400   3.292  0.0140 -1.1948 -1.3076
  149MOL0     H20078   3.802   5.434   3.408  1.0727 -3.3358 -1.6424
  149MOL0     H20079   3.414   5.680   3.177 -3.0695 -0.1367  0.4613
  149MOL0     H20080   3.405   5.878   3.024  2.5736 -2.7259  0.7852
  149MOL0     H20081   3.221   6.254   3.190  0.3803 -0.9369 -0.6082
  149MOL0     H20082   3.402   6.292   3.188  1.3812 -0.4214 -0.5510
  149MOL0     H20083   3.378   6.306   2.941  0.9334  0.2445  0.9193
  149MOL0     H20084   3.211   6.310   2.954  2.8796 -2.9706 -5.0348
  149MOL0     H20085   3.324   6.547   2.965  2.8425 -0.3409  0.9647
  149MOL0     H20086   3.420   6.494   3.105 -1.5426  1.1323  2.0567
  149MOL0     H20087   3.115   6.490   3.097  0.8418  0.2368 -0.5216
  149MOL0     H20088   3.218   6.507   3.239 -2.0795 -1.4950  0.1897
  149MOL0     H20089   3.094   6.712   3.182  1.3309 -0.3970  3.7317
  149MOL0     H20090   3.193   6.738   3.036 -2.5138  1.2250 -0.0732
  149MOL0     H20091   3.342   6.701   3.289 -2.2500 -0.8723 -0.9063
  149MOL0     H20092   3.368   6.794   3.134  1.2288  0.6570  0.7055
  149MOL0     H20093   3.152   6.863   3.337 -0.4220 -0.3832 -0.7615
  149MOL0     H20094   3.195   6.944   3.178  2.9149 -0.6377 -2.2698
  149MOL0     H20095   3.400   7.010   3.240 -0.2276 -3.4464 -1.0633
  149MOL0     H20096   3.374   6.962   3.421  2.2879 -1.4420 -0.6295
  149MOL0     H20097   3.351   6.144   3.357 -1.5623 -1.7383  2.0755
  149MOL0     H20098   3.380   5.959   3.507  1.7565  0.4658 -0.7416
  149MOL0     H20099   3.412   5.627   3.675  0.9034  0.6252  0.3341
  149MOL0     H20100   3.408   5.448   3.841  0.3968 -1.4568  0.9196
  149MOL0     H20101   4.571   4.631   4.598  2.1244  1.5639 -2.7928
  149MOL0     H20102   4.762   4.716   4.692  3.3822 -0.4784 -0.6166
  149MOL0     H20103   5.289   4.432   4.927  1.4002 -0.7586 -2.1237
  149MOL0     H20104   5.528   4.509   4.942  1.0425  3.4710  0.8904
  149MOL0     H20105   5.729   4.651   5.005  1.8715  0.8356  0.6835
  149MOL0     H20106   5.736   4.566   4.859 -3.6065  0.6567 -0.5442
  149MOL0     H20107   5.942   4.656   4.906 -0.5091  1.5831  3.7626
  149MOL0     H20108   5.893   4.821   4.921 -2.6204 -1.1536  3.1603
  149MOL0     H20109   5.791   4.781   4.670 -0.7180 -2.2947 -0.1883
  149MOL0     H20110   5.904   4.653   4.664 -1.0905  0.2638 -0.4171
  149MOL0     H20111   5.985   4.941   4.716 -1.9397  0.1759 -0.4327
  149MOL0     H20112   6.001   4.846   4.557  1.3483  1.0935 -0.3660
  149MOL0     H20113   6.351   4.711   4.745 -0.5605 -1.9452  1.4796
  149MOL0     H20114   5.416   4.857   4.734  0.6788 -0.6535 -1.7509
  149MOL0     H20115   5.180   4.790   4.732  1.1694  0.3070 -0.9619
  150MOL0     O20116   8.899   5.278   1.670  0.1513 -0.5083  0.0359
  150MOL0     C20117   8.860   5.271   1.784 -0.2866 -1.0259 -0.7250
  150MOL0     O20118   8.728   5.258   1.829 -0.3575 -0.1212  0.0138
  150MOL0     C20119   8.614   5.274   1.740 -1.3766 -0.4531  0.1013
  150MOL0     C20120   8.616   5.258   1.602  0.0197 -0.9287  1.0252
  150MOL0     C20121   8.503   5.300   1.528 -0.5117  0.4718  0.7764
  150MOL0     C20122   8.383   5.339   1.582  0.8191 -0.9080 -0.0943
  150MOL0     O20123   8.280   5.382   1.505 -0.3189  0.3890  0.5718
  150MOL0     C20124   8.185   5.473   1.562 -0.0563 -0.0806  1.1345
  150MOL0     C20125   8.074   5.513   1.461  0.5933  0.2408  0.7086
  150MOL0     C20126   7.995   5.388   1.425 -0.0324  0.7120 -0.6439
  150MOL0     C20127   7.855   5.413   1.373  0.1525  0.0545  0.2033
  150MOL0     C20128   7.774   5.280   1.342 -0.2818 -0.3431  0.4812
  150MOL0     C20129   7.854   5.157   1.303  0.8532  0.6016 -0.3643
  150MOL0     C20130   7.749   5.056   1.256  0.3502  0.1825 -0.4172
  150MOL0     C20131   7.788   4.912   1.243 -1.0716  0.4242  0.2285
  150MOL0     N20132   7.897   4.906   1.148  0.3459  0.0598  0.2877
  150MOL0     C20133   8.030   4.893   1.174  0.9237  0.1807 -0.1379
  150MOL0     C20134   8.083   4.825   1.068  0.5053  0.2325  0.6484
  150MOL0     C20135   8.237   4.792   1.057  0.6167  0.1942  1.3445
  150MOL0     C20136   8.270   4.806   0.907  0.3929  0.7066  0.0510
  150MOL0     C20137   8.409   4.757   0.873  0.1300  0.4916 -0.8176
  150MOL0     C20138   8.500   4.868   0.860 -1.2795 -0.2584  1.1601
  150MOL0     O20139   8.472   4.967   0.752  0.1446  0.3076  0.9123
  150MOL0     C20140   8.529   4.955   0.627  0.3064 -0.3025  0.9303
  150MOL0     C20141   8.561   4.837   0.566 -0.0830  0.2803  0.1563
  150MOL0     C20142   8.594   4.839   0.430 -0.1110  0.0689  0.0511
  150MOL0     C20143   8.608   4.703   0.368 -0.4297  0.2809 -0.2663
  150MOL0     C20144   8.594   4.957   0.353 -0.8403  1.5044  0.1330
  150MOL0     C20145   8.612   4.969   0.197  0.3398  0.8017 -0.3897
  150MOL0     O20146   8.551   4.868   0.124 -0.8920  0.1992 -0.4078
  150MOL0     C20147   8.554   4.875  -0.003 -0.3951  1.0542  0.4899
  150MOL0     C20148   8.465   4.963  -0.066 -0.0950  0.2363 -0.4032
  150MOL0     C20149   8.444   4.962  -0.208  0.0240  0.4020  0.1293
  150MOL0     C20150   8.523   4.870  -0.278  0.8623  0.2887  0.6296
  150MOL0     O20151   8.515   4.859  -0.414  0.0905  0.5896 -0.7107
  150MOL0     C20152   8.497   4.976  -0.490  0.4776 -0.3983  0.4360
  150MOL0     C20153   8.598   5.082  -0.466 -0.1846  0.1441  0.4677
  150MOL0     C20154   8.746   5.031  -0.486  0.4560  0.3382 -0.0351
  150MOL0     C20155   8.845   5.129  -0.555 -0.6156  0.8175  0.5408
  150MOL0     C20156   8.991   5.076  -0.554  0.3456  0.4825 -0.1577
  150MOL0     C20157   9.067   5.143  -0.670  0.0165  0.0285 -0.3693
  150MOL0     C20158   9.218   5.113  -0.664  0.7479  0.9470 -0.1939
  150MOL0     C20159   9.263   5.033  -0.793 -0.1377 -0.1153  0.8880
  150MOL0    Cl20160   9.298   5.145  -0.926  0.1627 -0.0433 -0.1029
  150MOL0     C20161   8.614   4.773  -0.219  0.0598 -0.0412  0.7143
  150MOL0     C20162   8.628   4.778  -0.084 -0.1896  0.0996  0.7336
  150MOL0     O20163   8.677   5.055   0.150 -0.7308  0.6814 -0.1418
  150MOL0     C20164   8.552   5.072   0.416  0.1639  0.6344 -0.0295
  150MOL0     C20165   8.529   5.074   0.557 -0.1942 -0.1445 -0.2763
  150MOL0     N20166   7.983   4.802   0.973 -0.4306  0.1090 -0.5315
  150MOL0     N20167   7.867   4.852   1.026  0.1106 -0.0011  0.1552
  150MOL0     C20168   8.382   5.350   1.725 -0.1877 -0.1535 -1.1195
  150MOL0     C20169   8.490   5.324   1.799 -0.8390  0.7163 -0.8726
  150MOL0     C20170   8.960   5.262   1.898 -0.1909 -0.4130 -0.7268
  150MOL0     C20171   9.097   5.287   1.876  1.9443  0.4392 -0.3522
  150MOL0     C20172   9.182   5.273   1.980 -0.3015  0.3521 -0.5226
  150MOL0     C20173   9.143   5.219   2.107  0.3778 -2.0085 -0.5468
  150MOL0     O20174   9.229   5.205   2.211 -0.1084  0.3567 -0.1856
  150MOL0     C20175   9.359   5.256   2.206  1.3735 -0.2227 -0.3909
  150MOL0     C20176   9.425   5.217   2.344  0.3522 -0.7616  0.1319
  150MOL0     C20177   9.430   5.061   2.379 -0.0769 -0.1950  0.6064
  150MOL0     C20178   9.459   4.972   2.252  0.8419  0.8371 -0.2568
  150MOL0     C20179   9.585   5.002   2.191  0.6083  0.8801  0.2621
  150MOL0     C20180   9.688   5.035   2.149  0.3150  0.6756 -0.0391
  150MOL0     C20181   9.010   5.192   2.121  0.2525 -0.9370  0.7742
  150MOL0     C20182   8.915   5.213   2.021 -0.4398 -1.2151 -0.2767
  150MOL0     H20183   8.706   5.212   1.561  1.3177  1.2605  1.2527
  150MOL0     H20184   8.505   5.292   1.420 -2.1085 -2.8503  0.8519
  150MOL0     H20185   8.123   5.443   1.646 -2.1677  0.1752 -0.2582
  150MOL0     H20186   8.235   5.565   1.594  0.0135  1.2032 -2.2215
  150MOL0     H20187   8.017   5.600   1.494  1.5785  0.8977  0.7478
  150MOL0     H20188   8.124   5.543   1.368 -2.0308 -2.9207 -1.9618
  150MOL0     H20189   8.048   5.327   1.351  0.4461  1.6229 -1.0668
  150MOL0     H20190   7.985   5.328   1.516 -1.0736  1.3779 -0.3130
  150MOL0     H20191   7.800   5.472   1.447 -0.5847 -0.7735  0.3287
  150MOL0     H20192   7.874   5.463   1.277  0.6293 -0.2724  0.1204
  150MOL0     H20193   7.723   5.254   1.435 -0.4915 -0.9868  0.1895
  150MOL0     H20194   7.698   5.305   1.269  0.5042  0.7399 -0.0009
  150MOL0     H20195   7.923   5.176   1.221  0.0469  0.0153 -1.1978
  150MOL0     H20196   7.907   5.124   1.393  2.7728 -0.8755 -1.9543
  150MOL0     H20197   7.672   5.058   1.334  1.2490 -0.1561  0.5188
  150MOL0     H20198   7.701   5.095   1.166  0.2648  1.2205  0.0645
  150MOL0     H20199   7.719   4.834   1.209 -0.7889  1.4633 -3.1032
  150MOL0     H20200   7.823   4.876   1.340 -0.7318  2.3278  0.8574
  150MOL0     H20201   8.086   4.942   1.253 -0.5482  3.3575 -0.8662
  150MOL0     H20202   8.293   4.859   1.122  1.4127  2.0124 -1.0423
  150MOL0     H20203   8.251   4.685   1.075  0.4659  0.1946  1.4698
  150MOL0     H20204   8.246   4.905   0.867  1.2508 -0.4213 -3.6048
  150MOL0     H20205   8.206   4.733   0.856  1.6651 -1.5018  1.4245
  150MOL0     H20206   8.417   4.702   0.779  1.2343  0.0973 -0.5140
  150MOL0     H20207   8.438   4.687   0.953  1.1623  2.2010  0.3724
  150MOL0     H20208   8.603   4.836   0.843 -0.9663  2.5106 -3.7509
  150MOL0     H20209   8.495   4.935   0.947  0.0202 -0.3733  1.3469
  150MOL0     H20210   8.558   4.739   0.614  1.2602 -0.5882 -1.4158
  150MOL0     H20211   8.523   4.664   0.312 -0.0629 -2.9253  1.1541
  150MOL0     H20212   8.694   4.695   0.300  1.2617 -3.2254  1.9737
  150MOL0     H20213   8.614   4.619   0.438  0.1766  0.5640  0.0347
  150MOL0     H20214   8.402   5.031  -0.009  0.2848  0.4768 -0.2650
  150MOL0     H20215   8.367   5.024  -0.254 -1.4449  0.0877  2.0503
  150MOL0     H20216   8.502   4.941  -0.594  3.2347  0.9807  0.0236
  150MOL0     H20217   8.396   5.015  -0.474  0.9549  0.4647  1.4966
  150MOL0     H20218   8.585   5.172  -0.528 -0.4906  0.1875  0.5920
  150MOL0     H20219   8.598   5.113  -0.361  0.8513  1.0246  0.2323
  150MOL0     H20220   8.755   4.934  -0.535 -0.4543  0.4818 -0.5106
  150MOL0     H20221   8.792   5.027  -0.387  3.7300  2.8581 -1.2462
  150MOL0     H20222   8.810   5.129  -0.658  1.0747  3.5536 -0.1370
  150MOL0     H20223   8.841   5.231  -0.515 -0.1241  1.4241 -0.9136
  150MOL0     H20224   8.989   4.967  -0.561 -0.1890  0.3918  1.1511
  150MOL0     H20225   9.042   5.109  -0.463 -0.3870 -0.2989  0.5480
  150MOL0     H20226   9.017   5.125  -0.766  1.4958  2.9665 -1.8311
  150MOL0     H20227   9.049   5.250  -0.654  0.6493 -0.0317  0.7814
  150MOL0     H20228   9.238   5.061  -0.570  0.6586  1.3665  0.0595
  150MOL0     H20229   9.271   5.208  -0.670  0.1975  1.2545 -0.2735
  150MOL0     H20230   9.189   4.960  -0.827  1.6151 -1.8597  0.6377
  150MOL0     H20231   9.348   4.966  -0.775 -1.1601 -1.8209 -0.4063
  150MOL0     H20232   8.680   4.713  -0.282  3.4556  3.7473  0.2462
  150MOL0     H20233   8.678   4.695  -0.036 -1.3496 -1.7711 -1.1484
  150MOL0     H20234   8.551   5.165   0.360 -1.7242  0.4173 -0.4303
  150MOL0     H20235   8.496   5.166   0.605  0.1057  0.9262 -2.0054
  150MOL0     H20236   8.305   5.386   1.793  1.1899 -1.2054  1.1465
  150MOL0     H20237   8.477   5.351   1.903  0.2860 -0.0724 -0.5048
  150MOL0     H20238   9.124   5.338   1.784  1.4394  2.5596  0.6213
  150MOL0     H20239   9.288   5.294   1.974 -0.0079  0.2952  2.7647
  150MOL0     H20240   9.421   5.217   2.124  1.0362 -1.2932 -0.1462
  150MOL0     H20241   9.353   5.365   2.201  0.2659 -0.0532  2.7737
  150MOL0     H20242   9.371   5.277   2.418 -1.3473 -0.5067 -1.2304
  150MOL0     H20243   9.529   5.250   2.347 -0.4330  2.1583 -1.5313
  150MOL0     H20244   9.335   5.030   2.424 -1.6022  0.8729 -1.7466
  150MOL0     H20245   9.504   5.044   2.458  0.8385  0.3949 -0.1079
  150MOL0     H20246   9.375   4.995   2.185  1.4526 -0.5862 -1.5748
  150MOL0     H20247   9.440   4.865   2.264 -2.4865  0.9675 -2.7439
  150MOL0     H20248   9.783   5.067   2.110 -0.2473  3.3731  0.6188
  150MOL0     H20249   8.984   5.130   2.205 -1.0101 -4.6033 -2.0385
  150MOL0     H20250   8.811   5.198   2.048 -0.3360  0.9597  1.6643
  151MOL0     O20251   5.823   9.554   0.561  0.4564 -0.0999 -0.1071
  151MOL0     C20252   5.823   9.638   0.475 -0.2198 -0.6978 -0.0685
  151MOL0     O20253   5.886   9.758   0.481  0.4521  0.9585  0.6394
  151MOL0     C20254   5.942   9.787   0.603  0.6376  0.2487  0.4247
  151MOL0     C20255   5.887   9.876   0.688 -0.5652 -0.7130  0.0916
  151MOL0     C20256   5.937   9.895   0.816 -0.6213 -0.6410 -0.9978
  151MOL0     C20257   6.036   9.823   0.870  0.6246  0.5873 -0.2520
  151MOL0     O20258   6.075   9.835   0.998 -0.0987 -0.0764 -0.9167
  151MOL0     C20259   6.149   9.728   1.061 -0.6852  0.8476  0.0253
  151MOL0     C20260   6.163   9.757   1.208 -0.7556 -0.1807  0.2423
  151MOL0     C20261   6.265   9.666   1.289 -0.2327  0.7020 -0.3428
  151MOL0     C20262   6.403   9.654   1.215  0.2642  0.3784 -0.2561
  151MOL0     C20263   6.521   9.614   1.285  0.0380  0.8597  0.3020
  151MOL0     C20264   6.565   9.705   1.395 -0.2380  0.0288  0.3448
  151MOL0     C20265   6.696   9.651   1.468  0.1526  0.0602 -0.0406
  151MOL0     C20266   6.758   9.763   1.559 -0.3361  1.0162  0.6652
  151MOL0     N20267   6.664   9.799   1.660 -0.7802 -0.6058  0.0625
  151MOL0     C20268   6.667   9.745   1.785 -0.4633  0.3178 -0.1632
  151MOL0     C20269   6.603   9.831   1.861  0.1890  0.4843 -0.9898
  151MOL0     C20270   6.559   9.815   2.002  0.2305  0.5514 -0.2509
  151MOL0     C20271   6.641   9.902   2.084  0.5086 -0.1263 -0.7386
  151MOL0     C20272   6.560   9.937   2.216 -0.0966 -0.4641  0.3919
  151MOL0     C20273   6.635  10.043   2.289 -0.1782  0.4636  0.2195
  151MOL0     O20274   6.557  10.068   2.418 -0.5820 -0.0634  1.0552
  151MOL0     C20275   6.613  10.163   2.503  0.8487  0.4074  0.1868
  151MOL0     C20276   6.546  10.186   2.624  0.5495 -0.0143  0.2100
  151MOL0     C20277   6.574  10.277   2.722 -0.2783 -0.6528 -0.6105
  151MOL0     C20278   6.477  10.293   2.837  0.8563 -0.7652 -0.2486
  151MOL0     C20279   6.686  10.358   2.695 -0.6791 -0.4880 -0.7975
  151MOL0     C20280   6.734  10.468   2.787 -0.7617  0.6213  0.1810
  151MOL0     O20281   6.873  10.493   2.788 -0.4310  0.4202  0.5335
  151MOL0     C20282   6.922  10.557   2.899  0.6690  0.8925 -0.3535
  151MOL0     C20283   6.933  10.500   3.025 -0.4675  0.8368 -0.6566
  151MOL0     C20284   6.987  10.569   3.134  0.5219 -0.5821 -1.1016
  151MOL0     C20285   7.034  10.700   3.114 -0.0549  0.2645  0.5336
  151MOL0     O20286   7.104  10.786   3.202 -0.1210  0.9989  0.5601
  151MOL0     C20287   7.162  10.715   3.314  0.2206  0.1848 -0.4935
  151MOL0     C20288   7.198  10.808   3.430  0.8288 -0.8582  0.1684
  151MOL0     C20289   7.327  10.900   3.403  1.4539  0.2618 -0.5463
  151MOL0     C20290   7.291  11.020   3.310  1.8551 -0.0038 -0.4174
  151MOL0     C20291   7.380  11.141   3.317 -0.4640 -0.3900 -0.1779
  151MOL0     C20292   7.533  11.102   3.328  1.2870 -0.6766 -0.3302
  151MOL0     C20293   7.619  11.202   3.399 -0.2189 -0.6706 -0.2064
  151MOL0     C20294   7.717  11.257   3.295  0.6307  0.0971 -0.0688
  151MOL0    Cl20295   7.860  11.323   3.375  0.4193  0.0026 -0.4694
  151MOL0     C20296   7.008  10.757   2.990 -0.4144 -0.0223  0.3571
  151MOL0     C20297   6.952  10.689   2.884  0.2278  0.1534 -0.5300
  151MOL0     O20298   6.652  10.531   2.855  0.1043  0.2213  0.8574
  151MOL0     C20299   6.754  10.341   2.570  0.1184  0.1843  0.3001
  151MOL0     C20300   6.710  10.255   2.468 -0.6680 -0.3681 -0.3005
  151MOL0     N20301   6.552   9.936   1.777 -1.0110 -0.7756 -0.0433
  151MOL0     N20302   6.588   9.905   1.657 -0.2806 -0.4494 -0.2788
  151MOL0     C20303   6.105   9.743   0.777 -0.8523 -0.0016 -0.8378
  151MOL0     C20304   6.058   9.730   0.644  0.3092 -0.9584 -0.9995
  151MOL0     C20305   5.755   9.620   0.347 -0.0953  0.1874 -0.2802
  151MOL0     C20306   5.663   9.518   0.332  0.2168  0.0725 -0.4210
  151MOL0     C20307   5.576   9.512   0.220 -0.6318  0.2711 -0.0241
  151MOL0     C20308   5.576   9.607   0.126 -0.9098 -0.3248  1.0852
  151MOL0     O20309   5.488   9.609   0.020  0.3787  0.3467  0.1001
  151MOL0     C20310   5.356   9.557   0.033  0.4423 -0.8742  0.2106
  151MOL0     C20311   5.265   9.646   0.113 -0.0910  0.4789 -0.6112
  151MOL0     C20312   5.117   9.598   0.111  0.0730  0.4237 -0.0705
  151MOL0     C20313   5.041   9.622   0.243 -0.0864  0.7840 -0.6186
  151MOL0     C20314   5.086   9.528   0.348  0.8477 -0.8425 -0.9838
  151MOL0     C20315   5.100   9.453   0.443  0.5033 -0.6733  1.0317
  151MOL0     C20316   5.676   9.701   0.132 -1.3660 -0.8136 -0.3518
  151MOL0     C20317   5.764   9.713   0.242  0.9925 -0.6990 -0.5138
  151MOL0     H20318   5.803   9.941   0.665  0.1607  1.2868  2.5921
  151MOL0     H20319   5.892   9.962   0.888  0.7499  1.0602 -1.6298
  151MOL0     H20320   6.103   9.630   1.047 -1.2438  1.2504 -1.0373
  151MOL0     H20321   6.244   9.723   1.008 -0.7235 -0.2358  0.0403
  151MOL0     H20322   6.209   9.857   1.210  0.8698 -0.8547 -1.0447
  151MOL0     H20323   6.062   9.752   1.249 -0.0046 -0.1993  2.2041
  151MOL0     H20324   6.277   9.705   1.390 -2.0910  2.3884 -0.6896
  151MOL0     H20325   6.228   9.565   1.310  1.4893  0.3958  1.5218
  151MOL0     H20326   6.386   9.592   1.126 -2.5064  1.0019 -0.2630
  151MOL0     H20327   6.423   9.755   1.180  0.9924  0.1401 -0.5498
  151MOL0     H20328   6.486   9.516   1.320  0.1451  0.3219 -1.0037
  151MOL0     H20329   6.601   9.594   1.213 -1.4092  1.3886 -1.5520
  151MOL0     H20330   6.584   9.804   1.352 -1.3516  1.4108  2.8381
  151MOL0     H20331   6.484   9.714   1.467  0.9273  0.6256  1.6280
  151MOL0     H20332   6.678   9.565   1.534  2.0005 -0.1713  0.2260
  151MOL0     H20333   6.772   9.609   1.401 -0.3350 -3.8235  1.5660
  151MOL0     H20334   6.780   9.854   1.503  0.5725 -0.4185 -1.4579
  151MOL0     H20335   6.850   9.727   1.605  0.1584  0.4371 -0.7126
  151MOL0     H20336   6.716   9.653   1.813 -1.0700 -0.0630 -0.3217
  151MOL0     H20337   6.455   9.849   2.007 -0.0369  0.1286 -2.1830
  151MOL0     H20338   6.577   9.712   2.035  2.1034  1.1994  0.8885
  151MOL0     H20339   6.661   9.996   2.031  1.6513  0.7743  1.1779
  151MOL0     H20340   6.737   9.858   2.112  0.6699  1.4381  1.4768
  151MOL0     H20341   6.559   9.840   2.266  0.2353 -0.1627  0.9985
  151MOL0     H20342   6.462   9.982   2.197  0.7095  1.3906  0.4129
  151MOL0     H20343   6.624  10.141   2.240  1.2322  1.0768  1.0569
  151MOL0     H20344   6.743  10.025   2.284  0.1175  1.7987  1.1420
  151MOL0     H20345   6.459  10.121   2.623  0.3353  0.2325  1.3397
  151MOL0     H20346   6.403  10.213   2.841  1.0241 -0.9058  0.0127
  151MOL0     H20347   6.524  10.309   2.934  2.7637 -2.9293 -0.7571
  151MOL0     H20348   6.425  10.388   2.817  3.8309  1.1572  0.4436
  151MOL0     H20349   6.889  10.403   3.047  0.2325  0.9092  1.2650
  151MOL0     H20350   6.989  10.522   3.232  0.7790  0.7044 -0.4687
  151MOL0     H20351   7.088  10.650   3.361  1.0180  0.0306  0.5782
  151MOL0     H20352   7.255  10.662   3.291  0.1742 -0.1710  0.1143
  151MOL0     H20353   7.113  10.871   3.458  1.1349 -0.0279 -0.7329
  151MOL0     H20354   7.225  10.738   3.510  0.4438 -0.9875  0.1896
  151MOL0     H20355   7.405  10.838   3.359  2.6215  0.2092  1.4585
  151MOL0     H20356   7.341  10.946   3.502 -2.4844  3.5843 -1.2460
  151MOL0     H20357   7.290  10.981   3.207 -0.9040 -1.3496  0.0189
  151MOL0     H20358   7.191  11.053   3.338  2.1552  2.0948 -1.5998
  151MOL0     H20359   7.350  11.185   3.413  2.0485  0.4521  0.3164
  151MOL0     H20360   7.365  11.215   3.238 -0.9190  1.3349  1.4467
  151MOL0     H20361   7.544  11.018   3.397 -0.0120  2.0360  3.5594
  151MOL0     H20362   7.570  11.077   3.228  1.0875 -0.4071 -0.4714
  151MOL0     H20363   7.676  11.146   3.474 -2.3278  1.1535  3.0215
  151MOL0     H20364   7.561  11.282   3.447 -1.7212 -1.4592 -0.6564
  151MOL0     H20365   7.661  11.331   3.237 -2.9196 -1.7996  0.6876
  151MOL0     H20366   7.754  11.171   3.237  0.5592  0.6419 -0.9505
  151MOL0     H20367   7.026  10.864   2.988 -2.4905  0.3484 -0.4139
  151MOL0     H20368   6.941  10.742   2.790  1.1863  0.7897 -0.2977
  151MOL0     H20369   6.848  10.392   2.553  0.2037 -0.3430 -0.8735
  151MOL0     H20370   6.766  10.259   2.375  3.1356 -0.7420  1.8159
  151MOL0     H20371   6.187   9.685   0.817 -2.7767 -0.8934  2.1713
  151MOL0     H20372   6.110   9.665   0.574  1.4830 -1.7156  0.4883
  151MOL0     H20373   5.640   9.452   0.416  1.4941  2.1523  1.6874
  151MOL0     H20374   5.510   9.427   0.208  1.7769 -1.3132 -4.8588
  151MOL0     H20375   5.319   9.543  -0.069  1.7233 -2.9132 -0.0259
  151MOL0     H20376   5.356   9.458   0.081  1.1640 -0.4714  1.0763
  151MOL0     H20377   5.259   9.743   0.062 -1.4026  0.5176 -0.4142
  151MOL0     H20378   5.292   9.661   0.217  0.9905  0.1258 -0.8282
  151MOL0     H20379   5.120   9.494   0.078  1.3343  0.4788 -0.1864
  151MOL0     H20380   5.056   9.645   0.033  0.2478 -2.3109 -1.9615
  151MOL0     H20381   4.932   9.615   0.232  0.0074  0.2052 -1.2462
  151MOL0     H20382   5.060   9.722   0.282  0.9930 -0.3152  1.8399
  151MOL0     H20383   5.104   9.381   0.522 -0.6817  0.5651  2.2869
  151MOL0     H20384   5.677   9.782   0.059 -1.2256 -0.0489  0.4691
  151MOL0     H20385   5.837   9.793   0.249 -1.5172  1.7004  0.3917
  152MOL0     O20386   5.453   6.305  10.844 -0.1841 -0.2959  0.3659
  152MOL0     C20387   5.371   6.395  10.829  0.4537  1.1207  0.1249
  152MOL0     O20388   5.236   6.390  10.857 -0.1959 -0.0973  0.4283
  152MOL0     C20389   5.183   6.264  10.874 -0.7559  0.2842  0.4599
  152MOL0     C20390   5.180   6.212  10.993  0.8032  0.8413 -0.6291
  152MOL0     C20391   5.125   6.077  11.006 -0.8953  0.0230  0.4251
  152MOL0     C20392   5.095   6.002  10.884  0.0706  1.2637  1.0705
  152MOL0     O20393   5.053   5.868  10.887  0.0617 -0.2977 -0.4916
  152MOL0     C20394   4.985   5.817  11.006 -0.1279 -0.5766 -0.6535
  152MOL0     C20395   4.948   5.671  10.968 -0.4803  0.3195  0.2736
  152MOL0     C20396   4.845   5.620  11.075  0.7386  0.1530 -0.2301
  152MOL0     C20397   4.827   5.465  11.085 -0.1292  0.0508 -0.8019
  152MOL0     C20398   4.915   5.391  11.190 -0.3616 -0.3883  0.0275
  152MOL0     C20399   4.853   5.252  11.199 -0.0420  0.5129  0.2628
  152MOL0     C20400   4.912   5.172  11.090 -0.4726  0.5937 -0.3579
  152MOL0     C20401   4.863   5.031  11.113 -0.8496 -0.5524 -0.2929
  152MOL0     N20402   4.899   4.939  11.003 -0.2251  1.3093 -0.3252
  152MOL0     C20403   4.997   4.845  11.015  0.2771  0.5593 -0.3465
  152MOL0     C20404   4.994   4.779  10.899  0.8187 -0.0792 -0.5735
  152MOL0     C20405   5.063   4.659  10.863 -0.5810  0.4147  0.4033
  152MOL0     C20406   5.058   4.559  10.985  0.3427 -0.8081  0.5823
  152MOL0     C20407   5.090   4.416  10.928 -0.2353  0.2192 -0.1506
  152MOL0     C20408   5.114   4.297  11.026  0.6821  0.4987 -0.8666
  152MOL0     O20409   5.185   4.329  11.139 -0.4209  0.7222 -0.8481
  152MOL0     C20410   5.212   4.231  11.234  0.3564 -0.1419 -0.1097
  152MOL0     C20411   5.191   4.084  11.234 -0.2932 -0.6101  0.7200
  152MOL0     C20412   5.212   4.012  11.350  0.2730  0.1867  0.0749
  152MOL0     C20413   5.146   3.875  11.347 -0.1906  0.1124  0.1267
  152MOL0     C20414   5.273   4.074  11.460  0.0646  0.4134  0.0518
  152MOL0     C20415   5.302   4.000  11.576  0.3744 -0.5824 -0.5614
  152MOL0     O20416   5.355   4.077  11.673  0.3895 -0.2491 -0.2121
  152MOL0     C20417   5.392   4.020  11.794  0.1805 -0.1680  0.6327
  152MOL0     C20418   5.480   3.918  11.800 -0.5461  1.9638 -0.1794
  152MOL0     C20419   5.522   3.855  11.917  0.7094  0.2787 -0.6224
  152MOL0     C20420   5.456   3.905  12.037 -0.6744  0.5721  1.3469
  152MOL0     O20421   5.489   3.838  12.150 -0.7787 -1.5473  0.3690
  152MOL0     C20422   5.499   3.919  12.269 -0.1535  0.7062 -0.6794
  152MOL0     C20423   5.557   3.820  12.373 -0.3272  0.4690  0.5910
  152MOL0     C20424   5.605   3.911  12.493  0.8747 -0.1437 -0.5116
  152MOL0     C20425   5.738   3.993  12.480 -0.6129  0.6281 -0.3850
  152MOL0     C20426   5.776   4.081  12.594  0.2696  0.8443 -0.4864
  152MOL0     C20427   5.828   4.016  12.715  0.5537 -1.3536 -0.0712
  152MOL0     C20428   5.977   3.964  12.695 -0.1942  0.0943  1.4547
  152MOL0     C20429   6.044   3.879  12.802  0.9040  0.3660  0.4122
  152MOL0    Cl20430   6.213   3.867  12.746  0.0288  0.4502  0.6492
  152MOL0     C20431   5.361   4.005  12.025  0.4555  0.5308 -1.5270
  152MOL0     C20432   5.343   4.071  11.910  1.0494  0.2212 -0.6471
  152MOL0     O20433   5.284   3.876  11.582  0.0773 -0.0996  0.5004
  152MOL0     C20434   5.303   4.210  11.455 -0.6887 -0.1005  0.1224
  152MOL0     C20435   5.268   4.289  11.354  0.4781 -0.0978  0.8175
  152MOL0     N20436   4.889   4.837  10.830  0.3026  0.1235  0.7745
  152MOL0     N20437   4.836   4.929  10.885 -0.3485 -0.0784 -1.1112
  152MOL0     C20438   5.084   6.062  10.763 -0.0750 -0.8111  0.1352
  152MOL0     C20439   5.128   6.192  10.757  0.1185 -0.4444 -0.1803
  152MOL0     C20440   5.416   6.529  10.768 -0.8417  0.5824 -0.3950
  152MOL0     C20441   5.335   6.642  10.773 -0.0087 -0.6149  0.6120
  152MOL0     C20442   5.372   6.760  10.699 -0.1327  0.7622 -0.2360
  152MOL0     C20443   5.493   6.764  10.627  0.0273  0.4664  0.9086
  152MOL0     O20444   5.529   6.888  10.594 -0.4991  0.3748  0.0173
  152MOL0     C20445   5.511   6.923  10.457 -0.3331 -0.8643  0.2288
  152MOL0     C20446   5.488   7.068  10.411  0.1547  0.1106  0.5509
  152MOL0     C20447   5.366   7.147  10.466 -0.2867 -0.7924 -0.1379
  152MOL0     C20448   5.382   7.193  10.607 -0.7731 -0.1652  0.0925
  152MOL0     C20449   5.443   7.325  10.615 -0.4397  0.1294  0.1464
  152MOL0     C20450   5.508   7.432  10.629 -0.2774  0.8780  0.0443
  152MOL0     C20451   5.581   6.655  10.629  0.2586  0.7473  0.2619
  152MOL0     C20452   5.541   6.536  10.697 -0.3713  0.0404  0.1658
  152MOL0     H20453   5.216   6.279  11.070  0.3611  0.0740  0.2677
  152MOL0     H20454   5.121   6.049  11.110 -1.6804  4.6560  1.8710
  152MOL0     H20455   5.045   5.814  11.097 -0.6257  0.3624 -0.2784
  152MOL0     H20456   4.902   5.880  11.038 -0.5258 -1.3462 -0.1472
  152MOL0     H20457   4.893   5.668  10.874 -3.5031  0.3826  1.8879
  152MOL0     H20458   5.041   5.614  10.968  1.0747  2.7541 -0.0444
  152MOL0     H20459   4.884   5.656  11.170  3.5619  0.2806 -1.3491
  152MOL0     H20460   4.745   5.664  11.066 -0.0203 -1.8549 -5.5926
  152MOL0     H20461   4.720   5.446  11.102 -0.0431  1.2969  1.6581
  152MOL0     H20462   4.852   5.425  10.987 -1.8679 -1.0288 -0.8519
  152MOL0     H20463   5.016   5.377  11.153 -1.0429 -0.8157 -1.7850
  152MOL0     H20464   4.916   5.439  11.288 -0.0976 -0.0693 -0.1312
  152MOL0     H20465   4.889   5.204  11.290 -0.5246 -2.9851 -1.2531
  152MOL0     H20466   4.745   5.243  11.188  0.3157 -3.2474 -1.7745
  152MOL0     H20467   4.872   5.210  10.996 -0.5566  2.7732  0.5162
  152MOL0     H20468   5.020   5.164  11.100 -0.6249 -0.2819  0.9622
  152MOL0     H20469   4.756   5.029  11.134 -0.9668  0.1738 -0.7978
  152MOL0     H20470   4.910   4.996  11.205 -1.8391  0.8359  0.7772
  152MOL0     H20471   5.042   4.815  11.109 -1.2557  1.3251  0.6839
  152MOL0     H20472   5.013   4.619  10.775 -0.4797  1.3848 -0.1103
  152MOL0     H20473   5.164   4.695  10.838 -1.0455  2.1569  0.8539
  152MOL0     H20474   4.967   4.555  11.045  0.8309  1.9511  1.6263
  152MOL0     H20475   5.136   4.582  11.059 -0.1568  0.4965  0.7228
  152MOL0     H20476   5.188   4.427  10.881  0.2782 -0.3004  0.7713
  152MOL0     H20477   5.008   4.390  10.861  0.8439 -1.2029 -0.9725
  152MOL0     H20478   5.175   4.217  10.983  2.2554  0.6596  0.9352
  152MOL0     H20479   5.014   4.256  11.044 -0.1813  1.0821 -3.7785
  152MOL0     H20480   5.142   4.035  11.151 -0.5300  2.5263 -1.1864
  152MOL0     H20481   5.079   3.854  11.431  1.1903 -1.3141  0.9247
  152MOL0     H20482   5.090   3.866  11.254 -0.0131  1.2770 -0.1125
  152MOL0     H20483   5.228   3.803  11.342  1.0846  1.5653 -1.4271
  152MOL0     H20484   5.520   3.885  11.704  1.2337 -1.5817  1.5458
  152MOL0     H20485   5.593   3.773  11.921  2.3006  1.6279 -0.2057
  152MOL0     H20486   5.567   4.003  12.257 -0.1027  0.7567 -0.0367
  152MOL0     H20487   5.406   3.963  12.307  0.5371 -0.2773  2.4331
  152MOL0     H20488   5.503   3.732  12.410  2.5206 -0.1546  3.8488
  152MOL0     H20489   5.650   3.780  12.329  0.0657  0.8604  1.0544
  152MOL0     H20490   5.617   3.852  12.585  2.3892  0.8606 -0.0247
  152MOL0     H20491   5.521   3.980  12.508  1.6973  2.2251 -5.1280
  152MOL0     H20492   5.819   3.921  12.464 -2.6614 -1.7264 -0.8415
  152MOL0     H20493   5.740   4.058  12.392  1.3179  2.0740  0.6388
  152MOL0     H20494   5.685   4.141  12.602  1.5218  2.8375 -0.4836
  152MOL0     H20495   5.849   4.149  12.549 -1.1861  1.7284 -1.6052
  152MOL0     H20496   5.824   4.091  12.795 -0.7190  0.3170 -1.6186
  152MOL0     H20497   5.763   3.932  12.743 -0.9663 -0.0279  0.5317
  152MOL0     H20498   6.039   4.054  12.699 -0.8277  0.6040  0.1897
  152MOL0     H20499   5.979   3.909  12.600 -0.3377 -1.0293  2.0795
  152MOL0     H20500   5.991   3.784  12.812  1.4421  0.2686  2.8804
  152MOL0     H20501   6.036   3.928  12.899  0.3963  3.2276 -0.9393
  152MOL0     H20502   5.307   4.028  12.116  0.2292 -0.5428 -1.3686
  152MOL0     H20503   5.281   4.159  11.924  0.7785 -0.1118  0.3653
  152MOL0     H20504   5.345   4.272  11.533  0.1079  0.9555 -1.0932
  152MOL0     H20505   5.252   4.394  11.374  4.2527  0.5344  1.3613
  152MOL0     H20506   5.058   6.010  10.672  0.3079  3.3244 -2.6411
  152MOL0     H20507   5.128   6.245  10.662 -2.5839 -1.8902 -1.0950
  152MOL0     H20508   5.239   6.645  10.824 -0.9403  0.5643 -1.1179
  152MOL0     H20509   5.312   6.850  10.712 -0.3579  0.7192 -0.9643
  152MOL0     H20510   5.605   6.892  10.411  0.1436 -1.0861  1.3128
  152MOL0     H20511   5.432   6.866  10.407 -0.0856 -0.4997 -0.5906
  152MOL0     H20512   5.471   7.057  10.304 -4.3869 -2.4679  1.2770
  152MOL0     H20513   5.577   7.129  10.428  1.0640 -1.3183  1.1237
  152MOL0     H20514   5.271   7.093  10.461 -0.4556 -0.3951 -2.4826
  152MOL0     H20515   5.361   7.238  10.406  0.3511 -0.2413  0.6251
  152MOL0     H20516   5.440   7.119  10.662  0.1474  0.1103 -0.4750
  152MOL0     H20517   5.289   7.190  10.665  0.2108 -1.2633  1.6812
  152MOL0     H20518   5.579   7.513  10.630  0.5316  0.1818 -0.4460
  152MOL0     H20519   5.671   6.673  10.571 -0.1436  3.1303  0.2676
  152MOL0     H20520   5.608   6.451  10.692  0.3892  0.6932 -1.5801
  153MOL0     O20521   7.216   9.121  10.904  0.1746  0.1112  0.2694
  153MOL0     C20522   7.181   9.093  11.020 -0.6351 -0.6453  0.5179
  153MOL0     O20523   7.105   9.173  11.099  0.5847  0.7389  0.7461
  153MOL0     C20524   7.054   9.281  11.034  0.4972  0.2593 -0.1837
  153MOL0     C20525   7.100   9.410  11.068 -0.0180  0.3048  0.3138
  153MOL0     C20526   7.031   9.519  11.023 -0.4134 -0.1391 -0.6036
  153MOL0     C20527   6.909   9.513  10.945 -0.0478 -0.0834 -0.2927
  153MOL0     O20528   6.841   9.629  10.921  0.9287  0.5601  0.2278
  153MOL0     C20529   6.756   9.627  10.804  0.2265 -0.1669 -0.1867
  153MOL0     C20530   6.638   9.720  10.837 -0.2971 -0.3886 -0.4306
  153MOL0     C20531   6.690   9.864  10.870 -0.8853  0.9810  0.8244
  153MOL0     C20532   6.576   9.967  10.851 -0.4078  0.3759 -0.1450
  153MOL0     C20533   6.639  10.098  10.862 -0.2990 -0.1088  0.5688
  153MOL0     C20534   6.547  10.214  10.819 -0.5745  0.1985  0.2526
  153MOL0     C20535   6.457  10.264  10.936 -0.6878 -0.5584  0.9494
  153MOL0     C20536   6.540  10.320  11.060  0.4307 -0.3174 -0.8089
  153MOL0     N20537   6.446  10.313  11.174 -0.7654  0.5923  0.5829
  153MOL0     C20538   6.380  10.206  11.222  1.3614 -0.6015 -0.2142
  153MOL0     C20539   6.307  10.260  11.322  0.1726 -0.6161  0.0166
  153MOL0     C20540   6.219  10.183  11.404  0.7559 -1.6560 -0.3962
  153MOL0     C20541   6.220  10.208  11.556  0.5057 -0.5674  0.7277
  153MOL0     C20542   6.344  10.147  11.608 -0.0005 -0.0404 -0.8498
  153MOL0     C20543   6.362  10.146  11.758 -0.2832 -0.9555 -0.5205
  153MOL0     O20544   6.280  10.061  11.833 -0.2329 -0.3550 -0.0403
  153MOL0     C20545   6.330  10.012  11.950 -0.5315 -0.1031 -0.5926
  153MOL0     C20546   6.342   9.877  11.959 -0.1299 -0.7384 -0.8841
  153MOL0     C20547   6.395   9.813  12.074 -0.0271 -0.6120  0.3592
  153MOL0     C20548   6.429   9.667  12.057  0.1441 -0.4669 -0.2040
  153MOL0     C20549   6.421   9.890  12.189  0.0754 -0.2299  0.3628
  153MOL0     C20550   6.468   9.840  12.322  0.2661  1.3085 -0.9362
  153MOL0     O20551   6.502   9.939  12.409 -0.0874 -0.1544 -0.2259
  153MOL0     C20552   6.610   9.924  12.503  0.6226  0.8729  0.1191
  153MOL0     C20553   6.624  10.026  12.596 -0.6021  0.9191 -1.0253
  153MOL0     C20554   6.731  10.015  12.688 -0.5229  0.2134 -0.1414
  153MOL0     C20555   6.833   9.914  12.669  0.1668  0.8296 -1.1891
  153MOL0     O20556   6.937   9.913  12.758  0.0234 -0.2530 -0.2156
  153MOL0     C20557   7.065   9.871  12.700  0.4783  1.1221 -0.3407
  153MOL0     C20558   7.164   9.955  12.790 -0.7446  0.4074  1.0021
  153MOL0     C20559   7.129   9.957  12.939  0.1928  0.7807  0.5391
  153MOL0     C20560   7.158   9.818  12.991  1.2824 -0.5598 -0.2844
  153MOL0     C20561   7.131   9.832  13.145  0.1996  0.0833  0.5099
  153MOL0     C20562   7.142   9.690  13.211  0.2257 -0.9784  1.3888
  153MOL0     C20563   7.155   9.708  13.359  0.9945 -0.2804 -0.4297
  153MOL0     C20564   7.137   9.570  13.432 -0.2009 -0.2889 -0.1923
  153MOL0    Cl20565   6.974   9.509  13.421  0.1844 -0.3320 -0.0594
  153MOL0     C20566   6.821   9.812  12.576  0.0899  0.1928 -0.4701
  153MOL0     C20567   6.700   9.810  12.501 -0.1171 -0.0921  0.1317
  153MOL0     O20568   6.478   9.717  12.346  0.1629  0.1269  0.2194
  153MOL0     C20569   6.407  10.027  12.175 -0.6247 -0.5557 -1.3960
  153MOL0     C20570   6.373  10.088  12.056  0.7893 -0.4415 -0.5629
  153MOL0     N20571   6.340  10.394  11.333  0.2211  0.7940  0.5264
  153MOL0     N20572   6.423  10.427  11.243 -0.1623  0.1177  0.0877
  153MOL0     C20573   6.866   9.383  10.923  0.5175 -0.2617  0.0341
  153MOL0     C20574   6.935   9.263  10.963 -1.8372  0.1276 -0.4272
  153MOL0     C20575   7.242   8.987  11.094  0.3106  0.2081  0.3251
  153MOL0     C20576   7.261   8.997  11.233  0.0745  0.0480 -1.1500
  153MOL0     C20577   7.321   8.895  11.310 -0.4018 -0.7000  0.4893
  153MOL0     C20578   7.360   8.775  11.246 -0.2137  0.4491 -0.0339
  153MOL0     O20579   7.392   8.665  11.321 -0.0024 -0.4824  0.0401
  153MOL0     C20580   7.386   8.530  11.273 -0.0937  0.0267  0.2285
  153MOL0     C20581   7.411   8.440  11.397 -0.3595  0.3782  0.4974
  153MOL0     C20582   7.331   8.469  11.523 -0.1003 -0.3524 -1.1964
  153MOL0     C20583   7.390   8.572  11.613 -0.4200  0.2445 -0.9158
  153MOL0     C20584   7.523   8.543  11.656 -0.5616  0.4461 -0.3472
  153MOL0     C20585   7.630   8.537  11.708  0.0769 -0.0999  0.7252
  153MOL0     C20586   7.348   8.755  11.108  0.1599 -0.0830 -0.0498
  153MOL0     C20587   7.286   8.863  11.034  0.0844 -0.1187  0.3666
  153MOL0     H20588   7.187   9.418  11.132 -0.9432  0.8482  1.5299
  153MOL0     H20589   7.068   9.615  11.059 -0.8189 -0.1454 -0.1682
  153MOL0     H20590   6.815   9.672  10.724  1.9948 -2.2071 -0.1307
  153MOL0     H20591   6.722   9.533  10.758 -0.3762 -0.1381  0.1831
  153MOL0     H20592   6.573   9.732  10.750 -0.8103 -1.1243 -0.1585
  153MOL0     H20593   6.573   9.686  10.918 -2.2337  1.1001 -1.3045
  153MOL0     H20594   6.728   9.866  10.972  3.7777 -0.2749 -0.6453
  153MOL0     H20595   6.768   9.888  10.797 -1.3435  1.8462  0.6084
  153MOL0     H20596   6.549   9.954  10.746  4.3982 -2.0757 -1.3777
  153MOL0     H20597   6.482   9.960  10.906 -2.9096 -2.8545 -4.2818
  153MOL0     H20598   6.681  10.105  10.963  1.0897 -0.6696  0.0559
  153MOL0     H20599   6.725  10.111  10.795  0.6371 -2.3179  1.2533
  153MOL0     H20600   6.590  10.298  10.765 -3.7472  0.7208 -1.7525
  153MOL0     H20601   6.483  10.170  10.741  3.3718 -1.8092 -2.1473
  153MOL0     H20602   6.392  10.343  10.897  1.9052 -0.0716 -2.9931
  153MOL0     H20603   6.400  10.176  10.967  0.1685 -0.8560  1.7398
  153MOL0     H20604   6.579  10.420  11.037 -0.3922 -0.2381 -1.9185
  153MOL0     H20605   6.620  10.250  11.085  0.0469  0.2697  2.5313
  153MOL0     H20606   6.383  10.101  11.193  2.1825 -1.0635  1.4628
  153MOL0     H20607   6.119  10.210  11.368  0.8395 -0.3064  0.3382
  153MOL0     H20608   6.235  10.076  11.384 -1.2748 -2.1664  0.4670
  153MOL0     H20609   6.135  10.160  11.605 -0.9361  1.7597  0.6676
  153MOL0     H20610   6.229  10.316  11.573  0.0375 -0.2636 -0.8195
  153MOL0     H20611   6.434  10.190  11.563  1.6440 -1.5714  0.7702
  153MOL0     H20612   6.352  10.041  11.586  2.7808 -0.1330  0.1897
  153MOL0     H20613   6.343  10.249  11.790 -0.3864 -1.1752  0.1444
  153MOL0     H20614   6.471  10.136  11.764 -0.0230  0.4633 -2.2235
  153MOL0     H20615   6.315   9.830  11.865 -0.3540  1.1935 -1.8385
  153MOL0     H20616   6.530   9.638  12.088  0.7129  0.2447 -1.3304
  153MOL0     H20617   6.352   9.610  12.110 -1.4366 -2.4189 -4.1664
  153MOL0     H20618   6.416   9.647  11.951 -1.9443  1.7536 -0.4489
  153MOL0     H20619   6.550  10.105  12.605 -2.0079 -0.4669  0.2627
  153MOL0     H20620   6.751  10.095  12.760  1.8015  1.9182 -2.4710
  153MOL0     H20621   7.084   9.763  12.705  0.9507  1.2062 -0.2287
  153MOL0     H20622   7.067   9.893  12.593 -3.4067  0.1404 -0.7686
  153MOL0     H20623   7.270   9.927  12.787 -1.1142 -1.0107 -1.6352
  153MOL0     H20624   7.150  10.058  12.755  1.7288  1.2818  2.3359
  153MOL0     H20625   7.027   9.981  12.971  0.8548  1.1565  2.5493
  153MOL0     H20626   7.190  10.031  12.994 -2.8437  1.5124  3.2361
  153MOL0     H20627   7.083   9.750  12.949 -1.0305  0.3680  2.0507
  153MOL0     H20628   7.263   9.791  12.975  1.5579  0.8270 -0.9094
  153MOL0     H20629   7.037   9.875  13.180 -0.2759 -1.1010  0.7380
  153MOL0     H20630   7.210   9.895  13.187 -0.6591  1.3411  0.3028
  153MOL0     H20631   7.067   9.614  13.191 -1.7074  0.7706  1.7243
  153MOL0     H20632   7.238   9.652  13.174  1.3428  2.1220  0.8189
  153MOL0     H20633   7.072   9.772  13.389  0.8955 -0.0964 -1.0832
  153MOL0     H20634   7.252   9.749  13.387  1.6846 -0.6381 -2.1674
  153MOL0     H20635   7.163   9.567  13.538 -0.6258 -0.0914 -0.0781
  153MOL0     H20636   7.183   9.489  13.375 -2.2195 -1.8091  0.2339
  153MOL0     H20637   6.886   9.725  12.572 -0.9375 -0.5834 -0.8768
  153MOL0     H20638   6.683   9.717  12.448  1.3675 -3.2302  4.5474
  153MOL0     H20639   6.442  10.105  12.243  1.0608 -0.8918 -1.8369
  153MOL0     H20640   6.372  10.196  12.041 -0.5835 -0.0903  1.5964
  153MOL0     H20641   6.767   9.377  10.879 -0.0507  1.1644  1.0302
  153MOL0     H20642   6.897   9.161  10.953  2.8351 -1.8272 -1.0943
  153MOL0     H20643   7.237   9.083  11.293  3.8838 -0.4204  1.3802
  153MOL0     H20644   7.342   8.908  11.416  2.2398  0.1605 -0.0627
  153MOL0     H20645   7.292   8.521  11.218  0.8361 -1.0956 -1.2356
  153MOL0     H20646   7.468   8.504  11.206 -1.4668 -1.5055 -0.9437
  153MOL0     H20647   7.518   8.452  11.415 -0.3318  0.7841  0.0844
  153MOL0     H20648   7.401   8.337  11.364 -0.2065 -0.0853  1.8297
  153MOL0     H20649   7.316   8.376  11.578 -3.1867  0.4599 -0.4649
  153MOL0     H20650   7.228   8.500  11.504 -0.9914 -1.7117  0.9919
  153MOL0     H20651   7.323   8.567  11.699 -0.1724  4.4826 -0.2568
  153MOL0     H20652   7.384   8.672  11.569  3.5624  0.7291 -0.7366
  153MOL0     H20653   7.721   8.541  11.764  1.9309 -0.1733 -2.1259
  153MOL0     H20654   7.368   8.667  11.048 -2.7975 -0.1610 -1.1155
  153MOL0     H20655   7.270   8.850  10.928 -0.1375  0.1903  0.3628
  154MOL0     O20656   9.685   2.500   5.021  0.4101 -0.0749  0.4087
  154MOL0     C20657   9.787   2.491   5.092 -0.4254 -0.4563  0.1174
  154MOL0     O20658   9.885   2.391   5.075  0.2652 -0.3369  0.1174
  154MOL0     C20659   9.904   2.317   4.959  0.0048  0.0410  0.5643
  154MOL0     C20660  10.003   2.217   4.964 -0.0069  0.4745 -0.4389
  154MOL0     C20661  10.006   2.117   4.864 -0.2525 -1.0944  0.2063
  154MOL0     C20662   9.943   2.141   4.738 -0.2120 -0.6039  0.0202
  154MOL0     O20663   9.978   2.060   4.637 -0.3506  0.0813 -0.1829
  154MOL0     C20664  10.025   2.121   4.517 -0.0526  1.0216  0.2134
  154MOL0     C20665  10.118   2.021   4.449  0.7413  0.4558  0.3483
  154MOL0     C20666  10.052   1.903   4.374 -0.8711 -0.3135 -0.3483
  154MOL0     C20667   9.979   1.946   4.247  0.0742  0.5842 -0.0518
  154MOL0     C20668   9.874   1.846   4.192  0.3214  0.2284  0.6016
  154MOL0     C20669   9.925   1.728   4.123 -0.1924  0.3453  0.2315
  154MOL0     C20670   9.812   1.641   4.065 -0.1956 -0.0620 -0.1926
  154MOL0     C20671   9.842   1.490   4.108  0.1543 -0.8072 -0.3932
  154MOL0     N20672   9.936   1.424   4.030  0.3682 -0.7916 -0.8631
  154MOL0     C20673   9.926   1.290   4.024 -0.3425 -0.0355  0.3609
  154MOL0     C20674  10.049   1.256   3.958 -0.4354 -0.0754 -1.0093
  154MOL0     C20675  10.094   1.110   3.923 -0.1498 -0.0898 -0.5771
  154MOL0     C20676  10.112   1.094   3.770 -0.4473  0.7226 -0.1283
  154MOL0     C20677  10.236   1.170   3.715  0.4632 -1.0432 -0.0572
  154MOL0     C20678  10.193   1.276   3.611  0.1410 -0.2683 -1.0196
  154MOL0     O20679  10.139   1.197   3.495  0.2148  0.2787 -0.1043
  154MOL0     C20680  10.117   1.265   3.379 -0.3963 -0.1236 -0.4410
  154MOL0     C20681  10.143   1.218   3.251 -0.2347 -0.2428  0.1028
  154MOL0     C20682  10.121   1.303   3.143 -0.6075  0.0083  1.0101
  154MOL0     C20683  10.173   1.252   3.004  0.5803 -0.5381  0.0226
  154MOL0     C20684  10.061   1.433   3.157 -0.8001 -0.1390  0.7878
  154MOL0     C20685  10.010   1.519   3.038  0.6215  0.1832 -1.1378
  154MOL0     O20686  10.020   1.655   3.040 -0.1145  0.0166  0.2316
  154MOL0     C20687   9.965   1.727   2.938 -0.2719  0.0023  0.1927
  154MOL0     C20688   9.918   1.854   2.980 -0.2289 -0.3019  0.3470
  154MOL0     C20689   9.885   1.946   2.885 -0.3591 -0.3967  0.6542
  154MOL0     C20690   9.911   1.929   2.751 -0.3685 -0.0758 -0.8881
  154MOL0     O20691   9.901   2.022   2.652 -0.0504 -0.5578 -0.6398
  154MOL0     C20692   9.886   2.167   2.689  0.2819 -0.4640  0.6503
  154MOL0     C20693  10.003   2.227   2.763  0.1100  0.1818  0.8630
  154MOL0     C20694  10.118   2.240   2.665 -0.3869 -0.2855  0.8644
  154MOL0     C20695  10.234   2.322   2.717 -0.0050 -0.5549  0.1349
  154MOL0     C20696  10.207   2.464   2.739 -0.1461 -0.1615  0.3705
  154MOL0     C20697  10.329   2.526   2.804  0.1131  0.0567  0.3063
  154MOL0     C20698  10.309   2.675   2.849 -0.4097 -1.2843 -0.2294
  154MOL0     C20699  10.440   2.758   2.874  1.1393  0.5325 -0.3395
  154MOL0    Cl20700  10.513   2.811   2.720  0.1116 -0.5609  0.2454
  154MOL0     C20701   9.948   1.803   2.708 -0.6787 -0.8524 -0.1078
  154MOL0     C20702   9.981   1.707   2.799  0.4892  0.3518  0.5413
  154MOL0     O20703   9.979   1.456   2.935  0.8119  0.3903  0.0592
  154MOL0     C20704  10.044   1.486   3.283 -0.0111 -0.0736  0.0595
  154MOL0     C20705  10.072   1.401   3.388  0.3423  0.1790 -0.2657
  154MOL0     N20706  10.116   1.376   3.929 -0.5386  0.7511  0.2535
  154MOL0     N20707  10.052   1.467   3.981 -0.5598 -0.2750 -0.4516
  154MOL0     C20708   9.870   2.256   4.715  0.0425 -0.7551 -0.6777
  154MOL0     C20709   9.838   2.336   4.833 -0.6400  0.1709  0.5187
  154MOL0     C20710   9.802   2.586   5.206 -0.3510  0.0131 -1.6230
  154MOL0     C20711   9.730   2.707   5.207  0.8110  0.4657 -0.0930
  154MOL0     C20712   9.739   2.795   5.313  0.1888  0.1459 -1.0555
  154MOL0     C20713   9.835   2.774   5.411 -0.2605 -0.6223 -0.3784
  154MOL0     O20714   9.852   2.858   5.524  0.3057  0.2320  0.5461
  154MOL0     C20715   9.747   2.945   5.562 -0.4362 -0.0971 -0.1346
  154MOL0     C20716   9.615   2.871   5.595  0.5139 -0.2395  0.1023
  154MOL0     C20717   9.616   2.781   5.714  0.6045  0.2593 -0.3518
  154MOL0     C20718   9.477   2.783   5.786 -0.8287  0.3376  0.1547
  154MOL0     C20719   9.359   2.752   5.698 -0.4396 -0.2792  0.9174
  154MOL0     C20720   9.273   2.732   5.618  0.4379  0.1302 -0.9969
  154MOL0     C20721   9.923   2.670   5.394 -1.0476 -0.3542 -0.2299
  154MOL0     C20722   9.912   2.574   5.298  0.9432  1.2435 -0.0645
  154MOL0     H20723  10.064   2.210   5.054 -0.2662  2.7581 -0.0276
  154MOL0     H20724  10.081   2.039   4.871  0.9540  0.1635  1.8269
  154MOL0     H20725   9.939   2.149   4.456  0.8221  0.1154 -1.4982
  154MOL0     H20726  10.096   2.202   4.537  1.2716 -0.1772  0.5243
  154MOL0     H20727  10.179   2.079   4.379 -1.7734  1.3552 -1.2195
  154MOL0     H20728  10.182   1.972   4.523 -1.1413  0.8540  2.3444
  154MOL0     H20729  10.129   1.837   4.332 -0.8439 -3.0786  3.5222
  154MOL0     H20730   9.998   1.850   4.453  0.6247  1.7295  2.2122
  154MOL0     H20731   9.923   2.037   4.271  0.3533  1.3356 -2.0848
  154MOL0     H20732  10.047   1.962   4.163 -1.2188  0.3857 -1.1624
  154MOL0     H20733   9.810   1.818   4.276 -2.5523  3.8148 -0.1210
  154MOL0     H20734   9.813   1.906   4.124 -3.0349  1.8143  4.5178
  154MOL0     H20735   9.992   1.761   4.043  1.6011  0.2038  1.6195
  154MOL0     H20736   9.997   1.673   4.184  0.3687  0.9196  0.1016
  154MOL0     H20737   9.712   1.675   4.094 -0.4440 -1.8366  1.2360
  154MOL0     H20738   9.816   1.644   3.956 -1.6991 -4.2841 -0.5388
  154MOL0     H20739   9.750   1.432   4.100  0.0674 -0.6064 -0.8559
  154MOL0     H20740   9.873   1.477   4.212 -5.0837  0.4856  1.6679
  154MOL0     H20741   9.853   1.224   4.068  0.6458 -0.8881  0.7818
  154MOL0     H20742  10.181   1.086   3.985  0.5979 -0.6501 -1.8060
  154MOL0     H20743  10.014   1.040   3.948 -1.1959  1.5198  0.7795
  154MOL0     H20744  10.020   1.125   3.719 -1.4131 -0.5628  0.7756
  154MOL0     H20745  10.127   0.987   3.751 -0.6390  0.3353  1.6921
  154MOL0     H20746  10.300   1.097   3.664 -0.7661  0.2003 -3.7556
  154MOL0     H20747  10.308   1.211   3.785  1.6996 -2.6742 -0.3069
  154MOL0     H20748  10.283   1.334   3.588  0.0937  1.3425  2.3120
  154MOL0     H20749  10.121   1.346   3.654 -0.7670  0.2903 -3.2773
  154MOL0     H20750  10.192   1.122   3.240  0.1811 -0.1226  0.7986
  154MOL0     H20751  10.224   1.343   2.971  1.3535 -1.4388 -1.3380
  154MOL0     H20752  10.240   1.166   2.997  0.7507 -0.2892 -1.6895
  154MOL0     H20753  10.099   1.233   2.926  1.7945  1.1576 -1.6320
  154MOL0     H20754   9.902   1.884   3.083 -1.6128 -0.6681  0.2661
  154MOL0     H20755   9.862   2.042   2.930 -1.3204 -0.4795  0.3612
  154MOL0     H20756   9.869   2.214   2.592  0.4679 -2.5066 -0.4213
  154MOL0     H20757   9.795   2.186   2.747 -0.5433 -0.8007 -0.5184
  154MOL0     H20758   9.963   2.326   2.787 -2.9389 -0.4671 -1.0098
  154MOL0     H20759  10.036   2.169   2.850  4.4314 -1.0958 -1.3217
  154MOL0     H20760  10.084   2.269   2.565 -0.0168  1.3168  1.1860
  154MOL0     H20761  10.165   2.142   2.653 -2.9769 -1.4043 -1.2256
  154MOL0     H20762  10.280   2.287   2.810  1.0703  3.5165  1.3299
  154MOL0     H20763  10.314   2.324   2.643 -2.6846  0.3984 -2.9844
  154MOL0     H20764  10.127   2.463   2.814  0.6667  1.0327  1.3163
  154MOL0     H20765  10.183   2.525   2.651  1.6403 -3.1748 -2.3941
  154MOL0     H20766  10.356   2.472   2.896  0.6412  1.3293  0.9164
  154MOL0     H20767  10.418   2.518   2.743  0.9296 -1.8417  1.6373
  154MOL0     H20768  10.257   2.659   2.944 -1.0811  0.1159 -0.3407
  154MOL0     H20769  10.239   2.734   2.789 -0.7218  0.3104  1.6090
  154MOL0     H20770  10.491   2.690   2.943 -3.3203  0.1409  3.0657
  154MOL0     H20771  10.414   2.847   2.932  1.0174  1.0386 -1.1656
  154MOL0     H20772   9.990   1.804   2.608  1.7783  0.4951  0.8622
  154MOL0     H20773  10.019   1.609   2.771 -1.9964  0.0259 -2.3014
  154MOL0     H20774   9.991   1.580   3.297  0.1891  0.1459 -0.6169
  154MOL0     H20775  10.055   1.448   3.485  1.9990 -1.3116  0.8267
  154MOL0     H20776   9.821   2.291   4.624 -1.3009 -1.7361 -0.3573
  154MOL0     H20777   9.767   2.417   4.817  0.9629  1.2608 -1.4561
  154MOL0     H20778   9.645   2.719   5.139 -1.5806 -1.8234  2.2473
  154MOL0     H20779   9.682   2.886   5.332  1.0788  0.1117  2.2639
  154MOL0     H20780   9.794   2.982   5.654 -1.5127 -1.7147  1.1282
  154MOL0     H20781   9.732   3.021   5.485 -0.2541 -0.5297 -0.5956
  154MOL0     H20782   9.572   2.803   5.522 -3.1332  1.8827 -0.0400
  154MOL0     H20783   9.538   2.949   5.608  2.8655  1.8312  3.0707
  154MOL0     H20784   9.688   2.823   5.784  0.9066  0.0615 -0.5380
  154MOL0     H20785   9.649   2.683   5.679  0.6729 -0.1337  0.7945
  154MOL0     H20786   9.473   2.871   5.850  3.4918  1.7908 -1.1891
  154MOL0     H20787   9.479   2.694   5.849  1.7105  1.7815  2.3439
  154MOL0     H20788   9.206   2.712   5.536 -0.3547  0.7672 -0.5110
  154MOL0     H20789  10.002   2.666   5.468 -0.9572 -0.8424 -0.3454
  154MOL0     H20790   9.985   2.493   5.291  0.0519  0.2167  1.8795
  155MOL0     O20791   3.140   8.927   6.089  0.4000  0.0073  0.4062
  155MOL0     C20792   3.075   8.925   6.196 -0.0059  0.6287  0.6396
  155MOL0     O20793   3.007   9.034   6.243  0.2965 -0.0304 -0.1217
  155MOL0     C20794   3.036   9.161   6.194 -1.6273 -1.1514  0.2080
  155MOL0     C20795   2.978   9.214   6.086  0.6202 -0.8834  0.8759
  155MOL0     C20796   3.011   9.348   6.041  0.7907  0.7547  0.0678
  155MOL0     C20797   3.106   9.422   6.095  0.3099  0.2914  0.4588
  155MOL0     O20798   3.143   9.550   6.058  0.6862 -0.4985 -0.0539
  155MOL0     C20799   3.104   9.597   5.931 -0.4330  0.2840 -0.2607
  155MOL0     C20800   3.154   9.742   5.919  0.5933 -0.2044 -0.4186
  155MOL0     C20801   3.308   9.744   5.911  0.6135  0.2059  0.6178
  155MOL0     C20802   3.370   9.885   5.903 -0.2063  0.2501 -0.3468
  155MOL0     C20803   3.523   9.870   5.916 -0.0013  0.2960  0.4505
  155MOL0     C20804   3.614   9.990   5.890 -0.1730 -1.0510  0.6530
  155MOL0     C20805   3.575  10.107   5.987 -0.2006 -0.2325  0.2131
  155MOL0     C20806   3.580  10.056   6.139 -0.1872 -0.8323 -0.4710
  155MOL0     N20807   3.552  10.164   6.232 -0.3893 -0.1297  0.2881
  155MOL0     C20808   3.578  10.303   6.214 -0.6087  0.2473 -0.2207
  155MOL0     C20809   3.517  10.356   6.323  0.2890  0.3242 -0.4712
  155MOL0     C20810   3.531  10.498   6.376  1.2455  0.0433  0.2419
  155MOL0     C20811   3.495  10.602   6.279  0.4481 -0.5623 -0.0962
  155MOL0     C20812   3.343  10.649   6.283 -0.9910 -0.4384 -0.5417
  155MOL0     C20813   3.243  10.541   6.245 -0.4530  1.4372  0.1608
  155MOL0     O20814   3.117  10.614   6.208 -0.3182  0.0079  0.6743
  155MOL0     C20815   3.020  10.662   6.293  0.0955 -0.7073 -0.1617
  155MOL0     C20816   3.032  10.641   6.432  0.3137 -0.3629 -0.3981
  155MOL0     C20817   2.921  10.690   6.508 -0.5233  0.0329  1.2508
  155MOL0     C20818   2.923  10.679   6.658 -0.4351  0.0258 -0.7031
  155MOL0     C20819   2.806  10.741   6.447 -0.3914 -1.3783 -0.8720
  155MOL0     C20820   2.701  10.790   6.530  0.4151  0.6993 -0.5192
  155MOL0     O20821   2.709  10.916   6.574 -0.4469 -0.5683 -0.0977
  155MOL0     C20822   2.608  10.956   6.661 -0.5908  0.2510  0.3364
  155MOL0     C20823   2.548  11.079   6.643  0.5294 -0.3593 -0.4452
  155MOL0     C20824   2.444  11.127   6.733  0.4640 -0.4762 -0.4656
  155MOL0     C20825   2.406  11.055   6.856  0.4181  0.0838  0.2218
  155MOL0     O20826   2.297  11.092   6.938  0.1046 -0.2668  0.5704
  155MOL0     C20827   2.192  11.174   6.887 -0.2983  0.1444 -0.5019
  155MOL0     C20828   2.090  11.088   6.813  0.3351 -0.2936  0.4939
  155MOL0     C20829   2.114  11.066   6.663 -0.0422 -0.2387  0.4834
  155MOL0     C20830   1.993  10.973   6.612 -0.3276  0.5247  0.4591
  155MOL0     C20831   1.989  10.965   6.459  0.5527 -0.1870 -0.1773
  155MOL0     C20832   2.126  10.961   6.387 -0.4949  1.0354 -0.4418
  155MOL0     C20833   2.109  10.945   6.232  0.1317 -0.5124  0.7636
  155MOL0     C20834   2.236  10.965   6.149 -0.0475 -0.2747 -0.1909
  155MOL0    Cl20835   2.289  11.128   6.142 -0.3770 -0.1886 -0.6220
  155MOL0     C20836   2.481  10.934   6.877  0.0023 -1.0360 -0.2631
  155MOL0     C20837   2.571  10.883   6.785 -0.1195  0.3607 -0.1741
  155MOL0     O20838   2.604  10.709   6.545 -0.0895 -0.2802  0.1390
  155MOL0     C20839   2.794  10.750   6.317  0.3951  0.3679  0.1278
  155MOL0     C20840   2.906  10.712   6.237  1.3755  0.1715 -0.3153
  155MOL0     N20841   3.439  10.259   6.385 -1.0197 -0.1692 -0.1435
  155MOL0     N20842   3.468  10.145   6.336 -0.0745  0.8198  0.4144
  155MOL0     C20843   3.180   9.363   6.210  0.4548  0.5014 -0.4033
  155MOL0     C20844   3.139   9.241   6.265  0.4289 -0.1553 -0.3912
  155MOL0     C20845   3.079   8.811   6.278 -1.0721  1.4228 -0.0567
  155MOL0     C20846   3.133   8.692   6.226  0.1957 -0.4376 -0.5896
  155MOL0     C20847   3.150   8.578   6.302  0.5621 -0.1828 -0.0248
  155MOL0     C20848   3.106   8.577   6.439  0.3206  0.0761 -0.3730
  155MOL0     O20849   3.106   8.462   6.525 -0.0948 -0.6690 -0.5031
  155MOL0     C20850   3.127   8.330   6.467 -0.0543 -0.2200 -0.1182
  155MOL0     C20851   3.069   8.221   6.553 -0.0394  0.3183 -0.1319
  155MOL0     C20852   3.111   8.073   6.518  0.4503  0.0665  0.1493
  155MOL0     C20853   3.066   8.024   6.387  0.5249 -0.0937 -0.2108
  155MOL0     C20854   3.129   8.087   6.274  0.0258  0.3126  0.4769
  155MOL0     C20855   3.196   8.150   6.196 -0.1396  0.2212 -0.5294
  155MOL0     C20856   3.063   8.701   6.493 -0.3930  0.1351  0.3665
  155MOL0     C20857   3.054   8.816   6.416  0.6996 -0.7945  0.3983
  155MOL0     H20858   2.899   9.157   6.039  0.0392 -0.5677  1.4642
  155MOL0     H20859   2.943   9.377   5.961 -0.6696  0.2273  1.0752
  155MOL0     H20860   3.157   9.534   5.859 -1.7821 -0.7499 -0.3842
  155MOL0     H20861   2.998   9.600   5.905 -1.0519  0.8937  2.0685
  155MOL0     H20862   3.087   9.789   5.846 -0.0399 -2.5785 -1.4542
  155MOL0     H20863   3.130   9.802   6.008  2.6377 -2.6670  1.9648
  155MOL0     H20864   3.351   9.697   6.000  1.3344 -0.6325 -0.1623
  155MOL0     H20865   3.344   9.696   5.820 -2.1054  3.1548 -2.2612
  155MOL0     H20866   3.342   9.937   5.811  1.2423  0.6281 -0.5865
  155MOL0     H20867   3.339   9.940   5.992  2.3374  0.1348  0.6922
  155MOL0     H20868   3.548   9.822   6.011 -2.9330  0.0202  1.1619
  155MOL0     H20869   3.556   9.804   5.835 -3.7301  0.6261 -1.5381
  155MOL0     H20870   3.719   9.961   5.899 -0.0831 -0.4601  1.7485
  155MOL0     H20871   3.592  10.017   5.786 -2.1705  0.0896  1.3066
  155MOL0     H20872   3.639  10.194   5.973  3.9990 -3.4476 -3.8925
  155MOL0     H20873   3.471  10.135   5.965  0.2795  1.2760 -0.2439
  155MOL0     H20874   3.684  10.024   6.150  0.3681  1.4139  1.6329
  155MOL0     H20875   3.515   9.970   6.157  0.6935 -2.0069 -2.4836
  155MOL0     H20876   3.642  10.359   6.147  1.4507 -3.2130 -1.4403
  155MOL0     H20877   3.458  10.498   6.458 -2.0974  3.3283 -2.3470
  155MOL0     H20878   3.635  10.501   6.407  1.4568 -0.7712 -0.3572
  155MOL0     H20879   3.519  10.565   6.179  2.3762  1.8952 -0.6324
  155MOL0     H20880   3.566  10.681   6.305  0.5438 -1.1689  1.6367
  155MOL0     H20881   3.327  10.731   6.213  1.6952 -0.3918 -1.2011
  155MOL0     H20882   3.322  10.690   6.383  0.4705  0.7819 -0.6983
  155MOL0     H20883   3.228  10.457   6.314  1.9574 -0.9014 -1.9321
  155MOL0     H20884   3.281  10.495   6.153  0.4771  2.0851  0.2121
  155MOL0     H20885   3.118  10.591   6.475 -1.1846 -0.4871  2.7381
  155MOL0     H20886   2.881  10.585   6.696  2.9596 -1.3726 -0.0128
  155MOL0     H20887   3.027  10.659   6.687 -1.9549 -2.9851  3.8856
  155MOL0     H20888   2.888  10.764   6.717 -2.7167 -2.5127  1.9787
  155MOL0     H20889   2.576  11.133   6.553 -1.9899  1.0939 -0.4468
  155MOL0     H20890   2.401  11.226   6.725 -0.5825 -0.9200 -0.5731
  155MOL0     H20891   2.146  11.216   6.977  0.2461 -0.3765  0.0332
  155MOL0     H20892   2.227  11.255   6.822  2.0661 -1.6160 -1.5770
  155MOL0     H20893   2.073  10.996   6.871  2.4981 -0.8265  0.4002
  155MOL0     H20894   1.997  11.144   6.812  0.7562  0.4430  1.3333
  155MOL0     H20895   2.209  11.015   6.644  1.1542  1.8471  0.6695
  155MOL0     H20896   2.104  11.162   6.612 -3.9706 -1.1129 -0.8004
  155MOL0     H20897   1.996  10.874   6.657  0.6415 -1.1406 -2.9790
  155MOL0     H20898   1.906  11.030   6.648  0.2046  2.1851 -0.7429
  155MOL0     H20899   1.934  11.052   6.422 -0.1974 -1.1651 -1.4684
  155MOL0     H20900   1.925  10.881   6.430 -0.2370  0.7827 -1.3508
  155MOL0     H20901   2.198  11.040   6.414  0.5035 -0.4361  1.4631
  155MOL0     H20902   2.172  10.868   6.420 -1.0997  1.1097  0.6646
  155MOL0     H20903   2.035  11.013   6.189  4.5460  2.3982 -3.2586
  155MOL0     H20904   2.065  10.849   6.204 -4.6046  1.9485 -1.2868
  155MOL0     H20905   2.210  10.931   6.048  1.6421 -0.3782 -0.6295
  155MOL0     H20906   2.301  10.890   6.194 -1.3146 -0.1418  1.9761
  155MOL0     H20907   2.457  10.877   6.965 -1.8059  0.3396  0.1982
  155MOL0     H20908   2.640  10.807   6.818  1.8625  1.6547 -1.1753
  155MOL0     H20909   2.702  10.764   6.261 -0.2211 -1.1710  0.7048
  155MOL0     H20910   2.910  10.712   6.128 -1.9613  1.2844 -0.5335
  155MOL0     H20911   3.271   9.401   6.257  0.0300  2.4534 -1.0419
  155MOL0     H20912   3.190   9.200   6.352  2.3100 -0.7109 -1.6777
  155MOL0     H20913   3.170   8.679   6.125  2.0831 -3.2185  0.3461
  155MOL0     H20914   3.198   8.492   6.256  1.7633 -0.0727  0.9527
  155MOL0     H20915   3.095   8.321   6.363  0.7088 -3.6536 -0.1647
  155MOL0     H20916   3.236   8.315   6.467 -0.0043  0.0263  1.0579
  155MOL0     H20917   2.960   8.231   6.549 -0.0598  0.4701  0.7170
  155MOL0     H20918   3.102   8.234   6.656 -1.3689 -0.3660  0.4038
  155MOL0     H20919   3.066   8.003   6.589 -4.3659  0.6951 -1.8906
  155MOL0     H20920   3.220   8.080   6.513  0.4292  0.5008 -4.5955
  155MOL0     H20921   2.958   8.041   6.381  0.9628  3.4253  0.0159
  155MOL0     H20922   3.087   7.917   6.381 -2.1793 -0.8548  2.0195
  155MOL0     H20923   3.245   8.213   6.124 -0.0070 -0.5645 -1.1329
  155MOL0     H20924   3.023   8.702   6.594 -1.0167 -3.1072  0.2791
  155MOL0     H20925   3.025   8.901   6.476 -2.1714 -2.0349  0.9304
  156MOL0     O20926   6.904   8.357   3.738 -1.2872  0.2240  0.3073
  156MOL0     C20927   6.800   8.349   3.804 -1.4067  0.7112  0.4552
  156MOL0     O20928   6.715   8.449   3.836 -0.5504 -0.5330 -0.3306
  156MOL0     C20929   6.738   8.578   3.797  0.3103 -1.7863 -0.5918
  156MOL0     C20930   6.726   8.665   3.910  0.2519  0.3422 -0.1686
  156MOL0     C20931   6.745   8.801   3.889  0.5485 -0.4312  0.0310
  156MOL0     C20932   6.764   8.854   3.757 -0.5424 -0.3671 -0.4712
  156MOL0     O20933   6.766   8.988   3.744 -0.3958 -0.5069  0.2394
  156MOL0     C20934   6.818   9.043   3.618  0.3349  0.7206  0.1110
  156MOL0     C20935   6.782   9.191   3.625 -0.5395 -1.1594 -0.6235
  156MOL0     C20936   6.898   9.278   3.588 -0.3056 -0.1911 -0.2524
  156MOL0     C20937   6.856   9.426   3.629 -0.1601 -0.1847  0.2710
  156MOL0     C20938   6.791   9.497   3.514 -0.0817  0.9332 -0.8120
  156MOL0     C20939   6.723   9.627   3.556 -0.4270 -0.0240  0.4860
  156MOL0     C20940   6.655   9.696   3.439  0.1520  0.1553  0.5592
  156MOL0     C20941   6.551   9.798   3.480  0.6017 -0.2402 -1.6450
  156MOL0     N20942   6.442   9.732   3.558 -0.1889 -0.3542  0.2851
  156MOL0     C20943   6.389   9.606   3.538  0.8229 -0.3285 -0.0139
  156MOL0     C20944   6.316   9.578   3.641  1.1961  0.1006  0.0587
  156MOL0     C20945   6.228   9.464   3.656  0.2028 -0.4932 -1.1271
  156MOL0     C20946   6.293   9.328   3.679  0.8757  0.0020 -0.1683
  156MOL0     C20947   6.326   9.288   3.826  0.5540 -0.0090 -0.1206
  156MOL0     C20948   6.374   9.138   3.833  0.8169 -0.3732  0.3856
  156MOL0     O20949   6.257   9.050   3.827  0.3133 -0.5920 -0.2761
  156MOL0     C20950   6.277   8.937   3.891 -0.0164 -0.4297  0.1615
  156MOL0     C20951   6.153   8.879   3.923 -0.1536  0.9123 -0.0088
  156MOL0     C20952   6.149   8.741   3.967  0.2157 -0.3207 -0.2706
  156MOL0     C20953   6.016   8.661   3.985  0.2951 -0.4773  0.1151
  156MOL0     C20954   6.267   8.659   3.972  0.3742  0.2795 -0.0290
  156MOL0     C20955   6.269   8.514   4.015  0.2922  0.1321 -0.0542
  156MOL0     O20956   6.358   8.477   4.120 -0.6341 -0.2447 -0.3622
  156MOL0     C20957   6.339   8.357   4.177  1.5324 -0.1582 -0.4219
  156MOL0     C20958   6.210   8.297   4.191 -0.2031 -0.3798 -0.2008
  156MOL0     C20959   6.202   8.178   4.273  1.3568  0.8771  0.1651
  156MOL0     C20960   6.312   8.107   4.318  0.2844 -0.0878  0.4733
  156MOL0     O20961   6.294   7.995   4.387  0.3663  0.2074 -0.2482
  156MOL0     C20962   6.319   7.866   4.340 -0.1714 -0.1685 -1.1674
  156MOL0     C20963   6.189   7.792   4.292  0.6366 -0.4530 -0.3796
  156MOL0     C20964   6.135   7.839   4.160 -0.1247  0.2008 -0.6523
  156MOL0     C20965   6.041   7.732   4.105  0.5388 -0.2761  0.3249
  156MOL0     C20966   6.113   7.614   4.036  0.4807 -0.2710  0.0706
  156MOL0     C20967   6.035   7.581   3.913 -0.0823  0.9278  0.4669
  156MOL0     C20968   5.902   7.508   3.936 -0.6320 -0.4018  1.0035
  156MOL0     C20969   5.816   7.513   3.808  0.0437  0.5762 -0.0695
  156MOL0    Cl20970   5.879   7.403   3.670  0.1696 -0.1092  0.0483
  156MOL0     C20971   6.435   8.174   4.301 -0.5290  0.1287 -0.0433
  156MOL0     C20972   6.446   8.297   4.235 -0.0457 -0.0540  0.2899
  156MOL0     O20973   6.199   8.432   3.951 -0.7811 -0.3208 -0.1932
  156MOL0     C20974   6.389   8.723   3.949  0.2035 -0.1283 -0.4187
  156MOL0     C20975   6.388   8.860   3.899  0.0980  0.0900  0.0520
  156MOL0     N20976   6.326   9.680   3.735  0.7541  0.1556  0.1196
  156MOL0     N20977   6.406   9.776   3.683 -0.4935  0.2333  0.2299
  156MOL0     C20978   6.759   8.763   3.645  0.2686 -0.3493  0.2990
  156MOL0     C20979   6.749   8.632   3.667 -0.5883 -0.5525  0.2131
  156MOL0     C20980   6.775   8.219   3.885 -0.8534 -0.7460  0.9571
  156MOL0     C20981   6.847   8.106   3.858  0.0259  0.2729  0.0758
  156MOL0     C20982   6.801   7.982   3.906  0.1509 -0.0620 -0.3884
  156MOL0     C20983   6.693   7.980   3.999 -0.5224  0.1689 -1.5661
  156MOL0     O20984   6.661   7.875   4.077 -0.6002 -0.1000  0.3125
  156MOL0     C20985   6.739   7.756   4.064 -0.8682  0.5063  0.5055
  156MOL0     C20986   6.687   7.655   4.159 -0.2535 -0.9145  0.4589
  156MOL0     C20987   6.533   7.624   4.155  0.7835 -0.4666 -0.5658
  156MOL0     C20988   6.492   7.517   4.068 -0.6851 -0.2174  0.1342
  156MOL0     C20989   6.524   7.389   4.116  0.1324  0.2244 -0.3605
  156MOL0     C20990   6.538   7.278   4.160 -0.1069 -0.1014  0.3176
  156MOL0     C20991   6.615   8.092   4.012  0.5312 -0.1015  0.0488
  156MOL0     C20992   6.650   8.219   3.954 -1.1511 -0.1411 -0.2119
  156MOL0     H20993   6.725   8.633   4.013  0.0267  0.8272 -0.0190
  156MOL0     H20994   6.736   8.865   3.977  0.8290  1.5128 -1.2929
  156MOL0     H20995   6.923   9.035   3.588 -0.2415  2.5290 -2.6987
  156MOL0     H20996   6.753   8.998   3.542 -0.9550  1.8597  0.5077
  156MOL0     H20997   6.696   9.219   3.564 -0.4151 -1.2682 -0.8478
  156MOL0     H20998   6.762   9.210   3.731 -0.0167 -1.1886 -0.5157
  156MOL0     H20999   6.984   9.248   3.649  1.4908 -0.8007 -2.8914
  156MOL0     H21000   6.923   9.273   3.482  0.3048 -2.5992 -0.0539
  156MOL0     H21001   6.795   9.429   3.720 -1.1742 -1.0668 -0.3685
  156MOL0     H21002   6.949   9.482   3.644  0.5065 -0.5975 -1.9626
  156MOL0     H21003   6.869   9.514   3.440  0.3298  1.6178 -0.2282
  156MOL0     H21004   6.724   9.425   3.466  1.8291 -2.5058  1.1783
  156MOL0     H21005   6.644   9.588   3.622 -0.0100 -2.3511 -0.2881
  156MOL0     H21006   6.791   9.692   3.612  0.8890  0.3867 -1.5024
  156MOL0     H21007   6.737   9.751   3.392 -0.3153  2.5753  2.3654
  156MOL0     H21008   6.608   9.626   3.369 -3.0929  4.8389 -2.6052
  156MOL0     H21009   6.511   9.855   3.396  0.3008  2.2627  0.0687
  156MOL0     H21010   6.599   9.868   3.549  2.3214 -0.1117 -2.9180
  156MOL0     H21011   6.405   9.545   3.450  2.7185  0.6745 -0.4318
  156MOL0     H21012   6.161   9.482   3.741  3.6597  2.0383  1.3059
  156MOL0     H21013   6.166   9.455   3.565  0.1556  0.2713 -1.1781
  156MOL0     H21014   6.387   9.305   3.627  1.7243  0.4550  1.1208
  156MOL0     H21015   6.226   9.251   3.639  1.8643 -0.7314 -0.4671
  156MOL0     H21016   6.234   9.298   3.884 -1.1540  0.2244 -2.6894
  156MOL0     H21017   6.399   9.353   3.874  0.9355 -1.8819  2.0070
  156MOL0     H21018   6.425   9.132   3.929  2.1337 -0.0785 -0.2700
  156MOL0     H21019   6.446   9.097   3.762 -0.3834 -1.1736 -0.4175
  156MOL0     H21020   6.057   8.930   3.925 -0.1582  0.9366 -0.6975
  156MOL0     H21021   6.024   8.596   4.073  3.8658 -1.6596 -0.9365
  156MOL0     H21022   5.933   8.731   3.996  0.1164 -0.5680 -0.6310
  156MOL0     H21023   5.998   8.600   3.896 -2.9315  1.9557 -1.1217
  156MOL0     H21024   6.117   8.333   4.148 -0.4073 -0.9660 -0.2641
  156MOL0     H21025   6.103   8.140   4.298  2.2844 -1.4369  0.5331
  156MOL0     H21026   6.387   7.880   4.255 -0.4426 -0.4975 -1.4450
  156MOL0     H21027   6.357   7.804   4.421 -0.5041  2.8302  1.4749
  156MOL0     H21028   6.201   7.684   4.278 -0.6321 -0.5795 -0.6523
  156MOL0     H21029   6.105   7.800   4.361  1.5432 -3.3545  1.2545
  156MOL0     H21030   6.216   7.874   4.095  0.0173 -0.7993 -1.0322
  156MOL0     H21031   6.077   7.932   4.171  0.5621  0.4212  1.6268
  156MOL0     H21032   5.982   7.702   4.191  1.0732 -1.3605  0.3385
  156MOL0     H21033   5.984   7.784   4.028  2.2216  0.5228 -0.4286
  156MOL0     H21034   6.116   7.532   4.109 -2.1209  0.5302  1.1914
  156MOL0     H21035   6.210   7.655   4.008  0.9075 -0.9941  0.4488
  156MOL0     H21036   6.024   7.676   3.861  0.2927  1.4521  1.3115
  156MOL0     H21037   6.097   7.527   3.841  1.1952  1.3021  1.2444
  156MOL0     H21038   5.845   7.569   4.006 -2.8760  0.6840 -1.5745
  156MOL0     H21039   5.930   7.409   3.972  4.2117  0.7049  1.0175
  156MOL0     H21040   5.812   7.617   3.774 -0.8564 -0.1667 -2.4443
  156MOL0     H21041   5.711   7.495   3.837 -0.2844  1.3544 -0.7433
  156MOL0     H21042   6.526   8.120   4.325  0.7448  2.8429  1.6599
  156MOL0     H21043   6.547   8.328   4.211 -0.3482 -0.1426 -1.2460
  156MOL0     H21044   6.478   8.662   3.962  0.5006  0.4781  0.3864
  156MOL0     H21045   6.481   8.904   3.863 -0.5163  1.9810  0.6917
  156MOL0     H21046   6.770   8.792   3.541  2.8785  1.7108  1.0133
  156MOL0     H21047   6.756   8.552   3.594 -2.6538  0.9541 -1.7569
  156MOL0     H21048   6.942   8.107   3.804 -0.4909 -1.2313 -0.9456
  156MOL0     H21049   6.876   7.904   3.904  0.2747  0.0458  0.0124
  156MOL0     H21050   6.742   7.711   3.965 -1.8150 -0.6869  0.9942
  156MOL0     H21051   6.844   7.780   4.086 -0.2486 -1.8682  0.4048
  156MOL0     H21052   6.713   7.702   4.254  1.6851  3.3359 -1.9010
  156MOL0     H21053   6.736   7.561   4.134 -0.7811 -0.7785 -1.2163
  156MOL0     H21054   6.467   7.703   4.118 -0.7277 -1.7599 -0.7479
  156MOL0     H21055   6.506   7.610   4.260 -0.5331  1.4645 -0.5977
  156MOL0     H21056   6.541   7.523   3.970 -0.6324  3.2544  0.2580
  156MOL0     H21057   6.388   7.517   4.034 -0.9708 -0.0193  0.9957
  156MOL0     H21058   6.555   7.176   4.188 -1.1148 -0.7045 -1.2047
  156MOL0     H21059   6.524   8.093   4.070  0.1350  0.1544 -0.5680
  156MOL0     H21060   6.599   8.314   3.965  3.4741  2.4016  1.9905
  157MOL0     O21061   5.777   4.790   2.638 -0.2002  0.7510  0.2375
  157MOL0     C21062   5.694   4.756   2.550 -0.1913  0.2798  0.8822
  157MOL0     O21063   5.562   4.728   2.569  0.0718 -0.2072 -0.5526
  157MOL0     C21064   5.509   4.777   2.687  0.6740  0.3023 -0.3091
  157MOL0     C21065   5.485   4.689   2.797 -0.0071  0.5027 -0.3443
  157MOL0     C21066   5.460   4.743   2.918  0.5666 -0.5007 -0.4376
  157MOL0     C21067   5.462   4.877   2.941 -0.4535 -0.2235 -0.3688
  157MOL0     O21068   5.447   4.920   3.072 -0.2979  0.1086  0.2591
  157MOL0     C21069   5.320   4.984   3.091  0.4439  1.0702  0.5251
  157MOL0     C21070   5.314   5.045   3.230  0.4214 -0.5042  0.3933
  157MOL0     C21071   5.444   5.114   3.271  0.1234 -0.9532  0.4833
  157MOL0     C21072   5.440   5.174   3.405  0.1199 -0.1422 -0.7596
  157MOL0     C21073   5.543   5.286   3.407 -0.3329 -0.3620 -0.1379
  157MOL0     C21074   5.502   5.412   3.334 -0.4784  0.2487 -0.2667
  157MOL0     C21075   5.355   5.440   3.337  0.3919 -0.2264  0.2083
  157MOL0     C21076   5.322   5.562   3.247 -0.6970 -0.1089 -0.0639
  157MOL0     N21077   5.181   5.578   3.224  0.6194 -0.7619 -1.2276
  157MOL0     C21078   5.096   5.668   3.291 -0.1029  0.0158  0.7601
  157MOL0     C21079   4.966   5.620   3.276  0.2743  0.0226 -0.8059
  157MOL0     C21080   4.839   5.664   3.353  1.5053 -0.7461  0.2804
  157MOL0     C21081   4.733   5.724   3.254 -0.2154  0.2628 -0.7251
  157MOL0     C21082   4.655   5.625   3.165 -0.7275  0.2769 -0.3735
  157MOL0     C21083   4.564   5.524   3.239  0.1121  0.0639 -0.0172
  157MOL0     O21084   4.510   5.421   3.145 -1.2338  0.3784 -0.6534
  157MOL0     C21085   4.579   5.298   3.132 -0.4761  0.3650  0.3459
  157MOL0     C21086   4.507   5.187   3.075  0.2275 -1.3233 -1.1530
  157MOL0     C21087   4.564   5.064   3.062 -0.5610  0.5508 -0.4664
  157MOL0     C21088   4.476   4.945   3.041 -1.0672 -0.7980 -0.2090
  157MOL0     C21089   4.704   5.046   3.083  0.5828  0.6837 -0.0953
  157MOL0     C21090   4.776   4.911   3.071 -0.4728 -0.3998 -0.7793
  157MOL0     O21091   4.916   4.909   3.090  0.0240 -0.6845  0.1960
  157MOL0     C21092   4.975   4.806   3.025  0.4535  0.5092 -0.4756
  157MOL0     C21093   4.986   4.792   2.891  0.0696  0.3092 -0.1831
  157MOL0     C21094   5.056   4.693   2.831  0.1371  1.0003  1.0564
  157MOL0     C21095   5.115   4.595   2.909 -0.1357  0.3848 -0.4212
  157MOL0     O21096   5.185   4.496   2.837  0.5799 -1.0607  0.1540
  157MOL0     C21097   5.226   4.377   2.917  0.2828  0.2441  0.5025
  157MOL0     C21098   5.273   4.263   2.830 -0.6593  0.1789  0.9609
  157MOL0     C21099   5.348   4.153   2.901 -1.1977 -0.4292  0.1396
  157MOL0     C21100   5.496   4.164   2.883 -0.1853 -0.2336 -0.6942
  157MOL0     C21101   5.566   4.060   2.972  0.5562 -0.5160  0.5907
  157MOL0     C21102   5.703   4.026   2.922 -0.2152 -0.6665  0.4993
  157MOL0     C21103   5.753   3.885   2.957  0.1885 -1.3895 -0.1897
  157MOL0     C21104   5.730   3.786   2.840  0.5764 -0.2504  0.2027
  157MOL0    Cl21105   5.794   3.616   2.887 -0.2864  0.0785 -0.2151
  157MOL0     C21106   5.111   4.608   3.048 -0.1811  0.7706 -0.5816
  157MOL0     C21107   5.045   4.712   3.106 -0.2670  0.5109  0.1213
  157MOL0     O21108   4.713   4.806   3.045 -0.4315 -0.2131 -0.2687
  157MOL0     C21109   4.776   5.158   3.130 -0.0318 -0.0219 -0.4328
  157MOL0     C21110   4.718   5.285   3.159  0.1675  0.8616  0.3896
  157MOL0     N21111   4.974   5.502   3.203 -0.3315 -0.5170 -0.6366
  157MOL0     N21112   5.098   5.486   3.163 -0.7225  0.1991  0.2497
  157MOL0     C21113   5.478   4.962   2.839  0.5316  0.4390 -0.4214
  157MOL0     C21114   5.506   4.910   2.708  0.2718  0.2613  0.1209
  157MOL0     C21115   5.758   4.733   2.414 -0.2380  1.1807 -0.5629
  157MOL0     C21116   5.674   4.702   2.307  0.1116 -0.5192 -0.8218
  157MOL0     C21117   5.728   4.698   2.181 -0.3323  0.2113  0.8176
  157MOL0     C21118   5.872   4.705   2.155 -0.1625  0.4064 -0.2167
  157MOL0     O21119   5.923   4.698   2.035 -0.3206 -0.5021  0.8818
  157MOL0     C21120   5.841   4.671   1.921  0.2203  0.3059  0.5819
  157MOL0     C21121   5.930   4.684   1.792  0.3956  0.1970  0.0194
  157MOL0     C21122   5.855   4.640   1.662  0.6971  0.4670 -0.2006
  157MOL0     C21123   5.929   4.680   1.537 -0.6251  0.6109  1.8286
  157MOL0     C21124   5.908   4.823   1.503  0.3429 -0.3738  0.3054
  157MOL0     C21125   5.876   4.936   1.471  0.1804  0.2951 -1.4156
  157MOL0     C21126   5.958   4.713   2.258  0.0807 -0.5850 -1.0997
  157MOL0     C21127   5.897   4.732   2.388  0.1774 -0.3432 -0.5553
  157MOL0     H21128   5.486   4.585   2.766 -1.2018  0.0763  0.9153
  157MOL0     H21129   5.431   4.696   3.011  0.2773  1.0897  0.3171
  157MOL0     H21130   5.301   5.059   3.014 -1.4163 -0.7145 -0.8739
  157MOL0     H21131   5.237   4.913   3.089  1.7705 -0.5619  0.3751
  157MOL0     H21132   5.240   5.125   3.219  0.7205 -0.2441  0.2894
  157MOL0     H21133   5.287   4.967   3.302  1.0271 -3.1989 -2.1038
  157MOL0     H21134   5.524   5.040   3.270  0.1145 -0.9590 -0.0129
  157MOL0     H21135   5.459   5.192   3.196 -0.5141 -0.4306  0.8914
  157MOL0     H21136   5.337   5.200   3.430 -0.3035 -1.6978 -0.8036
  157MOL0     H21137   5.454   5.108   3.491 -2.0753 -0.5162 -0.6300
  157MOL0     H21138   5.546   5.321   3.511 -0.0026 -0.0798 -0.2404
  157MOL0     H21139   5.644   5.247   3.390  0.0668  0.7746 -0.4567
  157MOL0     H21140   5.554   5.501   3.372  1.2768  0.2473 -2.4912
  157MOL0     H21141   5.536   5.393   3.232 -0.2862 -1.7631  0.1410
  157MOL0     H21142   5.289   5.362   3.297 -1.1576  2.1277 -2.1116
  157MOL0     H21143   5.327   5.472   3.438 -0.9444 -2.4511  0.6163
  157MOL0     H21144   5.367   5.542   3.150 -3.0126 -1.4913 -0.9302
  157MOL0     H21145   5.361   5.656   3.288  1.6740 -0.6456 -0.9353
  157MOL0     H21146   5.130   5.762   3.333 -2.7385  1.1304  0.6304
  157MOL0     H21147   4.793   5.581   3.407  1.5712 -1.9182 -1.3898
  157MOL0     H21148   4.861   5.746   3.421 -1.4222  1.5860 -1.3247
  157MOL0     H21149   4.782   5.805   3.200  1.7336  1.4025  2.4748
  157MOL0     H21150   4.663   5.782   3.315 -2.5987  1.1883 -4.0405
  157MOL0     H21151   4.720   5.573   3.095  1.5598  1.4917  0.7549
  157MOL0     H21152   4.586   5.676   3.097 -3.1817  0.8270  2.3226
  157MOL0     H21153   4.482   5.588   3.274  0.0944 -0.5958  1.1921
  157MOL0     H21154   4.603   5.477   3.330  2.4685  1.9885  0.0588
  157MOL0     H21155   4.405   5.218   3.059  0.6140  1.8421  1.4845
  157MOL0     H21156   4.490   4.887   2.949  1.9871 -2.7628  1.2971
  157MOL0     H21157   4.499   4.876   3.124 -0.0893 -0.1472  0.0829
  157MOL0     H21158   4.373   4.981   3.043 -1.1984 -1.1698  1.2452
  157MOL0     H21159   4.920   4.848   2.826 -1.7186  0.9717  2.0372
  157MOL0     H21160   5.060   4.683   2.723 -0.0197 -0.9985  1.2082
  157MOL0     H21161   5.303   4.412   2.986 -0.8713  4.3746 -0.0173
  157MOL0     H21162   5.143   4.345   2.980 -2.1569  0.8341 -2.1712
  157MOL0     H21163   5.183   4.215   2.789 -0.2990 -0.0328  0.4047
  157MOL0     H21164   5.316   4.299   2.736 -0.8359 -1.3536  0.2583
  157MOL0     H21165   5.328   4.055   2.857  3.0974 -1.2960 -0.3218
  157MOL0     H21166   5.325   4.148   3.008  0.1701  2.9356  0.7184
  157MOL0     H21167   5.530   4.149   2.780  2.5351 -0.6616  0.1975
  157MOL0     H21168   5.527   4.266   2.907  0.3718 -0.6544  0.4499
  157MOL0     H21169   5.500   3.974   2.987 -0.8124  0.7199  2.0665
  157MOL0     H21170   5.590   4.096   3.072  0.0912  2.7246 -0.3614
  157MOL0     H21171   5.707   4.028   2.812  1.8779 -4.1932  0.3656
  157MOL0     H21172   5.770   4.098   2.969 -1.8767 -0.4285  2.6381
  157MOL0     H21173   5.718   3.859   3.057 -0.8680  3.8449  1.1093
  157MOL0     H21174   5.861   3.900   2.966 -0.0336  0.5406 -0.2459
  157MOL0     H21175   5.787   3.810   2.750  2.8230 -2.0895  1.0259
  157MOL0     H21176   5.626   3.769   2.812 -0.0537  2.8411  0.3191
  157MOL0     H21177   5.145   4.529   3.115  2.7397  2.0272 -0.4627
  157MOL0     H21178   5.042   4.720   3.214  0.7536 -0.5281  0.2518
  157MOL0     H21179   4.880   5.144   3.157  0.0192  1.3605  0.1927
  157MOL0     H21180   4.774   5.368   3.198 -1.9660  1.8030  1.6167
  157MOL0     H21181   5.489   5.068   2.858  1.5372  0.3099 -0.2642
  157MOL0     H21182   5.520   4.983   2.628  0.9703 -0.3235 -0.3045
  157MOL0     H21183   5.567   4.680   2.307  0.1006 -0.4653 -0.9106
  157MOL0     H21184   5.664   4.673   2.098 -0.9469  1.2184  0.9737
  157MOL0     H21185   5.783   4.578   1.924  1.8356 -0.8982 -2.0288
  157MOL0     H21186   5.768   4.752   1.907 -0.9907 -0.5159  1.8676
  157MOL0     H21187   6.016   4.618   1.797 -0.4574 -0.9938 -0.5998
  157MOL0     H21188   5.968   4.787   1.793 -0.0420  0.4539  3.2351
  157MOL0     H21189   5.754   4.681   1.666  0.1671 -0.7075 -0.9441
  157MOL0     H21190   5.847   4.531   1.667  1.1755  0.4442  0.1572
  157MOL0     H21191   5.887   4.622   1.454 -2.2823  1.0955  2.2968
  157MOL0     H21192   6.035   4.654   1.544 -0.3083  1.8916  1.9412
  157MOL0     H21193   5.866   5.039   1.445  1.3550  1.8990  3.4511
  157MOL0     H21194   6.066   4.715   2.245  0.2441  0.6625  0.1910
  157MOL0     H21195   5.961   4.746   2.475 -0.8219 -1.8666  0.4744
  158MOL0     O21196   8.499   2.328   7.185  0.1927 -0.6796 -0.3752
  158MOL0     C21197   8.378   2.321   7.184  0.7365  0.5743 -0.1509
  158MOL0     O21198   8.309   2.200   7.165 -0.1632  0.2297 -0.1414
  158MOL0     C21199   8.369   2.105   7.083  0.3767 -0.2588  0.8026
  158MOL0     C21200   8.323   1.969   7.101  0.3253 -0.3114  0.2252
  158MOL0     C21201   8.361   1.876   7.002  0.7445  0.4212  0.0622
  158MOL0     C21202   8.468   1.908   6.907  0.2645  0.2791 -0.6633
  158MOL0     O21203   8.521   1.819   6.823 -0.1973 -0.8806 -0.1740
  158MOL0     C21204   8.554   1.689   6.867  0.3451  0.2942  0.3153
  158MOL0     C21205   8.695   1.655   6.822 -0.4062 -0.2569  0.1456
  158MOL0     C21206   8.740   1.518   6.888 -1.1315  0.1140 -0.2564
  158MOL0     C21207   8.774   1.421   6.777  0.5394  0.1076 -1.3832
  158MOL0     C21208   8.836   1.295   6.827  0.3265  0.2414  0.7201
  158MOL0     C21209   8.799   1.189   6.711 -0.0253 -0.7462 -0.4576
  158MOL0     C21210   8.836   1.054   6.774  1.3561  0.6107 -0.0754
  158MOL0     C21211   8.755   0.947   6.723 -0.4235  0.1506  0.2099
  158MOL0     N21212   8.852   0.844   6.678  0.3030  0.0931 -0.4081
  158MOL0     C21213   8.890   0.735   6.748  0.8154  0.5548  0.0239
  158MOL0     C21214   9.014   0.705   6.696 -0.6915  1.1591 -0.2930
  158MOL0     C21215   9.113   0.606   6.750  0.2219 -0.2027 -0.3625
  158MOL0     C21216   9.127   0.597   6.903 -0.0910  0.2145 -0.1947
  158MOL0     C21217   9.157   0.729   6.972  0.0030  0.1233 -0.8308
  158MOL0     C21218   9.197   0.726   7.121 -0.4625 -0.9264  0.8151
  158MOL0     O21219   9.102   0.658   7.207 -0.3452  0.0057  0.2552
  158MOL0     C21220   9.155   0.562   7.278  0.2324  0.1940 -1.4627
  158MOL0     C21221   9.283   0.571   7.338 -0.1105  0.0214  0.0058
  158MOL0     C21222   9.348   0.457   7.387  0.4066  0.6045 -0.0523
  158MOL0     C21223   9.473   0.488   7.458  0.7368 -0.1475  0.4458
  158MOL0     C21224   9.274   0.335   7.405 -0.0826  0.1043  0.1665
  158MOL0     C21225   9.326   0.210   7.474  0.0201 -1.1354  0.2830
  158MOL0     O21226   9.469   0.191   7.474  0.3045 -0.7845  0.1541
  158MOL0     C21227   9.538   0.095   7.542 -0.7445 -0.2724  0.4535
  158MOL0     C21228   9.675   0.080   7.505 -0.4137 -0.5915  0.4416
  158MOL0     C21229   9.752  -0.021   7.563  0.0881 -0.2925 -0.3489
  158MOL0     C21230   9.694  -0.114   7.649 -0.9924  0.0827 -0.3075
  158MOL0     O21231   9.760  -0.218   7.708 -0.6972  0.4715 -0.4855
  158MOL0     C21232   9.875  -0.277   7.654  0.5407 -0.9414  0.0113
  158MOL0     C21233   9.900  -0.410   7.712 -0.3431  0.0272 -0.2434
  158MOL0     C21234   9.784  -0.508   7.708  0.1618 -0.2316  0.3215
  158MOL0     C21235   9.770  -0.587   7.845 -0.1177 -0.1044  1.2181
  158MOL0     C21236   9.854  -0.709   7.859 -0.4863 -0.8278  0.0587
  158MOL0     C21237   9.811  -0.834   7.784  0.2242 -0.5586 -0.2692
  158MOL0     C21238   9.857  -0.962   7.846  0.2271  0.4875  0.3885
  158MOL0     C21239   9.874  -1.079   7.758  0.9386 -1.4005  0.9397
  158MOL0    Cl21240   9.974  -1.199   7.832 -0.3955 -0.1148  0.3416
  158MOL0     C21241   9.565  -0.096   7.690  0.3161  0.4278 -0.6348
  158MOL0     C21242   9.491   0.007   7.634  0.6492 -0.0803  0.6807
  158MOL0     O21243   9.240   0.132   7.493  0.4937  1.0228  0.1725
  158MOL0     C21244   9.141   0.335   7.352 -0.5253  0.5031  0.2165
  158MOL0     C21245   9.080   0.446   7.296 -0.1105  0.7241  0.8998
  158MOL0     N21246   9.028   0.781   6.586 -0.7194 -0.3821 -0.1916
  158MOL0     N21247   8.935   0.869   6.573 -0.5713 -0.2120 -0.3319
  158MOL0     C21248   8.527   2.032   6.902  0.2928 -0.6617  0.8395
  158MOL0     C21249   8.469   2.130   6.977 -0.2707  0.0634 -0.6981
  158MOL0     C21250   8.297   2.438   7.232  0.5394 -0.1523  0.5007
  158MOL0     C21251   8.154   2.428   7.240  0.2018 -0.2535  0.4063
  158MOL0     C21252   8.080   2.543   7.253  0.0180  0.7186 -0.5015
  158MOL0     C21253   8.136   2.666   7.267 -0.2050 -0.0050 -0.8859
  158MOL0     O21254   8.085   2.784   7.271 -0.4463  0.3295 -0.7397
  158MOL0     C21255   7.956   2.815   7.220 -0.5089 -0.1715 -0.4709
  158MOL0     C21256   7.914   2.947   7.278  1.0762  0.4251 -0.0747
  158MOL0     C21257   7.978   3.077   7.236  0.5877  0.1587  0.3496
  158MOL0     C21258   7.982   3.122   7.090 -0.0676 -0.3735 -0.2242
  158MOL0     C21259   7.854   3.152   7.025  0.1321  0.1884  0.1635
  158MOL0     C21260   7.747   3.178   6.995  1.1146 -0.2948 -0.3661
  158MOL0     C21261   8.276   2.673   7.280  0.6084  0.6211 -0.4209
  158MOL0     C21262   8.355   2.557   7.261 -0.3404 -0.3971  0.5475
  158MOL0     H21263   8.248   1.930   7.168 -0.4865 -0.9956 -1.0225
  158MOL0     H21264   8.322   1.775   6.996  1.9242 -0.0441  0.0255
  158MOL0     H21265   8.548   1.686   6.977  1.6499 -0.4095  0.3876
  158MOL0     H21266   8.484   1.617   6.822 -0.0853  0.8498  0.0811
  158MOL0     H21267   8.707   1.650   6.714 -2.4158 -0.3793 -0.0997
  158MOL0     H21268   8.756   1.738   6.858 -1.4987  0.8389 -0.4700
  158MOL0     H21269   8.820   1.537   6.959 -1.8311  1.7806  0.1250
  158MOL0     H21270   8.662   1.482   6.955  0.5907 -0.7530  1.3796
  158MOL0     H21271   8.680   1.394   6.727  0.7493  0.2084 -1.8395
  158MOL0     H21272   8.848   1.466   6.709  3.0378  2.3866  2.4913
  158MOL0     H21273   8.945   1.296   6.824  0.3306  2.5049 -1.9323
  158MOL0     H21274   8.803   1.272   6.929  3.0463  1.1332  1.8970
  158MOL0     H21275   8.692   1.189   6.689  0.5463 -0.6077 -3.7150
  158MOL0     H21276   8.855   1.216   6.621  1.3424 -2.1981 -0.0961
  158MOL0     H21277   8.943   1.031   6.775  1.1298 -0.6258 -1.7708
  158MOL0     H21278   8.798   1.061   6.876  0.2544 -1.5331 -0.2950
  158MOL0     H21279   8.689   0.965   6.638  0.5946 -1.1860 -0.9220
  158MOL0     H21280   8.695   0.901   6.802  0.2881  0.6586  1.0642
  158MOL0     H21281   8.836   0.697   6.834 -2.1051  1.9101 -1.0955
  158MOL0     H21282   9.095   0.512   6.697  0.4818  0.1088 -1.0215
  158MOL0     H21283   9.213   0.642   6.723 -0.7380  2.3281 -0.8988
  158MOL0     H21284   9.211   0.531   6.926  0.4658  1.0112  0.1037
  158MOL0     H21285   9.037   0.546   6.940 -0.2456 -3.0462 -4.3935
  158MOL0     H21286   9.074   0.799   6.963 -0.7133 -0.2550  1.9290
  158MOL0     H21287   9.249   0.771   6.930 -0.7646  1.8055 -0.9201
  158MOL0     H21288   9.207   0.826   7.164 -0.1483 -0.9657  0.8385
  158MOL0     H21289   9.303   0.698   7.117 -0.4290 -0.7110 -3.2927
  158MOL0     H21290   9.339   0.662   7.324  2.3882 -1.9501 -5.7347
  158MOL0     H21291   9.483   0.466   7.565 -0.7655  0.2415  0.6868
  158MOL0     H21292   9.546   0.434   7.397  1.1564  0.6824  0.1971
  158MOL0     H21293   9.499   0.594   7.455  1.3921 -0.2206  2.2713
  158MOL0     H21294   9.721   0.143   7.429  0.5085 -0.8594  0.7646
  158MOL0     H21295   9.855  -0.039   7.534  0.2817  0.6690 -0.2830
  158MOL0     H21296   9.865  -0.277   7.546  2.5223 -0.6875 -0.1983
  158MOL0     H21297   9.962  -0.218   7.684  0.4152 -1.4458  1.4693
  158MOL0     H21298   9.990  -0.458   7.671  0.3427 -0.0502  1.2721
  158MOL0     H21299   9.927  -0.401   7.818 -2.7426 -1.8508  0.6238
  158MOL0     H21300   9.788  -0.573   7.620 -0.5290  0.6017 -0.3452
  158MOL0     H21301   9.690  -0.452   7.705  0.7747  1.3980  4.6234
  158MOL0     H21302   9.789  -0.513   7.924  3.5112 -0.5647  0.9473
  158MOL0     H21303   9.664  -0.615   7.848 -0.7730  1.0430 -3.3974
  158MOL0     H21304   9.859  -0.725   7.967  2.1325  1.5181  0.4041
  158MOL0     H21305   9.959  -0.688   7.839 -0.7515  0.5789  0.0550
  158MOL0     H21306   9.703  -0.836   7.765  0.1767  1.0043 -0.2788
  158MOL0     H21307   9.862  -0.827   7.688  1.0567 -1.1509  0.1188
  158MOL0     H21308   9.808  -0.997   7.937  0.2925 -3.0473 -0.7992
  158MOL0     H21309   9.961  -0.939   7.873  0.4474  0.5323 -0.4699
  158MOL0     H21310   9.892  -1.045   7.656 -2.2786  1.6298  1.2080
  158MOL0     H21311   9.778  -1.132   7.758 -1.0590  1.9664 -0.2603
  158MOL0     H21312   9.521  -0.167   7.760 -1.6771  1.9484 -0.2720
  158MOL0     H21313   9.386   0.012   7.661  0.9788  0.3308  1.9692
  158MOL0     H21314   9.079   0.246   7.359 -0.4254  0.3553 -0.6856
  158MOL0     H21315   8.980   0.428   7.257  0.9824 -3.4395 -0.5289
  158MOL0     H21316   8.608   2.040   6.831  0.6081 -0.6186  1.2025
  158MOL0     H21317   8.495   2.234   6.961  1.0343 -0.3358 -1.2990
  158MOL0     H21318   8.093   2.343   7.214 -0.9482  0.0543  1.9297
  158MOL0     H21319   7.974   2.556   7.236 -0.7117 -2.7624  0.4906
  158MOL0     H21320   7.956   2.827   7.112 -2.7877 -0.9304 -0.5997
  158MOL0     H21321   7.878   2.740   7.236 -2.6264  2.2264  1.3313
  158MOL0     H21322   7.923   2.932   7.386  0.7339  0.4017 -0.0512
  158MOL0     H21323   7.809   2.964   7.254  1.3391 -1.4258 -3.0203
  158MOL0     H21324   8.083   3.066   7.263  0.0752 -2.7953  1.5539
  158MOL0     H21325   7.936   3.162   7.290  0.0648  1.5065 -2.0364
  158MOL0     H21326   8.033   3.055   7.021 -4.0734  0.2879 -4.3228
  158MOL0     H21327   8.044   3.212   7.097 -0.2013 -0.3233  0.4573
  158MOL0     H21328   7.651   3.220   6.972 -0.0147 -1.7940  1.3652
  158MOL0     H21329   8.321   2.771   7.278 -2.6500  2.3066  1.1521
  158MOL0     H21330   8.462   2.571   7.277 -0.3382  0.3119 -0.0228
  159MOL0     O21331   0.491   4.324   5.024  0.8098  0.2651 -0.0692
  159MOL0     C21332   0.410   4.357   4.939  0.0337 -0.1902  0.0448
  159MOL0     O21333   0.272   4.344   4.950  0.0489  0.8227 -0.6764
  159MOL0     C21334   0.217   4.309   5.071 -0.7444 -0.0399  0.0064
  159MOL0     C21335   0.217   4.178   5.112  0.0130  1.2046 -0.2139
  159MOL0     C21336   0.179   4.143   5.246  0.1743 -0.0477 -0.2850
  159MOL0     C21337   0.144   4.242   5.336  0.3848 -0.9626  0.1695
  159MOL0     O21338   0.121   4.218   5.468  0.5144 -0.6635  0.1010
  159MOL0     C21339   0.019   4.123   5.483  0.4479  0.6346 -0.5512
  159MOL0     C21340  -0.119   4.180   5.462 -0.7721 -1.4548 -0.0415
  159MOL0     C21341  -0.154   4.295   5.555  0.6208  0.2784 -0.6779
  159MOL0     C21342  -0.300   4.307   5.592 -0.3231 -0.1307  0.3256
  159MOL0     C21343  -0.343   4.435   5.646  0.6950 -0.4372  0.4871
  159MOL0     C21344  -0.271   4.459   5.775 -0.2183  1.3563 -0.4951
  159MOL0     C21345  -0.329   4.579   5.846  0.0366 -0.0095 -0.1411
  159MOL0     C21346  -0.273   4.585   5.990 -0.0346 -0.2739 -0.5859
  159MOL0     N21347  -0.370   4.530   6.088 -0.6500 -0.2006  1.2795
  159MOL0     C21348  -0.443   4.608   6.175 -0.5099  0.7582  0.0613
  159MOL0     C21349  -0.528   4.517   6.241 -0.3548  0.7177 -0.7094
  159MOL0     C21350  -0.616   4.542   6.358  0.6964 -0.1461 -0.7524
  159MOL0     C21351  -0.544   4.622   6.470  1.1692 -0.0914  0.7865
  159MOL0     C21352  -0.634   4.700   6.576 -0.9382  0.1613  1.2766
  159MOL0     C21353  -0.563   4.803   6.667 -0.2262 -0.4275 -0.5742
  159MOL0     O21354  -0.577   4.764   6.807  0.9658 -0.9296 -0.1273
  159MOL0     C21355  -0.492   4.670   6.853 -0.4992  0.8213  0.0588
  159MOL0     C21356  -0.388   4.611   6.777  0.0500  0.1003 -0.8471
  159MOL0     C21357  -0.289   4.527   6.840  0.6387 -0.4584 -0.7036
  159MOL0     C21358  -0.166   4.505   6.759  0.0402  0.2333 -0.2906
  159MOL0     C21359  -0.318   4.477   6.978 -0.0051  0.2162 -0.3146
  159MOL0     C21360  -0.231   4.384   7.043  0.4997  0.4263 -0.7937
  159MOL0     O21361  -0.284   4.282   7.118 -0.6976 -0.2533 -0.0195
  159MOL0     C21362  -0.197   4.186   7.149  0.5560  0.8820  0.1734
  159MOL0     C21363  -0.178   4.156   7.288  0.0701  0.6412  0.4276
  159MOL0     C21364  -0.118   4.039   7.315 -0.1362  0.8802 -0.1895
  159MOL0     C21365  -0.052   3.956   7.223  0.5260  0.5780  0.4179
  159MOL0     O21366   0.016   3.839   7.251 -0.2063 -0.5803 -0.0107
  159MOL0     C21367   0.036   3.807   7.386  0.0410 -0.3150  0.0531
  159MOL0     C21368   0.178   3.826   7.439 -0.9391  0.0671 -0.2016
  159MOL0     C21369   0.221   3.968   7.487  0.4073 -0.2078  0.6862
  159MOL0     C21370   0.349   3.948   7.568 -0.2392  2.1161 -0.7752
  159MOL0     C21371   0.419   4.058   7.649 -0.0830 -0.3652  0.1924
  159MOL0     C21372   0.399   4.199   7.576  0.9240  0.0637 -0.7134
  159MOL0     C21373   0.478   4.313   7.654 -1.0437 -0.6914  0.5888
  159MOL0     C21374   0.397   4.443   7.654  0.0070 -0.0970 -0.1992
  159MOL0    Cl21375   0.400   4.514   7.491  0.1964  0.1809 -0.1863
  159MOL0     C21376  -0.057   3.991   7.085  1.3194  0.3182  0.5217
  159MOL0     C21377  -0.138   4.105   7.049  0.0132  0.3249  0.0881
  159MOL0     O21378  -0.118   4.420   7.044 -0.3439 -0.0974 -0.3985
  159MOL0     C21379  -0.440   4.517   7.038 -0.2693 -0.8258  0.3775
  159MOL0     C21380  -0.518   4.618   6.980 -1.1620  0.7114 -0.8839
  159MOL0     N21381  -0.506   4.397   6.184  0.0890  0.2987  0.0403
  159MOL0     N21382  -0.413   4.402   6.093  0.6602  0.7467  0.1263
  159MOL0     C21383   0.142   4.375   5.298  0.0618  0.2368  0.3378
  159MOL0     C21384   0.179   4.407   5.160  0.3773 -0.4478  0.0636
  159MOL0     C21385   0.462   4.437   4.822  0.5392  0.2837  0.5041
  159MOL0     C21386   0.599   4.466   4.794 -0.0871  0.2737 -0.5529
  159MOL0     C21387   0.641   4.533   4.675  0.4453  0.4127  0.2455
  159MOL0     C21388   0.540   4.576   4.578  0.0072  0.7810  0.2455
  159MOL0     O21389   0.563   4.630   4.456 -0.6584 -0.3276 -0.3163
  159MOL0     C21390   0.694   4.606   4.403 -0.0842  0.1200  0.5864
  159MOL0     C21391   0.686   4.470   4.341 -0.4082 -0.0334 -0.3064
  159MOL0     C21392   0.814   4.425   4.269  0.4639  0.3827 -0.7345
  159MOL0     C21393   0.846   4.273   4.302 -0.3347  0.3066 -0.0377
  159MOL0     C21394   0.751   4.170   4.264  1.4892 -0.0150  1.4511
  159MOL0     C21395   0.669   4.092   4.218 -0.6208 -0.6130 -0.3554
  159MOL0     C21396   0.408   4.549   4.608  0.5775  0.0261 -0.1152
  159MOL0     C21397   0.370   4.476   4.721  0.0242  0.2353  0.3472
  159MOL0     H21398   0.255   4.095   5.052  4.9485  2.1197  1.2241
  159MOL0     H21399   0.188   4.040   5.282  1.9731  0.9968  2.5861
  159MOL0     H21400   0.033   4.024   5.438 -1.3734 -0.4746  1.1820
  159MOL0     H21401   0.024   4.098   5.589  0.9634 -1.6113 -1.0474
  159MOL0     H21402  -0.140   4.228   5.366 -0.5532 -0.0998  0.5667
  159MOL0     H21403  -0.188   4.096   5.467  0.5431 -2.5685  0.0614
  159MOL0     H21404  -0.099   4.286   5.649  1.0729 -3.1061 -1.1491
  159MOL0     H21405  -0.138   4.384   5.493 -0.6703 -1.3922 -3.6517
  159MOL0     H21406  -0.374   4.294   5.512 -0.2170 -0.4374  0.2742
  159MOL0     H21407  -0.326   4.224   5.659 -0.9335 -0.7790 -0.6874
  159MOL0     H21408  -0.322   4.506   5.566 -0.0256 -1.5705 -0.7266
  159MOL0     H21409  -0.451   4.438   5.663  0.6752  0.3907  0.2360
  159MOL0     H21410  -0.281   4.368   5.835 -2.7085  1.1961 -1.0348
  159MOL0     H21411  -0.163   4.468   5.765  0.0430  0.8832  1.5092
  159MOL0     H21412  -0.309   4.675   5.798 -0.9248  1.9387  3.0256
  159MOL0     H21413  -0.438   4.575   5.847  0.0076  0.7323  0.5827
  159MOL0     H21414  -0.246   4.688   6.018 -1.4547 -0.5019  1.9709
  159MOL0     H21415  -0.182   4.525   6.000  0.8434  1.3344  2.1593
  159MOL0     H21416  -0.427   4.715   6.183  1.9109  0.4548  0.1358
  159MOL0     H21417  -0.709   4.589   6.325 -0.8009 -2.2780  0.2139
  159MOL0     H21418  -0.649   4.446   6.398 -0.9375 -0.0567 -1.8111
  159MOL0     H21419  -0.475   4.690   6.419  1.4209 -3.2877 -3.6902
  159MOL0     H21420  -0.491   4.539   6.518 -3.7295 -2.9936  1.8074
  159MOL0     H21421  -0.704   4.629   6.621 -1.6081 -0.2417 -0.3277
  159MOL0     H21422  -0.713   4.751   6.520 -1.1494  0.9634  2.2694
  159MOL0     H21423  -0.615   4.898   6.655  1.4613  0.5724 -0.3529
  159MOL0     H21424  -0.460   4.827   6.637  0.0427 -1.2521 -0.3506
  159MOL0     H21425  -0.373   4.638   6.672 -0.2811 -1.9575 -1.4633
  159MOL0     H21426  -0.156   4.404   6.717 -0.1020  0.0415  0.1361
  159MOL0     H21427  -0.165   4.571   6.671 -1.0907 -2.4326 -2.4743
  159MOL0     H21428  -0.075   4.514   6.819  0.2954  0.2858 -0.6756
  159MOL0     H21429  -0.231   4.209   7.366  0.6332  1.3902  0.3075
  159MOL0     H21430  -0.119   4.025   7.422  0.3741  2.6654  0.0785
  159MOL0     H21431  -0.043   3.848   7.450  0.4365  3.1309 -1.4547
  159MOL0     H21432   0.021   3.699   7.400  1.2306 -0.1676  3.5831
  159MOL0     H21433   0.196   3.763   7.527 -1.3022 -1.1751 -0.9934
  159MOL0     H21434   0.249   3.790   7.363 -0.5817  0.4156 -0.0330
  159MOL0     H21435   0.144   4.012   7.551 -0.5898  4.5279 -3.1121
  159MOL0     H21436   0.236   4.042   7.407  0.5845 -1.1551 -0.1723
  159MOL0     H21437   0.341   3.865   7.639  2.8547 -0.1551 -2.8094
  159MOL0     H21438   0.429   3.915   7.501  1.1223  1.0998  1.2559
  159MOL0     H21439   0.527   4.044   7.658  0.7104  3.3056 -1.5884
  159MOL0     H21440   0.373   4.076   7.746  0.2016 -2.0080  0.6728
  159MOL0     H21441   0.427   4.187   7.470  0.7700  0.0454 -0.7526
  159MOL0     H21442   0.295   4.232   7.576 -0.1750 -2.7527  2.9573
  159MOL0     H21443   0.567   4.318   7.592 -2.7473 -0.4265 -1.9873
  159MOL0     H21444   0.516   4.286   7.753 -1.7637 -0.4144  0.9524
  159MOL0     H21445   0.435   4.509   7.732 -0.1957  0.4586 -0.5662
  159MOL0     H21446   0.293   4.421   7.680 -0.1135  0.8476  0.1314
  159MOL0     H21447  -0.014   3.915   7.021  1.3378 -1.3076  2.3800
  159MOL0     H21448  -0.160   4.117   6.944 -2.9541 -1.4611  0.3910
  159MOL0     H21449  -0.479   4.483   7.134 -1.5242  0.9661  0.5446
  159MOL0     H21450  -0.600   4.660   7.039 -1.4139  0.3471 -0.9688
  159MOL0     H21451   0.101   4.455   5.359 -2.4359  0.8635 -1.9597
  159MOL0     H21452   0.180   4.515   5.150 -1.7342 -0.0090  3.0129
  159MOL0     H21453   0.679   4.439   4.862  0.0476 -1.4222 -1.3324
  159MOL0     H21454   0.745   4.549   4.651  0.0777  0.3411 -1.5532
  159MOL0     H21455   0.717   4.673   4.319 -0.9445  2.1522  1.9004
  159MOL0     H21456   0.775   4.603   4.476 -1.7823  0.2879  2.5634
  159MOL0     H21457   0.593   4.456   4.285 -2.5890 -1.5709  3.3880
  159MOL0     H21458   0.680   4.415   4.435  1.9497  4.5981  2.9836
  159MOL0     H21459   0.899   4.485   4.302  0.7782 -1.1783  1.6012
  159MOL0     H21460   0.799   4.431   4.161 -1.0642 -1.4792 -0.6965
  159MOL0     H21461   0.861   4.267   4.410  1.1048  0.2409 -0.2175
  159MOL0     H21462   0.946   4.239   4.273 -1.1142 -1.2579 -1.0578
  159MOL0     H21463   0.612   4.007   4.183 -0.5747  0.1970 -2.5760
  159MOL0     H21464   0.338   4.588   4.535  2.2205  4.8737  0.4980
  159MOL0     H21465   0.264   4.449   4.725 -0.6835  2.4489 -1.4967
  160MOL0     O21466   3.674   9.733   8.636  0.5429  0.0527  0.7912
  160MOL0     C21467   3.784   9.785   8.619  0.4662  0.7955  0.1277
  160MOL0     O21468   3.820   9.877   8.523  0.0207 -0.0692 -0.5975
  160MOL0     C21469   3.719   9.908   8.429  0.3216 -0.0119 -0.8216
  160MOL0     C21470   3.602   9.982   8.471  0.4227 -0.6728 -0.5194
  160MOL0     C21471   3.503  10.019   8.379  0.8060  0.2083 -1.0660
  160MOL0     C21472   3.517  10.003   8.249 -0.3621 -0.0934  0.9035
  160MOL0     O21473   3.421  10.027   8.150 -0.2866  0.2801 -0.5380
  160MOL0     C21474   3.299  10.099   8.193 -0.3197 -0.0344 -0.2462
  160MOL0     C21475   3.209  10.121   8.077 -0.3686  1.0841  0.1349
  160MOL0     C21476   3.162   9.996   8.005  0.2274 -0.2403 -0.0076
  160MOL0     C21477   3.212   9.985   7.865  0.2123 -0.0566 -0.3604
  160MOL0     C21478   3.119   9.894   7.779 -0.5442 -1.0946  0.3551
  160MOL0     C21479   3.141   9.906   7.629  0.3364 -0.2028  0.7362
  160MOL0     C21480   3.057  10.022   7.566 -0.3036 -0.1259  0.4321
  160MOL0     C21481   3.086  10.037   7.423 -0.6899 -0.2369  0.0171
  160MOL0     N21482   3.026   9.941   7.338 -0.2843 -0.1126  0.2835
  160MOL0     C21483   2.907   9.960   7.283 -0.5821 -0.0737  1.3049
  160MOL0     C21484   2.882   9.856   7.205  0.8558  0.6804 -0.2575
  160MOL0     C21485   2.772   9.845   7.104  0.9305 -0.3340  0.0074
  160MOL0     C21486   2.651   9.804   7.184 -0.9888 -0.0747  0.7971
  160MOL0     C21487   2.524   9.855   7.141  0.3188 -0.3831  0.3569
  160MOL0     C21488   2.403   9.854   7.238 -0.0635 -0.4239 -0.6113
  160MOL0     O21489   2.375   9.726   7.291 -0.0897  0.0261 -1.0315
  160MOL0     C21490   2.257   9.702   7.352  0.3938  0.5814 -0.0228
  160MOL0     C21491   2.217   9.570   7.364 -0.9261  0.2020  0.3621
  160MOL0     C21492   2.090   9.531   7.409  0.8416 -0.7817  0.3123
  160MOL0     C21493   2.069   9.385   7.416 -0.8102 -0.3818  0.0366
  160MOL0     C21494   1.998   9.631   7.455 -1.2458 -0.2118 -0.2998
  160MOL0     C21495   1.872   9.612   7.539  0.4530  0.4251  0.0671
  160MOL0     O21496   1.804   9.502   7.517 -0.3300  0.6220 -0.0841
  160MOL0     C21497   1.678   9.492   7.565 -0.2416 -0.8269 -0.1849
  160MOL0     C21498   1.568   9.488   7.472  0.8692 -0.8531 -0.0659
  160MOL0     C21499   1.440   9.460   7.514  0.4033 -0.3104  0.3341
  160MOL0     C21500   1.411   9.446   7.651 -0.0138 -0.3308  0.8930
  160MOL0     O21501   1.286   9.401   7.698  0.4277 -0.1996  0.2307
  160MOL0     C21502   1.171   9.435   7.622 -0.4345  0.6220  0.3091
  160MOL0     C21503   1.136   9.314   7.543  0.2349  0.2506 -0.6007
  160MOL0     C21504   1.119   9.184   7.621 -1.0247  0.4671 -0.6681
  160MOL0     C21505   1.042   9.182   7.752  0.0455 -0.0993 -0.1367
  160MOL0     C21506   1.065   9.042   7.810 -0.2804  0.8731  0.0086
  160MOL0     C21507   1.024   9.060   7.962 -0.5337  0.6326  0.2897
  160MOL0     C21508   1.032   8.923   8.030 -0.2859  0.3371 -0.6193
  160MOL0     C21509   1.006   8.921   8.172  0.5189  0.3255 -0.5510
  160MOL0    Cl21510   0.846   8.961   8.232  0.3745  0.6111  0.4216
  160MOL0     C21511   1.511   9.472   7.742  0.1020 -0.5170  0.5132
  160MOL0     C21512   1.643   9.496   7.700 -0.0503  0.1040 -0.8999
  160MOL0     O21513   1.845   9.698   7.622 -0.1604 -0.3722 -0.8919
  160MOL0     C21514   2.043   9.768   7.442  0.6153 -1.0576  0.7741
  160MOL0     C21515   2.167   9.799   7.391 -0.1045  0.3074 -0.9585
  160MOL0     N21516   2.984   9.763   7.222  0.0114  0.0334 -0.1587
  160MOL0     N21517   3.064   9.810   7.308 -0.1794 -0.8853  0.5894
  160MOL0     C21518   3.637   9.942   8.205 -0.5444  0.6800 -0.0379
  160MOL0     C21519   3.736   9.887   8.294 -0.3229 -0.3398 -0.2129
  160MOL0     C21520   3.892   9.731   8.697 -0.0373 -0.7186  0.2140
  160MOL0     C21521   4.018   9.788   8.705 -0.3780  0.4099  0.0519
  160MOL0     C21522   4.119   9.741   8.792  0.2690 -0.0900  0.0911
  160MOL0     C21523   4.100   9.644   8.881 -0.8419 -0.5802 -0.7366
  160MOL0     O21524   4.210   9.613   8.966 -0.3289  0.1565  0.0784
  160MOL0     C21525   4.205   9.492   9.062  0.1988 -0.4068  0.5724
  160MOL0     C21526   4.256   9.374   8.985  0.6475  1.2786 -0.5867
  160MOL0     C21527   4.407   9.377   8.944  0.4087  0.0510 -0.9735
  160MOL0     C21528   4.446   9.440   8.814  0.3477 -0.7045 -0.6874
  160MOL0     C21529   4.566   9.380   8.772 -0.3081  0.6823  0.1531
  160MOL0     C21530   4.671   9.347   8.720  0.9724 -0.0081  0.3687
  160MOL0     C21531   3.973   9.586   8.877  0.3045 -0.3151  0.3093
  160MOL0     C21532   3.871   9.621   8.786  0.2014  0.5563  0.2360
  160MOL0     H21533   3.578  10.003   8.574 -1.9253 -1.5798 -0.8309
  160MOL0     H21534   3.415  10.067   8.420  0.9473 -0.3078 -0.1112
  160MOL0     H21535   3.237  10.036   8.258 -0.5989  1.6533  1.2226
  160MOL0     H21536   3.323  10.194   8.242 -0.2244  0.5868 -1.4706
  160MOL0     H21537   3.129  10.184   8.117 -2.1215 -2.4634  2.7002
  160MOL0     H21538   3.272  10.168   8.000 -1.6602  1.4920 -0.7094
  160MOL0     H21539   3.187   9.906   8.062  0.2092  0.2205  0.7417
  160MOL0     H21540   3.054  10.003   7.989  0.2061  0.3037  0.3776
  160MOL0     H21541   3.201  10.088   7.828 -2.3047 -1.4465 -4.1328
  160MOL0     H21542   3.318   9.957   7.869 -0.1712 -1.3826  2.8723
  160MOL0     H21543   3.153   9.792   7.798 -1.1667 -1.3611  0.0739
  160MOL0     H21544   3.016   9.925   7.797 -0.1711 -0.1466  0.9129
  160MOL0     H21545   3.247   9.908   7.602  0.3916  0.1405  0.9673
  160MOL0     H21546   3.097   9.826   7.569  0.5108  0.8110 -0.7852
  160MOL0     H21547   2.952   9.996   7.578  0.0471 -0.8772  2.2670
  160MOL0     H21548   3.061  10.121   7.613 -3.3675  0.4212 -0.3008
  160MOL0     H21549   3.193  10.019   7.411 -0.6952 -1.2404  1.2538
  160MOL0     H21550   3.066  10.138   7.385  0.2421 -0.0948 -0.1193
  160MOL0     H21551   2.856  10.056   7.290 -2.3697 -1.0741  2.6786
  160MOL0     H21552   2.757   9.943   7.058  3.6307  0.2529  0.2073
  160MOL0     H21553   2.800   9.786   7.017  1.8830  0.4712 -0.2491
  160MOL0     H21554   2.666   9.833   7.288  2.3244 -5.5058  2.2329
  160MOL0     H21555   2.638   9.695   7.188 -1.5115 -0.2340 -2.2567
  160MOL0     H21556   2.502   9.793   7.054  0.0423  0.7430 -0.3973
  160MOL0     H21557   2.545   9.954   7.099  2.2398 -0.8007  0.2173
  160MOL0     H21558   2.318   9.897   7.183  0.9623  0.5769 -1.4721
  160MOL0     H21559   2.416   9.921   7.323 -2.4872  2.2982 -2.1929
  160MOL0     H21560   2.296   9.499   7.341 -0.2688  0.1024  2.7238
  160MOL0     H21561   1.972   9.350   7.378 -1.0160  0.1555  0.0451
  160MOL0     H21562   2.147   9.337   7.357  0.2150  1.7779 -0.4931
  160MOL0     H21563   2.072   9.349   7.519 -2.4419  2.8027  1.3690
  160MOL0     H21564   1.595   9.491   7.367  1.1209 -0.0807  0.0120
  160MOL0     H21565   1.359   9.453   7.442 -1.2785 -2.4960  2.2952
  160MOL0     H21566   1.084   9.459   7.684 -1.0540  1.0389 -0.6947
  160MOL0     H21567   1.188   9.527   7.566 -1.2257 -0.1605 -1.2691
  160MOL0     H21568   1.042   9.342   7.496  0.5259  1.1519 -0.6568
  160MOL0     H21569   1.199   9.301   7.455  0.5657 -2.0797 -0.1039
  160MOL0     H21570   1.217   9.145   7.651 -1.1562  0.3499 -0.3832
  160MOL0     H21571   1.080   9.110   7.550 -2.2130  0.0758  0.3640
  160MOL0     H21572   1.069   9.267   7.814  1.9072  0.0967 -1.1653
  160MOL0     H21573   0.936   9.204   7.734  0.5191  1.9126 -0.7265
  160MOL0     H21574   1.171   9.015   7.805 -0.9019 -2.0239  0.6151
  160MOL0     H21575   1.015   8.962   7.755  3.0803 -0.4369 -1.3941
  160MOL0     H21576   1.095   9.128   8.010  1.9455  0.3258 -2.6551
  160MOL0     H21577   0.925   9.102   7.981  0.4834  2.0503  2.8888
  160MOL0     H21578   1.136   8.891   8.018 -0.2619  1.0319 -2.5251
  160MOL0     H21579   0.955   8.856   7.992 -1.4674  1.7177 -0.7248
  160MOL0     H21580   1.074   8.995   8.217  1.0707  0.1829 -1.1411
  160MOL0     H21581   1.044   8.825   8.207  2.3576  1.5276  1.0249
  160MOL0     H21582   1.483   9.452   7.845 -0.6391 -0.6790  0.2842
  160MOL0     H21583   1.719   9.493   7.777 -0.3250  1.1778 -0.5778
  160MOL0     H21584   1.992   9.859   7.472  0.3707 -0.8218 -0.3178
  160MOL0     H21585   2.199   9.902   7.381  0.6911 -0.0858 -2.9144
  160MOL0     H21586   3.656   9.920   8.101 -0.3105  1.6135 -0.1999
  160MOL0     H21587   3.813   9.824   8.250 -0.0597 -0.4284  0.3668
  160MOL0     H21588   4.037   9.864   8.630  0.2479 -0.6126 -0.8542
  160MOL0     H21589   4.203   9.809   8.792  0.2305 -0.0194  1.6813
  160MOL0     H21590   4.262   9.518   9.151  0.8509  1.6789 -0.3901
  160MOL0     H21591   4.100   9.476   9.088 -0.8400  1.4603 -2.0092
  160MOL0     H21592   4.211   9.351   8.889  1.2145 -0.5699 -0.4382
  160MOL0     H21593   4.239   9.286   9.047  0.4283 -0.4949 -3.0541
  160MOL0     H21594   4.437   9.272   8.947 -0.2145 -0.1211  1.0089
  160MOL0     H21595   4.460   9.425   9.027  0.8051 -0.8797 -0.6700
  160MOL0     H21596   4.473   9.546   8.821 -0.5558 -0.3986 -1.5976
  160MOL0     H21597   4.366   9.431   8.740  1.4495  0.0102 -2.0116
  160MOL0     H21598   4.760   9.305   8.679  0.0018 -1.7472 -0.0460
  160MOL0     H21599   3.950   9.505   8.946 -0.4034  0.1401  0.6245
  160MOL0     H21600   3.773   9.577   8.804 -1.5661  4.1327  0.5098
  161MOL0     O21601   2.229   7.173   3.837 -0.2996 -0.6489  0.0028
  161MOL0     C21602   2.228   7.280   3.769 -0.6429 -0.5258 -0.2186
  161MOL0     O21603   2.113   7.364   3.744 -0.2849 -0.7578 -0.1936
  161MOL0     C21604   1.993   7.320   3.774 -0.3149  0.6289 -0.1284
  161MOL0     C21605   1.951   7.298   3.906  0.5887  0.5830 -0.3141
  161MOL0     C21606   1.825   7.254   3.935 -0.8716 -0.2375  0.1696
  161MOL0     C21607   1.729   7.244   3.831  0.0040  0.5175  0.2343
  161MOL0     O21608   1.594   7.234   3.870 -0.3548 -1.1213 -0.0969
  161MOL0     C21609   1.559   7.109   3.932 -0.7347 -0.5152  0.8319
  161MOL0     C21610   1.411   7.119   3.983  0.2618 -0.5018 -0.3112
  161MOL0     C21611   1.292   7.121   3.892 -0.3884  0.5211 -0.9412
  161MOL0     C21612   1.267   7.003   3.793  1.2591  0.4708 -0.5747
  161MOL0     C21613   1.202   7.058   3.657 -0.1423  0.7386 -0.0058
  161MOL0     C21614   1.164   6.937   3.566  0.4733 -0.6072 -0.0451
  161MOL0     C21615   1.111   6.994   3.426  1.1697 -0.8206  0.8566
  161MOL0     C21616   1.152   6.901   3.310 -0.8482 -0.4199  0.9357
  161MOL0     N21617   1.103   6.940   3.171  0.7116  0.5157 -0.1307
  161MOL0     C21618   0.974   6.908   3.127 -0.3637 -0.4627  0.3985
  161MOL0     C21619   0.976   6.940   2.991 -0.4374 -0.0250 -0.5217
  161MOL0     C21620   0.868   6.922   2.889 -1.0147  0.4049 -0.1388
  161MOL0     C21621   0.870   7.019   2.769  0.4277 -0.0294 -0.2231
  161MOL0     C21622   0.750   6.999   2.683 -0.4091  0.3484 -0.6892
  161MOL0     C21623   0.728   7.113   2.583  0.0716  0.1013  0.2074
  161MOL0     O21624   0.695   7.237   2.656 -0.5658 -0.1743  0.1762
  161MOL0     C21625   0.571   7.271   2.700  1.5864  0.3580 -0.2192
  161MOL0     C21626   0.457   7.216   2.644  0.4439  0.0273  0.0215
  161MOL0     C21627   0.333   7.264   2.699  0.5832 -0.3994  0.8287
  161MOL0     C21628   0.209   7.204   2.644  0.1477  0.2863  0.0236
  161MOL0     C21629   0.323   7.338   2.819 -0.9265 -0.1476  0.5940
  161MOL0     C21630   0.190   7.376   2.884 -1.3476 -0.2242  0.0594
  161MOL0     O21631   0.194   7.402   3.022  0.6104 -0.9898 -0.2017
  161MOL0     C21632   0.093   7.466   3.082  0.2303 -0.1199 -0.0448
  161MOL0     C21633   0.088   7.604   3.074 -0.1004 -0.4290 -0.3895
  161MOL0     C21634  -0.013   7.675   3.137 -0.1631  0.4286  0.0807
  161MOL0     C21635  -0.098   7.606   3.222  0.0227  0.0632  0.1131
  161MOL0     O21636  -0.191   7.676   3.295 -0.0997  0.2949  0.3379
  161MOL0     C21637  -0.196   7.644   3.436  0.6986 -0.4388  0.4797
  161MOL0     C21638  -0.189   7.773   3.510  0.7828 -0.0053  0.4697
  161MOL0     C21639  -0.050   7.837   3.502 -0.4978 -0.5760 -0.6475
  161MOL0     C21640  -0.068   7.970   3.581 -0.1757 -0.8324 -0.4614
  161MOL0     C21641   0.049   8.053   3.576  0.3358 -0.0261  0.3650
  161MOL0     C21642   0.016   8.202   3.610  1.0492  0.2535  0.3257
  161MOL0     C21643  -0.023   8.248   3.748 -0.0152 -0.2943 -0.3947
  161MOL0     C21644  -0.067   8.388   3.744  1.1197 -0.5564 -0.5856
  161MOL0    Cl21645  -0.234   8.400   3.651 -0.2237  0.1735  0.1293
  161MOL0     C21646  -0.095   7.466   3.222 -0.3810 -0.2217  0.5486
  161MOL0     C21647   0.006   7.393   3.156  0.0309  0.7561 -1.5213
  161MOL0     O21648   0.094   7.405   2.816 -0.6462  0.7135 -0.2671
  161MOL0     C21649   0.444   7.377   2.883  0.8332 -0.3994  0.6645
  161MOL0     C21650   0.563   7.348   2.815 -0.4313  0.7103 -0.2694
  161MOL0     N21651   1.103   6.992   2.967 -0.2439  0.4545  0.5520
  161MOL0     N21652   1.176   6.987   3.070 -0.6583  0.0059  0.4155
  161MOL0     C21653   1.772   7.268   3.696 -0.0854  0.3900  0.3745
  161MOL0     C21654   1.907   7.301   3.670  0.6145 -0.6790  0.0944
  161MOL0     C21655   2.351   7.324   3.701 -0.5773 -0.2935 -0.8480
  161MOL0     C21656   2.376   7.458   3.665 -0.3596 -0.6576  0.5486
  161MOL0     C21657   2.491   7.494   3.589  0.4542  0.2191 -0.7954
  161MOL0     C21658   2.587   7.400   3.547  0.7847  0.3546 -0.1057
  161MOL0     O21659   2.717   7.430   3.501 -0.0143  0.4988 -0.1844
  161MOL0     C21660   2.819   7.462   3.592 -0.1601 -0.1269 -0.1678
  161MOL0     C21661   2.912   7.547   3.516 -0.4820  0.0791  0.3057
  161MOL0     C21662   2.993   7.457   3.423 -0.3114 -0.0327  0.6459
  161MOL0     C21663   3.064   7.535   3.311 -0.8147  0.3867 -0.0816
  161MOL0     C21664   3.186   7.591   3.365  0.1953  0.3984 -0.3143
  161MOL0     C21665   3.273   7.658   3.420 -1.1153 -0.2527  0.7675
  161MOL0     C21666   2.566   7.269   3.599  0.2695  0.6779  0.5618
  161MOL0     C21667   2.453   7.231   3.676 -0.0363  0.9605  0.5561
  161MOL0     H21668   2.020   7.307   3.989 -0.4428 -1.0832  0.7730
  161MOL0     H21669   1.803   7.256   4.041 -2.6089  1.0394 -0.1737
  161MOL0     H21670   1.556   7.050   3.840  0.6588  2.5787 -1.3991
  161MOL0     H21671   1.639   7.073   3.996  0.5366 -2.5177 -1.6841
  161MOL0     H21672   1.391   7.030   4.044 -2.0288  0.6313  0.7004
  161MOL0     H21673   1.415   7.207   4.048  3.5206 -0.9975  0.3581
  161MOL0     H21674   1.203   7.125   3.956  1.0415 -0.9571  1.2629
  161MOL0     H21675   1.304   7.213   3.834  3.5202  1.8548  1.6276
  161MOL0     H21676   1.358   6.945   3.774  0.1467 -1.2371 -0.8683
  161MOL0     H21677   1.198   6.935   3.844  0.1769  3.5247  2.4513
  161MOL0     H21678   1.121   7.131   3.668  0.0583  1.6369 -3.2556
  161MOL0     H21679   1.277   7.123   3.612  0.4860  1.6573  2.2716
  161MOL0     H21680   1.263   6.891   3.553  0.3211 -1.5248  1.7340
  161MOL0     H21681   1.110   6.855   3.614  0.1483  0.1716  0.9532
  161MOL0     H21682   1.003   7.012   3.426  1.1465 -0.9618  0.5353
  161MOL0     H21683   1.160   7.085   3.391 -1.9737 -0.0107 -1.9011
  161MOL0     H21684   1.113   6.803   3.339 -5.2305  0.7079 -0.3909
  161MOL0     H21685   1.260   6.896   3.301 -0.8500  2.1409 -2.2059
  161MOL0     H21686   0.902   6.850   3.184  0.0867  0.1758  1.6370
  161MOL0     H21687   0.877   6.817   2.861  1.8727  0.5165  0.1455
  161MOL0     H21688   0.773   6.940   2.942 -0.7863 -1.0360  0.8238
  161MOL0     H21689   0.963   6.999   2.715  0.4176 -2.7122  0.6115
  161MOL0     H21690   0.879   7.123   2.801 -0.9779  0.0056  0.1338
  161MOL0     H21691   0.665   6.994   2.752  0.4933  2.3341  0.6819
  161MOL0     H21692   0.761   6.904   2.630  2.0324  1.9297 -3.2874
  161MOL0     H21693   0.645   7.077   2.522 -1.2784  2.7864  0.3156
  161MOL0     H21694   0.816   7.138   2.523  0.7250 -0.9525  0.6943
  161MOL0     H21695   0.468   7.150   2.558 -0.1573  0.6657 -0.5609
  161MOL0     H21696   0.236   7.143   2.557  0.0567 -0.9358  0.8334
  161MOL0     H21697   0.153   7.145   2.716 -0.9569  0.3936 -0.7284
  161MOL0     H21698   0.146   7.280   2.596 -0.1138 -0.5119 -0.9342
  161MOL0     H21699   0.166   7.657   3.022  0.0444  0.1090  0.3578
  161MOL0     H21700  -0.010   7.782   3.124  0.5368  0.1433 -2.7906
  161MOL0     H21701  -0.292   7.601   3.463  0.9608 -1.0231  0.4853
  161MOL0     H21702  -0.112   7.581   3.467  0.8637 -0.0403  0.8605
  161MOL0     H21703  -0.267   7.836   3.465  0.9703 -0.5469 -0.6386
  161MOL0     H21704  -0.226   7.765   3.613 -1.0743 -4.5492 -0.3139
  161MOL0     H21705  -0.029   7.856   3.396  0.6105  0.3330 -0.2788
  161MOL0     H21706   0.030   7.775   3.544  0.0676  1.2032  1.0115
  161MOL0     H21707  -0.153   8.026   3.541  1.6033  0.9561 -1.9637
  161MOL0     H21708  -0.092   7.957   3.687 -1.0630  2.1529 -0.2118
  161MOL0     H21709   0.083   8.055   3.472 -0.7969 -0.0298 -0.0103
  161MOL0     H21710   0.136   8.024   3.636 -0.4578  1.5349  2.3907
  161MOL0     H21711   0.094   8.270   3.574 -0.2833  2.1100  0.8040
  161MOL0     H21712  -0.071   8.223   3.547  0.9404 -1.5390 -0.1973
  161MOL0     H21713   0.062   8.231   3.815  0.9976  2.1934 -0.9441
  161MOL0     H21714  -0.114   8.192   3.772 -0.0173  0.0814  0.4854
  161MOL0     H21715   0.014   8.443   3.695  0.2917  2.0087  0.7386
  161MOL0     H21716  -0.089   8.411   3.849 -0.7728 -1.4752 -0.7508
  161MOL0     H21717  -0.169   7.399   3.265 -1.1095 -0.6077 -1.2198
  161MOL0     H21718   0.014   7.285   3.146  0.5982  0.9055 -2.9496
  161MOL0     H21719   0.439   7.423   2.982  0.8546 -2.6784  1.7922
  161MOL0     H21720   0.651   7.372   2.872 -1.9816  4.0692  0.9760
  161MOL0     H21721   1.704   7.273   3.612 -0.3497  1.5550  0.6399
  161MOL0     H21722   1.947   7.313   3.569  0.0060  0.7906  0.0043
  161MOL0     H21723   2.308   7.540   3.687  0.2380  0.2825 -0.8964
  161MOL0     H21724   2.505   7.598   3.563 -1.7559  0.3390 -1.7350
  161MOL0     H21725   2.781   7.507   3.684  1.6967 -1.3301  1.2724
  161MOL0     H21726   2.869   7.373   3.633  1.2141 -0.2930 -2.0478
  161MOL0     H21727   2.985   7.589   3.586  1.5955  0.0183 -1.7307
  161MOL0     H21728   2.865   7.629   3.461 -1.8114  0.7567  2.3198
  161MOL0     H21729   2.915   7.396   3.376  0.3209  0.6954 -1.4436
  161MOL0     H21730   3.061   7.403   3.489  1.6428  2.3926  0.7566
  161MOL0     H21731   2.992   7.614   3.286 -1.2092  0.5150  1.4056
  161MOL0     H21732   3.094   7.487   3.217 -0.0168  1.1992 -0.2655
  161MOL0     H21733   3.351   7.709   3.473 -0.7730 -0.4120  0.4270
  161MOL0     H21734   2.642   7.197   3.570 -0.6609  1.0350 -3.2674
  161MOL0     H21735   2.441   7.125   3.695 -2.8368  0.5542 -2.5236
  162MOL0     O21736   6.649   8.978   2.348 -0.5909 -0.8550 -0.1016
  162MOL0     C21737   6.617   9.079   2.398 -0.5945 -0.4834  0.1487
  162MOL0     O21738   6.533   9.091   2.502 -0.0357  0.2074  0.9152
  162MOL0     C21739   6.460   8.989   2.558  1.0238  0.0164  0.0769
  162MOL0     C21740   6.319   8.999   2.596  0.2658 -0.7293 -0.3207
  162MOL0     C21741   6.253   8.894   2.650  0.3790 -0.2446  0.1544
  162MOL0     C21742   6.315   8.769   2.682 -0.3964 -0.4170  0.5132
  162MOL0     O21743   6.268   8.660   2.751  0.4338 -0.3138  0.2171
  162MOL0     C21744   6.132   8.665   2.805 -0.0063 -0.3952  0.0441
  162MOL0     C21745   6.100   8.532   2.872 -0.3741 -0.2503 -0.0893
  162MOL0     C21746   6.196   8.513   2.985  0.1878 -0.3383 -0.2826
  162MOL0     C21747   6.161   8.383   3.055 -0.1688 -0.0077  0.6204
  162MOL0     C21748   6.057   8.400   3.164  0.0440  0.8904 -0.2379
  162MOL0     C21749   5.994   8.265   3.216 -1.1223  0.6051  0.8895
  162MOL0     C21750   5.887   8.199   3.137 -1.0084  0.1638  0.3239
  162MOL0     C21751   5.934   8.068   3.063  0.3516 -0.2191 -0.2705
  162MOL0     N21752   5.820   8.009   2.991 -0.6961 -0.5922  0.1263
  162MOL0     C21753   5.842   7.916   2.899  0.1161  0.1652 -0.0752
  162MOL0     C21754   5.728   7.842   2.898 -0.2721 -0.3116  0.4685
  162MOL0     C21755   5.699   7.730   2.792 -0.3649  0.0369  0.0010
  162MOL0     C21756   5.676   7.586   2.857  0.4506 -0.1711  0.5633
  162MOL0     C21757   5.588   7.576   2.981  0.2239  0.2626 -0.4470
  162MOL0     C21758   5.621   7.446   3.073 -1.1736  0.5058  0.1279
  162MOL0     O21759   5.539   7.439   3.187 -0.2747 -0.6014 -0.2351
  162MOL0     C21760   5.556   7.534   3.289  0.0943 -0.2706  0.7014
  162MOL0     C21761   5.669   7.618   3.302 -0.5202  0.2533  0.8104
  162MOL0     C21762   5.684   7.710   3.399 -0.4915 -0.4500  0.1553
  162MOL0     C21763   5.804   7.806   3.391 -0.7062 -0.5901 -0.4065
  162MOL0     C21764   5.589   7.712   3.511  0.4694  0.4704  0.3034
  162MOL0     C21765   5.596   7.810   3.634 -0.6750 -0.3958 -0.0789
  162MOL0     O21766   5.687   7.910   3.632 -0.7317  0.2175  0.1085
  162MOL0     C21767   5.691   7.993   3.747 -0.3058  0.3362  0.5854
  162MOL0     C21768   5.717   7.935   3.873 -0.1647 -0.6063  0.5703
  162MOL0     C21769   5.724   8.017   3.980  0.1915 -0.4418 -0.0573
  162MOL0     C21770   5.728   8.161   3.983 -0.9693  0.1241  0.6170
  162MOL0     O21771   5.752   8.230   4.097  0.4952 -0.3311 -0.2906
  162MOL0     C21772   5.730   8.368   4.103 -0.4251  0.3662  0.0385
  162MOL0     C21773   5.724   8.421   4.249 -0.4315 -0.4887 -0.4537
  162MOL0     C21774   5.833   8.374   4.342 -0.6889  0.3775 -0.3622
  162MOL0     C21775   5.796   8.387   4.491  0.1630 -0.0673 -0.3789
  162MOL0     C21776   5.846   8.262   4.572  1.0579  0.0408  0.2138
  162MOL0     C21777   5.787   8.280   4.715 -0.5989 -0.0770 -0.0188
  162MOL0     C21778   5.819   8.165   4.821 -0.1109  0.6708  1.3036
  162MOL0     C21779   5.816   8.205   4.972  0.2370 -0.3074  0.3022
  162MOL0    Cl21780   5.817   8.050   5.057  0.1086  0.5440  0.1352
  162MOL0     C21781   5.718   8.213   3.854 -0.0053  0.5169  0.9064
  162MOL0     C21782   5.686   8.134   3.739 -0.0281  0.4384  0.1661
  162MOL0     O21783   5.521   7.792   3.729 -0.2730 -0.1942 -0.7112
  162MOL0     C21784   5.481   7.621   3.506 -0.9804 -0.4615 -0.2181
  162MOL0     C21785   5.466   7.540   3.391 -0.5375  0.3113 -0.0474
  162MOL0     N21786   5.640   7.904   2.994 -0.6167  0.3367 -0.4362
  162MOL0     N21787   5.701   7.997   3.056  0.4205  0.2129 -1.3078
  162MOL0     C21788   6.449   8.758   2.643 -0.3975 -0.1649  0.1567
  162MOL0     C21789   6.521   8.866   2.592 -0.4394  0.1665 -0.6268
  162MOL0     C21790   6.679   9.205   2.353 -0.4273 -0.0705 -0.3515
  162MOL0     C21791   6.670   9.312   2.432  0.1261 -1.4073  0.1942
  162MOL0     C21792   6.730   9.433   2.391 -0.2052 -0.4707  0.3218
  162MOL0     C21793   6.792   9.446   2.266 -0.0579 -0.3263  1.2135
  162MOL0     O21794   6.848   9.561   2.225 -0.0334  0.1718  0.1180
  162MOL0     C21795   6.881   9.654   2.327 -0.6881  0.6471  0.4184
  162MOL0     C21796   6.967   9.773   2.277 -1.0527  0.2755 -1.3575
  162MOL0     C21797   7.127   9.754   2.310  0.3307 -0.0103 -0.1494
  162MOL0     C21798   7.190   9.899   2.312  0.3991 -0.6465 -0.7753
  162MOL0     C21799   7.193   9.961   2.183 -0.3312 -0.7840 -0.2253
  162MOL0     C21800   7.200  10.014   2.071  0.9237 -0.1482  0.4454
  162MOL0     C21801   6.812   9.328   2.186  1.2897  0.5394  0.2473
  162MOL0     C21802   6.748   9.210   2.227  0.1665  0.4327 -0.3541
  162MOL0     H21803   6.267   9.094   2.586  2.3325  0.6631  1.3868
  162MOL0     H21804   6.146   8.903   2.662  0.4839  0.8784  0.3842
  162MOL0     H21805   6.129   8.749   2.875  2.8570  1.5153 -1.9220
  162MOL0     H21806   6.065   8.688   2.722 -1.6175  0.2482  1.4564
  162MOL0     H21807   5.999   8.529   2.914  0.5303  0.1466  2.2132
  162MOL0     H21808   6.100   8.462   2.788 -1.8326  1.9784 -2.0843
  162MOL0     H21809   6.300   8.500   2.955 -0.3459 -1.8874 -1.6620
  162MOL0     H21810   6.193   8.600   3.051  1.5693  2.4881 -3.6450
  162MOL0     H21811   6.129   8.303   2.988  0.5017  1.5410 -1.6354
  162MOL0     H21812   6.238   8.336   3.116 -1.3875 -0.6180  1.7351
  162MOL0     H21813   6.102   8.454   3.248 -1.9362 -0.7417  1.9894
  162MOL0     H21814   5.969   8.453   3.125  0.1924  0.7656 -0.7505
  162MOL0     H21815   6.070   8.188   3.229 -1.9446 -0.0506  2.0879
  162MOL0     H21816   5.965   8.270   3.322 -0.2606  2.5099  1.0661
  162MOL0     H21817   5.810   8.173   3.210  0.8936 -0.4465  2.2025
  162MOL0     H21818   5.848   8.270   3.063  0.1566 -1.1270 -1.6416
  162MOL0     H21819   5.969   8.002   3.142  0.5276 -0.2395 -0.3649
  162MOL0     H21820   6.016   8.093   2.996  1.2972 -0.4295  0.7908
  162MOL0     H21821   5.927   7.916   2.832  1.0561  1.2341  1.0740
  162MOL0     H21822   5.622   7.766   2.722 -0.5000  0.7133  0.4928
  162MOL0     H21823   5.782   7.711   2.724 -2.0042 -0.2462 -2.0324
  162MOL0     H21824   5.772   7.543   2.887  0.2668 -2.0839 -1.3792
  162MOL0     H21825   5.638   7.522   2.777  4.9975 -0.9198 -1.2820
  162MOL0     H21826   5.486   7.581   2.941 -0.1549 -5.2103 -0.9430
  162MOL0     H21827   5.589   7.666   3.043 -0.5761  1.2858 -1.8571
  162MOL0     H21828   5.724   7.452   3.111 -2.2360  2.5809  3.0446
  162MOL0     H21829   5.602   7.365   3.003 -1.2172  1.5788 -1.1469
  162MOL0     H21830   5.753   7.621   3.232 -1.1234  0.6096  0.0872
  162MOL0     H21831   5.864   7.819   3.482 -0.0005 -1.7949 -0.6698
  162MOL0     H21832   5.873   7.770   3.314 -1.0682 -1.0010 -0.5454
  162MOL0     H21833   5.773   7.907   3.363  4.2408  1.8668  1.8118
  162MOL0     H21834   5.716   7.830   3.900 -0.0761 -0.3163  1.7811
  162MOL0     H21835   5.732   7.991   4.085 -5.1035  0.4313  0.8444
  162MOL0     H21836   5.796   8.418   4.032  0.3720  1.7708  1.6746
  162MOL0     H21837   5.632   8.390   4.058  0.4275  0.7168 -1.7301
  162MOL0     H21838   5.737   8.528   4.235  0.1486 -0.2878  1.3788
  162MOL0     H21839   5.633   8.392   4.303  0.1643 -0.3431  0.6533
  162MOL0     H21840   5.933   8.418   4.329 -0.4233 -0.4477 -1.2434
  162MOL0     H21841   5.853   8.268   4.324  0.7589  0.8819 -2.0392
  162MOL0     H21842   5.843   8.472   4.540  2.4970 -1.4689 -0.0502
  162MOL0     H21843   5.687   8.390   4.502  0.4390  1.6597  4.2095
  162MOL0     H21844   5.952   8.238   4.578  0.9129 -2.3040 -3.6611
  162MOL0     H21845   5.796   8.176   4.527  0.9557  0.6424 -0.8538
  162MOL0     H21846   5.807   8.376   4.764 -0.7514  0.7115 -1.4580
  162MOL0     H21847   5.679   8.283   4.701 -0.3434  1.3765 -2.1752
  162MOL0     H21848   5.917   8.124   4.797 -0.5971  0.4504 -0.4455
  162MOL0     H21849   5.746   8.083   4.815 -0.7866  1.3547 -1.3757
  162MOL0     H21850   5.722   8.260   4.983  1.3599  1.4669  1.6843
  162MOL0     H21851   5.899   8.273   4.994  0.3287 -0.1143 -0.5946
  162MOL0     H21852   5.736   8.320   3.846  1.9928  0.0992 -1.2027
  162MOL0     H21853   5.699   8.173   3.639  0.7325 -1.0214 -0.3202
  162MOL0     H21854   5.410   7.632   3.587 -0.4795  5.5692 -0.1013
  162MOL0     H21855   5.378   7.479   3.371 -0.2087 -1.0006  2.1798
  162MOL0     H21856   6.491   8.664   2.677 -3.7478 -1.5300  0.9033
  162MOL0     H21857   6.626   8.842   2.577  0.2113  1.3826  1.5993
  162MOL0     H21858   6.636   9.304   2.535  4.9464 -1.3692  2.0692
  162MOL0     H21859   6.727   9.509   2.468  0.3418 -1.5197  1.4111
  162MOL0     H21860   6.794   9.709   2.363 -2.0599  0.1186 -1.8761
  162MOL0     H21861   6.935   9.607   2.409  3.9306  1.4958 -1.8127
  162MOL0     H21862   6.929   9.864   2.325  3.0568  1.9863 -0.9775
  162MOL0     H21863   6.958   9.793   2.170  2.9418  1.4790 -1.6256
  162MOL0     H21864   7.176   9.711   2.222  0.8446  0.5967 -0.1674
  162MOL0     H21865   7.145   9.697   2.402 -1.0006 -1.5282 -0.7964
  162MOL0     H21866   7.292   9.889   2.350 -0.3323  0.3622  1.6485
  162MOL0     H21867   7.123   9.955   2.377  1.3639 -0.8642  0.4463
  162MOL0     H21868   7.201  10.058   1.974  0.2000 -0.0725  0.4654
  162MOL0     H21869   6.876   9.324   2.098  0.2211 -1.9256 -0.5007
  162MOL0     H21870   6.750   9.114   2.176  3.4680  0.2695 -0.1031
  163MOL0     O21871  10.458   4.619  11.156  0.5094 -0.1359 -0.5069
  163MOL0     C21872  10.509   4.551  11.251 -0.2193 -1.0297 -0.3698
  163MOL0     O21873  10.586   4.596  11.351 -0.2302  0.5734  0.3470
  163MOL0     C21874  10.626   4.726  11.341  0.6164 -0.4496 -0.1129
  163MOL0     C21875  10.758   4.754  11.360 -0.6007 -0.8570  0.4399
  163MOL0     C21876  10.798   4.879  11.366  0.3545 -0.0861 -0.2164
  163MOL0     C21877  10.719   4.988  11.365  0.0755  0.3396 -0.0663
  163MOL0     O21878  10.763   5.115  11.359 -0.0396 -0.4968  1.1543
  163MOL0     C21879  10.861   5.152  11.459  0.7755 -0.9839 -0.4872
  163MOL0     C21880  10.918   5.286  11.430  0.5655 -0.4283  0.7161
  163MOL0     C21881  11.016   5.283  11.309 -0.1356  0.0048  0.9983
  163MOL0     C21882  11.081   5.425  11.301  0.3487 -1.2217 -0.1533
  163MOL0     C21883  11.211   5.451  11.215 -0.3978  0.2686 -0.8276
  163MOL0     C21884  11.200   5.426  11.070  0.6428  0.2050  0.4516
  163MOL0     C21885  11.325   5.460  10.992 -0.9202 -0.3152  0.5458
  163MOL0     C21886  11.323   5.397  10.851 -0.2053 -0.2635  0.5652
  163MOL0     N21887  11.427   5.453  10.767 -0.1219  0.0371 -0.3268
  163MOL0     C21888  11.546   5.501  10.804  0.0927 -0.2076  0.9210
  163MOL0     C21889  11.606   5.543  10.684 -0.7535  0.0895 -0.5615
  163MOL0     C21890  11.746   5.592  10.651  0.7907 -0.5584 -0.0069
  163MOL0     C21891  11.817   5.489  10.564 -1.2215  0.3318  1.1276
  163MOL0     C21892  11.881   5.375  10.653  0.5490 -0.2980 -0.0273
  163MOL0     C21893  11.946   5.266  10.573  0.2049 -0.3977 -0.7869
  163MOL0     O21894  12.053   5.316  10.495 -0.8906  0.0579 -0.8198
  163MOL0     C21895  12.149   5.242  10.443  0.2096  0.5670 -0.5969
  163MOL0     C21896  12.149   5.103  10.439  0.0412  0.7990 -0.3032
  163MOL0     C21897  12.257   5.031  10.373 -0.9173  0.7953  0.2088
  163MOL0     C21898  12.260   4.873  10.394 -0.9336 -0.1362  0.5558
  163MOL0     C21899  12.367   5.103  10.321 -0.4667  0.0939 -0.2467
  163MOL0     C21900  12.484   5.045  10.255 -0.0508  0.5302 -0.5703
  163MOL0     O21901  12.579   5.126  10.219  0.1806 -1.0834 -0.7866
  163MOL0     C21902  12.673   5.075  10.127  0.1013 -0.9625 -0.3199
  163MOL0     C21903  12.656   5.092   9.988  0.3180 -0.4047 -0.2786
  163MOL0     C21904  12.762   5.057   9.904  0.6871  0.2368  0.6349
  163MOL0     C21905  12.883   5.014   9.960  0.5469  0.3175  0.2013
  163MOL0     O21906  12.980   4.947   9.899 -0.4922 -1.0370  0.0098
  163MOL0     C21907  13.000   4.989   9.770 -0.7797 -0.0411  0.8623
  163MOL0     C21908  13.138   4.942   9.726 -0.6568  0.0029 -0.4246
  163MOL0     C21909  13.236   4.986   9.830 -0.1615 -1.0750  0.6980
  163MOL0     C21910  13.383   5.018   9.777  0.1440  0.1609  0.2591
  163MOL0     C21911  13.460   5.093   9.886 -0.5821 -0.5738 -0.3439
  163MOL0     C21912  13.614   5.098   9.861  0.1040 -0.2895  0.0072
  163MOL0     C21913  13.681   5.153   9.990  0.1953 -0.5476 -0.6863
  163MOL0     C21914  13.813   5.218   9.956  0.3194 -0.6284 -0.8933
  163MOL0    Cl21915  13.919   5.118   9.862  0.0670  0.8084 -0.2949
  163MOL0     C21916  12.899   5.010  10.097  0.6294  0.4047 -0.1327
  163MOL0     C21917  12.792   5.041  10.183 -0.1689  0.2515  0.7666
  163MOL0     O21918  12.484   4.930  10.233  0.7418  0.3315  0.0941
  163MOL0     C21919  12.367   5.246  10.347 -0.8384  0.2725  1.2369
  163MOL0     C21920  12.257   5.311  10.401 -0.3265 -0.4628  0.2696
  163MOL0     N21921  11.523   5.528  10.580 -0.7949  0.0949 -0.0836
  163MOL0     N21922  11.414   5.472  10.627  0.3134 -0.0280  0.0278
  163MOL0     C21923  10.585   4.964  11.348  0.6158  0.1006  0.4753
  163MOL0     C21924  10.532   4.829  11.335  0.3490 -0.0033 -0.0440
  163MOL0     C21925  10.459   4.418  11.270  0.2167 -0.1257 -1.0918
  163MOL0     C21926  10.320   4.391  11.270 -0.7098 -0.2406 -0.2794
  163MOL0     C21927  10.270   4.273  11.310 -0.5438  0.4422  0.1088
  163MOL0     C21928  10.351   4.160  11.316  0.5644  0.1730  0.2453
  163MOL0     O21929  10.293   4.040  11.349 -0.4685  0.4144  0.5202
  163MOL0     C21930  10.319   4.009  11.487  0.9825  0.7386  0.0877
  163MOL0     C21931  10.293   3.864  11.507  1.0302 -0.5626  0.9803
  163MOL0     C21932  10.138   3.845  11.511  0.2414 -0.1821  0.8541
  163MOL0     C21933  10.107   3.695  11.505  0.4125  0.2955  0.6824
  163MOL0     C21934   9.963   3.658  11.488  1.3800  0.0924 -0.4131
  163MOL0     C21935   9.848   3.624  11.457 -0.7397 -0.4266  0.3421
  163MOL0     C21936  10.490   4.175  11.309  0.3425 -0.7359 -0.2234
  163MOL0     C21937  10.547   4.307  11.292  0.2800  0.8338 -0.1488
  163MOL0     H21938  10.832   4.679  11.385 -0.7215 -0.9776  0.4349
  163MOL0     H21939  10.901   4.902  11.393 -0.5156  0.8541  2.7081
  163MOL0     H21940  10.804   5.171  11.551 -0.7756  0.2306 -1.6456
  163MOL0     H21941  10.941   5.079  11.478  1.1548 -1.2319 -2.8087
  163MOL0     H21942  10.839   5.356  11.401  1.0641  0.2823  1.0441
  163MOL0     H21943  10.967   5.316  11.523  1.5599 -2.1838  0.7876
  163MOL0     H21944  11.093   5.206  11.324  0.1637  0.4181  1.6602
  163MOL0     H21945  10.975   5.274  11.208  2.8484 -1.7793 -0.2036
  163MOL0     H21946  11.007   5.493  11.259 -0.7587 -2.0335  0.4295
  163MOL0     H21947  11.101   5.475  11.396  3.3245 -1.4189 -0.5930
  163MOL0     H21948  11.244   5.555  11.211  1.5293 -0.2783 -0.1374
  163MOL0     H21949  11.283   5.389  11.269  0.1466 -0.5075 -2.3832
  163MOL0     H21950  11.179   5.322  11.043  1.0899  0.1909  0.1390
  163MOL0     H21951  11.129   5.498  11.027  2.2586  1.2962 -0.4849
  163MOL0     H21952  11.351   5.566  10.990  0.9476 -0.7408  0.3536
  163MOL0     H21953  11.406   5.403  11.038  0.3934 -0.1363 -1.4383
  163MOL0     H21954  11.231   5.432  10.802 -0.3487 -0.9513  0.3256
  163MOL0     H21955  11.316   5.288  10.857  0.1799 -0.3564 -0.4982
  163MOL0     H21956  11.590   5.489  10.902 -0.0029 -0.3593  0.9443
  163MOL0     H21957  11.739   5.692  10.606  1.4314  0.2317  1.5622
  163MOL0     H21958  11.794   5.612  10.747  1.7865 -4.0083  0.3246
  163MOL0     H21959  11.905   5.530  10.513  0.1384 -3.0382  0.5043
  163MOL0     H21960  11.758   5.447  10.481 -0.0942  1.2705 -0.2068
  163MOL0     H21961  11.800   5.325  10.708 -0.9569  1.4592 -0.5528
  163MOL0     H21962  11.954   5.423  10.719  0.7771  0.0735 -0.5475
  163MOL0     H21963  11.871   5.226  10.505  0.1436 -0.5300 -0.6433
  163MOL0     H21964  11.978   5.181  10.633  1.5175  0.8906  0.4382
  163MOL0     H21965  12.065   5.056  10.490  1.8162 -1.5879  0.6332
  163MOL0     H21966  12.186   4.837  10.465 -1.6431 -1.5505 -0.8570
  163MOL0     H21967  12.252   4.830  10.293  1.3458 -1.0306  0.6922
  163MOL0     H21968  12.361   4.843  10.424 -1.5280 -4.5421 -1.1114
  163MOL0     H21969  12.561   5.133   9.956 -0.7128 -1.1973  1.6413
  163MOL0     H21970  12.738   5.060   9.798 -1.4867 -1.9317  0.9796
  163MOL0     H21971  12.921   4.939   9.714 -0.2059 -0.0015  0.0066
  163MOL0     H21972  12.991   5.096   9.750  1.1347 -0.4967 -3.5184
  163MOL0     H21973  13.137   4.835   9.746  1.5381 -0.1740 -1.0755
  163MOL0     H21974  13.153   4.960   9.619 -1.3818 -0.8359 -0.6802
  163MOL0     H21975  13.238   4.914   9.912 -1.1063 -0.5967  1.1645
  163MOL0     H21976  13.205   5.079   9.879  2.2055  0.2499 -0.1684
  163MOL0     H21977  13.427   4.922   9.749 -1.5299 -0.5004 -0.1866
  163MOL0     H21978  13.376   5.070   9.681  0.0812 -3.3192 -1.7602
  163MOL0     H21979  13.450   5.021   9.968  3.4977  1.0730  1.9107
  163MOL0     H21980  13.420   5.193   9.903 -0.6345 -0.3083 -1.9234
  163MOL0     H21981  13.651   4.999   9.835  1.3823 -0.6728  2.9893
  163MOL0     H21982  13.635   5.166   9.777  0.8990  1.6132  1.6684
  163MOL0     H21983  13.692   5.061  10.047  1.4764  0.0859  0.1387
  163MOL0     H21984  13.623   5.228  10.045 -0.5587 -1.9144  0.4440
  163MOL0     H21985  13.862   5.257  10.045 -2.1046  1.1816 -0.2385
  163MOL0     H21986  13.806   5.312   9.902 -0.6871 -1.4807 -2.3243
  163MOL0     H21987  12.993   4.977  10.141 -0.6595 -1.2994  1.4911
  163MOL0     H21988  12.809   5.048  10.290  1.1015  0.6348  0.5601
  163MOL0     H21989  12.454   5.305  10.319  0.2881 -1.1827  1.5260
  163MOL0     H21990  12.244   5.417  10.418 -1.6076 -0.7323  1.1053
  163MOL0     H21991  10.520   5.051  11.341 -0.0655 -0.5577 -2.6624
  163MOL0     H21992  10.424   4.814  11.327 -0.1562  2.6444  0.8739
  163MOL0     H21993  10.247   4.467  11.245 -0.2963 -0.1298 -1.1938
  163MOL0     H21994  10.168   4.253  11.341 -0.2793  0.6327  1.1317
  163MOL0     H21995  10.425   4.026  11.511 -0.1093  4.1579  3.7051
  163MOL0     H21996  10.253   4.068  11.551 -1.2149 -1.4487 -0.0250
  163MOL0     H21997  10.345   3.846  11.602  2.9306 -0.0463  0.0778
  163MOL0     H21998  10.335   3.812  11.421  3.1770 -0.1127  1.7049
  163MOL0     H21999  10.106   3.893  11.418 -1.6545 -0.7430  1.1653
  163MOL0     H22000  10.082   3.894  11.592 -0.5998  1.8080 -0.8327
  163MOL0     H22001  10.141   3.649  11.598 -0.1928 -1.1105  0.2346
  163MOL0     H22002  10.165   3.652  11.423  0.9605 -0.1890  1.3227
  163MOL0     H22003   9.750   3.582  11.451 -2.9340  3.5540  3.4473
  163MOL0     H22004  10.543   4.082  11.329  0.4058 -0.8327 -0.8131
  163MOL0     H22005  10.653   4.324  11.307  0.5076 -1.8928  2.0054
  164MOL0     O22006   0.984   9.262   5.363 -0.5353  0.3457 -0.3175
  164MOL0     C22007   1.057   9.355   5.367  0.3061 -0.5060 -0.1923
  164MOL0     O22008   1.162   9.369   5.445  0.0259 -0.5819 -0.8676
  164MOL0     C22009   1.214   9.268   5.521 -1.2166 -0.4889 -0.2518
  164MOL0     C22010   1.309   9.307   5.618  0.0216  0.4509  0.9182
  164MOL0     C22011   1.387   9.215   5.691 -0.3061 -0.1968  0.0433
  164MOL0     C22012   1.362   9.085   5.686  0.5497 -0.2357 -0.6793
  164MOL0     O22013   1.425   8.995   5.766  0.0350  0.7697 -0.1766
  164MOL0     C22014   1.570   8.989   5.773 -0.3190  0.0909  0.3302
  164MOL0     C22015   1.626   8.972   5.626 -0.3124  0.6267 -0.9895
  164MOL0     C22016   1.631   8.819   5.584 -0.8079 -0.6405 -0.3271
  164MOL0     C22017   1.660   8.813   5.425 -0.0455 -0.1426  0.1916
  164MOL0     C22018   1.590   8.699   5.342  0.7124  0.5606 -0.1025
  164MOL0     C22019   1.623   8.564   5.399 -0.3792  0.0139 -1.2190
  164MOL0     C22020   1.536   8.453   5.346  1.0754 -0.0693 -0.3378
  164MOL0     C22021   1.522   8.338   5.442 -0.4620 -0.1806 -0.3000
  164MOL0     N22022   1.469   8.202   5.394 -0.2850 -0.9738  0.6637
  164MOL0     C22023   1.347   8.152   5.438  0.1286 -0.2625 -0.0580
  164MOL0     C22024   1.320   8.050   5.352 -0.6383 -0.0449 -0.2002
  164MOL0     C22025   1.181   7.984   5.359 -1.2820  0.5124 -0.6069
  164MOL0     C22026   1.192   7.840   5.429  0.2418  1.1265  0.7130
  164MOL0     C22027   1.080   7.748   5.396  0.6974  1.2861  0.0856
  164MOL0     C22028   1.089   7.605   5.450  0.0839  0.4484 -0.5392
  164MOL0     O22029   1.035   7.513   5.357 -0.4783 -0.9614 -0.1299
  164MOL0     C22030   1.037   7.381   5.408 -0.5669 -0.5842  0.6064
  164MOL0     C22031   1.061   7.343   5.547 -0.0334 -0.0595 -0.7699
  164MOL0     C22032   1.084   7.217   5.586  0.0777 -1.0083 -0.7550
  164MOL0     C22033   1.136   7.188   5.721 -0.2866 -0.5005  0.0983
  164MOL0     C22034   1.060   7.108   5.493  0.4611 -0.2645 -1.1609
  164MOL0     C22035   1.060   6.958   5.522 -0.8452  0.6067 -0.8796
  164MOL0     O22036   1.086   6.868   5.420 -0.5468 -0.7814  0.6428
  164MOL0     C22037   1.059   6.737   5.424  0.9248  0.1919 -0.0983
  164MOL0     C22038   0.962   6.694   5.333 -0.1593 -0.3560 -0.3444
  164MOL0     C22039   0.908   6.566   5.352 -0.3445 -2.0992 -0.1235
  164MOL0     C22040   0.945   6.480   5.446  0.0857  0.8204 -0.4228
  164MOL0     O22041   0.869   6.364   5.469 -0.1178 -0.2800 -0.2326
  164MOL0     C22042   0.811   6.346   5.593  0.0211  0.4768 -0.3560
  164MOL0     C22043   0.820   6.202   5.627 -0.6636  1.8766  0.0023
  164MOL0     C22044   0.747   6.170   5.761  0.8459  0.0057 -0.2073
  164MOL0     C22045   0.589   6.182   5.751  0.6468 -0.9846  1.5031
  164MOL0     C22046   0.523   6.166   5.889  0.1232  0.1754 -0.2336
  164MOL0     C22047   0.522   6.025   5.939  0.2231  0.1052 -0.0546
  164MOL0     C22048   0.443   6.003   6.064 -1.0682  0.2404  0.0161
  164MOL0     C22049   0.433   5.864   6.106 -0.1836  0.4542 -0.1412
  164MOL0    Cl22050   0.594   5.777   6.106 -0.3442 -0.2484  0.0824
  164MOL0     C22051   1.055   6.520   5.522 -0.3196  0.2519 -0.4200
  164MOL0     C22052   1.109   6.647   5.509  0.4093 -0.0969  0.1633
  164MOL0     O22053   1.014   6.928   5.629  0.8545 -0.1373  0.1117
  164MOL0     C22054   1.017   7.144   5.359 -0.2909 -0.5307 -0.8947
  164MOL0     C22055   1.004   7.278   5.322 -0.0080  0.5631 -0.2455
  164MOL0     N22056   1.414   8.032   5.253  0.1770  0.3994 -0.2951
  164MOL0     N22057   1.513   8.123   5.291  0.3859 -0.5501 -0.2426
  164MOL0     C22058   1.259   9.045   5.608 -0.2607 -0.0223  0.1996
  164MOL0     C22059   1.182   9.132   5.525  0.1780 -0.2440  0.4994
  164MOL0     C22060   1.004   9.477   5.306  0.1683  0.6090  0.1386
  164MOL0     C22061   0.889   9.478   5.225  0.1690  0.0896 -0.0664
  164MOL0     C22062   0.825   9.600   5.177 -0.8896 -0.0082  0.2595
  164MOL0     C22063   0.894   9.721   5.189 -0.4264  0.1203  1.0387
  164MOL0     O22064   0.862   9.834   5.120 -0.2382 -0.2184 -0.1160
  164MOL0     C22065   0.727   9.890   5.130  0.2662 -0.7466  0.4997
  164MOL0     C22066   0.720  10.029   5.062 -0.9987 -0.7522  0.3376
  164MOL0     C22067   0.804  10.044   4.928  0.7401  0.7509 -0.7303
  164MOL0     C22068   0.726   9.973   4.816  0.1142 -0.5074 -0.0517
  164MOL0     C22069   0.786  10.025   4.693  0.3861 -0.5954 -0.0656
  164MOL0     C22070   0.837  10.082   4.601  1.2489  0.0245  0.1492
  164MOL0     C22071   1.006   9.717   5.270 -1.0282  1.0081  0.7318
  164MOL0     C22072   1.068   9.604   5.329  0.0308  0.1882  0.4190
  164MOL0     H22073   1.334   9.413   5.617  2.3604 -0.0278 -0.9379
  164MOL0     H22074   1.460   9.247   5.764 -1.4710 -1.0591  1.6439
  164MOL0     H22075   1.609   9.081   5.818  3.3321 -1.4712  0.6872
  164MOL0     H22076   1.604   8.908   5.838 -0.6586 -1.5794 -1.5075
  164MOL0     H22077   1.566   9.014   5.545 -2.1543 -2.3924 -1.3603
  164MOL0     H22078   1.722   9.024   5.623  0.3157 -0.4067  0.0943
  164MOL0     H22079   1.705   8.760   5.639 -0.1971  2.2945  2.2741
  164MOL0     H22080   1.536   8.772   5.610 -1.7027  1.6470  0.7819
  164MOL0     H22081   1.645   8.909   5.374 -1.3876  2.7215  5.2237
  164MOL0     H22082   1.765   8.782   5.423  1.0046  2.8861 -3.3500
  164MOL0     H22083   1.481   8.705   5.343  0.5327 -1.9503  0.7842
  164MOL0     H22084   1.636   8.685   5.243  2.2722 -2.0003  0.8948
  164MOL0     H22085   1.730   8.541   5.394 -0.4962 -1.5887  1.4062
  164MOL0     H22086   1.611   8.564   5.508 -0.4703 -0.1445 -1.2292
  164MOL0     H22087   1.436   8.493   5.324 -0.5697 -1.7120  3.1985
  164MOL0     H22088   1.587   8.424   5.254  2.1726  0.7103  0.0082
  164MOL0     H22089   1.454   8.370   5.522  0.9788  2.2542  0.0617
  164MOL0     H22090   1.621   8.325   5.486 -1.8363 -2.3170  2.5291
  164MOL0     H22091   1.295   8.193   5.523  2.6314  1.5895  0.6727
  164MOL0     H22092   1.123   8.059   5.413 -1.4026  0.2374 -0.3530
  164MOL0     H22093   1.143   7.970   5.257  0.4148 -0.2961 -1.1679
  164MOL0     H22094   1.186   7.868   5.534 -1.0774  4.7548 -0.1995
  164MOL0     H22095   1.287   7.795   5.397 -1.5387 -3.4925  1.0757
  164MOL0     H22096   1.063   7.733   5.288  1.0503 -2.6775  0.4279
  164MOL0     H22097   0.983   7.787   5.428 -0.4054 -1.0300 -0.2038
  164MOL0     H22098   1.040   7.603   5.548  1.8113  0.4633  0.3666
  164MOL0     H22099   1.193   7.576   5.466 -0.2391  0.0646  1.0005
  164MOL0     H22100   1.089   7.414   5.624  0.3285 -2.1146  1.0937
  164MOL0     H22101   1.182   7.280   5.758 -1.7130 -0.1106  0.9839
  164MOL0     H22102   1.062   7.165   5.797  0.9269 -1.6185  0.9851
  164MOL0     H22103   1.209   7.107   5.725 -0.6643 -0.8235  0.5440
  164MOL0     H22104   0.918   6.777   5.278  0.7773 -0.4922 -1.3293
  164MOL0     H22105   0.830   6.544   5.280 -1.1927 -1.3307  0.5490
  164MOL0     H22106   0.854   6.406   5.674 -0.0945 -0.1700  0.1905
  164MOL0     H22107   0.703   6.366   5.600 -0.8357 -3.6450  0.9749
  164MOL0     H22108   0.777   6.146   5.543 -1.7935  0.4501  1.4588
  164MOL0     H22109   0.923   6.166   5.636 -0.9438  1.5730  2.8256
  164MOL0     H22110   0.793   6.234   5.837 -0.9876  0.8872  0.2242
  164MOL0     H22111   0.761   6.067   5.796  0.1303  0.7585  2.6090
  164MOL0     H22112   0.559   6.282   5.721  0.0256 -0.8423  2.5709
  164MOL0     H22113   0.543   6.110   5.681 -2.0367 -0.2603  2.3975
  164MOL0     H22114   0.417   6.188   5.874 -0.5225 -0.6340  2.5087
  164MOL0     H22115   0.572   6.231   5.962  2.4516 -1.7953  0.0962
  164MOL0     H22116   0.483   5.965   5.856  2.3400 -0.0525 -1.0046
  164MOL0     H22117   0.626   6.001   5.961 -0.0565 -1.3247 -0.2256
  164MOL0     H22118   0.339   6.031   6.044 -1.1822 -1.6001 -2.3483
  164MOL0     H22119   0.492   6.064   6.141 -0.7263  3.2164 -2.3634
  164MOL0     H22120   0.364   5.810   6.039  1.8205  0.0790 -2.0082
  164MOL0     H22121   0.398   5.862   6.209  0.2467 -0.8235 -0.0047
  164MOL0     H22122   1.107   6.448   5.586 -0.1801 -0.5700 -1.4386
  164MOL0     H22123   1.206   6.676   5.549  1.4470  1.7744 -3.3060
  164MOL0     H22124   1.003   7.076   5.276  2.1519 -2.5467  0.1947
  164MOL0     H22125   0.960   7.295   5.225 -3.6818 -4.7062  0.0892
  164MOL0     H22126   1.230   8.941   5.610 -0.9130  0.1567  1.0275
  164MOL0     H22127   1.100   9.098   5.462 -1.7161  2.3404  1.4024
  164MOL0     H22128   0.845   9.385   5.192  2.1054 -1.3271  1.1847
  164MOL0     H22129   0.729   9.594   5.127 -1.2995 -1.0358  1.1257
  164MOL0     H22130   0.651   9.832   5.077 -0.9953 -0.4108  1.8655
  164MOL0     H22131   0.694   9.893   5.235  0.8236 -2.0111  0.7341
  164MOL0     H22132   0.757  10.105   5.132  0.7525 -0.3650 -0.9630
  164MOL0     H22133   0.619  10.068   5.046 -0.3976  1.3309  1.1685
  164MOL0     H22134   0.909  10.014   4.932  0.6338  0.4249 -0.1614
  164MOL0     H22135   0.782  10.150   4.917 -1.8505  0.7180  2.5089
  164MOL0     H22136   0.621  10.002   4.814  0.4850  0.9075 -2.7575
  164MOL0     H22137   0.734   9.864   4.827 -0.2223 -0.4198  1.2345
  164MOL0     H22138   0.886  10.120   4.514 -0.1699  1.8768  0.0998
  164MOL0     H22139   1.048   9.812   5.302  0.2863  1.2665 -1.5009
  164MOL0     H22140   1.155   9.593   5.393  0.2375 -6.3839 -0.2498
  165MOL0     O22141   7.152   4.275   9.984  0.3332  0.4032 -0.0874
  165MOL0     C22142   7.221   4.174  10.020 -0.0784 -0.3813 -0.1539
  165MOL0     O22143   7.259   4.150  10.148 -0.4877 -0.0116  0.9115
  165MOL0     C22144   7.250   4.257  10.232  0.7957  0.0780 -0.5029
  165MOL0     C22145   7.196   4.231  10.355 -0.4045 -0.1336  0.0628
  165MOL0     C22146   7.173   4.337  10.443 -0.2019 -0.6797  0.1445
  165MOL0     C22147   7.204   4.468  10.413 -0.8750 -0.3680  0.4016
  165MOL0     O22148   7.189   4.583  10.497 -0.1620 -0.4663  0.1577
  165MOL0     C22149   7.130   4.571  10.619 -0.0761 -0.3458 -0.8743
  165MOL0     C22150   6.988   4.555  10.613  0.6876 -0.4992  0.2361
  165MOL0     C22151   6.914   4.673  10.552  1.0447 -0.2587 -0.4523
  165MOL0     C22152   6.761   4.676  10.588  0.4346 -1.0016  0.2722
  165MOL0     C22153   6.697   4.815  10.551 -0.0462  0.2297 -0.0733
  165MOL0     C22154   6.548   4.798  10.517  0.6451 -0.3635 -0.3368
  165MOL0     C22155   6.468   4.932  10.518  0.1553  0.8983  0.9912
  165MOL0     C22156   6.322   4.908  10.470 -0.5325 -0.8104  0.1556
  165MOL0     N22157   6.311   4.815  10.362 -0.2072  0.7485 -0.4424
  165MOL0     C22158   6.323   4.859  10.236  1.1161 -0.5215 -0.3029
  165MOL0     C22159   6.292   4.746  10.162 -0.2782 -0.2553  0.0725
  165MOL0     C22160   6.279   4.736  10.012  0.0841  0.5125  0.0140
  165MOL0     C22161   6.151   4.804   9.954  0.0033 -0.1202 -0.8676
  165MOL0     C22162   6.182   4.959   9.950  0.4194 -0.0322  0.0172
  165MOL0     C22163   6.087   5.023   9.847 -1.6681  0.7576 -0.3245
  165MOL0     O22164   6.129   5.147   9.808 -0.3532 -0.5654  0.7384
  165MOL0     C22165   6.232   5.179   9.721  0.1527  0.2906 -0.2804
  165MOL0     C22166   6.304   5.090   9.636 -0.5372  0.7160 -0.0795
  165MOL0     C22167   6.412   5.136   9.552  0.6442 -0.7010 -0.6056
  165MOL0     C22168   6.460   5.025   9.466 -0.8197  0.3560  0.3647
  165MOL0     C22169   6.441   5.271   9.538  0.6339  0.2122 -0.3189
  165MOL0     C22170   6.537   5.320   9.433  0.1374 -0.4313 -1.0610
  165MOL0     O22171   6.626   5.237   9.372 -0.1010  1.0742  0.1521
  165MOL0     C22172   6.730   5.294   9.304  0.0586 -1.3433 -0.2162
  165MOL0     C22173   6.861   5.302   9.356  0.3001  0.2221  0.0231
  165MOL0     C22174   6.970   5.357   9.277  0.1937  0.6033  0.2825
  165MOL0     C22175   6.946   5.407   9.152 -1.0619  0.2269  0.4553
  165MOL0     O22176   7.048   5.445   9.066 -0.0662 -0.5394  0.1219
  165MOL0     C22177   7.062   5.591   9.081 -0.5072  0.2176 -1.3581
  165MOL0     C22178   7.203   5.651   9.039 -0.2425  0.3815  0.7401
  165MOL0     C22179   7.226   5.792   8.993 -1.2120  0.6215  0.1510
  165MOL0     C22180   7.376   5.822   8.954  0.1268  0.0670 -0.3387
  165MOL0     C22181   7.386   5.969   8.904 -1.0038 -0.7198  0.1227
  165MOL0     C22182   7.502   5.962   8.804  0.1581  0.8841  0.6774
  165MOL0     C22183   7.536   6.100   8.736  0.3999 -0.3731  0.4994
  165MOL0     C22184   7.679   6.146   8.758 -0.2089  0.4215 -0.0845
  165MOL0    Cl22185   7.713   6.275   8.644  0.1354  0.2670 -0.0755
  165MOL0     C22186   6.819   5.395   9.096  0.3537 -0.0135  0.1435
  165MOL0     C22187   6.706   5.348   9.174 -0.0530  0.5733  0.4331
  165MOL0     O22188   6.517   5.442   9.411 -0.3699 -0.3263  0.2846
  165MOL0     C22189   6.374   5.355   9.624 -0.1627 -1.5829  0.5104
  165MOL0     C22190   6.276   5.307   9.714  0.7740  0.2637 -1.1117
  165MOL0     N22191   6.259   4.643  10.246 -0.1025 -0.1053 -0.0516
  165MOL0     N22192   6.270   4.681  10.369  0.2742 -0.3649  0.0712
  165MOL0     C22193   7.276   4.489  10.292 -0.4920 -0.0087 -0.5134
  165MOL0     C22194   7.310   4.382  10.203  0.0399  0.2792  0.7419
  165MOL0     C22195   7.256   4.077   9.911 -0.1525  0.3507 -1.2731
  165MOL0     C22196   7.356   3.978   9.923 -0.1369 -0.1848 -0.5931
  165MOL0     C22197   7.386   3.897   9.814 -0.9093 -0.0316  1.5721
  165MOL0     C22198   7.319   3.899   9.695 -0.3431  0.2219  0.4125
  165MOL0     O22199   7.338   3.806   9.595  0.6490 -0.4893  0.3301
  165MOL0     C22200   7.473   3.765   9.566  0.4182 -0.5424  0.6382
  165MOL0     C22201   7.503   3.701   9.428 -0.2973  0.3955 -0.2130
  165MOL0     C22202   7.428   3.576   9.393  0.1390 -0.6201  0.7061
  165MOL0     C22203   7.273   3.601   9.385  0.8079  0.2956  0.1327
  165MOL0     C22204   7.203   3.486   9.327  0.2250 -0.1733 -0.2447
  165MOL0     C22205   7.118   3.413   9.270 -0.4325  0.1697 -0.4137
  165MOL0     C22206   7.211   3.990   9.685 -0.2992  0.1139 -0.1352
  165MOL0     C22207   7.180   4.082   9.790 -1.1396 -0.7408 -0.2150
  165MOL0     H22208   7.147   4.135  10.373 -1.8075 -0.3208 -3.7740
  165MOL0     H22209   7.118   4.304  10.531  1.9774 -2.3414  0.9660
  165MOL0     H22210   7.182   4.491  10.673 -1.2211 -2.0742 -2.2301
  165MOL0     H22211   7.156   4.660  10.677 -1.5579  0.0623 -0.8012
  165MOL0     H22212   6.952   4.463  10.566 -0.2333  0.9974 -2.1740
  165MOL0     H22213   6.946   4.538  10.712 -0.3638 -1.5813 -0.3715
  165MOL0     H22214   6.949   4.768  10.593 -0.3308 -0.7058  1.9368
  165MOL0     H22215   6.921   4.664  10.443  0.9393 -0.7786 -0.4151
  165MOL0     H22216   6.715   4.591  10.535  1.6288 -1.0937 -0.6509
  165MOL0     H22217   6.762   4.654  10.695  2.2965  0.7037  0.6521
  165MOL0     H22218   6.713   4.874  10.641  3.2470 -4.9233  3.2785
  165MOL0     H22219   6.742   4.863  10.463 -0.0676  0.2574 -0.0690
  165MOL0     H22220   6.535   4.746  10.422 -3.3264 -2.3890  1.0627
  165MOL0     H22221   6.509   4.732  10.596 -2.3437  1.0070 -0.4989
  165MOL0     H22222   6.478   4.982  10.615  0.2402  2.0587  0.3962
  165MOL0     H22223   6.518   5.005  10.454 -0.2079  0.9932  0.8139
  165MOL0     H22224   6.287   5.006  10.435  0.9771 -0.0720  0.6303
  165MOL0     H22225   6.271   4.879  10.562  0.2302  0.4291  0.9912
  165MOL0     H22226   6.352   4.958  10.200  0.3843 -0.8693 -1.9368
  165MOL0     H22227   6.374   4.773   9.972 -0.2420  2.6348  1.0376
  165MOL0     H22228   6.262   4.631   9.987 -4.5518  1.2835 -0.8578
  165MOL0     H22229   6.075   4.791  10.032  3.3165  1.9797  3.0721
  165MOL0     H22230   6.124   4.766   9.855  1.1985 -3.3306 -0.0937
  165MOL0     H22231   6.277   4.976   9.898  0.1345 -1.1906 -0.9367
  165MOL0     H22232   6.181   5.009  10.047  1.6474 -2.5049  1.4253
  165MOL0     H22233   5.986   5.015   9.887 -1.3668 -2.5444 -0.0103
  165MOL0     H22234   6.086   4.954   9.762  2.4192 -1.4313  1.1640
  165MOL0     H22235   6.287   4.984   9.624  1.0164  0.6209 -1.7970
  165MOL0     H22236   6.442   5.057   9.363 -0.6329  1.8514  0.7728
  165MOL0     H22237   6.568   5.024   9.478 -0.7607  0.9883 -0.0247
  165MOL0     H22238   6.418   4.924   9.470 -0.1665 -0.0569 -1.7593
  165MOL0     H22239   6.896   5.258   9.449  1.8185  0.3879 -0.4529
  165MOL0     H22240   7.064   5.367   9.330  1.8024  3.8434 -2.7923
  165MOL0     H22241   6.991   5.635   9.010  0.2723  0.0186 -2.2793
  165MOL0     H22242   7.032   5.631   9.178  0.4650 -0.0302 -0.9544
  165MOL0     H22243   7.270   5.630   9.123 -0.1393 -1.0918  0.3215
  165MOL0     H22244   7.229   5.587   8.955  2.1228  0.0780  1.6252
  165MOL0     H22245   7.202   5.853   9.081  1.8583 -1.7069  2.8903
  165MOL0     H22246   7.154   5.812   8.914 -0.8880 -2.3435 -0.9983
  165MOL0     H22247   7.440   5.809   9.041  0.5472  1.1147 -0.4846
  165MOL0     H22248   7.417   5.752   8.880 -3.6746 -3.1682  0.2345
  165MOL0     H22249   7.406   6.037   8.987  2.4034 -1.0436 -0.3064
  165MOL0     H22250   7.293   5.996   8.852  1.1511  1.0134 -3.1494
  165MOL0     H22251   7.587   5.915   8.853 -0.0353 -0.4828 -0.2146
  165MOL0     H22252   7.462   5.896   8.726 -0.6183  1.3177  0.6939
  165MOL0     H22253   7.462   6.169   8.778  0.2840 -1.8394  2.9101
  165MOL0     H22254   7.509   6.081   8.632 -1.6802  2.8620  0.3041
  165MOL0     H22255   7.748   6.061   8.754 -2.5661 -1.6612  1.0573
  165MOL0     H22256   7.688   6.186   8.859  2.9145 -1.3656  0.4720
  165MOL0     H22257   6.803   5.406   8.989 -0.6425 -1.5538  0.0995
  165MOL0     H22258   6.610   5.333   9.127  0.6296  1.4804 -1.3629
  165MOL0     H22259   6.395   5.461   9.622  3.3702 -2.0451 -3.8485
  165MOL0     H22260   6.217   5.377   9.773 -0.4876  0.0118 -2.0227
  165MOL0     H22261   7.327   4.584  10.278  2.8470 -1.3797  1.1310
  165MOL0     H22262   7.374   4.400  10.117  0.7433  2.6069  1.6736
  165MOL0     H22263   7.403   3.960  10.019 -1.6610 -1.2561  0.0035
  165MOL0     H22264   7.455   3.815   9.834 -2.9508 -1.9573  1.1443
  165MOL0     H22265   7.537   3.851   9.587  1.3945 -1.4767  1.5918
  165MOL0     H22266   7.500   3.687   9.637 -1.3591 -1.8489 -0.0548
  165MOL0     H22267   7.609   3.674   9.434 -0.8968 -2.0863  0.3974
  165MOL0     H22268   7.482   3.777   9.352 -0.8780  1.1373  0.6725
  165MOL0     H22269   7.437   3.506   9.477 -0.0357 -1.7991 -0.2368
  165MOL0     H22270   7.472   3.538   9.300  1.6499  1.1178  0.6534
  165MOL0     H22271   7.260   3.693   9.327 -0.0319  1.1863  1.6691
  165MOL0     H22272   7.223   3.618   9.480 -0.4345 -1.0800 -0.2354
  165MOL0     H22273   7.042   3.351   9.226  0.0052 -0.0234 -0.9124
  165MOL0     H22274   7.138   3.991   9.604  3.0254  0.8113 -3.4004
  165MOL0     H22275   7.098   4.149   9.769 -0.2071  1.1104  1.6818
  166MOL0     O22276  11.347   2.150   6.766  0.5574  0.5892 -0.8618
  166MOL0     C22277  11.275   2.110   6.860 -0.4689 -0.8063 -0.3014
  166MOL0     O22278  11.221   2.189   6.945 -0.4822 -0.1563  0.0456
  166MOL0     C22279  11.259   2.325   6.952  0.5836 -0.1052  1.6254
  166MOL0     C22280  11.394   2.363   6.947 -0.7178 -0.2044  1.3026
  166MOL0     C22281  11.434   2.500   6.936  0.1375 -0.2629  0.1035
  166MOL0     C22282  11.332   2.601   6.928 -0.4365  0.0712 -0.4500
  166MOL0     O22283  11.367   2.737   6.907  0.3468  0.3672 -0.8351
  166MOL0     C22284  11.422   2.757   6.777  0.7718  0.3064 -0.1410
  166MOL0     C22285  11.572   2.800   6.787 -0.2972 -0.3280 -0.8432
  166MOL0     C22286  11.610   2.874   6.662 -1.5511  0.2886  0.8190
  166MOL0     C22287  11.651   2.768   6.565 -0.6455  0.2800  0.4707
  166MOL0     C22288  11.702   2.847   6.441 -0.0407 -0.3002  0.1318
  166MOL0     C22289  11.791   2.771   6.344  0.0941  0.0457 -0.3321
  166MOL0     C22290  11.825   2.836   6.216 -0.4791  0.0730 -0.0942
  166MOL0     C22291  11.880   2.730   6.120  0.5594 -0.7812  0.7158
  166MOL0     N22292  11.864   2.756   5.980 -0.7898  0.5025 -0.3159
  166MOL0     C22293  11.760   2.741   5.886  0.5425  0.2877 -0.3915
  166MOL0     C22294  11.807   2.790   5.779  0.0996 -0.2697  0.0096
  166MOL0     C22295  11.745   2.795   5.647 -0.2010 -0.0326  1.0151
  166MOL0     C22296  11.675   2.929   5.618  0.4192  0.2812 -0.3219
  166MOL0     C22297  11.574   2.955   5.730 -0.1622 -0.1991  0.2850
  166MOL0     C22298  11.478   3.069   5.691 -0.2667 -0.8282 -0.7705
  166MOL0     O22299  11.419   3.049   5.565  0.8160  0.6300 -0.4212
  166MOL0     C22300  11.340   3.144   5.511 -0.3286 -1.5058 -0.7636
  166MOL0     C22301  11.276   3.111   5.387 -0.9279 -0.5743  0.2662
  166MOL0     C22302  11.195   3.200   5.317  0.4418 -0.1060 -0.5252
  166MOL0     C22303  11.131   3.146   5.191  1.0301  0.1509 -0.2256
  166MOL0     C22304  11.174   3.332   5.370  0.5346  0.2666 -0.5415
  166MOL0     C22305  11.098   3.433   5.303 -0.2038 -0.1575  0.7651
  166MOL0     O22306  11.098   3.561   5.369  0.4774 -0.2377  0.3087
  166MOL0     C22307  11.083   3.672   5.285 -0.7480  0.9006 -0.8060
  166MOL0     C22308  10.949   3.720   5.264  0.8053 -0.3052  0.2245
  166MOL0     C22309  10.929   3.834   5.183 -0.7746 -0.1126  0.0589
  166MOL0     C22310  11.040   3.901   5.116  0.1081 -1.3025  0.1948
  166MOL0     O22311  11.030   4.003   5.029 -0.5421 -0.2110  1.2012
  166MOL0     C22312  10.895   4.031   4.985  0.1447 -0.1111  0.3178
  166MOL0     C22313  10.882   4.128   4.859 -0.4881 -0.7485 -0.0174
  166MOL0     C22314  10.881   4.282   4.882  0.4496  0.1417  0.3214
  166MOL0     C22315  10.759   4.335   4.957 -0.1109 -0.3061  0.0150
  166MOL0     C22316  10.626   4.332   4.881 -0.6270 -0.7136  0.2612
  166MOL0     C22317  10.609   4.453   4.777  0.3991 -0.7905 -0.9670
  166MOL0     C22318  10.493   4.429   4.680 -0.5482  0.0139 -1.0058
  166MOL0     C22319  10.486   4.544   4.579  0.8181  0.9182  0.5203
  166MOL0    Cl22320  10.333   4.524   4.489  0.4959  0.0340 -0.4742
  166MOL0     C22321  11.169   3.852   5.144 -0.2434  1.2023  0.2445
  166MOL0     C22322  11.185   3.739   5.225 -1.0707 -0.3662  0.0962
  166MOL0     O22323  11.062   3.413   5.188  0.0164 -0.9290  0.0874
  166MOL0     C22324  11.222   3.359   5.507  0.8472  0.5504  0.0700
  166MOL0     C22325  11.309   3.270   5.571  0.1165  0.5082  1.2040
  166MOL0     N22326  11.935   2.842   5.804 -0.6247  0.1780  0.0698
  166MOL0     N22327  11.961   2.831   5.919 -0.3058 -0.1273  0.4990
  166MOL0     C22328  11.199   2.568   6.931  0.1437 -0.2476  0.5926
  166MOL0     C22329  11.159   2.430   6.937  0.2900 -1.2612  0.2482
  166MOL0     C22330  11.246   1.964   6.872  0.3062  0.1860  0.1227
  166MOL0     C22331  11.344   1.868   6.840  0.0185 -0.0553 -1.0734
  166MOL0     C22332  11.335   1.740   6.888 -0.2004 -0.3012  0.0290
  166MOL0     C22333  11.226   1.703   6.967  0.6227  0.2611  0.2963
  166MOL0     O22334  11.214   1.583   7.038 -0.1221  0.1969  0.3035
  166MOL0     C22335  11.119   1.503   6.971 -0.0886  1.3365  0.0205
  166MOL0     C22336  11.095   1.369   7.039 -0.0372  0.1409 -0.6124
  166MOL0     C22337  11.020   1.264   6.964  0.3053  0.4555 -0.2418
  166MOL0     C22338  11.086   1.127   6.974 -0.0182 -0.1471 -0.2597
  166MOL0     C22339  10.993   1.027   6.930  0.1130  0.6437 -0.0348
  166MOL0     C22340  10.911   0.940   6.900 -0.2239 -0.9266 -0.1812
  166MOL0     C22341  11.125   1.790   6.993 -0.0106 -1.6663  0.2323
  166MOL0     C22342  11.131   1.922   6.937 -0.0312  1.0568  0.8307
  166MOL0     H22343  11.471   2.287   6.949  0.7150  1.2034  1.4264
  166MOL0     H22344  11.540   2.517   6.921  0.2194  1.0546  1.8868
  166MOL0     H22345  11.422   2.663   6.720  1.0113 -0.9962  1.9315
  166MOL0     H22346  11.365   2.830   6.719 -1.1325 -0.7053  0.3760
  166MOL0     H22347  11.576   2.868   6.873  1.1007 -0.0965 -1.0812
  166MOL0     H22348  11.637   2.716   6.812 -0.7034 -0.6293 -0.7804
  166MOL0     H22349  11.520   2.918   6.617 -2.1394 -2.5710 -1.0945
  166MOL0     H22350  11.686   2.950   6.682 -3.5367  2.1933  1.4799
  166MOL0     H22351  11.724   2.697   6.608  0.3444  1.0263  0.0577
  166MOL0     H22352  11.567   2.711   6.523  0.5764 -0.2859 -1.3410
  166MOL0     H22353  11.620   2.890   6.382  0.1074 -1.2250 -0.7620
  166MOL0     H22354  11.762   2.930   6.481 -0.9742  0.1805  0.5795
  166MOL0     H22355  11.885   2.761   6.400 -0.8749  1.5797  1.6883
  166MOL0     H22356  11.736   2.678   6.326 -1.8606  0.8692  1.0386
  166MOL0     H22357  11.739   2.894   6.181  2.1520  3.6212 -1.3007
  166MOL0     H22358  11.903   2.911   6.233  0.2046 -0.6987  0.2450
  166MOL0     H22359  11.819   2.639   6.120 -1.6367  0.2848 -4.6678
  166MOL0     H22360  11.986   2.717   6.143  1.1798  0.1685 -1.3216
  166MOL0     H22361  11.666   2.691   5.904  0.9585 -0.2880  0.2243
  166MOL0     H22362  11.831   2.809   5.582 -3.4683  4.6543 -3.1116
  166MOL0     H22363  11.681   2.710   5.623 -1.7331  1.3040  0.1178
  166MOL0     H22364  11.626   2.938   5.521 -1.0761  2.0416  0.5417
  166MOL0     H22365  11.737   3.019   5.618 -0.7175  1.0887  0.5404
  166MOL0     H22366  11.634   2.969   5.821  0.0981  0.8831 -0.0385
  166MOL0     H22367  11.511   2.866   5.734 -1.7043  0.8917  1.4018
  166MOL0     H22368  11.534   3.162   5.687 -5.3294  2.8037  1.8999
  166MOL0     H22369  11.397   3.077   5.765  0.3205 -1.4350 -0.0381
  166MOL0     H22370  11.296   3.017   5.337 -0.3330  0.5431 -1.6875
  166MOL0     H22371  11.141   3.037   5.189  0.9081  0.0475  2.3329
  166MOL0     H22372  11.026   3.174   5.188  0.9422 -0.2151 -2.6129
  166MOL0     H22373  11.165   3.182   5.093 -1.7900 -1.5964 -1.9832
  166MOL0     H22374  10.867   3.670   5.315 -1.1845  2.4131 -0.1005
  166MOL0     H22375  10.826   3.867   5.186 -0.8463 -0.3278  0.0126
  166MOL0     H22376  10.846   3.937   4.957  0.8160 -0.1336 -0.8413
  166MOL0     H22377  10.850   4.072   5.076 -1.4371 -0.6577 -0.1931
  166MOL0     H22378  10.970   4.111   4.795  1.0908  2.4317  1.0921
  166MOL0     H22379  10.787   4.097   4.814 -1.6842  1.0185  1.1624
  166MOL0     H22380  10.877   4.343   4.791 -0.5886  0.0965  0.3230
  166MOL0     H22381  10.962   4.313   4.949  0.6161 -0.1109  0.2382
  166MOL0     H22382  10.751   4.281   5.052  1.3264 -0.7213 -0.0792
  166MOL0     H22383  10.773   4.438   4.992  0.5413 -0.3233 -0.1875
  166MOL0     H22384  10.550   4.335   4.960 -2.2651  3.3960 -1.1915
  166MOL0     H22385  10.618   4.238   4.825  1.6028 -2.2975  2.4122
  166MOL0     H22386  10.587   4.550   4.822 -0.8359 -0.9237 -1.2470
  166MOL0     H22387  10.707   4.465   4.730 -0.0527 -0.5443 -1.8775
  166MOL0     H22388  10.408   4.422   4.749  1.4135  0.1726  1.5658
  166MOL0     H22389  10.510   4.332   4.634 -0.0953  0.3300 -1.5053
  166MOL0     H22390  10.576   4.557   4.519  0.9166  1.6711  0.8124
  166MOL0     H22391  10.473   4.639   4.632 -2.7146  0.5131  0.6165
  166MOL0     H22392  11.247   3.891   5.079 -0.1023 -0.1659 -0.4460
  166MOL0     H22393  11.280   3.693   5.250 -2.2692 -1.6096  2.7896
  166MOL0     H22394  11.192   3.455   5.549 -0.8635 -0.5458  1.4713
  166MOL0     H22395  11.334   3.287   5.675 -1.0050  1.7752  1.2967
  166MOL0     H22396  11.118   2.637   6.909 -0.8776 -2.0908 -1.8261
  166MOL0     H22397  11.055   2.403   6.927 -0.2776  0.3753  1.3381
  166MOL0     H22398  11.431   1.905   6.787  0.7610 -0.6716 -0.3243
  166MOL0     H22399  11.405   1.660   6.867 -1.4306 -2.1698  2.4880
  166MOL0     H22400  11.035   1.569   6.951 -0.7047  1.0826  1.6504
  166MOL0     H22401  11.159   1.470   6.874  3.7754  2.8754  0.9008
  166MOL0     H22402  11.021   1.392   7.116  1.2189 -0.7421  0.8898
  166MOL0     H22403  11.185   1.338   7.092  1.9593  1.9595 -2.7357
  166MOL0     H22404  10.997   1.284   6.859 -3.0287 -0.8835  0.1122
  166MOL0     H22405  10.921   1.265   7.012  0.4762 -2.3850  0.3327
  166MOL0     H22406  11.109   1.116   7.081 -0.4706 -1.0945 -0.2558
  166MOL0     H22407  11.180   1.116   6.920  0.6064 -0.1798  0.8051
  166MOL0     H22408  10.840   0.881   6.846 -0.6759 -1.1873  0.6725
  166MOL0     H22409  11.048   1.757   7.062  1.3246 -1.2091  1.9939
  166MOL0     H22410  11.057   1.989   6.980  0.7691  1.3516  1.7956
  167MOL0     O22411   6.669  10.102   7.582  0.2215 -0.2885  0.0575
  167MOL0     C22412   6.707  10.192   7.511 -0.0280 -0.4258 -0.2454
  167MOL0     O22413   6.839  10.220   7.485  0.3531 -0.3890  0.1835
  167MOL0     C22414   6.930  10.133   7.541 -0.3819 -0.6932 -0.3013
  167MOL0     C22415   6.949  10.004   7.497 -0.8830  0.4801 -1.0767
  167MOL0     C22416   7.056   9.930   7.562 -0.0313 -0.7044  1.1915
  167MOL0     C22417   7.119   9.981   7.678 -0.6308  1.1896 -0.7555
  167MOL0     O22418   7.227   9.909   7.724  0.8115  0.1522  0.3770
  167MOL0     C22419   7.202   9.774   7.776  0.3559  0.5504 -0.9632
  167MOL0     C22420   7.323   9.735   7.853 -0.5923 -0.2780 -0.0030
  167MOL0     C22421   7.298   9.769   7.997  0.4113 -0.1776 -0.0177
  167MOL0     C22422   7.427   9.751   8.082 -0.0925  0.4544 -0.4013
  167MOL0     C22423   7.468   9.603   8.131  0.6906  0.2639  0.3002
  167MOL0     C22424   7.603   9.597   8.201 -1.2464  0.4194 -0.0762
  167MOL0     C22425   7.648   9.460   8.229  0.0982  0.3192 -0.0296
  167MOL0     C22426   7.553   9.409   8.342 -0.8239  0.1896 -0.1923
  167MOL0     N22427   7.604   9.285   8.404  0.1901  0.4614 -0.4852
  167MOL0     C22428   7.731   9.272   8.462 -0.1425 -0.1886 -0.0322
  167MOL0     C22429   7.722   9.153   8.526  0.4838 -0.8194 -0.1083
  167MOL0     C22430   7.810   9.112   8.641 -0.0207  0.1132 -0.4932
  167MOL0     C22431   7.937   9.040   8.597 -0.5475 -0.1899  0.3229
  167MOL0     C22432   7.997   8.973   8.728  0.2585 -0.4274 -0.3286
  167MOL0     C22433   8.126   8.891   8.718  0.1965  0.2773 -0.8726
  167MOL0     O22434   8.176   8.875   8.853 -0.2311  0.8101  0.3185
  167MOL0     C22435   8.289   8.792   8.866  0.7792 -1.4234 -0.1519
  167MOL0     C22436   8.333   8.798   8.999  0.5731 -0.0649 -0.7751
  167MOL0     C22437   8.448   8.737   9.037 -1.0116 -0.6406 -0.9335
  167MOL0     C22438   8.475   8.751   9.188  0.1704 -0.2170  0.5323
  167MOL0     C22439   8.523   8.665   8.934 -0.5738  0.2676 -0.0218
  167MOL0     C22440   8.641   8.577   8.961 -0.3487 -0.9292  0.2301
  167MOL0     O22441   8.688   8.513   8.851  0.1057  0.0113  0.1009
  167MOL0     C22442   8.784   8.408   8.865  0.0646  0.1511 -0.4563
  167MOL0     C22443   8.897   8.402   8.789 -0.5941 -1.0165 -0.2939
  167MOL0     C22444   9.005   8.307   8.823  0.3575  0.1956 -0.0905
  167MOL0     C22445   8.989   8.209   8.918 -0.2169 -0.6647 -0.6857
  167MOL0     O22446   9.089   8.114   8.930 -0.1023  0.3831 -0.2030
  167MOL0     C22447   9.082   8.024   9.043 -0.0621  0.8398 -0.6380
  167MOL0     C22448   9.166   7.903   9.031 -0.5212  0.0241 -0.0717
  167MOL0     C22449   9.134   7.799   9.133  0.4857  0.1443 -0.1301
  167MOL0     C22450   9.182   7.654   9.099  0.1753  1.2396  0.1059
  167MOL0     C22451   9.170   7.563   9.228  0.1174 -0.7941  0.7800
  167MOL0     C22452   9.185   7.415   9.209  0.5514  0.4048  0.9420
  167MOL0     C22453   9.129   7.339   9.331 -0.0725  0.0871  0.6868
  167MOL0     C22454   9.078   7.198   9.310 -0.1143 -0.1144  0.1099
  167MOL0    Cl22455   9.193   7.075   9.253 -0.7146  0.2476 -0.0942
  167MOL0     C22456   8.866   8.215   8.990  0.1057 -0.5084  0.2249
  167MOL0     C22457   8.765   8.306   8.961  0.2387 -0.1350 -0.1237
  167MOL0     O22458   8.675   8.555   9.077 -0.6789  0.5499  0.1662
  167MOL0     C22459   8.473   8.659   8.799 -0.4055 -0.2868 -0.3134
  167MOL0     C22460   8.358   8.729   8.766  0.3162 -0.8455 -1.4928
  167MOL0     N22461   7.600   9.096   8.511  0.0308  0.7597  0.6914
  167MOL0     N22462   7.530   9.176   8.441  0.1791  0.3890  0.7601
  167MOL0     C22463   7.089  10.111   7.730  0.5147  1.2014 -1.2497
  167MOL0     C22464   6.997  10.184   7.653 -0.3339  0.3621 -0.3483
  167MOL0     C22465   6.613  10.274   7.429 -0.1255  1.0787 -0.1707
  167MOL0     C22466   6.474  10.268   7.457 -0.3951 -0.4225 -0.0202
  167MOL0     C22467   6.389  10.356   7.386  0.2128  1.3701  0.4105
  167MOL0     C22468   6.429  10.442   7.280  0.9456 -0.6882 -0.3375
  167MOL0     O22469   6.329  10.510   7.215 -0.2253  0.6582 -0.4032
  167MOL0     C22470   6.355  10.596   7.104 -0.6404  0.8153  0.3210
  167MOL0     C22471   6.251  10.610   6.992  0.4783  0.0734  0.9129
  167MOL0     C22472   6.195  10.471   6.946  0.3610  0.1197  0.0614
  167MOL0     C22473   6.106  10.489   6.819  1.7870 -0.2508  0.0402
  167MOL0     C22474   6.063  10.360   6.761 -0.2861 -0.3467 -0.6431
  167MOL0     C22475   6.022  10.261   6.709  0.9169  0.2818  0.6353
  167MOL0     C22476   6.570  10.443   7.253 -0.3636  0.4445 -0.6332
  167MOL0     C22477   6.655  10.362   7.327 -0.1253 -0.3109  0.0766
  167MOL0     H22478   6.876   9.970   7.426 -0.1891  0.2111 -1.6750
  167MOL0     H22479   7.103   9.836   7.537 -0.4940 -0.8637  0.9165
  167MOL0     H22480   7.112   9.769   7.838  0.2281  0.6929 -1.1376
  167MOL0     H22481   7.184   9.702   7.697 -3.5065 -1.9507  1.8490
  167MOL0     H22482   7.341   9.628   7.838  2.2492  0.3286 -1.8976
  167MOL0     H22483   7.413   9.784   7.815  1.2705 -1.8545  2.1144
  167MOL0     H22484   7.270   9.875   8.002 -0.6303 -0.4972  2.7423
  167MOL0     H22485   7.215   9.712   8.039 -1.6175  1.5126 -1.5369
  167MOL0     H22486   7.513   9.787   8.025 -0.6401 -0.1816 -1.6693
  167MOL0     H22487   7.409   9.815   8.170  2.5554 -0.2513  0.7582
  167MOL0     H22488   7.382   9.562   8.185  2.4267 -4.3208 -0.0196
  167MOL0     H22489   7.480   9.523   8.058 -0.0883 -3.5852  3.9917
  167MOL0     H22490   7.683   9.621   8.130 -3.3212  1.3557 -2.2604
  167MOL0     H22491   7.609   9.679   8.272  1.1181  0.3238 -0.0896
  167MOL0     H22492   7.654   9.391   8.145  0.9242  1.5357 -1.0119
  167MOL0     H22493   7.750   9.467   8.269 -0.4401 -2.2121  2.0889
  167MOL0     H22494   7.457   9.386   8.296 -0.8869  0.7708 -0.3541
  167MOL0     H22495   7.541   9.486   8.418 -1.4528  0.9515 -1.0441
  167MOL0     H22496   7.806   9.351   8.462 -1.9914  1.6407  0.4964
  167MOL0     H22497   7.826   9.206   8.694 -3.2384  0.0035  0.8825
  167MOL0     H22498   7.744   9.061   8.711 -1.8674  3.7253  0.6801
  167MOL0     H22499   8.008   9.095   8.534  0.7256 -1.2590  0.7801
  167MOL0     H22500   7.908   8.954   8.536  0.4408  0.0347 -0.4956
  167MOL0     H22501   7.927   8.907   8.781  0.1313 -0.9021 -1.0612
  167MOL0     H22502   8.026   9.049   8.800  3.0969 -2.1657  0.5437
  167MOL0     H22503   8.189   8.951   8.652  0.9674  1.2825  0.7073
  167MOL0     H22504   8.099   8.792   8.679  1.6303  1.4633 -5.5662
  167MOL0     H22505   8.274   8.841   9.079  0.3059 -3.0336  0.7761
  167MOL0     H22506   8.519   8.659   9.227  1.1319  0.4092  0.9575
  167MOL0     H22507   8.525   8.845   9.213 -0.6719 -0.0300  1.6090
  167MOL0     H22508   8.391   8.745   9.258 -0.5001 -3.7707 -0.3654
  167MOL0     H22509   8.910   8.471   8.707 -1.8369  0.3514  0.6121
  167MOL0     H22510   9.099   8.309   8.769  0.0677  0.9352 -0.5852
  167MOL0     H22511   9.109   8.071   9.137  0.1267 -1.6482  0.6167
  167MOL0     H22512   8.977   7.993   9.054  0.2230  0.8408  2.9637
  167MOL0     H22513   9.153   7.872   8.927 -0.2810 -0.0915 -0.0679
  167MOL0     H22514   9.274   7.923   9.030 -0.0488 -1.8531 -3.7779
  167MOL0     H22515   9.026   7.788   9.149  0.8379  0.3074  2.9563
  167MOL0     H22516   9.171   7.832   9.231 -0.7702  2.0447 -0.2462
  167MOL0     H22517   9.127   7.607   9.017  0.9885  1.9047 -0.8355
  167MOL0     H22518   9.284   7.648   9.060  1.0917  1.2908  2.3596
  167MOL0     H22519   9.067   7.587   9.257 -0.2085 -1.0748 -0.1313
  167MOL0     H22520   9.231   7.597   9.312  1.2567 -2.5685  0.7217
  167MOL0     H22521   9.133   7.386   9.117  1.9241 -1.5956  0.7490
  167MOL0     H22522   9.288   7.387   9.188  1.7479  2.2234  3.7854
  167MOL0     H22523   9.051   7.405   9.371 -0.7089  2.4323 -3.7202
  167MOL0     H22524   9.200   7.332   9.413 -0.1545 -1.2325  0.6541
  167MOL0     H22525   8.996   7.192   9.239 -0.2991 -3.6688  0.4489
  167MOL0     H22526   9.039   7.152   9.401 -2.2919 -1.2001 -1.2936
  167MOL0     H22527   8.834   8.158   9.076  0.6479  1.3475  1.7197
  167MOL0     H22528   8.680   8.303   9.028  1.4329  0.5518  1.5007
  167MOL0     H22529   8.518   8.604   8.717  2.4220  1.8882 -0.4030
  167MOL0     H22530   8.340   8.746   8.660 -0.3729  0.3276 -1.2059
  167MOL0     H22531   7.142  10.152   7.815 -0.4686 -0.5968  0.3063
  167MOL0     H22532   6.973  10.282   7.694  0.0756  0.3489 -0.0747
  167MOL0     H22533   6.449  10.207   7.543 -0.4425 -0.8651 -0.3461
  167MOL0     H22534   6.281  10.346   7.396  0.4188 -0.5873  1.0983
  167MOL0     H22535   6.376  10.701   7.126  0.1334  0.4283  1.5506
  167MOL0     H22536   6.444  10.553   7.055 -0.1684 -0.9687  2.5678
  167MOL0     H22537   6.292  10.677   6.916  3.5608 -1.1814  1.3141
  167MOL0     H22538   6.164  10.663   7.031 -1.2639 -1.7249 -0.3358
  167MOL0     H22539   6.137  10.424   7.026  0.0201  1.1530  0.4317
  167MOL0     H22540   6.283  10.412   6.917  1.8463  3.0121 -1.8002
  167MOL0     H22541   6.151  10.555   6.745 -1.1096 -1.3975 -3.0333
  167MOL0     H22542   6.018  10.545   6.852  2.2011 -1.2173  3.1905
  167MOL0     H22543   6.012  10.167   6.660  1.8360 -0.4006  1.6961
  167MOL0     H22544   6.625  10.513   7.190  0.5409  0.1007 -0.2394
  167MOL0     H22545   6.760  10.374   7.304  0.3080  1.4687  2.5663
  168MOL0     O22546   4.688   0.654  10.235  0.6475  0.0172  0.1344
  168MOL0     C22547   4.597   0.733  10.248  0.6244 -0.9199 -0.2786
  168MOL0     O22548   4.462   0.699  10.271  0.1709  0.5436 -0.7626
  168MOL0     C22549   4.431   0.573  10.307  0.5935 -0.5584 -0.2816
  168MOL0     C22550   4.496   0.519  10.423 -0.0107 -0.8097 -0.1553
  168MOL0     C22551   4.460   0.394  10.466  0.2095 -0.1527  0.8182
  168MOL0     C22552   4.348   0.326  10.420 -0.1167  0.5532  0.4137
  168MOL0     O22553   4.311   0.215  10.479 -0.7554  0.5434 -0.3554
  168MOL0     C22554   4.246   0.104  10.403  0.5864 -0.5525 -0.2666
  168MOL0     C22555   4.281  -0.028  10.468  0.0277 -0.7554 -0.6046
  168MOL0     C22556   4.218  -0.050  10.604  0.3487  0.4432 -0.2165
  168MOL0     C22557   4.274  -0.171  10.687  0.6533 -0.0899  0.5548
  168MOL0     C22558   4.217  -0.195  10.820  0.4212 -0.6384  0.1106
  168MOL0     C22559   4.063  -0.211  10.803  0.5970  0.5971  0.1788
  168MOL0     C22560   4.012  -0.326  10.896  0.3710  0.2160 -0.1439
  168MOL0     C22561   4.019  -0.279  11.042 -0.6859  0.4439 -0.0772
  168MOL0     N22562   3.917  -0.184  11.077  0.7697 -0.4117 -0.2014
  168MOL0     C22563   3.928  -0.052  11.077  0.0687 -0.2879 -0.1221
  168MOL0     C22564   3.809   0.006  11.081 -0.0755 -0.1561  0.9183
  168MOL0     C22565   3.775   0.150  11.076 -0.0900 -0.3766  0.2723
  168MOL0     C22566   3.734   0.181  10.931 -0.4444 -0.2169  0.1061
  168MOL0     C22567   3.757   0.335  10.918  0.2425  0.4319  0.3774
  168MOL0     C22568   3.721   0.414  10.791 -0.9801  0.1748  0.0535
  168MOL0     O22569   3.592   0.367  10.735  0.0555  0.4251 -0.3770
  168MOL0     C22570   3.537   0.431  10.623  0.5761  0.5413 -0.4715
  168MOL0     C22571   3.608   0.516  10.539 -0.2417  0.2516 -1.0260
  168MOL0     C22572   3.545   0.581  10.435 -0.8406 -0.9522 -0.1409
  168MOL0     C22573   3.624   0.691  10.346 -0.5419 -0.2447  0.5939
  168MOL0     C22574   3.408   0.550  10.404  0.0642 -0.9272  0.0400
  168MOL0     C22575   3.335   0.617  10.296  0.1966 -0.2311  0.0078
  168MOL0     O22576   3.267   0.535  10.212  0.7698  0.8895  0.2196
  168MOL0     C22577   3.182   0.587  10.116 -0.3029  1.1305 -0.4270
  168MOL0     C22578   3.247   0.646  10.009  0.2076 -0.4094  0.7010
  168MOL0     C22579   3.170   0.706   9.909  0.2915 -0.3220  0.4152
  168MOL0     C22580   3.030   0.698   9.915 -0.0439  0.1855 -0.7266
  168MOL0     O22581   2.954   0.763   9.818 -0.1554  0.2266  0.4037
  168MOL0     C22582   2.992   0.774   9.675 -0.4485  0.8468 -1.1452
  168MOL0     C22583   2.882   0.849   9.600  0.2202 -0.4212 -0.1827
  168MOL0     C22584   2.911   0.869   9.442  0.3808 -0.5920  0.2768
  168MOL0     C22585   2.802   0.945   9.370 -0.0845 -0.1996 -0.2734
  168MOL0     C22586   2.847   0.986   9.217 -0.5031  0.0158 -0.3871
  168MOL0     C22587   2.724   1.026   9.145 -0.1452  0.2363 -0.4658
  168MOL0     C22588   2.742   1.070   9.010 -0.2197  0.9990  0.3307
  168MOL0     C22589   2.649   1.181   8.961 -1.4034 -0.2320 -0.2804
  168MOL0    Cl22590   2.710   1.260   8.811  0.3157  0.0955 -0.2858
  168MOL0     C22591   2.963   0.617  10.014  0.2815 -0.5602  0.3929
  168MOL0     C22592   3.040   0.570  10.121 -0.5110  1.1877  0.2174
  168MOL0     O22593   3.335   0.740  10.296 -0.6079  0.5534 -0.5383
  168MOL0     C22594   3.341   0.460  10.483 -0.0880 -0.7511  0.3013
  168MOL0     C22595   3.405   0.403  10.592  0.5704  0.0848 -0.4829
  168MOL0     N22596   3.715  -0.098  11.082 -0.0057  0.0095 -0.0726
  168MOL0     N22597   3.781  -0.212  11.089 -0.0839  0.5415 -0.2904
  168MOL0     C22598   4.280   0.382  10.309 -0.0469  0.0558  0.5828
  168MOL0     C22599   4.326   0.499  10.246  0.5795 -0.2101  0.6691
  168MOL0     C22600   4.627   0.872  10.219  0.2979  0.0918 -1.3463
  168MOL0     C22601   4.533   0.976  10.240 -0.0911 -0.4448  0.2639
  168MOL0     C22602   4.557   1.114  10.216  0.7289  0.8045  0.0344
  168MOL0     C22603   4.683   1.143  10.168 -0.1345 -0.4907 -0.6020
  168MOL0     O22604   4.691   1.280  10.144 -0.2627 -0.0576  0.0433
  168MOL0     C22605   4.806   1.334  10.079  0.1723  0.5887  0.6884
  168MOL0     C22606   4.919   1.331  10.183 -0.1078  0.2868 -0.1641
  168MOL0     C22607   4.899   1.436  10.297 -0.2284  0.6641 -0.0712
  168MOL0     C22608   4.850   1.569  10.243 -0.2138  0.6552  0.0990
  168MOL0     C22609   4.931   1.651  10.152 -0.0791 -1.0612  0.4376
  168MOL0     C22610   5.002   1.731  10.090 -0.1516 -0.7230 -0.1445
  168MOL0     C22611   4.782   1.047  10.146  0.2572 -0.2072 -0.2867
  168MOL0     C22612   4.750   0.911  10.161  0.5694 -0.7560  0.9553
  168MOL0     H22613   4.584   0.561  10.470  1.0384 -1.9552 -1.0264
  168MOL0     H22614   4.514   0.347  10.547 -4.0772 -0.2483  4.0117
  168MOL0     H22615   4.138   0.119  10.395  0.7939 -0.3059 -4.9280
  168MOL0     H22616   4.281   0.105  10.300  2.0705 -2.2850  0.1814
  168MOL0     H22617   4.245  -0.108  10.402  1.2546 -1.2320 -0.7235
  168MOL0     H22618   4.390  -0.032  10.474 -0.0317 -0.2614  3.1844
  168MOL0     H22619   4.223   0.040  10.665  0.0303  0.2121  0.1593
  168MOL0     H22620   4.111  -0.069  10.589  0.0559 -2.3424  3.7327
  168MOL0     H22621   4.258  -0.250  10.614  4.9765  0.8305 -1.6893
  168MOL0     H22622   4.383  -0.161  10.683  0.4956  1.5778 -2.8945
  168MOL0     H22623   4.270  -0.283  10.858  0.2010 -0.8213 -0.0065
  168MOL0     H22624   4.241  -0.110  10.885  3.9340 -1.5910  0.2470
  168MOL0     H22625   4.014  -0.116  10.823  1.7851  1.2975 -0.1199
  168MOL0     H22626   4.037  -0.234  10.699  1.1572 -0.0206  0.1709
  168MOL0     H22627   3.912  -0.355  10.865 -1.0459  4.7969 -0.6146
  168MOL0     H22628   4.076  -0.413  10.881 -1.8187 -1.6345  0.6949
  168MOL0     H22629   4.117  -0.237  11.069  1.1178 -2.5812 -1.4293
  168MOL0     H22630   4.004  -0.371  11.098  1.9142 -0.4015 -0.6455
  168MOL0     H22631   4.022   0.003  11.072 -0.1374  0.1885  0.9714
  168MOL0     H22632   3.698   0.173  11.151  1.8063  2.9318  1.4235
  168MOL0     H22633   3.864   0.210  11.095 -0.7073  0.9894 -0.9914
  168MOL0     H22634   3.627   0.161  10.915 -0.5284 -0.8319  1.3760
  168MOL0     H22635   3.794   0.133  10.853 -2.0266 -0.0582 -1.2948
  168MOL0     H22636   3.861   0.350  10.950  0.5990 -2.1812  0.6829
  168MOL0     H22637   3.702   0.383  11.000 -1.1300  1.2041 -0.9578
  168MOL0     H22638   3.801   0.404  10.717 -0.5702 -4.2554  0.8496
  168MOL0     H22639   3.719   0.521  10.814 -1.4361  0.1764  0.0271
  168MOL0     H22640   3.710   0.541  10.566 -0.4175 -0.0982 -0.0069
  168MOL0     H22641   3.696   0.633  10.288 -0.8239 -0.9038  0.8990
  168MOL0     H22642   3.572   0.754  10.274 -0.0234 -1.6491 -1.0639
  168MOL0     H22643   3.685   0.757  10.409 -1.8299  0.7952  0.7908
  168MOL0     H22644   3.354   0.660  10.014  0.2197  0.0543 -0.6395
  168MOL0     H22645   3.221   0.769   9.837  2.5367  1.5884  3.4952
  168MOL0     H22646   3.089   0.817   9.652 -0.2479  3.6397  3.6168
  168MOL0     H22647   3.006   0.675   9.629  1.8920  0.9577 -0.7805
  168MOL0     H22648   2.799   0.780   9.615  1.9956 -2.1481  2.7138
  168MOL0     H22649   2.868   0.948   9.645  4.3806  1.4992 -2.4824
  168MOL0     H22650   2.922   0.769   9.399  1.1242 -0.9468  1.2377
  168MOL0     H22651   3.000   0.928   9.418  1.0001 -2.2579 -1.7931
  168MOL0     H22652   2.721   0.873   9.353  0.6471 -0.4955 -3.1708
  168MOL0     H22653   2.773   1.034   9.425  0.7554 -1.6426  2.6989
  168MOL0     H22654   2.900   0.906   9.165  0.6213  0.5223 -0.0481
  168MOL0     H22655   2.913   1.073   9.222  0.3051 -0.6647  1.4490
  168MOL0     H22656   2.653   0.944   9.135 -0.0387  0.0018  0.5688
  168MOL0     H22657   2.684   1.110   9.204  0.4486  0.1172  0.1295
  168MOL0     H22658   2.722   0.977   8.955  1.1600 -1.2587  3.3392
  168MOL0     H22659   2.841   1.108   8.986 -0.5860  1.9525  0.3018
  168MOL0     H22660   2.634   1.262   9.032 -2.7050 -0.0932 -0.6915
  168MOL0     H22661   2.551   1.142   8.934 -0.8050  0.0568 -3.2267
  168MOL0     H22662   2.856   0.601  10.020 -0.1047  1.5946 -0.0274
  168MOL0     H22663   2.985   0.524  10.202 -0.5177  1.0752  0.1480
  168MOL0     H22664   3.237   0.436  10.462 -0.5839 -1.2989  3.0409
  168MOL0     H22665   3.364   0.320  10.648  4.6750 -3.2448 -1.9015
  168MOL0     H22666   4.185   0.338  10.284  0.5485 -1.9221  1.5710
  168MOL0     H22667   4.263   0.548  10.172 -0.9910  1.8548  3.1855
  168MOL0     H22668   4.434   0.956  10.279 -1.2343  3.7748  0.0127
  168MOL0     H22669   4.483   1.188  10.244 -0.1002  0.1843 -0.4591
  168MOL0     H22670   4.843   1.273   9.996 -0.8990  0.9893 -0.1012
  168MOL0     H22671   4.787   1.432  10.035  3.3986 -0.1594 -2.9406
  168MOL0     H22672   5.015   1.340  10.132  0.7596 -2.5218  0.8296
  168MOL0     H22673   4.928   1.233  10.231 -1.2577 -0.0390 -0.5841
  168MOL0     H22674   4.993   1.438  10.355 -1.8594 -1.9118  3.0414
  168MOL0     H22675   4.832   1.389  10.370 -1.4647  1.1942 -0.8503
  168MOL0     H22676   4.835   1.631  10.332 -1.2417  1.2368 -0.4638
  168MOL0     H22677   4.749   1.557  10.204 -0.5470 -0.6258  1.2795
  168MOL0     H22678   5.075   1.792  10.042 -2.2176  3.4194  1.5480
  168MOL0     H22679   4.882   1.054  10.104  0.8469 -4.5171 -0.0887
  168MOL0     H22680   4.831   0.840  10.148  1.6553  0.7194 -0.8642
  169MOL0     O22681   6.778   9.207   1.752 -0.3483 -0.2748  0.9235
  169MOL0     C22682   6.711   9.136   1.827 -0.0284 -0.1989 -0.0660
  169MOL0     O22683   6.580   9.152   1.854 -0.5514 -0.1532  0.2403
  169MOL0     C22684   6.518   9.271   1.849  0.5012  0.7315  0.4446
  169MOL0     C22685   6.494   9.332   1.727  0.4030 -0.3031 -0.0467
  169MOL0     C22686   6.435   9.455   1.716 -0.4467  0.7794  0.5518
  169MOL0     C22687   6.380   9.517   1.833 -0.7900 -0.2442  0.3977
  169MOL0     O22688   6.308   9.637   1.831 -0.8617 -0.3295  0.1056
  169MOL0     C22689   6.294   9.688   1.695  0.0430  0.2728  0.2816
  169MOL0     C22690   6.194   9.809   1.711  0.1786  0.1609  0.4155
  169MOL0     C22691   6.132   9.844   1.577 -0.0862 -0.0528 -0.0614
  169MOL0     C22692   6.038   9.970   1.590  0.7310 -0.2291  0.4978
  169MOL0     C22693   5.959   9.976   1.454 -0.0835 -0.4089 -0.7778
  169MOL0     C22694   5.864  10.105   1.467  0.0224  0.2669 -0.1145
  169MOL0     C22695   5.765  10.107   1.347  0.0991 -1.3311  0.1721
  169MOL0     C22696   5.710  10.249   1.313 -0.5065  0.5394  0.0228
  169MOL0     N22697   5.688  10.264   1.171 -0.5300  0.1589 -0.4412
  169MOL0     C22698   5.571  10.280   1.110 -0.4389  0.5587 -1.0418
  169MOL0     C22699   5.609  10.308   0.981 -0.9292  0.1535  0.4997
  169MOL0     C22700   5.507  10.322   0.866  0.5790 -1.0108 -0.8064
  169MOL0     C22701   5.435  10.190   0.843  0.2717 -1.1914  0.5937
  169MOL0     C22702   5.408  10.181   0.690  0.1561 -0.8750 -0.2497
  169MOL0     C22703   5.380  10.038   0.659 -0.4060  0.6761  0.0867
  169MOL0     O22704   5.504   9.971   0.657  0.3806  0.6633 -0.3572
  169MOL0     C22705   5.493   9.837   0.684 -0.0430 -0.4275  0.0531
  169MOL0     C22706   5.571   9.780   0.780  0.8107  0.2383  0.1784
  169MOL0     C22707   5.569   9.644   0.820 -0.6258  0.5404  0.0888
  169MOL0     C22708   5.682   9.607   0.914  0.3576  0.2413  0.4063
  169MOL0     C22709   5.490   9.552   0.748  0.4927 -0.1589  0.3634
  169MOL0     C22710   5.479   9.406   0.776 -0.5006 -0.2496  0.1903
  169MOL0     O22711   5.518   9.369   0.902  1.0150 -0.1281  0.4444
  169MOL0     C22712   5.476   9.243   0.934 -0.2980 -0.3156 -0.0446
  169MOL0     C22713   5.567   9.137   0.933 -0.1256 -0.2323  0.2569
  169MOL0     C22714   5.524   9.014   0.988 -0.3813 -0.1125  0.3171
  169MOL0     C22715   5.396   9.002   1.035  0.4733 -0.2693 -0.6147
  169MOL0     O22716   5.382   8.874   1.094 -0.7497 -0.5153 -0.4101
  169MOL0     C22717   5.262   8.811   1.108  0.2970  0.1565  0.1651
  169MOL0     C22718   5.263   8.688   1.202 -0.1723 -0.3982 -0.5570
  169MOL0     C22719   5.125   8.636   1.217  0.3878  0.8223  0.4949
  169MOL0     C22720   5.108   8.521   1.324  0.5753  0.1658 -0.8719
  169MOL0     C22721   4.989   8.532   1.427 -0.2883 -0.1067 -0.1401
  169MOL0     C22722   5.005   8.436   1.544  1.0415  1.1608 -0.2552
  169MOL0     C22723   4.868   8.398   1.616 -0.2509 -0.0388  0.0802
  169MOL0     C22724   4.766   8.297   1.551 -0.5195 -0.1409 -0.1958
  169MOL0    Cl22725   4.683   8.369   1.420  0.3886 -0.2372  0.2733
  169MOL0     C22726   5.305   9.108   1.040  0.2790 -0.3329  1.5371
  169MOL0     C22727   5.349   9.228   0.982  0.5049  0.0718  0.0589
  169MOL0     O22728   5.454   9.331   0.686 -0.2150  0.8243 -0.5382
  169MOL0     C22729   5.404   9.604   0.645  0.5387 -0.0446  0.3377
  169MOL0     C22730   5.413   9.748   0.607  0.5336  1.0388 -0.5321
  169MOL0     N22731   5.749  10.312   0.969  0.8728  0.2080 -0.5746
  169MOL0     N22732   5.792  10.295   1.084  0.1830  0.0529  0.0737
  169MOL0     C22733   6.408   9.452   1.951  0.9501  0.0458  0.0338
  169MOL0     C22734   6.482   9.338   1.961 -0.1219  0.0334  0.3818
  169MOL0     C22735   6.769   9.008   1.866 -0.8636 -0.1023  0.1981
  169MOL0     C22736   6.697   8.899   1.927 -0.3418 -0.3280  0.2410
  169MOL0     C22737   6.752   8.781   1.968 -0.1679  0.4534  0.1816
  169MOL0     C22738   6.892   8.767   1.967 -0.3851  0.1727 -0.1027
  169MOL0     O22739   6.949   8.647   2.017  0.5262  0.2287 -0.9113
  169MOL0     C22740   7.048   8.572   1.933  0.5239 -0.0715  0.5784
  169MOL0     C22741   6.963   8.515   1.809 -0.1876  0.2596 -0.0463
  169MOL0     C22742   6.857   8.418   1.861 -0.3195  0.6827 -0.8476
  169MOL0     C22743   6.771   8.343   1.763 -0.0476 -0.2286 -0.0599
  169MOL0     C22744   6.839   8.295   1.641  1.0144 -0.6465  0.3452
  169MOL0     C22745   6.895   8.266   1.540  0.2735  0.7472 -0.2347
  169MOL0     C22746   6.965   8.874   1.913  0.9464 -0.5582 -0.1208
  169MOL0     C22747   6.905   8.994   1.866  0.1283 -0.0252  0.4960
  169MOL0     H22748   6.522   9.275   1.639  1.4990  4.1216 -2.8787
  169MOL0     H22749   6.432   9.496   1.615  1.5693  1.7862  0.8384
  169MOL0     H22750   6.382   9.724   1.642 -0.9333 -0.5611 -2.0722
  169MOL0     H22751   6.238   9.614   1.636  0.4137 -0.4358  0.8020
  169MOL0     H22752   6.122   9.777   1.786  3.5793 -2.4472  2.9169
  169MOL0     H22753   6.250   9.891   1.758  1.5038 -0.4211 -0.1024
  169MOL0     H22754   6.205   9.864   1.497 -1.4721 -1.4490 -1.7632
  169MOL0     H22755   6.081   9.752   1.549 -0.8549  0.4434 -0.3043
  169MOL0     H22756   5.971   9.958   1.676 -0.6192 -0.0209 -0.4851
  169MOL0     H22757   6.093  10.062   1.608  2.0860 -0.6306 -1.2880
  169MOL0     H22758   6.027   9.995   1.371  2.2850  0.9152  1.3151
  169MOL0     H22759   5.900   9.884   1.453  0.4069 -0.8862  2.4633
  169MOL0     H22760   5.817  10.087   1.565  2.2376 -1.2578  0.7397
  169MOL0     H22761   5.915  10.202   1.467  0.5635 -0.0153  0.0191
  169MOL0     H22762   5.818  10.064   1.262  1.2059 -2.6058  1.4556
  169MOL0     H22763   5.671  10.051   1.359 -2.7673  3.0280  0.1351
  169MOL0     H22764   5.783  10.328   1.334 -2.1552  1.9663  0.6053
  169MOL0     H22765   5.632  10.283   1.381  1.2582  0.1195  2.4046
  169MOL0     H22766   5.476  10.282   1.163 -0.1749 -0.7564 -0.4696
  169MOL0     H22767   5.440  10.403   0.897  0.4544 -1.2966 -0.3285
  169MOL0     H22768   5.558  10.353   0.774 -0.5825 -4.1354 -2.6475
  169MOL0     H22769   5.346  10.172   0.905  0.4442 -0.7792  0.9666
  169MOL0     H22770   5.502  10.106   0.856 -1.6114 -3.0619 -0.9969
  169MOL0     H22771   5.500  10.213   0.639 -1.1798  0.4211 -1.9476
  169MOL0     H22772   5.324  10.246   0.665 -1.0226 -0.8269  3.2270
  169MOL0     H22773   5.339  10.024   0.558  3.4297 -0.7239 -1.4556
  169MOL0     H22774   5.311   9.996   0.733  0.8968  0.0616  0.9811
  169MOL0     H22775   5.652   9.846   0.811  0.2394 -0.1162  2.6755
  169MOL0     H22776   5.642   9.578   1.011  0.6153  0.4689  0.5819
  169MOL0     H22777   5.731   9.522   0.865 -1.9566 -0.1841 -1.3594
  169MOL0     H22778   5.758   9.684   0.931  1.2406 -0.6455  0.5232
  169MOL0     H22779   5.662   9.147   0.882 -0.2091 -0.0730  0.1321
  169MOL0     H22780   5.590   8.928   0.985 -0.9321 -0.5624 -2.7528
  169MOL0     H22781   5.188   8.885   1.139 -2.9205 -2.9119  0.4720
  169MOL0     H22782   5.230   8.786   1.006  0.0319  3.8856 -0.8123
  169MOL0     H22783   5.328   8.607   1.168  0.3588  0.5757 -1.9416
  169MOL0     H22784   5.294   8.717   1.303  1.3946 -0.6662 -0.9300
  169MOL0     H22785   5.084   8.587   1.129  1.1800 -5.0089  2.9338
  169MOL0     H22786   5.064   8.723   1.243 -0.9509  0.7372 -2.0394
  169MOL0     H22787   5.098   8.427   1.269  2.9036 -1.0798  0.6698
  169MOL0     H22788   5.193   8.510   1.392 -1.8816  1.1875  2.6656
  169MOL0     H22789   4.892   8.530   1.377  0.5045  3.0672 -2.0150
  169MOL0     H22790   4.998   8.628   1.478 -0.4861 -0.2892  0.2465
  169MOL0     H22791   5.053   8.345   1.506  0.3918  0.3050  0.9188
  169MOL0     H22792   5.079   8.487   1.607  0.0529  1.0463  1.0293
  169MOL0     H22793   4.820   8.493   1.644 -2.8644 -0.7429 -1.6096
  169MOL0     H22794   4.891   8.358   1.715  0.0974 -0.4808 -0.1780
  169MOL0     H22795   4.693   8.278   1.630 -0.7032 -2.7176 -0.8776
  169MOL0     H22796   4.820   8.203   1.535  2.3394  1.5322 -1.0873
  169MOL0     H22797   5.212   9.099   1.096  0.3153 -4.1602  1.2516
  169MOL0     H22798   5.289   9.317   1.001 -1.6544 -1.3261  0.1424
  169MOL0     H22799   5.322   9.550   0.598 -0.3490 -3.0006  4.7513
  169MOL0     H22800   5.349   9.774   0.524 -0.6407 -2.7519 -0.9980
  169MOL0     H22801   6.368   9.498   2.041 -2.9643 -0.7431 -1.1213
  169MOL0     H22802   6.496   9.292   2.058  7.2544 -2.6123 -1.2166
  169MOL0     H22803   6.591   8.919   1.925 -0.1372  0.8259 -1.9754
  169MOL0     H22804   6.692   8.707   2.020 -2.0530  1.9148  0.2022
  169MOL0     H22805   7.126   8.637   1.893 -0.0002 -0.4738 -1.1708
  169MOL0     H22806   7.101   8.493   1.987  2.1498  1.7432  1.7654
  169MOL0     H22807   7.040   8.467   1.748  1.4661  1.1600  1.2440
  169MOL0     H22808   6.908   8.591   1.751 -0.6126  1.6954  2.1085
  169MOL0     H22809   6.791   8.486   1.915 -2.8998 -0.9566 -1.7768
  169MOL0     H22810   6.911   8.344   1.922 -1.6912 -1.0248 -1.6326
  169MOL0     H22811   6.698   8.420   1.734  1.6319  0.9776 -1.3066
  169MOL0     H22812   6.730   8.259   1.820  1.4482  0.6209  2.4483
  169MOL0     H22813   6.934   8.226   1.448 -3.5946  1.1225 -2.2606
  169MOL0     H22814   7.069   8.873   1.881  0.0768 -1.1408 -3.2742
  169MOL0     H22815   6.966   9.074   1.827 -0.8406  0.7271  0.4900
  170MOL0     O22816  11.205   8.479   2.587  0.3396  1.5440 -0.2213
  170MOL0     C22817  11.300   8.409   2.615  0.3051 -0.9884 -0.2604
  170MOL0     O22818  11.313   8.328   2.727 -0.4482 -0.1587  0.4396
  170MOL0     C22819  11.210   8.305   2.814 -0.0658  0.5231  1.0944
  170MOL0     C22820  11.228   8.189   2.887  0.1252 -2.2001  0.1127
  170MOL0     C22821  11.132   8.167   2.990 -0.7064  1.0533 -0.3087
  170MOL0     C22822  11.031   8.250   3.028  1.4898 -0.4283  0.3524
  170MOL0     O22823  10.939   8.210   3.126  0.6621 -0.8175 -0.8340
  170MOL0     C22824  10.801   8.248   3.108 -0.4005 -0.3064 -0.2944
  170MOL0     C22825  10.707   8.143   3.176  0.9637 -0.5740  0.7637
  170MOL0     C22826  10.700   8.018   3.109 -0.7211 -0.4144 -0.2455
  170MOL0     C22827  10.591   7.918   3.162 -1.0586 -0.1923 -1.0056
  170MOL0     C22828  10.603   7.777   3.114  0.3371  0.7268  0.1191
  170MOL0     C22829  10.526   7.687   3.217  0.4803  0.1516  0.2434
  170MOL0     C22830  10.501   7.545   3.158  0.0042  0.3923  0.3087
  170MOL0     C22831  10.456   7.454   3.280 -0.9064 -0.3447  1.5005
  170MOL0     N22832  10.409   7.326   3.224 -0.1302 -0.9788  0.2917
  170MOL0     C22833  10.277   7.292   3.198  0.0794 -0.5494  0.2710
  170MOL0     C22834  10.279   7.164   3.166 -0.8218 -0.0137 -0.6140
  170MOL0     C22835  10.168   7.059   3.138 -0.4754 -0.1022 -0.2617
  170MOL0     C22836  10.179   6.996   2.990 -0.7299  0.2935 -0.0852
  170MOL0     C22837  10.206   6.849   2.984  0.8941 -1.3496  0.0354
  170MOL0     C22838  10.075   6.773   3.003 -0.3627 -0.6507  0.1598
  170MOL0     O22839   9.962   6.795   2.925  0.4880  0.1764  0.6203
  170MOL0     C22840   9.958   6.764   2.785  0.7668 -0.0393 -0.6903
  170MOL0     C22841  10.069   6.710   2.723  0.1057  0.0078  0.3363
  170MOL0     C22842  10.079   6.719   2.581  0.4720  0.1127  0.3178
  170MOL0     C22843  10.205   6.680   2.531 -0.6073  0.6349  0.4806
  170MOL0     C22844   9.976   6.772   2.503 -0.8922  0.0911 -0.2167
  170MOL0     C22845   9.972   6.772   2.357  0.1966  0.0208 -0.9166
  170MOL0     O22846  10.067   6.697   2.295 -0.5316  0.1204  0.1581
  170MOL0     C22847  10.036   6.648   2.171 -0.6887 -0.2027  0.8177
  170MOL0     C22848  10.027   6.512   2.144 -0.9863 -0.4336  0.5817
  170MOL0     C22849   9.997   6.455   2.023  0.4142 -0.0332 -0.0646
  170MOL0     C22850   9.986   6.534   1.911  0.2381 -0.6106  0.1714
  170MOL0     O22851   9.972   6.486   1.783 -0.2025  0.1631  0.5214
  170MOL0     C22852   9.873   6.374   1.776 -0.5411 -0.2173  0.2862
  170MOL0     C22853   9.851   6.309   1.639  0.1798 -0.0359  0.2254
  170MOL0     C22854   9.827   6.406   1.524  0.5671  0.1029 -1.3868
  170MOL0     C22855   9.706   6.496   1.550 -0.8969 -0.0189 -0.2973
  170MOL0     C22856   9.651   6.557   1.424 -0.5538 -0.4087  0.2760
  170MOL0     C22857   9.745   6.634   1.337  0.4413 -0.0857 -0.2779
  170MOL0     C22858   9.815   6.753   1.406  0.9638  0.3153 -0.8678
  170MOL0     C22859   9.895   6.836   1.309 -0.4068  0.4074 -0.2020
  170MOL0    Cl22860   9.994   6.949   1.398 -0.0715 -0.0581 -0.4252
  170MOL0     C22861  10.018   6.669   1.920  0.2345  0.6463 -1.4359
  170MOL0     C22862  10.028   6.730   2.056  0.6498  0.3183 -0.1323
  170MOL0     O22863   9.875   6.833   2.299  0.7146  0.0296 -0.7067
  170MOL0     C22864   9.863   6.829   2.569  0.7853  0.3773 -0.2565
  170MOL0     C22865   9.855   6.822   2.705 -1.3413 -0.8372 -0.0108
  170MOL0     N22866  10.407   7.116   3.175 -0.2427 -0.1389  0.3199
  170MOL0     N22867  10.489   7.217   3.203 -0.1960  0.3353  0.6228
  170MOL0     C22868  11.013   8.361   2.947 -0.2207  1.0983 -0.5281
  170MOL0     C22869  11.106   8.393   2.844  1.2010  0.6951  0.2643
  170MOL0     C22870  11.420   8.426   2.539  0.5797 -0.4105 -0.5161
  170MOL0     C22871  11.511   8.328   2.532  0.0466  0.5436  1.0497
  170MOL0     C22872  11.641   8.340   2.469 -0.1166 -0.5528  0.6570
  170MOL0     C22873  11.668   8.452   2.391 -0.1809 -0.5483 -0.2563
  170MOL0     O22874  11.780   8.480   2.314  0.4408 -1.1635 -0.0537
  170MOL0     C22875  11.856   8.366   2.280  0.0934 -0.7543 -0.4145
  170MOL0     C22876  11.789   8.289   2.164  0.1883 -0.7489  0.0657
  170MOL0     C22877  11.722   8.378   2.054 -0.7618 -0.2005  0.4885
  170MOL0     C22878  11.744   8.327   1.909 -0.2113  0.7018  0.2651
  170MOL0     C22879  11.712   8.176   1.887 -0.0411 -0.2591  0.3953
  170MOL0     C22880  11.693   8.063   1.857 -0.6993  0.0630 -0.1500
  170MOL0     C22881  11.563   8.550   2.381  0.0210  0.0593  0.1892
  170MOL0     C22882  11.439   8.532   2.447  0.5159 -0.3063  0.3650
  170MOL0     H22883  11.312   8.131   2.852  2.4866  0.4167  1.0739
  170MOL0     H22884  11.130   8.073   3.043  1.1237  1.6658  0.9652
  170MOL0     H22885  10.799   8.347   3.154 -0.5869  0.3448 -1.6665
  170MOL0     H22886  10.784   8.265   3.001 -1.3402 -3.1497 -0.6880
  170MOL0     H22887  10.741   8.127   3.278 -0.8009  0.8161  1.6271
  170MOL0     H22888  10.605   8.182   3.165  0.3123 -2.3599  0.2296
  170MOL0     H22889  10.698   8.031   3.000  1.3521  1.8571 -0.0873
  170MOL0     H22890  10.799   7.970   3.117 -0.6390 -0.3994 -1.0434
  170MOL0     H22891  10.606   7.917   3.270 -3.3225  1.2689 -0.6171
  170MOL0     H22892  10.494   7.965   3.145 -1.2527  0.2112  0.9679
  170MOL0     H22893  10.551   7.784   3.019  0.0144  1.6449  0.3568
  170MOL0     H22894  10.703   7.744   3.085  0.5591  0.2908  1.3236
  170MOL0     H22895  10.573   7.677   3.315  3.1818 -3.5247 -1.1678
  170MOL0     H22896  10.427   7.732   3.214 -0.2842 -1.3708  1.3302
  170MOL0     H22897  10.427   7.547   3.077 -0.1663 -0.6407  0.4260
  170MOL0     H22898  10.598   7.512   3.121  0.2591  0.3304  1.0142
  170MOL0     H22899  10.381   7.505   3.342 -3.1201 -0.4101 -0.9694
  170MOL0     H22900  10.547   7.431   3.336  1.1994  3.5380  0.0701
  170MOL0     H22901  10.189   7.354   3.212  0.6995  0.7925 -1.3950
  170MOL0     H22902  10.173   6.991   3.224  0.5584  0.2481 -0.0350
  170MOL0     H22903  10.076   7.119   3.130 -0.5215  0.0057  0.9154
  170MOL0     H22904  10.268   7.046   2.952  1.6010 -2.6827  1.1051
  170MOL0     H22905  10.094   7.030   2.929 -1.4765 -1.6164 -0.1633
  170MOL0     H22906  10.269   6.823   3.069 -0.1660  2.3691  2.1630
  170MOL0     H22907  10.241   6.812   2.887 -0.8986  0.0717 -1.2185
  170MOL0     H22908  10.051   6.800   3.107  1.1470 -1.0626  0.6466
  170MOL0     H22909  10.096   6.666   3.017  0.5864 -0.4421  0.3760
  170MOL0     H22910  10.140   6.655   2.784  1.1154 -1.6487 -2.1522
  170MOL0     H22911  10.235   6.733   2.441  1.6400 -0.1088  0.7282
  170MOL0     H22912  10.287   6.704   2.600 -0.1504  3.5848 -0.9587
  170MOL0     H22913  10.212   6.571   2.519 -3.1819  0.4864 -0.2236
  170MOL0     H22914  10.035   6.440   2.225 -0.8056 -0.5508  0.4614
  170MOL0     H22915   9.992   6.347   2.030  4.2517 -0.3408  0.5255
  170MOL0     H22916   9.916   6.297   1.841  0.1521  1.2771  1.6686
  170MOL0     H22917   9.776   6.405   1.814 -1.5440 -1.9708 -0.7001
  170MOL0     H22918   9.945   6.267   1.601  2.5626  3.5835  1.6469
  170MOL0     H22919   9.778   6.227   1.633  1.5526 -1.2151 -2.3180
  170MOL0     H22920   9.813   6.352   1.430  1.5099 -1.6727 -0.5484
  170MOL0     H22921   9.915   6.467   1.503  0.8682  0.7227  1.2828
  170MOL0     H22922   9.624   6.447   1.603  0.0880 -0.6551  0.6790
  170MOL0     H22923   9.736   6.578   1.615 -1.0253  1.8976 -2.4927
  170MOL0     H22924   9.561   6.619   1.432 -0.3216  0.0412 -0.4414
  170MOL0     H22925   9.614   6.469   1.372 -0.3203 -1.4955  1.8685
  170MOL0     H22926   9.823   6.570   1.295 -0.7977 -1.1131 -1.0743
  170MOL0     H22927   9.692   6.667   1.247 -0.1106 -0.9008 -0.2600
  170MOL0     H22928   9.886   6.711   1.478  2.7779  0.8232 -2.2934
  170MOL0     H22929   9.740   6.819   1.452 -0.0610 -0.1497 -1.8245
  170MOL0     H22930   9.835   6.894   1.238 -1.2381  0.3320  0.4135
  170MOL0     H22931   9.974   6.782   1.258 -1.1882 -0.9912  0.0108
  170MOL0     H22932  10.030   6.728   1.829  0.5072  2.6355 -0.1677
  170MOL0     H22933  10.049   6.837   2.053  0.8706  0.2630 -1.5619
  170MOL0     H22934   9.775   6.861   2.514 -1.3781 -0.4370  2.4649
  170MOL0     H22935   9.772   6.872   2.754 -2.2643 -0.6636 -1.6853
  170MOL0     H22936  10.940   8.441   2.959 -1.4818  0.0302 -0.7620
  170MOL0     H22937  11.118   8.487   2.791  0.7775  1.4677  1.4911
  170MOL0     H22938  11.492   8.233   2.580  1.5925 -0.6718 -0.5582
  170MOL0     H22939  11.718   8.263   2.474 -0.6374 -1.0610  0.9216
  170MOL0     H22940  11.958   8.397   2.256 -0.2810 -1.0412 -2.5788
  170MOL0     H22941  11.868   8.293   2.360 -1.4353 -0.2176  0.3461
  170MOL0     H22942  11.712   8.233   2.217  0.8719  2.4012  5.0665
  170MOL0     H22943  11.869   8.224   2.125 -1.6605 -2.0630 -1.7258
  170MOL0     H22944  11.742   8.485   2.047 -2.8033  0.1443 -1.2501
  170MOL0     H22945  11.615   8.373   2.078 -0.5201 -2.5965  1.3388
  170MOL0     H22946  11.849   8.346   1.884  0.2411 -1.9253 -0.1470
  170MOL0     H22947  11.688   8.381   1.832 -3.1354 -1.5539  0.5973
  170MOL0     H22948  11.680   7.962   1.823  1.5574 -0.3947  0.2300
  170MOL0     H22949  11.577   8.641   2.323 -0.6327  0.8811  1.2693
  170MOL0     H22950  11.371   8.617   2.439  1.3113  0.3166  0.0650
  171MOL0     O22951   1.264   9.588   6.722 -0.3361 -0.5844 -0.2414
  171MOL0     C22952   1.154   9.614   6.744  0.2726 -0.6536  0.8149
  171MOL0     O22953   1.052   9.530   6.757  0.4300 -0.1632  0.0124
  171MOL0     C22954   1.047   9.399   6.740  0.5126 -0.0378  1.0798
  171MOL0     C22955   0.917   9.341   6.762 -0.6497  0.1776  0.5557
  171MOL0     C22956   0.904   9.201   6.761  0.4704 -0.0213 -0.9985
  171MOL0     C22957   1.024   9.114   6.758  0.0404  0.3071 -0.0982
  171MOL0     O22958   1.026   8.980   6.758 -0.2777  0.3125  0.4962
  171MOL0     C22959   0.939   8.921   6.862  0.6955  1.0430 -0.1228
  171MOL0     C22960   0.812   8.869   6.797  0.0213 -0.1204  0.0091
  171MOL0     C22961   0.737   8.774   6.885  0.3904  0.7970  0.1643
  171MOL0     C22962   0.616   8.718   6.813  0.2416 -0.8936 -0.0825
  171MOL0     C22963   0.503   8.678   6.905 -0.1434 -1.3360  0.4686
  171MOL0     C22964   0.554   8.576   6.998 -0.3760  0.2011 -0.8535
  171MOL0     C22965   0.438   8.524   7.084 -0.5532 -0.0729 -0.7589
  171MOL0     C22966   0.416   8.595   7.212 -0.4654 -0.4682  0.2336
  171MOL0     N22967   0.322   8.523   7.301  0.0566 -1.0323 -0.0832
  171MOL0     C22968   0.358   8.425   7.387 -0.1869  0.3513  0.2949
  171MOL0     C22969   0.254   8.403   7.478  0.0635  0.2708 -0.3852
  171MOL0     C22970   0.269   8.313   7.595  0.7138  0.0139  0.7381
  171MOL0     C22971   0.133   8.279   7.660  0.9664  0.4353 -1.0714
  171MOL0     C22972   0.161   8.166   7.769  0.4269 -0.9373  0.0517
  171MOL0     C22973   0.027   8.151   7.848 -0.4008  0.7312 -0.4207
  171MOL0     O22974   0.061   8.080   7.976  0.7844 -0.3472 -0.0883
  171MOL0     C22975   0.002   8.136   8.085 -0.2074  1.6638 -0.3024
  171MOL0     C22976   0.063   8.104   8.212  0.2394 -0.3525  0.4479
  171MOL0     C22977   0.004   8.128   8.333  0.2355  0.7757  0.4772
  171MOL0     C22978   0.088   8.073   8.451 -0.5491  0.6843 -0.1256
  171MOL0     C22979  -0.105   8.214   8.337 -0.4633  1.1321  0.9992
  171MOL0     C22980  -0.150   8.278   8.462 -0.5146 -0.8278  1.4693
  171MOL0     O22981  -0.103   8.234   8.582 -0.1986 -0.0896 -0.4567
  171MOL0     C22982  -0.170   8.305   8.684 -0.2501  0.1304 -0.2888
  171MOL0     C22983  -0.092   8.398   8.759  0.4582  0.9501  1.0209
  171MOL0     C22984  -0.161   8.453   8.866  0.2980  0.9467  0.2051
  171MOL0     C22985  -0.297   8.419   8.899 -0.3653  0.6057 -0.6741
  171MOL0     O22986  -0.340   8.479   9.012  0.3085 -0.0079 -0.0363
  171MOL0     C22987  -0.467   8.442   9.066  0.2414 -0.0320 -0.6176
  171MOL0     C22988  -0.488   8.491   9.205 -0.7725  0.0468  0.9821
  171MOL0     C22989  -0.425   8.399   9.311  0.5361  0.2336  0.0286
  171MOL0     C22990  -0.420   8.470   9.447  0.2536  0.4537 -0.9405
  171MOL0     C22991  -0.375   8.353   9.547 -0.6414 -0.0800 -0.6223
  171MOL0     C22992  -0.303   8.413   9.669 -0.4007 -0.0057 -0.3775
  171MOL0     C22993  -0.256   8.291   9.748 -0.2288  0.0920  0.0323
  171MOL0     C22994  -0.143   8.339   9.845  0.3092  0.1266 -0.2303
  171MOL0    Cl22995  -0.002   8.402   9.752 -0.2684 -0.2381 -0.0809
  171MOL0     C22996  -0.364   8.338   8.820  0.3226 -0.1224 -0.3330
  171MOL0     C22997  -0.298   8.283   8.711  0.1201  0.7077 -0.5426
  171MOL0     O22998  -0.237   8.362   8.445 -0.5723 -0.6270 -0.5537
  171MOL0     C22999  -0.170   8.235   8.209 -0.3891  0.2347 -1.5145
  171MOL0     C23000  -0.123   8.191   8.085 -0.1778 -0.6399 -1.0144
  171MOL0     N23001   0.148   8.476   7.420  1.1579  1.0265 -0.8774
  171MOL0     N23002   0.190   8.550   7.324  0.0778  0.2392 -0.8573
  171MOL0     C23003   1.148   9.172   6.741  0.2621  0.1272 -0.4834
  171MOL0     C23004   1.168   9.313   6.742  0.8741  0.4572  0.4783
  171MOL0     C23005   1.131   9.761   6.780 -0.9914 -0.5198  0.0473
  171MOL0     C23006   1.007   9.815   6.809  0.1891 -0.0882 -0.3132
  171MOL0     C23007   0.989   9.945   6.856  0.5660  0.2644 -0.9238
  171MOL0     C23008   1.099  10.026   6.875 -0.0617 -0.1828 -0.6529
  171MOL0     O23009   1.066  10.153   6.924  0.3432  0.4372 -0.6087
  171MOL0     C23010   1.178  10.229   6.960  0.4379  0.4034  0.1064
  171MOL0     C23011   1.146  10.352   7.023  0.2116  0.4090  0.0977
  171MOL0     C23012   1.106  10.354   7.175 -0.2915  0.6426  0.0873
  171MOL0     C23013   1.018  10.479   7.194  0.2308  0.7019 -0.1435
  171MOL0     C23014   0.943  10.464   7.320  1.2127 -0.4238  0.4819
  171MOL0     C23015   0.884  10.451   7.425  1.4756  0.5745  0.5967
  171MOL0     C23016   1.230   9.980   6.845 -0.2442  0.0110  0.2824
  171MOL0     C23017   1.242   9.854   6.787 -0.2936  0.3308  0.3705
  171MOL0     H23018   0.828   9.400   6.779  0.5135  2.1374  0.0898
  171MOL0     H23019   0.810   9.148   6.764 -0.9520  2.3794  0.3830
  171MOL0     H23020   0.994   8.836   6.903  0.5574 -0.6758 -3.1825
  171MOL0     H23021   0.903   8.994   6.935 -0.4904 -0.1934  0.5530
  171MOL0     H23022   0.743   8.953   6.782 -1.3953 -1.4595 -1.4035
  171MOL0     H23023   0.842   8.814   6.707 -0.5893  0.5367 -0.6110
  171MOL0     H23024   0.803   8.689   6.906 -2.6335 -1.2723  2.2317
  171MOL0     H23025   0.700   8.823   6.975 -2.0828 -1.0255  0.2601
  171MOL0     H23026   0.584   8.799   6.747  0.5747 -0.5392  0.1873
  171MOL0     H23027   0.637   8.633   6.747 -0.4719  0.9908 -2.9143
  171MOL0     H23028   0.462   8.762   6.960 -1.1976 -1.1596 -0.5522
  171MOL0     H23029   0.418   8.632   6.853 -0.5477  1.2536 -1.3172
  171MOL0     H23030   0.597   8.486   6.953  1.2103  0.6231 -0.2626
  171MOL0     H23031   0.625   8.626   7.065  0.2654  0.2873 -1.5857
  171MOL0     H23032   0.350   8.551   7.024  0.2325 -0.2206 -2.0122
  171MOL0     H23033   0.448   8.416   7.100  1.1194  0.3171  1.2615
  171MOL0     H23034   0.392   8.701   7.195 -0.5313 -0.2432  1.5822
  171MOL0     H23035   0.510   8.588   7.266 -0.7526  2.2572  1.2307
  171MOL0     H23036   0.457   8.382   7.400 -0.6510 -1.3543 -1.3614
  171MOL0     H23037   0.318   8.223   7.558 -1.7813 -0.7692 -0.9008
  171MOL0     H23038   0.336   8.366   7.664  0.6532  0.2765  0.5948
  171MOL0     H23039   0.051   8.238   7.600  2.8545 -1.7050 -2.3165
  171MOL0     H23040   0.097   8.372   7.706 -0.3933 -2.6983  5.3405
  171MOL0     H23041   0.242   8.205   7.832 -1.7249  0.6727  2.0034
  171MOL0     H23042   0.185   8.064   7.736 -1.3741 -1.1815 -0.5739
  171MOL0     H23043  -0.053   8.101   7.793  0.9153 -2.4187  0.3353
  171MOL0     H23044   0.001   8.256   7.867  0.8054  1.1721 -1.0898
  171MOL0     H23045   0.163   8.060   8.214  1.5550  2.2709  4.0194
  171MOL0     H23046   0.157   8.147   8.491  0.8574  1.8256 -4.2359
  171MOL0     H23047   0.024   8.040   8.534  1.3504 -1.6300  0.5393
  171MOL0     H23048   0.137   7.979   8.426 -1.0890  0.0867  0.9784
  171MOL0     H23049   0.015   8.417   8.749  0.3364  1.1415 -0.1097
  171MOL0     H23050  -0.096   8.526   8.912  0.2816  1.1116 -0.0311
  171MOL0     H23051  -0.547   8.487   9.006  1.0752  2.2431 -0.0927
  171MOL0     H23052  -0.468   8.333   9.062 -1.4075 -0.0089 -2.7541
  171MOL0     H23053  -0.451   8.593   9.218 -2.9471  0.7248  2.4485
  171MOL0     H23054  -0.594   8.480   9.228 -1.2381 -4.6248 -2.0671
  171MOL0     H23055  -0.328   8.360   9.278  0.1458 -0.8775  0.1465
  171MOL0     H23056  -0.501   8.321   9.301  0.0869  0.8794 -2.1161
  171MOL0     H23057  -0.347   8.551   9.438 -1.0459  1.9039  0.7940
  171MOL0     H23058  -0.518   8.508   9.477  1.0424  1.1391  0.8617
  171MOL0     H23059  -0.302   8.286   9.499  0.9160 -1.9718  3.8454
  171MOL0     H23060  -0.462   8.291   9.574 -0.5126 -2.0735 -4.1422
  171MOL0     H23061  -0.222   8.474   9.630 -1.4364  1.8073  0.2054
  171MOL0     H23062  -0.367   8.477   9.730 -1.4550 -2.1772  0.9382
  171MOL0     H23063  -0.222   8.214   9.678  1.1019  1.5736 -1.0215
  171MOL0     H23064  -0.338   8.259   9.813  0.3613 -3.4789 -0.7767
  171MOL0     H23065  -0.104   8.261   9.911  2.7199  0.6059 -1.0016
  171MOL0     H23066  -0.189   8.416   9.908  0.0870 -1.0227  1.0425
  171MOL0     H23067  -0.466   8.306   8.838  0.6245 -2.1279 -1.7997
  171MOL0     H23068  -0.352   8.212   8.649 -2.4689  2.0988 -0.0236
  171MOL0     H23069  -0.266   8.286   8.206 -1.4092 -1.4823 -0.3215
  171MOL0     H23070  -0.191   8.218   8.005 -1.4948  3.4353  1.1578
  171MOL0     H23071   1.240   9.114   6.742 -0.8270 -1.6991  1.6563
  171MOL0     H23072   1.269   9.353   6.742  1.2758 -0.5080  1.7109
  171MOL0     H23073   0.906   9.777   6.803  0.3725 -1.0341  1.8762
  171MOL0     H23074   0.892   9.974   6.894  1.7456  1.9359  1.0691
  171MOL0     H23075   1.246  10.171   7.023 -1.6172 -0.0927  1.9845
  171MOL0     H23076   1.229  10.257   6.867  0.3827 -0.3969 -0.1694
  171MOL0     H23077   1.071  10.412   6.971 -0.9501  1.5747  2.8803
  171MOL0     H23078   1.239  10.410   7.018  1.6285 -1.8318 -1.3962
  171MOL0     H23079   1.191  10.370   7.242 -1.1391  0.3887  1.2362
  171MOL0     H23080   1.055  10.260   7.198  3.0528 -1.1150  0.9882
  171MOL0     H23081   0.942  10.483   7.115 -1.3123 -2.9443  0.9340
  171MOL0     H23082   1.092  10.560   7.191  0.0521  0.8352 -1.3200
  171MOL0     H23083   0.822  10.429   7.510  0.2153 -2.9725 -1.0312
  171MOL0     H23084   1.320  10.040   6.854  1.6717 -2.1365 -2.5795
  171MOL0     H23085   1.340   9.818   6.755 -1.7524 -1.8098 -2.0681
  172MOL0     O23086   2.328   1.964  10.788  0.1966  0.1636 -0.6556
  172MOL0     C23087   2.264   1.928  10.687 -0.4382 -0.1506 -0.3063
  172MOL0     O23088   2.123   1.935  10.675  0.0284  0.2340 -0.2464
  172MOL0     C23089   2.045   1.978  10.782  0.6756 -0.3321 -0.2262
  172MOL0     C23090   1.948   1.890  10.837  0.1037 -0.3479  0.1185
  172MOL0     C23091   1.875   1.932  10.953  0.0855  0.9767  0.5733
  172MOL0     C23092   1.886   2.051  11.007  0.0779  0.6214 -0.7908
  172MOL0     O23093   1.825   2.078  11.128  0.1391  0.1416 -0.6022
  172MOL0     C23094   1.897   2.040  11.247  0.3770  0.6407  0.3583
  172MOL0     C23095   1.821   2.071  11.372 -1.3504  0.0790  0.5006
  172MOL0     C23096   1.772   2.222  11.382  0.3319  0.7206 -0.0085
  172MOL0     C23097   1.890   2.311  11.363  0.2431 -0.7959  0.7815
  172MOL0     C23098   1.859   2.462  11.393  0.0463  0.1299  0.0757
  172MOL0     C23099   1.992   2.543  11.392  1.4489  0.5058  0.3851
  172MOL0     C23100   1.967   2.690  11.423  0.2539 -0.0412  0.0635
  172MOL0     C23101   2.095   2.780  11.436  0.2955 -0.1406 -0.1218
  172MOL0     N23102   2.067   2.914  11.471  1.1737 -0.4808 -0.5354
  172MOL0     C23103   2.021   2.964  11.589  0.8577  0.2888 -0.0917
  172MOL0     C23104   2.031   3.100  11.575  0.0985  1.2753 -0.9052
  172MOL0     C23105   1.970   3.198  11.674 -1.0115  0.3814  0.3593
  172MOL0     C23106   1.843   3.243  11.611 -0.9058  0.0051 -0.0250
  172MOL0     C23107   1.758   3.304  11.725  0.0475 -0.7285  0.2121
  172MOL0     C23108   1.624   3.330  11.667  0.5311 -0.2189 -0.1370
  172MOL0     O23109   1.521   3.331  11.771 -0.6114  0.3942  0.1682
  172MOL0     C23110   1.392   3.356  11.727  1.1942  0.4230 -0.7578
  172MOL0     C23111   1.362   3.371  11.588 -0.2158 -0.5546 -0.8934
  172MOL0     C23112   1.229   3.367  11.543  0.2583 -0.2894  0.8053
  172MOL0     C23113   1.220   3.366  11.396 -0.4651 -0.5887  0.1748
  172MOL0     C23114   1.116   3.385  11.635 -0.0877  0.5988  0.6107
  172MOL0     C23115   0.972   3.380  11.597  0.2647  0.0168  0.1197
  172MOL0     O23116   0.896   3.301  11.679  0.5067  0.2870  0.2196
  172MOL0     C23117   0.756   3.293  11.662 -0.9291  0.4652 -0.1105
  172MOL0     C23118   0.674   3.346  11.764 -0.3619  0.5526  0.5176
  172MOL0     C23119   0.529   3.359  11.736  0.1799  0.7208  0.2056
  172MOL0     C23120   0.472   3.310  11.615 -0.3356  0.3867 -0.4127
  172MOL0     O23121   0.332   3.313  11.594 -0.0675 -0.1944 -1.0097
  172MOL0     C23122   0.280   3.404  11.487  0.7012 -0.3388 -0.2429
  172MOL0     C23123   0.129   3.410  11.500 -0.9649 -0.9400  0.5248
  172MOL0     C23124   0.061   3.527  11.441 -0.2954 -0.4804 -0.6193
  172MOL0     C23125   0.079   3.530  11.290 -0.9289 -0.4766 -0.1502
  172MOL0     C23126   0.015   3.642  11.203  0.2789 -0.0494  0.3664
  172MOL0     C23127   0.032   3.619  11.058  0.1154  0.2898  0.6144
  172MOL0     C23128  -0.043   3.712  10.956 -0.7265 -0.9773  0.0390
  172MOL0     C23129  -0.177   3.667  10.918  0.9758 -0.1190  1.2830
  172MOL0    Cl23130  -0.262   3.800  10.843 -0.0290 -0.2823 -0.7595
  172MOL0     C23131   0.563   3.269  11.513  0.1777 -0.4633 -0.0084
  172MOL0     C23132   0.700   3.255  11.544 -0.7044 -1.2493 -0.0817
  172MOL0     O23133   0.930   3.443  11.504  0.5457  0.2738 -0.2830
  172MOL0     C23134   1.149   3.387  11.774  0.6379  0.3449 -0.6814
  172MOL0     C23135   1.283   3.372  11.822  1.1666  0.3881  0.0066
  172MOL0     N23136   2.097   3.131  11.459  0.8341 -0.6529  0.3822
  172MOL0     N23137   2.109   3.023  11.398  0.3964  0.2768 -0.1481
  172MOL0     C23138   1.981   2.139  10.957 -0.7183  0.1332 -0.4580
  172MOL0     C23139   2.060   2.101  10.845  0.0825 -0.7243  0.4512
  172MOL0     C23140   2.331   1.856  10.577  0.2286 -0.0975  0.0305
  172MOL0     C23141   2.255   1.792  10.476  0.4135 -1.2445  0.5017
  172MOL0     C23142   2.326   1.741  10.362  0.3419 -0.5068  0.1184
  172MOL0     C23143   2.468   1.751  10.357  0.4399  0.4410  0.7373
  172MOL0     O23144   2.542   1.705  10.249 -0.1398 -0.3151  0.1131
  172MOL0     C23145   2.490   1.617  10.160  0.0462 -0.2935  0.0591
  172MOL0     C23146   2.475   1.470  10.217 -0.3269  0.4541 -0.0416
  172MOL0     C23147   2.401   1.385  10.117  0.7310 -0.8373  0.4669
  172MOL0     C23148   2.485   1.365   9.985  0.6384  0.4479  0.0943
  172MOL0     C23149   2.424   1.258   9.893 -1.0107  0.0455 -0.7416
  172MOL0     C23150   2.370   1.182   9.823  1.2280 -0.0618 -1.1560
  172MOL0     C23151   2.537   1.808  10.458 -0.4576 -0.0812  0.7824
  172MOL0     C23152   2.469   1.851  10.572  0.2078 -0.0744  0.7427
  172MOL0     H23153   1.933   1.800  10.778 -0.5319 -0.2540  0.1280
  172MOL0     H23154   1.804   1.853  10.978  0.7601 -0.6062 -2.0208
  172MOL0     H23155   1.902   1.930  11.242 -0.2925  0.6376 -0.7743
  172MOL0     H23156   1.995   2.089  11.253  1.0597 -0.5805 -0.3110
  172MOL0     H23157   1.729   2.012  11.367 -0.2971 -1.5233 -1.0060
  172MOL0     H23158   1.893   2.042  11.450 -0.6377 -4.1184 -1.4552
  172MOL0     H23159   1.698   2.249  11.306 -0.9883 -0.1752  0.8972
  172MOL0     H23160   1.727   2.233  11.481 -0.4829  1.2453 -0.4292
  172MOL0     H23161   1.983   2.284  11.414  1.5527 -0.2317 -1.1596
  172MOL0     H23162   1.917   2.312  11.257 -0.1814 -0.0619  0.6771
  172MOL0     H23163   1.803   2.512  11.313  0.8340 -0.0782 -0.6150
  172MOL0     H23164   1.806   2.468  11.489  1.5836  0.6586  0.9337
  172MOL0     H23165   2.065   2.499  11.461  0.1600 -1.4602  0.5658
  172MOL0     H23166   2.032   2.522  11.292  0.5596  0.8569 -0.0510
  172MOL0     H23167   1.909   2.730  11.339 -0.0674  0.8633  0.6940
  172MOL0     H23168   1.911   2.694  11.517  2.2201 -0.5370  1.3409
  172MOL0     H23169   2.145   2.798  11.341 -0.0748  0.4997 -0.2034
  172MOL0     H23170   2.159   2.742  11.516  0.6418 -0.2078 -0.4321
  172MOL0     H23171   1.976   2.906  11.669  0.4099 -3.1714 -2.6191
  172MOL0     H23172   1.949   3.139  11.764 -2.3806 -1.5034 -1.1094
  172MOL0     H23173   2.038   3.276  11.710 -0.2318 -0.4305  0.6762
  172MOL0     H23174   1.788   3.157  11.570  0.9541 -1.8675  1.2054
  172MOL0     H23175   1.855   3.319  11.533 -0.1374 -0.1086 -0.0172
  172MOL0     H23176   1.803   3.387  11.780 -1.4333 -0.4941  1.1059
  172MOL0     H23177   1.742   3.229  11.803  0.2896 -0.9781  0.0260
  172MOL0     H23178   1.604   3.262  11.583 -0.4098 -1.3426  0.9768
  172MOL0     H23179   1.628   3.428  11.617  1.6680 -0.3893 -0.4040
  172MOL0     H23180   1.442   3.365  11.515  0.5155 -1.7557 -0.0149
  172MOL0     H23181   1.282   3.443  11.349  0.3781 -1.0614  0.4986
  172MOL0     H23182   1.275   3.283  11.353 -3.0354 -1.0418 -2.6118
  172MOL0     H23183   1.118   3.365  11.356 -1.3028 -2.0287  2.1963
  172MOL0     H23184   0.730   3.388  11.847  1.3124 -0.7945  0.1058
  172MOL0     H23185   0.453   3.399  11.803 -0.9270 -0.2825 -0.3977
  172MOL0     H23186   0.309   3.505  11.518 -4.6964  1.0250  1.4089
  172MOL0     H23187   0.301   3.368  11.386 -0.7516 -0.6037 -0.4734
  172MOL0     H23188   0.093   3.316  11.457 -3.8591  1.6662 -3.3656
  172MOL0     H23189   0.099   3.409  11.605 -1.2731  1.0958  0.4783
  172MOL0     H23190   0.084   3.618  11.498 -2.5930  0.0437 -0.3994
  172MOL0     H23191  -0.040   3.503  11.475  0.5071 -1.3243  1.3248
  172MOL0     H23192   0.187   3.519  11.275 -0.9676 -3.9723  1.2287
  172MOL0     H23193   0.046   3.432  11.255  0.2383 -0.2778 -1.9606
  172MOL0     H23194   0.055   3.739  11.234  0.1186  0.3741 -0.7094
  172MOL0     H23195  -0.094   3.646  11.217 -0.0074  0.4582 -1.6719
  172MOL0     H23196   0.138   3.626  11.033  0.0310 -0.8835 -0.1068
  172MOL0     H23197   0.016   3.512  11.047 -0.3791  0.1307  2.4726
  172MOL0     H23198   0.008   3.736  10.862 -3.1400  2.4528 -0.6050
  172MOL0     H23199  -0.049   3.812  10.999  0.0721 -0.1520 -1.6727
  172MOL0     H23200  -0.241   3.647  11.004 -2.6006  0.4671 -0.9975
  172MOL0     H23201  -0.170   3.572  10.863 -0.9251  0.0856  0.6172
  172MOL0     H23202   0.513   3.244  11.419 -1.5564 -1.6955  1.1845
  172MOL0     H23203   0.755   3.229  11.454 -2.6441  1.4890 -2.2299
  172MOL0     H23204   1.065   3.394  11.842  1.7273  0.7453  0.6851
  172MOL0     H23205   1.300   3.360  11.928  0.0767  2.1386  0.4122
  172MOL0     H23206   1.986   2.233  11.011  1.5493 -1.1687  1.8592
  172MOL0     H23207   2.126   2.182  10.815  0.1003 -0.7768  0.3483
  172MOL0     H23208   2.150   1.776  10.453  0.6112 -2.6536  0.5261
  172MOL0     H23209   2.266   1.709  10.278 -1.0728 -1.3115  1.3636
  172MOL0     H23210   2.398   1.644  10.108 -1.2904 -0.2989  2.2941
  172MOL0     H23211   2.569   1.612  10.084  1.0193  4.8606  0.3916
  172MOL0     H23212   2.404   1.476  10.300  0.2288 -1.4206  0.6286
  172MOL0     H23213   2.569   1.417  10.237 -1.0410 -0.7091  0.3645
  172MOL0     H23214   2.299   1.425  10.114  0.6802 -0.9654 -2.6199
  172MOL0     H23215   2.397   1.285  10.163 -1.3995 -0.4498  1.2370
  172MOL0     H23216   2.589   1.344  10.013  0.6000  1.0579  0.6988
  172MOL0     H23217   2.496   1.456   9.925  0.4647  0.0777 -0.5061
  172MOL0     H23218   2.301   1.108   9.788 -1.4891  2.0088 -0.4554
  172MOL0     H23219   2.643   1.828  10.448 -0.2640  0.2273  2.9676
  172MOL0     H23220   2.514   1.915  10.647  0.3968  1.1930 -0.4089
  173MOL0     O23221   3.915   7.782   4.016  0.3686 -0.0424  0.0756
  173MOL0     C23222   3.851   7.684   4.049  0.4467  0.0821 -0.0547
  173MOL0     O23223   3.762   7.603   3.971 -0.0668  0.4404  0.2252
  173MOL0     C23224   3.781   7.602   3.836 -0.2797 -0.5528 -0.0576
  173MOL0     C23225   3.787   7.478   3.788 -0.3829 -0.3572  0.7499
  173MOL0     C23226   3.787   7.460   3.645 -0.1456  0.8059 -0.4877
  173MOL0     C23227   3.767   7.567   3.554  0.0925  1.0133 -0.2153
  173MOL0     O23228   3.733   7.541   3.426 -0.1578 -0.9707  0.0784
  173MOL0     C23229   3.829   7.531   3.326 -0.0321  0.4761 -0.0781
  173MOL0     C23230   3.780   7.587   3.194 -1.0747 -0.1725 -0.4431
  173MOL0     C23231   3.768   7.735   3.197 -0.4544 -1.5245 -0.7766
  173MOL0     C23232   3.739   7.799   3.060  0.2819 -0.2246  0.4679
  173MOL0     C23233   3.610   7.752   2.997  0.0731 -0.0287 -0.3001
  173MOL0     C23234   3.629   7.647   2.884  0.1750 -0.3552 -0.9854
  173MOL0     C23235   3.658   7.706   2.751 -1.2138 -0.0146 -0.1276
  173MOL0     C23236   3.729   7.614   2.653  0.2376 -0.1913  0.7202
  173MOL0     N23237   3.629   7.521   2.597  0.3586  0.1961  0.3008
  173MOL0     C23238   3.522   7.551   2.514 -0.3081 -0.2303 -0.8311
  173MOL0     C23239   3.453   7.437   2.485 -1.3262 -1.1997  0.9691
  173MOL0     C23240   3.348   7.452   2.379  0.2266  0.9871  0.4734
  173MOL0     C23241   3.266   7.319   2.337 -0.2429 -1.2363  0.2131
  173MOL0     C23242   3.358   7.189   2.328 -0.7383  0.1525  0.4586
  173MOL0     C23243   3.292   7.071   2.255 -0.1661  0.3042 -0.3854
  173MOL0     O23244   3.374   7.007   2.154  0.1316 -0.5349 -0.4558
  173MOL0     C23245   3.482   6.935   2.201  0.6832 -0.3302 -0.4166
  173MOL0     C23246   3.572   6.882   2.110 -0.2148 -0.5352  0.1370
  173MOL0     C23247   3.681   6.803   2.143  0.9988 -0.4081 -0.2229
  173MOL0     C23248   3.748   6.734   2.031 -0.1321 -0.1273  0.0119
  173MOL0     C23249   3.708   6.767   2.277  0.2645 -0.2072  0.2681
  173MOL0     C23250   3.826   6.698   2.321  0.3513 -0.7153  0.6772
  173MOL0     O23251   3.939   6.691   2.231  0.0670 -0.5232 -0.1437
  173MOL0     C23252   4.055   6.617   2.245 -0.1452 -0.0725  0.9734
  173MOL0     C23253   4.136   6.632   2.356 -1.2172 -0.7030 -0.5225
  173MOL0     C23254   4.260   6.563   2.363  0.7667  0.7643  0.8478
  173MOL0     C23255   4.305   6.491   2.249  0.1174  0.4832  0.0121
  173MOL0     O23256   4.425   6.423   2.240 -0.5847  0.0696  0.7365
  173MOL0     C23257   4.466   6.348   2.352  0.4519 -0.0197  0.2836
  173MOL0     C23258   4.612   6.323   2.336 -0.9637  0.7667 -0.0510
  173MOL0     C23259   4.682   6.445   2.275  0.3366  0.9473  0.7879
  173MOL0     C23260   4.832   6.408   2.248  0.1753  0.0223  0.4065
  173MOL0     C23261   4.917   6.534   2.217 -0.4678 -0.6892 -0.2243
  173MOL0     C23262   5.075   6.523   2.252  0.5727  0.2541  0.1429
  173MOL0     C23263   5.113   6.538   2.406  0.5977  0.4312  0.7639
  173MOL0     C23264   5.179   6.669   2.454 -0.2146  0.7391 -0.0564
  173MOL0    Cl23265   5.314   6.736   2.348 -0.1120 -0.2276  0.1282
  173MOL0     C23266   4.234   6.497   2.130  0.1392  0.0878 -0.2616
  173MOL0     C23267   4.106   6.551   2.125 -0.0337  0.6577 -0.0360
  173MOL0     O23268   3.830   6.652   2.431 -0.1896 -0.3463  0.3389
  173MOL0     C23269   3.606   6.805   2.372  0.4974 -1.2092  0.7809
  173MOL0     C23270   3.497   6.886   2.333 -0.5325 -0.6562  0.3610
  173MOL0     N23271   3.516   7.334   2.550 -0.3912 -0.9160 -0.0287
  173MOL0     N23272   3.619   7.390   2.621  0.3006  0.5658  0.8569
  173MOL0     C23273   3.752   7.695   3.615 -0.4013 -0.4066  0.1425
  173MOL0     C23274   3.754   7.712   3.755  0.5088 -0.5233  0.3905
  173MOL0     C23275   3.868   7.662   4.198 -0.5921  0.2521  0.6654
  173MOL0     C23276   3.795   7.562   4.260  0.4086  0.1991 -0.0364
  173MOL0     C23277   3.824   7.534   4.399  0.5095  0.1299 -0.4138
  173MOL0     C23278   3.929   7.592   4.472 -0.1264 -0.0971 -0.5493
  173MOL0     O23279   3.955   7.567   4.603 -0.3254  0.2720  0.3716
  173MOL0     C23280   4.076   7.510   4.638  0.3008  0.4775 -0.3042
  173MOL0     C23281   4.072   7.359   4.627 -0.1846 -0.1404 -0.0104
  173MOL0     C23282   4.061   7.310   4.489 -0.1360  0.4261  0.2083
  173MOL0     C23283   4.100   7.163   4.498  0.3860 -0.2082 -0.0012
  173MOL0     C23284   4.080   7.097   4.367  0.5914 -0.2622  0.8385
  173MOL0     C23285   4.060   7.061   4.247  0.7257 -0.5402 -0.2750
  173MOL0     C23286   3.998   7.690   4.410  0.6376 -0.2829 -0.0406
  173MOL0     C23287   3.970   7.719   4.277 -0.9735 -0.3070  0.3495
  173MOL0     H23288   3.785   7.389   3.850 -3.1656 -1.4955 -0.7840
  173MOL0     H23289   3.806   7.363   3.600 -0.3569  1.5497 -2.2588
  173MOL0     H23290   3.917   7.589   3.353  2.6412 -0.5619 -5.2696
  173MOL0     H23291   3.859   7.426   3.315 -0.8018  0.3408 -1.0968
  173MOL0     H23292   3.847   7.556   3.113 -2.7009  1.6304 -2.6122
  173MOL0     H23293   3.685   7.538   3.170 -1.9851  1.8571 -1.1326
  173MOL0     H23294   3.689   7.770   3.264 -1.3861  0.0378 -2.5929
  173MOL0     H23295   3.861   7.781   3.234 -0.4123  0.8024 -3.4106
  173MOL0     H23296   3.734   7.908   3.067  0.0863 -0.3077  1.8256
  173MOL0     H23297   3.823   7.769   2.997  3.8961  4.5698  2.3944
  173MOL0     H23298   3.552   7.703   3.075  1.4175 -1.7267 -0.3027
  173MOL0     H23299   3.549   7.832   2.955 -3.7034 -2.3910  0.2225
  173MOL0     H23300   3.703   7.577   2.924 -0.1589  0.5400  1.3626
  173MOL0     H23301   3.535   7.591   2.872 -0.4945  0.1498  1.4233
  173MOL0     H23302   3.567   7.738   2.699  0.3702  0.2997 -2.9254
  173MOL0     H23303   3.720   7.795   2.767 -1.2294  0.1001 -0.6942
  173MOL0     H23304   3.805   7.558   2.708 -0.8522 -1.7359  0.7011
  173MOL0     H23305   3.775   7.669   2.570  2.2515  1.1552  2.6307
  173MOL0     H23306   3.513   7.649   2.468  2.8292  0.9883  0.8533
  173MOL0     H23307   3.276   7.529   2.408 -0.5231  0.2113  0.7277
  173MOL0     H23308   3.388   7.476   2.280 -1.1305  0.1325 -0.3190
  173MOL0     H23309   3.214   7.334   2.242 -0.1253 -0.4932  0.2545
  173MOL0     H23310   3.186   7.307   2.411 -2.1334  3.8134 -0.6320
  173MOL0     H23311   3.393   7.149   2.424 -2.4277 -1.8247  0.3160
  173MOL0     H23312   3.444   7.211   2.265 -1.2747 -1.1110 -0.7553
  173MOL0     H23313   3.204   7.111   2.202 -2.6743 -2.8241  1.0756
  173MOL0     H23314   3.252   6.995   2.322 -1.1402 -0.6637 -1.9835
  173MOL0     H23315   3.557   6.918   2.009 -0.5082 -1.9219 -0.3428
  173MOL0     H23316   3.705   6.760   1.934  2.2769  0.9535 -0.8327
  173MOL0     H23317   3.852   6.765   2.023 -0.3854  0.2433 -3.2247
  173MOL0     H23318   3.732   6.626   2.038 -0.5254 -0.0096  1.1139
  173MOL0     H23319   4.096   6.680   2.444  3.8681  0.2758  1.6237
  173MOL0     H23320   4.325   6.564   2.450  1.3522 -1.0413  0.4740
  173MOL0     H23321   4.451   6.397   2.449 -2.4521  2.0924 -1.0879
  173MOL0     H23322   4.414   6.252   2.355  4.5870 -2.5070  1.3709
  173MOL0     H23323   4.659   6.287   2.428 -2.5041 -1.1926  0.0550
  173MOL0     H23324   4.617   6.244   2.261  0.6386  3.1190 -2.5929
  173MOL0     H23325   4.666   6.535   2.334  1.9168  2.4957 -1.0094
  173MOL0     H23326   4.645   6.468   2.175  0.8838 -0.6553  0.1767
  173MOL0     H23327   4.881   6.347   2.325 -1.9440 -0.0366  1.7703
  173MOL0     H23328   4.841   6.343   2.161  0.1717 -2.9313  2.4670
  173MOL0     H23329   4.886   6.622   2.274  0.5047 -1.2376  1.2178
  173MOL0     H23330   4.895   6.564   2.115 -0.4491 -0.4843 -0.1679
  173MOL0     H23331   5.122   6.436   2.205 -0.0105  0.8484 -1.6036
  173MOL0     H23332   5.124   6.603   2.195  0.1963 -0.0467 -0.6141
  173MOL0     H23333   5.183   6.463   2.444  3.3527  2.7465  0.6648
  173MOL0     H23334   5.019   6.520   2.458  1.3131  1.4176  2.4962
  173MOL0     H23335   5.219   6.638   2.551 -0.8564 -0.3617 -0.1302
  173MOL0     H23336   5.099   6.744   2.462 -0.5676  0.2793  0.9015
  173MOL0     H23337   4.285   6.447   2.049  0.4728  1.4741 -0.9447
  173MOL0     H23338   4.039   6.549   2.039 -0.4168  1.8612  0.2082
  173MOL0     H23339   3.612   6.783   2.478  1.4272 -0.9703  0.7846
  173MOL0     H23340   3.420   6.909   2.405 -2.8683 -2.4294 -1.4338
  173MOL0     H23341   3.727   7.781   3.553  0.5831  0.2486  0.6214
  173MOL0     H23342   3.743   7.808   3.804  2.0607 -0.0677 -0.1033
  173MOL0     H23343   3.717   7.508   4.208 -0.5207  0.6798  0.8176
  173MOL0     H23344   3.768   7.459   4.455 -0.5104  1.7577  0.8244
  173MOL0     H23345   4.149   7.553   4.568 -0.1188  1.1814 -0.3101
  173MOL0     H23346   4.116   7.547   4.733 -0.4570 -0.0971  0.2443
  173MOL0     H23347   3.987   7.323   4.685  0.0988  0.5740  0.8746
  173MOL0     H23348   4.164   7.330   4.679 -0.6132  0.3942  1.0874
  173MOL0     H23349   4.135   7.359   4.425  1.0210 -0.0923  1.0999
  173MOL0     H23350   3.960   7.315   4.447 -1.5989  2.1560  3.5485
  173MOL0     H23351   4.013   7.126   4.554  0.0515  2.1819  1.1996
  173MOL0     H23352   4.201   7.139   4.531  0.4133 -2.6083 -1.5957
  173MOL0     H23353   4.031   7.024   4.150  0.0488 -2.8873  0.7475
  173MOL0     H23354   4.073   7.737   4.473 -0.4160  0.9416  0.3464
  173MOL0     H23355   4.036   7.789   4.227  0.2492 -1.6488  0.0364
  174MOL0     O23356   8.402   5.859   1.946  0.1293 -0.1355 -0.2313
  174MOL0     C23357   8.445   5.775   1.864  0.0684  0.0794  0.1817
  174MOL0     O23358   8.357   5.700   1.787  0.2422  0.8614 -0.2761
  174MOL0     C23359   8.224   5.717   1.814  0.9191  0.5291 -0.3600
  174MOL0     C23360   8.141   5.776   1.720 -0.0836  0.0047  0.4376
  174MOL0     C23361   8.002   5.766   1.738 -0.3390  0.1619  0.1889
  174MOL0     C23362   7.949   5.727   1.860 -0.6490 -0.5696 -0.9832
  174MOL0     O23363   7.810   5.722   1.898 -0.3899 -0.0088 -1.2588
  174MOL0     C23364   7.708   5.735   1.801  0.2733 -0.2284 -0.0985
  174MOL0     C23365   7.683   5.612   1.719  0.4789 -0.7164  0.4726
  174MOL0     C23366   7.588   5.512   1.797 -0.3990  0.6520 -0.0787
  174MOL0     C23367   7.601   5.369   1.748  0.2395  0.1216  0.3081
  174MOL0     C23368   7.474   5.349   1.655 -1.0141  0.0240 -0.2211
  174MOL0     C23369   7.476   5.197   1.593 -0.1017 -1.2606 -0.1012
  174MOL0     C23370   7.397   5.098   1.677 -0.2974  0.5402 -0.0034
  174MOL0     C23371   7.376   4.967   1.605  0.7759  0.1887 -0.0526
  174MOL0     N23372   7.263   4.991   1.512  0.0815 -0.6433  0.5091
  174MOL0     C23373   7.139   4.959   1.549 -0.0219 -0.5775 -0.6929
  174MOL0     C23374   7.060   4.968   1.438  0.2052 -1.0407 -0.2041
  174MOL0     C23375   6.913   4.959   1.425 -0.1055  0.5296  0.1035
  174MOL0     C23376   6.852   4.828   1.473 -0.5764  0.2995 -0.0034
  174MOL0     C23377   6.930   4.695   1.447  0.5111  0.4397 -0.2121
  174MOL0     C23378   6.854   4.581   1.513  0.4568  0.4374  0.0536
  174MOL0     O23379   6.900   4.454   1.468  0.1472 -0.5280 -0.8364
  174MOL0     C23380   6.857   4.415   1.347  0.4634 -1.3920  0.5894
  174MOL0     C23381   6.735   4.440   1.288  0.5324  0.2875  0.5613
  174MOL0     C23382   6.720   4.405   1.144 -0.0995 -0.8563 -0.9354
  174MOL0     C23383   6.585   4.434   1.074  0.1040  0.9827 -0.1877
  174MOL0     C23384   6.824   4.329   1.073 -0.5315  0.3866  1.4359
  174MOL0     C23385   6.818   4.275   0.925 -0.0004  0.1752  0.3084
  174MOL0     O23386   6.945   4.260   0.880 -0.5247  0.3210  0.0697
  174MOL0     C23387   6.969   4.184   0.764 -0.2788 -0.4338  0.0711
  174MOL0     C23388   6.951   4.043   0.763  0.2334  0.1796  0.6648
  174MOL0     C23389   6.997   3.976   0.655 -0.4626 -0.4511  0.5469
  174MOL0     C23390   7.057   4.035   0.547  0.8928  0.7407 -0.6728
  174MOL0     O23391   7.107   3.957   0.452  0.4261  0.9814  0.9882
  174MOL0     C23392   7.007   3.922   0.347  0.5271  0.8278 -0.2107
  174MOL0     C23393   6.999   4.038   0.241  0.2013  1.3652 -0.6104
  174MOL0     C23394   7.130   4.058   0.163 -0.2328 -0.2665  0.2318
  174MOL0     C23395   7.137   3.966   0.047  0.8248  0.2145  0.8934
  174MOL0     C23396   7.280   3.949   0.008 -0.1531  0.2069 -0.0327
  174MOL0     C23397   7.286   3.862  -0.123 -0.1299 -0.0151 -0.3475
  174MOL0     C23398   7.439   3.840  -0.149  0.1553  0.2688 -0.1955
  174MOL0     C23399   7.454   3.808  -0.300  0.1616 -0.0036 -0.2629
  174MOL0    Cl23400   7.617   3.769  -0.343  0.1210 -0.0352 -0.3097
  174MOL0     C23401   7.059   4.181   0.538  0.0339 -0.0145  0.3940
  174MOL0     C23402   7.015   4.252   0.648  0.8060 -0.3015  0.3167
  174MOL0     O23403   6.711   4.241   0.864 -0.5524  0.0072 -0.5164
  174MOL0     C23404   6.949   4.308   1.148  0.7064 -0.6032 -0.1545
  174MOL0     C23405   6.962   4.355   1.272 -0.3676 -0.5041 -0.3203
  174MOL0     N23406   7.147   5.013   1.330 -0.8597  0.2095 -0.1467
  174MOL0     N23407   7.270   5.018   1.376  0.3418 -1.3919 -0.4066
  174MOL0     C23408   8.038   5.678   1.960 -0.3323 -0.0184  0.6027
  174MOL0     C23409   8.170   5.661   1.931 -0.0931 -0.3330 -1.0172
  174MOL0     C23410   8.597   5.753   1.869  0.3363  0.6663 -0.6240
  174MOL0     C23411   8.654   5.649   1.777  0.7248 -0.6758 -0.7900
  174MOL0     C23412   8.796   5.627   1.758  0.7440 -0.4067  0.1122
  174MOL0     C23413   8.883   5.698   1.834 -0.4878 -0.0316 -0.5095
  174MOL0     O23414   9.017   5.666   1.802 -0.1645 -0.3584 -0.4550
  174MOL0     C23415   9.082   5.773   1.728  0.1502  0.0369  0.3076
  174MOL0     C23416   9.149   5.702   1.611 -0.3838  0.0744 -0.8337
  174MOL0     C23417   9.226   5.794   1.514 -0.1702  0.5404  0.2290
  174MOL0     C23418   9.129   5.872   1.429 -0.8360  0.8339 -0.2259
  174MOL0     C23419   9.068   5.984   1.496  0.1537 -0.6717  0.0962
  174MOL0     C23420   9.027   6.073   1.574 -0.4171 -0.1251  0.2722
  174MOL0     C23421   8.837   5.811   1.916  0.0312  0.5990  0.2833
  174MOL0     C23422   8.698   5.839   1.931  0.1381 -0.3861 -0.7486
  174MOL0     H23423   8.173   5.836   1.635 -0.5802  0.1939  0.3798
  174MOL0     H23424   7.937   5.797   1.658  0.0247 -2.9661 -1.4797
  174MOL0     H23425   7.613   5.766   1.847  1.5688  2.7059  0.8430
  174MOL0     H23426   7.738   5.813   1.730  2.0006 -0.5945  0.1855
  174MOL0     H23427   7.643   5.628   1.619  0.3544 -2.1933  0.2542
  174MOL0     H23428   7.783   5.573   1.696 -0.1594 -0.7059 -2.8540
  174MOL0     H23429   7.617   5.515   1.903 -3.7306  1.3667  0.9034
  174MOL0     H23430   7.486   5.548   1.790 -0.5445  0.5306  1.1798
  174MOL0     H23431   7.697   5.369   1.694 -0.3511  7.5126 -1.9231
  174MOL0     H23432   7.613   5.298   1.830  2.5782 -0.9433 -0.8654
  174MOL0     H23433   7.382   5.373   1.710 -0.2940  3.1618 -0.2191
  174MOL0     H23434   7.490   5.417   1.572  0.7596  0.6648  0.5993
  174MOL0     H23435   7.426   5.206   1.496  0.9983  3.9749 -0.5207
  174MOL0     H23436   7.579   5.162   1.589 -0.2606 -1.7456  0.0343
  174MOL0     H23437   7.452   5.081   1.770  1.8778  4.3728 -0.3843
  174MOL0     H23438   7.296   5.134   1.698 -0.7863 -1.3804  1.3109
  174MOL0     H23439   7.344   4.887   1.673  0.6037  0.6225  0.3828
  174MOL0     H23440   7.466   4.940   1.549 -0.6375  0.1736 -2.4293
  174MOL0     H23441   7.113   4.936   1.651  3.4215 -2.4709 -0.0741
  174MOL0     H23442   6.878   5.051   1.472  0.2099 -0.8116  3.2248
  174MOL0     H23443   6.881   4.968   1.321 -3.0968  0.1284  0.9080
  174MOL0     H23444   6.756   4.826   1.422  0.7449 -0.6350 -2.6416
  174MOL0     H23445   6.834   4.833   1.581  2.2723 -0.2927  0.5850
  174MOL0     H23446   7.033   4.701   1.485  1.5670 -2.2528 -2.2921
  174MOL0     H23447   6.946   4.675   1.341  1.4649  0.2227 -0.0367
  174MOL0     H23448   6.745   4.587   1.509  0.4351  0.6189  0.7461
  174MOL0     H23449   6.869   4.586   1.621 -0.4115  1.6636  0.1344
  174MOL0     H23450   6.654   4.475   1.351 -2.8185 -1.0680 -2.6437
  174MOL0     H23451   6.598   4.503   0.990  0.2232  0.2070 -0.8263
  174MOL0     H23452   6.541   4.349   1.021 -0.4695  0.3686  1.2226
  174MOL0     H23453   6.511   4.477   1.141  0.2400  4.5664 -2.1236
  174MOL0     H23454   6.899   3.991   0.843  3.0373 -1.9328  1.2750
  174MOL0     H23455   6.993   3.867   0.651 -2.6490 -0.3898 -2.1501
  174MOL0     H23456   7.035   3.824   0.308  2.0068  0.4393  1.6635
  174MOL0     H23457   6.913   3.899   0.398  0.5238  0.1100 -0.5299
  174MOL0     H23458   6.919   4.000   0.176 -1.7792  0.0776  2.3040
  174MOL0     H23459   6.963   4.128   0.291 -0.8714  1.3009 -1.2222
  174MOL0     H23460   7.213   4.031   0.230  0.9616 -3.9005 -2.4363
  174MOL0     H23461   7.154   4.159   0.130  2.5603 -0.3305  1.6933
  174MOL0     H23462   7.080   3.874   0.063 -0.5419  0.9545  0.3982
  174MOL0     H23463   7.075   4.012  -0.031 -0.2742 -2.2600  0.2046
  174MOL0     H23464   7.344   3.895   0.077  1.6361 -0.5210 -2.1365
  174MOL0     H23465   7.330   4.044  -0.012  0.2887 -0.0707 -0.2645
  174MOL0     H23466   7.227   3.774  -0.097  0.1712 -0.8245 -2.2436
  174MOL0     H23467   7.228   3.905  -0.205 -0.3449  0.6984  0.1659
  174MOL0     H23468   7.481   3.757  -0.091 -1.5477 -0.0543  0.6126
  174MOL0     H23469   7.490   3.932  -0.119  0.8739  0.0429 -0.6862
  174MOL0     H23470   7.422   3.892  -0.363 -0.5125 -0.3530 -0.4046
  174MOL0     H23471   7.385   3.725  -0.321 -2.7602  1.5652  2.2416
  174MOL0     H23472   7.104   4.233   0.454 -1.3513  0.9610  0.2383
  174MOL0     H23473   7.028   4.359   0.644 -1.8898  0.0862 -0.6462
  174MOL0     H23474   7.032   4.246   1.114  0.6877 -0.1095 -1.1345
  174MOL0     H23475   7.057   4.326   1.317  0.6360 -1.9834 -3.1217
  174MOL0     H23476   7.990   5.635   2.048 -0.8457  1.4577  1.0784
  174MOL0     H23477   8.237   5.602   1.992 -1.1038 -1.3986 -0.9063
  174MOL0     H23478   8.595   5.584   1.713  2.9130 -1.0757 -2.5404
  174MOL0     H23479   8.831   5.554   1.686  0.9057 -1.1451  0.9207
  174MOL0     H23480   8.999   5.829   1.683  1.2597  1.8479  0.3702
  174MOL0     H23481   9.139   5.853   1.777 -0.8294  2.7646 -2.6013
  174MOL0     H23482   9.086   5.643   1.544  0.0728  0.9216 -2.0487
  174MOL0     H23483   9.217   5.632   1.661 -3.1272 -1.5328  0.9135
  174MOL0     H23484   9.288   5.735   1.446 -0.6692  1.0089 -0.6595
  174MOL0     H23485   9.290   5.864   1.567  0.1904  0.7437 -0.4633
  174MOL0     H23486   9.066   5.802   1.373 -0.2537  0.7584 -0.8016
  174MOL0     H23487   9.194   5.923   1.357  0.8668  1.1514  1.4772
  174MOL0     H23488   8.991   6.152   1.637 -3.1035  0.6471 -2.0097
  174MOL0     H23489   8.906   5.882   1.961  1.6208 -0.0717 -0.9724
  174MOL0     H23490   8.657   5.918   1.993 -0.5920 -0.0416 -1.6436
  175MOL0     O23491   1.172   7.445   6.655  0.4475  0.6983 -0.7774
  175MOL0     C23492   1.124   7.457   6.539 -0.2587  0.4477 -0.2924
  175MOL0     O23493   1.029   7.374   6.477  1.0881  0.1930  0.2638
  175MOL0     C23494   0.973   7.270   6.545 -0.0054  0.9748  0.4421
  175MOL0     C23495   1.004   7.133   6.510 -0.6474 -0.3030  0.7370
  175MOL0     C23496   0.962   7.031   6.592 -0.1207  0.7004 -0.7216
  175MOL0     C23497   0.897   7.061   6.713  0.0645 -0.4445 -0.0662
  175MOL0     O23498   0.879   6.961   6.795 -0.1134 -0.1064  0.2604
  175MOL0     C23499   0.962   6.976   6.906 -1.1730  0.6398  0.2224
  175MOL0     C23500   0.928   6.864   6.997 -0.2594 -0.2359 -0.5573
  175MOL0     C23501   0.991   6.877   7.138  0.5880  1.0482  0.1157
  175MOL0     C23502   0.960   6.751   7.221  0.5511  0.0848  0.2000
  175MOL0     C23503   1.014   6.773   7.361  0.2367  0.5959 -0.5394
  175MOL0     C23504   0.970   6.660   7.462 -0.5094  0.7691  0.4064
  175MOL0     C23505   0.990   6.717   7.609  0.7258 -0.2281 -0.0684
  175MOL0     C23506   0.867   6.790   7.668 -0.2770 -0.7202  0.9233
  175MOL0     N23507   0.877   6.799   7.815 -0.4970  0.4836  0.0090
  175MOL0     C23508   0.908   6.695   7.904  0.0746 -0.0639  0.7184
  175MOL0     C23509   0.854   6.730   8.022 -0.5498  1.0699 -0.1176
  175MOL0     C23510   0.848   6.641   8.144  0.8051 -0.0823  0.2444
  175MOL0     C23511   0.913   6.694   8.272 -0.7499  0.2657  1.0843
  175MOL0     C23512   1.038   6.602   8.294  0.2628  0.4951  0.0586
  175MOL0     C23513   1.149   6.646   8.194 -0.1566  0.3650  0.4113
  175MOL0     O23514   1.133   6.579   8.070 -0.0176 -0.0748  0.3726
  175MOL0     C23515   1.228   6.592   7.974 -0.6693  0.5944 -0.2573
  175MOL0     C23516   1.230   6.482   7.885 -0.2685  0.3492  0.5132
  175MOL0     C23517   1.330   6.481   7.784 -0.5732  0.4682 -1.0556
  175MOL0     C23518   1.339   6.362   7.693  0.2127 -0.1197  1.1601
  175MOL0     C23519   1.434   6.582   7.780  0.3772 -0.0425 -0.3651
  175MOL0     C23520   1.553   6.590   7.696  0.0488  1.3944 -0.0192
  175MOL0     O23521   1.594   6.701   7.648 -0.0691  1.2058 -0.0710
  175MOL0     C23522   1.674   6.695   7.543 -0.3282 -0.0991 -0.5990
  175MOL0     C23523   1.809   6.663   7.552  0.1890  1.0338 -0.3385
  175MOL0     C23524   1.890   6.644   7.436  0.2988  0.1179  0.4233
  175MOL0     C23525   1.826   6.659   7.313 -0.2827  0.0767  0.0077
  175MOL0     O23526   1.890   6.648   7.197 -0.2701  0.3679  0.4149
  175MOL0     C23527   2.032   6.657   7.181  0.7416  0.0314 -0.7039
  175MOL0     C23528   2.076   6.806   7.175  0.8944  0.2900  0.3021
  175MOL0     C23529   2.215   6.828   7.214 -0.2046 -0.4402  0.3544
  175MOL0     C23530   2.304   6.740   7.121 -0.2795  0.4330  1.0083
  175MOL0     C23531   2.418   6.818   7.052 -0.7381  1.1929 -0.5587
  175MOL0     C23532   2.519   6.739   6.977  0.8113 -0.7190 -0.0368
  175MOL0     C23533   2.612   6.654   7.063  0.7280  0.2873 -0.1361
  175MOL0     C23534   2.741   6.624   6.983 -0.4125  1.1502 -0.5257
  175MOL0    Cl23535   2.720   6.555   6.809 -0.2915 -0.5180 -0.7257
  175MOL0     C23536   1.690   6.685   7.300 -0.1765 -0.2968  0.2707
  175MOL0     C23537   1.618   6.706   7.416 -0.1213 -0.2691  0.5655
  175MOL0     O23538   1.624   6.491   7.713 -0.1651  0.4475  0.4400
  175MOL0     C23539   1.424   6.687   7.869  0.4567 -0.5605  0.1979
  175MOL0     C23540   1.321   6.696   7.964  0.0198  0.8507 -1.1664
  175MOL0     N23541   0.790   6.847   8.012 -0.2325  0.0507 -0.1651
  175MOL0     N23542   0.795   6.887   7.885  0.2128 -0.6695  0.6679
  175MOL0     C23543   0.866   7.193   6.742  0.3262  0.7689  0.8834
  175MOL0     C23544   0.895   7.294   6.655  0.1974 -0.7745  0.5601
  175MOL0     C23545   1.156   7.576   6.463  0.3613 -0.2405  0.2021
  175MOL0     C23546   1.240   7.679   6.511  0.5478  0.7281 -0.1599
  175MOL0     C23547   1.248   7.803   6.449 -0.4455  1.5326 -0.1746
  175MOL0     C23548   1.159   7.831   6.346 -0.0379  0.5335  0.1052
  175MOL0     O23549   1.157   7.951   6.282 -0.0532 -0.6494  0.0216
  175MOL0     C23550   1.248   8.043   6.350  0.5617 -0.2247  0.1441
  175MOL0     C23551   1.233   8.184   6.283  0.2634  0.8287  0.1317
  175MOL0     C23552   1.308   8.303   6.347  0.2081  0.4322  0.4296
  175MOL0     C23553   1.455   8.288   6.362  0.1216  0.1809  0.1634
  175MOL0     C23554   1.476   8.214   6.486 -0.4669  0.8592 -0.5768
  175MOL0     C23555   1.495   8.140   6.586  0.9136  0.4300  0.7007
  175MOL0     C23556   1.088   7.722   6.286 -0.0482 -0.8024  0.9747
  175MOL0     C23557   1.090   7.596   6.341  0.4107  1.1307 -0.2950
  175MOL0     H23558   1.060   7.103   6.422 -1.7280  1.9777 -0.7988
  175MOL0     H23559   0.980   6.929   6.560  0.6588  0.5630  0.1079
  175MOL0     H23560   1.067   6.970   6.873 -1.4481  2.9418 -1.2922
  175MOL0     H23561   0.948   7.071   6.959  1.1516  1.0862  0.1481
  175MOL0     H23562   0.818   6.861   7.000 -0.4127  0.1240 -3.2603
  175MOL0     H23563   0.966   6.772   6.952 -2.4399 -1.4356 -0.1253
  175MOL0     H23564   1.098   6.884   7.115  0.4709 -1.7122 -1.8933
  175MOL0     H23565   0.959   6.968   7.189  0.8722  0.9349  0.4948
  175MOL0     H23566   0.851   6.738   7.217  0.2304  0.8639  3.5656
  175MOL0     H23567   1.008   6.661   7.183 -2.1537 -2.3417  2.1229
  175MOL0     H23568   1.123   6.775   7.357  0.3066 -0.5620  0.3849
  175MOL0     H23569   0.970   6.870   7.385 -0.5252  0.2055 -0.3307
  175MOL0     H23570   0.872   6.615   7.443 -0.2014  1.0247 -2.2322
  175MOL0     H23571   1.041   6.578   7.448 -2.5350 -1.1893  1.1089
  175MOL0     H23572   0.994   6.627   7.672 -0.2177 -0.0521  0.2646
  175MOL0     H23573   1.081   6.777   7.614  1.6059 -1.5755  1.5058
  175MOL0     H23574   0.778   6.733   7.639 -0.2378 -0.6743  0.7182
  175MOL0     H23575   0.857   6.889   7.624  1.3680 -2.2176 -3.2952
  175MOL0     H23576   0.968   6.606   7.892 -1.1278 -0.7623 -0.3010
  175MOL0     H23577   0.739   6.633   8.151  0.2893  2.1239 -2.9161
  175MOL0     H23578   0.891   6.545   8.115  0.5811  0.3601 -1.6614
  175MOL0     H23579   0.851   6.692   8.362  1.8908  2.1480  3.0733
  175MOL0     H23580   0.946   6.798   8.267  0.7687 -0.0888  2.7391
  175MOL0     H23581   1.013   6.496   8.283 -0.1803  0.8733 -4.2616
  175MOL0     H23582   1.064   6.618   8.399 -1.7900 -0.1918  0.7214
  175MOL0     H23583   1.246   6.622   8.240  0.3829  2.1167  0.2462
  175MOL0     H23584   1.140   6.754   8.185 -0.2994  0.4321  1.2435
  175MOL0     H23585   1.156   6.403   7.892  2.2600 -2.0221  2.4683
  175MOL0     H23586   1.257   6.291   7.711 -1.9628  1.8652 -0.3432
  175MOL0     H23587   1.334   6.390   7.588 -1.4750 -4.5335 -0.1560
  175MOL0     H23588   1.438   6.317   7.701 -0.1577 -1.3167 -0.5381
  175MOL0     H23589   1.850   6.649   7.651  2.9407  1.7158 -1.3028
  175MOL0     H23590   1.994   6.627   7.460 -0.2457 -1.6436  1.7711
  175MOL0     H23591   2.082   6.610   7.266  1.7192  0.6241 -0.9315
  175MOL0     H23592   2.059   6.611   7.085 -2.0492 -1.6925 -0.7714
  175MOL0     H23593   2.070   6.837   7.071 -0.2061  1.9552  0.8204
  175MOL0     H23594   2.014   6.873   7.235  0.7735 -0.2335  0.7718
  175MOL0     H23595   2.231   6.817   7.321 -0.1792  1.6509  0.6047
  175MOL0     H23596   2.234   6.933   7.189  4.4262 -0.7924  1.5151
  175MOL0     H23597   2.348   6.656   7.175  0.9292  0.0538 -0.4775
  175MOL0     H23598   2.250   6.708   7.031  0.6431  0.9187  0.2655
  175MOL0     H23599   2.475   6.857   7.137  0.1630 -3.4865  1.3185
  175MOL0     H23600   2.376   6.901   6.995 -1.4045  3.7032  3.2056
  175MOL0     H23601   2.459   6.673   6.913 -1.0164  1.2792 -0.5247
  175MOL0     H23602   2.569   6.809   6.909 -0.8336 -0.0628 -0.6461
  175MOL0     H23603   2.567   6.555   7.063  2.6810 -0.6557  0.8083
  175MOL0     H23604   2.631   6.689   7.165  4.4957 -3.1328  0.5972
  175MOL0     H23605   2.782   6.534   7.030 -3.3061 -0.4227 -0.8178
  175MOL0     H23606   2.803   6.714   6.983 -0.6527  1.4321 -3.8715
  175MOL0     H23607   1.633   6.695   7.208  0.1292  0.5136  0.1658
  175MOL0     H23608   1.517   6.741   7.402 -0.0883 -0.5066 -0.3370
  175MOL0     H23609   1.498   6.766   7.866  1.4884 -1.4841  0.6269
  175MOL0     H23610   1.310   6.775   8.038 -3.4143 -1.9215  1.6498
  175MOL0     H23611   0.822   7.220   6.838 -0.8401 -1.8121  1.1464
  175MOL0     H23612   0.863   7.393   6.688  1.6648 -0.7761  2.1427
  175MOL0     H23613   1.307   7.643   6.588  4.5780  4.6705 -1.3911
  175MOL0     H23614   1.318   7.867   6.501 -3.5271  1.7646  4.2004
  175MOL0     H23615   1.221   8.046   6.456  0.0057 -1.5144  0.0570
  175MOL0     H23616   1.350   8.005   6.344  0.3355 -1.1094  1.3649
  175MOL0     H23617   1.127   8.207   6.275  0.0396 -0.6071 -2.5902
  175MOL0     H23618   1.265   8.180   6.178  1.5373  5.8766  0.0597
  175MOL0     H23619   1.255   8.336   6.437  0.5179 -1.4547  1.3729
  175MOL0     H23620   1.294   8.378   6.269 -1.2948 -3.1057 -3.0520
  175MOL0     H23621   1.506   8.384   6.372 -0.8965  0.6220  1.4332
  175MOL0     H23622   1.490   8.226   6.279 -1.9901 -0.1327 -0.5699
  175MOL0     H23623   1.490   8.076   6.671  0.0370  1.6973  1.6495
  175MOL0     H23624   1.030   7.761   6.203 -0.5767  2.1220  2.5697
  175MOL0     H23625   1.027   7.515   6.304 -1.5359  1.0719  2.7572
  176MOL0     O23626   0.836  11.474   5.292  0.4498 -0.7842  0.3734
  176MOL0     C23627   0.900  11.378   5.242  0.3556 -0.1824  0.0297
  176MOL0     O23628   1.038  11.376   5.230  0.0348  0.9303 -0.3782
  176MOL0     C23629   1.111  11.495   5.234 -0.4685  0.5811 -0.7363
  176MOL0     C23630   1.225  11.492   5.323  0.5421  0.6228  0.9739
  176MOL0     C23631   1.311  11.603   5.314  0.5975 -0.2783 -0.8319
  176MOL0     C23632   1.280  11.723   5.249 -0.9703  0.0461 -0.1961
  176MOL0     O23633   1.377  11.815   5.263 -0.2430  0.7326  0.0108
  176MOL0     C23634   1.344  11.952   5.262  0.0505 -0.1509 -0.3243
  176MOL0     C23635   1.423  12.002   5.145  0.2868  0.5369  0.9130
  176MOL0     C23636   1.573  12.010   5.160 -1.5729 -0.0298 -0.3915
  176MOL0     C23637   1.636  12.081   5.039 -0.1899  0.2999 -0.1786
  176MOL0     C23638   1.789  12.117   5.036  0.7679  0.7904 -0.0038
  176MOL0     C23639   1.839  12.196   5.147 -0.3582 -0.2056 -0.3201
  176MOL0     C23640   1.800  12.344   5.142 -0.2804 -0.0810 -0.2398
  176MOL0     C23641   1.895  12.413   5.239  0.1656 -0.6320  0.0623
  176MOL0     N23642   1.846  12.544   5.281  0.2886 -0.2485  1.0206
  176MOL0     C23643   1.824  12.647   5.189  0.1134 -0.3216 -0.2531
  176MOL0     C23644   1.805  12.755   5.269 -0.0677  1.0624 -0.1218
  176MOL0     C23645   1.812  12.900   5.227 -0.2000  0.0092 -0.9630
  176MOL0     C23646   1.962  12.957   5.227  0.1721 -0.2625 -0.2642
  176MOL0     C23647   2.038  12.962   5.361 -0.1113  0.3473  0.2500
  176MOL0     C23648   1.960  13.014   5.474 -1.2485 -0.5549 -0.5280
  176MOL0     O23649   2.060  13.067   5.566  0.2787 -0.0473  1.1194
  176MOL0     C23650   2.030  13.073   5.698  0.1113 -0.3102  0.3623
  176MOL0     C23651   1.906  13.069   5.765  1.7566  0.1104 -0.0963
  176MOL0     C23652   1.885  13.069   5.910  0.2675  1.6822  0.5105
  176MOL0     C23653   1.740  13.057   5.969  0.2884  0.1857  0.7333
  176MOL0     C23654   2.000  13.100   5.983  0.2766  0.1068  0.0316
  176MOL0     C23655   2.005  13.101   6.136  0.2893 -1.3424  0.6613
  176MOL0     O23656   1.893  13.073   6.195  0.3066  0.6263  0.2390
  176MOL0     C23657   1.872  13.064   6.330  0.2283  0.3305 -0.5327
  176MOL0     C23658   1.899  12.940   6.388  0.0350 -0.1528 -0.7872
  176MOL0     C23659   1.914  12.926   6.525  0.3379 -0.6992  0.5412
  176MOL0     C23660   1.896  13.035   6.605  0.3560  0.3920  0.4863
  176MOL0     O23661   1.926  13.003   6.734 -0.3521 -0.3494 -0.6111
  176MOL0     C23662   1.865  13.075   6.847  0.0658  0.1342  0.1718
  176MOL0     C23663   1.870  12.983   6.963  0.0674  0.3117  0.5839
  176MOL0     C23664   1.833  13.058   7.090  0.4520 -0.3436  0.0373
  176MOL0     C23665   1.861  12.962   7.209 -0.7697 -0.0569  0.7716
  176MOL0     C23666   1.842  13.027   7.345  0.4015 -0.2658  0.2590
  176MOL0     C23667   1.939  13.142   7.374 -1.0815 -0.1797  0.0444
  176MOL0     C23668   1.936  13.203   7.514 -0.2138  0.3573  0.5915
  176MOL0     C23669   1.855  13.330   7.505 -0.3433  0.2966  0.1347
  176MOL0    Cl23670   1.859  13.407   7.666 -0.4624 -0.1277  0.5585
  176MOL0     C23671   1.850  13.161   6.555  0.4685 -0.7109 -0.5242
  176MOL0     C23672   1.851  13.170   6.410  0.5392  0.1929  0.1809
  176MOL0     O23673   2.118  13.118   6.195  0.0542 -0.6332  0.3270
  176MOL0     C23674   2.127  13.122   5.923  0.0669  0.7535  0.5424
  176MOL0     C23675   2.141  13.113   5.781 -1.2188  0.1187 -0.5680
  176MOL0     N23676   1.798  12.717   5.399  0.5897 -0.8006  0.7338
  176MOL0     N23677   1.827  12.589   5.411 -0.0048  0.0464 -1.0714
  176MOL0     C23678   1.167  11.725   5.171  0.5183  0.1448 -0.5198
  176MOL0     C23679   1.085  11.608   5.166 -0.5809 -0.5344  1.0897
  176MOL0     C23680   0.812  11.264   5.198  0.1796 -0.0615  1.0716
  176MOL0     C23681   0.872  11.154   5.143 -0.1367 -0.7071 -0.5295
  176MOL0     C23682   0.799  11.059   5.079  0.1392  0.0069  0.7340
  176MOL0     C23683   0.664  11.066   5.069  0.8903 -0.2955  0.2451
  176MOL0     O23684   0.597  10.963   5.002 -0.1576 -1.2288 -0.1415
  176MOL0     C23685   0.457  10.940   5.013  0.9299  0.6412  0.7465
  176MOL0     C23686   0.412  10.815   4.936  0.5096 -0.5376  0.1186
  176MOL0     C23687   0.493  10.685   4.946  0.2944  0.0673  0.1639
  176MOL0     C23688   0.447  10.618   5.076 -0.5775  0.1187 -0.5747
  176MOL0     C23689   0.529  10.492   5.104  0.3519  0.3088 -0.6598
  176MOL0     C23690   0.594  10.396   5.122  0.2870  0.7463 -0.7675
  176MOL0     C23691   0.597  11.171   5.138 -0.2092 -0.2570  0.8299
  176MOL0     C23692   0.674  11.267   5.196 -0.9618  0.3567 -0.6311
  176MOL0     H23693   1.255  11.394   5.359 -0.6562  0.0892  0.5885
  176MOL0     H23694   1.399  11.601   5.377 -0.8639 -2.8632  1.3381
  176MOL0     H23695   1.238  11.968   5.242 -0.4570 -0.0038  2.1941
  176MOL0     H23696   1.363  12.011   5.351  2.9785  2.2557 -2.3468
  176MOL0     H23697   1.392  11.944   5.057 -2.6525  0.8788  1.6183
  176MOL0     H23698   1.380  12.099   5.118 -2.1562 -1.1703 -2.1144
  176MOL0     H23699   1.593  12.055   5.258  0.4404 -0.2877 -0.6502
  176MOL0     H23700   1.612  11.908   5.154 -1.4815  0.0144 -0.5354
  176MOL0     H23701   1.611  12.022   4.950  0.4315 -3.3023  1.8055
  176MOL0     H23702   1.583  12.177   5.036 -1.0211 -0.1547 -3.0627
  176MOL0     H23703   1.836  12.019   5.026  1.1295  0.8427  1.0276
  176MOL0     H23704   1.805  12.173   4.944  2.2478  2.8623  1.4293
  176MOL0     H23705   1.808  12.153   5.243  0.7090 -0.2449  0.0250
  176MOL0     H23706   1.948  12.196   5.154 -0.1359 -1.0194 -2.9979
  176MOL0     H23707   1.808  12.380   5.040 -0.2523 -0.6946 -0.4617
  176MOL0     H23708   1.698  12.363   5.175 -0.2957  2.7159 -1.6285
  176MOL0     H23709   1.990  12.410   5.185 -0.6444  0.0193 -1.4769
  176MOL0     H23710   1.896  12.353   5.330 -2.3332  0.7599  1.1015
  176MOL0     H23711   1.827  12.657   5.081  1.3994  1.8362 -0.0658
  176MOL0     H23712   1.753  12.910   5.135  1.7469 -0.8395 -2.3957
  176MOL0     H23713   1.754  12.961   5.296 -0.2376  1.2648 -2.0703
  176MOL0     H23714   1.964  13.063   5.200  0.0522 -0.2929 -0.3949
  176MOL0     H23715   2.023  12.894   5.161  1.0686 -0.4803  0.7479
  176MOL0     H23716   2.119  13.030   5.333  1.8864 -1.5462  1.1024
  176MOL0     H23717   2.085  12.864   5.374  1.1023  0.8349 -0.2920
  176MOL0     H23718   1.912  12.925   5.514 -0.0020 -1.7262 -1.5229
  176MOL0     H23719   1.888  13.089   5.440 -0.9607 -0.2562 -0.4864
  176MOL0     H23720   1.818  13.052   5.703  1.9482  2.3198 -1.0816
  176MOL0     H23721   1.669  13.031   5.891 -2.4190  0.0970  3.0730
  176MOL0     H23722   1.728  12.970   6.034  0.0824  0.8227  1.5645
  176MOL0     H23723   1.718  13.156   6.010 -0.6213  2.0048 -3.6339
  176MOL0     H23724   1.916  12.850   6.330  3.4598 -1.5565  1.9914
  176MOL0     H23725   1.933  12.826   6.562  3.5924 -0.9551 -1.3738
  176MOL0     H23726   1.913  13.172   6.862 -0.8995  1.1505 -2.6459
  176MOL0     H23727   1.761  13.100   6.827  0.5103  0.8122 -1.4512
  176MOL0     H23728   1.800  12.900   6.950  1.0311 -0.7211  1.6992
  176MOL0     H23729   1.970  12.941   6.972 -0.4673 -1.6384 -1.6799
  176MOL0     H23730   1.730  13.095   7.081  0.1908 -1.1337 -0.3611
  176MOL0     H23731   1.902  13.143   7.093  0.5662 -0.3455 -1.6089
  176MOL0     H23732   1.798  12.873   7.199  0.1129 -0.5743 -0.2615
  176MOL0     H23733   1.962  12.922   7.204 -0.1264  1.1144  2.9015
  176MOL0     H23734   1.874  12.953   7.419  3.4579 -1.7870 -2.3281
  176MOL0     H23735   1.737  13.055   7.354  0.7082  1.9484 -1.9287
  176MOL0     H23736   2.035  13.090   7.362 -1.3888 -0.4176 -1.8098
  176MOL0     H23737   1.922  13.221   7.300 -0.8464  2.0238  2.2357
  176MOL0     H23738   2.033  13.234   7.553  0.6434  0.2917 -1.3884
  176MOL0     H23739   1.885  13.134   7.582 -0.8807 -0.8819 -1.0905
  176MOL0     H23740   1.751  13.308   7.478 -1.2451  0.3029  3.2169
  176MOL0     H23741   1.894  13.398   7.429 -0.8655  0.2388 -0.1952
  176MOL0     H23742   1.838  13.256   6.607 -2.5174  0.3917 -2.8681
  176MOL0     H23743   1.845  13.264   6.355 -2.7331  0.1735  0.3182
  176MOL0     H23744   2.220  13.142   5.976  2.5631  1.3051 -3.5230
  176MOL0     H23745   2.236  13.119   5.728 -1.0676  0.6835 -0.2350
  176MOL0     H23746   1.155  11.815   5.112  3.3155  1.0267  0.0998
  176MOL0     H23747   1.000  11.607   5.099  0.7092  1.4945 -0.7340
  176MOL0     H23748   0.980  11.144   5.145 -0.0405  0.2752  0.4304
  176MOL0     H23749   0.838  10.969   5.033 -2.8784 -0.6082 -0.8640
  176MOL0     H23750   0.428  10.927   5.118 -1.3680  1.2069  0.2189
  176MOL0     H23751   0.402  11.028   4.981  0.3095  0.1366  0.4178
  176MOL0     H23752   0.432  10.851   4.835  0.3545 -1.6307 -0.3201
  176MOL0     H23753   0.304  10.809   4.946  0.6045  0.5922  6.5134
  176MOL0     H23754   0.601  10.699   4.938  0.2708 -0.2762 -1.0035
  176MOL0     H23755   0.460  10.619   4.865 -1.2164 -0.5252  1.2160
  176MOL0     H23756   0.342  10.589   5.071 -1.0126  1.7472 -1.6359
  176MOL0     H23757   0.452  10.684   5.164  3.9065 -2.5698  1.5590
  176MOL0     H23758   0.640  10.300   5.137 -0.1849 -0.1671 -4.2610
  176MOL0     H23759   0.488  11.176   5.136 -0.5219 -3.4295 -3.6511
  176MOL0     H23760   0.616  11.356   5.221 -2.7793 -0.1606 -2.7127
  177MOL0     O23761  11.132   8.719   2.976 -0.1376 -0.0545  0.2051
  177MOL0     C23762  11.127   8.808   3.065  0.0624 -0.5021  0.2092
  177MOL0     O23763  11.075   8.934   3.051 -0.1413 -0.3051  0.3600
  177MOL0     C23764  11.028   8.963   2.929  0.3710 -0.0529 -0.5555
  177MOL0     C23765  11.108   9.025   2.833  0.6496  0.0837 -0.2495
  177MOL0     C23766  11.064   9.053   2.702  0.1582 -0.1068  0.1770
  177MOL0     C23767  10.937   9.014   2.674 -0.0249  1.2579  0.4594
  177MOL0     O23768  10.918   9.004   2.538  0.3788  0.3210 -0.6405
  177MOL0     C23769  10.794   9.057   2.489  0.8289 -0.2262  0.4267
  177MOL0     C23770  10.775   9.204   2.508 -0.8415  0.6503  0.2407
  177MOL0     C23771  10.632   9.250   2.465  0.1963  0.6182  0.3534
  177MOL0     C23772  10.538   9.237   2.583 -0.0847 -0.1499 -1.0780
  177MOL0     C23773  10.413   9.331   2.554 -0.7217 -0.1395  0.2445
  177MOL0     C23774  10.309   9.330   2.663 -0.2531  0.9714  0.1037
  177MOL0     C23775  10.244   9.198   2.718  0.9402 -0.2464 -0.1130
  177MOL0     C23776  10.166   9.110   2.608  0.1376  0.0585 -0.0933
  177MOL0     N23777  10.137   8.975   2.652 -0.1438 -0.4271 -0.7842
  177MOL0     C23778  10.190   8.904   2.761 -0.4069 -0.3296  0.2414
  177MOL0     C23779  10.141   8.776   2.740 -0.8937 -0.8102 -0.7654
  177MOL0     C23780  10.149   8.651   2.815 -0.5652 -0.0604 -0.2228
  177MOL0     C23781  10.299   8.603   2.827  0.5623 -0.1347  0.4432
  177MOL0     C23782  10.303   8.493   2.944 -0.5533 -0.4997  0.1710
  177MOL0     C23783  10.430   8.411   2.942 -0.0967  0.1757 -1.2231
  177MOL0     O23784  10.460   8.348   2.821  0.1857 -0.1785  0.5253
  177MOL0     C23785  10.388   8.250   2.777  0.0871  1.0912 -0.2703
  177MOL0     C23786  10.352   8.136   2.854 -0.1770 -0.2448  0.1889
  177MOL0     C23787  10.263   8.029   2.802 -0.7325 -0.1266  0.2090
  177MOL0     C23788  10.234   7.916   2.897 -0.3832  0.2706  1.1034
  177MOL0     C23789  10.227   8.042   2.665 -0.3537  0.2613  0.7074
  177MOL0     C23790  10.153   7.943   2.576 -0.2957 -0.1797 -0.6029
  177MOL0     O23791  10.145   7.962   2.441  0.1659 -0.3675  0.1542
  177MOL0     C23792  10.088   7.859   2.365 -0.1983 -0.0652 -0.7605
  177MOL0     C23793  10.155   7.764   2.293 -0.4795  0.0767  0.8450
  177MOL0     C23794  10.085   7.688   2.203 -0.3182 -0.0417  1.1529
  177MOL0     C23795   9.945   7.699   2.180  0.3974  0.3209  0.6414
  177MOL0     O23796   9.872   7.637   2.092 -0.2062  0.3243  0.2541
  177MOL0     C23797   9.923   7.642   1.955 -0.6177 -0.1547 -0.2617
  177MOL0     C23798   9.842   7.562   1.861 -0.9021  0.5032 -0.3496
  177MOL0     C23799   9.841   7.610   1.717 -0.0123  0.8885 -0.2856
  177MOL0     C23800   9.772   7.747   1.708 -0.3012  0.5320  1.1255
  177MOL0     C23801   9.730   7.794   1.564 -0.4717  0.2451 -0.6983
  177MOL0     C23802   9.648   7.927   1.567 -0.3224 -0.7263  0.2099
  177MOL0     C23803   9.674   8.025   1.441  0.1522  0.3773 -0.8730
  177MOL0     C23804   9.806   8.104   1.462 -0.0169  0.1965  0.8214
  177MOL0    Cl23805   9.826   8.253   1.358 -0.0602  0.4932 -0.6134
  177MOL0     C23806   9.874   7.790   2.265 -0.2658 -0.3363  0.2285
  177MOL0     C23807   9.952   7.871   2.344 -0.2377  0.0227  0.0482
  177MOL0     O23808  10.107   7.842   2.635 -0.5308  0.4106  0.1468
  177MOL0     C23809  10.269   8.157   2.589 -1.0609  0.1252 -0.2962
  177MOL0     C23810  10.359   8.250   2.635  1.4867 -0.2781  0.6553
  177MOL0     N23811  10.035   8.786   2.647 -0.3721  0.5487  0.9447
  177MOL0     N23812  10.054   8.903   2.591  0.0316 -0.0122 -1.3694
  177MOL0     C23813  10.841   8.964   2.766 -0.8317 -0.5877  0.7308
  177MOL0     C23814  10.891   8.938   2.898  0.2121  0.5915 -0.1458
  177MOL0     C23815  11.192   8.767   3.198  0.3969 -0.0856 -0.5409
  177MOL0     C23816  11.248   8.869   3.278  0.3905  0.7242  0.2099
  177MOL0     C23817  11.313   8.837   3.405  0.0742 -0.2511  0.1854
  177MOL0     C23818  11.326   8.698   3.436 -0.3447  0.4494  0.2117
  177MOL0     O23819  11.422   8.654   3.529  1.1798  0.4824 -0.0260
  177MOL0     C23820  11.487   8.742   3.622 -0.5126  0.0288  0.1115
  177MOL0     C23821  11.398   8.772   3.743 -0.7793  0.2424  0.5640
  177MOL0     C23822  11.475   8.860   3.848  0.6559  1.1095  0.4086
  177MOL0     C23823  11.395   8.888   3.982 -0.2257  0.4598 -0.1006
  177MOL0     C23824  11.481   8.875   4.100 -0.0671  0.4364 -0.7766
  177MOL0     C23825  11.547   8.859   4.201 -0.1308  1.2108  0.4872
  177MOL0     C23826  11.267   8.600   3.356 -1.1480 -0.4660 -1.0360
  177MOL0     C23827  11.205   8.638   3.233  0.4193  0.1112  0.7317
  177MOL0     H23828  11.204   9.063   2.868  0.0932 -0.0106  1.4467
  177MOL0     H23829  11.130   9.099   2.629 -1.6558  1.7653 -0.3732
  177MOL0     H23830  10.789   9.029   2.383  1.6132  0.2642  0.2532
  177MOL0     H23831  10.716   9.004   2.545 -1.1238  1.0661 -0.9559
  177MOL0     H23832  10.800   9.236   2.610  3.3149  0.6637 -0.6125
  177MOL0     H23833  10.848   9.259   2.449 -1.2148  2.1335  1.1020
  177MOL0     H23834  10.636   9.354   2.431 -2.5396  0.1473 -1.8273
  177MOL0     H23835  10.598   9.201   2.373 -0.5109  2.5961 -0.4914
  177MOL0     H23836  10.509   9.133   2.600 -0.4548  0.1994  0.7586
  177MOL0     H23837  10.580   9.267   2.680 -4.5625  1.2967  0.7009
  177MOL0     H23838  10.458   9.429   2.536  0.2145 -0.9303 -2.0336
  177MOL0     H23839  10.354   9.292   2.470 -0.6924  1.2108 -0.4224
  177MOL0     H23840  10.347   9.380   2.753 -1.4708  3.4299 -0.6489
  177MOL0     H23841  10.226   9.394   2.632 -1.3334  0.5680  1.9966
  177MOL0     H23842  10.321   9.131   2.758 -0.5437 -1.2849  1.1491
  177MOL0     H23843  10.186   9.237   2.802  2.3639 -1.6957  1.6291
  177MOL0     H23844  10.231   9.096   2.521 -0.6462  1.4825 -0.9423
  177MOL0     H23845  10.073   9.158   2.578 -0.2796 -0.2766  0.6521
  177MOL0     H23846  10.254   8.916   2.849  0.3413 -2.7265  0.0801
  177MOL0     H23847  10.104   8.653   2.915  2.2006  0.8107  1.1165
  177MOL0     H23848  10.093   8.581   2.752 -0.8231 -0.8270  0.8190
  177MOL0     H23849  10.364   8.689   2.849 -0.2285  0.2148  1.4968
  177MOL0     H23850  10.328   8.558   2.732  0.3874 -0.4829  0.5538
  177MOL0     H23851  10.227   8.415   2.938  0.7017 -2.1862  3.5962
  177MOL0     H23852  10.296   8.545   3.040 -1.7425  1.4996 -0.9272
  177MOL0     H23853  10.423   8.347   3.031  0.7111  3.1170  1.1413
  177MOL0     H23854  10.514   8.482   2.942 -0.9752  1.2367 -1.6436
  177MOL0     H23855  10.402   8.130   2.951 -0.4108  1.3659  0.4382
  177MOL0     H23856  10.267   7.824   2.847 -1.5573 -0.6988  2.0586
  177MOL0     H23857  10.297   7.921   2.986  1.3759 -0.5791 -0.0305
  177MOL0     H23858  10.128   7.898   2.917 -0.2582  0.3103  1.8383
  177MOL0     H23859  10.261   7.741   2.300 -0.6388 -0.1546  3.4948
  177MOL0     H23860  10.132   7.622   2.131  1.0271  3.2493 -1.2361
  177MOL0     H23861   9.934   7.749   1.937 -3.6402 -0.0485 -2.1072
  177MOL0     H23862  10.017   7.586   1.945 -0.8188 -0.2622 -1.7011
  177MOL0     H23863   9.874   7.459   1.881 -1.1959  0.4663 -0.0622
  177MOL0     H23864   9.742   7.579   1.902 -0.2208  3.2515  0.3715
  177MOL0     H23865   9.778   7.547   1.653 -0.7676  1.8919 -0.5725
  177MOL0     H23866   9.944   7.609   1.681  0.9421  3.1914  2.0559
  177MOL0     H23867   9.688   7.744   1.778  0.0555 -2.1783  1.5387
  177MOL0     H23868   9.842   7.824   1.744 -1.5482  2.2134  0.1249
  177MOL0     H23869   9.671   7.715   1.517 -2.8823 -0.4423  3.0555
  177MOL0     H23870   9.821   7.812   1.507 -0.2399  1.0050 -0.1026
  177MOL0     H23871   9.541   7.905   1.575 -0.1035 -1.5628  1.0259
  177MOL0     H23872   9.674   7.976   1.661 -0.3184 -0.5261  0.1067
  177MOL0     H23873   9.598   8.103   1.429 -0.3638 -0.3375 -2.5546
  177MOL0     H23874   9.678   7.975   1.344 -2.9520  0.2009 -1.0059
  177MOL0     H23875   9.880   8.027   1.438 -0.0637  0.8818 -1.7382
  177MOL0     H23876   9.807   8.128   1.569 -0.7395  0.8085  0.6946
  177MOL0     H23877   9.770   7.819   2.261  0.2168  1.4006 -2.5678
  177MOL0     H23878   9.917   7.968   2.379 -2.2041 -0.7092  0.2332
  177MOL0     H23879  10.249   8.171   2.483  2.0266 -0.2230 -1.0227
  177MOL0     H23880  10.393   8.321   2.560  1.6007 -0.5518  0.4466
  177MOL0     H23881  10.744   8.922   2.743 -1.2833  1.3947 -1.3293
  177MOL0     H23882  10.826   8.894   2.974 -1.9409 -1.4971 -2.9468
  177MOL0     H23883  11.239   8.970   3.240  0.2755  1.1169  1.2396
  177MOL0     H23884  11.348   8.918   3.468  1.5418 -0.7450  0.0239
  177MOL0     H23885  11.585   8.702   3.649  1.2629  3.0412 -1.3157
  177MOL0     H23886  11.520   8.825   3.559 -2.5552  1.1751  0.4612
  177MOL0     H23887  11.357   8.675   3.772  0.9801 -1.0657 -1.0728
  177MOL0     H23888  11.314   8.834   3.709  0.4786  2.4985  1.3686
  177MOL0     H23889  11.523   8.951   3.809  5.5811 -1.8303 -1.3338
  177MOL0     H23890  11.560   8.795   3.872 -3.1283 -4.0236  1.6257
  177MOL0     H23891  11.304   8.828   3.988 -0.7130  1.2599  0.8745
  177MOL0     H23892  11.338   8.981   3.984  1.6707  1.7071 -0.9608
  177MOL0     H23893  11.603   8.857   4.292  0.1175  1.2805  0.3350
  177MOL0     H23894  11.272   8.493   3.374  1.6577 -0.0876  1.2282
  177MOL0     H23895  11.146   8.570   3.173 -0.9245  1.9044 -0.0567
  178MOL0     O23896   5.680   8.672   9.474  0.1934  0.5737  0.2579
  178MOL0     C23897   5.555   8.683   9.491 -0.0517  0.5621  0.2285
  178MOL0     O23898   5.497   8.636   9.596  0.1520 -0.5546  0.5641
  178MOL0     C23899   5.561   8.549   9.680 -0.3093  0.1868  0.0945
  178MOL0     C23900   5.573   8.576   9.821  0.2662 -0.2163 -0.8177
  178MOL0     C23901   5.615   8.478   9.908 -1.2981 -0.1091  0.2464
  178MOL0     C23902   5.675   8.356   9.868 -0.2300  0.4884 -0.2436
  178MOL0     O23903   5.697   8.265   9.968 -0.5900  0.5454 -0.2346
  178MOL0     C23904   5.796   8.161   9.941  0.4375 -1.1270 -0.2906
  178MOL0     C23905   5.716   8.030   9.906  0.0798 -0.1987  0.2767
  178MOL0     C23906   5.812   7.910   9.896 -0.1316  1.0305  0.4560
  178MOL0     C23907   5.729   7.785   9.869  0.4536 -0.1608  0.8930
  178MOL0     C23908   5.808   7.653   9.835 -0.5129 -0.4071 -0.4378
  178MOL0     C23909   5.717   7.528   9.849 -0.8849 -0.4123  0.3759
  178MOL0     C23910   5.768   7.404   9.776  0.0802  0.8544 -0.5508
  178MOL0     C23911   5.688   7.277   9.815  0.2825 -0.0984 -0.0894
  178MOL0     N23912   5.734   7.235   9.952 -0.0764 -0.8081 -0.0077
  178MOL0     C23913   5.843   7.153   9.977 -0.3583 -0.9106  0.2217
  178MOL0     C23914   5.827   7.123  10.111 -0.0599  1.1455  0.4893
  178MOL0     C23915   5.920   7.041  10.204 -1.5170 -0.4756  0.5789
  178MOL0     C23916   5.872   6.896  10.218  0.4948 -0.3936 -0.0177
  178MOL0     C23917   5.926   6.825  10.339  0.4007  0.5825 -1.0825
  178MOL0     C23918   5.862   6.688  10.364 -0.7482 -1.3547  0.1345
  178MOL0     O23919   5.918   6.621  10.472  0.4510 -1.1150 -0.5172
  178MOL0     C23920   5.988   6.506  10.448  1.4519  0.6937 -0.2603
  178MOL0     C23921   5.970   6.416  10.345  0.6802  0.6897 -0.0180
  178MOL0     C23922   6.044   6.291  10.342  0.8040 -0.5045  0.4416
  178MOL0     C23923   5.986   6.193  10.232 -0.7156 -0.4745 -0.5933
  178MOL0     C23924   6.137   6.269  10.436 -0.2250  0.8003 -0.8991
  178MOL0     C23925   6.220   6.145  10.447  0.5526  0.9966 -0.5904
  178MOL0     O23926   6.291   6.119  10.335 -0.0056  0.5686  0.2437
  178MOL0     C23927   6.345   5.994  10.336 -0.2685  0.3322 -0.2579
  178MOL0     C23928   6.474   5.976  10.391 -0.4795  0.2665  0.2464
  178MOL0     C23929   6.545   5.853  10.404 -0.2249 -0.3965 -0.2702
  178MOL0     C23930   6.477   5.747  10.341 -0.0744 -0.0912 -0.5190
  178MOL0     O23931   6.540   5.637  10.368 -0.1499  0.2264 -0.4104
  178MOL0     C23932   6.638   5.583  10.276  0.8604 -0.6006  0.5362
  178MOL0     C23933   6.548   5.496  10.178 -0.6636 -0.0419 -0.0933
  178MOL0     C23934   6.628   5.414  10.068 -0.2573  0.0402  0.6817
  178MOL0     C23935   6.530   5.331   9.987  0.1439 -0.4430  0.4805
  178MOL0     C23936   6.595   5.250   9.878  0.1324 -0.4474 -0.8139
  178MOL0     C23937   6.672   5.133   9.932 -0.1054 -0.1209  0.0387
  178MOL0     C23938   6.581   5.029   9.996 -0.9122 -1.2987 -0.3335
  178MOL0     C23939   6.675   4.931  10.070  0.1141 -0.4410 -0.1396
  178MOL0    Cl23940   6.597   4.776  10.113 -0.2440  0.2094 -0.4735
  178MOL0     C23941   6.350   5.761  10.287 -0.3358  0.3119 -0.5365
  178MOL0     C23942   6.280   5.887  10.282  0.7654 -0.5659 -0.8883
  178MOL0     O23943   6.227   6.075  10.554 -0.3626 -0.5614 -0.3965
  178MOL0     C23944   6.150   6.354  10.543  0.0578  0.2596  0.1163
  178MOL0     C23945   6.067   6.468  10.550 -0.7636  0.9722  0.5900
  178MOL0     N23946   5.712   7.185  10.165 -0.5555 -1.0923  0.5762
  178MOL0     N23947   5.658   7.244  10.063  1.1870  0.1606 -0.3778
  178MOL0     C23948   5.679   8.327   9.727 -0.0846  0.1550  0.1528
  178MOL0     C23949   5.627   8.425   9.637 -0.8516  0.0609  0.3688
  178MOL0     C23950   5.483   8.778   9.412  0.5149 -0.3033 -1.2039
  178MOL0     C23951   5.346   8.750   9.389 -0.4547  0.6484  1.0603
  178MOL0     C23952   5.282   8.822   9.287  0.2544  0.9706 -1.0236
  178MOL0     C23953   5.350   8.921   9.220  0.1623  0.2382  1.1786
  178MOL0     O23954   5.309   8.990   9.110 -0.1499 -0.1651 -0.7164
  178MOL0     C23955   5.193   8.943   9.034  0.6808 -0.0945  0.9508
  178MOL0     C23956   5.153   9.074   8.955  0.1023 -0.0886 -0.5078
  178MOL0     C23957   5.251   9.130   8.848 -0.1553  0.3723 -0.1712
  178MOL0     C23958   5.181   9.176   8.719  0.0475  0.2879 -0.3598
  178MOL0     C23959   5.084   9.275   8.760  0.2829 -0.0213 -0.2446
  178MOL0     C23960   5.011   9.362   8.794  0.0005  0.1848 -1.1419
  178MOL0     C23961   5.469   8.968   9.264 -0.8298 -0.0306 -0.1593
  178MOL0     C23962   5.541   8.889   9.352  0.6607 -0.1544 -0.5751
  178MOL0     H23963   5.542   8.671   9.863  2.3601  0.2466 -0.2076
  178MOL0     H23964   5.650   8.496  10.010  0.5863 -0.0675 -0.3627
  178MOL0     H23965   5.849   8.192   9.851  0.2546 -1.7156 -0.6028
  178MOL0     H23966   5.862   8.141  10.026  0.8125  2.2122  0.3405
  178MOL0     H23967   5.659   8.016   9.998 -1.8792  2.1913 -0.4569
  178MOL0     H23968   5.652   8.042   9.818  5.0237 -1.2552 -3.9296
  178MOL0     H23969   5.878   7.917   9.809 -0.3647 -1.0929  0.0455
  178MOL0     H23970   5.873   7.896   9.986  0.5391  1.1074  0.0180
  178MOL0     H23971   5.678   7.763   9.963  0.2969  2.9331  1.6285
  178MOL0     H23972   5.660   7.801   9.785  2.1661  1.2326 -0.3202
  178MOL0     H23973   5.846   7.668   9.734 -2.3320  0.2921 -1.0712
  178MOL0     H23974   5.880   7.628   9.913 -1.4676 -3.3172 -0.3783
  178MOL0     H23975   5.712   7.518   9.958 -0.2032 -1.8177  0.3097
  178MOL0     H23976   5.617   7.551   9.813 -0.4296  1.6408  0.3208
  178MOL0     H23977   5.758   7.424   9.669 -0.9402  2.8885 -0.1344
  178MOL0     H23978   5.876   7.383   9.779 -0.6778 -4.6454 -1.8314
  178MOL0     H23979   5.714   7.195   9.748  2.8461  0.7118 -0.2225
  178MOL0     H23980   5.579   7.286   9.812  0.3556  1.4076  0.6330
  178MOL0     H23981   5.920   7.124   9.907  0.7140  1.2113  0.4218
  178MOL0     H23982   6.020   7.033  10.161 -2.5694  0.0805 -2.1720
  178MOL0     H23983   5.932   7.078  10.306  0.8750 -2.0436  0.9509
  178MOL0     H23984   5.903   6.851  10.123  1.8711 -0.1564  0.3139
  178MOL0     H23985   5.762   6.900  10.220  0.5469  1.3348  1.0911
  178MOL0     H23986   5.906   6.893  10.423 -0.8921  2.1816 -2.6146
  178MOL0     H23987   6.035   6.822  10.338  0.4439 -3.5498 -2.4685
  178MOL0     H23988   5.861   6.628  10.273 -2.6001  1.3600 -1.8136
  178MOL0     H23989   5.756   6.709  10.384 -0.4424 -0.8543  1.3133
  178MOL0     H23990   5.886   6.428  10.278 -0.1947  1.3127  1.1407
  178MOL0     H23991   5.882   6.174  10.256 -0.6432  0.3861  0.4940
  178MOL0     H23992   5.996   6.241  10.134 -1.4556 -0.3280 -0.6002
  178MOL0     H23993   6.046   6.101  10.235  0.1242  0.0725  0.1653
  178MOL0     H23994   6.531   6.059  10.433  2.0863 -1.4764  0.4553
  178MOL0     H23995   6.651   5.839  10.424 -0.2135  0.1880  0.1182
  178MOL0     H23996   6.699   5.657  10.222  1.3404 -1.3865 -0.0190
  178MOL0     H23997   6.700   5.512  10.331 -0.8189 -0.6496  2.4562
  178MOL0     H23998   6.498   5.418  10.235  1.6974 -2.4776 -1.1230
  178MOL0     H23999   6.476   5.555  10.121 -1.7698  0.6017  1.9176
  178MOL0     H24000   6.700   5.354  10.125 -1.0286 -0.3973  1.2181
  178MOL0     H24001   6.675   5.493  10.009 -0.2506  1.4972  2.5180
  178MOL0     H24002   6.467   5.275  10.056 -2.0051 -0.7066 -1.5391
  178MOL0     H24003   6.461   5.404   9.943  0.6144  0.3677  1.0715
  178MOL0     H24004   6.662   5.309   9.814  0.5539  0.1835  0.1818
  178MOL0     H24005   6.514   5.203   9.822 -2.5548  2.2719  0.5230
  178MOL0     H24006   6.714   5.079   9.847 -2.3330 -0.2764 -1.0409
  178MOL0     H24007   6.742   5.166  10.009 -2.2287 -0.2419  2.1223
  178MOL0     H24008   6.530   4.980   9.912  0.2811  0.4718 -2.1982
  178MOL0     H24009   6.504   5.075  10.059 -0.8736 -0.9781 -0.5181
  178MOL0     H24010   6.709   4.985  10.159  0.4273  1.7616 -1.5212
  178MOL0     H24011   6.764   4.904  10.012  0.7799  0.2515  0.5351
  178MOL0     H24012   6.307   5.677  10.233 -2.4779 -1.2323  3.2101
  178MOL0     H24013   6.182   5.888  10.235 -0.1364 -1.1688  0.9063
  178MOL0     H24014   6.220   6.325  10.621 -0.1692 -1.0148 -0.1394
  178MOL0     H24015   6.079   6.524  10.642  1.2512  1.2209  0.2177
  178MOL0     H24016   5.716   8.231   9.690 -3.3613 -0.2768 -2.4730
  178MOL0     H24017   5.628   8.403   9.531  3.5994  0.0091  0.2272
  178MOL0     H24018   5.285   8.679   9.443 -2.2828 -0.0277 -1.6929
  178MOL0     H24019   5.182   8.793   9.258 -0.7262  0.2776  2.5369
  178MOL0     H24020   5.239   8.867   8.970 -0.5107 -0.6120  0.6846
  178MOL0     H24021   5.104   8.900   9.081 -0.1843  1.7907  1.1330
  178MOL0     H24022   5.127   9.160   9.018  1.3458  0.6751 -1.0024
  178MOL0     H24023   5.066   9.047   8.895  2.7650 -2.1266 -3.7751
  178MOL0     H24024   5.333   9.058   8.835  0.6101  0.5594  2.9598
  178MOL0     H24025   5.298   9.221   8.886  1.1523  0.4902 -1.9387
  178MOL0     H24026   5.128   9.096   8.667  0.6242 -0.1756 -0.2549
  178MOL0     H24027   5.244   9.213   8.638 -1.8747  1.5567 -1.3372
  178MOL0     H24028   4.946   9.445   8.815  0.1060  0.1622 -0.7301
  178MOL0     H24029   5.515   9.053   9.215 -2.0561  1.3582  0.9784
  178MOL0     H24030   5.644   8.916   9.370  1.1106 -2.2392  0.2388
  179MOL0     O24031   6.038   4.375   1.727 -0.1444 -0.2647 -0.7053
  179MOL0     C24032   6.136   4.318   1.766 -0.3742  0.1097 -0.2526
  179MOL0     O24033   6.228   4.252   1.683 -0.1011 -0.3444 -0.5385
  179MOL0     C24034   6.235   4.260   1.547  0.7881  0.1039  0.3815
  179MOL0     C24035   6.168   4.357   1.466  0.1949 -0.3731  0.3005
  179MOL0     C24036   6.183   4.349   1.324  0.0079 -0.1737 -0.1284
  179MOL0     C24037   6.270   4.260   1.259 -0.6439  0.0713 -1.4051
  179MOL0     O24038   6.292   4.249   1.129  0.3860  0.0307 -0.9167
  179MOL0     C24039   6.187   4.302   1.056  0.4809 -0.0983  0.4794
  179MOL0     C24040   6.213   4.259   0.910 -1.0579 -0.4007 -0.1998
  179MOL0     C24041   6.166   4.111   0.890  0.7090 -0.2495 -0.0060
  179MOL0     C24042   6.189   4.065   0.742 -0.2664 -0.2238  0.8382
  179MOL0     C24043   6.129   3.919   0.731  0.3269 -0.1311 -0.7829
  179MOL0     C24044   6.075   3.882   0.597  0.5859 -0.3812  0.5218
  179MOL0     C24045   6.010   3.740   0.603 -0.0925 -0.0940 -0.3748
  179MOL0     C24046   5.947   3.716   0.461  0.4750  0.6211  0.0584
  179MOL0     N24047   6.046   3.720   0.347  0.4394  0.8457  1.0853
  179MOL0     C24048   6.141   3.626   0.325  0.7840  0.1427  0.3495
  179MOL0     C24049   6.236   3.696   0.255 -0.0670  0.3694  0.2441
  179MOL0     C24050   6.363   3.637   0.203 -0.3427 -0.2671  0.0800
  179MOL0     C24051   6.374   3.631   0.053 -0.7570  0.0871 -0.1967
  179MOL0     C24052   6.247   3.594  -0.022 -0.2159  0.3583  0.0028
  179MOL0     C24053   6.199   3.446  -0.010  0.4139 -0.3710  0.5803
  179MOL0     O24054   6.316   3.360  -0.025 -0.0466 -0.1886  0.1194
  179MOL0     C24055   6.284   3.270  -0.133  0.0544 -0.6870 -0.3796
  179MOL0     C24056   6.178   3.180  -0.130  0.2832  0.0852 -0.6105
  179MOL0     C24057   6.168   3.084  -0.237  1.2954  0.2729  0.9990
  179MOL0     C24058   6.036   2.996  -0.236  0.6359  0.2201  0.0290
  179MOL0     C24059   6.265   3.081  -0.349  0.0314 -0.4045  0.7087
  179MOL0     C24060   6.255   2.994  -0.467  0.2260  0.9318  0.5606
  179MOL0     O24061   6.143   2.919  -0.476 -0.3843  0.0326  0.3897
  179MOL0     C24062   6.111   2.869  -0.600  0.0783 -0.8887 -0.0914
  179MOL0     C24063   6.196   2.793  -0.676 -0.0428  0.9343  0.1884
  179MOL0     C24064   6.160   2.748  -0.803  0.7096  0.1488  0.4054
  179MOL0     C24065   6.030   2.769  -0.856 -0.1256  1.2119  0.3356
  179MOL0     O24066   5.972   2.718  -0.979  0.2200  0.7355 -0.8935
  179MOL0     C24067   6.070   2.652  -1.071  0.1033  0.4103 -0.0523
  179MOL0     C24068   6.107   2.503  -1.025 -0.7652 -1.3384 -1.1536
  179MOL0     C24069   6.239   2.461  -1.078 -0.3908  0.4679  0.8401
  179MOL0     C24070   6.284   2.329  -1.024 -0.4294  0.5003 -0.2109
  179MOL0     C24071   6.401   2.286  -1.105 -0.9281  0.3459  0.2227
  179MOL0     C24072   6.482   2.169  -1.050 -0.7257 -0.3543  0.3735
  179MOL0     C24073   6.396   2.040  -1.045 -0.5588  0.0753 -0.0569
  179MOL0     C24074   6.454   1.950  -0.937 -0.0656  0.0157 -0.0387
  179MOL0    Cl24075   6.608   1.902  -0.993  0.0015  0.0046  0.0700
  179MOL0     C24076   5.948   2.849  -0.782 -0.4304  0.3191  0.5408
  179MOL0     C24077   5.985   2.903  -0.663  0.4739  0.1705 -1.0278
  179MOL0     O24078   6.345   3.006  -0.553 -0.1792  0.0292 -0.2881
  179MOL0     C24079   6.369   3.172  -0.336  0.4652 -0.6936 -0.9017
  179MOL0     C24080   6.377   3.264  -0.229 -0.0181 -0.3464 -0.0552
  179MOL0     N24081   6.180   3.823   0.227 -0.3095  0.2672 -0.5619
  179MOL0     N24082   6.074   3.835   0.288 -0.2421  0.7361  0.0401
  179MOL0     C24083   6.343   4.174   1.351  0.5414  0.5053 -0.5142
  179MOL0     C24084   6.313   4.167   1.485 -0.4798 -0.3589 -0.1255
  179MOL0     C24085   6.159   4.306   1.910 -0.4344 -0.7543  0.6974
  179MOL0     C24086   6.246   4.214   1.961 -0.4298 -0.1514 -0.0198
  179MOL0     C24087   6.257   4.203   2.096  0.1630 -0.1541 -0.1573
  179MOL0     C24088   6.208   4.297   2.185 -0.5487 -1.0048 -0.4374
  179MOL0     O24089   6.241   4.301   2.323  0.2646  0.8065  0.0072
  179MOL0     C24090   6.200   4.401   2.414  1.7730  0.7481  0.1048
  179MOL0     C24091   6.044   4.393   2.424  0.7155 -0.8290  0.0677
  179MOL0     C24092   6.009   4.271   2.510  0.1317  0.1272 -0.6374
  179MOL0     C24093   5.870   4.264   2.582 -0.0602 -0.3369 -0.7943
  179MOL0     C24094   5.760   4.300   2.488  0.1260 -1.1693 -0.5639
  179MOL0     C24095   5.680   4.335   2.413 -0.1427 -0.2454  0.0516
  179MOL0     C24096   6.119   4.393   2.126 -0.4366 -0.6602 -0.7891
  179MOL0     C24097   6.089   4.391   1.996 -0.7444  0.3909 -1.0184
  179MOL0     H24098   6.097   4.435   1.495  1.3674 -0.4579  3.7978
  179MOL0     H24099   6.135   4.423   1.260 -1.1665 -0.7201  0.0834
  179MOL0     H24100   6.089   4.275   1.095  2.2868 -1.7417  4.4238
  179MOL0     H24101   6.185   4.411   1.065 -5.4292  0.2453 -1.1609
  179MOL0     H24102   6.180   4.330   0.834  3.6959  0.3597 -1.8782
  179MOL0     H24103   6.321   4.261   0.892 -1.1094  0.9370 -0.4551
  179MOL0     H24104   6.213   4.031   0.949 -2.3434  0.5956  3.9662
  179MOL0     H24105   6.062   4.108   0.923  0.8684  0.8155  0.6650
  179MOL0     H24106   6.135   4.126   0.669  0.0564 -0.7522  0.1484
  179MOL0     H24107   6.293   4.061   0.707 -0.7334  0.6756 -0.7334
  179MOL0     H24108   6.207   3.853   0.770 -0.5811  0.5297  2.5198
  179MOL0     H24109   6.038   3.917   0.791  0.5107  0.7291 -0.4594
  179MOL0     H24110   5.992   3.944   0.563 -1.7001 -3.3550  0.2347
  179MOL0     H24111   6.154   3.889   0.521 -0.1705  1.3290 -0.1642
  179MOL0     H24112   6.084   3.664   0.632 -1.2719 -0.3054  2.4443
  179MOL0     H24113   5.935   3.740   0.683  1.0687 -1.7065  0.8026
  179MOL0     H24114   5.871   3.791   0.438  1.0712  0.7016 -1.7911
  179MOL0     H24115   5.897   3.619   0.462  0.3872  0.6317 -1.4870
  179MOL0     H24116   6.137   3.521   0.351 -2.3642  0.1900  0.5407
  179MOL0     H24117   6.448   3.689   0.248 -2.2687  2.2698  1.0595
  179MOL0     H24118   6.362   3.539   0.250  0.3099  0.4008  1.5511
  179MOL0     H24119   6.458   3.566   0.028  2.0213  1.8190  3.6867
  179MOL0     H24120   6.418   3.724   0.016  3.5985 -2.7825 -3.2629
  179MOL0     H24121   6.272   3.611  -0.127  1.8260 -1.1570  0.1989
  179MOL0     H24122   6.171   3.672  -0.008 -1.8402 -1.2587  0.6268
  179MOL0     H24123   6.124   3.432  -0.088  2.5820  0.2600 -1.7411
  179MOL0     H24124   6.152   3.429   0.088 -0.3561 -0.6096  0.1737
  179MOL0     H24125   6.112   3.176  -0.044 -1.6895 -1.1458 -2.0793
  179MOL0     H24126   6.067   2.892  -0.224 -0.5669  0.0658  2.5048
  179MOL0     H24127   5.972   3.026  -0.152 -1.0902 -2.5739 -0.1605
  179MOL0     H24128   5.975   3.009  -0.325  1.2535  2.4361 -0.1508
  179MOL0     H24129   6.290   2.751  -0.639 -0.3601  1.3084  1.4710
  179MOL0     H24130   6.238   2.694  -0.853 -0.1128 -0.0945 -0.6444
  179MOL0     H24131   6.030   2.659  -1.173  1.2490 -0.3369 -0.5762
  179MOL0     H24132   6.163   2.709  -1.076  0.9525 -0.9782 -0.8355
  179MOL0     H24133   6.128   2.510  -0.918  0.9890  2.7841 -1.5565
  179MOL0     H24134   6.034   2.430  -1.061 -1.5307 -0.1451 -2.1117
  179MOL0     H24135   6.309   2.543  -1.056 -0.8958  0.7950  1.2434
  179MOL0     H24136   6.229   2.451  -1.187 -3.7505 -0.5678  1.1407
  179MOL0     H24137   6.303   2.350  -0.918  0.9996  1.1129 -0.5669
  179MOL0     H24138   6.202   2.257  -1.033 -1.0973  1.4002 -1.7581
  179MOL0     H24139   6.463   2.373  -1.126  2.2676 -1.0847  2.8164
  179MOL0     H24140   6.369   2.258  -1.206  1.7077 -0.1166 -0.5437
  179MOL0     H24141   6.564   2.146  -1.118 -0.1077  0.0931  0.9461
  179MOL0     H24142   6.524   2.196  -0.952 -1.0189 -2.8217  1.2456
  179MOL0     H24143   6.397   1.989  -1.141  3.5222 -2.7429  1.1808
  179MOL0     H24144   6.293   2.069  -1.022 -1.0791  0.4180 -2.5702
  179MOL0     H24145   6.390   1.862  -0.923 -0.0559 -0.2126 -1.3322
  179MOL0     H24146   6.472   2.002  -0.843  2.2060 -2.0006  0.7436
  179MOL0     H24147   5.858   2.883  -0.834 -0.4615 -1.9054 -0.9793
  179MOL0     H24148   5.922   2.983  -0.622  2.5236  1.0817  0.5026
  179MOL0     H24149   6.441   3.182  -0.417  1.2964 -2.1701 -0.3861
  179MOL0     H24150   6.456   3.338  -0.242  0.3929  0.0658  3.6548
  179MOL0     H24151   6.417   4.101   1.319  1.6566  1.1511  0.5164
  179MOL0     H24152   6.370   4.097   1.546  0.8637  0.1877 -0.6993
  179MOL0     H24153   6.287   4.132   1.903  3.6619  1.0677  0.8063
  179MOL0     H24154   6.317   4.122   2.137 -0.6797  0.3114  2.1046
  179MOL0     H24155   6.234   4.382   2.516 -1.5117  1.7716  1.5305
  179MOL0     H24156   6.231   4.499   2.377  2.1301  0.4577 -0.3766
  179MOL0     H24157   5.989   4.379   2.330  1.7553  0.5906 -0.7940
  179MOL0     H24158   6.012   4.486   2.471 -0.5270 -0.2986 -1.6980
  179MOL0     H24159   6.082   4.282   2.591 -1.5899  2.7099  0.7219
  179MOL0     H24160   6.011   4.183   2.445 -0.9218 -0.8906  0.6341
  179MOL0     H24161   5.870   4.327   2.671 -3.9588 -1.5309  0.2452
  179MOL0     H24162   5.859   4.164   2.625 -3.2969  0.0657 -0.3964
  179MOL0     H24163   5.607   4.357   2.339  1.1104  0.3221 -1.0670
  179MOL0     H24164   6.065   4.474   2.175  0.7325 -1.7765  2.6133
  179MOL0     H24165   6.021   4.464   1.952 -0.5035 -0.2465 -2.4932
  180MOL0     O24166   8.893   8.109  11.477  0.8461  0.1066  0.3245
  180MOL0     C24167   8.962   8.034  11.544  0.2655  0.4048  0.2779
  180MOL0     O24168   8.928   7.964  11.660  0.3947  0.0498 -0.1674
  180MOL0     C24169   8.790   7.979  11.684 -0.0017  0.0555 -1.1594
  180MOL0     C24170   8.754   8.083  11.774  0.5779 -1.1739  0.1546
  180MOL0     C24171   8.624   8.082  11.818  0.4293  0.5155 -0.1976
  180MOL0     C24172   8.528   7.989  11.771 -0.5849  0.3241 -0.5831
  180MOL0     O24173   8.394   7.978  11.815 -0.2718  0.2322  0.9087
  180MOL0     C24174   8.324   8.100  11.827  0.3730 -0.3865  0.7300
  180MOL0     C24175   8.204   8.060  11.901  0.1570 -0.3430  0.1631
  180MOL0     C24176   8.103   7.979  11.824  0.6896 -0.8995  0.9318
  180MOL0     C24177   8.024   8.047  11.713  0.1571 -0.5159 -0.3314
  180MOL0     C24178   7.948   7.958  11.624  0.1227  0.2560  0.6261
  180MOL0     C24179   7.843   8.027  11.535 -0.0313  0.4151  0.8717
  180MOL0     C24180   7.902   8.102  11.412 -0.4963  0.7088  0.6471
  180MOL0     C24181   7.800   8.158  11.312 -0.2906 -0.0212 -1.2329
  180MOL0     N24182   7.718   8.044  11.258 -0.5004  0.3032  0.0385
  180MOL0     C24183   7.755   7.959  11.156  0.2245 -0.6562 -0.5762
  180MOL0     C24184   7.656   7.870  11.132 -0.3819 -0.0910  0.1347
  180MOL0     C24185   7.674   7.749  11.032  0.0724 -1.4384  0.1755
  180MOL0     C24186   7.593   7.762  10.899 -0.7411  0.6656 -0.9670
  180MOL0     C24187   7.447   7.744  10.907  0.8805 -0.6740  0.0962
  180MOL0     C24188   7.361   7.860  10.862  0.3458 -0.3119 -0.3263
  180MOL0     O24189   7.402   7.931  10.750 -0.4060 -0.5292 -0.1781
  180MOL0     C24190   7.357   8.066  10.748 -0.9954 -0.3813  0.2102
  180MOL0     C24191   7.422   8.165  10.833  0.1623  0.0963  0.2295
  180MOL0     C24192   7.371   8.294  10.822 -0.7653  1.0479  0.0496
  180MOL0     C24193   7.457   8.386  10.898 -0.3622  0.4776 -0.3332
  180MOL0     C24194   7.274   8.327  10.726 -0.1047 -0.1293 -0.4562
  180MOL0     C24195   7.220   8.472  10.721  0.3875  0.1714  0.4232
  180MOL0     O24196   7.106   8.494  10.643 -0.2547 -0.7969 -0.4486
  180MOL0     C24197   7.031   8.604  10.677 -1.0269  0.5025  0.6340
  180MOL0     C24198   7.078   8.734  10.656 -0.3652  0.6594 -0.3541
  180MOL0     C24199   6.994   8.838  10.677  0.5534 -0.8730 -0.0165
  180MOL0     C24200   6.859   8.817  10.728  0.5941  0.0768  0.0027
  180MOL0     O24201   6.772   8.920  10.748 -0.2814 -0.0457  0.3932
  180MOL0     C24202   6.784   9.042  10.670 -0.6542 -0.3740  0.3462
  180MOL0     C24203   6.662   9.131  10.685 -0.2258 -0.4630  0.2994
  180MOL0     C24204   6.651   9.242  10.579  1.0272 -1.3837  0.2191
  180MOL0     C24205   6.518   9.317  10.627 -0.0393 -0.5804 -0.5385
  180MOL0     C24206   6.432   9.380  10.518 -0.0989  0.9592  0.5690
  180MOL0     C24207   6.466   9.526  10.473  0.0416 -0.4123  0.9612
  180MOL0     C24208   6.355   9.572  10.386 -0.5271  0.1641 -0.0243
  180MOL0     C24209   6.365   9.722  10.362  0.1424 -0.1224  0.2823
  180MOL0    Cl24210   6.214   9.765  10.273  0.7666  0.3215  0.1580
  180MOL0     C24211   6.812   8.689  10.746 -0.1463 -0.1888 -0.0560
  180MOL0     C24212   6.898   8.583  10.712 -0.7227 -0.3166 -0.0475
  180MOL0     O24213   7.271   8.559  10.786 -0.2289 -0.1271  0.0907
  180MOL0     C24214   7.206   8.224  10.656  0.0715 -1.4132  0.8160
  180MOL0     C24215   7.259   8.095  10.660 -0.0424 -0.1472 -0.3281
  180MOL0     N24216   7.557   7.903  11.222 -0.8365  0.0509  0.0180
  180MOL0     N24217   7.588   8.011  11.296  0.0828  0.1775 -0.5741
  180MOL0     C24218   8.562   7.899  11.674 -1.1149 -0.4416  0.3088
  180MOL0     C24219   8.696   7.894  11.620  0.1304 -0.1614 -0.1196
  180MOL0     C24220   9.102   8.017  11.504 -0.1369 -0.4483 -0.1872
  180MOL0     C24221   9.151   8.079  11.381  0.8923  0.7005 -0.0519
  180MOL0     C24222   9.277   8.063  11.334 -0.5938 -1.5392 -0.1019
  180MOL0     C24223   9.373   8.005  11.418 -0.1293  0.0362 -0.3485
  180MOL0     O24224   9.508   7.995  11.385  0.0399 -0.1198 -0.1657
  180MOL0     C24225   9.575   8.093  11.302  0.1028  0.3227  0.4559
  180MOL0     C24226   9.719   8.039  11.294  0.1928 -0.3714 -0.4597
  180MOL0     C24227   9.802   8.151  11.232  0.0057  0.3825  0.1210
  180MOL0     C24228   9.956   8.108  11.209  0.0840 -0.0122 -0.6131
  180MOL0     C24229  10.030   8.185  11.310  0.4729  0.0834 -0.8550
  180MOL0     C24230  10.086   8.254  11.397 -0.6358 -0.9221  0.1677
  180MOL0     C24231   9.333   7.947  11.526  0.6777  0.1815 -1.5464
  180MOL0     C24232   9.201   7.955  11.574  0.6258 -0.0991  1.4130
  180MOL0     H24233   8.817   8.159  11.819 -0.9062  0.3851 -0.2997
  180MOL0     H24234   8.584   8.145  11.897  0.8045 -0.9076  1.1873
  180MOL0     H24235   8.369   8.181  11.885  0.7031 -0.5854  0.7551
  180MOL0     H24236   8.298   8.133  11.726 -1.4874 -0.9638  0.9955
  180MOL0     H24237   8.231   7.993  11.983  1.3990 -0.8401 -0.6078
  180MOL0     H24238   8.145   8.150  11.919  0.0182 -0.2722 -0.6029
  180MOL0     H24239   8.168   7.907  11.773 -0.6599 -2.3142  1.1323
  180MOL0     H24240   8.035   7.937  11.898  0.8148 -1.3772  0.7786
  180MOL0     H24241   7.954   8.122  11.752  2.1428  0.1809  2.0850
  180MOL0     H24242   8.095   8.102  11.651  1.5923 -1.1806  0.6896
  180MOL0     H24243   8.023   7.908  11.562  0.4799  0.7150  0.6867
  180MOL0     H24244   7.898   7.877  11.678 -2.1324 -2.1037 -4.3050
  180MOL0     H24245   7.778   7.948  11.497 -1.2297  1.3629  0.8660
  180MOL0     H24246   7.777   8.094  11.591 -0.2071  0.6452  0.3964
  180MOL0     H24247   7.968   8.180  11.452  3.9892 -2.6420  0.6240
  180MOL0     H24248   7.968   8.033  11.358 -2.5549  1.1343 -2.6816
  180MOL0     H24249   7.843   8.206  11.223  1.6045  1.6788  0.5012
  180MOL0     H24250   7.736   8.228  11.366 -0.9159  1.4956 -3.7908
  180MOL0     H24251   7.853   7.949  11.109 -0.1566 -3.2597 -1.0067
  180MOL0     H24252   7.777   7.719  11.013  0.0398 -0.8255 -1.0730
  180MOL0     H24253   7.626   7.664  11.081 -2.3234 -2.0115 -2.8519
  180MOL0     H24254   7.639   7.692  10.829  0.7207  0.3706  0.2451
  180MOL0     H24255   7.614   7.858  10.851 -1.0618  2.6996  2.5984
  180MOL0     H24256   7.416   7.729  11.011 -1.0370 -1.6262 -0.5828
  180MOL0     H24257   7.408   7.656  10.856 -4.1507  0.2937  1.7403
  180MOL0     H24258   7.342   7.928  10.945  1.7492 -0.4935  0.1645
  180MOL0     H24259   7.256   7.831  10.852  0.7505 -1.5747 -1.1704
  180MOL0     H24260   7.503   8.133  10.898 -1.4553 -4.4763  0.3182
  180MOL0     H24261   7.401   8.453  10.963 -0.1320  0.0891  0.2665
  180MOL0     H24262   7.531   8.341  10.963 -1.0525 -2.7004 -1.5605
  180MOL0     H24263   7.524   8.442  10.832  0.3352 -0.2405 -0.2461
  180MOL0     H24264   7.184   8.748  10.635 -0.0758 -0.2342  0.4385
  180MOL0     H24265   7.039   8.937  10.671  0.8505 -1.0368 -0.5426
  180MOL0     H24266   6.873   9.093  10.710 -2.7643  2.9032  1.2872
  180MOL0     H24267   6.802   9.020  10.565 -0.1618  0.8542  0.1465
  180MOL0     H24268   6.572   9.070  10.670 -0.2127 -0.2250 -0.9024
  180MOL0     H24269   6.655   9.185  10.780  0.3833 -0.8815  0.5897
  180MOL0     H24270   6.629   9.197  10.482 -1.0689  1.7568 -0.9161
  180MOL0     H24271   6.737   9.310  10.573 -0.0217 -0.0695 -0.4690
  180MOL0     H24272   6.449   9.252  10.680 -0.7724 -0.8996 -1.8398
  180MOL0     H24273   6.553   9.394  10.697  2.6819 -0.9241 -1.3826
  180MOL0     H24274   6.328   9.381  10.554  0.3526  1.7257  1.9330
  180MOL0     H24275   6.435   9.317  10.429  0.0079  0.9189  0.6015
  180MOL0     H24276   6.458   9.586  10.564 -0.0299 -1.7502  1.8750
  180MOL0     H24277   6.568   9.533  10.435 -0.4888  3.5899 -0.1788
  180MOL0     H24278   6.252   9.560  10.422 -1.3814  2.1085 -1.6482
  180MOL0     H24279   6.363   9.518  10.291  3.0872 -0.1573  0.3497
  180MOL0     H24280   6.459   9.744  10.311 -0.4759  1.3736 -0.2404
  180MOL0     H24281   6.382   9.776  10.456  2.4792  0.2389 -0.2972
  180MOL0     H24282   6.708   8.675  10.772 -0.7206  2.9247 -0.3415
  180MOL0     H24283   6.862   8.483  10.733  3.3728 -1.4821  2.4586
  180MOL0     H24284   7.120   8.233  10.589  4.5072 -1.2268 -5.8089
  180MOL0     H24285   7.192   8.016  10.629 -0.1448 -1.0123  1.8635
  180MOL0     H24286   8.481   7.843  11.629 -1.1497 -1.8060  1.9674
  180MOL0     H24287   8.728   7.828  11.540 -1.5233 -2.0465  0.6706
  180MOL0     H24288   9.080   8.130  11.317  0.1881 -2.4122 -1.9259
  180MOL0     H24289   9.291   8.111  11.237 -5.4167  1.3787  0.2881
  180MOL0     H24290   9.529   8.114  11.205 -1.9875 -0.8536  1.1403
  180MOL0     H24291   9.575   8.181  11.368 -0.2086 -1.0481  2.3613
  180MOL0     H24292   9.719   7.950  11.230  1.3722 -1.4232  0.9441
  180MOL0     H24293   9.755   8.010  11.393 -4.6845 -1.1680  1.3503
  180MOL0     H24294   9.794   8.230  11.307 -1.3507 -1.5943  2.2198
  180MOL0     H24295   9.747   8.182  11.143 -2.8251 -1.2361  1.1452
  180MOL0     H24296   9.999   8.136  11.113 -2.1487 -0.3414 -1.7566
  180MOL0     H24297   9.970   8.001  11.229  0.2690 -0.0506 -0.9513
  180MOL0     H24298  10.142   8.312  11.468  1.4263  2.8678 -4.0673
  180MOL0     H24299   9.412   7.890  11.574  3.1511  3.1789 -1.7938
  180MOL0     H24300   9.165   7.889  11.653  0.0336 -2.3347 -0.6241
  181MOL0     O24301  10.676   0.979   6.386 -0.1475  0.2045 -0.2248
  181MOL0     C24302  10.559   1.028   6.368 -0.7798  0.9533 -0.9298
  181MOL0     O24303  10.484   1.087   6.469 -0.1434  0.1225 -0.5622
  181MOL0     C24304  10.540   1.116   6.597  0.8779  0.1503 -1.0867
  181MOL0     C24305  10.454   1.101   6.704 -0.1383 -0.5649 -0.3052
  181MOL0     C24306  10.502   1.125   6.831 -0.8251  0.5420 -0.5481
  181MOL0     C24307  10.635   1.163   6.862  0.3635  0.2571  0.1449
  181MOL0     O24308  10.696   1.179   6.978 -0.4380 -0.4046  1.0060
  181MOL0     C24309  10.630   1.186   7.106  0.0314  0.3886  0.9318
  181MOL0     C24310  10.734   1.171   7.217 -0.1091  0.4070 -0.6867
  181MOL0     C24311  10.766   1.310   7.291  0.5322  0.2330  0.5880
  181MOL0     C24312  10.661   1.329   7.410  0.8350 -1.3547  0.0535
  181MOL0     C24313  10.717   1.425   7.526  0.7915  0.2285  1.1403
  181MOL0     C24314  10.726   1.572   7.476 -0.2684  0.1847  0.7459
  181MOL0     C24315  10.769   1.674   7.587 -0.3881 -0.5842 -0.1014
  181MOL0     C24316  10.759   1.829   7.530 -0.5325 -0.0167 -0.3920
  181MOL0     N24317  10.774   1.924   7.641  0.1895 -0.0181  0.6906
  181MOL0     C24318  10.880   1.937   7.733 -0.9282  0.1999 -0.5748
  181MOL0     C24319  10.833   2.032   7.818  1.0871  0.4149 -0.1992
  181MOL0     C24320  10.901   2.089   7.944  0.1543 -0.3945 -0.5004
  181MOL0     C24321  11.040   2.161   7.924 -0.5349 -0.0178  0.1173
  181MOL0     C24322  11.071   2.241   8.052  1.1811  0.0434  0.0559
  181MOL0     C24323  11.208   2.297   8.057 -0.5026  0.2378  0.4688
  181MOL0     O24324  11.300   2.182   8.038 -0.1167 -0.9177 -0.1122
  181MOL0     C24325  11.417   2.215   8.106  0.5956 -0.3667 -0.3366
  181MOL0     C24326  11.541   2.219   8.045 -0.4823  0.4463  0.1958
  181MOL0     C24327  11.653   2.215   8.131 -0.1318 -0.0621  1.4303
  181MOL0     C24328  11.778   2.189   8.045 -0.3761 -0.1987  0.7569
  181MOL0     C24329  11.649   2.230   8.273 -0.0617 -0.5506 -0.7618
  181MOL0     C24330  11.763   2.256   8.356  0.4669  0.4472 -0.8172
  181MOL0     O24331  11.734   2.284   8.489  0.3728 -0.0620  0.7570
  181MOL0     C24332  11.808   2.355   8.571  0.0010 -0.1258 -0.1771
  181MOL0     C24333  11.729   2.402   8.677  0.9022 -0.3677  0.4157
  181MOL0     C24334  11.788   2.479   8.785  1.4290  0.3672 -0.4776
  181MOL0     C24335  11.925   2.506   8.776 -1.0001  0.1282 -0.4258
  181MOL0     O24336  11.985   2.560   8.892  0.4167 -0.2002 -0.0061
  181MOL0     C24337  12.131   2.581   8.910  0.0145 -0.1523 -0.6357
  181MOL0     C24338  12.155   2.641   9.051  0.0327  0.1717  0.0439
  181MOL0     C24339  12.300   2.686   9.078  0.0063 -0.0646  1.2541
  181MOL0     C24340  12.400   2.571   9.079 -0.5092  1.0487  0.4058
  181MOL0     C24341  12.376   2.472   9.201 -0.1137 -0.2591 -0.0580
  181MOL0     C24342  12.493   2.470   9.300  0.0394  0.9107 -0.0907
  181MOL0     C24343  12.533   2.334   9.354 -0.3111  0.1132  0.1588
  181MOL0     C24344  12.436   2.260   9.445  0.5627  0.7458  0.0992
  181MOL0    Cl24345  12.418   2.373   9.583  0.0548  0.2465 -0.2080
  181MOL0     C24346  12.004   2.464   8.665  0.3300 -0.4018 -0.4746
  181MOL0     C24347  11.948   2.381   8.567 -0.2619 -1.3194  0.1874
  181MOL0     O24348  11.878   2.226   8.315  0.2133 -0.6811 -0.0598
  181MOL0     C24349  11.522   2.232   8.327 -0.0570 -0.3142  0.0678
  181MOL0     C24350  11.407   2.222   8.245  0.4970 -0.3690 -0.1959
  181MOL0     N24351  10.713   2.079   7.770 -0.6121 -0.4019  0.9567
  181MOL0     N24352  10.675   2.006   7.671  0.6023  0.0437  0.4033
  181MOL0     C24353  10.717   1.175   6.752  0.5557  0.2011  0.1999
  181MOL0     C24354  10.671   1.159   6.614  0.3132 -0.0341 -0.0268
  181MOL0     C24355  10.499   1.001   6.229  0.2982  0.0946  0.2083
  181MOL0     C24356  10.387   1.078   6.185 -0.7551 -1.1480  0.4262
  181MOL0     C24357  10.318   1.036   6.070 -0.4248 -0.2095  0.0188
  181MOL0     C24358  10.373   0.935   5.990  0.7045  0.1716  0.0164
  181MOL0     O24359  10.341   0.907   5.859 -0.0756 -0.0645 -0.1465
  181MOL0     C24360  10.294   1.019   5.779  0.4005 -0.3147  0.3633
  181MOL0     C24361  10.372   1.022   5.647  0.9751  0.4541 -0.7838
  181MOL0     C24362  10.493   1.118   5.641  0.2419 -0.2119 -0.4390
  181MOL0     C24363  10.616   1.049   5.701  0.3144 -0.1831  0.4423
  181MOL0     C24364  10.731   1.123   5.649 -0.7335 -0.0302 -0.3134
  181MOL0     C24365  10.833   1.170   5.608  0.2109 -0.7080 -0.4678
  181MOL0     C24366  10.479   0.859   6.041 -0.3626  0.8896 -0.8579
  181MOL0     C24367  10.546   0.890   6.156  0.8588  0.3422 -0.5851
  181MOL0     H24368  10.349   1.077   6.688 -1.0373  1.2516  2.1918
  181MOL0     H24369  10.440   1.126   6.920  0.2066  3.3903  0.2347
  181MOL0     H24370  10.581   1.283   7.119  3.7445  2.5696  0.0659
  181MOL0     H24371  10.552   1.111   7.121  1.6196 -1.3567  0.7373
  181MOL0     H24372  10.716   1.089   7.288  1.5439  2.2840  2.1250
  181MOL0     H24373  10.832   1.146   7.177  0.9596  2.0756  0.7679
  181MOL0     H24374  10.871   1.315   7.321 -0.0218  4.6307  2.5900
  181MOL0     H24375  10.759   1.391   7.219 -1.5849 -0.4984 -0.1257
  181MOL0     H24376  10.569   1.374   7.372  2.3931  0.0091 -2.3618
  181MOL0     H24377  10.633   1.240   7.466 -0.9525 -0.6711  0.2945
  181MOL0     H24378  10.647   1.414   7.609 -1.2851 -2.0848 -0.7563
  181MOL0     H24379  10.815   1.397   7.566 -0.5476 -2.3577  2.8411
  181MOL0     H24380  10.795   1.569   7.391 -2.0641  1.3527 -0.8288
  181MOL0     H24381  10.638   1.609   7.422  2.6447  4.1081 -1.8793
  181MOL0     H24382  10.707   1.670   7.676  1.6778 -4.5643  1.4093
  181MOL0     H24383  10.868   1.654   7.630 -2.1686 -0.6967  4.3788
  181MOL0     H24384  10.670   1.847   7.469  0.3383  0.5210 -1.5297
  181MOL0     H24385  10.845   1.854   7.468 -0.3375  1.9859  0.6011
  181MOL0     H24386  10.976   1.885   7.736  0.3254  2.3460  2.8713
  181MOL0     H24387  10.831   2.162   7.984  2.9944  2.1701  0.1592
  181MOL0     H24388  10.918   2.005   8.013  2.5050 -0.6827 -1.3261
  181MOL0     H24389  11.028   2.225   7.836 -2.6531  3.0015  2.3809
  181MOL0     H24390  11.107   2.078   7.900 -1.3768 -0.4739 -0.6996
  181MOL0     H24391  11.059   2.177   8.140 -0.0671  0.5993  0.3032
  181MOL0     H24392  11.002   2.325   8.060 -0.2177 -1.2288  2.1553
  181MOL0     H24393  11.221   2.364   8.143 -1.8882 -0.9479  1.6502
  181MOL0     H24394  11.223   2.356   7.966 -0.5878 -2.1343 -1.1733
  181MOL0     H24395  11.528   2.200   7.938 -1.0019  2.3778 -0.1189
  181MOL0     H24396  11.757   2.113   7.969 -0.6517  1.4768 -0.8911
  181MOL0     H24397  11.811   2.275   7.986  0.3081 -2.0233 -1.6836
  181MOL0     H24398  11.869   2.160   8.098 -0.1844 -1.9805 -0.4476
  181MOL0     H24399  11.624   2.374   8.674  0.8776 -0.2833  0.5258
  181MOL0     H24400  11.733   2.507   8.874  3.0219 -0.7855  0.9181
  181MOL0     H24401  12.201   2.497   8.905  0.4810  0.1123  1.0239
  181MOL0     H24402  12.157   2.660   8.838  0.2006  0.6072  0.2565
  181MOL0     H24403  12.080   2.719   9.070 -0.0642  0.2620 -0.6625
  181MOL0     H24404  12.124   2.563   9.121 -3.5779 -1.9403 -3.4467
  181MOL0     H24405  12.291   2.748   9.168 -2.2062  0.9723  0.3975
  181MOL0     H24406  12.342   2.765   9.015  0.5459  0.2406  1.9864
  181MOL0     H24407  12.403   2.516   8.985  5.0894  1.7054 -0.1170
  181MOL0     H24408  12.495   2.623   9.087 -1.1655  2.0734  2.2398
  181MOL0     H24409  12.354   2.370   9.168  0.5250 -0.7345  0.9210
  181MOL0     H24410  12.294   2.513   9.260 -1.2917 -0.9504 -1.1656
  181MOL0     H24411  12.583   2.514   9.257  1.8558 -1.0833  1.4508
  181MOL0     H24412  12.462   2.535   9.383 -0.3844 -4.2697  4.3938
  181MOL0     H24413  12.625   2.347   9.411 -0.9811  1.6552  0.9602
  181MOL0     H24414  12.556   2.271   9.267  1.2673  0.2376  0.4667
  181MOL0     H24415  12.488   2.168   9.471 -0.1580 -0.1365 -1.4722
  181MOL0     H24416  12.345   2.225   9.395  0.2888  0.9129  0.4707
  181MOL0     H24417  12.108   2.495   8.655 -0.4186  2.3303 -0.6290
  181MOL0     H24418  12.002   2.345   8.480 -1.7011 -0.5963 -1.0591
  181MOL0     H24419  11.508   2.230   8.435 -0.1375 -2.7398  0.0628
  181MOL0     H24420  11.306   2.223   8.283 -0.4237  3.4986 -2.2416
  181MOL0     H24421  10.819   1.202   6.777  1.5636 -2.2346 -0.9754
  181MOL0     H24422  10.733   1.174   6.527  1.6529 -0.6862  0.7834
  181MOL0     H24423  10.354   1.149   6.260 -1.8566  0.1090 -1.1763
  181MOL0     H24424  10.223   1.075   6.034 -1.2577 -0.7559  1.5353
  181MOL0     H24425  10.193   1.003   5.741  1.9876 -2.7747 -3.4296
  181MOL0     H24426  10.301   1.113   5.834 -1.7321 -1.0525  2.0681
  181MOL0     H24427  10.293   1.064   5.585  0.4575  1.0618  0.2637
  181MOL0     H24428  10.396   0.922   5.608 -0.1620  0.4077 -1.4046
  181MOL0     H24429  10.480   1.210   5.700 -1.8725  2.6388 -4.8239
  181MOL0     H24430  10.514   1.167   5.546  0.6508  0.8071  0.1520
  181MOL0     H24431  10.623   0.941   5.690  2.4211 -0.2304  1.6162
  181MOL0     H24432  10.622   1.078   5.806 -2.5383  0.5780  0.4711
  181MOL0     H24433  10.921   1.227   5.584 -1.1161  1.0875 -1.3015
  181MOL0     H24434  10.506   0.772   5.982 -3.4891  0.1983 -1.4214
  181MOL0     H24435  10.619   0.817   6.190  0.1613 -1.3137 -2.4098
  182MOL0     O24436   4.449  10.718  10.014 -0.2823  1.1915 -0.7927
  182MOL0     C24437   4.515  10.826  10.017  0.3295 -0.5857 -0.5910
  182MOL0     O24438   4.472  10.949  10.061  0.1297 -0.0082  0.1057
  182MOL0     C24439   4.361  10.947  10.142 -0.1497  0.3120  0.2285
  182MOL0     C24440   4.308  10.837  10.217  0.0241 -0.1518 -1.0022
  182MOL0     C24441   4.197  10.863  10.292 -0.8731  1.1821  0.4405
  182MOL0     C24442   4.132  10.986  10.288  0.8549  0.7935 -0.3549
  182MOL0     O24443   4.015  10.999  10.364  0.0327 -0.7487  0.2349
  182MOL0     C24444   3.917  11.094  10.319 -0.2383 -0.0579 -0.3132
  182MOL0     C24445   3.778  11.034  10.338 -0.2245 -0.1698 -0.0372
  182MOL0     C24446   3.743  11.025  10.488  0.1099  0.2831  0.8123
  182MOL0     C24447   3.595  11.021  10.519  1.0908 -0.7256  0.3097
  182MOL0     C24448   3.559  11.038  10.666  0.2914 -0.7559  0.5954
  182MOL0     C24449   3.626  10.936  10.763 -0.0205 -0.7250 -0.1980
  182MOL0     C24450   3.598  10.789  10.731 -0.7566 -0.7591 -0.9074
  182MOL0     C24451   3.644  10.704  10.854  0.1786  1.1149 -0.0018
  182MOL0     N24452   3.643  10.560  10.810 -0.0686  0.6610 -0.6841
  182MOL0     C24453   3.751  10.489  10.774  0.0855 -0.7411  0.0826
  182MOL0     C24454   3.693  10.369  10.742  0.7321 -0.8561 -0.6375
  182MOL0     C24455   3.776  10.255  10.689  0.4305  0.3881  0.3737
  182MOL0     C24456   3.676  10.134  10.674  0.2809 -0.5050  0.2510
  182MOL0     C24457   3.722  10.031  10.577  0.1350 -0.0854  0.4278
  182MOL0     C24458   3.673   9.892  10.609  1.1070 -0.7386 -0.3971
  182MOL0     O24459   3.766   9.832  10.696  1.0800  1.1052  0.3236
  182MOL0     C24460   3.746   9.697  10.693 -0.2289 -1.0213  0.6364
  182MOL0     C24461   3.617   9.634  10.679 -0.0219 -0.4205  0.1022
  182MOL0     C24462   3.608   9.505  10.677  0.9189  0.7341 -1.0716
  182MOL0     C24463   3.465   9.442  10.677 -0.1189  0.3822 -0.2809
  182MOL0     C24464   3.720   9.423  10.679  0.4978  0.1443  0.0595
  182MOL0     C24465   3.728   9.274  10.659  1.0362  0.3051 -0.8756
  182MOL0     O24466   3.619   9.208  10.613 -0.0963  0.7366  0.0872
  182MOL0     C24467   3.599   9.063  10.632  0.6268 -0.0440  0.3169
  182MOL0     C24468   3.497   9.014  10.565 -0.2904  0.1666  1.2564
  182MOL0     C24469   3.452   8.883  10.572 -0.3386  0.2911  0.1955
  182MOL0     C24470   3.508   8.787  10.659 -0.2139  0.0016  0.3669
  182MOL0     O24471   3.481   8.657  10.676  0.7303 -0.1147  0.1703
  182MOL0     C24472   3.394   8.589  10.581  0.3550  0.4325 -1.2339
  182MOL0     C24473   3.417   8.433  10.581  0.0107 -0.4245  0.3653
  182MOL0     C24474   3.297   8.358  10.546  0.1884  0.4251  0.3316
  182MOL0     C24475   3.220   8.421  10.428  0.1196 -0.2068 -0.4611
  182MOL0     C24476   3.070   8.385  10.432  0.3739  0.3703  0.0306
  182MOL0     C24477   3.052   8.229  10.450  0.0214 -0.1251  0.0010
  182MOL0     C24478   2.904   8.182  10.473 -0.0828  0.1322 -0.5513
  182MOL0     C24479   2.899   8.039  10.526  0.6689 -0.1078  0.7882
  182MOL0    Cl24480   2.727   8.005  10.552 -0.0387  0.2943  0.0382
  182MOL0     C24481   3.607   8.841  10.744 -0.2755  0.0482  0.4263
  182MOL0     C24482   3.651   8.978  10.733  0.5661  0.8633 -0.6421
  182MOL0     O24483   3.833   9.222  10.706 -0.5958  0.3219  0.1083
  182MOL0     C24484   3.853   9.485  10.690 -0.2241 -0.3568 -0.8835
  182MOL0     C24485   3.862   9.620  10.692 -0.3136 -0.4937 -0.9037
  182MOL0     N24486   3.561  10.364  10.775  0.3896 -0.4719 -0.8605
  182MOL0     N24487   3.528  10.484  10.809  0.0771 -0.0884  0.4687
  182MOL0     C24488   4.181  11.090  10.219  0.0464  0.1806 -1.0684
  182MOL0     C24489   4.294  11.072  10.146  0.8176  0.6984 -0.5041
  182MOL0     C24490   4.655  10.806   9.969  0.4251 -1.0180 -0.3821
  182MOL0     C24491   4.736  10.919   9.966  0.1633  0.4150  0.5150
  182MOL0     C24492   4.860  10.913   9.905  0.0200  0.0009 -0.0562
  182MOL0     C24493   4.909  10.790   9.863 -0.0257  0.7014  0.6312
  182MOL0     O24494   5.040  10.802   9.818  0.7298  0.0313  0.3579
  182MOL0     C24495   5.104  10.683   9.764 -0.1006 -0.2515 -0.1040
  182MOL0     C24496   5.188  10.595   9.861 -0.9362 -0.4586 -0.5257
  182MOL0     C24497   5.178  10.650   9.992  0.4532  0.0865  0.4075
  182MOL0     C24498   5.278  10.587  10.098  0.3564 -1.2224 -0.0779
  182MOL0     C24499   5.223  10.451  10.124 -0.7512 -0.2388 -0.3219
  182MOL0     C24500   5.190  10.339  10.148 -0.0153  0.1915  0.5631
  182MOL0     C24501   4.829  10.678   9.860  0.6538  0.1455 -0.3093
  182MOL0     C24502   4.700  10.685   9.916  0.4809 -0.3182  0.5383
  182MOL0     H24503   4.358  10.741  10.216  0.6784  0.1526  0.3573
  182MOL0     H24504   4.166  10.783  10.357  0.1208  1.0925  0.8270
  182MOL0     H24505   3.919  11.186  10.378 -1.2093 -0.6967  0.7405
  182MOL0     H24506   3.928  11.115  10.212  0.5352 -1.2669 -0.4793
  182MOL0     H24507   3.705  11.103  10.294  1.4072  2.2132  0.7459
  182MOL0     H24508   3.774  10.938  10.287  0.3604 -1.0080  1.4241
  182MOL0     H24509   3.785  10.934  10.530  1.8608  1.5992  2.0345
  182MOL0     H24510   3.793  11.104  10.546 -1.3412  1.5184  0.4597
  182MOL0     H24511   3.538  11.094  10.460  1.8330 -3.1527 -3.7892
  182MOL0     H24512   3.558  10.919  10.502 -2.5746 -0.1753  3.4940
  182MOL0     H24513   3.594  11.131  10.712  1.1627 -2.0392  2.6466
  182MOL0     H24514   3.450  11.047  10.664  0.4342  2.2077 -1.9415
  182MOL0     H24515   3.731  10.967  10.752  0.7222 -2.1906  2.1227
  182MOL0     H24516   3.597  10.958  10.866 -2.1082 -1.8242 -0.5133
  182MOL0     H24517   3.496  10.764  10.700 -1.7142  3.3158 -1.6343
  182MOL0     H24518   3.663  10.774  10.644 -0.5839  0.7721 -1.0660
  182MOL0     H24519   3.580  10.711  10.942 -0.9800  2.2549 -0.9014
  182MOL0     H24520   3.747  10.720  10.888 -0.1335 -1.6899  2.6989
  182MOL0     H24521   3.857  10.513  10.766  0.0878 -0.8965 -0.4211
  182MOL0     H24522   3.805  10.277  10.586  0.8432  1.8938  0.7872
  182MOL0     H24523   3.865  10.230  10.748  1.8530  0.0355 -1.7698
  182MOL0     H24524   3.579  10.172  10.641  0.3155  0.9137  1.6841
  182MOL0     H24525   3.651  10.103  10.776 -3.1296  1.7162  0.2474
  182MOL0     H24526   3.831  10.028  10.572  0.1620 -0.6433  1.2001
  182MOL0     H24527   3.686  10.061  10.478  1.9112 -1.3991 -0.6838
  182MOL0     H24528   3.682   9.845  10.510  1.5581  1.2825 -1.3718
  182MOL0     H24529   3.564   9.893  10.621  1.2277  0.9604  1.0003
  182MOL0     H24530   3.529   9.697  10.676  0.3192  0.1996  1.7771
  182MOL0     H24531   3.425   9.393  10.588 -0.4531 -1.6195  0.8949
  182MOL0     H24532   3.459   9.364  10.754  0.5465 -0.1457 -0.7497
  182MOL0     H24533   3.391   9.517  10.706  0.9167  1.1382  0.4425
  182MOL0     H24534   3.445   9.081  10.497  2.1591  0.9137  0.0027
  182MOL0     H24535   3.382   8.847  10.497  1.7806 -0.0097 -1.7490
  182MOL0     H24536   3.294   8.622  10.609  1.4203  2.7694  0.1689
  182MOL0     H24537   3.413   8.625  10.480  2.3391  0.0513 -1.0485
  182MOL0     H24538   3.496   8.407  10.510 -0.6845  0.2489 -0.6803
  182MOL0     H24539   3.444   8.403  10.682  0.8403 -1.8165 -0.2403
  182MOL0     H24540   3.226   8.371  10.628 -0.3907 -2.0587  0.2877
  182MOL0     H24541   3.317   8.252  10.532  0.5686  0.4511  0.6594
  182MOL0     H24542   3.214   8.530  10.420 -0.9638 -0.3788 -2.2486
  182MOL0     H24543   3.268   8.380  10.339  2.7266  1.5267  0.0238
  182MOL0     H24544   3.026   8.409  10.335  2.8480  1.4428 -0.9284
  182MOL0     H24545   3.015   8.441  10.509 -1.7437  0.0847 -1.1984
  182MOL0     H24546   3.101   8.175  10.368 -0.5326  0.3985 -0.6945
  182MOL0     H24547   3.107   8.204  10.541 -2.6411  0.3055  1.8456
  182MOL0     H24548   2.855   8.192  10.376  0.8892  4.3670 -0.8363
  182MOL0     H24549   2.845   8.250  10.536 -0.8362  2.0832 -3.1806
  182MOL0     H24550   2.946   8.021  10.623 -1.4083  0.3272  1.9286
  182MOL0     H24551   2.932   7.964  10.453  0.2654  1.9935 -1.7042
  182MOL0     H24552   3.658   8.773  10.812  2.5352  0.3059 -1.2716
  182MOL0     H24553   3.723   9.009  10.808 -0.6712  0.4743  0.7618
  182MOL0     H24554   3.946   9.430  10.683  0.3960  0.7464 -1.6526
  182MOL0     H24555   3.962   9.663  10.690  1.2281 -3.7402 -1.3249
  182MOL0     H24556   4.133  11.188  10.214  0.4004  0.3236 -4.7713
  182MOL0     H24557   4.330  11.157  10.088  0.3074  1.1990 -0.1045
  182MOL0     H24558   4.707  11.014  10.011 -1.2124 -1.1513  3.1895
  182MOL0     H24559   4.938  10.988   9.900  1.1913 -1.0607  1.2560
  182MOL0     H24560   5.028  10.615   9.724 -4.2599  3.6639  0.2108
  182MOL0     H24561   5.174  10.719   9.689 -0.6121  1.8449  0.3667
  182MOL0     H24562   5.290  10.607   9.822 -0.5664 -2.0735 -0.1320
  182MOL0     H24563   5.174  10.487   9.853  0.6429 -1.0476  2.9036
  182MOL0     H24564   5.072  10.642  10.018  0.8866 -1.2200  1.9480
  182MOL0     H24565   5.211  10.754   9.978 -2.0493  1.0012  0.7775
  182MOL0     H24566   5.269  10.659  10.180 -0.3883 -0.4598 -0.8105
  182MOL0     H24567   5.383  10.585  10.066  0.2160  1.7529 -1.0274
  182MOL0     H24568   5.149  10.247  10.185 -1.8267  1.3373  1.5624
  182MOL0     H24569   4.858  10.586   9.809 -2.8852 -2.5646  2.0596
  182MOL0     H24570   4.645  10.591   9.918 -0.7079  0.3361  0.1554
  183MOL0     O24571   9.968  10.560   9.541 -0.0548  0.2064  0.4720
  183MOL0     C24572   9.848  10.551   9.513  0.3155 -0.8346 -0.1783
  183MOL0     O24573   9.743  10.634   9.558 -0.6465 -0.8237  0.4482
  183MOL0     C24574   9.768  10.747   9.641 -0.3250 -0.1124 -0.0776
  183MOL0     C24575   9.730  10.873   9.589  0.3514 -0.0102 -1.1925
  183MOL0     C24576   9.774  10.979   9.667 -0.9278 -0.5829 -0.6498
  183MOL0     C24577   9.853  10.963   9.784 -0.7794 -0.3348  0.2193
  183MOL0     O24578   9.878  11.082   9.849  0.7928  0.2150 -0.1404
  183MOL0     C24579   9.941  11.067   9.979  0.8361 -0.6547  0.3196
  183MOL0     C24580   9.976  11.206  10.039 -0.3562  0.2792  0.1373
  183MOL0     C24581  10.059  11.192  10.168  0.6027 -0.2972  0.7753
  183MOL0     C24582  10.196  11.135  10.154 -0.8222  0.3854 -0.2443
  183MOL0     C24583  10.276  11.173  10.277 -0.3058  0.0582 -0.1556
  183MOL0     C24584  10.416  11.115  10.283  0.8689 -0.3868 -0.2009
  183MOL0     C24585  10.504  11.178  10.394  0.7566 -0.0446 -0.7025
  183MOL0     C24586  10.624  11.097  10.444  0.2322 -0.5253 -0.5928
  183MOL0     N24587  10.757  11.128  10.385  0.3141 -0.7183  0.4843
  183MOL0     C24588  10.814  11.247  10.387 -0.2745 -0.2881 -0.4679
  183MOL0     C24589  10.909  11.236  10.294  0.6882  0.1507 -0.5876
  183MOL0     C24590  10.988  11.359  10.254 -0.5290 -0.8914 -0.6945
  183MOL0     C24591  11.142  11.335  10.267 -0.4447 -0.7653  0.1883
  183MOL0     C24592  11.196  11.334  10.408 -1.1649  0.6999 -0.1805
  183MOL0     C24593  11.348  11.324  10.414  0.9111  0.5356  0.0027
  183MOL0     O24594  11.387  11.318  10.556 -0.7214 -0.3478 -0.0827
  183MOL0     C24595  11.528  11.349  10.550  0.4321  1.0297 -0.2976
  183MOL0     C24596  11.624  11.253  10.548 -0.6027  1.0454 -0.5650
  183MOL0     C24597  11.764  11.287  10.541  1.2511  0.3928  0.4075
  183MOL0     C24598  11.860  11.180  10.582  0.3314  0.2311  0.6537
  183MOL0     C24599  11.799  11.424  10.542  0.8244 -0.2934 -0.1224
  183MOL0     C24600  11.942  11.470  10.546  0.3463 -0.4902  0.2282
  183MOL0     O24601  11.969  11.594  10.603 -0.1004 -0.6768 -0.0263
  183MOL0     C24602  12.082  11.658  10.559  0.5598  0.9859 -0.8886
  183MOL0     C24603  12.085  11.778  10.491 -0.0009  0.9345  0.2718
  183MOL0     C24604  12.195  11.846  10.459 -0.4334  0.1960 -0.7704
  183MOL0     C24605  12.318  11.811  10.508  1.0992  0.4531 -0.1290
  183MOL0     O24606  12.428  11.888  10.470  0.3575  0.0589 -0.0251
  183MOL0     C24607  12.562  11.842  10.496 -0.2578  0.3198 -0.2824
  183MOL0     C24608  12.673  11.930  10.445 -0.2180  0.2319 -0.3748
  183MOL0     C24609  12.661  11.961  10.294  0.3230  0.0533 -0.2522
  183MOL0     C24610  12.768  12.057  10.259 -0.2145 -0.0877  0.6447
  183MOL0     C24611  12.737  12.114  10.122  0.2504 -0.5383 -0.6845
  183MOL0     C24612  12.852  12.206  10.086 -1.0841 -0.7200 -0.1373
  183MOL0     C24613  12.840  12.268   9.952  0.1778  0.4575 -0.6827
  183MOL0     C24614  12.974  12.337   9.922 -0.3585 -0.1225 -0.3575
  183MOL0    Cl24615  13.002  12.378   9.749 -0.3770  0.5394 -0.0802
  183MOL0     C24616  12.324  11.694  10.588  0.2618 -0.1016 -0.3223
  183MOL0     C24617  12.210  11.614  10.604  0.3653 -1.1538 -0.4528
  183MOL0     O24618  12.021  11.407  10.481 -0.3976  0.3278  0.2527
  183MOL0     C24619  11.698  11.519  10.567 -0.8371 -0.4105 -0.1026
  183MOL0     C24620  11.564  11.482  10.573  0.0171 -0.0277 -0.3424
  183MOL0     N24621  10.915  11.104  10.248  0.2670 -0.7762  0.1963
  183MOL0     N24622  10.825  11.040  10.308  0.3444 -0.2278 -0.6266
  183MOL0     C24623   9.892  10.836   9.818  0.9538  0.0635  0.0219
  183MOL0     C24624   9.842  10.727   9.751 -0.0388 -0.9324 -0.3995
  183MOL0     C24625   9.814  10.471   9.399 -0.7144  0.3405 -0.0877
  183MOL0     C24626   9.884  10.355   9.356  0.3021 -0.3507  0.1009
  183MOL0     C24627   9.835  10.293   9.244  0.0381  0.8934  0.3971
  183MOL0     C24628   9.720  10.332   9.177  0.2830  0.6144 -0.2433
  183MOL0     O24629   9.686  10.250   9.068 -0.0355 -0.0835 -0.1147
  183MOL0     C24630   9.591  10.296   8.970  0.7782 -1.3245  1.0792
  183MOL0     C24631   9.631  10.220   8.845 -0.6800  0.4358  0.7094
  183MOL0     C24632   9.766  10.274   8.782  0.0451  0.6852 -0.8132
  183MOL0     C24633   9.807  10.206   8.647  0.4111  0.4248 -0.9423
  183MOL0     C24634   9.709  10.207   8.540 -0.2426  0.2165  0.0075
  183MOL0     C24635   9.642  10.205   8.444  0.5133 -0.6014 -0.6499
  183MOL0     C24636   9.645  10.434   9.228  0.4662 -0.3359 -0.3527
  183MOL0     C24637   9.688  10.500   9.337 -1.0537  0.6004 -0.4477
  183MOL0     H24638   9.682  10.875   9.492 -0.5100 -0.9708 -0.8036
  183MOL0     H24639   9.736  11.079   9.646 -0.6300 -0.5133 -0.8605
  183MOL0     H24640   9.881  11.003  10.044  1.0429 -1.0140  0.1606
  183MOL0     H24641  10.039  11.019   9.969  0.0347 -1.9959 -1.6266
  183MOL0     H24642  10.042  11.258   9.969  0.1143 -2.0535 -1.2935
  183MOL0     H24643   9.889  11.267  10.061 -0.2955  0.0287  1.1171
  183MOL0     H24644  10.062  11.293  10.210  0.7729 -0.7703  1.9387
  183MOL0     H24645   9.996  11.133  10.236 -1.2343  1.9455  1.1829
  183MOL0     H24646  10.202  11.028  10.135  0.6381  0.4950 -0.5245
  183MOL0     H24647  10.240  11.169  10.059 -1.1166  0.7637 -0.2484
  183MOL0     H24648  10.296  11.281  10.278 -1.9857  0.4092  0.1927
  183MOL0     H24649  10.223  11.141  10.367  2.2798  0.0988  1.4684
  183MOL0     H24650  10.414  11.009  10.308 -1.5819  0.2622  2.8854
  183MOL0     H24651  10.460  11.138  10.185 -1.8855  5.3168 -0.5217
  183MOL0     H24652  10.544  11.267  10.343  0.1244  0.8338  0.2931
  183MOL0     H24653  10.439  11.205  10.477  0.2826  2.3853 -1.7694
  183MOL0     H24654  10.602  10.991  10.429  1.4376 -0.9262  0.3286
  183MOL0     H24655  10.632  11.117  10.551 -1.3722 -1.1296 -0.3235
  183MOL0     H24656  10.784  11.331  10.448 -0.2040  1.0988 -2.2616
  183MOL0     H24657  10.963  11.387  10.152 -0.1563 -0.3382 -0.6373
  183MOL0     H24658  10.957  11.447  10.311  2.4465  0.5007 -1.0467
  183MOL0     H24659  11.199  11.413  10.215  1.7216  0.5025  4.0133
  183MOL0     H24660  11.172  11.243  10.217  1.8215  1.2774 -2.5757
  183MOL0     H24661  11.141  11.258  10.464  0.1380 -0.5471 -0.5503
  183MOL0     H24662  11.158  11.424  10.458 -5.1047 -0.2856 -1.0482
  183MOL0     H24663  11.385  11.407  10.353 -2.7429  1.6919 -0.8996
  183MOL0     H24664  11.386  11.233  10.366 -1.0344 -0.1480 -0.3394
  183MOL0     H24665  11.602  11.147  10.552  2.4079  0.3639  1.0537
  183MOL0     H24666  11.809  11.088  10.610  4.0625 -1.6103  2.1167
  183MOL0     H24667  11.937  11.169  10.505  0.2350  1.4601  0.3562
  183MOL0     H24668  11.921  11.212  10.667 -0.6943 -0.1415  1.5506
  183MOL0     H24669  11.994  11.829  10.461 -0.3516 -0.0617 -0.4116
  183MOL0     H24670  12.188  11.944  10.413  0.9010  1.7073  2.0256
  183MOL0     H24671  12.584  11.822  10.601  2.0611  0.7309 -0.6482
  183MOL0     H24672  12.564  11.742  10.450 -1.2569  0.8714 -1.5910
  183MOL0     H24673  12.691  12.025  10.495  1.5717 -0.7227  0.8958
  183MOL0     H24674  12.766  11.882  10.476 -1.9701 -1.5052  2.6535
  183MOL0     H24675  12.565  12.010  10.274  0.7508  0.9144 -0.2597
  183MOL0     H24676  12.663  11.863  10.247 -0.9210 -0.4236  0.6357
  183MOL0     H24677  12.774  12.141  10.329  3.2970  0.1619  0.2461
  183MOL0     H24678  12.863  12.002  10.249 -0.8454 -1.3986  1.5369
  183MOL0     H24679  12.640  12.163  10.113 -2.3294 -4.7419  1.0842
  183MOL0     H24680  12.724  12.036  10.046 -1.3984  0.6740 -1.7130
  183MOL0     H24681  12.858  12.279  10.168 -2.3414 -2.1890  1.3268
  183MOL0     H24682  12.945  12.152  10.105 -2.1236 -3.5823 -2.4346
  183MOL0     H24683  12.768  12.350   9.959 -1.5039 -0.9422 -0.8663
  183MOL0     H24684  12.810  12.204   9.869 -3.4264  1.7881 -0.6041
  183MOL0     H24685  13.047  12.265   9.960 -1.7375  0.4524  3.8321
  183MOL0     H24686  12.990  12.422   9.988 -0.7000 -0.4424  0.1419
  183MOL0     H24687  12.419  11.666  10.632  2.3298  4.0091 -1.6361
  183MOL0     H24688  12.211  11.519  10.658  2.2286 -0.8525  0.1097
  183MOL0     H24689  11.722  11.618  10.603 -0.0143 -0.9248  0.7916
  183MOL0     H24690  11.482  11.547  10.601  0.1177 -0.8539  2.1285
  183MOL0     H24691   9.953  10.823   9.907 -2.0744 -0.7427  2.1539
  183MOL0     H24692   9.874  10.627   9.781 -1.3011 -0.4850  2.9372
  183MOL0     H24693   9.965  10.305   9.409  0.8561 -1.3302 -1.6056
  183MOL0     H24694   9.896  10.211   9.206 -0.3146  0.6406  0.3725
  183MOL0     H24695   9.490  10.264   8.996  0.0481  0.5642  0.7668
  183MOL0     H24696   9.591  10.403   8.948  0.4444 -1.3686  0.8539
  183MOL0     H24697   9.555  10.227   8.767  0.2447  1.3297 -0.1406
  183MOL0     H24698   9.649  10.121   8.887 -0.1883 -0.2121 -0.9476
  183MOL0     H24699   9.850  10.268   8.851 -0.8603  0.8018  0.3197
  183MOL0     H24700   9.757  10.382   8.763  1.5443  0.4366 -3.5249
  183MOL0     H24701   9.826  10.104   8.682 -2.0343  0.8306  1.9605
  183MOL0     H24702   9.899  10.251   8.607  0.9564 -0.5319 -0.8089
  183MOL0     H24703   9.588  10.182   8.354  2.3637 -1.7763 -1.5192
  183MOL0     H24704   9.551  10.459   9.180  0.4625 -2.0796 -1.3360
  183MOL0     H24705   9.620  10.573   9.381 -0.4879  0.2014  1.1688
  184MOL0     O24706   6.615   6.713   8.639  0.2251  0.0264  0.0084
  184MOL0     C24707   6.535   6.637   8.680 -0.1346 -0.2967  0.0115
  184MOL0     O24708   6.448   6.562   8.602  0.4250  0.2685 -0.4487
  184MOL0     C24709   6.460   6.582   8.468  1.4344 -0.3510  0.1491
  184MOL0     C24710   6.575   6.552   8.406  0.0332  0.4240 -1.5522
  184MOL0     C24711   6.582   6.563   8.265 -0.0455  0.0106 -0.6485
  184MOL0     C24712   6.468   6.598   8.185  0.6376  0.0925  0.2964
  184MOL0     O24713   6.477   6.602   8.051  0.3106  0.5887  0.2420
  184MOL0     C24714   6.352   6.622   7.978 -1.3253  0.4302  0.4962
  184MOL0     C24715   6.377   6.657   7.835 -0.0901  0.1888  0.6354
  184MOL0     C24716   6.476   6.782   7.810  0.6641  0.0544  0.4583
  184MOL0     C24717   6.417   6.911   7.871  0.8317  0.6088  0.3121
  184MOL0     C24718   6.510   7.030   7.844 -0.7092  0.3542 -0.0671
  184MOL0     C24719   6.447   7.169   7.905 -0.4493  0.3412  0.0698
  184MOL0     C24720   6.549   7.286   7.923 -0.7116  0.2052  0.0520
  184MOL0     C24721   6.607   7.337   7.792 -0.5967  0.3479 -0.3387
  184MOL0     N24722   6.742   7.401   7.800 -0.0889  0.7187 -0.1469
  184MOL0     C24723   6.770   7.516   7.873  0.5020  0.3919 -1.2155
  184MOL0     C24724   6.903   7.507   7.893  0.2226  0.4455  0.0910
  184MOL0     C24725   6.982   7.593   7.999  0.5459  0.6142  0.4102
  184MOL0     C24726   7.046   7.720   7.939  0.3729  0.7806  0.2694
  184MOL0     C24727   7.168   7.713   7.841 -0.7113  0.6116 -0.5027
  184MOL0     C24728   7.274   7.626   7.908 -0.2597 -0.2119  0.2614
  184MOL0     O24729   7.307   7.670   8.032  0.1819  0.2427  0.2846
  184MOL0     C24730   7.425   7.635   8.095 -0.0357  0.6737 -0.2031
  184MOL0     C24731   7.477   7.712   8.210  0.4194 -0.5008 -0.7577
  184MOL0     C24732   7.582   7.676   8.289  1.0058 -0.3353 -0.8688
  184MOL0     C24733   7.603   7.754   8.419 -0.9584 -0.5232  0.3227
  184MOL0     C24734   7.663   7.567   8.251 -0.4187 -0.3611 -0.7003
  184MOL0     C24735   7.773   7.506   8.341 -0.6594 -0.2496  0.4817
  184MOL0     O24736   7.836   7.390   8.296  0.4768  0.3230 -0.6695
  184MOL0     C24737   7.913   7.317   8.385  0.1259 -0.6541 -0.6942
  184MOL0     C24738   8.049   7.333   8.378 -0.0210  0.3889  0.2191
  184MOL0     C24739   8.131   7.250   8.457  0.5917 -0.2780 -0.5451
  184MOL0     C24740   8.078   7.155   8.546  0.1926  0.6586  0.6546
  184MOL0     O24741   8.145   7.083   8.634 -0.1586 -0.9885  0.2730
  184MOL0     C24742   8.281   7.055   8.604 -0.8630 -0.9161 -0.6511
  184MOL0     C24743   8.309   6.947   8.500  0.0356  0.4355  0.0522
  184MOL0     C24744   8.234   6.811   8.535 -0.5279 -0.3960 -0.1565
  184MOL0     C24745   8.262   6.698   8.438 -0.1018  0.3993  0.1718
  184MOL0     C24746   8.189   6.562   8.479  0.7436  0.0092  0.2969
  184MOL0     C24747   8.200   6.506   8.625 -0.5888  0.2060  0.0619
  184MOL0     C24748   8.121   6.376   8.618 -0.0203 -0.0578  0.8264
  184MOL0     C24749   8.096   6.315   8.749 -0.0844  0.3136 -0.1670
  184MOL0    Cl24750   8.028   6.166   8.709 -0.2362 -0.0360 -0.2737
  184MOL0     C24751   7.939   7.141   8.546  0.0825 -0.3049 -0.3900
  184MOL0     C24752   7.849   7.224   8.474 -0.1103  0.4125  0.9115
  184MOL0     O24753   7.814   7.564   8.445  0.2992  0.4049  0.0410
  184MOL0     C24754   7.626   7.508   8.129  0.5381  0.1495 -0.1731
  184MOL0     C24755   7.510   7.536   8.060 -0.8623  0.2057  0.4721
  184MOL0     N24756   6.961   7.408   7.814 -0.4372  0.6241 -0.9387
  184MOL0     N24757   6.864   7.343   7.759 -0.4025 -0.1275 -0.2701
  184MOL0     C24758   6.345   6.623   8.257  0.1008 -0.6767  0.0243
  184MOL0     C24759   6.349   6.625   8.398 -0.8547  1.1165 -0.1261
  184MOL0     C24760   6.531   6.616   8.823 -0.4025  0.0134 -0.1441
  184MOL0     C24761   6.639   6.652   8.906 -0.0226  0.7021 -0.9013
  184MOL0     C24762   6.622   6.641   9.046  0.3291  0.0541  0.2424
  184MOL0     C24763   6.512   6.579   9.105  0.5347  0.4910  0.2497
  184MOL0     O24764   6.504   6.583   9.242  0.8511  0.2302  0.1812
  184MOL0     C24765   6.516   6.452   9.292 -0.4565 -0.0070  0.5020
  184MOL0     C24766   6.400   6.414   9.383  0.3330 -0.5024  0.6796
  184MOL0     C24767   6.367   6.266   9.391 -0.7104  1.0104 -0.1287
  184MOL0     C24768   6.283   6.228   9.510 -0.3479 -0.4666  0.0266
  184MOL0     C24769   6.168   6.307   9.506  1.0552 -0.0274 -0.2489
  184MOL0     C24770   6.074   6.389   9.485  0.0330  0.1100 -0.1878
  184MOL0     C24771   6.400   6.542   9.018 -0.4168  0.9764 -0.4781
  184MOL0     C24772   6.415   6.564   8.884 -0.2181  0.8698 -0.4830
  184MOL0     H24773   6.660   6.521   8.466 -1.5066 -0.4302  0.3049
  184MOL0     H24774   6.679   6.542   8.221 -0.0157  0.2553 -0.6994
  184MOL0     H24775   6.282   6.539   7.969 -0.2450 -0.4828  0.2179
  184MOL0     H24776   6.306   6.712   8.019  0.6647  2.4434 -1.3793
  184MOL0     H24777   6.416   6.573   7.777 -3.3935 -1.0647 -0.0014
  184MOL0     H24778   6.278   6.667   7.789 -0.5169 -0.6450  1.3393
  184MOL0     H24779   6.570   6.766   7.864  1.1495  1.5753  0.1106
  184MOL0     H24780   6.500   6.802   7.705  0.7508 -0.3129  0.4051
  184MOL0     H24781   6.319   6.934   7.827  1.1787 -0.4332 -1.0630
  184MOL0     H24782   6.408   6.890   7.978 -1.3342 -0.0170  0.0475
  184MOL0     H24783   6.605   7.011   7.893 -1.7534 -2.0370  1.1606
  184MOL0     H24784   6.526   7.038   7.736  2.0751 -1.4351  0.1253
  184MOL0     H24785   6.361   7.190   7.840 -2.1652 -0.0302  2.0930
  184MOL0     H24786   6.422   7.140   8.007  1.4222  0.2754  0.5402
  184MOL0     H24787   6.498   7.364   7.980  2.7466  1.1478  2.1087
  184MOL0     H24788   6.633   7.262   7.989  0.4434 -2.8113 -2.2816
  184MOL0     H24789   6.548   7.419   7.749  2.6055  2.1003 -1.7158
  184MOL0     H24790   6.612   7.247   7.731  0.3278  0.4136 -0.3642
  184MOL0     H24791   6.708   7.585   7.929  0.8168 -1.5703  1.8308
  184MOL0     H24792   6.915   7.635   8.075 -0.7849  1.3664 -1.1126
  184MOL0     H24793   7.050   7.525   8.051 -0.6534  0.5529  1.9962
  184MOL0     H24794   7.086   7.780   8.021  1.2496 -0.3063  0.6557
  184MOL0     H24795   6.966   7.767   7.880  3.0221  0.8043 -3.6788
  184MOL0     H24796   7.208   7.814   7.827 -1.9177  1.3676  1.1942
  184MOL0     H24797   7.146   7.665   7.745  2.1693 -0.6621 -0.6282
  184MOL0     H24798   7.362   7.643   7.845 -0.9457  0.2041 -0.6109
  184MOL0     H24799   7.255   7.519   7.902 -0.8132 -0.0444 -1.7614
  184MOL0     H24800   7.418   7.790   8.258 -3.5946 -2.7980 -1.4935
  184MOL0     H24801   7.698   7.808   8.424 -1.4688  0.3157  4.5197
  184MOL0     H24802   7.523   7.817   8.458 -1.2036 -1.3968  1.3113
  184MOL0     H24803   7.590   7.678   8.497 -2.8960 -0.6927 -0.1151
  184MOL0     H24804   8.096   7.407   8.314  1.5241 -0.2208  0.5940
  184MOL0     H24805   8.235   7.278   8.467  0.6634 -1.2236  1.9990
  184MOL0     H24806   8.342   7.143   8.580 -0.5345 -1.1982 -0.8577
  184MOL0     H24807   8.331   7.013   8.691  2.0133  1.2187 -1.1021
  184MOL0     H24808   8.267   6.998   8.413  0.1620  3.9758  1.9034
  184MOL0     H24809   8.417   6.940   8.487 -0.1337  1.7959 -3.2269
  184MOL0     H24810   8.125   6.824   8.540 -0.4507 -0.2833  1.6729
  184MOL0     H24811   8.279   6.783   8.630  3.7930  1.4306 -1.4309
  184MOL0     H24812   8.223   6.725   8.339  0.4589 -1.3245 -0.5471
  184MOL0     H24813   8.370   6.683   8.440 -0.5005 -3.4486 -0.2249
  184MOL0     H24814   8.234   6.487   8.412  1.1650  2.3363 -2.2329
  184MOL0     H24815   8.081   6.570   8.465  0.6521 -1.0683  0.3679
  184MOL0     H24816   8.303   6.501   8.661 -0.7305  1.1000  0.6348
  184MOL0     H24817   8.141   6.566   8.695 -1.5016  0.0286 -0.5490
  184MOL0     H24818   8.173   6.297   8.563  1.2506 -0.0284  1.9236
  184MOL0     H24819   8.026   6.399   8.568  1.8107 -2.1414 -4.3175
  184MOL0     H24820   8.021   6.370   8.808  0.1155  0.0985  0.2909
  184MOL0     H24821   8.188   6.303   8.807 -1.0130  1.1871  1.6124
  184MOL0     H24822   7.893   7.074   8.618 -0.1666  1.2974  1.0148
  184MOL0     H24823   7.741   7.210   8.471  0.0119 -0.7891  1.6058
  184MOL0     H24824   7.679   7.423   8.088 -1.5204 -0.7117 -1.1560
  184MOL0     H24825   7.494   7.475   7.972  0.6696 -0.1276  0.3884
  184MOL0     H24826   6.252   6.647   8.206  0.2239  0.2442  0.2081
  184MOL0     H24827   6.271   6.679   8.450 -3.1704  0.7002 -2.9076
  184MOL0     H24828   6.726   6.700   8.861  1.4017 -2.0356 -1.3002
  184MOL0     H24829   6.709   6.672   9.103  2.4447 -1.9346 -1.6476
  184MOL0     H24830   6.526   6.373   9.218  0.8932  0.1328  0.5067
  184MOL0     H24831   6.608   6.440   9.349  1.2489  1.4272 -1.7757
  184MOL0     H24832   6.318   6.470   9.335  0.8134 -0.4617 -0.1221
  184MOL0     H24833   6.435   6.459   9.476  0.5408 -1.4646  1.0696
  184MOL0     H24834   6.464   6.217   9.393 -0.8766  0.2985 -3.4531
  184MOL0     H24835   6.321   6.238   9.296  1.3454  3.3155 -1.9255
  184MOL0     H24836   6.340   6.248   9.601  0.9420  1.1825 -1.0957
  184MOL0     H24837   6.260   6.122   9.501  1.3423 -0.7286 -2.3963
  184MOL0     H24838   6.004   6.464   9.454  0.3335 -0.0261 -1.2424
  184MOL0     H24839   6.306   6.522   9.069  0.1054 -1.6300 -0.3883
  184MOL0     H24840   6.319   6.549   8.835 -0.2091 -1.0851  0.0017
  185MOL0     O24841  11.358   8.334   5.310 -0.1819  1.4228  0.0831
  185MOL0     C24842  11.255   8.318   5.237 -0.4824 -0.3953 -1.1388
  185MOL0     O24843  11.234   8.226   5.148 -0.5084  0.8511  0.1818
  185MOL0     C24844  11.340   8.135   5.138  0.3514 -0.9890 -0.4797
  185MOL0     C24845  11.461   8.181   5.075  0.3919 -0.3274  0.1886
  185MOL0     C24846  11.564   8.087   5.049  0.6290 -0.3437 -0.4675
  185MOL0     C24847  11.552   7.952   5.082 -0.3161  0.8594  0.6439
  185MOL0     O24848  11.655   7.859   5.062 -0.4289  0.5581 -0.6160
  185MOL0     C24849  11.792   7.905   5.032 -0.0734  0.3294 -0.0858
  185MOL0     C24850  11.902   7.797   5.048  0.1713 -0.5674  0.5270
  185MOL0     C24851  11.846   7.672   5.119 -1.0249  0.7709 -0.8180
  185MOL0     C24852  11.963   7.568   5.153  0.0378  0.0571 -0.4704
  185MOL0     C24853  11.910   7.430   5.149 -0.2394  0.2269  0.0230
  185MOL0     C24854  11.989   7.319   5.226 -0.3689 -0.3394  0.5491
  185MOL0     C24855  11.892   7.195   5.218  0.6987  0.7393  0.7282
  185MOL0     C24856  11.955   7.058   5.271  0.3602  0.4417  0.0115
  185MOL0     N24857  12.075   7.019   5.194  0.1878  0.1350  0.6629
  185MOL0     C24858  12.071   6.988   5.057 -0.3093 -0.1220 -0.1043
  185MOL0     C24859  12.199   6.950   5.038  0.2897  0.1031  0.0003
  185MOL0     C24860  12.260   6.884   4.917 -0.0492  0.1903 -0.0691
  185MOL0     C24861  12.346   6.765   4.963  0.0504  0.5951  1.1360
  185MOL0     C24862  12.471   6.729   4.875  0.7314 -0.1263 -1.2847
  185MOL0     C24863  12.542   6.598   4.919  0.1920 -0.1950 -0.0578
  185MOL0     O24864  12.626   6.625   5.030  0.9892 -0.1874 -0.1885
  185MOL0     C24865  12.672   6.522   5.112  0.4775 -0.1244  0.1570
  185MOL0     C24866  12.617   6.396   5.121  0.0402  0.0480  0.9813
  185MOL0     C24867  12.657   6.309   5.222  0.7582 -0.8067  1.3255
  185MOL0     C24868  12.594   6.177   5.222  0.3147  0.3450 -0.1201
  185MOL0     C24869  12.766   6.345   5.306 -0.1395  0.4061  0.0402
  185MOL0     C24870  12.806   6.245   5.412 -0.4680  0.0491 -0.5369
  185MOL0     O24871  12.940   6.241   5.426 -0.2594 -0.2723 -0.2409
  185MOL0     C24872  12.989   6.154   5.524 -0.2076  0.2527  0.3525
  185MOL0     C24873  12.983   6.015   5.494  0.3390 -0.8367 -0.0075
  185MOL0     C24874  13.023   5.911   5.579  0.6001  0.3495 -0.0895
  185MOL0     C24875  13.067   5.949   5.714  0.5174  0.0389  0.0600
  185MOL0     O24876  13.092   5.853   5.809  0.2159  0.3841  0.3747
  185MOL0     C24877  13.010   5.728   5.815 -0.5050 -0.7431  0.1187
  185MOL0     C24878  13.069   5.637   5.923  0.0546  0.6303  0.8566
  185MOL0     C24879  13.047   5.689   6.072 -0.6295 -0.3809 -0.2053
  185MOL0     C24880  13.080   5.577   6.174 -0.0483 -0.5839 -0.1040
  185MOL0     C24881  13.095   5.621   6.318  0.4782 -0.5928 -0.0038
  185MOL0     C24882  13.127   5.495   6.399 -0.2366 -0.2047 -0.1276
  185MOL0     C24883  13.125   5.538   6.552 -0.9349 -0.0418 -0.1615
  185MOL0     C24884  13.171   5.419   6.640 -0.6266 -0.0906 -0.3657
  185MOL0    Cl24885  13.341   5.374   6.610 -0.0538 -0.0550  0.1879
  185MOL0     C24886  13.089   6.085   5.743  1.3739 -0.3111  1.0541
  185MOL0     C24887  13.049   6.186   5.648  0.7293 -0.1667 -0.1410
  185MOL0     O24888  12.712   6.197   5.481 -0.3377 -0.0055 -0.6651
  185MOL0     C24889  12.837   6.459   5.289 -0.0437  0.4610  0.4413
  185MOL0     C24890  12.776   6.552   5.197  0.3235 -0.1763  0.6734
  185MOL0     N24891  12.272   6.956   5.148  0.2201 -0.4686 -0.2767
  185MOL0     N24892  12.198   6.994   5.241  1.0212 -0.8763  0.2057
  185MOL0     C24893  11.440   7.909   5.151  0.4214 -0.3554  1.0383
  185MOL0     C24894  11.330   8.000   5.176  0.4291 -0.3215 -0.3073
  185MOL0     C24895  11.152   8.413   5.268  0.3622  0.3878  0.3783
  185MOL0     C24896  11.172   8.521   5.368 -0.0688 -0.1499  1.1429
  185MOL0     C24897  11.063   8.602   5.396  0.7841  0.4928  0.2042
  185MOL0     C24898  10.947   8.600   5.320 -0.6079 -0.1442  0.2907
  185MOL0     O24899  10.829   8.676   5.345 -0.3600 -0.5286 -0.6353
  185MOL0     C24900  10.837   8.819   5.316 -0.0008 -0.1607 -0.1823
  185MOL0     C24901  10.855   8.857   5.170  0.9171  0.3565 -0.8862
  185MOL0     C24902  10.757   8.966   5.141  0.3445 -0.2752 -0.0928
  185MOL0     C24903  10.748   8.971   4.990 -0.3410  0.2112 -0.7349
  185MOL0     C24904  10.625   9.036   4.954  0.3113  0.0180  1.2395
  185MOL0     C24905  10.511   9.076   4.932  0.2681  0.2357 -0.5390
  185MOL0     C24906  10.931   8.504   5.224 -0.3746 -0.3612 -0.0163
  185MOL0     C24907  11.025   8.412   5.197  0.0068  0.0785  0.3251
  185MOL0     H24908  11.471   8.284   5.043  1.9650 -0.5933 -0.2280
  185MOL0     H24909  11.650   8.122   4.993  0.8000  0.9724  0.5714
  185MOL0     H24910  11.797   7.934   4.927 -1.5012  0.9987  0.0064
  185MOL0     H24911  11.800   7.987   5.104 -1.8723  0.2478  0.2678
  185MOL0     H24912  11.943   7.773   4.950  1.1807  0.4850  0.6776
  185MOL0     H24913  11.977   7.835   5.117 -0.0025  0.9103 -0.0652
  185MOL0     H24914  11.782   7.700   5.203  1.2021  0.2092  1.1796
  185MOL0     H24915  11.781   7.619   5.048  0.7903 -1.2823 -1.0424
  185MOL0     H24916  12.042   7.566   5.078  0.7643  0.0623  0.2786
  185MOL0     H24917  12.021   7.601   5.240  0.0404 -0.6518 -0.1939
  185MOL0     H24918  11.820   7.443   5.210  0.0524 -1.6754  0.9360
  185MOL0     H24919  11.888   7.412   5.044 -5.5425  2.7842  0.3579
  185MOL0     H24920  12.085   7.295   5.178  0.3357  0.9569  1.2406
  185MOL0     H24921  11.997   7.348   5.331 -2.3233 -3.0318  1.5433
  185MOL0     H24922  11.810   7.224   5.284  0.6164  2.2800 -0.0183
  185MOL0     H24923  11.861   7.179   5.115  0.0561  3.9555  0.3414
  185MOL0     H24924  11.885   6.974   5.280  3.5513 -2.2569  2.2487
  185MOL0     H24925  11.980   7.074   5.376  1.0964 -3.6492  0.6395
  185MOL0     H24926  11.988   6.992   4.987 -0.9205  2.7650  0.6606
  185MOL0     H24927  12.189   6.842   4.845  0.5470  1.7676 -1.6618
  185MOL0     H24928  12.323   6.959   4.867 -0.0649  2.3734  2.9483
  185MOL0     H24929  12.280   6.679   4.952  1.3401 -0.3559  0.4425
  185MOL0     H24930  12.380   6.764   5.067  2.7932 -0.8539  0.3244
  185MOL0     H24931  12.554   6.799   4.878  2.8123 -2.4695 -0.8036
  185MOL0     H24932  12.444   6.713   4.770  1.9350 -4.1302 -1.1793
  185MOL0     H24933  12.606   6.550   4.844  0.4754 -0.6816  0.4853
  185MOL0     H24934  12.462   6.526   4.942 -1.0681  0.0278 -3.1808
  185MOL0     H24935  12.542   6.364   5.049 -0.5040  1.1427  1.0353
  185MOL0     H24936  12.499   6.179   5.275  0.2848  2.2933 -0.1892
  185MOL0     H24937  12.559   6.151   5.121 -2.7737  2.0881  0.3792
  185MOL0     H24938  12.648   6.094   5.269  2.3086  1.4812 -0.3003
  185MOL0     H24939  12.937   5.978   5.403 -0.1657 -0.8629  0.2587
  185MOL0     H24940  13.013   5.808   5.546  1.5331  0.3660 -0.4370
  185MOL0     H24941  12.903   5.739   5.838 -0.6345  0.0240 -0.8231
  185MOL0     H24942  13.018   5.671   5.722  1.1155  0.8038 -0.7462
  185MOL0     H24943  13.017   5.541   5.916 -0.1258  0.7440  0.6008
  185MOL0     H24944  13.176   5.618   5.910  0.4670  3.2086 -0.3438
  185MOL0     H24945  12.955   5.744   6.096 -0.2602  0.9172 -1.6196
  185MOL0     H24946  13.122   5.769   6.078  0.1911 -1.0220 -1.5379
  185MOL0     H24947  13.002   5.505   6.146  0.3875  0.0424 -3.2948
  185MOL0     H24948  13.165   5.515   6.146 -0.1586 -1.4255  1.2650
  185MOL0     H24949  13.018   5.686   6.361  0.8134 -1.4850  2.1149
  185MOL0     H24950  13.182   5.687   6.310  2.4846 -2.5978  2.9430
  185MOL0     H24951  13.049   5.423   6.373 -1.9783  1.7347 -0.5447
  185MOL0     H24952  13.219   5.448   6.365 -0.3162  0.3855 -1.1965
  185MOL0     H24953  13.023   5.567   6.579 -0.6804 -0.4509  1.3091
  185MOL0     H24954  13.192   5.621   6.574 -0.9438 -0.0582 -0.0746
  185MOL0     H24955  13.121   5.331   6.600 -4.3511  3.6052 -5.0058
  185MOL0     H24956  13.161   5.437   6.748  2.2551 -4.4655  0.9263
  185MOL0     H24957  13.119   6.121   5.841  1.2085  1.9651  0.3458
  185MOL0     H24958  13.050   6.288   5.687 -2.7699 -0.7723  2.0068
  185MOL0     H24959  12.929   6.487   5.338  0.4437 -0.8361  0.3132
  185MOL0     H24960  12.817   6.653   5.197 -0.3785  0.2108  3.9977
  185MOL0     H24961  11.428   7.804   5.176 -3.5124 -0.0445  1.0692
  185MOL0     H24962  11.241   7.960   5.224  1.0003 -0.4197  0.6912
  185MOL0     H24963  11.257   8.548   5.430 -0.5864  1.1796  1.3026
  185MOL0     H24964  11.062   8.672   5.479  0.3097 -1.4835  1.9600
  185MOL0     H24965  10.744   8.856   5.361  0.1050  0.6859 -0.6415
  185MOL0     H24966  10.916   8.857   5.381 -0.9077 -0.8043  1.3844
  185MOL0     H24967  10.827   8.766   5.117  1.9365  0.0901 -0.9914
  185MOL0     H24968  10.956   8.891   5.145  0.7524  0.8887 -0.8544
  185MOL0     H24969  10.782   9.068   5.170 -1.1978 -0.8522  3.8333
  185MOL0     H24970  10.657   8.939   5.177 -0.7970  3.6071  0.1284
  185MOL0     H24971  10.755   8.877   4.935  0.9973  0.4114 -0.9522
  185MOL0     H24972  10.836   9.031   4.962  0.2436  0.8958  2.1955
  185MOL0     H24973  10.408   9.104   4.929 -0.1238  0.0038  3.9267
  185MOL0     H24974  10.847   8.504   5.156 -0.7995  0.7431  0.4987
  185MOL0     H24975  11.005   8.338   5.121  3.6193  0.9307 -1.6959
  186MOL0     O24976   7.722   2.606   1.705  0.2034  0.2251 -1.1224
  186MOL0     C24977   7.725   2.498   1.764 -0.4710 -0.1497 -0.5563
  186MOL0     O24978   7.730   2.483   1.908  0.1413 -0.2980  0.9382
  186MOL0     C24979   7.757   2.605   1.974 -0.2539  0.1910 -0.0040
  186MOL0     C24980   7.679   2.725   1.958  0.2178 -0.3651  0.9681
  186MOL0     C24981   7.683   2.831   2.046  0.4526 -0.2109 -0.5511
  186MOL0     C24982   7.778   2.832   2.158  0.1283 -0.0295  0.3769
  186MOL0     O24983   7.781   2.944   2.237 -0.1453  0.1872  0.2424
  186MOL0     C24984   7.841   2.956   2.363  0.3202  0.0228 -0.4237
  186MOL0     C24985   7.983   3.019   2.336  0.7953  0.5014 -0.7255
  186MOL0     C24986   8.047   3.073   2.468 -0.0475 -0.1274  0.1718
  186MOL0     C24987   8.081   2.966   2.564 -0.3220  0.1133 -0.0257
  186MOL0     C24988   8.163   3.028   2.688  0.3864 -1.1066  0.2954
  186MOL0     C24989   8.299   3.063   2.664 -0.6103 -0.2117 -0.5525
  186MOL0     C24990   8.372   3.135   2.786 -0.0190 -0.3020 -0.8760
  186MOL0     C24991   8.345   3.281   2.786  0.8717 -0.1011  0.1262
  186MOL0     N24992   8.407   3.347   2.903  0.1137  0.3181 -0.5933
  186MOL0     C24993   8.352   3.382   3.025  0.5146  0.0790  0.3453
  186MOL0     C24994   8.453   3.440   3.093  0.3312  0.6192 -0.5775
  186MOL0     C24995   8.455   3.463   3.240  0.0623  0.5817  0.3777
  186MOL0     C24996   8.442   3.324   3.304  0.3957  0.0709 -0.2801
  186MOL0     C24997   8.430   3.324   3.453 -0.1110  0.4930  0.6734
  186MOL0     C24998   8.287   3.367   3.494  0.8136  0.7809  0.4394
  186MOL0     O24999   8.282   3.506   3.512  0.8803  1.0190 -0.6471
  186MOL0     C25000   8.198   3.568   3.597 -0.3368  1.2438 -0.0657
  186MOL0     C25001   8.225   3.704   3.618 -0.5690  0.1051  0.8496
  186MOL0     C25002   8.142   3.776   3.699 -0.7283 -0.3706  0.4819
  186MOL0     C25003   8.180   3.923   3.722 -0.0035 -0.1014  0.2700
  186MOL0     C25004   8.032   3.720   3.767 -0.6190 -0.3338 -0.2731
  186MOL0     C25005   7.943   3.803   3.844 -0.5120  0.4951 -0.6871
  186MOL0     O25006   7.897   3.757   3.966 -0.0853  0.1985  0.4391
  186MOL0     C25007   7.849   3.850   4.054 -0.0187  0.4586  1.1075
  186MOL0     C25008   7.716   3.852   4.097 -0.7409  0.2964 -0.8378
  186MOL0     C25009   7.675   3.937   4.207 -0.2113 -0.0167  0.1509
  186MOL0     C25010   7.760   4.027   4.271  0.6298  0.5061 -0.1826
  186MOL0     O25011   7.729   4.119   4.372 -0.2446  0.5078 -0.0502
  186MOL0     C25012   7.599   4.177   4.372  0.3908  0.2780 -0.1974
  186MOL0     C25013   7.585   4.286   4.472 -0.3088  0.7584  0.1138
  186MOL0     C25014   7.638   4.426   4.435  0.2987  0.4166  0.4223
  186MOL0     C25015   7.786   4.444   4.436  0.3712  0.6119  0.0314
  186MOL0     C25016   7.838   4.589   4.435 -0.1727 -0.9372  0.2280
  186MOL0     C25017   7.766   4.685   4.532 -0.4368  0.4103 -1.2116
  186MOL0     C25018   7.831   4.822   4.550 -0.3781  0.4217  0.4277
  186MOL0     C25019   7.978   4.828   4.571 -0.0873 -0.0367  0.6978
  186MOL0    Cl25020   8.020   4.996   4.601  0.3692  0.3302 -0.2985
  186MOL0     C25021   7.886   4.030   4.217  0.3622 -0.2410 -0.2285
  186MOL0     C25022   7.934   3.937   4.116  1.0540 -0.4290  0.3117
  186MOL0     O25023   7.894   3.897   3.788  0.1393 -0.1429 -0.3775
  186MOL0     C25024   8.001   3.580   3.750 -0.3755 -0.3037  0.0944
  186MOL0     C25025   8.082   3.504   3.658 -0.6502 -0.7939  0.1512
  186MOL0     N25026   8.561   3.444   3.020 -0.0562 -0.1455 -0.0173
  186MOL0     N25027   8.531   3.403   2.904  0.8175  0.7968  0.7601
  186MOL0     C25028   7.853   2.717   2.171  0.0542  0.0206 -0.8229
  186MOL0     C25029   7.849   2.610   2.084  0.1174  0.2192  0.7183
  186MOL0     C25030   7.717   2.384   1.675  0.1403  0.1683 -0.3425
  186MOL0     C25031   7.807   2.378   1.564  0.7865  0.6955 -0.1931
  186MOL0     C25032   7.790   2.280   1.462 -1.0117 -0.2730  0.7753
  186MOL0     C25033   7.692   2.183   1.469  0.2528 -0.0046 -0.3734
  186MOL0     O25034   7.695   2.078   1.368  0.0412  0.4418 -0.7499
  186MOL0     C25035   7.619   1.963   1.405  1.0555 -0.3952  0.1699
  186MOL0     C25036   7.693   1.853   1.340  0.3061 -0.0912  0.0055
  186MOL0     C25037   7.647   1.724   1.393 -0.4479 -0.6884 -0.3873
  186MOL0     C25038   7.527   1.664   1.327  0.1302 -0.1032 -0.0022
  186MOL0     C25039   7.413   1.756   1.298 -0.2991 -0.4796 -0.3151
  186MOL0     C25040   7.312   1.819   1.282  0.0023 -0.1292  0.1953
  186MOL0     C25041   7.605   2.190   1.582 -0.7635  0.3275 -0.2771
  186MOL0     C25042   7.620   2.292   1.683  0.3746  0.3363 -0.0090
  186MOL0     H25043   7.612   2.730   1.873  3.5649  0.9654 -1.8457
  186MOL0     H25044   7.629   2.924   2.037  1.8093  0.6835  0.2458
  186MOL0     H25045   7.787   3.026   2.428 -1.8710 -1.5361 -0.4770
  186MOL0     H25046   7.852   2.861   2.416  2.8094 -0.3788 -1.4981
  186MOL0     H25047   8.059   2.953   2.291  0.6025  0.7957 -1.4962
  186MOL0     H25048   7.973   3.103   2.267  0.5174  1.5939  0.6330
  186MOL0     H25049   8.132   3.135   2.436 -0.6875  1.1176  0.8073
  186MOL0     H25050   7.982   3.148   2.513  1.3570 -1.0606  4.1230
  186MOL0     H25051   7.986   2.932   2.607 -0.3895  1.4124  0.9037
  186MOL0     H25052   8.139   2.881   2.526  1.3382  1.1880 -0.0047
  186MOL0     H25053   8.111   3.117   2.727  0.0490  0.6113 -3.5973
  186MOL0     H25054   8.153   2.958   2.771 -1.9565  0.2509  1.2613
  186MOL0     H25055   8.343   2.963   2.668 -1.0278 -0.4337 -1.3070
  186MOL0     H25056   8.308   3.113   2.567  1.1540 -1.2949 -0.9993
  186MOL0     H25057   8.338   3.105   2.886  0.3959  3.4233  0.5279
  186MOL0     H25058   8.477   3.106   2.796 -0.5086 -1.2499  2.6540
  186MOL0     H25059   8.237   3.289   2.801  1.1845 -0.2394  2.9536
  186MOL0     H25060   8.373   3.317   2.687  0.4752 -0.5083 -0.1405
  186MOL0     H25061   8.257   3.352   3.068  0.4406 -1.3987 -0.7350
  186MOL0     H25062   8.559   3.492   3.257  0.1919  0.2543  0.1463
  186MOL0     H25063   8.380   3.535   3.272 -0.4895 -0.5697  1.7996
  186MOL0     H25064   8.532   3.265   3.281  1.8898  2.9015 -2.3327
  186MOL0     H25065   8.359   3.264   3.265  0.9887 -0.6067 -0.5266
  186MOL0     H25066   8.505   3.385   3.504  1.2381 -0.7910  0.3104
  186MOL0     H25067   8.448   3.220   3.481 -0.1031  0.7361  1.6140
  186MOL0     H25068   8.251   3.304   3.576 -0.5752 -0.4679 -1.0623
  186MOL0     H25069   8.209   3.343   3.421 -0.1071 -1.7455  2.1211
  186MOL0     H25070   8.302   3.757   3.563 -0.2810  0.6419  1.7469
  186MOL0     H25071   8.127   3.974   3.803 -2.9053  0.3885 -1.7907
  186MOL0     H25072   8.285   3.944   3.743 -0.9002  2.4805  2.7538
  186MOL0     H25073   8.156   3.983   3.633  0.9069  1.7083  1.2021
  186MOL0     H25074   7.642   3.778   4.070  1.2557 -2.5927  1.0818
  186MOL0     H25075   7.570   3.938   4.233 -0.8138 -0.1868 -2.0974
  186MOL0     H25076   7.572   4.218   4.274  1.1091  1.4885  0.0806
  186MOL0     H25077   7.534   4.094   4.399  0.6400  0.1480  0.0028
  186MOL0     H25078   7.477   4.294   4.487 -0.8887  0.0400 -3.0085
  186MOL0     H25079   7.627   4.238   4.561 -1.1339  0.5592  0.4067
  186MOL0     H25080   7.604   4.492   4.515  1.5127  1.5427  0.0584
  186MOL0     H25081   7.592   4.468   4.346  1.3345 -0.4414 -0.5505
  186MOL0     H25082   7.836   4.388   4.515  1.0784 -0.7770 -1.3228
  186MOL0     H25083   7.820   4.382   4.352  0.6381 -1.7277  1.7692
  186MOL0     H25084   7.830   4.635   4.336 -0.5039 -0.0655  0.6487
  186MOL0     H25085   7.942   4.577   4.467 -0.1038 -3.4749 -0.7118
  186MOL0     H25086   7.663   4.700   4.497 -1.4797  1.8777  2.1111
  186MOL0     H25087   7.754   4.630   4.625  1.6626  0.5689 -0.8018
  186MOL0     H25088   7.784   4.869   4.637  0.2133  2.0969 -0.1190
  186MOL0     H25089   7.806   4.884   4.463  1.1089  0.7119  0.1963
  186MOL0     H25090   8.017   4.779   4.481 -0.1185  1.8847 -0.4196
  186MOL0     H25091   7.989   4.775   4.666  0.7840 -0.1635  0.5266
  186MOL0     H25092   7.956   4.107   4.246  2.1394 -1.6114 -0.6885
  186MOL0     H25093   8.040   3.923   4.102  0.9398 -0.4785 -0.5799
  186MOL0     H25094   7.911   3.530   3.783 -2.9588  2.6560 -1.9252
  186MOL0     H25095   8.050   3.400   3.651  2.8450 -1.9779 -0.1251
  186MOL0     H25096   7.914   2.702   2.259  1.7198  0.4298 -1.8673
  186MOL0     H25097   7.910   2.524   2.110  0.4427  0.0635 -0.5020
  186MOL0     H25098   7.880   2.458   1.563  0.0061  1.4191 -0.9173
  186MOL0     H25099   7.855   2.276   1.375 -1.6178  1.4018  0.2131
  186MOL0     H25100   7.604   1.946   1.512  0.2380  1.3504  0.3667
  186MOL0     H25101   7.521   1.984   1.361 -0.2006 -0.3412  2.8054
  186MOL0     H25102   7.800   1.869   1.354 -0.3168  3.3069  2.1233
  186MOL0     H25103   7.671   1.864   1.234 -0.8339 -0.4589  0.1861
  186MOL0     H25104   7.629   1.736   1.501  2.8151  0.6736  0.1263
  186MOL0     H25105   7.719   1.641   1.391 -0.1555 -0.4275 -0.6065
  186MOL0     H25106   7.490   1.592   1.400  1.5397 -0.8702  0.0042
  186MOL0     H25107   7.560   1.609   1.238 -0.3937 -1.2096  0.4787
  186MOL0     H25108   7.224   1.877   1.261  0.4040  0.8436  1.1243
  186MOL0     H25109   7.542   2.104   1.599 -1.5553  1.2462  1.7269
  186MOL0     H25110   7.559   2.283   1.773 -0.4784 -1.0363 -0.6847
  187MOL0     O25111   3.642   2.634   8.484 -0.3138  0.1966  0.3344
  187MOL0     C25112   3.655   2.682   8.597 -0.0053  0.0289 -0.1344
  187MOL0     O25113   3.548   2.724   8.677 -0.0594  0.4178  0.2428
  187MOL0     C25114   3.418   2.722   8.629  0.6278 -0.4026  0.8101
  187MOL0     C25115   3.330   2.635   8.691  0.2376 -0.4400 -0.7833
  187MOL0     C25116   3.194   2.644   8.642  0.3400  0.3181  0.5524
  187MOL0     C25117   3.151   2.733   8.539  0.3004 -0.1591  0.4978
  187MOL0     O25118   3.026   2.727   8.495  0.5727  1.7083 -0.1905
  187MOL0     C25119   2.953   2.842   8.480 -0.5052  0.3584 -0.6683
  187MOL0     C25120   2.799   2.832   8.519  0.3290 -0.7743  0.3663
  187MOL0     C25121   2.723   2.745   8.426  0.8840  0.0894  0.2967
  187MOL0     C25122   2.565   2.759   8.426 -0.9216  0.0566  0.3835
  187MOL0     C25123   2.495   2.700   8.297 -0.4766 -0.1447  0.2424
  187MOL0     C25124   2.502   2.780   8.170  0.0744  0.0201  0.9996
  187MOL0     C25125   2.386   2.759   8.076  0.8679  0.4565  0.0880
  187MOL0     C25126   2.383   2.633   7.999  0.3686 -0.7074 -0.0720
  187MOL0     N25127   2.250   2.601   7.943 -0.3631 -0.5468  0.7928
  187MOL0     C25128   2.217   2.651   7.823  0.0447 -0.4496 -0.4329
  187MOL0     C25129   2.096   2.599   7.801 -0.2041 -0.4980  0.0910
  187MOL0     C25130   1.999   2.624   7.690  0.1675  0.2967  0.3964
  187MOL0     C25131   2.056   2.602   7.553  0.6346 -0.3698  0.7907
  187MOL0     C25132   2.081   2.451   7.531 -0.3441  0.2659 -0.0514
  187MOL0     C25133   2.064   2.422   7.381 -0.2783  1.3654 -0.5279
  187MOL0     O25134   1.929   2.386   7.354  0.0605  0.4328 -0.1618
  187MOL0     C25135   1.909   2.288   7.258  0.9434 -0.4760  0.3786
  187MOL0     C25136   1.817   2.190   7.296  0.0257 -0.6205 -0.5345
  187MOL0     C25137   1.752   2.111   7.209 -0.2506 -0.0351  0.2517
  187MOL0     C25138   1.645   2.018   7.265  0.0122 -0.2493 -0.4547
  187MOL0     C25139   1.791   2.120   7.073  0.1517 -1.1219 -0.3795
  187MOL0     C25140   1.729   2.036   6.971 -0.3486 -0.0328  0.7243
  187MOL0     O25141   1.711   2.115   6.860 -0.3460 -0.1609  0.0533
  187MOL0     C25142   1.671   2.053   6.750  0.4259 -0.1148  0.2973
  187MOL0     C25143   1.552   1.979   6.732 -0.1168 -0.2676 -0.0147
  187MOL0     C25144   1.527   1.921   6.607  0.4109  0.1593 -0.4124
  187MOL0     C25145   1.619   1.938   6.498  0.3350 -0.3497  0.4701
  187MOL0     O25146   1.604   1.898   6.371  0.1871 -0.0265  0.6541
  187MOL0     C25147   1.496   1.803   6.348 -0.5875 -1.2458  1.0681
  187MOL0     C25148   1.488   1.740   6.209 -0.4076 -0.4735 -0.6357
  187MOL0     C25149   1.346   1.684   6.175 -0.1583  0.3860 -0.3096
  187MOL0     C25150   1.348   1.617   6.045 -0.4575 -0.0089 -0.3031
  187MOL0     C25151   1.217   1.547   6.010 -0.6456  0.1342 -0.2881
  187MOL0     C25152   1.205   1.409   6.088 -0.6192  0.0360  0.2896
  187MOL0     C25153   1.093   1.310   6.032  0.0157 -0.4529 -0.3380
  187MOL0     C25154   1.019   1.217   6.130  0.1108 -0.0863  0.0471
  187MOL0    Cl25155   0.939   1.317   6.247  0.2406  0.0439 -0.4054
  187MOL0     C25156   1.734   2.013   6.518  0.0578 -0.1571  0.9507
  187MOL0     C25157   1.762   2.073   6.636 -0.1178 -0.4444 -0.4883
  187MOL0     O25158   1.692   1.921   6.983 -0.2035  0.4384  0.9877
  187MOL0     C25159   1.895   2.206   7.036 -0.5504  0.3181  0.2756
  187MOL0     C25160   1.957   2.293   7.127 -0.7535 -0.4869 -0.0703
  187MOL0     N25161   2.065   2.501   7.890  0.2143 -0.8107 -0.7021
  187MOL0     N25162   2.160   2.509   7.982  0.1177  0.8974 -0.8289
  187MOL0     C25163   3.244   2.826   8.487 -0.0370 -0.6635  0.3239
  187MOL0     C25164   3.373   2.815   8.540 -0.4402  0.4803 -0.3359
  187MOL0     C25165   3.785   2.697   8.666 -0.2924 -0.8081  0.7689
  187MOL0     C25166   3.810   2.757   8.792  0.5091  0.2869  0.1433
  187MOL0     C25167   3.937   2.781   8.850  0.8112 -0.8717  1.1738
  187MOL0     C25168   4.053   2.745   8.776  1.1172  0.1697 -1.3817
  187MOL0     O25169   4.172   2.765   8.841 -0.6849 -0.8099 -0.4230
  187MOL0     C25170   4.281   2.691   8.790  0.0316 -0.3263 -0.1631
  187MOL0     C25171   4.406   2.696   8.877  0.2787  0.1134 -0.0106
  187MOL0     C25172   4.396   2.664   9.027  0.4171 -0.2386 -0.0841
  187MOL0     C25173   4.533   2.696   9.089 -0.1460  0.7766 -0.4565
  187MOL0     C25174   4.623   2.589   9.045  0.1722 -0.2230 -0.5518
  187MOL0     C25175   4.713   2.516   9.020  0.1964  0.0426 -0.2879
  187MOL0     C25176   4.031   2.679   8.653 -0.3073  1.1504 -0.3320
  187MOL0     C25177   3.903   2.651   8.598  0.9523 -0.4379  1.1060
  187MOL0     H25178   3.360   2.563   8.766 -3.3288 -0.0300  1.2653
  187MOL0     H25179   3.119   2.580   8.687  0.4181  0.8284  1.4370
  187MOL0     H25180   3.000   2.926   8.531 -1.3318  0.5650 -0.2329
  187MOL0     H25181   2.967   2.876   8.377  1.4339  1.6409 -0.0314
  187MOL0     H25182   2.779   2.789   8.618 -0.4728 -0.3776  0.3860
  187MOL0     H25183   2.755   2.933   8.522 -1.5068 -1.5464  2.8677
  187MOL0     H25184   2.751   2.781   8.327 -2.3932 -1.8623 -1.5678
  187MOL0     H25185   2.748   2.640   8.446 -2.9047 -0.7016  1.8998
  187MOL0     H25186   2.533   2.705   8.516 -0.0422 -2.7876 -0.8707
  187MOL0     H25187   2.535   2.864   8.429 -1.3585  0.0001 -1.1264
  187MOL0     H25188   2.542   2.603   8.276 -1.1068 -0.4141  0.0243
  187MOL0     H25189   2.391   2.691   8.330 -0.2764  0.9975  1.2434
  187MOL0     H25190   2.514   2.883   8.202  1.2191 -0.3215  1.7080
  187MOL0     H25191   2.591   2.747   8.114  1.2819 -0.5876  3.1420
  187MOL0     H25192   2.286   2.774   8.120 -1.0929 -0.2491 -3.7130
  187MOL0     H25193   2.400   2.843   8.008  1.3001  1.8957  1.8734
  187MOL0     H25194   2.409   2.549   8.064 -1.8242 -1.2082  0.2406
  187MOL0     H25195   2.457   2.644   7.920  0.3882  1.7397  0.2019
  187MOL0     H25196   2.266   2.724   7.761 -1.3488  0.5338 -0.4159
  187MOL0     H25197   1.908   2.565   7.704  1.0828 -1.1859  0.3702
  187MOL0     H25198   1.970   2.729   7.693  0.2371  0.4607 -2.2895
  187MOL0     H25199   2.141   2.667   7.531 -1.2962  2.8239  2.0829
  187MOL0     H25200   1.984   2.640   7.479 -2.0275  0.3142  3.5211
  187MOL0     H25201   2.019   2.391   7.598  1.8988 -3.9006 -1.3645
  187MOL0     H25202   2.185   2.431   7.556  0.4740  0.0673 -3.1885
  187MOL0     H25203   2.122   2.332   7.359  2.3559  1.5816  4.1985
  187MOL0     H25204   2.105   2.504   7.320  0.2259  3.0932  1.9776
  187MOL0     H25205   1.798   2.192   7.403  1.1195  2.5169 -0.3065
  187MOL0     H25206   1.656   1.998   7.372 -0.8415 -1.7844 -0.6227
  187MOL0     H25207   1.542   2.055   7.259 -0.3410 -0.9895  0.7542
  187MOL0     H25208   1.643   1.919   7.218  0.4074  0.0297 -1.0704
  187MOL0     H25209   1.486   1.951   6.814  0.6035 -1.4290  0.1963
  187MOL0     H25210   1.440   1.857   6.591 -1.2155  2.2817 -0.4403
  187MOL0     H25211   1.505   1.718   6.416  1.2654 -1.4616  0.6035
  187MOL0     H25212   1.399   1.841   6.380 -0.2807  1.6445 -1.0373
  187MOL0     H25213   1.506   1.813   6.130 -1.6777  1.5740  0.8738
  187MOL0     H25214   1.574   1.672   6.201  1.5380  1.7972 -0.1267
  187MOL0     H25215   1.286   1.775   6.170  0.5543  0.8204 -3.9577
  187MOL0     H25216   1.312   1.604   6.241 -0.1129 -1.1926 -2.1064
  187MOL0     H25217   1.371   1.697   5.974  1.0976 -0.0307  0.1398
  187MOL0     H25218   1.430   1.544   6.048  0.1160  0.5368 -1.8527
  187MOL0     H25219   1.214   1.517   5.905  0.3193  1.4473 -0.7075
  187MOL0     H25220   1.126   1.603   6.031 -1.2558  0.0932 -2.6387
  187MOL0     H25221   1.305   1.365   6.082  0.2400  1.8591  0.4882
  187MOL0     H25222   1.189   1.429   6.195 -0.6451 -1.7884  0.6549
  187MOL0     H25223   1.129   1.243   5.954 -1.9312 -0.0122 -1.7153
  187MOL0     H25224   1.020   1.377   5.983 -2.7664 -1.3673  2.2259
  187MOL0     H25225   1.092   1.163   6.190  0.5784  0.0236 -0.4248
  187MOL0     H25226   0.955   1.156   6.065  1.0013  1.4761 -2.4089
  187MOL0     H25227   1.798   2.015   6.431 -1.6230 -1.5493 -0.3886
  187MOL0     H25228   1.855   2.130   6.634 -0.3205 -0.1276 -1.1466
  187MOL0     H25229   1.928   2.213   6.933  4.3466 -1.7492  1.4256
  187MOL0     H25230   2.025   2.377   7.115 -1.6975  0.5125  1.2337
  187MOL0     H25231   3.207   2.905   8.423  1.2809 -1.4869 -1.5402
  187MOL0     H25232   3.449   2.890   8.520  0.8711 -0.8681 -0.5921
  187MOL0     H25233   3.731   2.804   8.850  1.8048  2.0059  0.6046
  187MOL0     H25234   3.936   2.830   8.947  0.6652  2.4057 -0.3858
  187MOL0     H25235   4.255   2.586   8.778 -1.1975 -0.2070  1.2660
  187MOL0     H25236   4.312   2.723   8.690  1.3086 -2.0580 -0.3743
  187MOL0     H25237   4.433   2.802   8.870 -0.2065  0.2518  0.1892
  187MOL0     H25238   4.485   2.637   8.830  2.7531  1.8118  1.7236
  187MOL0     H25239   4.369   2.559   9.041 -0.1842  0.0572  1.2100
  187MOL0     H25240   4.311   2.720   9.068 -1.1329 -1.0039 -2.1011
  187MOL0     H25241   4.519   2.681   9.197  0.4049  0.8110 -0.3753
  187MOL0     H25242   4.564   2.800   9.074 -0.9395  1.8205  3.6593
  187MOL0     H25243   4.794   2.456   8.983 -0.2672 -0.0789 -1.1328
  187MOL0     H25244   4.099   2.631   8.584 -2.7070 -2.4684 -0.4622
  187MOL0     H25245   3.903   2.589   8.509  0.9648  1.4841 -0.2847
  188MOL0     O25246   2.771   5.570   3.431 -0.1447 -0.3463 -0.2602
  188MOL0     C25247   2.896   5.568   3.416 -0.4374 -0.0595 -0.4960
  188MOL0     O25248   2.967   5.660   3.344 -0.2225 -0.2482 -0.1182
  188MOL0     C25249   2.922   5.779   3.307  0.1177 -0.1662  0.8579
  188MOL0     C25250   2.798   5.842   3.328 -0.1434  0.2720 -0.3060
  188MOL0     C25251   2.774   5.968   3.270  0.6942 -0.2797  0.5011
  188MOL0     C25252   2.876   6.034   3.198  0.1590 -0.3550  0.4435
  188MOL0     O25253   2.843   6.155   3.142 -0.2421 -0.4986  0.4942
  188MOL0     C25254   2.784   6.155   3.010  0.7344  0.7574 -0.1476
  188MOL0     C25255   2.797   6.291   2.946  0.4709  0.7965 -0.3169
  188MOL0     C25256   2.774   6.281   2.800 -0.0954 -0.2327 -0.0776
  188MOL0     C25257   2.779   6.426   2.747 -0.6151 -0.1664 -0.1701
  188MOL0     C25258   2.777   6.431   2.600  0.2741 -0.2789  0.2864
  188MOL0     C25259   2.638   6.403   2.545  0.2646  0.1586 -1.4324
  188MOL0     C25260   2.645   6.408   2.392 -0.1091 -0.2529  0.3007
  188MOL0     C25261   2.627   6.277   2.324  0.5095 -0.4312  0.4818
  188MOL0     N25262   2.630   6.287   2.176 -0.5118  1.0061 -0.3585
  188MOL0     C25263   2.564   6.382   2.094 -0.2035  0.5159 -1.6126
  188MOL0     C25264   2.589   6.346   1.976  0.2017  0.5732 -0.0906
  188MOL0     C25265   2.539   6.399   1.845 -0.1545 -0.0317 -0.1634
  188MOL0     C25266   2.506   6.553   1.849 -1.1103 -0.1702  0.4859
  188MOL0     C25267   2.491   6.622   1.709  0.9515  1.0153 -0.5273
  188MOL0     C25268   2.458   6.777   1.727  0.8137  0.8076 -0.3701
  188MOL0     O25269   2.344   6.772   1.808  0.6418 -0.5262  0.0359
  188MOL0     C25270   2.282   6.891   1.835 -0.1040 -1.0960 -0.3432
  188MOL0     C25271   2.192   6.901   1.941  0.8089  0.5146 -0.3972
  188MOL0     C25272   2.121   7.014   1.973  0.8305  0.6198 -0.1838
  188MOL0     C25273   2.017   6.999   2.076  0.5336 -0.1022  1.0143
  188MOL0     C25274   2.148   7.136   1.907 -0.5920 -0.5691  0.3436
  188MOL0     C25275   2.073   7.267   1.926 -1.3114 -0.1074 -0.3289
  188MOL0     O25276   2.088   7.355   1.817 -0.0851 -0.2483  0.7305
  188MOL0     C25277   2.049   7.488   1.829 -0.2183  0.2240 -0.5308
  188MOL0     C25278   1.954   7.547   1.750  0.2303 -0.4186 -0.3668
  188MOL0     C25279   1.900   7.675   1.780  0.3613  0.3365 -0.2192
  188MOL0     C25280   1.952   7.751   1.884 -0.4029  0.5163 -0.1205
  188MOL0     O25281   1.911   7.874   1.919 -0.3063 -0.0879  0.1260
  188MOL0     C25282   1.903   7.969   1.807  0.7629  0.3330  0.5755
  188MOL0     C25283   2.032   8.051   1.809  0.7176 -0.3323 -0.7810
  188MOL0     C25284   2.017   8.166   1.709 -0.3818  0.4322  1.3315
  188MOL0     C25285   2.148   8.235   1.686  0.5655 -0.0430  0.1399
  188MOL0     C25286   2.138   8.358   1.607  0.2766 -0.8423  0.2146
  188MOL0     C25287   2.101   8.336   1.461  0.8205  0.4227  1.0433
  188MOL0     C25288   2.031   8.466   1.407 -0.1393  0.1501  0.7101
  188MOL0     C25289   1.872   8.461   1.406 -0.1006 -0.3210  0.3126
  188MOL0    Cl25290   1.807   8.406   1.549  0.1658  0.0977 -0.4830
  188MOL0     C25291   2.053   7.687   1.963  0.1677 -0.6331  0.2391
  188MOL0     C25292   2.098   7.558   1.939  0.0306 -0.1323  1.0757
  188MOL0     O25293   2.009   7.287   2.022  0.2109 -0.0655 -0.0186
  188MOL0     C25294   2.258   7.138   1.815  0.6021 -0.8076 -0.5808
  188MOL0     C25295   2.325   7.021   1.777 -0.7667  0.3592 -0.1971
  188MOL0     N25296   2.665   6.230   1.978 -0.3183  0.8094  0.7985
  188MOL0     N25297   2.684   6.191   2.097 -0.3524  0.0174 -0.3752
  188MOL0     C25298   3.004   5.985   3.190 -0.0558  0.0339 -0.2550
  188MOL0     C25299   3.024   5.856   3.243 -0.0947  0.0574 -0.5264
  188MOL0     C25300   2.969   5.453   3.479  0.8776 -0.0287 -0.3301
  188MOL0     C25301   2.891   5.346   3.533 -0.1556  0.0966  0.4419
  188MOL0     C25302   2.962   5.239   3.591 -0.5991 -0.5301  0.3653
  188MOL0     C25303   3.106   5.236   3.584 -0.4853  0.0551  0.8302
  188MOL0     O25304   3.176   5.124   3.609  0.1066 -0.3182  0.2963
  188MOL0     C25305   3.108   5.019   3.679  0.6301 -0.7089  0.4257
  188MOL0     C25306   3.211   4.904   3.719 -0.3188  0.1654  0.3325
  188MOL0     C25307   3.332   4.966   3.780  0.0029 -0.1656  0.6099
  188MOL0     C25308   3.466   4.889   3.765 -0.3883 -0.1486  0.2405
  188MOL0     C25309   3.482   4.747   3.814 -1.0167  1.4089  1.0412
  188MOL0     C25310   3.507   4.628   3.836  0.3267  0.0953 -0.0425
  188MOL0     C25311   3.176   5.352   3.536 -0.4611  0.4263 -0.4931
  188MOL0     C25312   3.104   5.453   3.489  0.2405 -0.1718  0.0361
  188MOL0     H25313   2.720   5.798   3.388 -2.5305  1.9522 -2.0163
  188MOL0     H25314   2.679   6.018   3.285 -1.7806 -3.7037 -2.3902
  188MOL0     H25315   2.843   6.083   2.951  3.0270  1.9209  0.6093
  188MOL0     H25316   2.678   6.132   3.017 -0.4873  5.4736 -0.1383
  188MOL0     H25317   2.723   6.352   2.998 -1.5841 -1.8276  0.0840
  188MOL0     H25318   2.887   6.340   2.984 -0.0150  0.4429  1.3880
  188MOL0     H25319   2.846   6.229   2.737 -2.7535 -1.3060 -2.4806
  188MOL0     H25320   2.677   6.236   2.774 -0.0022  0.4034 -1.6312
  188MOL0     H25321   2.706   6.494   2.791 -0.0423  0.0024  0.5532
  188MOL0     H25322   2.878   6.472   2.758  0.4400 -2.0889 -1.1533
  188MOL0     H25323   2.802   6.530   2.561 -1.4611 -0.2466 -0.8558
  188MOL0     H25324   2.852   6.365   2.554  1.0420 -0.3597  1.6017
  188MOL0     H25325   2.593   6.308   2.575  0.3053  0.6506  0.2698
  188MOL0     H25326   2.574   6.489   2.568  2.8130  2.2597 -1.7630
  188MOL0     H25327   2.567   6.479   2.363 -0.5299 -0.1155  1.6622
  188MOL0     H25328   2.735   6.458   2.356 -1.3591  1.4040 -0.6496
  188MOL0     H25329   2.539   6.223   2.360  0.3913  0.2217  1.2209
  188MOL0     H25330   2.714   6.218   2.354  2.3503  1.4237 -0.8660
  188MOL0     H25331   2.490   6.455   2.124  0.3735  1.0542 -1.4997
  188MOL0     H25332   2.621   6.387   1.774 -0.5130 -0.3016 -0.5401
  188MOL0     H25333   2.445   6.348   1.824 -1.8878  2.0372  1.9876
  188MOL0     H25334   2.586   6.601   1.907 -0.0608 -2.2753  0.8892
  188MOL0     H25335   2.416   6.566   1.909 -1.3357 -1.8161  0.5616
  188MOL0     H25336   2.411   6.566   1.659  1.2748  1.0019 -1.0318
  188MOL0     H25337   2.586   6.606   1.657  0.6479  3.4377 -1.9583
  188MOL0     H25338   2.442   6.808   1.624 -1.2482 -0.2539 -0.4261
  188MOL0     H25339   2.549   6.816   1.774  0.8421 -0.3594  0.5995
  188MOL0     H25340   2.178   6.811   2.001 -0.6007 -0.2665 -1.8137
  188MOL0     H25341   2.010   6.899   2.119 -1.8799  0.8537  3.1297
  188MOL0     H25342   2.049   7.062   2.159  1.2457 -1.9149  2.1740
  188MOL0     H25343   1.920   7.025   2.033  2.4310  0.3799 -3.5963
  188MOL0     H25344   1.890   7.500   1.676 -1.7523  1.1804  0.2513
  188MOL0     H25345   1.811   7.706   1.726  1.0655 -0.3582 -1.8212
  188MOL0     H25346   1.890   7.927   1.708 -4.2322 -0.8079  1.4230
  188MOL0     H25347   1.810   8.023   1.829  0.2838 -1.0116  2.0870
  188MOL0     H25348   2.060   8.098   1.904  0.0556  1.0826 -1.2570
  188MOL0     H25349   2.109   7.981   1.775 -0.0096 -1.9888  0.8210
  188MOL0     H25350   1.951   8.243   1.748 -0.9343  2.5635 -3.1337
  188MOL0     H25351   1.969   8.132   1.617  1.2883  0.3728  0.4271
  188MOL0     H25352   2.198   8.253   1.782  0.5735  2.5822 -0.2863
  188MOL0     H25353   2.219   8.176   1.628  0.2838  0.6576 -0.9349
  188MOL0     H25354   2.232   8.413   1.613 -0.0111 -0.3960  0.8035
  188MOL0     H25355   2.066   8.418   1.664  0.2165 -2.4533  1.9627
  188MOL0     H25356   2.194   8.328   1.403  1.0615  3.7216  0.7890
  188MOL0     H25357   2.035   8.250   1.443 -0.2149  1.3718  0.1883
  188MOL0     H25358   2.066   8.495   1.307  2.5477 -3.6312  0.3118
  188MOL0     H25359   2.053   8.550   1.472 -0.3619  0.2802  0.6202
  188MOL0     H25360   1.845   8.407   1.315 -2.4485  1.8913 -0.4194
  188MOL0     H25361   1.832   8.561   1.390 -1.0716 -0.9782 -1.7514
  188MOL0     H25362   2.093   7.729   2.055  2.5668 -0.5074 -0.8120
  188MOL0     H25363   2.172   7.510   2.002  0.8251  0.4747  0.6310
  188MOL0     H25364   2.278   7.232   1.765 -0.3550 -0.0285  0.4445
  188MOL0     H25365   2.402   7.017   1.701  0.5377 -2.6999  1.0928
  188MOL0     H25366   3.079   6.053   3.150  0.1896  2.6733  4.0335
  188MOL0     H25367   3.120   5.805   3.236  0.7402  1.1687  1.9836
  188MOL0     H25368   2.783   5.342   3.523 -0.3842 -0.4015  2.6139
  188MOL0     H25369   2.907   5.148   3.614 -1.2075 -1.2387 -3.3088
  188MOL0     H25370   3.073   5.069   3.770  2.5176 -2.0477  1.9746
  188MOL0     H25371   3.031   4.966   3.622 -1.8880  2.6701  0.3482
  188MOL0     H25372   3.234   4.855   3.624  1.1106  3.5853 -1.2797
  188MOL0     H25373   3.171   4.824   3.781  1.6953 -0.9343  0.3010
  188MOL0     H25374   3.305   4.979   3.885 -1.7322  1.0820  0.0478
  188MOL0     H25375   3.369   5.057   3.730  2.7414 -1.0077  0.9110
  188MOL0     H25376   3.532   4.947   3.830 -1.5031  1.0428  0.3744
  188MOL0     H25377   3.495   4.888   3.660  0.0121  1.0797  0.3190
  188MOL0     H25378   3.527   4.526   3.860 -1.5069  0.4914  4.0513
  188MOL0     H25379   3.283   5.363   3.526 -0.5230  2.0666  0.2516
  188MOL0     H25380   3.166   5.531   3.445 -0.3645 -0.6863 -1.8288
  189MOL0     O25381   1.183   1.835   1.262  0.3119 -0.1785  0.1153
  189MOL0     C25382   1.233   1.752   1.189  0.0656  0.0034  0.6483
  189MOL0     O25383   1.361   1.706   1.198 -0.5477 -0.3154 -0.1740
  189MOL0     C25384   1.448   1.753   1.299 -0.3606  0.7801 -0.8310
  189MOL0     C25385   1.488   1.889   1.294 -0.1804  0.1102 -0.0714
  189MOL0     C25386   1.575   1.939   1.386  0.1278 -0.0788 -0.1523
  189MOL0     C25387   1.610   1.861   1.490  0.1019  0.3785  0.0801
  189MOL0     O25388   1.694   1.916   1.585 -0.0067 -0.7272 -0.4640
  189MOL0     C25389   1.693   2.057   1.613 -0.0172 -0.1056  0.2590
  189MOL0     C25390   1.793   2.094   1.721  0.9881 -0.4891 -0.5526
  189MOL0     C25391   1.929   2.040   1.684 -0.4452 -0.3485  0.4189
  189MOL0     C25392   2.045   2.108   1.761  0.1843 -1.2587  0.6148
  189MOL0     C25393   2.052   2.101   1.919 -0.5861  0.2648  0.4458
  189MOL0     C25394   2.000   1.966   1.980 -0.0901 -0.1629 -0.2349
  189MOL0     C25395   2.059   1.940   2.120 -0.1572 -0.6172  1.1862
  189MOL0     C25396   2.024   2.060   2.213 -0.1714 -0.1911  0.0528
  189MOL0     N25397   2.097   2.030   2.340  0.2053 -0.7542 -0.0005
  189MOL0     C25398   2.218   2.093   2.391  0.3729 -0.4345  0.3655
  189MOL0     C25399   2.246   2.022   2.503 -0.0649 -0.2037 -0.3586
  189MOL0     C25400   2.376   2.038   2.588 -0.1445  0.0430  0.1748
  189MOL0     C25401   2.482   1.939   2.531  0.3143  0.3731 -0.4176
  189MOL0     C25402   2.617   1.983   2.580  0.5997  0.4609 -0.3200
  189MOL0     C25403   2.730   1.882   2.530 -0.0174 -0.3419  0.3682
  189MOL0     O25404   2.697   1.836   2.403  0.3936  0.5996 -1.0055
  189MOL0     C25405   2.785   1.752   2.337 -0.3898  1.4457 -0.0268
  189MOL0     C25406   2.908   1.721   2.390  0.4158 -0.0291 -0.1706
  189MOL0     C25407   3.008   1.652   2.317  0.0587 -0.8959  0.4810
  189MOL0     C25408   3.154   1.648   2.376 -0.2116 -0.4425  0.3507
  189MOL0     C25409   2.969   1.585   2.195  0.5961  0.6285 -0.8001
  189MOL0     C25410   3.071   1.508   2.127 -0.7282  0.6572 -0.1684
  189MOL0     O25411   3.067   1.370   2.146 -0.1722  0.7806  0.2057
  189MOL0     C25412   3.121   1.294   2.044  0.3727  0.7400 -0.2079
  189MOL0     C25413   3.111   1.157   2.080  0.0162  0.0185  0.0739
  189MOL0     C25414   3.153   1.056   1.992  0.0472  0.5464  0.5743
  189MOL0     C25415   3.200   1.089   1.858  0.5285 -0.6831 -0.2042
  189MOL0     O25416   3.236   0.994   1.761  0.5427  0.1963  0.0058
  189MOL0     C25417   3.126   0.907   1.735  0.0056  0.9863  0.7981
  189MOL0     C25418   3.028   0.967   1.632 -0.6265 -0.6810  0.6659
  189MOL0     C25419   2.964   0.843   1.558 -0.5284  0.3630  0.3605
  189MOL0     C25420   2.925   0.722   1.649 -0.2916 -1.2193  0.0967
  189MOL0     C25421   2.811   0.641   1.596  0.2084 -0.1345 -0.4749
  189MOL0     C25422   2.848   0.527   1.510 -0.4511  0.2925 -0.3995
  189MOL0     C25423   2.922   0.403   1.566  0.3785 -0.1310  0.1928
  189MOL0     C25424   2.868   0.342   1.695  0.4613  0.9893  0.2112
  189MOL0    Cl25425   2.938   0.390   1.847  0.0643  0.2019 -0.2490
  189MOL0     C25426   3.207   1.225   1.826 -0.8123  0.0190  0.0407
  189MOL0     C25427   3.167   1.325   1.914 -0.0951 -0.7436 -0.4416
  189MOL0     O25428   3.148   1.570   2.052  0.2164 -0.2145  0.1924
  189MOL0     C25429   2.832   1.602   2.148 -0.2443  0.1296  0.1816
  189MOL0     C25430   2.747   1.695   2.216  0.0181 -1.1260 -0.3578
  189MOL0     N25431   2.139   1.928   2.529 -0.7836  0.3869 -0.2749
  189MOL0     N25432   2.054   1.933   2.429 -0.3526 -0.5938 -0.8039
  189MOL0     C25433   1.577   1.729   1.501  0.2052 -0.1896 -0.6563
  189MOL0     C25434   1.498   1.673   1.401  0.3815  0.1410  0.7927
  189MOL0     C25435   1.155   1.674   1.097 -0.0388 -0.1320  0.6629
  189MOL0     C25436   1.215   1.582   1.001  1.0634 -0.7530  0.5766
  189MOL0     C25437   1.128   1.518   0.903  0.6530  0.3307  0.8087
  189MOL0     C25438   0.989   1.521   0.909  0.2257  0.0762 -0.4318
  189MOL0     O25439   0.916   1.434   0.832 -0.9606  0.8279  0.9784
  189MOL0     C25440   0.776   1.416   0.865 -0.5763 -0.7165  0.6802
  189MOL0     C25441   0.713   1.330   0.757  0.0707 -0.4855  0.4798
  189MOL0     C25442   0.691   1.400   0.620  0.1693 -1.5834  0.7758
  189MOL0     C25443   0.573   1.342   0.535 -0.2562 -0.7341  0.4783
  189MOL0     C25444   0.565   1.199   0.533 -0.1239  0.4854  0.0207
  189MOL0     C25445   0.560   1.076   0.534 -0.3854  0.1757 -0.5582
  189MOL0     C25446   0.936   1.607   1.010  0.4792  0.1355  0.5489
  189MOL0     C25447   1.015   1.683   1.097 -0.2280  0.3928 -0.5936
  189MOL0     H25448   1.451   1.941   1.206 -2.4530 -1.7106 -0.2910
  189MOL0     H25449   1.613   2.040   1.377 -0.0377  0.0731  0.7489
  189MOL0     H25450   1.712   2.125   1.529  2.8347 -2.6885 -1.3667
  189MOL0     H25451   1.590   2.072   1.648 -0.0613 -2.0489  1.0960
  189MOL0     H25452   1.796   2.203   1.737  1.6694 -0.8608  2.4698
  189MOL0     H25453   1.756   2.055   1.816  0.8244 -0.3434 -0.5560
  189MOL0     H25454   1.939   1.931   1.688  0.3270 -0.4487 -2.4367
  189MOL0     H25455   1.939   2.070   1.580 -0.6298  0.4333  0.6252
  189MOL0     H25456   2.138   2.067   1.721  0.8528  0.8909 -0.1734
  189MOL0     H25457   2.050   2.216   1.741 -0.6515 -1.0704  1.3192
  189MOL0     H25458   2.155   2.117   1.952  0.0808  0.5522 -1.6445
  189MOL0     H25459   1.984   2.178   1.956  1.0522  3.2257 -2.2173
  189MOL0     H25460   1.891   1.955   1.977 -0.4262  2.7069 -2.2531
  189MOL0     H25461   2.035   1.886   1.914 -1.0002  2.4842 -4.2434
  189MOL0     H25462   2.025   1.844   2.161 -1.9882 -0.8696 -0.7459
  189MOL0     H25463   2.167   1.931   2.103 -0.3047  0.8667 -0.9420
  189MOL0     H25464   1.915   2.070   2.219  0.1047  2.7391  1.7461
  189MOL0     H25465   2.052   2.150   2.157 -1.9180 -0.3091 -1.0739
  189MOL0     H25466   2.257   2.181   2.342 -0.0750 -0.7824 -0.6635
  189MOL0     H25467   2.417   2.139   2.577 -0.3273  0.2321  1.0888
  189MOL0     H25468   2.359   2.015   2.694  1.5631 -2.1526  0.0502
  189MOL0     H25469   2.479   1.932   2.422  1.5396  2.2191 -0.6040
  189MOL0     H25470   2.463   1.844   2.581  2.2585  0.9836  1.6279
  189MOL0     H25471   2.622   1.979   2.689 -3.4804 -3.3644  0.0369
  189MOL0     H25472   2.645   2.081   2.541  1.1339  1.2637  1.9521
  189MOL0     H25473   2.715   1.795   2.595 -1.4993 -1.0507 -0.8245
  189MOL0     H25474   2.824   1.937   2.533 -0.3216  0.2077 -0.0404
  189MOL0     H25475   2.947   1.769   2.479  1.2269  0.0778 -0.5709
  189MOL0     H25476   3.224   1.701   2.311 -0.7600  2.0487  1.6517
  189MOL0     H25477   3.162   1.703   2.471  2.0216  3.3798 -1.8236
  189MOL0     H25478   3.183   1.545   2.397  1.6578  0.3486  2.0130
  189MOL0     H25479   3.086   1.141   2.185  1.1240 -0.4107  0.2896
  189MOL0     H25480   3.139   0.950   2.011 -0.2463  0.3739 -0.5362
  189MOL0     H25481   3.178   0.823   1.687  0.8144  1.0232  1.5907
  189MOL0     H25482   3.088   0.857   1.825 -0.1987 -2.3262 -0.9450
  189MOL0     H25483   2.952   1.030   1.679  0.9216  2.6357 -0.9057
  189MOL0     H25484   3.075   1.039   1.563 -3.1415 -0.5629 -1.0581
  189MOL0     H25485   3.037   0.817   1.480  0.6511 -1.7084  2.0428
  189MOL0     H25486   2.876   0.876   1.502 -1.2789  1.1811  1.9518
  189MOL0     H25487   3.013   0.661   1.672  0.5694  0.7006  2.2201
  189MOL0     H25488   2.885   0.756   1.745 -0.4618  4.3287 -1.6281
  189MOL0     H25489   2.736   0.701   1.545 -1.1611 -2.4168 -1.2815
  189MOL0     H25490   2.759   0.595   1.680  0.8999  2.1875  1.3219
  189MOL0     H25491   2.756   0.481   1.473 -0.5759  2.6638 -3.4166
  189MOL0     H25492   2.908   0.569   1.429 -0.0012  0.9781  0.2708
  189MOL0     H25493   3.023   0.436   1.590  0.7568 -0.4009 -0.9460
  189MOL0     H25494   2.928   0.334   1.481 -0.0154  2.2512 -1.8885
  189MOL0     H25495   2.896   0.237   1.690 -0.9375  0.2797  3.8046
  189MOL0     H25496   2.759   0.350   1.692  0.3939  0.2392  0.4041
  189MOL0     H25497   3.244   1.251   1.727 -1.4559  0.2384 -0.1470
  189MOL0     H25498   3.167   1.425   1.872 -3.5948 -0.0429  0.9089
  189MOL0     H25499   2.805   1.561   2.051  0.5773  2.2225 -1.0170
  189MOL0     H25500   2.652   1.721   2.170  0.2294 -2.4473 -1.6151
  189MOL0     H25501   1.617   1.662   1.576 -0.7613  1.2002  1.1829
  189MOL0     H25502   1.483   1.566   1.396  2.8510 -0.3980  2.7346
  189MOL0     H25503   1.321   1.561   0.997  1.0706 -0.5300 -0.9327
  189MOL0     H25504   1.178   1.453   0.833  0.7601  1.8374 -0.5825
  189MOL0     H25505   0.778   1.366   0.962  4.4910  0.6162  1.5446
  189MOL0     H25506   0.718   1.508   0.858 -1.4120 -1.0757  2.4544
  189MOL0     H25507   0.613   1.297   0.786  0.1144 -2.0589 -1.0190
  189MOL0     H25508   0.765   1.234   0.745 -0.0755 -0.4563 -0.4277
  189MOL0     H25509   0.787   1.394   0.568 -0.0409  1.8971 -0.2860
  189MOL0     H25510   0.658   1.502   0.639  3.1386 -1.1712  4.9790
  189MOL0     H25511   0.600   1.378   0.435 -1.6358  2.2695  1.0917
  189MOL0     H25512   0.474   1.384   0.556 -0.4129 -1.5597  1.4768
  189MOL0     H25513   0.569   0.970   0.523 -1.7196  0.0964 -1.0491
  189MOL0     H25514   0.829   1.624   1.005  0.3594 -0.6530  0.1867
  189MOL0     H25515   0.971   1.772   1.141  0.8827  1.2159 -1.1005
  190MOL0     O25516   7.209   1.460   8.392  0.4762 -0.1153  0.2921
  190MOL0     C25517   7.195   1.547   8.310  0.1779  0.6983  0.7664
  190MOL0     O25518   7.294   1.614   8.247 -0.4884  0.3744 -0.3188
  190MOL0     C25519   7.423   1.585   8.290 -0.1023 -0.3741  0.8215
  190MOL0     C25520   7.506   1.685   8.347 -0.1850  0.5329 -0.6992
  190MOL0     C25521   7.651   1.668   8.343  0.3554  0.3477  0.1984
  190MOL0     C25522   7.710   1.554   8.292  0.6187 -0.8564 -0.1250
  190MOL0     O25523   7.841   1.538   8.315 -0.3574  0.1835  0.2089
  190MOL0     C25524   7.885   1.414   8.365  0.7832  0.1849 -0.1412
  190MOL0     C25525   8.021   1.402   8.297 -0.1409  0.9052  0.8128
  190MOL0     C25526   8.114   1.295   8.353 -0.6893 -1.1183 -0.5765
  190MOL0     C25527   8.254   1.314   8.298  0.8029  1.1794 -0.0603
  190MOL0     C25528   8.346   1.226   8.379 -0.1592  0.7198 -0.4241
  190MOL0     C25529   8.491   1.235   8.337 -0.1088 -0.0253 -0.0677
  190MOL0     C25530   8.576   1.109   8.367 -0.0023  0.7304  0.4234
  190MOL0     C25531   8.584   1.076   8.518  0.1435 -0.3783  0.4836
  190MOL0     N25532   8.722   1.093   8.573  0.2645  0.9019  0.6880
  190MOL0     C25533   8.754   1.030   8.690 -0.2447  0.1754  0.0742
  190MOL0     C25534   8.862   1.096   8.729 -0.1028 -0.3493  0.3987
  190MOL0     C25535   8.930   1.064   8.862 -0.8292 -0.3117 -0.3965
  190MOL0     C25536   9.081   1.040   8.850  0.2321  0.5436 -0.0837
  190MOL0     C25537   9.145   1.079   8.983 -0.1143 -0.0025 -0.3345
  190MOL0     C25538   9.301   1.043   8.991  0.4597  0.2952  0.3271
  190MOL0     O25539   9.358   1.104   8.867 -0.1144 -0.4312 -0.3534
  190MOL0     C25540   9.476   1.058   8.812  0.2506  0.7404 -0.2603
  190MOL0     C25541   9.584   1.066   8.893 -0.4320 -0.6427  0.6601
  190MOL0     C25542   9.712   1.014   8.857 -0.1503 -0.2869  0.0508
  190MOL0     C25543   9.821   1.051   8.949  0.6671 -0.4302  0.0556
  190MOL0     C25544   9.721   0.946   8.734 -0.7147 -0.2574  0.5615
  190MOL0     C25545   9.842   0.866   8.681  0.1225  0.8394  0.2620
  190MOL0     O25546   9.822   0.794   8.571  0.5080  0.2895 -0.7997
  190MOL0     C25547   9.930   0.755   8.494  0.2223 -0.7953  0.0192
  190MOL0     C25548  10.066   0.779   8.506 -0.7818  0.0756  0.5397
  190MOL0     C25549  10.152   0.745   8.394 -0.2382 -0.0867  0.3722
  190MOL0     C25550  10.103   0.679   8.282  0.6316 -0.4480  0.6707
  190MOL0     O25551  10.187   0.643   8.178 -0.3493  0.3260 -0.5233
  190MOL0     C25552  10.162   0.515   8.118 -0.7295  0.2788  0.1480
  190MOL0     C25553  10.287   0.439   8.071 -0.2863 -0.2161  0.6557
  190MOL0     C25554  10.379   0.538   7.992 -0.4827  0.0448  0.1389
  190MOL0     C25555  10.430   0.480   7.858 -0.6972  0.4800  1.3429
  190MOL0     C25556  10.538   0.573   7.787  0.1605 -0.5206 -0.3513
  190MOL0     C25557  10.494   0.713   7.757  0.7777 -0.0383  0.2371
  190MOL0     C25558  10.607   0.796   7.683  0.5901  0.9032 -0.9860
  190MOL0     C25559  10.581   0.940   7.694 -0.0114 -0.5934  0.3732
  190MOL0    Cl25560  10.732   1.018   7.679  0.0588  0.2302  0.3953
  190MOL0     C25561   9.965   0.654   8.277  0.1010  0.3152 -0.4957
  190MOL0     C25562   9.882   0.677   8.382  0.4047 -0.6810 -0.0227
  190MOL0     O25563   9.942   0.861   8.750 -0.1126 -0.4655  0.6034
  190MOL0     C25564   9.609   0.950   8.650  0.1686 -0.0135 -0.0715
  190MOL0     C25565   9.489   1.003   8.685  0.1423  0.0001  0.2272
  190MOL0     N25566   8.887   1.209   8.645 -0.1435 -0.1121 -0.0914
  190MOL0     N25567   8.804   1.203   8.554  0.6081  0.3156 -0.0438
  190MOL0     C25568   7.625   1.454   8.238  0.2230  0.0730  0.8108
  190MOL0     C25569   7.486   1.470   8.233  0.1695  0.1616  0.2701
  190MOL0     C25570   7.050   1.578   8.279 -1.3541 -0.0874 -0.6897
  190MOL0     C25571   6.953   1.494   8.316 -0.4792  0.1279 -0.1148
  190MOL0     C25572   6.818   1.520   8.305 -0.9877 -0.5804 -0.3573
  190MOL0     C25573   6.778   1.651   8.255  0.3942 -0.2213 -0.3551
  190MOL0     O25574   6.654   1.704   8.228 -0.4039 -0.5454 -0.3355
  190MOL0     C25575   6.544   1.619   8.208  0.5653  0.6636 -0.1710
  190MOL0     C25576   6.440   1.703   8.125 -0.2554 -0.3596 -0.3604
  190MOL0     C25577   6.369   1.817   8.214 -0.7552  1.3950 -0.1639
  190MOL0     C25578   6.450   1.941   8.201  0.3391  0.2670 -0.9935
  190MOL0     C25579   6.385   2.047   8.280 -1.0189  0.7309 -0.3800
  190MOL0     C25580   6.338   2.132   8.348  0.4339  0.0492 -0.6431
  190MOL0     C25581   6.879   1.743   8.226 -1.3747 -0.3897  0.6728
  190MOL0     C25582   7.012   1.711   8.234 -0.5782 -0.0505 -0.3699
  190MOL0     H25583   7.464   1.780   8.378  1.0090  0.7545  0.3422
  190MOL0     H25584   7.717   1.740   8.390  1.7066 -1.3033  0.9170
  190MOL0     H25585   7.886   1.403   8.474 -0.5012  1.1625 -0.0106
  190MOL0     H25586   7.827   1.329   8.329  0.9222 -1.4158  3.0301
  190MOL0     H25587   7.988   1.370   8.198 -1.1950  2.1672  0.7309
  190MOL0     H25588   8.064   1.502   8.296  1.3772  0.2757 -0.1119
  190MOL0     H25589   8.112   1.312   8.461  0.6111 -0.8628 -0.5674
  190MOL0     H25590   8.078   1.194   8.333  1.2796 -1.7247 -1.3219
  190MOL0     H25591   8.262   1.279   8.194  2.5827 -0.4789  0.5671
  190MOL0     H25592   8.283   1.419   8.309  0.4345  1.5424 -2.1062
  190MOL0     H25593   8.335   1.251   8.485  0.0100  0.7285 -0.4082
  190MOL0     H25594   8.317   1.122   8.365 -0.5694  1.1362 -3.1627
  190MOL0     H25595   8.486   1.263   8.232 -0.2697  2.0076  0.4464
  190MOL0     H25596   8.524   1.332   8.377 -0.7720  0.7613 -1.3741
  190MOL0     H25597   8.540   1.029   8.303  1.2604 -0.9268  1.7113
  190MOL0     H25598   8.677   1.111   8.325 -0.0588 -0.7613  0.1765
  190MOL0     H25599   8.553   0.971   8.518  3.7516 -1.8734 -5.1745
  190MOL0     H25600   8.523   1.142   8.580  0.2928  3.9288 -3.4111
  190MOL0     H25601   8.711   0.943   8.739  0.1880 -0.3034 -0.3869
  190MOL0     H25602   8.920   1.157   8.920  2.9651  0.1081 -0.1888
  190MOL0     H25603   8.888   0.978   8.914  0.1860 -1.3332 -1.2340
  190MOL0     H25604   9.130   1.091   8.767  1.4509 -0.6968 -0.1454
  190MOL0     H25605   9.094   0.933   8.832  0.1532  0.5666 -0.2742
  190MOL0     H25606   9.088   1.036   9.067  0.7564 -0.8126 -0.1458
  190MOL0     H25607   9.141   1.188   8.987  1.4923  0.0814  3.1487
  190MOL0     H25608   9.310   0.934   8.997  2.0358  0.4975  2.5177
  190MOL0     H25609   9.339   1.089   9.083  1.8742  1.4178 -0.7622
  190MOL0     H25610   9.557   1.122   8.982 -0.6993 -2.0414  1.4878
  190MOL0     H25611   9.808   1.156   8.978 -0.9044 -0.5738 -0.0565
  190MOL0     H25612   9.810   0.982   9.033  0.4357 -0.7223 -0.2152
  190MOL0     H25613   9.926   1.039   8.918  1.3914 -0.6885  2.4038
  190MOL0     H25614  10.121   0.830   8.584  0.9864 -1.0434  0.0740
  190MOL0     H25615  10.258   0.766   8.390 -0.3325  0.1832 -2.3022
  190MOL0     H25616  10.110   0.451   8.189 -1.1015  0.4396  0.0207
  190MOL0     H25617  10.093   0.532   8.035 -0.6009 -1.6283 -0.3852
  190MOL0     H25618  10.335   0.388   8.154  0.7415 -0.3594  0.0013
  190MOL0     H25619  10.266   0.359   7.999  1.7554 -0.1355 -0.0925
  190MOL0     H25620  10.466   0.558   8.056  1.8954 -0.7723 -2.6111
  190MOL0     H25621  10.324   0.630   7.969  0.1070  0.3581 -0.0373
  190MOL0     H25622  10.480   0.383   7.867  1.7595  1.1873 -2.4312
  190MOL0     H25623  10.344   0.477   7.791 -1.3629  3.7659  1.9211
  190MOL0     H25624  10.575   0.521   7.699 -3.4316 -0.2801 -2.2097
  190MOL0     H25625  10.622   0.590   7.854 -0.2970 -0.1965  0.1539
  190MOL0     H25626  10.396   0.709   7.709 -0.6811 -1.4778  3.0800
  190MOL0     H25627  10.465   0.754   7.854 -1.7900 -0.2212 -0.3864
  190MOL0     H25628  10.595   0.775   7.577  1.0721 -0.6652 -0.7517
  190MOL0     H25629  10.707   0.763   7.713 -0.1367 -1.0064 -0.4923
  190MOL0     H25630  10.542   0.954   7.795  2.0324  1.6762  0.9223
  190MOL0     H25631  10.508   0.970   7.618  2.7739  4.0109 -0.8716
  190MOL0     H25632   9.929   0.617   8.181 -0.1397  2.6812 -1.3694
  190MOL0     H25633   9.779   0.661   8.353  0.1395  1.4769 -0.4880
  190MOL0     H25634   9.632   0.937   8.545  0.2221  3.6112 -0.6280
  190MOL0     H25635   9.404   1.006   8.617 -1.4209 -0.6306  2.0953
  190MOL0     H25636   7.655   1.356   8.203 -0.8849 -0.1583  0.4471
  190MOL0     H25637   7.424   1.388   8.198 -0.4059  0.8314 -0.3083
  190MOL0     H25638   6.973   1.388   8.327 -1.2896  0.0476  0.7712
  190MOL0     H25639   6.748   1.443   8.337 -0.4216 -0.2982  1.7491
  190MOL0     H25640   6.571   1.531   8.148 -0.1585  0.6666 -0.5163
  190MOL0     H25641   6.501   1.588   8.304 -0.3469  1.5000 -0.2987
  190MOL0     H25642   6.360   1.642   8.083 -1.1652  0.4185  0.2228
  190MOL0     H25643   6.507   1.749   8.052  0.7849 -0.0386  0.7583
  190MOL0     H25644   6.353   1.776   8.314 -1.4071  2.6713  0.2774
  190MOL0     H25645   6.269   1.843   8.179 -0.2842  3.1193 -0.3070
  190MOL0     H25646   6.472   1.966   8.097 -3.0985 -0.2126 -1.9785
  190MOL0     H25647   6.540   1.936   8.263  0.7858  0.9882 -1.5675
  190MOL0     H25648   6.309   2.222   8.399  0.2434 -0.9327  1.0416
  190MOL0     H25649   6.853   1.848   8.213 -0.2339  0.1354  2.1933
  190MOL0     H25650   7.086   1.788   8.215  0.0072 -0.9075 -1.7303
  191MOL0     O25651   5.265   7.289   7.649 -0.5949  0.5467  0.2412
  191MOL0     C25652   5.376   7.305   7.599  0.3352 -0.5649 -0.1305
  191MOL0     O25653   5.474   7.385   7.653  0.6247  0.0216  0.5453
  191MOL0     C25654   5.461   7.478   7.749 -0.8473 -0.5866  0.2015
  191MOL0     C25655   5.490   7.607   7.713  0.2035  0.2391 -0.0715
  191MOL0     C25656   5.460   7.712   7.796 -0.6832 -0.2594  0.2726
  191MOL0     C25657   5.416   7.692   7.925  0.8405 -0.3776  0.6620
  191MOL0     O25658   5.370   7.782   8.018  0.0287  0.3908  0.2888
  191MOL0     C25659   5.391   7.923   8.002 -0.0208  0.8337  0.3414
  191MOL0     C25660   5.342   7.991   8.123  0.5276 -0.6835  0.0897
  191MOL0     C25661   5.380   7.940   8.259  0.9518  1.2997  0.1136
  191MOL0     C25662   5.386   8.044   8.365 -0.0492 -0.4259  0.0356
  191MOL0     C25663   5.410   7.986   8.503 -0.8486  0.1478  0.4608
  191MOL0     C25664   5.408   8.068   8.634 -0.0427 -0.6903 -0.3966
  191MOL0     C25665   5.538   8.132   8.681 -0.2887  0.5453  0.4086
  191MOL0     C25666   5.519   8.187   8.822  0.2377  1.1885 -0.0985
  191MOL0     N25667   5.623   8.289   8.855 -0.2260  0.4671 -0.0877
  191MOL0     C25668   5.716   8.352   8.775  0.6964 -0.2741 -0.0001
  191MOL0     C25669   5.798   8.417   8.872  0.8932  1.0087  0.5313
  191MOL0     C25670   5.925   8.473   8.827 -0.1453 -0.5559  0.3967
  191MOL0     C25671   5.999   8.414   8.698 -0.4641  0.6840  0.9300
  191MOL0     C25672   6.073   8.524   8.617  0.2203 -0.3016  0.0902
  191MOL0     C25673   6.139   8.453   8.497 -0.1073 -0.1874  0.3597
  191MOL0     O25674   6.054   8.408   8.391 -0.2751 -0.2816  0.5032
  191MOL0     C25675   6.111   8.385   8.273 -0.5129 -1.1181  0.4527
  191MOL0     C25676   6.035   8.425   8.168  0.3408 -0.7240  0.3181
  191MOL0     C25677   6.076   8.406   8.036 -0.0390  0.2221 -0.3278
  191MOL0     C25678   5.982   8.458   7.923 -0.4829  0.0693 -0.0897
  191MOL0     C25679   6.208   8.348   8.011  0.4360  0.7843  0.4353
  191MOL0     C25680   6.272   8.333   7.874  0.3122 -0.7860 -0.8547
  191MOL0     O25681   6.210   8.394   7.772 -0.1493  0.1071  0.3714
  191MOL0     C25682   6.240   8.344   7.645  0.5502  0.2823  0.2317
  191MOL0     C25683   6.136   8.321   7.562  0.6135  0.1644  0.7352
  191MOL0     C25684   6.155   8.249   7.444 -0.4303  0.0718 -0.1390
  191MOL0     C25685   6.277   8.201   7.410 -0.1138  0.4701  0.0887
  191MOL0     O25686   6.282   8.128   7.295 -0.3320  0.0447 -0.7722
  191MOL0     C25687   6.207   8.010   7.268 -0.3269  0.1483  0.6284
  191MOL0     C25688   6.134   8.024   7.141 -0.8417 -0.2562  0.1833
  191MOL0     C25689   6.233   8.011   7.027  0.2796 -0.6193  0.6174
  191MOL0     C25690   6.327   7.900   7.026 -0.4202  0.2319 -0.3859
  191MOL0     C25691   6.399   7.884   6.890  0.2383  0.9899 -0.4081
  191MOL0     C25692   6.476   7.759   6.876  0.6144  0.3736 -0.0469
  191MOL0     C25693   6.613   7.770   6.931 -1.2411 -0.0201  0.8954
  191MOL0     C25694   6.675   7.633   6.931  0.2456  0.3956  0.4980
  191MOL0    Cl25695   6.645   7.543   7.084  0.2536 -0.0148 -0.7605
  191MOL0     C25696   6.381   8.243   7.483  0.3877  0.1271  0.6466
  191MOL0     C25697   6.370   8.320   7.600  0.5809 -0.7026  0.7393
  191MOL0     O25698   6.377   8.274   7.872  0.8777  0.5922  0.6562
  191MOL0     C25699   6.275   8.291   8.128 -0.0764  0.9651  0.1532
  191MOL0     C25700   6.233   8.324   8.258  0.9094 -0.0605 -0.3623
  191MOL0     N25701   5.756   8.373   8.997 -0.0079  0.3601 -0.3557
  191MOL0     N25702   5.655   8.305   8.994 -0.2212 -0.2195  0.1875
  191MOL0     C25703   5.402   7.555   7.965  0.3929  0.4733  0.4585
  191MOL0     C25704   5.416   7.452   7.874 -0.5220 -0.0822  0.2247
  191MOL0     C25705   5.422   7.233   7.476  1.2096 -0.0028  0.4953
  191MOL0     C25706   5.345   7.226   7.361  0.6303 -0.0449 -0.8964
  191MOL0     C25707   5.380   7.138   7.260  0.1799  0.2781  0.3982
  191MOL0     C25708   5.496   7.056   7.260  1.4895 -0.1581  0.1090
  191MOL0     O25709   5.524   6.971   7.158  0.0489  0.3497  0.0343
  191MOL0     C25710   5.507   6.834   7.188 -0.5654  1.0409  0.2506
  191MOL0     C25711   5.536   6.747   7.070 -0.0932 -0.9657  0.7549
  191MOL0     C25712   5.412   6.753   6.978 -0.1031  1.4411  0.8060
  191MOL0     C25713   5.413   6.653   6.856 -0.5990  0.0695 -0.2910
  191MOL0     C25714   5.280   6.605   6.802 -0.7288  0.6287  0.4896
  191MOL0     C25715   5.181   6.565   6.750  1.1471 -0.4991 -0.4058
  191MOL0     C25716   5.588   7.087   7.358 -0.1955 -0.5310  0.6118
  191MOL0     C25717   5.558   7.174   7.465  0.2926  0.1219  0.2323
  191MOL0     H25718   5.525   7.633   7.613  1.5581  0.4147  0.4293
  191MOL0     H25719   5.477   7.816   7.770 -0.8222  0.2352  2.0443
  191MOL0     H25720   5.493   7.957   7.988 -0.3292  1.6427 -0.0018
  191MOL0     H25721   5.344   7.973   7.917  1.2363  3.8929  1.3047
  191MOL0     H25722   5.376   8.095   8.116 -1.8971  0.2151  0.6186
  191MOL0     H25723   5.233   7.996   8.115  0.5983 -0.8063 -1.0293
  191MOL0     H25724   5.307   7.862   8.280  0.6727  0.4414 -3.5213
  191MOL0     H25725   5.475   7.885   8.251 -1.6587 -3.5230 -1.6274
  191MOL0     H25726   5.465   8.115   8.340  0.5296 -1.4293 -1.0421
  191MOL0     H25727   5.289   8.094   8.378  0.4888  0.0837  2.6148
  191MOL0     H25728   5.332   7.909   8.507 -3.4920  2.5519 -1.3414
  191MOL0     H25729   5.500   7.924   8.497 -1.5468 -0.7448 -1.7988
  191MOL0     H25730   5.328   8.143   8.637 -1.3747 -2.0776  1.9994
  191MOL0     H25731   5.379   8.004   8.718  0.1086 -0.1210  0.1033
  191MOL0     H25732   5.622   8.062   8.679 -2.1419 -1.8291  1.2630
  191MOL0     H25733   5.558   8.212   8.609  0.8399 -1.2391 -1.3416
  191MOL0     H25734   5.513   8.105   8.895  1.4729  1.3150  0.1579
  191MOL0     H25735   5.417   8.226   8.834 -1.4369 -3.1879  2.8855
  191MOL0     H25736   5.722   8.337   8.668 -2.4787 -1.3417 -0.1253
  191MOL0     H25737   5.895   8.577   8.808 -1.9255 -1.2337 -0.8409
  191MOL0     H25738   6.001   8.466   8.905 -0.0971 -1.1627  0.3002
  191MOL0     H25739   5.926   8.366   8.633 -0.7145 -1.3409  2.5996
  191MOL0     H25740   6.069   8.334   8.725  0.4810  1.3437  0.4901
  191MOL0     H25741   6.153   8.556   8.683 -0.2551 -0.0067  0.5298
  191MOL0     H25742   5.998   8.600   8.590  1.5204  0.7725 -0.5785
  191MOL0     H25743   6.200   8.370   8.535  0.2676  0.1296  0.4487
  191MOL0     H25744   6.211   8.522   8.453 -0.4758 -0.1924 -0.2621
  191MOL0     H25745   5.945   8.479   8.196  0.2035 -0.4180 -0.6793
  191MOL0     H25746   5.902   8.522   7.961 -0.7868  1.6301 -3.0771
  191MOL0     H25747   6.040   8.538   7.875 -1.2439  0.3900 -0.4949
  191MOL0     H25748   5.956   8.376   7.855  3.6734 -1.2286 -0.3910
  191MOL0     H25749   6.033   8.336   7.592 -0.0969 -3.1039  0.3546
  191MOL0     H25750   6.077   8.225   7.372  1.9152  1.8794 -3.5817
  191MOL0     H25751   6.271   7.922   7.275  4.1380  2.5847 -3.2800
  191MOL0     H25752   6.132   8.002   7.348 -0.4696  1.8009  0.7063
  191MOL0     H25753   6.058   7.946   7.126 -0.8895 -0.8924  3.2391
  191MOL0     H25754   6.071   8.113   7.139 -1.5219 -0.5978  2.9344
  191MOL0     H25755   6.283   8.108   7.018 -1.1732  0.3658  2.3539
  191MOL0     H25756   6.179   7.989   6.934  1.3526 -1.2447  0.1173
  191MOL0     H25757   6.397   7.931   7.104 -5.1467  1.7105  3.8622
  191MOL0     H25758   6.280   7.805   7.052 -2.8071  2.0660  2.8483
  191MOL0     H25759   6.463   7.973   6.894  3.6976 -1.3416  1.1094
  191MOL0     H25760   6.330   7.893   6.806  2.4004  2.4500 -2.1347
  191MOL0     H25761   6.413   7.678   6.914  0.0696  1.2108  0.8996
  191MOL0     H25762   6.493   7.748   6.769 -3.0888  0.2605 -0.7669
  191MOL0     H25763   6.607   7.816   7.031 -0.7904  4.1466 -0.7945
  191MOL0     H25764   6.675   7.837   6.871 -1.1352 -2.1483 -1.5278
  191MOL0     H25765   6.782   7.650   6.917  0.1768 -1.0484 -2.4801
  191MOL0     H25766   6.646   7.586   6.837 -1.1894 -1.7439  1.9245
  191MOL0     H25767   6.479   8.210   7.451 -0.4699  2.2793 -5.4513
  191MOL0     H25768   6.466   8.355   7.637  0.5382  0.8841 -0.5455
  191MOL0     H25769   6.361   8.226   8.122 -1.3295 -0.8666  1.1064
  191MOL0     H25770   6.274   8.277   8.347 -0.4081  0.7937  0.7418
  191MOL0     H25771   5.376   7.554   8.071  1.3201  2.7974  0.7568
  191MOL0     H25772   5.393   7.349   7.899 -0.2014  0.1867  1.7287
  191MOL0     H25773   5.249   7.273   7.344 -0.3131 -1.3880  0.4085
  191MOL0     H25774   5.323   7.144   7.167  0.1670  0.2062  0.4017
  191MOL0     H25775   5.574   6.809   7.272  2.0661  3.9700 -0.7770
  191MOL0     H25776   5.403   6.816   7.215 -0.2396 -2.1933 -0.1724
  191MOL0     H25777   5.556   6.645   7.104  3.4979 -1.3201 -1.8682
  191MOL0     H25778   5.621   6.783   7.011  0.1533 -0.5826  1.3330
  191MOL0     H25779   5.404   6.858   6.945 -0.5108  0.4861 -2.4796
  191MOL0     H25780   5.326   6.732   7.042 -0.2294  1.8871  0.7865
  191MOL0     H25781   5.470   6.565   6.888 -1.1207  0.1456  0.8851
  191MOL0     H25782   5.477   6.692   6.776  1.7881  1.7261  2.2213
  191MOL0     H25783   5.087   6.543   6.703 -1.0283  0.1721  3.1671
  191MOL0     H25784   5.690   7.048   7.359  0.2401  0.4781 -0.8175
  191MOL0     H25785   5.643   7.197   7.529  1.1380  1.2610 -1.2290
  192MOL0     O25786   5.994   4.009   9.826  0.3690 -0.1647 -0.3606
  192MOL0     C25787   6.061   3.906   9.831  0.1676 -0.0967  0.5935
  192MOL0     O25788   6.191   3.891   9.865 -0.1315 -1.0484  0.2918
  192MOL0     C25789   6.256   4.010   9.915  0.0961  0.2330 -0.1855
  192MOL0     C25790   6.269   4.028  10.055 -0.1728  0.5449 -1.1282
  192MOL0     C25791   6.326   4.138  10.107  0.0172 -0.9914 -0.8545
  192MOL0     C25792   6.367   4.239  10.022 -0.4318 -0.6629 -0.4131
  192MOL0     O25793   6.436   4.346  10.066  0.7805 -0.0769 -0.3208
  192MOL0     C25794   6.523   4.329  10.172 -0.3304 -0.0090  0.0958
  192MOL0     C25795   6.465   4.400  10.300  0.1224  0.7663 -0.8010
  192MOL0     C25796   6.531   4.352  10.433  0.0657 -0.0137  0.4531
  192MOL0     C25797   6.446   4.370  10.564  0.8346  0.7256 -1.2395
  192MOL0     C25798   6.510   4.293  10.672 -0.4240 -0.2229 -1.0570
  192MOL0     C25799   6.422   4.295  10.799  0.1605 -0.3794  0.4457
  192MOL0     C25800   6.479   4.216  10.919  0.2806 -1.1875  0.5221
  192MOL0     C25801   6.370   4.190  11.026 -0.3926  0.7866 -0.3428
  192MOL0     N25802   6.324   4.316  11.085  0.6638 -0.1558  0.0671
  192MOL0     C25803   6.200   4.374  11.068  0.1812 -0.1023 -0.2336
  192MOL0     C25804   6.200   4.473  11.168  0.2694 -0.0333 -1.1592
  192MOL0     C25805   6.101   4.581  11.226 -0.6344  0.8249  0.2618
  192MOL0     C25806   5.965   4.525  11.264 -0.3565  0.4501 -0.0484
  192MOL0     C25807   5.967   4.409  11.362  1.6317  0.1157  0.3939
  192MOL0     C25808   5.946   4.445  11.513 -0.6306  0.7837 -0.3090
  192MOL0     O25809   6.016   4.560  11.555 -0.7404  0.4957  0.1076
  192MOL0     C25810   6.021   4.591  11.684  0.0900 -0.8690 -0.3464
  192MOL0     C25811   6.091   4.706  11.708 -1.6288  0.3252  0.6142
  192MOL0     C25812   6.123   4.734  11.845  0.9937 -0.5522  0.3045
  192MOL0     C25813   6.189   4.866  11.873  0.5174  0.0867  0.7563
  192MOL0     C25814   6.086   4.646  11.953 -0.0868 -0.2435  0.3674
  192MOL0     C25815   6.107   4.683  12.099  0.0616  0.2155 -0.3656
  192MOL0     O25816   6.178   4.795  12.136 -0.0992  0.3811 -0.3273
  192MOL0     C25817   6.202   4.802  12.270  0.6399 -0.2193 -0.3311
  192MOL0     C25818   6.142   4.896  12.349  0.3835 -0.5831  0.0514
  192MOL0     C25819   6.179   4.904  12.485  0.3166 -0.6443  0.2338
  192MOL0     C25820   6.284   4.826  12.542 -0.8874  0.6522  0.7188
  192MOL0     O25821   6.332   4.826  12.673 -0.1629 -0.4752 -0.2792
  192MOL0     C25822   6.358   4.958  12.726 -0.2317 -0.4967 -0.0234
  192MOL0     C25823   6.416   4.937  12.865  0.2201 -0.3230  0.6953
  192MOL0     C25824   6.334   4.871  12.969  0.1337 -0.3355 -0.6626
  192MOL0     C25825   6.389   4.855  13.105 -0.3129 -0.4781  0.0278
  192MOL0     C25826   6.308   4.787  13.213 -1.0488 -0.8415  0.4696
  192MOL0     C25827   6.390   4.715  13.320  0.3001 -0.6511 -1.0889
  192MOL0     C25828   6.452   4.823  13.414  0.0530 -0.0149  0.7040
  192MOL0     C25829   6.573   4.779  13.489 -0.7627  0.4149  0.9513
  192MOL0    Cl25830   6.668   4.928  13.523 -0.5221 -0.7779 -0.9242
  192MOL0     C25831   6.351   4.738  12.458  0.3873  0.3271  0.0855
  192MOL0     C25832   6.312   4.732  12.326  0.1285  0.2013  0.0439
  192MOL0     O25833   6.039   4.622  12.175 -0.1269  0.6424 -0.0731
  192MOL0     C25834   6.008   4.541  11.920  0.3314  0.6683  0.0064
  192MOL0     C25835   5.967   4.515  11.789 -0.2938 -0.2103  0.9701
  192MOL0     N25836   6.327   4.474  11.230  0.9112 -0.1942  0.5622
  192MOL0     N25837   6.395   4.374  11.186  0.4322  0.8002 -0.4139
  192MOL0     C25838   6.346   4.235   9.884 -0.0516  0.1813 -0.1993
  192MOL0     C25839   6.293   4.118   9.832 -0.2295  0.2232 -0.0485
  192MOL0     C25840   5.984   3.787   9.819  0.7224  0.2486  0.3696
  192MOL0     C25841   6.010   3.681   9.911  0.5802 -0.6357 -0.3131
  192MOL0     C25842   5.946   3.560   9.905  0.8492 -0.9309  0.5689
  192MOL0     C25843   5.839   3.542   9.809 -0.6458  0.7868 -0.2610
  192MOL0     O25844   5.768   3.420   9.808 -0.0025 -0.1124 -0.2633
  192MOL0     C25845   5.815   3.298   9.862 -0.4834  0.2790  0.5969
  192MOL0     C25846   5.952   3.250   9.824 -0.3305  0.6796 -0.1224
  192MOL0     C25847   5.972   3.225   9.671  0.3844 -0.7611  0.0382
  192MOL0     C25848   5.856   3.135   9.613  0.2664 -0.7622 -0.4173
  192MOL0     C25849   5.850   2.997   9.662 -0.8063 -0.4582 -0.5203
  192MOL0     C25850   5.839   2.890   9.709 -0.0771 -0.3727 -0.5965
  192MOL0     C25851   5.818   3.638   9.711  0.0737 -0.0491  0.7912
  192MOL0     C25852   5.883   3.762   9.719 -0.2931  0.0799 -0.2208
  192MOL0     H25853   6.233   3.944  10.114  1.9398  0.6646  0.4304
  192MOL0     H25854   6.349   4.155  10.212  1.3117 -2.2281 -0.8985
  192MOL0     H25855   6.558   4.226  10.183 -0.5677 -0.0065  0.9988
  192MOL0     H25856   6.602   4.390  10.126 -0.4859  2.1096  2.3551
  192MOL0     H25857   6.487   4.507  10.303  0.4766  0.6815  2.0832
  192MOL0     H25858   6.356   4.402  10.316  0.3680 -0.5856  1.4551
  192MOL0     H25859   6.565   4.249  10.425  1.1055  0.0481  2.9776
  192MOL0     H25860   6.629   4.397  10.449 -0.0174  0.1670  0.4604
  192MOL0     H25861   6.442   4.478  10.584  0.2113  0.4089  0.5337
  192MOL0     H25862   6.346   4.332  10.541 -0.3387  2.2893  0.9255
  192MOL0     H25863   6.542   4.192  10.644 -0.1067 -1.1603  2.1771
  192MOL0     H25864   6.596   4.351  10.704 -0.5042 -1.8004  2.5118
  192MOL0     H25865   6.411   4.400  10.828  0.0017 -0.3843  0.4037
  192MOL0     H25866   6.320   4.257  10.785 -0.2286  0.8388 -0.1801
  192MOL0     H25867   6.522   4.123  10.880  1.7616 -0.0963 -0.6067
  192MOL0     H25868   6.560   4.274  10.963  1.6677 -1.7291 -1.1878
  192MOL0     H25869   6.415   4.129  11.105 -0.8184 -1.4874 -1.7581
  192MOL0     H25870   6.284   4.138  10.983 -1.4388 -1.9254  4.2858
  192MOL0     H25871   6.126   4.336  10.998  0.4470  1.1793 -1.2558
  192MOL0     H25872   6.152   4.627  11.311  0.0559 -2.2945  1.6614
  192MOL0     H25873   6.083   4.654  11.146  0.4694 -1.0948 -1.8663
  192MOL0     H25874   5.923   4.502  11.165  1.4264 -0.6816 -0.5919
  192MOL0     H25875   5.904   4.602  11.313  1.3163 -0.4171  3.7257
  192MOL0     H25876   6.056   4.351  11.338  0.5427 -0.8115 -1.7381
  192MOL0     H25877   5.882   4.345  11.337  2.6054 -2.3500  2.8712
  192MOL0     H25878   5.955   4.361  11.582  1.7916  2.2516  1.3328
  192MOL0     H25879   5.839   4.466  11.512 -1.0287 -0.8969 -2.7857
  192MOL0     H25880   6.132   4.765  11.627  1.2330  0.0210  1.7247
  192MOL0     H25881   6.210   4.920  11.780 -0.5485 -1.2283 -0.2822
  192MOL0     H25882   6.132   4.934  11.938  1.2191  1.1409  0.3037
  192MOL0     H25883   6.283   4.850  11.927 -0.3874 -0.8847  2.1030
  192MOL0     H25884   6.078   4.969  12.300  0.6217 -2.0510 -2.6658
  192MOL0     H25885   6.124   4.974  12.547 -0.3089  1.3163 -2.3425
  192MOL0     H25886   6.435   5.011  12.670  1.7213 -0.7551  2.2410
  192MOL0     H25887   6.262   5.011  12.734  1.0180  2.2414 -1.7940
  192MOL0     H25888   6.510   4.881  12.863 -1.2114 -2.9012  1.1666
  192MOL0     H25889   6.441   5.034  12.909 -0.8045  0.3062 -0.0671
  192MOL0     H25890   6.287   4.776  12.942 -2.0659  0.8760 -1.3719
  192MOL0     H25891   6.252   4.941  12.988 -0.0646 -0.8283  0.3862
  192MOL0     H25892   6.480   4.796  13.092 -1.2727 -1.7815 -1.2181
  192MOL0     H25893   6.426   4.952  13.139 -1.2472  0.9931 -2.8232
  192MOL0     H25894   6.235   4.721  13.166 -1.6435  0.6343 -0.7922
  192MOL0     H25895   6.244   4.863  13.258  1.5956  2.3261 -0.6834
  192MOL0     H25896   6.322   4.657  13.384  2.0332 -1.6730 -0.1063
  192MOL0     H25897   6.461   4.642  13.280  1.8477  0.3150 -0.1819
  192MOL0     H25898   6.382   4.875  13.480  2.3810  1.2547  2.3218
  192MOL0     H25899   6.487   4.903  13.348  1.7373  1.2221  2.9484
  192MOL0     H25900   6.637   4.704  13.440  0.3421  1.3478  0.9221
  192MOL0     H25901   6.532   4.714  13.567 -2.5955 -1.3654 -1.3377
  192MOL0     H25902   6.429   4.679  12.505  1.1569 -0.3683 -1.9361
  192MOL0     H25903   6.354   4.668  12.249 -1.0476  0.3035 -0.7216
  192MOL0     H25904   5.959   4.485  11.999  2.1019  0.5990  1.1220
  192MOL0     H25905   5.898   4.432  11.778 -1.7948  1.1016  0.0438
  192MOL0     H25906   6.366   4.329   9.834  0.0996 -0.6788 -1.8274
  192MOL0     H25907   6.292   4.083   9.730 -2.4763 -2.7862  0.8439
  192MOL0     H25908   6.090   3.702   9.982  3.0671 -2.3476 -2.4278
  192MOL0     H25909   5.965   3.488   9.984  0.9297 -0.9138  0.5649
  192MOL0     H25910   5.826   3.306   9.970 -0.2330  0.3068  0.5688
  192MOL0     H25911   5.749   3.213   9.840 -2.4054  1.4803  1.4306
  192MOL0     H25912   5.972   3.159   9.880 -1.8758 -1.4239 -2.7460
  192MOL0     H25913   6.029   3.322   9.855 -0.6348  1.0403 -0.1952
  192MOL0     H25914   6.071   3.181   9.662  2.2813  2.9042  0.7406
  192MOL0     H25915   5.969   3.319   9.615 -2.3896 -0.6349  0.2439
  192MOL0     H25916   5.871   3.129   9.504 -1.5593  1.4107 -0.8624
  192MOL0     H25917   5.760   3.185   9.627  0.5217  0.4926 -2.6639
  192MOL0     H25918   5.809   2.796   9.752 -3.3422 -0.1289 -2.0460
  192MOL0     H25919   5.745   3.637   9.631  1.5883  2.6354 -0.7857
  192MOL0     H25920   5.864   3.841   9.647  3.2376  0.6991 -0.6435
  193MOL0     O25921  10.865   1.634   8.375 -1.1521 -0.1427  0.0436
  193MOL0     C25922  10.936   1.664   8.285 -0.3379  0.4095  0.0858
  193MOL0     O25923  10.894   1.678   8.151  0.3331 -0.1883 -0.1844
  193MOL0     C25924  10.761   1.664   8.123  0.4414 -0.6896 -1.0347
  193MOL0     C25925  10.683   1.555   8.159  0.7643 -0.1454 -0.6633
  193MOL0     C25926  10.540   1.552   8.120  0.6821  0.1198 -0.0858
  193MOL0     C25927  10.480   1.659   8.053 -0.2723  0.2234  0.4276
  193MOL0     O25928  10.346   1.674   8.039  0.1457 -0.9729 -0.1949
  193MOL0     C25929  10.263   1.564   8.033 -0.4223  1.2019  0.4564
  193MOL0     C25930  10.134   1.612   7.995 -1.2652  0.2150 -0.2562
  193MOL0     C25931  10.069   1.681   8.117 -0.2207 -0.1131 -0.2342
  193MOL0     C25932   9.918   1.692   8.112 -0.5904 -0.2966  0.3736
  193MOL0     C25933   9.855   1.762   8.231  0.1623 -0.8513  0.2935
  193MOL0     C25934   9.857   1.915   8.240  0.0281 -0.6113 -0.6565
  193MOL0     C25935   9.799   1.962   8.367  0.6285  0.6620 -0.0377
  193MOL0     C25936   9.808   2.112   8.384  0.1872  1.2349  0.1511
  193MOL0     N25937   9.751   2.148   8.517  0.8189  0.7381  0.7076
  193MOL0     C25938   9.634   2.227   8.524 -0.2611 -0.0407 -0.4323
  193MOL0     C25939   9.635   2.271   8.662  0.6394 -0.1011  0.0278
  193MOL0     C25940   9.541   2.367   8.736  0.4414 -0.7982 -0.0526
  193MOL0     C25941   9.602   2.475   8.824  0.2217 -0.9018 -0.2297
  193MOL0     C25942   9.495   2.565   8.878 -0.2686 -0.5960  0.3966
  193MOL0     C25943   9.559   2.672   8.952  0.2591  0.1213  0.5347
  193MOL0     O25944   9.465   2.774   8.986  0.5509  0.0395  0.1747
  193MOL0     C25945   9.513   2.903   8.993 -0.2305 -0.2369 -0.0036
  193MOL0     C25946   9.412   2.996   8.983  0.2909 -0.0760 -0.7802
  193MOL0     C25947   9.431   3.131   9.001 -1.1108 -0.3943 -0.8722
  193MOL0     C25948   9.301   3.212   9.011 -1.0708  0.5004  0.2259
  193MOL0     C25949   9.566   3.178   9.017 -0.6923 -0.0177  0.5451
  193MOL0     C25950   9.619   3.314   8.998 -0.2955 -0.4009 -0.4371
  193MOL0     O25951   9.753   3.328   8.974  0.4114 -0.1020  0.0489
  193MOL0     C25952   9.810   3.456   8.946 -0.0972  1.2207 -0.3957
  193MOL0     C25953   9.755   3.569   8.884  0.3872  0.4504 -0.5408
  193MOL0     C25954   9.820   3.691   8.883  0.4167  0.7604  0.9566
  193MOL0     C25955   9.941   3.702   8.940  0.4712 -0.4669 -0.0638
  193MOL0     O25956  10.015   3.814   8.930  0.2773 -0.3064 -0.0687
  193MOL0     C25957   9.998   3.895   8.813 -0.0449  0.2995 -0.3739
  193MOL0     C25958  10.123   3.990   8.810  0.2042 -0.3395  0.7030
  193MOL0     C25959  10.099   4.093   8.699 -0.2318  0.1965  0.2356
  193MOL0     C25960  10.126   4.046   8.566 -0.4268 -0.4879  0.6135
  193MOL0     C25961  10.149   4.172   8.482  0.5796  0.0358 -0.1732
  193MOL0     C25962  10.294   4.220   8.499  0.6246  0.5076 -0.0736
  193MOL0     C25963  10.337   4.308   8.377 -0.1419  0.6079  0.4160
  193MOL0     C25964  10.274   4.445   8.384  0.5657 -0.1657  0.2915
  193MOL0    Cl25965  10.295   4.539   8.226  0.2065  0.2716 -0.0137
  193MOL0     C25966  10.001   3.589   9.006  0.4427 -0.0163  0.9374
  193MOL0     C25967   9.933   3.467   8.996  0.5434 -0.2219  0.3232
  193MOL0     O25968   9.543   3.409   9.000 -0.2378  0.3571  0.3443
  193MOL0     C25969   9.669   3.087   9.029 -0.1559  0.5250 -0.1816
  193MOL0     C25970   9.636   2.950   9.015 -0.1871  0.1244  0.3079
  193MOL0     N25971   9.738   2.200   8.728 -0.0804 -0.1430 -0.6796
  193MOL0     N25972   9.798   2.121   8.643 -0.4008 -0.0744  0.4541
  193MOL0     C25973  10.560   1.761   8.004  0.7881  0.8656 -0.5483
  193MOL0     C25974  10.695   1.769   8.043 -0.3442  0.7053 -0.2054
  193MOL0     C25975  11.081   1.707   8.311  0.7839 -0.6479 -0.3495
  193MOL0     C25976  11.133   1.684   8.435  0.1949 -0.2464 -0.1500
  193MOL0     C25977  11.265   1.719   8.464  0.1296  0.0404  0.8261
  193MOL0     C25978  11.344   1.796   8.373  0.1491 -0.8981  0.4743
  193MOL0     O25979  11.473   1.828   8.413 -0.1967 -0.7123 -1.1220
  193MOL0     C25980  11.560   1.878   8.308  0.0042  0.1716 -0.3890
  193MOL0     C25981  11.686   1.906   8.384 -0.5053 -0.2071  0.5686
  193MOL0     C25982  11.754   1.778   8.432 -0.3201  0.0639  0.6916
  193MOL0     C25983  11.795   1.776   8.573 -0.6399  0.9524  0.0138
  193MOL0     C25984  11.915   1.856   8.592 -0.4894 -0.0237  0.0458
  193MOL0     C25985  12.022   1.918   8.574  1.5331  0.3901  0.1124
  193MOL0     C25986  11.279   1.838   8.253  0.5789  0.7234 -0.3500
  193MOL0     C25987  11.150   1.790   8.218  0.7160  0.1938  0.3983
  193MOL0     H25988  10.722   1.473   8.217  2.5108  2.6263  2.4407
  193MOL0     H25989  10.484   1.465   8.154  0.5634 -0.3339 -1.3731
  193MOL0     H25990  10.306   1.494   7.961 -1.3108  0.7633  0.3426
  193MOL0     H25991  10.252   1.517   8.131 -1.7039  0.2432 -0.1221
  193MOL0     H25992  10.143   1.684   7.912 -1.1191 -0.0656 -0.4852
  193MOL0     H25993  10.071   1.526   7.970 -2.1275  1.6006 -3.4550
  193MOL0     H25994  10.081   1.618   8.206  2.9565 -0.1281 -0.5557
  193MOL0     H25995  10.111   1.781   8.131  3.7144 -1.5962 -0.3387
  193MOL0     H25996   9.889   1.748   8.023 -1.3625 -1.1250  0.0829
  193MOL0     H25997   9.873   1.592   8.115  0.4473 -0.7719  3.3698
  193MOL0     H25998   9.758   1.713   8.247 -1.0102  1.3547  0.2936
  193MOL0     H25999   9.917   1.742   8.319  2.9915  3.0854 -0.5384
  193MOL0     H26000   9.953   1.968   8.237 -1.2889  1.8842 -2.4811
  193MOL0     H26001   9.789   1.947   8.160  0.2687 -1.9048 -1.3914
  193MOL0     H26002   9.691   1.941   8.364  0.4802  1.4553 -0.3312
  193MOL0     H26003   9.837   1.903   8.451  0.2068 -0.8682 -0.8969
  193MOL0     H26004   9.753   2.165   8.305  0.2922 -0.2472 -0.9402
  193MOL0     H26005   9.912   2.143   8.389 -0.2194  2.5181  1.6601
  193MOL0     H26006   9.567   2.243   8.440 -0.4919 -1.3389 -0.5284
  193MOL0     H26007   9.494   2.420   8.652  2.6225  0.6753 -0.4461
  193MOL0     H26008   9.473   2.302   8.792  1.0956 -1.8678 -0.4730
  193MOL0     H26009   9.680   2.528   8.767  2.2223 -0.6805  2.4822
  193MOL0     H26010   9.652   2.416   8.901  0.6372  0.6108  0.7158
  193MOL0     H26011   9.426   2.511   8.944  1.9928  0.2314  3.6847
  193MOL0     H26012   9.433   2.606   8.798 -0.6063  0.0530  0.9702
  193MOL0     H26013   9.632   2.705   8.877 -1.1696 -0.7293 -1.2884
  193MOL0     H26014   9.605   2.633   9.044 -0.1627 -0.3197  0.5580
  193MOL0     H26015   9.315   2.948   8.971  0.3491 -0.1890 -0.7983
  193MOL0     H26016   9.248   3.171   9.098 -0.6788 -1.0943 -0.2529
  193MOL0     H26017   9.310   3.321   9.009 -0.9058  0.4916 -1.5481
  193MOL0     H26018   9.243   3.192   8.920 -1.5391 -0.5511  0.7291
  193MOL0     H26019   9.650   3.575   8.862 -1.0495 -0.5712  4.5532
  193MOL0     H26020   9.769   3.777   8.840 -1.7727 -2.2397 -3.0288
  193MOL0     H26021   9.994   3.833   8.722  2.8980 -1.6252  0.6626
  193MOL0     H26022   9.913   3.959   8.837  0.3129  2.6191 -4.3645
  193MOL0     H26023  10.130   4.041   8.906  0.8885 -0.2901  0.6301
  193MOL0     H26024  10.214   3.931   8.796 -1.4536 -2.8851 -0.1090
  193MOL0     H26025  10.175   4.165   8.732 -1.3600  1.0826  0.9767
  193MOL0     H26026   9.999   4.137   8.694 -0.8080 -1.1151 -0.1099
  193MOL0     H26027  10.219   3.990   8.566  0.5783  1.0710  1.9295
  193MOL0     H26028  10.036   3.992   8.537 -1.7016  0.9638  1.6572
  193MOL0     H26029  10.081   4.254   8.506  1.7697  1.1666 -0.5099
  193MOL0     H26030  10.137   4.140   8.378  1.0268  0.1383 -0.2628
  193MOL0     H26031  10.314   4.282   8.587 -1.6434 -0.0745  0.8952
  193MOL0     H26032  10.359   4.133   8.510 -1.8346 -1.4705 -0.5762
  193MOL0     H26033  10.312   4.267   8.279 -0.7728  0.8931  0.4501
  193MOL0     H26034  10.446   4.310   8.380 -0.0626 -1.8601  1.2070
  193MOL0     H26035  10.322   4.494   8.470  1.0463  0.1111 -0.1293
  193MOL0     H26036  10.167   4.453   8.408  0.1574 -1.8815 -0.7839
  193MOL0     H26037  10.099   3.597   9.052  0.7033 -2.1060  0.8340
  193MOL0     H26038   9.978   3.379   9.040 -4.6625 -1.9721  2.9956
  193MOL0     H26039   9.775   3.101   9.046  0.0281 -1.8641  1.0045
  193MOL0     H26040   9.713   2.877   9.036 -0.6818 -0.5723 -0.2312
  193MOL0     H26041  10.516   1.837   7.940  0.3143 -0.0978 -1.3825
  193MOL0     H26042  10.763   1.850   8.017  1.0123  0.1307  1.3651
  193MOL0     H26043  11.079   1.628   8.511 -3.0714  3.1807  0.3878
  193MOL0     H26044  11.299   1.677   8.558 -0.2668  0.0693  0.9854
  193MOL0     H26045  11.583   1.812   8.224  1.6482  1.9521 -1.3968
  193MOL0     H26046  11.521   1.973   8.271 -0.7548  0.1231  0.2635
  193MOL0     H26047  11.659   1.970   8.468 -2.2661  4.2407 -2.9762
  193MOL0     H26048  11.757   1.955   8.317 -0.8905 -1.8815 -1.1625
  193MOL0     H26049  11.827   1.739   8.361 -0.8212 -2.6185  1.5653
  193MOL0     H26050  11.676   1.704   8.413  0.0834 -0.0853 -0.4887
  193MOL0     H26051  11.817   1.670   8.591 -2.7801  0.6558  1.1760
  193MOL0     H26052  11.714   1.797   8.644 -1.8118 -2.3207 -0.1711
  193MOL0     H26053  12.112   1.974   8.561  3.6116 -2.2289  2.1839
  193MOL0     H26054  11.323   1.887   8.167 -1.4311 -0.4569 -2.1722
  193MOL0     H26055  11.107   1.816   8.121  2.3514 -1.4305 -0.8275
  194MOL0     O26056   7.871   0.940   5.613 -0.6145  0.4653  0.0630
  194MOL0     C26057   7.976   0.991   5.644  0.4114 -0.3478 -0.1657
  194MOL0     O26058   8.019   1.017   5.771 -0.0883 -0.0445  0.4095
  194MOL0     C26059   7.941   0.984   5.887  0.0596 -0.4080 -0.4483
  194MOL0     C26060   7.854   0.883   5.906 -0.2650  0.6662 -1.7117
  194MOL0     C26061   7.777   0.880   6.025  0.2765  0.4142 -0.0866
  194MOL0     C26062   7.798   0.972   6.128 -0.0372  0.1318  0.8814
  194MOL0     O26063   7.730   0.980   6.248  0.0223 -0.2266  0.7611
  194MOL0     C26064   7.631   0.877   6.271 -0.1320 -0.6982  0.3212
  194MOL0     C26065   7.556   0.896   6.405 -0.0992  0.2915 -0.2485
  194MOL0     C26066   7.434   0.991   6.404 -0.6093 -0.7024  0.2398
  194MOL0     C26067   7.348   0.965   6.533  0.5633  0.1535 -0.4256
  194MOL0     C26068   7.202   1.032   6.511  0.4625 -0.6073  0.5756
  194MOL0     C26069   7.111   0.942   6.427 -0.0604  0.3552  0.8694
  194MOL0     C26070   6.974   1.011   6.401  0.2371  0.1125  0.0124
  194MOL0     C26071   6.895   0.939   6.288  0.2449  0.2317 -0.0445
  194MOL0     N26072   6.859   0.798   6.319  0.1649 -0.0038 -0.0625
  194MOL0     C26073   6.845   0.733   6.444 -0.7211  0.1939 -0.3429
  194MOL0     C26074   6.810   0.607   6.422 -0.2824  1.1115  0.0169
  194MOL0     C26075   6.809   0.490   6.514  0.1453  0.3848  0.2782
  194MOL0     C26076   6.940   0.413   6.513  0.2528 -0.4299 -0.5247
  194MOL0     C26077   6.952   0.309   6.625 -0.0019 -0.6712  0.0404
  194MOL0     C26078   7.087   0.236   6.605  0.8232 -0.4988  0.1100
  194MOL0     O26079   7.196   0.333   6.601 -0.8657  0.6044  0.0426
  194MOL0     C26080   7.299   0.320   6.513  0.1254 -0.3781  0.5540
  194MOL0     C26081   7.316   0.208   6.434 -1.1807  0.2117 -0.1042
  194MOL0     C26082   7.420   0.204   6.338 -0.3413  0.3779 -0.4951
  194MOL0     C26083   7.436   0.079   6.247  0.2460 -0.0311  0.0508
  194MOL0     C26084   7.487   0.326   6.312 -1.0643  0.4116  0.7532
  194MOL0     C26085   7.595   0.336   6.208 -0.2859  0.9159  0.1255
  194MOL0     O26086   7.627   0.461   6.174 -0.1220  0.0697 -0.1169
  194MOL0     C26087   7.735   0.490   6.095 -0.0844  0.4263  0.1949
  194MOL0     C26088   7.735   0.435   5.963 -0.9683 -0.8934  0.1285
  194MOL0     C26089   7.846   0.457   5.880  0.6719  0.8507  0.0772
  194MOL0     C26090   7.961   0.523   5.928  0.7421  0.4426  0.3678
  194MOL0     O26091   8.079   0.539   5.855  0.1612 -1.2017 -0.1746
  194MOL0     C26092   8.069   0.549   5.717  0.1487 -0.9325  0.9082
  194MOL0     C26093   8.188   0.637   5.684 -0.3106 -0.2493  0.5541
  194MOL0     C26094   8.321   0.559   5.704 -0.5944 -0.2477  0.2876
  194MOL0     C26095   8.378   0.480   5.583  0.8785 -0.2252  1.0230
  194MOL0     C26096   8.493   0.384   5.628  0.4865 -0.1320  0.1487
  194MOL0     C26097   8.548   0.285   5.526  0.1456 -0.1080 -0.3307
  194MOL0     C26098   8.467   0.158   5.533 -0.3717  0.9409  0.1970
  194MOL0     C26099   8.473   0.101   5.398  0.0093  0.3212  0.4203
  194MOL0    Cl26100   8.354   0.183   5.288  0.1437 -0.3560  0.2171
  194MOL0     C26101   7.970   0.562   6.061 -0.7901 -0.6336 -1.0261
  194MOL0     C26102   7.855   0.551   6.146  0.0905  0.6404  0.1740
  194MOL0     O26103   7.667   0.237   6.182 -0.6113 -0.1563 -0.0319
  194MOL0     C26104   7.464   0.435   6.382 -0.0077 -0.5620 -0.2252
  194MOL0     C26105   7.378   0.432   6.494 -0.2546  0.1822 -0.1385
  194MOL0     N26106   6.797   0.593   6.283  0.3483 -0.2949 -0.4373
  194MOL0     N26107   6.843   0.694   6.227 -0.4336 -1.3823  0.0113
  194MOL0     C26108   7.905   1.069   6.111  1.3745  0.3480  1.4268
  194MOL0     C26109   7.969   1.076   5.996  0.9356 -0.9600  0.0563
  194MOL0     C26110   8.049   1.054   5.526  0.1646  0.0505  0.1584
  194MOL0     C26111   8.150   1.156   5.553 -1.0544  0.0976  0.5785
  194MOL0     C26112   8.217   1.214   5.446  0.0464 -0.2012  1.1581
  194MOL0     C26113   8.186   1.180   5.319  0.0241  0.1659 -0.7299
  194MOL0     O26114   8.228   1.241   5.203 -0.3308  0.2845  0.0637
  194MOL0     C26115   8.284   1.366   5.203 -0.4183 -0.0778 -0.6036
  194MOL0     C26116   8.274   1.416   5.061  0.5228 -0.0855 -0.6854
  194MOL0     C26117   8.324   1.564   5.057 -0.4006 -0.0718 -0.0312
  194MOL0     C26118   8.383   1.581   4.914  0.3053 -0.1591 -0.4720
  194MOL0     C26119   8.430   1.724   4.901  0.0878  1.0903  0.8389
  194MOL0     C26120   8.464   1.837   4.896 -0.4287 -0.6548  0.0756
  194MOL0     C26121   8.092   1.086   5.293 -0.2755  0.1044  1.0366
  194MOL0     C26122   8.018   1.020   5.391  0.1799 -0.2007  0.2770
  194MOL0     H26123   7.835   0.800   5.838  3.6383 -0.1468 -2.0435
  194MOL0     H26124   7.715   0.799   6.061  2.6743 -0.1928  3.1246
  194MOL0     H26125   7.554   0.896   6.196  3.6929  2.4855 -3.3361
  194MOL0     H26126   7.675   0.778   6.282  0.7758 -0.0793  3.0723
  194MOL0     H26127   7.513   0.798   6.426 -1.5353  0.8425 -0.4680
  194MOL0     H26128   7.628   0.936   6.477 -0.7257  0.2999  0.3831
  194MOL0     H26129   7.467   1.095   6.412 -1.8429 -0.3384  0.8477
  194MOL0     H26130   7.384   0.988   6.307  0.8042 -0.2153 -0.5350
  194MOL0     H26131   7.334   0.856   6.534 -1.2380  0.2680 -3.0524
  194MOL0     H26132   7.404   1.003   6.618 -1.8710  0.5478  1.1002
  194MOL0     H26133   7.153   1.064   6.603  0.9002 -0.1898  0.6698
  194MOL0     H26134   7.217   1.126   6.456  2.0184 -1.0972  0.1025
  194MOL0     H26135   7.150   0.931   6.325 -2.5525 -0.1298 -0.1196
  194MOL0     H26136   7.092   0.845   6.473 -0.7052  0.4142  0.7325
  194MOL0     H26137   6.915   1.008   6.493  1.3513 -0.1747  0.7323
  194MOL0     H26138   6.971   1.118   6.380 -4.5744  0.5028  1.3617
  194MOL0     H26139   6.953   0.942   6.195  0.2507 -1.0201 -0.0957
  194MOL0     H26140   6.810   1.004   6.266  0.6080  0.6070 -0.3531
  194MOL0     H26141   6.881   0.775   6.537  1.7569 -1.3199 -0.5208
  194MOL0     H26142   6.795   0.538   6.611 -2.1695  2.8080 -1.1300
  194MOL0     H26143   6.719   0.428   6.505 -0.4163  0.5428  3.6485
  194MOL0     H26144   7.011   0.496   6.521 -0.5651  0.1467  1.1281
  194MOL0     H26145   6.964   0.379   6.411  0.7623 -2.1249  0.1286
  194MOL0     H26146   6.868   0.240   6.611  1.0183 -1.8861 -0.2330
  194MOL0     H26147   6.942   0.356   6.723 -1.6714  0.4914 -0.6425
  194MOL0     H26148   7.066   0.179   6.514  1.6577 -2.3449  1.0232
  194MOL0     H26149   7.103   0.169   6.691 -5.3600 -1.7266  0.7717
  194MOL0     H26150   7.252   0.127   6.467 -1.9240  1.9631  3.3121
  194MOL0     H26151   7.341   0.044   6.203  1.3680 -1.4946 -1.3355
  194MOL0     H26152   7.480   0.105   6.150 -1.7542 -3.3049 -1.9327
  194MOL0     H26153   7.492  -0.002   6.294  0.8749 -0.3307 -1.1640
  194MOL0     H26154   7.653   0.375   5.924  1.5448 -3.4362 -1.6239
  194MOL0     H26155   7.840   0.421   5.777  2.1521 -0.8587  0.5385
  194MOL0     H26156   8.071   0.451   5.669  0.3902 -0.4183 -0.1504
  194MOL0     H26157   7.980   0.607   5.691  0.9814 -0.5497 -1.2319
  194MOL0     H26158   8.179   0.661   5.578  2.9011  3.6213  0.9314
  194MOL0     H26159   8.185   0.723   5.752  6.5276 -1.6380  3.4432
  194MOL0     H26160   8.312   0.500   5.795  3.4334  1.2121  1.8818
  194MOL0     H26161   8.407   0.624   5.724  0.4365 -1.0821 -1.2389
  194MOL0     H26162   8.289   0.424   5.554  1.6397  0.8300 -4.3412
  194MOL0     H26163   8.399   0.548   5.500 -1.8750 -1.7440 -1.0843
  194MOL0     H26164   8.460   0.337   5.721 -1.2612 -2.3541 -1.4952
  194MOL0     H26165   8.581   0.448   5.643  0.1391  1.2999 -3.0076
  194MOL0     H26166   8.534   0.332   5.429  2.1913 -1.3101 -1.2731
  194MOL0     H26167   8.652   0.257   5.546  0.1987 -1.8126 -2.5732
  194MOL0     H26168   8.364   0.172   5.568 -0.3549  0.3373  0.4898
  194MOL0     H26169   8.519   0.095   5.605 -0.7722  1.9675  1.4311
  194MOL0     H26170   8.461  -0.008   5.409  1.5023 -0.0442 -1.1809
  194MOL0     H26171   8.575   0.110   5.360 -0.2712 -2.4127 -1.3167
  194MOL0     H26172   8.067   0.603   6.088 -2.8105  3.7877  0.5088
  194MOL0     H26173   7.862   0.595   6.245 -0.1198 -0.2522  0.5992
  194MOL0     H26174   7.519   0.527   6.363  0.9955 -1.2277 -0.6000
  194MOL0     H26175   7.367   0.517   6.561 -1.0483  2.5233 -2.9903
  194MOL0     H26176   7.930   1.142   6.187 -0.9387  1.4375  1.2295
  194MOL0     H26177   8.024   1.165   5.969 -0.6318 -0.0578 -0.2976
  194MOL0     H26178   8.173   1.166   5.658  1.8640  0.1284  0.0251
  194MOL0     H26179   8.293   1.289   5.464 -1.1334  1.5481 -0.8404
  194MOL0     H26180   8.224   1.439   5.257 -3.7911  1.2108 -5.4824
  194MOL0     H26181   8.388   1.361   5.238 -1.1521  1.5306  2.1149
  194MOL0     H26182   8.168   1.417   5.032 -0.1159 -2.5175  1.2630
  194MOL0     H26183   8.325   1.350   4.990 -2.1023 -0.8068 -2.0378
  194MOL0     H26184   8.407   1.580   5.127  2.3778 -2.0843 -2.6100
  194MOL0     H26185   8.239   1.630   5.076  0.9253  0.5798  5.1570
  194MOL0     H26186   8.304   1.560   4.841  0.4830  0.5844 -0.8835
  194MOL0     H26187   8.470   1.519   4.892  1.5127  1.8558 -1.7246
  194MOL0     H26188   8.502   1.934   4.870  1.8137 -1.2705  0.8140
  194MOL0     H26189   8.065   1.053   5.193 -1.2334 -2.7055  2.1235
  194MOL0     H26190   7.942   0.948   5.362  0.4492  0.2006 -1.4878
  195MOL0     O26191   3.434   9.418   3.409  0.4789  0.0533 -0.2256
  195MOL0     C26192   3.470   9.489   3.319  1.0711  0.6566  0.5964
  195MOL0     O26193   3.388   9.546   3.228 -0.6238  0.0371  0.5095
  195MOL0     C26194   3.253   9.530   3.245 -0.2428 -0.2475 -0.6725
  195MOL0     C26195   3.178   9.450   3.160  0.1106 -0.6259  0.4133
  195MOL0     C26196   3.043   9.437   3.181  1.3672 -1.0946 -0.1156
  195MOL0     C26197   2.973   9.508   3.284  0.1981  1.1614  0.4087
  195MOL0     O26198   2.849   9.454   3.311  0.0026 -0.7026 -0.4076
  195MOL0     C26199   2.830   9.365   3.431  0.0680  0.2067  0.5355
  195MOL0     C26200   2.690   9.326   3.423 -0.2332  0.4661 -0.9306
  195MOL0     C26201   2.592   9.441   3.467  0.5222  0.4852  0.8182
  195MOL0     C26202   2.589   9.469   3.614 -0.9528  0.7746 -0.0318
  195MOL0     C26203   2.536   9.604   3.656  0.6558 -0.3974  0.4157
  195MOL0     C26204   2.641   9.713   3.634 -0.6420  0.4721 -0.8822
  195MOL0     C26205   2.593   9.855   3.651  0.2308 -0.1644 -0.3783
  195MOL0     C26206   2.701   9.945   3.597 -0.1935  0.1118  0.4531
  195MOL0     N26207   2.666  10.085   3.605 -0.3380 -0.3184  0.5063
  195MOL0     C26208   2.642  10.160   3.499  0.5280 -0.0035  0.6949
  195MOL0     C26209   2.602  10.280   3.546  0.4517 -0.2237 -0.7215
  195MOL0     C26210   2.594  10.407   3.471  0.3873  0.1500  0.0510
  195MOL0     C26211   2.445  10.454   3.457 -0.5254  0.1965  0.0171
  195MOL0     C26212   2.339  10.419   3.564 -0.6924 -0.4999 -1.2166
  195MOL0     C26213   2.360  10.489   3.695  0.4892 -0.3061  0.4531
  195MOL0     O26214   2.243  10.461   3.769 -1.0229 -0.4170  0.1871
  195MOL0     C26215   2.237  10.343   3.838  1.0058 -0.2551 -1.0378
  195MOL0     C26216   2.347  10.275   3.895  0.1318  0.3143 -0.0172
  195MOL0     C26217   2.340  10.155   3.958 -0.0399  0.5960 -0.7169
  195MOL0     C26218   2.473  10.083   3.995  0.0404 -0.1815  0.4285
  195MOL0     C26219   2.220  10.087   3.981 -0.3176 -0.9021 -0.5876
  195MOL0     C26220   2.196   9.948   4.032  0.4912  0.3709  0.9954
  195MOL0     O26221   2.305   9.864   4.027  0.2761  0.1114 -0.2252
  195MOL0     C26222   2.300   9.769   4.128  0.4188  0.2538 -0.5694
  195MOL0     C26223   2.227   9.653   4.125  0.1296  0.2527  0.9929
  195MOL0     C26224   2.224   9.561   4.229  0.1423  1.0656 -0.8376
  195MOL0     C26225   2.297   9.575   4.351  0.5658 -0.3196  0.2494
  195MOL0     O26226   2.291   9.499   4.467  0.3948  1.2185  0.2587
  195MOL0     C26227   2.225   9.375   4.448 -0.6656  0.8378 -0.4002
  195MOL0     C26228   2.222   9.314   4.590  0.2273 -0.3344 -0.4033
  195MOL0     C26229   2.172   9.171   4.575 -0.8148 -1.0676 -0.0865
  195MOL0     C26230   2.174   9.115   4.732  0.2957 -0.1906  0.9041
  195MOL0     C26231   2.132   8.960   4.740 -0.2091 -0.4183 -0.3084
  195MOL0     C26232   2.135   8.923   4.896  0.3170  0.0141  1.5510
  195MOL0     C26233   2.078   8.785   4.930  0.6775 -0.4231  0.0171
  195MOL0     C26234   2.031   8.777   5.068  0.5067  0.3186 -0.9089
  195MOL0    Cl26235   2.147   8.839   5.192  0.0671 -0.2226  0.0650
  195MOL0     C26236   2.365   9.700   4.361  1.7915 -1.0047 -0.8175
  195MOL0     C26237   2.377   9.782   4.243  0.4931 -1.4691  0.9412
  195MOL0     O26238   2.087   9.924   4.089 -0.3311  0.6927  0.0213
  195MOL0     C26239   2.112  10.162   3.937  0.6127 -0.5977 -0.5849
  195MOL0     C26240   2.113  10.285   3.868  0.7687  1.1240  0.4403
  195MOL0     N26241   2.597  10.266   3.683  0.7663 -0.1579  0.0972
  195MOL0     N26242   2.662  10.160   3.716  0.3095  0.5888  0.2206
  195MOL0     C26243   3.040   9.593   3.364 -0.4995 -0.5970  0.2426
  195MOL0     C26244   3.180   9.610   3.341  0.1027 -1.0052  0.1314
  195MOL0     C26245   3.609   9.534   3.324  0.5255 -0.3162 -0.7742
  195MOL0     C26246   3.647   9.637   3.239 -0.0705  0.2659 -0.4485
  195MOL0     C26247   3.780   9.680   3.242 -0.7167 -0.3849  0.0178
  195MOL0     C26248   3.866   9.640   3.349 -0.2302  0.0872 -0.1985
  195MOL0     O26249   3.995   9.693   3.365 -0.0398  0.6516  0.3043
  195MOL0     C26250   4.083   9.596   3.432  0.8649 -0.4267 -0.9947
  195MOL0     C26251   4.213   9.674   3.454 -0.6282  0.3930 -0.3045
  195MOL0     C26252   4.285   9.740   3.330  0.0096 -0.5921 -0.4673
  195MOL0     C26253   4.382   9.659   3.251  1.0377 -0.5240  0.2421
  195MOL0     C26254   4.496   9.600   3.324  0.2687  0.0151 -0.2034
  195MOL0     C26255   4.600   9.560   3.377  0.5547 -0.0842  0.7234
  195MOL0     C26256   3.811   9.551   3.443 -0.5723  0.0601  0.0901
  195MOL0     C26257   3.688   9.492   3.435  0.3652 -0.0614 -0.0943
  195MOL0     H26258   3.227   9.399   3.078 -0.6758 -3.0721  1.3704
  195MOL0     H26259   2.986   9.361   3.129  2.5520 -5.2313  4.0244
  195MOL0     H26260   2.887   9.272   3.426 -3.5411 -2.1281 -3.3799
  195MOL0     H26261   2.852   9.427   3.519 -0.1916  1.3948 -0.2106
  195MOL0     H26262   2.667   9.281   3.326 -3.5881  0.0297 -0.0458
  195MOL0     H26263   2.675   9.251   3.501 -0.3003  0.8434 -0.5760
  195MOL0     H26264   2.619   9.528   3.407 -2.2084 -0.4139 -2.0429
  195MOL0     H26265   2.495   9.396   3.440  0.9170 -0.3685  0.7962
  195MOL0     H26266   2.525   9.399   3.668  1.4207 -0.0488  1.9088
  195MOL0     H26267   2.692   9.475   3.651 -0.3041 -0.0290 -1.6094
  195MOL0     H26268   2.444   9.630   3.603  0.2587  2.2470  2.2009
  195MOL0     H26269   2.510   9.602   3.763 -0.3296  1.6497  0.2694
  195MOL0     H26270   2.722   9.693   3.705 -1.5944  2.2069  0.7747
  195MOL0     H26271   2.668   9.698   3.529  1.2486 -1.7637 -0.1722
  195MOL0     H26272   2.504   9.868   3.588  0.4441  0.1495 -0.6171
  195MOL0     H26273   2.587   9.872   3.759  4.5041  0.1181 -0.0220
  195MOL0     H26274   2.706   9.935   3.488 -2.0419 -1.6257  0.4707
  195MOL0     H26275   2.799   9.928   3.644  0.5944  2.3562 -0.2570
  195MOL0     H26276   2.663  10.154   3.393 -1.1860 -0.3199  0.3564
  195MOL0     H26277   2.657  10.476   3.528  0.6942 -2.4060  3.0438
  195MOL0     H26278   2.639  10.389   3.372 -0.4726 -2.4195  0.0518
  195MOL0     H26279   2.419  10.425   3.354 -0.5968  0.0830  0.0660
  195MOL0     H26280   2.450  10.563   3.453  3.1171  0.3495  3.5129
  195MOL0     H26281   2.347  10.312   3.586  0.8553 -0.6332 -2.2172
  195MOL0     H26282   2.237  10.431   3.527 -1.8595 -0.3098  1.8071
  195MOL0     H26283   2.348  10.597   3.683 -2.3738 -0.5498  0.2225
  195MOL0     H26284   2.459  10.473   3.738  1.2560  1.1243 -0.6702
  195MOL0     H26285   2.445  10.321   3.890 -0.0446  0.7089  0.0974
  195MOL0     H26286   2.455  10.026   4.086 -3.6009  0.7327  0.4349
  195MOL0     H26287   2.509  10.026   3.909 -0.9275 -0.2791  0.0877
  195MOL0     H26288   2.537  10.170   4.017 -1.0110  0.5904  0.4816
  195MOL0     H26289   2.181   9.648   4.026  1.0815  2.7455  0.3378
  195MOL0     H26290   2.175   9.467   4.208 -1.3994  0.9065  2.7841
  195MOL0     H26291   2.126   9.371   4.401 -1.1672 -2.5447  0.6615
  195MOL0     H26292   2.283   9.313   4.379 -1.3446 -1.1945  0.7661
  195MOL0     H26293   2.319   9.320   4.641  0.7502  0.4517 -1.4578
  195MOL0     H26294   2.148   9.366   4.651  2.4196  2.7625 -0.1247
  195MOL0     H26295   2.244   9.112   4.519  1.8065  2.4092 -0.7271
  195MOL0     H26296   2.072   9.171   4.530 -2.2822 -0.8664  2.9140
  195MOL0     H26297   2.268   9.126   4.786  0.6919 -0.4469  0.2703
  195MOL0     H26298   2.110   9.171   4.801  0.2642 -1.7871  2.2279
  195MOL0     H26299   2.195   8.903   4.671  0.5574  2.0844 -1.8347
  195MOL0     H26300   2.028   8.948   4.709 -0.0851 -1.4962 -0.3383
  195MOL0     H26301   2.239   8.930   4.929  1.1131  0.2273 -0.8205
  195MOL0     H26302   2.080   9.003   4.947  0.0864  2.7045 -2.4919
  195MOL0     H26303   2.158   8.714   4.907 -0.0853 -0.2735 -3.7294
  195MOL0     H26304   1.994   8.760   4.864  1.0407 -0.0590 -0.5938
  195MOL0     H26305   2.019   8.672   5.097 -1.0537  0.2089 -1.8395
  195MOL0     H26306   1.932   8.823   5.073 -0.3050 -1.4352  0.2549
  195MOL0     H26307   2.416   9.729   4.452 -1.3102  0.6305  0.5492
  195MOL0     H26308   2.433   9.875   4.249 -1.7011  0.0269 -0.4672
  195MOL0     H26309   2.007  10.136   3.949  0.5386 -1.7895 -3.2555
  195MOL0     H26310   2.020  10.337   3.849  0.4917 -0.0148 -1.6392
  195MOL0     H26311   2.993   9.648   3.445 -1.0609 -0.7595  0.0311
  195MOL0     H26312   3.237   9.682   3.399 -3.2421  0.6971  1.5701
  195MOL0     H26313   3.582   9.672   3.160 -1.6831  2.5908  1.7736
  195MOL0     H26314   3.810   9.751   3.166 -2.6562  0.6524  0.1577
  195MOL0     H26315   4.054   9.564   3.533  0.3978  2.8590  0.0264
  195MOL0     H26316   4.093   9.511   3.364  2.6264  0.1949 -1.5599
  195MOL0     H26317   4.278   9.602   3.505 -0.9110 -0.2493 -0.8260
  195MOL0     H26318   4.201   9.741   3.539 -1.5859  0.0625 -0.1614
  195MOL0     H26319   4.336   9.827   3.373 -2.0515  0.6444 -0.3995
  195MOL0     H26320   4.216   9.770   3.250  1.7156 -1.6760 -2.4656
  195MOL0     H26321   4.425   9.721   3.171  0.9703  2.6862  2.4904
  195MOL0     H26322   4.325   9.574   3.212 -1.4248  0.0477  2.2951
  195MOL0     H26323   4.685   9.506   3.413 -1.8876 -4.8227  0.1615
  195MOL0     H26324   3.872   9.517   3.527  1.7764 -4.5689 -3.0056
  195MOL0     H26325   3.652   9.428   3.515 -2.7554  3.3858  1.5582
  196MOL0     O26326   4.777   3.222   6.038 -0.1665 -0.3581 -0.5405
  196MOL0     C26327   4.884   3.238   6.100  0.4241 -0.3750  0.0705
  196MOL0     O26328   5.002   3.234   6.043  0.1746  0.3180 -0.3005
  196MOL0     C26329   5.015   3.255   5.906 -0.1388 -0.2829 -0.1257
  196MOL0     C26330   4.955   3.367   5.831 -1.5059  0.8128  0.9448
  196MOL0     C26331   4.965   3.371   5.688  0.3907  0.3163 -0.4296
  196MOL0     C26332   5.031   3.272   5.624  0.5755  0.6659 -0.6529
  196MOL0     O26333   5.058   3.278   5.481  0.2184  0.2571 -0.3597
  196MOL0     C26334   4.940   3.296   5.403  0.2706 -0.1469  0.5950
  196MOL0     C26335   4.984   3.324   5.262  0.6888 -0.4214  0.7041
  196MOL0     C26336   4.862   3.320   5.166 -0.9957  0.1622  0.9570
  196MOL0     C26337   4.897   3.395   5.036  0.7030  0.2980 -0.4848
  196MOL0     C26338   4.786   3.401   4.929  0.3719 -0.5191  0.0671
  196MOL0     C26339   4.750   3.260   4.864 -0.0471  0.7794  1.1874
  196MOL0     C26340   4.866   3.172   4.812 -0.5053 -0.7300  0.3185
  196MOL0     C26341   4.937   3.225   4.696 -0.2660 -0.1444  0.1141
  196MOL0     N26342   4.855   3.227   4.570 -0.4797 -0.1487 -0.2571
  196MOL0     C26343   4.777   3.125   4.517 -0.3098 -0.1489 -0.3238
  196MOL0     C26344   4.704   3.179   4.423 -0.5866 -0.9019  0.3000
  196MOL0     C26345   4.612   3.101   4.343 -0.3440  0.0349  0.3517
  196MOL0     C26346   4.480   3.178   4.306  1.2689  0.2758  0.2289
  196MOL0     C26347   4.416   3.097   4.201  0.2975 -0.4414  0.4803
  196MOL0     C26348   4.354   2.967   4.257 -0.6543 -0.8119  0.2468
  196MOL0     O26349   4.229   2.934   4.185 -0.4005 -0.0526  0.5960
  196MOL0     C26350   4.175   2.802   4.206 -0.1861 -0.2001 -0.1886
  196MOL0     C26351   4.085   2.746   4.108 -0.8284  1.2182  0.5929
  196MOL0     C26352   4.030   2.614   4.118  0.2972 -0.3810 -0.8013
  196MOL0     C26353   3.959   2.568   3.992  0.6290 -0.4187  0.5732
  196MOL0     C26354   4.060   2.528   4.227 -0.4967  0.7647 -0.0049
  196MOL0     C26355   4.023   2.386   4.240  0.0503  0.3186 -0.4376
  196MOL0     O26356   3.913   2.340   4.181 -0.1806  0.3636 -0.3519
  196MOL0     C26357   3.918   2.214   4.124 -0.3211  0.3958 -0.2558
  196MOL0     C26358   3.815   2.190   4.026 -1.0891  0.1864  0.3720
  196MOL0     C26359   3.801   2.062   3.962  0.1123 -0.8213 -0.0676
  196MOL0     C26360   3.871   1.954   4.014 -0.4457 -0.0554 -0.2370
  196MOL0     O26361   3.842   1.822   3.972  0.0894 -0.5279  0.5661
  196MOL0     C26362   3.936   1.764   3.881  0.0421 -0.5644  0.0922
  196MOL0     C26363   3.876   1.647   3.803 -0.1666 -0.5847  0.1850
  196MOL0     C26364   3.968   1.575   3.709  0.5280  0.2007 -0.5837
  196MOL0     C26365   4.086   1.503   3.781 -0.2047  0.4224 -0.0028
  196MOL0     C26366   4.184   1.419   3.693  0.3695 -0.1979  0.1006
  196MOL0     C26367   4.283   1.337   3.779  0.5922 -1.2732 -0.0509
  196MOL0     C26368   4.339   1.210   3.723 -0.2767 -0.4803 -0.0170
  196MOL0     C26369   4.393   1.225   3.579 -0.2721  0.8919  0.5708
  196MOL0    Cl26370   4.490   1.386   3.551 -0.0080  0.1089 -0.2305
  196MOL0     C26371   3.982   1.976   4.104  0.1599  0.1129 -0.2048
  196MOL0     C26372   4.002   2.106   4.157 -0.2757  0.2115  0.3129
  196MOL0     O26373   4.106   2.318   4.297 -1.1287  0.6144 -0.1544
  196MOL0     C26374   4.152   2.587   4.321  0.1569 -0.3513 -0.3272
  196MOL0     C26375   4.202   2.712   4.315  0.6969  0.2429  1.0052
  196MOL0     N26376   4.724   3.312   4.417 -0.0283 -0.1682 -0.0432
  196MOL0     N26377   4.809   3.340   4.513  1.0298 -0.5808 -0.3827
  196MOL0     C26378   5.092   3.166   5.696 -0.9121  0.7473 -0.2591
  196MOL0     C26379   5.076   3.155   5.837  0.2445 -0.1770  0.4589
  196MOL0     C26380   4.865   3.248   6.244  0.3562 -0.1639  0.5700
  196MOL0     C26381   4.749   3.310   6.295  0.5990  0.2364 -0.5526
  196MOL0     C26382   4.737   3.312   6.438 -0.1964  0.3110 -0.4464
  196MOL0     C26383   4.824   3.247   6.526  0.1673 -0.0201 -0.7930
  196MOL0     O26384   4.780   3.257   6.659 -0.2723 -0.3881  0.2763
  196MOL0     C26385   4.864   3.231   6.765  0.2892 -0.6188 -0.5172
  196MOL0     C26386   4.775   3.241   6.888 -0.4240  0.0575 -0.2215
  196MOL0     C26387   4.860   3.283   7.008 -0.4152  0.2848 -0.0825
  196MOL0     C26388   4.781   3.292   7.145 -0.2470  0.1268  0.3451
  196MOL0     C26389   4.697   3.413   7.162  0.3609  0.1896 -0.4544
  196MOL0     C26390   4.616   3.506   7.179 -0.3790  0.2063  0.1710
  196MOL0     C26391   4.931   3.186   6.467  0.2841  0.4598 -0.5772
  196MOL0     C26392   4.953   3.192   6.331 -0.1285  0.4725  0.0455
  196MOL0     H26393   4.885   3.434   5.878 -1.6060  3.3800 -2.4605
  196MOL0     H26394   4.921   3.461   5.646 -0.9105 -0.3649 -0.5515
  196MOL0     H26395   4.873   3.211   5.390 -0.2886  0.7242 -3.5247
  196MOL0     H26396   4.882   3.378   5.445 -0.1257 -0.4519  0.6535
  196MOL0     H26397   5.030   3.423   5.255  0.2226 -0.2216  0.4722
  196MOL0     H26398   5.059   3.244   5.254 -0.7130 -2.1181  2.9715
  196MOL0     H26399   4.833   3.221   5.129  3.0492 -1.8236  2.5745
  196MOL0     H26400   4.777   3.374   5.208  0.2202  4.4299 -1.4162
  196MOL0     H26401   4.920   3.497   5.067  1.3877 -0.8972  3.4257
  196MOL0     H26402   4.995   3.356   5.005 -0.1132 -1.9215 -0.4793
  196MOL0     H26403   4.692   3.445   4.963  0.3913 -0.0773 -0.4424
  196MOL0     H26404   4.832   3.453   4.844  4.0739  0.5003  2.4405
  196MOL0     H26405   4.697   3.193   4.932 -2.4769  0.3390 -1.0300
  196MOL0     H26406   4.686   3.273   4.777  0.7118  0.8288  0.6289
  196MOL0     H26407   4.934   3.141   4.892  0.3148 -0.7833 -0.3852
  196MOL0     H26408   4.824   3.076   4.781  1.9154 -1.5037 -0.8271
  196MOL0     H26409   5.029   3.168   4.674 -0.1215 -0.4275  1.3822
  196MOL0     H26410   4.964   3.329   4.716 -2.9673  0.2925  1.8209
  196MOL0     H26411   4.767   3.025   4.559 -1.5873  2.0685  5.4763
  196MOL0     H26412   4.669   3.050   4.266  0.0439  0.3310  0.4361
  196MOL0     H26413   4.581   3.016   4.404 -0.5696  0.6616  1.1285
  196MOL0     H26414   4.503   3.279   4.269  1.8593  0.4296  0.9985
  196MOL0     H26415   4.432   3.177   4.404  0.9671 -1.5724  0.0935
  196MOL0     H26416   4.494   3.082   4.125 -0.5389  0.9764 -0.7158
  196MOL0     H26417   4.337   3.156   4.154  2.6398  1.4468 -1.3506
  196MOL0     H26418   4.328   2.987   4.362 -0.0043 -0.9722  0.4447
  196MOL0     H26419   4.425   2.884   4.256 -0.7075 -0.8555  0.0994
  196MOL0     H26420   4.074   2.812   4.023  2.4207  0.3418 -0.6848
  196MOL0     H26421   3.981   2.630   3.905 -3.0891  0.4353  0.0596
  196MOL0     H26422   3.981   2.464   3.969  1.4023  0.3434 -2.5753
  196MOL0     H26423   3.850   2.579   4.002  0.5159 -0.4591 -0.4888
  196MOL0     H26424   3.755   2.269   3.980 -0.7651  1.2620  1.7349
  196MOL0     H26425   3.710   2.042   3.906 -0.1102  0.5786 -0.2293
  196MOL0     H26426   3.969   1.844   3.814  0.8751 -0.3381  0.7570
  196MOL0     H26427   4.019   1.724   3.941  1.0965  3.0757  1.3735
  196MOL0     H26428   3.824   1.576   3.869  0.0273  1.7817  3.0908
  196MOL0     H26429   3.801   1.687   3.734 -1.2166  0.3193  1.7841
  196MOL0     H26430   4.004   1.658   3.648  0.2861 -0.1018 -1.1419
  196MOL0     H26431   3.917   1.494   3.657 -2.0165  0.6423  1.0530
  196MOL0     H26432   4.145   1.579   3.833  0.3954 -1.3714  2.1201
  196MOL0     H26433   4.045   1.440   3.860 -1.6791  2.5459  1.0176
  196MOL0     H26434   4.245   1.477   3.622  2.6386 -2.1342  0.3569
  196MOL0     H26435   4.128   1.347   3.633  2.6906 -1.7125 -0.3470
  196MOL0     H26436   4.363   1.405   3.809  0.5238 -1.2724  0.1350
  196MOL0     H26437   4.222   1.314   3.867  0.3852  2.0196  0.8252
  196MOL0     H26438   4.265   1.129   3.722 -1.7242  0.7202  2.3295
  196MOL0     H26439   4.423   1.186   3.789 -0.3612  3.5551  1.8160
  196MOL0     H26440   4.309   1.231   3.509  0.8171  2.4424 -0.6755
  196MOL0     H26441   4.451   1.135   3.556  0.4916  1.0211  1.9293
  196MOL0     H26442   4.042   1.894   4.143  5.2503  3.0000 -1.0721
  196MOL0     H26443   4.091   2.116   4.218  0.6979 -3.0491 -0.3544
  196MOL0     H26444   4.197   2.515   4.389  0.0713 -1.5703 -1.5198
  196MOL0     H26445   4.265   2.750   4.394  1.8002 -1.0172  0.7794
  196MOL0     H26446   5.136   3.078   5.651 -3.0771 -1.6203  1.9010
  196MOL0     H26447   5.133   3.079   5.891 -1.9072  0.1995  3.5460
  196MOL0     H26448   4.666   3.349   6.236 -0.0970 -1.0406 -0.4597
  196MOL0     H26449   4.653   3.353   6.494  3.3382  0.0076  6.0440
  196MOL0     H26450   4.908   3.131   6.759  1.9065  0.1082 -1.4504
  196MOL0     H26451   4.953   3.293   6.778 -1.4944  1.9758  0.0565
  196MOL0     H26452   4.714   3.153   6.909 -0.9786  1.1216  3.4163
  196MOL0     H26453   4.701   3.321   6.873 -0.2050 -0.1930 -3.1170
  196MOL0     H26454   4.918   3.375   6.998  0.0262  0.2184  1.5428
  196MOL0     H26455   4.942   3.212   7.017 -0.3483  0.1224 -1.6090
  196MOL0     H26456   4.842   3.280   7.235 -0.2085  2.2847  0.6658
  196MOL0     H26457   4.718   3.203   7.153 -0.8478  0.6454  1.7432
  196MOL0     H26458   4.549   3.586   7.206 -1.2295 -0.4641  0.0776
  196MOL0     H26459   4.996   3.142   6.542 -1.8055  1.0172  1.6855
  196MOL0     H26460   5.049   3.157   6.292 -2.2453 -1.1407 -4.4080
  197MOL0     O26461   7.272   4.249   8.936 -0.5193  0.5220 -0.0267
  197MOL0     C26462   7.231   4.157   9.011 -0.8536  0.6156  0.4913
  197MOL0     O26463   7.120   4.085   8.984  0.6237 -0.1861  0.0854
  197MOL0     C26464   7.024   4.136   8.900  0.3032  0.8371 -0.3992
  197MOL0     C26465   6.977   4.262   8.906 -0.3067 -0.6786 -1.2588
  197MOL0     C26466   6.887   4.314   8.820  0.3863  0.3037 -0.3976
  197MOL0     C26467   6.836   4.240   8.716  0.0472  0.8412  0.0197
  197MOL0     O26468   6.742   4.294   8.636  0.1328  0.5144 -0.1816
  197MOL0     C26469   6.644   4.387   8.682 -0.8120  0.4002 -0.1670
  197MOL0     C26470   6.528   4.286   8.701  0.0868 -0.1497  0.7594
  197MOL0     C26471   6.393   4.354   8.700 -0.4523  0.2443  0.4411
  197MOL0     C26472   6.358   4.420   8.555  0.5806  0.2873  0.1559
  197MOL0     C26473   6.222   4.488   8.539  0.3231 -0.7214 -0.4378
  197MOL0     C26474   6.203   4.560   8.413 -0.2564  0.0638 -0.0476
  197MOL0     C26475   6.053   4.585   8.393 -0.6762  0.3266 -0.4717
  197MOL0     C26476   6.012   4.621   8.241 -0.4407 -0.3170  0.2294
  197MOL0     N26477   6.064   4.516   8.149  0.5159 -0.2622  0.7072
  197MOL0     C26478   6.153   4.535   8.048  1.0158 -0.1691 -0.3796
  197MOL0     C26479   6.191   4.411   8.019 -0.1692 -0.2307  1.0029
  197MOL0     C26480   6.303   4.366   7.926 -0.3745 -0.0446  0.4004
  197MOL0     C26481   6.268   4.318   7.786  0.0560 -0.7748 -0.1014
  197MOL0     C26482   6.150   4.391   7.731  0.4362  0.4834 -0.4751
  197MOL0     C26483   6.152   4.387   7.569 -0.3351  0.3758  1.2037
  197MOL0     O26484   6.025   4.377   7.514 -0.1791  0.5722 -0.8978
  197MOL0     C26485   5.948   4.271   7.542  0.7045 -0.0442  0.2878
  197MOL0     C26486   6.001   4.149   7.594  0.1699  0.7792 -0.0520
  197MOL0     C26487   5.909   4.043   7.631  0.6740 -0.4999  0.1695
  197MOL0     C26488   5.967   3.911   7.689 -0.8264  0.0944  0.0688
  197MOL0     C26489   5.769   4.061   7.621  0.1245  0.5959 -0.5979
  197MOL0     C26490   5.679   3.956   7.670 -0.0826 -0.4460 -0.1744
  197MOL0     O26491   5.572   4.011   7.730  0.1480 -0.6265 -0.2871
  197MOL0     C26492   5.459   3.931   7.740 -0.8626 -0.2712  0.0788
  197MOL0     C26493   5.365   3.934   7.634  0.8592 -0.4022 -1.1470
  197MOL0     C26494   5.270   3.833   7.631  0.7496  0.9413 -0.8367
  197MOL0     C26495   5.256   3.731   7.733 -0.5203  0.4077  0.9354
  197MOL0     O26496   5.156   3.641   7.713 -0.5528  0.0276  0.6122
  197MOL0     C26497   5.106   3.577   7.831 -0.3768 -0.3991  0.2490
  197MOL0     C26498   4.954   3.550   7.806 -0.2888  0.7148 -0.4247
  197MOL0     C26499   4.927   3.455   7.686 -0.3781  0.5071 -0.6283
  197MOL0     C26500   4.775   3.447   7.671 -0.8020  0.3723  0.3380
  197MOL0     C26501   4.714   3.340   7.571 -0.5398 -0.6774  0.0289
  197MOL0     C26502   4.767   3.191   7.578  0.2423  0.6325 -0.5485
  197MOL0     C26503   4.672   3.108   7.656 -0.3123 -0.0221 -0.9407
  197MOL0     C26504   4.752   2.989   7.690 -0.6743 -0.0675  0.1205
  197MOL0    Cl26505   4.652   2.870   7.787  0.0225  0.0340  0.5083
  197MOL0     C26506   5.343   3.736   7.843 -0.7519 -0.2817  0.1138
  197MOL0     C26507   5.446   3.834   7.844  0.3742  0.3718 -0.1754
  197MOL0     O26508   5.696   3.836   7.645  0.8744 -0.7232  0.9790
  197MOL0     C26509   5.722   4.191   7.585 -0.8158 -0.0926 -0.1835
  197MOL0     C26510   5.806   4.291   7.542  0.0957 -0.4842  0.9581
  197MOL0     N26511   6.126   4.313   8.094 -0.2831  0.0753 -0.2270
  197MOL0     N26512   6.042   4.385   8.166 -0.3698 -0.1816  0.4042
  197MOL0     C26513   6.875   4.110   8.705 -1.0782  1.0164 -0.6817
  197MOL0     C26514   6.968   4.056   8.794  0.7799  0.0963 -0.7381
  197MOL0     C26515   7.306   4.140   9.129 -0.3171 -0.0414 -0.7314
  197MOL0     C26516   7.272   4.057   9.241  0.2436 -0.1775  0.9990
  197MOL0     C26517   7.355   4.045   9.350 -0.8722 -0.5026 -0.3089
  197MOL0     C26518   7.480   4.115   9.359 -0.5645  0.9443 -0.1678
  197MOL0     O26519   7.558   4.082   9.465 -0.0501 -0.3230 -0.3723
  197MOL0     C26520   7.677   4.156   9.482 -0.2986  0.4065 -0.8343
  197MOL0     C26521   7.731   4.142   9.628  0.0293 -1.1930  0.7628
  197MOL0     C26522   7.645   4.215   9.737  0.1429 -0.5823 -0.6681
  197MOL0     C26523   7.670   4.152   9.878 -0.6495 -0.6682 -0.2019
  197MOL0     C26524   7.808   4.156   9.924  0.3753 -0.8070 -0.5924
  197MOL0     C26525   7.917   4.155   9.967  0.2081  0.2665 -0.4892
  197MOL0     C26526   7.518   4.196   9.251 -0.0990 -0.6530  0.0002
  197MOL0     C26527   7.436   4.202   9.137 -0.2306 -0.2941  0.4147
  197MOL0     H26528   7.000   4.320   8.996  1.7094 -0.7451 -1.6776
  197MOL0     H26529   6.857   4.418   8.822  3.5656  1.3435 -1.7329
  197MOL0     H26530   6.667   4.432   8.780 -0.5410  1.4467 -0.6995
  197MOL0     H26531   6.629   4.464   8.606  0.1653  1.7444  0.9304
  197MOL0     H26532   6.521   4.222   8.612 -0.3550  2.2000 -1.0091
  197MOL0     H26533   6.527   4.235   8.798  2.0694 -0.1506  0.8066
  197MOL0     H26534   6.324   4.274   8.726 -0.1455 -1.0659 -2.4821
  197MOL0     H26535   6.392   4.437   8.773  3.0858  2.5341 -1.8084
  197MOL0     H26536   6.435   4.492   8.526  0.9492  0.3868  1.3413
  197MOL0     H26537   6.356   4.342   8.478  0.5621  3.6011 -3.4767
  197MOL0     H26538   6.146   4.412   8.555  1.2717 -1.9004 -1.3106
  197MOL0     H26539   6.209   4.568   8.612  1.7547 -0.2872 -0.6214
  197MOL0     H26540   6.243   4.661   8.429 -2.5783  0.8718  1.0438
  197MOL0     H26541   6.261   4.513   8.332 -1.0708 -1.2941  0.1452
  197MOL0     H26542   6.004   4.487   8.400  2.6118 -1.6355 -2.4006
  197MOL0     H26543   6.010   4.656   8.464  2.5618  1.8100  0.1727
  197MOL0     H26544   6.047   4.722   8.218  0.3420 -0.3556  1.2102
  197MOL0     H26545   5.904   4.632   8.224 -0.0299  1.2198 -1.7292
  197MOL0     H26546   6.206   4.628   8.025  0.3404  0.5228  0.8113
  197MOL0     H26547   6.382   4.442   7.924  0.4433 -0.8738 -0.4734
  197MOL0     H26548   6.348   4.271   7.957  1.0887  0.0185 -1.2946
  197MOL0     H26549   6.252   4.210   7.788  0.7323 -0.8745  0.2794
  197MOL0     H26550   6.341   4.344   7.709  1.9628  0.4334  2.0085
  197MOL0     H26551   6.148   4.493   7.770 -2.1881 -0.4946  2.2809
  197MOL0     H26552   6.061   4.345   7.775  1.2325  1.4795  2.3865
  197MOL0     H26553   6.215   4.303   7.539 -2.8324 -1.3274  0.4000
  197MOL0     H26554   6.202   4.478   7.535 -2.5629  2.1922  2.4705
  197MOL0     H26555   6.106   4.127   7.613  0.6439  1.3195 -1.8346
  197MOL0     H26556   6.049   3.933   7.757 -3.0219 -2.6151  4.0033
  197MOL0     H26557   5.906   3.882   7.775 -0.5325 -1.0901 -0.1119
  197MOL0     H26558   5.984   3.839   7.609 -0.5090  1.1041 -0.7989
  197MOL0     H26559   5.365   4.009   7.556  2.7506 -0.2369 -1.0161
  197MOL0     H26560   5.199   3.814   7.552 -0.1184 -0.0747  0.1516
  197MOL0     H26561   5.157   3.483   7.851 -1.8868 -0.9908  1.4667
  197MOL0     H26562   5.110   3.631   7.926 -3.4550 -3.1424  2.1594
  197MOL0     H26563   4.921   3.497   7.896 -2.0329 -0.2846 -1.5900
  197MOL0     H26564   4.899   3.642   7.785 -0.6620  1.0745  1.9217
  197MOL0     H26565   4.967   3.357   7.713 -0.1691  0.0293 -2.5445
  197MOL0     H26566   4.989   3.493   7.604  1.1029 -0.4070  0.0138
  197MOL0     H26567   4.735   3.420   7.770  1.2939 -1.9822  0.6276
  197MOL0     H26568   4.734   3.543   7.636 -0.2728  0.1728 -0.8627
  197MOL0     H26569   4.751   3.379   7.475  0.7686  0.1426  0.8389
  197MOL0     H26570   4.605   3.345   7.564 -0.4160 -0.2687 -4.0019
  197MOL0     H26571   4.765   3.151   7.476 -3.6561 -0.7752 -0.0898
  197MOL0     H26572   4.869   3.180   7.615 -0.9510  0.1291  3.0266
  197MOL0     H26573   4.585   3.092   7.591 -1.1257  2.7879 -0.6665
  197MOL0     H26574   4.622   3.149   7.744  0.9575  0.1441 -0.2669
  197MOL0     H26575   4.846   3.011   7.741 -0.5896  0.1042 -0.1082
  197MOL0     H26576   4.777   2.934   7.598 -2.1819  1.4104 -1.2451
  197MOL0     H26577   5.341   3.662   7.922  1.2569  0.0906  0.5645
  197MOL0     H26578   5.531   3.819   7.910  0.4465 -0.5283 -0.4481
  197MOL0     H26579   5.620   4.219   7.607 -1.9942 -4.5574  1.2287
  197MOL0     H26580   5.765   4.390   7.522 -0.3849 -0.6945  0.9075
  197MOL0     H26581   6.835   4.047   8.626 -1.7235  2.6119 -1.6836
  197MOL0     H26582   6.999   3.952   8.789  1.2158 -0.2951  4.5745
  197MOL0     H26583   7.176   4.008   9.230 -1.6067  3.5285 -1.9442
  197MOL0     H26584   7.321   3.981   9.431 -0.9374 -2.3205 -1.7244
  197MOL0     H26585   7.754   4.105   9.422  2.3002  1.8907  1.0462
  197MOL0     H26586   7.666   4.261   9.455 -2.3407  0.1339 -1.2508
  197MOL0     H26587   7.833   4.175   9.649  0.6494 -4.0992  3.1175
  197MOL0     H26588   7.749   4.038   9.659  1.7288  0.1045  4.8664
  197MOL0     H26589   7.538   4.207   9.721 -0.5317  3.1723  0.9717
  197MOL0     H26590   7.679   4.319   9.739  2.8782 -1.3408 -1.8839
  197MOL0     H26591   7.631   4.050   9.881  0.2561 -1.0357 -0.6236
  197MOL0     H26592   7.618   4.209   9.955  1.1444  1.1480 -0.2495
  197MOL0     H26593   8.013   4.142  10.013 -0.4894 -0.0078  0.9347
  197MOL0     H26594   7.618   4.238   9.242  0.5440 -2.0901  0.3014
  197MOL0     H26595   7.486   4.250   9.054 -1.4583  0.1826 -0.0747
  198MOL0     O26596   4.882   3.956   4.273 -0.0316 -1.0860  0.0036
  198MOL0     C26597   4.921   3.987   4.391 -0.0235 -0.5357 -0.1957
  198MOL0     O26598   4.924   4.120   4.430 -0.2842 -0.2457  0.3749
  198MOL0     C26599   4.849   4.214   4.360  0.2070 -0.2889 -0.2732
  198MOL0     C26600   4.900   4.347   4.364  0.4505  0.4275  0.3656
  198MOL0     C26601   4.841   4.438   4.284 -0.2786 -0.1859 -0.1309
  198MOL0     C26602   4.730   4.411   4.199  0.4003  0.6592  0.2790
  198MOL0     O26603   4.684   4.509   4.112  0.3298  0.3065  0.0403
  198MOL0     C26604   4.732   4.494   3.982 -0.0415  0.3326  0.7783
  198MOL0     C26605   4.674   4.614   3.893 -0.8766  0.0661  0.7722
  198MOL0     C26606   4.742   4.616   3.762  0.3880 -0.2493 -0.2469
  198MOL0     C26607   4.682   4.720   3.675  0.6377  0.7901 -0.1670
  198MOL0     C26608   4.741   4.716   3.534  0.9534  1.1918 -0.2509
  198MOL0     C26609   4.897   4.746   3.535  0.6682 -0.2619  0.3442
  198MOL0     C26610   4.945   4.875   3.596 -0.3129  0.6603 -0.0865
  198MOL0     C26611   5.095   4.882   3.581  0.1096 -0.0532 -0.1972
  198MOL0     N26612   5.144   4.998   3.653 -0.1522  0.6443 -0.5013
  198MOL0     C26613   5.228   4.994   3.770  0.4357  0.8099  0.1749
  198MOL0     C26614   5.253   5.125   3.802 -0.5922 -0.0555  0.4689
  198MOL0     C26615   5.348   5.183   3.904 -0.1863 -0.9299 -0.2152
  198MOL0     C26616   5.286   5.279   3.996 -0.2994  0.4687  0.5479
  198MOL0     C26617   5.184   5.198   4.083 -0.3960  0.9103  0.1062
  198MOL0     C26618   5.111   5.260   4.196 -0.7988  0.2761 -0.4103
  198MOL0     O26619   5.173   5.374   4.259  0.5333 -0.3793 -0.0060
  198MOL0     C26620   5.238   5.358   4.381  0.1876  1.9339  0.3934
  198MOL0     C26621   5.189   5.430   4.488 -0.3229  0.4881  0.2382
  198MOL0     C26622   5.256   5.417   4.612  0.1050 -0.0626  1.1025
  198MOL0     C26623   5.196   5.502   4.718  0.6977  0.0957 -1.1890
  198MOL0     C26624   5.371   5.332   4.623  0.2019  1.0707 -0.1231
  198MOL0     C26625   5.455   5.311   4.740  0.4421 -0.0944 -0.5087
  198MOL0     O26626   5.504   5.179   4.756 -0.2394  0.0873 -0.4035
  198MOL0     C26627   5.601   5.155   4.863  0.5940  0.8710  0.5138
  198MOL0     C26628   5.580   5.068   4.965  0.4002 -0.3232  0.2106
  198MOL0     C26629   5.678   5.052   5.065  0.1741  0.3893 -0.4885
  198MOL0     C26630   5.797   5.125   5.064 -0.5051 -0.2128 -0.4951
  198MOL0     O26631   5.883   5.101   5.167  0.3662 -0.5623 -0.3522
  198MOL0     C26632   5.984   5.204   5.204  0.7265  0.5104 -0.2142
  198MOL0     C26633   5.930   5.315   5.279 -0.3972 -0.1708 -0.2007
  198MOL0     C26634   6.007   5.439   5.245 -0.6318 -0.2325 -0.6990
  198MOL0     C26635   6.005   5.539   5.364 -0.8431 -0.2841  1.2414
  198MOL0     C26636   6.082   5.673   5.335 -0.1733  0.6677 -0.1440
  198MOL0     C26637   6.096   5.757   5.465  0.9557 -0.4072  0.4530
  198MOL0     C26638   6.162   5.893   5.429 -0.4055 -0.5882  0.3028
  198MOL0     C26639   6.229   5.958   5.546  0.6527  0.9334  0.1360
  198MOL0    Cl26640   6.372   5.859   5.602 -0.0264 -0.0645  0.2397
  198MOL0     C26641   5.825   5.203   4.948 -0.0500  0.5007  0.3707
  198MOL0     C26642   5.727   5.218   4.855  0.6871  0.3090  0.1250
  198MOL0     O26643   5.467   5.397   4.830  0.0126 -0.0665  0.3479
  198MOL0     C26644   5.400   5.239   4.507  0.6363 -0.0366 -0.1134
  198MOL0     C26645   5.341   5.266   4.387 -0.0759  0.9572 -0.6899
  198MOL0     N26646   5.184   5.205   3.711 -0.7681 -0.4330  0.5439
  198MOL0     N26647   5.118   5.127   3.628 -0.1181  0.1067  0.5750
  198MOL0     C26648   4.672   4.280   4.203  0.0712 -0.2576  0.9801
  198MOL0     C26649   4.730   4.185   4.289 -0.5716  0.1478  0.0337
  198MOL0     C26650   4.964   3.885   4.486  0.4166 -0.2054 -0.0913
  198MOL0     C26651   5.020   3.916   4.611  0.0129 -0.3219 -0.7913
  198MOL0     C26652   5.081   3.819   4.685  0.0719 -0.3981  0.4498
  198MOL0     C26653   5.070   3.682   4.646 -0.2229  0.7732  0.2131
  198MOL0     O26654   5.119   3.583   4.724 -0.0312  0.1184  0.1145
  198MOL0     C26655   5.216   3.609   4.830  0.6018  0.8160  0.2746
  198MOL0     C26656   5.261   3.490   4.906  0.8186 -0.3479 -0.6723
  198MOL0     C26657   5.259   3.525   5.064  0.4684  1.0593  0.7412
  198MOL0     C26658   5.374   3.613   5.098 -0.4043  0.4931 -0.0086
  198MOL0     C26659   5.373   3.640   5.241 -0.7084 -0.1404  0.5362
  198MOL0     C26660   5.361   3.659   5.352 -0.3574  0.3678 -0.1311
  198MOL0     C26661   5.000   3.648   4.530 -0.8252  0.1834 -0.4399
  198MOL0     C26662   4.949   3.752   4.454  0.6318 -0.3764 -0.3913
  198MOL0     H26663   4.986   4.364   4.428 -0.6241 -0.5010  2.1629
  198MOL0     H26664   4.885   4.537   4.285 -2.2324  0.7287  0.8846
  198MOL0     H26665   4.841   4.496   3.988 -0.0802  0.2836  1.5496
  198MOL0     H26666   4.693   4.403   3.935 -1.7769  0.2481  2.2685
  198MOL0     H26667   4.565   4.602   3.889 -0.8875 -2.3462  3.9444
  198MOL0     H26668   4.699   4.702   3.953 -0.1513 -0.6434  1.5447
  198MOL0     H26669   4.849   4.639   3.770  0.7005 -1.7223 -0.0360
  198MOL0     H26670   4.725   4.523   3.707  0.7302  1.2798 -3.1566
  198MOL0     H26671   4.576   4.693   3.668  0.8681  0.0960 -1.1332
  198MOL0     H26672   4.691   4.819   3.720  0.1552  0.6450  0.2584
  198MOL0     H26673   4.720   4.617   3.491 -1.3878  2.2023 -1.6968
  198MOL0     H26674   4.683   4.775   3.462  0.1812  0.8813  0.1039
  198MOL0     H26675   4.951   4.665   3.585  0.6414 -1.3855 -1.3883
  198MOL0     H26676   4.926   4.734   3.430  0.2892  2.2250 -0.1181
  198MOL0     H26677   4.894   4.965   3.561 -2.5058 -0.8044 -0.8275
  198MOL0     H26678   4.933   4.869   3.705  1.1089  2.9189  0.2756
  198MOL0     H26679   5.124   4.880   3.476  0.5246 -3.4309 -0.1168
  198MOL0     H26680   5.143   4.792   3.620 -0.6046 -0.3198  0.0828
  198MOL0     H26681   5.272   4.902   3.805 -0.9931 -0.4648 -1.2006
  198MOL0     H26682   5.398   5.112   3.970  2.8573  3.4420  2.6757
  198MOL0     H26683   5.418   5.244   3.847 -1.4615  0.6402 -0.1548
  198MOL0     H26684   5.245   5.363   3.939  1.5524  1.3118  0.3721
  198MOL0     H26685   5.372   5.324   4.046 -0.6811 -0.2262  1.8567
  198MOL0     H26686   5.245   5.132   4.146  1.5996  1.1565 -1.4685
  198MOL0     H26687   5.111   5.152   4.016  1.6913 -3.1429  0.3527
  198MOL0     H26688   5.074   5.183   4.264  1.3012  0.2963  0.8341
  198MOL0     H26689   5.023   5.298   4.143  0.2934  1.1678 -1.6521
  198MOL0     H26690   5.106   5.497   4.470 -0.8442 -0.8511 -3.0125
  198MOL0     H26691   5.248   5.494   4.814 -0.9729  0.7097 -0.2029
  198MOL0     H26692   5.208   5.608   4.695 -0.9430  0.8544  1.1458
  198MOL0     H26693   5.091   5.481   4.739  0.9914  1.1897  1.8736
  198MOL0     H26694   5.482   5.020   4.957  0.9396 -1.2753 -1.1610
  198MOL0     H26695   5.654   4.996   5.154  0.4033 -0.0565 -0.7030
  198MOL0     H26696   6.055   5.149   5.265  0.1098 -1.2143 -0.9874
  198MOL0     H26697   6.025   5.246   5.111  0.7529 -1.5396 -1.1950
  198MOL0     H26698   5.824   5.324   5.252 -1.9515 -3.3485  3.6958
  198MOL0     H26699   5.930   5.288   5.385  1.2909  1.0485  0.1415
  198MOL0     H26700   5.971   5.468   5.146 -2.0901 -3.3506 -1.2232
  198MOL0     H26701   6.111   5.415   5.223 -0.4176 -0.2163  0.2493
  198MOL0     H26702   5.902   5.573   5.373 -1.1158 -0.4082 -0.8885
  198MOL0     H26703   6.038   5.487   5.454 -1.6747 -0.2918  1.5492
  198MOL0     H26704   6.037   5.724   5.249  0.8192 -2.0867 -2.4524
  198MOL0     H26705   6.182   5.638   5.309 -0.5315  0.7998 -1.8299
  198MOL0     H26706   5.994   5.772   5.501  0.0274 -2.8109 -0.9337
  198MOL0     H26707   6.153   5.701   5.540 -1.1415 -1.8278  1.0617
  198MOL0     H26708   6.082   5.957   5.390 -2.0355 -1.0078  2.7711
  198MOL0     H26709   6.234   5.889   5.347 -3.3566  1.2993 -2.6502
  198MOL0     H26710   6.173   5.978   5.638  1.6601 -1.7060  1.4177
  198MOL0     H26711   6.253   6.058   5.508 -1.0625  1.4031  0.2019
  198MOL0     H26712   5.914   5.264   4.937  0.5096 -0.4292 -0.3930
  198MOL0     H26713   5.746   5.281   4.769 -0.2323 -2.2504 -2.0898
  198MOL0     H26714   5.473   5.158   4.514 -0.2638 -0.9303 -0.6524
  198MOL0     H26715   5.368   5.217   4.294  2.2411  2.1983 -0.7402
  198MOL0     H26716   4.585   4.247   4.147 -1.9054  1.7352  2.6872
  198MOL0     H26717   4.683   4.088   4.302 -1.1714  0.7164  2.9200
  198MOL0     H26718   5.045   4.016   4.644  1.4244 -0.7308 -0.5462
  198MOL0     H26719   5.122   3.843   4.783 -0.2132  1.0228  0.2377
  198MOL0     H26720   5.307   3.656   4.791 -0.5372  3.2703  0.3928
  198MOL0     H26721   5.172   3.677   4.904  0.6178  0.3875  0.6879
  198MOL0     H26722   5.363   3.459   4.882  1.3562 -0.6269  1.7675
  198MOL0     H26723   5.185   3.414   4.884 -0.7171  1.3756 -1.5834
  198MOL0     H26724   5.274   3.436   5.126  1.5670  0.0944 -0.8375
  198MOL0     H26725   5.161   3.566   5.092  1.0301  3.1232 -0.0908
  198MOL0     H26726   5.365   3.708   5.045 -0.8102  0.5861  0.2241
  198MOL0     H26727   5.465   3.559   5.072  1.9419  4.2504 -0.3089
  198MOL0     H26728   5.379   3.680   5.456 -2.2563 -5.0591  1.6140
  198MOL0     H26729   5.007   3.545   4.497  3.6572 -0.2142  0.9983
  198MOL0     H26730   4.906   3.721   4.359 -0.2534  1.0834 -0.5060
  199MOL0     O26731   2.731   7.392   7.458 -0.5058 -0.2198  0.0636
  199MOL0     C26732   2.680   7.323   7.543  0.0481 -0.2678 -0.5745
  199MOL0     O26733   2.556   7.262   7.539  0.3682  0.2063 -0.0747
  199MOL0     C26734   2.474   7.261   7.428 -0.3203 -0.4746 -0.1395
  199MOL0     C26735   2.358   7.192   7.451  0.5038  0.2764  0.3093
  199MOL0     C26736   2.257   7.193   7.351 -0.4386  0.0860 -0.0416
  199MOL0     C26737   2.276   7.247   7.230  0.7393  0.8334 -0.2014
  199MOL0     O26738   2.180   7.221   7.136 -0.0557 -0.4238  0.0564
  199MOL0     C26739   2.200   7.241   6.998  0.0560  0.2764 -0.2730
  199MOL0     C26740   2.079   7.206   6.920  0.6863  0.0663  0.5973
  199MOL0     C26741   1.946   7.256   6.974  0.6094 -0.2999 -0.8919
  199MOL0     C26742   1.879   7.147   7.066  0.0105  0.2362  0.4152
  199MOL0     C26743   1.746   7.175   7.129 -0.4369 -0.3779  0.1628
  199MOL0     C26744   1.662   7.051   7.162 -1.0023 -0.5782  0.4166
  199MOL0     C26745   1.523   7.083   7.215  0.1572 -0.6213 -0.3528
  199MOL0     C26746   1.407   6.984   7.186  0.0197  1.0089  0.4561
  199MOL0     N26747   1.389   6.970   7.035  0.6832  1.1436 -0.2306
  199MOL0     C26748   1.387   7.078   6.945 -0.1178 -0.5021 -0.7752
  199MOL0     C26749   1.365   7.022   6.828  0.1119 -0.9433 -0.6215
  199MOL0     C26750   1.351   7.111   6.708 -0.3308 -0.3714 -0.6019
  199MOL0     C26751   1.472   7.187   6.675 -0.6802 -0.8000 -0.7263
  199MOL0     C26752   1.451   7.261   6.541 -0.3181  0.3719  0.3967
  199MOL0     C26753   1.534   7.387   6.545 -1.1543 -0.2941  0.7471
  199MOL0     O26754   1.499   7.471   6.428  0.0188  0.6258 -0.3370
  199MOL0     C26755   1.552   7.589   6.411 -0.2646 -1.6128 -0.2950
  199MOL0     C26756   1.498   7.665   6.309 -0.0717  0.4657 -0.5911
  199MOL0     C26757   1.553   7.782   6.262  0.4714 -0.4366  0.2271
  199MOL0     C26758   1.486   7.846   6.138 -0.5664 -0.1764  0.0475
  199MOL0     C26759   1.675   7.832   6.333 -1.1114 -0.2159  0.2496
  199MOL0     C26760   1.753   7.954   6.278  0.4084 -0.1732  0.1283
  199MOL0     O26761   1.825   8.028   6.369 -0.4853  0.8569  0.3869
  199MOL0     C26762   1.901   8.130   6.319 -0.6816 -0.7614 -0.6999
  199MOL0     C26763   1.848   8.246   6.282  0.0337 -0.6513 -0.6967
  199MOL0     C26764   1.921   8.338   6.206 -1.6150  0.1495 -0.3903
  199MOL0     C26765   2.058   8.311   6.166  0.4116 -0.2540  0.3288
  199MOL0     O26766   2.116   8.404   6.078 -0.5870  0.0567  0.0950
  199MOL0     C26767   2.261   8.420   6.102  0.2512  0.3028 -0.0395
  199MOL0     C26768   2.326   8.351   5.977  0.8701  0.1989 -0.4730
  199MOL0     C26769   2.461   8.417   5.945 -0.5391 -0.1758  0.8788
  199MOL0     C26770   2.509   8.371   5.809  0.4570 -0.6145  0.5589
  199MOL0     C26771   2.539   8.216   5.806  0.7635 -0.1350  0.7367
  199MOL0     C26772   2.669   8.176   5.717 -0.6379  0.2465 -0.6687
  199MOL0     C26773   2.635   8.197   5.567  0.0224  0.3059 -0.3123
  199MOL0     C26774   2.517   8.129   5.496  1.3273 -0.6292 -0.7624
  199MOL0    Cl26775   2.473   8.209   5.343 -0.1089  0.0648 -0.0960
  199MOL0     C26776   2.113   8.194   6.208 -0.4604  0.3237  0.6745
  199MOL0     C26777   2.036   8.110   6.286  0.2821 -0.5019 -0.0722
  199MOL0     O26778   1.741   7.983   6.156 -0.4875  0.1470  0.2917
  199MOL0     C26779   1.721   7.767   6.449 -0.3854  1.3810 -1.0066
  199MOL0     C26780   1.658   7.638   6.485 -0.7695 -0.5128  0.3821
  199MOL0     N26781   1.328   6.891   6.840 -0.1932 -0.3039 -0.0296
  199MOL0     N26782   1.342   6.857   6.965 -0.9031  0.5194  0.0902
  199MOL0     C26783   2.402   7.308   7.199  0.7080 -0.4579 -1.3611
  199MOL0     C26784   2.498   7.310   7.298  0.8391 -1.1099  0.0544
  199MOL0     C26785   2.745   7.320   7.675 -0.6600 -0.5848  0.9717
  199MOL0     C26786   2.820   7.430   7.722 -0.0760 -0.3829 -0.7201
  199MOL0     C26787   2.849   7.435   7.855 -0.1784 -0.0297 -0.6367
  199MOL0     C26788   2.813   7.328   7.943  0.1676 -0.2140 -0.3881
  199MOL0     O26789   2.868   7.334   8.069 -0.7936 -0.1631 -1.5661
  199MOL0     C26790   2.769   7.379   8.163 -1.5261  0.5273  0.9669
  199MOL0     C26791   2.837   7.440   8.282 -0.0231 -0.1275 -0.1614
  199MOL0     C26792   2.932   7.549   8.255 -0.7379 -0.1326  0.2468
  199MOL0     C26793   2.995   7.617   8.383  0.3078  0.0692  0.1899
  199MOL0     C26794   3.069   7.531   8.483  0.4291  0.2116  0.8071
  199MOL0     C26795   3.137   7.464   8.550  0.7321 -1.2869 -0.1555
  199MOL0     C26796   2.746   7.221   7.899 -0.4976  0.3233  0.7414
  199MOL0     C26797   2.706   7.228   7.769  0.7578  0.0445 -0.8622
  199MOL0     H26798   2.340   7.144   7.547 -1.5797 -0.3128 -0.3209
  199MOL0     H26799   2.160   7.148   7.373  1.0946 -2.2160  2.7762
  199MOL0     H26800   2.233   7.344   6.980 -0.9744  0.4170 -1.5648
  199MOL0     H26801   2.279   7.173   6.964 -1.0208 -0.2529 -1.8437
  199MOL0     H26802   2.090   7.246   6.819  1.6150 -1.0835  0.2298
  199MOL0     H26803   2.081   7.100   6.895  2.3563  0.8370 -3.1331
  199MOL0     H26804   1.982   7.338   7.037 -1.4565  2.1847 -2.7156
  199MOL0     H26805   1.874   7.292   6.899 -1.4229 -0.3565  0.9370
  199MOL0     H26806   1.851   7.062   7.002 -2.3889  0.2534  1.3411
  199MOL0     H26807   1.949   7.108   7.141 -2.5134 -0.9651  2.2827
  199MOL0     H26808   1.759   7.250   7.208  0.6272  0.2024 -0.5293
  199MOL0     H26809   1.696   7.249   7.065 -1.0280  0.6202  1.7271
  199MOL0     H26810   1.652   6.980   7.080 -0.6509 -1.0985  0.8196
  199MOL0     H26811   1.729   7.003   7.233  2.8939 -0.7224 -2.9602
  199MOL0     H26812   1.534   7.090   7.324  0.3566  2.7463 -0.4701
  199MOL0     H26813   1.490   7.186   7.197 -1.0969 -1.3251 -2.5075
  199MOL0     H26814   1.311   7.009   7.232 -0.7211  0.5155 -0.7589
  199MOL0     H26815   1.428   6.886   7.230 -1.6526  1.4167  2.2651
  199MOL0     H26816   1.403   7.183   6.970  1.2977 -0.8474 -0.1496
  199MOL0     H26817   1.325   7.052   6.620 -2.1016  1.4756 -1.4111
  199MOL0     H26818   1.270   7.185   6.718  0.4651  0.4514 -0.0711
  199MOL0     H26819   1.557   7.117   6.676  0.3920  0.4451  0.8248
  199MOL0     H26820   1.494   7.249   6.763 -1.8980 -0.8359 -0.3744
  199MOL0     H26821   1.350   7.294   6.514  0.8693  0.7422 -4.7163
  199MOL0     H26822   1.489   7.206   6.454  2.2524  2.0902  0.3368
  199MOL0     H26823   1.638   7.354   6.551 -1.6326 -1.7830  1.4856
  199MOL0     H26824   1.518   7.448   6.635  2.6440  0.8454  0.8220
  199MOL0     H26825   1.410   7.611   6.274 -0.7766  2.5140 -2.1720
  199MOL0     H26826   1.384   7.811   6.123 -1.4499  2.3756 -0.3509
  199MOL0     H26827   1.488   7.955   6.147  2.0092 -0.3422  4.1105
  199MOL0     H26828   1.541   7.813   6.050 -1.8492 -0.4013 -0.6980
  199MOL0     H26829   1.743   8.263   6.305  0.5932  0.4336  1.2395
  199MOL0     H26830   1.878   8.436   6.188 -1.9522  0.2007  0.6075
  199MOL0     H26831   2.289   8.525   6.115  0.6818 -0.1140  3.3336
  199MOL0     H26832   2.289   8.380   6.200 -4.9173 -1.2356  1.1143
  199MOL0     H26833   2.340   8.243   5.986 -2.1960 -0.2457  0.0422
  199MOL0     H26834   2.269   8.359   5.884  2.1708 -0.7921 -1.3955
  199MOL0     H26835   2.546   8.395   6.011 -0.0828  0.2878  0.4507
  199MOL0     H26836   2.453   8.526   5.947 -0.4020  0.2385 -4.6666
  199MOL0     H26837   2.452   8.408   5.723  1.1530 -0.2372  0.2571
  199MOL0     H26838   2.608   8.415   5.796 -0.5198  1.8833  0.9754
  199MOL0     H26839   2.444   8.171   5.775  1.8268 -1.3426 -0.9750
  199MOL0     H26840   2.553   8.189   5.911  1.2706  2.6304  1.4707
  199MOL0     H26841   2.750   8.238   5.756 -2.0959  1.2450  0.9225
  199MOL0     H26842   2.694   8.070   5.724 -1.2444 -0.0105 -2.0442
  199MOL0     H26843   2.727   8.167   5.516 -1.0421 -1.4572 -1.2784
  199MOL0     H26844   2.621   8.303   5.542  1.2205 -0.1103 -3.1568
  199MOL0     H26845   2.428   8.136   5.560  1.3814  5.4701 -0.7470
  199MOL0     H26846   2.537   8.024   5.477  1.8842 -0.4968 -0.9350
  199MOL0     H26847   2.213   8.179   6.169  0.2904  1.8545  1.9006
  199MOL0     H26848   2.079   8.020   6.330  1.9010  0.6424  0.7950
  199MOL0     H26849   1.797   7.807   6.515  1.5559 -4.8988  1.2447
  199MOL0     H26850   1.693   7.595   6.579 -0.3935 -0.9759  0.0318
  199MOL0     H26851   2.413   7.339   7.096  0.3372 -1.7914 -1.8242
  199MOL0     H26852   2.588   7.364   7.270 -0.7087  1.9058  0.5122
  199MOL0     H26853   2.821   7.522   7.664 -0.1329 -0.7709 -1.3535
  199MOL0     H26854   2.902   7.521   7.895 -0.1804  0.6128 -1.9623
  199MOL0     H26855   2.702   7.452   8.117  0.9676  1.6098 -1.2352
  199MOL0     H26856   2.714   7.290   8.194 -1.4826  0.4511  0.8243
  199MOL0     H26857   2.888   7.358   8.332 -1.4474 -1.5346 -0.9260
  199MOL0     H26858   2.749   7.471   8.340 -1.0750 -2.8341 -0.1618
  199MOL0     H26859   2.888   7.624   8.188  2.7231 -0.2637 -2.4387
  199MOL0     H26860   3.015   7.508   8.197 -1.2949  0.6945 -1.1978
  199MOL0     H26861   2.912   7.661   8.440 -0.5479 -2.0633  0.6753
  199MOL0     H26862   3.065   7.686   8.336 -0.2937 -2.3913 -4.9676
  199MOL0     H26863   3.198   7.400   8.611  0.6367 -2.1352 -0.9148
  199MOL0     H26864   2.735   7.136   7.965 -0.7707  1.3479  2.0426
  199MOL0     H26865   2.640   7.148   7.736  3.4960 -3.2519  1.0663
  200MOL0     O26866   5.218   6.802   3.671  0.2066  0.0545  0.5117
  200MOL0     C26867   5.163   6.815   3.558 -0.7314 -0.1263 -0.2805
  200MOL0     O26868   5.160   6.719   3.461 -0.5757  0.7639  0.1498
  200MOL0     C26869   5.227   6.587   3.466  0.2828 -0.8651 -0.1895
  200MOL0     C26870   5.166   6.481   3.400  0.7000  0.2951 -0.5710
  200MOL0     C26871   5.215   6.355   3.416  0.6025  0.0335 -0.7234
  200MOL0     C26872   5.326   6.321   3.497  0.7582  0.4805 -0.5066
  200MOL0     O26873   5.362   6.189   3.536  0.1954 -0.2972 -0.2262
  200MOL0     C26874   5.264   6.083   3.522  0.1860 -0.2037  0.5669
  200MOL0     C26875   5.316   5.936   3.549 -0.8569 -0.6992 -0.3373
  200MOL0     C26876   5.224   5.866   3.657  0.9527 -1.0464  0.3430
  200MOL0     C26877   5.218   5.709   3.658  0.4771 -0.3657  1.0702
  200MOL0     C26878   5.327   5.647   3.752  0.2754 -0.0141  0.3309
  200MOL0     C26879   5.468   5.708   3.712  0.1434 -0.2325 -0.1086
  200MOL0     C26880   5.577   5.625   3.783  0.5123  0.3697 -0.5051
  200MOL0     C26881   5.581   5.640   3.930 -0.7309 -0.0888  0.2045
  200MOL0     N26882   5.712   5.600   3.987 -0.3677  0.4156 -0.0937
  200MOL0     C26883   5.806   5.691   4.038  0.5613  0.2555  0.5264
  200MOL0     C26884   5.906   5.606   4.075 -0.1625 -0.0718 -0.4629
  200MOL0     C26885   6.032   5.649   4.151  0.0902 -0.0645  0.0001
  200MOL0     C26886   6.145   5.554   4.150 -0.1877 -0.3105  0.0839
  200MOL0     C26887   6.280   5.630   4.177  0.1988 -0.2583  0.0117
  200MOL0     C26888   6.341   5.660   4.033  0.0226  0.3233  0.0538
  200MOL0     O26889   6.361   5.540   3.963  0.0489  0.4471  0.0342
  200MOL0     C26890   6.450   5.534   3.858 -0.2416 -0.4840 -0.2595
  200MOL0     C26891   6.578   5.598   3.848 -0.0703 -0.5206  0.5293
  200MOL0     C26892   6.656   5.605   3.732  0.3273  0.7749 -0.0630
  200MOL0     C26893   6.782   5.681   3.740  0.6067 -0.7923 -0.4043
  200MOL0     C26894   6.607   5.532   3.622 -0.6680  0.1820  0.7610
  200MOL0     C26895   6.694   5.520   3.500  0.9345 -0.4689 -0.0933
  200MOL0     O26896   6.615   5.522   3.374 -0.4178 -0.4630 -0.7850
  200MOL0     C26897   6.685   5.512   3.254  0.1499 -0.5826 -0.3635
  200MOL0     C26898   6.795   5.599   3.213  0.1401  0.6683 -0.5435
  200MOL0     C26899   6.852   5.584   3.091  0.0518 -0.0517  0.4708
  200MOL0     C26900   6.813   5.490   2.990  0.0926 -0.8605  0.7082
  200MOL0     O26901   6.868   5.472   2.864  0.9952  0.3306  0.0204
  200MOL0     C26902   6.956   5.576   2.810 -0.5955 -1.1990  0.4686
  200MOL0     C26903   6.934   5.566   2.656 -0.8403 -0.9040 -0.6118
  200MOL0     C26904   6.984   5.688   2.583  0.0862  0.8214 -0.4181
  200MOL0     C26905   6.942   5.667   2.438 -0.0229  0.7873  0.5413
  200MOL0     C26906   7.001   5.769   2.337  0.1861 -0.3034  0.5093
  200MOL0     C26907   6.961   5.918   2.366 -0.7340  0.4616 -0.5888
  200MOL0     C26908   6.806   5.925   2.321  1.1347 -0.0094  0.6578
  200MOL0     C26909   6.774   6.062   2.266  0.6951 -1.0803  0.4789
  200MOL0    Cl26910   6.814   6.076   2.095 -0.1428 -0.0805 -0.0097
  200MOL0     C26911   6.703   5.415   3.026 -0.3540 -0.1111  0.9320
  200MOL0     C26912   6.638   5.431   3.145 -0.9889 -0.1286  0.7671
  200MOL0     O26913   6.812   5.494   3.514 -0.1435 -0.5106  0.0976
  200MOL0     C26914   6.473   5.479   3.617 -0.1777 -0.4825 -0.2287
  200MOL0     C26915   6.395   5.480   3.735  0.3371 -1.5074  0.8231
  200MOL0     N26916   5.872   5.468   4.061  0.1599  0.1300  0.1321
  200MOL0     N26917   5.746   5.468   4.020 -0.1961  0.5578  0.2381
  200MOL0     C26918   5.392   6.423   3.554  0.1749 -0.4605  0.0970
  200MOL0     C26919   5.345   6.562   3.543 -0.2490  0.4332 -0.1964
  200MOL0     C26920   5.116   6.945   3.527  0.5060  0.3043 -0.4864
  200MOL0     C26921   5.127   6.990   3.397 -0.6271  0.6390  0.0013
  200MOL0     C26922   5.080   7.112   3.357  0.2687 -0.1705  0.1151
  200MOL0     C26923   5.021   7.196   3.449  0.5316 -0.0433 -0.1753
  200MOL0     O26924   4.952   7.323   3.421 -0.2586  0.5094 -0.5969
  200MOL0     C26925   4.993   7.402   3.317  0.1610 -0.1181  0.0332
  200MOL0     C26926   4.886   7.510   3.323 -0.0591 -1.0765 -0.8816
  200MOL0     C26927   4.890   7.621   3.212 -0.4170  0.9512 -0.3800
  200MOL0     C26928   4.962   7.739   3.262 -0.0750 -0.5447  0.3636
  200MOL0     C26929   4.948   7.857   3.174 -0.6150  0.4256  0.5474
  200MOL0     C26930   4.943   7.961   3.102  0.8764  0.6337  0.2443
  200MOL0     C26931   5.026   7.161   3.585 -0.1743 -0.3625 -0.5546
  200MOL0     C26932   5.072   7.035   3.626 -0.9462 -1.6077  0.1296
  200MOL0     H26933   5.095   6.508   3.323  3.1499 -1.2319 -3.5786
  200MOL0     H26934   5.163   6.283   3.354 -2.0399  3.3673 -2.7507
  200MOL0     H26935   5.177   6.101   3.586 -0.7175 -0.0512 -0.6675
  200MOL0     H26936   5.228   6.075   3.419  1.0306  0.4813  0.2073
  200MOL0     H26937   5.326   5.887   3.452 -2.1876  0.8162 -1.2832
  200MOL0     H26938   5.416   5.932   3.595 -1.0487  0.4639  0.2203
  200MOL0     H26939   5.242   5.912   3.755  1.5353  1.8164 -1.0075
  200MOL0     H26940   5.125   5.906   3.633  0.8640 -1.4145  0.0933
  200MOL0     H26941   5.124   5.663   3.689  0.3605  0.7666  2.5006
  200MOL0     H26942   5.240   5.665   3.561 -2.9629  2.2203 -1.0861
  200MOL0     H26943   5.306   5.655   3.859  0.8501 -0.0768  0.4534
  200MOL0     H26944   5.336   5.539   3.733  2.1802  0.1508  0.1447
  200MOL0     H26945   5.496   5.723   3.608 -1.0538 -2.5432 -0.8168
  200MOL0     H26946   5.483   5.805   3.760 -0.2615 -1.1414  1.9684
  200MOL0     H26947   5.567   5.517   3.764  1.5985 -0.7195  4.0258
  200MOL0     H26948   5.672   5.652   3.736  0.7933 -3.4676 -2.5857
  200MOL0     H26949   5.490   5.603   3.977 -0.2353 -1.1068  0.3849
  200MOL0     H26950   5.577   5.749   3.945 -0.7511  0.2317 -1.9187
  200MOL0     H26951   5.812   5.800   4.033 -0.4234  0.2617 -1.7879
  200MOL0     H26952   6.067   5.740   4.101  1.5556 -0.9866 -0.7260
  200MOL0     H26953   5.996   5.664   4.253 -0.2840 -0.3028 -0.0964
  200MOL0     H26954   6.136   5.500   4.056 -5.2560  1.7672 -0.9444
  200MOL0     H26955   6.126   5.476   4.224 -3.4301 -1.2729 -1.6004
  200MOL0     H26956   6.354   5.569   4.230 -0.4414 -1.4804 -0.4600
  200MOL0     H26957   6.257   5.721   4.232 -1.3349 -0.6208  0.0044
  200MOL0     H26958   6.426   5.728   4.040 -0.8780  1.6862 -1.4998
  200MOL0     H26959   6.260   5.699   3.971 -3.9669 -1.8250  3.4009
  200MOL0     H26960   6.619   5.642   3.939  2.9609 -1.6014 -0.1784
  200MOL0     H26961   6.813   5.723   3.644  0.5073 -1.4357 -0.7243
  200MOL0     H26962   6.779   5.765   3.810  3.3998 -1.2776  0.4292
  200MOL0     H26963   6.864   5.620   3.779  1.9626  0.4040 -1.2240
  200MOL0     H26964   6.827   5.673   3.285  1.2608  2.0290 -2.3488
  200MOL0     H26965   6.924   5.660   3.061 -1.4023 -0.3208 -4.5867
  200MOL0     H26966   6.928   5.675   2.849 -0.0037 -0.7667 -0.1687
  200MOL0     H26967   7.065   5.575   2.823 -0.8480  0.3938  3.8312
  200MOL0     H26968   6.985   5.481   2.609  0.8780  0.2880 -1.0124
  200MOL0     H26969   6.826   5.561   2.641 -0.8147  0.7933 -1.7688
  200MOL0     H26970   7.093   5.682   2.582  0.0640 -0.4538  1.2069
  200MOL0     H26971   6.944   5.781   2.624 -0.8192  1.3834 -2.4402
  200MOL0     H26972   6.946   5.561   2.410 -0.3884  1.8251 -4.2637
  200MOL0     H26973   6.835   5.689   2.438 -0.0177  0.8149 -0.0821
  200MOL0     H26974   6.969   5.751   2.234 -2.2990 -2.4727  1.5334
  200MOL0     H26975   7.110   5.769   2.332  0.2204  2.5623 -0.8550
  200MOL0     H26976   6.968   5.966   2.464 -1.3427 -0.5394 -0.0491
  200MOL0     H26977   7.027   5.982   2.306  0.2518  1.4758  1.4575
  200MOL0     H26978   6.726   5.896   2.390  1.6164 -2.1280  0.3820
  200MOL0     H26979   6.791   5.851   2.242 -0.4703 -0.9932  1.8210
  200MOL0     H26980   6.835   6.134   2.321  0.6824 -0.1507 -0.6909
  200MOL0     H26981   6.669   6.091   2.280  0.9080  2.4687 -3.4498
  200MOL0     H26982   6.668   5.345   2.951  4.6117 -0.8856 -1.0434
  200MOL0     H26983   6.564   5.352   3.144  0.1585 -1.3025  2.5707
  200MOL0     H26984   6.440   5.452   3.518 -0.1423  0.8486 -0.6265
  200MOL0     H26985   6.297   5.435   3.725  0.6411 -1.6701 -5.4990
  200MOL0     H26986   5.465   6.396   3.630  0.0756  1.7137  1.0353
  200MOL0     H26987   5.390   6.644   3.598 -1.4003  1.0763 -0.1880
  200MOL0     H26988   5.190   6.932   3.330 -1.6224 -0.2343 -0.2077
  200MOL0     H26989   5.093   7.146   3.255  1.3916 -1.4316 -0.1878
  200MOL0     H26990   5.095   7.438   3.334  0.8494 -2.3676  1.1168
  200MOL0     H26991   4.995   7.341   3.226 -1.6172  0.3547 -0.3557
  200MOL0     H26992   4.889   7.557   3.422  1.5234  1.2236 -1.9378
  200MOL0     H26993   4.792   7.454   3.317 -0.0198 -1.0269 -2.2137
  200MOL0     H26994   4.788   7.645   3.179 -1.0003 -0.1062  0.5667
  200MOL0     H26995   4.940   7.581   3.123  0.1291  0.9653 -0.0832
  200MOL0     H26996   5.061   7.710   3.299 -0.0830  1.4704  2.2025
  200MOL0     H26997   4.912   7.772   3.354 -2.7290  0.9265 -1.4651
  200MOL0     H26998   4.931   8.054   3.049 -2.2566  0.8153  1.0697
  200MOL0     H26999   4.976   7.224   3.657  1.6833 -2.0923  2.4701
  200MOL0     H27000   5.075   6.996   3.728 -0.4264  0.5000  0.9617
  201MOL0     O27001   1.834   1.393  10.995 -0.4620  0.6764 -0.1675
  201MOL0     C27002   1.919   1.476  10.990 -0.0415 -0.0274 -1.0839
  201MOL0     O27003   1.924   1.582  11.071  0.2798 -0.5290  0.2068
  201MOL0     C27004   1.828   1.609  11.159 -0.0210 -0.8923 -0.1832
  201MOL0     C27005   1.689   1.635  11.118 -1.0258 -0.0658 -0.6873
  201MOL0     C27006   1.596   1.642  11.223  1.0140  0.2127 -1.2145
  201MOL0     C27007   1.641   1.649  11.362  0.7535 -0.7302 -0.7537
  201MOL0     O27008   1.563   1.687  11.468  0.7855  0.2154  0.3289
  201MOL0     C27009   1.424   1.653  11.476  0.7450  0.6808 -0.0175
  201MOL0     C27010   1.341   1.776  11.427  0.4264 -0.2610 -0.7021
  201MOL0     C27011   1.189   1.745  11.435 -0.2538  0.4863  0.5937
  201MOL0     C27012   1.121   1.880  11.397 -0.0191 -1.1647 -0.5202
  201MOL0     C27013   0.967   1.899  11.405  0.0270  0.0279  0.0267
  201MOL0     C27014   0.932   2.043  11.382  0.6783 -0.1378 -0.1727
  201MOL0     C27015   0.776   2.050  11.357 -0.3145 -0.3080  0.3046
  201MOL0     C27016   0.738   2.136  11.238 -0.0146  0.5176 -0.8455
  201MOL0     N27017   0.749   2.059  11.115  0.6542  0.6145  0.3888
  201MOL0     C27018   0.857   1.995  11.065 -0.4248  0.0622  0.3606
  201MOL0     C27019   0.816   1.929  10.951 -0.0501 -0.0957 -0.3880
  201MOL0     C27020   0.886   1.836  10.853  0.0733 -0.3991 -0.3801
  201MOL0     C27021   0.911   1.890  10.714 -0.4901  0.1580  0.1992
  201MOL0     C27022   0.794   1.892  10.610  0.0981  0.8524 -1.6380
  201MOL0     C27023   0.704   1.771  10.611 -0.6131 -0.9575  0.0636
  201MOL0     O27024   0.777   1.648  10.621 -0.5831 -0.7032 -0.1062
  201MOL0     C27025   0.743   1.538  10.707  0.3952  1.1893  0.0110
  201MOL0     C27026   0.821   1.424  10.687  0.3745  1.2055  0.2208
  201MOL0     C27027   0.791   1.298  10.751 -0.7809 -0.1759 -0.9487
  201MOL0     C27028   0.885   1.184  10.727  0.2815  0.1128 -0.6176
  201MOL0     C27029   0.660   1.284  10.819 -0.3783  0.1965  0.6169
  201MOL0     C27030   0.604   1.144  10.868 -0.0931 -1.0251  0.0893
  201MOL0     O27031   0.495   1.152  10.947 -0.4361  0.4675 -0.2228
  201MOL0     C27032   0.425   1.037  10.980 -0.0433  1.0250 -1.6217
  201MOL0     C27033   0.285   1.047  10.989  0.5125 -0.1593  0.8344
  201MOL0     C27034   0.195   0.939  11.024 -0.6815  0.7099 -0.1542
  201MOL0     C27035   0.257   0.824  11.076 -0.1071  0.5068  0.6496
  201MOL0     O27036   0.193   0.714  11.126 -0.2304 -0.6517 -0.2442
  201MOL0     C27037   0.125   0.633  11.026 -0.4257 -0.5518  0.4815
  201MOL0     C27038  -0.024   0.627  11.035  0.1307  0.2819  0.2382
  201MOL0     C27039  -0.088   0.749  10.986 -0.5390  1.2843 -0.3317
  201MOL0     C27040  -0.239   0.720  10.954  0.2978 -0.1936  0.4188
  201MOL0     C27041  -0.317   0.853  10.936 -0.2937 -0.2697 -0.5513
  201MOL0     C27042  -0.467   0.838  10.982 -0.2392  0.6267 -0.1066
  201MOL0     C27043  -0.582   0.927  10.920 -0.2167  0.2880 -1.4413
  201MOL0     C27044  -0.699   0.925  11.011  0.4363  0.5225 -0.7251
  201MOL0    Cl27045  -0.747   0.759  11.053  0.8415  0.2074 -0.0326
  201MOL0     C27046   0.396   0.819  11.086 -0.4901  0.4358 -0.3814
  201MOL0     C27047   0.470   0.908  11.014  1.0379 -0.3979  0.3423
  201MOL0     O27048   0.662   1.042  10.821 -0.0404  0.0601 -0.1412
  201MOL0     C27049   0.581   1.399  10.822  0.2991 -0.3978 -1.2726
  201MOL0     C27050   0.635   1.521  10.791  0.5841 -0.0998  0.0388
  201MOL0     N27051   0.681   1.951  10.936 -0.6043 -0.4583 -0.0009
  201MOL0     N27052   0.649   2.036  11.026 -0.3780  0.8605  0.5553
  201MOL0     C27053   1.776   1.631  11.392 -1.2913  0.1377 -0.4460
  201MOL0     C27054   1.865   1.609  11.288 -0.8460  0.6191  0.4622
  201MOL0     C27055   2.026   1.455  10.890  1.1757 -0.0315 -0.0729
  201MOL0     C27056   2.119   1.551  10.871 -0.1152 -0.5134 -0.5652
  201MOL0     C27057   2.225   1.539  10.782  0.3285 -0.8045 -0.0410
  201MOL0     C27058   2.230   1.429  10.696  0.3066  0.5631  0.3070
  201MOL0     O27059   2.333   1.429  10.606  0.3245 -0.0023  0.2684
  201MOL0     C27060   2.467   1.459  10.641  0.8485  0.4641 -0.0585
  201MOL0     C27061   2.556   1.351  10.578 -0.7253 -0.0304 -1.3214
  201MOL0     C27062   2.548   1.209  10.652  0.5626 -0.4257 -0.9414
  201MOL0     C27063   2.508   1.093  10.565 -0.2241  1.3530 -0.1250
  201MOL0     C27064   2.503   0.971  10.646 -0.1783  0.1830 -0.4779
  201MOL0     C27065   2.496   0.867  10.718 -0.2229 -1.1802 -0.1751
  201MOL0     C27066   2.137   1.327  10.712 -0.6696 -0.4441  1.0576
  201MOL0     C27067   2.038   1.335  10.808  0.5851 -0.4535 -0.4690
  201MOL0     H27068   1.652   1.648  11.017  0.8170 -2.1419 -1.7124
  201MOL0     H27069   1.494   1.662  11.193  0.3476  2.7364  2.2540
  201MOL0     H27070   1.394   1.569  11.414  1.9924  2.0663 -2.6964
  201MOL0     H27071   1.393   1.645  11.580 -4.6689 -1.3833 -1.4531
  201MOL0     H27072   1.363   1.863  11.489  0.2924  1.0897 -2.4785
  201MOL0     H27073   1.371   1.789  11.322 -1.7068 -1.9162 -1.6139
  201MOL0     H27074   1.156   1.676  11.357 -0.5455 -2.6755  3.2782
  201MOL0     H27075   1.163   1.702  11.532 -1.1499 -1.7446 -0.5543
  201MOL0     H27076   1.174   1.950  11.462  0.3897 -2.3137  0.4151
  201MOL0     H27077   1.161   1.894  11.296 -0.1045 -2.0262 -0.6821
  201MOL0     H27078   0.923   1.838  11.326 -0.9027 -1.0333  1.3144
  201MOL0     H27079   0.940   1.855  11.502 -0.5384 -3.9657 -1.7276
  201MOL0     H27080   0.971   2.104  11.465  0.8714 -2.4924  1.5462
  201MOL0     H27081   0.990   2.081  11.296 -2.9337  1.6968 -2.0393
  201MOL0     H27082   0.742   1.950  11.331  0.4710  0.0853 -2.7293
  201MOL0     H27083   0.726   2.092  11.445  2.7632  0.8375  1.6469
  201MOL0     H27084   0.800   2.226  11.243  1.5443 -0.5982  2.5890
  201MOL0     H27085   0.632   2.166  11.236 -1.0001 -2.5797 -2.6745
  201MOL0     H27086   0.961   1.996  11.095 -0.3465 -1.2946  0.2313
  201MOL0     H27087   0.982   1.827  10.905 -0.5563 -0.4036  0.8130
  201MOL0     H27088   0.833   1.741  10.843 -0.8534  0.0619  0.0266
  201MOL0     H27089   0.996   1.841  10.666 -1.0234  0.3684 -0.9758
  201MOL0     H27090   0.956   1.988  10.732 -2.1189  1.0314 -0.3500
  201MOL0     H27091   0.840   1.905  10.511  0.2324  0.6223 -1.6065
  201MOL0     H27092   0.735   1.980  10.635  3.5092  2.4469  1.8280
  201MOL0     H27093   0.658   1.761  10.512  1.7157 -0.6141 -1.1336
  201MOL0     H27094   0.631   1.777  10.692 -0.0713 -0.3354  0.5159
  201MOL0     H27095   0.900   1.422  10.612  0.2979 -4.2994 -0.1161
  201MOL0     H27096   0.984   1.198  10.684  0.5285  0.3859  0.0312
  201MOL0     H27097   0.899   1.128  10.820 -3.1513 -0.3517 -0.2224
  201MOL0     H27098   0.833   1.115  10.660 -0.5610 -0.0539  0.1856
  201MOL0     H27099   0.243   1.145  10.970 -1.1650 -0.2532  3.5407
  201MOL0     H27100   0.088   0.955  11.019 -1.0176 -1.0711  0.6184
  201MOL0     H27101   0.154   0.658  10.923  1.7370  2.2693  1.6310
  201MOL0     H27102   0.169   0.534  11.011 -0.0498 -0.1662 -1.2076
  201MOL0     H27103  -0.073   0.537  10.995 -2.5263  1.8276 -0.2491
  201MOL0     H27104  -0.046   0.618  11.142  1.9419  0.3630  0.6466
  201MOL0     H27105  -0.040   0.773  10.891  0.8360 -0.2061 -0.0571
  201MOL0     H27106  -0.076   0.830  11.059  0.7783  1.5106 -0.7586
  201MOL0     H27107  -0.259   0.661  10.865 -0.8053  0.9332 -0.1160
  201MOL0     H27108  -0.281   0.664  11.038  1.0486 -3.4406 -1.2242
  201MOL0     H27109  -0.323   0.883  10.832  0.9576  4.8961  0.6245
  201MOL0     H27110  -0.282   0.943  10.987  0.9102 -1.5758  1.0353
  201MOL0     H27111  -0.499   0.736  10.958 -1.3929  1.3145 -1.6579
  201MOL0     H27112  -0.473   0.858  11.089 -3.8333 -1.9576  0.3623
  201MOL0     H27113  -0.606   0.892  10.819 -1.5480 -1.0477 -0.6767
  201MOL0     H27114  -0.544   1.030  10.926 -2.0678  0.9285  0.4198
  201MOL0     H27115  -0.782   0.969  10.955  1.6763  0.6119 -2.5622
  201MOL0     H27116  -0.687   0.985  11.102 -0.3758 -2.6095  1.6132
  201MOL0     H27117   0.450   0.735  11.128  0.1690  1.2168  0.3692
  201MOL0     H27118   0.577   0.896  11.001  1.5264  0.4037  2.8719
  201MOL0     H27119   0.487   1.393  10.877  2.3830 -2.0220  2.4295
  201MOL0     H27120   0.581   1.604  10.836  0.7196 -0.5393  1.0403
  201MOL0     H27121   1.816   1.652  11.491  0.4835 -2.4753 -0.4974
  201MOL0     H27122   1.970   1.596  11.312 -0.5815  1.5548 -0.1075
  201MOL0     H27123   2.113   1.648  10.920  1.5770 -0.6552  0.0031
  201MOL0     H27124   2.291   1.622  10.761  1.9406 -2.2446 -0.9706
  201MOL0     H27125   2.489   1.561  10.607  1.4960 -0.2672 -1.9352
  201MOL0     H27126   2.480   1.451  10.750  2.4356 -2.9681 -0.3682
  201MOL0     H27127   2.660   1.378  10.598 -0.8305 -0.9194  0.6410
  201MOL0     H27128   2.546   1.350  10.469 -1.5104 -1.6176 -1.2548
  201MOL0     H27129   2.477   1.236  10.731 -1.0632  1.5846 -2.9247
  201MOL0     H27130   2.647   1.186  10.691  0.6402 -0.1704 -0.9856
  201MOL0     H27131   2.581   1.078  10.484  0.7099 -1.3594  1.0749
  201MOL0     H27132   2.412   1.103  10.514 -0.8356 -0.8737  0.4687
  201MOL0     H27133   2.482   0.781  10.780 -0.0982  2.1610  5.1131
  201MOL0     H27134   2.153   1.231  10.663  0.3142 -1.3291  2.9901
  201MOL0     H27135   1.964   1.257  10.813  1.0710 -1.2082 -3.3289
  202MOL0     O27136   2.064   5.388   2.910  0.6002  0.2737 -0.0267
  202MOL0     C27137   2.181   5.351   2.915 -0.4945  0.9002  0.5219
  202MOL0     O27138   2.288   5.417   2.854  0.7703  0.8594 -0.2220
  202MOL0     C27139   2.268   5.504   2.754  0.0444  1.4450 -0.1982
  202MOL0     C27140   2.387   5.512   2.681 -1.1629  0.0634 -0.2143
  202MOL0     C27141   2.385   5.599   2.573  0.1701  0.7354 -0.1697
  202MOL0     C27142   2.279   5.678   2.536 -0.6466 -0.2069 -0.4597
  202MOL0     O27143   2.282   5.733   2.407  0.2121  0.4904  0.2934
  202MOL0     C27144   2.208   5.852   2.386  0.5550  0.1059 -0.8654
  202MOL0     C27145   2.251   5.915   2.257 -0.5997 -0.2672 -0.2927
  202MOL0     C27146   2.181   6.051   2.225  0.3582 -0.2007  0.8384
  202MOL0     C27147   2.223   6.117   2.093 -0.6200  0.9964 -0.4757
  202MOL0     C27148   2.136   6.252   2.073 -0.5406  0.3933 -0.3562
  202MOL0     C27149   2.175   6.310   1.945  0.6217  0.4194  0.2064
  202MOL0     C27150   2.142   6.455   1.923  0.1762  0.4682 -0.8874
  202MOL0     C27151   1.992   6.461   1.902  0.4093  0.5566 -0.9863
  202MOL0     N27152   1.937   6.598   1.872 -0.1835 -0.0697  0.1399
  202MOL0     C27153   1.977   6.673   1.761  0.6158 -0.3729  0.1932
  202MOL0     C27154   1.913   6.796   1.792 -0.0258 -0.0342  1.4233
  202MOL0     C27155   1.914   6.914   1.702 -0.6861  0.1209 -0.7862
  202MOL0     C27156   1.779   6.986   1.705  0.1828  0.1332 -0.6232
  202MOL0     C27157   1.755   7.073   1.580  0.2348 -0.2473 -0.6743
  202MOL0     C27158   1.705   6.989   1.470 -0.4551  0.5280  0.5510
  202MOL0     O27159   1.692   7.066   1.350 -1.0702  0.6873  0.2755
  202MOL0     C27160   1.638   6.997   1.239  0.0103  0.0365  0.3937
  202MOL0     C27161   1.623   6.860   1.223  0.0676 -0.3379  0.6257
  202MOL0     C27162   1.544   6.817   1.113 -0.1880 -0.4088  0.0148
  202MOL0     C27163   1.514   6.670   1.111  0.3023 -0.2742 -0.6222
  202MOL0     C27164   1.487   6.906   1.019 -0.1179  1.5928  0.0058
  202MOL0     C27165   1.428   6.864   0.885 -1.5372  0.4647  0.6022
  202MOL0     O27166   1.410   6.973   0.798  0.2885 -0.2263  0.2903
  202MOL0     C27167   1.321   6.978   0.694  0.4028 -1.3480 -0.2526
  202MOL0     C27168   1.350   7.079   0.602  0.4372 -0.1481 -0.4133
  202MOL0     C27169   1.264   7.095   0.489  0.1384  0.2542  0.4607
  202MOL0     C27170   1.148   7.012   0.475 -0.3851  0.0572  0.4778
  202MOL0     O27171   1.064   6.997   0.363  0.3376  0.2316 -0.5685
  202MOL0     C27172   1.052   7.105   0.278 -0.4908 -0.5488  1.0784
  202MOL0     C27173   0.973   7.221   0.328  0.1212  0.0505  0.6982
  202MOL0     C27174   1.042   7.353   0.319  0.8120  0.3894 -0.6631
  202MOL0     C27175   1.019   7.416   0.183  0.4408  0.4401 -1.2746
  202MOL0     C27176   1.110   7.546   0.169  0.0252  0.5038  0.3041
  202MOL0     C27177   1.074   7.606   0.032  1.2502 -0.6071  0.2513
  202MOL0     C27178   1.149   7.730  -0.008  0.2035  0.1284 -0.4023
  202MOL0     C27179   1.284   7.679  -0.068  0.2893  0.6160 -0.0801
  202MOL0    Cl27180   1.401   7.826  -0.088 -0.0988 -0.0148  0.1015
  202MOL0     C27181   1.122   6.910   0.564  0.7156  0.3448 -0.2280
  202MOL0     C27182   1.215   6.893   0.670 -0.5031 -0.4545  0.0018
  202MOL0     O27183   1.404   6.741   0.858  0.2701 -0.7437  0.2058
  202MOL0     C27184   1.514   7.039   1.037 -0.3419 -0.4124 -0.0606
  202MOL0     C27185   1.585   7.086   1.143  0.8964 -0.2036 -0.1993
  202MOL0     N27186   1.844   6.787   1.910 -0.2381 -0.1375 -0.9141
  202MOL0     N27187   1.862   6.668   1.959  0.4677  0.0002  0.3486
  202MOL0     C27188   2.173   5.674   2.618  0.6882  0.3363 -0.5359
  202MOL0     C27189   2.150   5.579   2.722  0.3045 -0.2118  1.4526
  202MOL0     C27190   2.225   5.245   3.001 -0.1062  0.6318 -0.0587
  202MOL0     C27191   2.360   5.236   3.047  0.0596  0.2500  1.0987
  202MOL0     C27192   2.401   5.143   3.141  0.1621 -0.0778  0.8180
  202MOL0     C27193   2.317   5.045   3.183  0.5711 -0.3821  0.6471
  202MOL0     O27194   2.361   4.950   3.270  0.4918  0.0202  0.9881
  202MOL0     C27195   2.335   4.813   3.240 -0.5688 -0.6451 -1.2014
  202MOL0     C27196   2.467   4.736   3.231  0.6048  0.4133 -0.2329
  202MOL0     C27197   2.553   4.749   3.360  0.9620 -0.1111  0.1278
  202MOL0     C27198   2.682   4.656   3.353  0.6353  0.1030  0.7361
  202MOL0     C27199   2.808   4.738   3.375  0.3493  0.3907  0.2347
  202MOL0     C27200   2.903   4.808   3.387  0.0837  0.3919  0.0514
  202MOL0     C27201   2.177   5.054   3.139  0.1266  0.7032  0.0068
  202MOL0     C27202   2.135   5.150   3.049  0.4719 -0.5513 -0.6136
  202MOL0     H27203   2.478   5.466   2.719 -1.4118 -0.3809 -0.1627
  202MOL0     H27204   2.472   5.590   2.507 -1.2220 -0.2228 -1.9689
  202MOL0     H27205   2.099   5.837   2.383  0.5178  0.3683 -0.8978
  202MOL0     H27206   2.232   5.925   2.463  0.9298 -0.6918 -0.2183
  202MOL0     H27207   2.354   5.946   2.274 -1.0820  1.4132 -0.2932
  202MOL0     H27208   2.244   5.840   2.177  3.4536  2.2190 -3.4382
  202MOL0     H27209   2.073   6.034   2.222 -0.1115  1.4897  4.0783
  202MOL0     H27210   2.194   6.121   2.308 -2.0999 -0.4606  1.5154
  202MOL0     H27211   2.330   6.136   2.091 -0.3508 -0.4575 -1.3424
  202MOL0     H27212   2.228   6.040   2.015  2.5669 -0.0418  0.6003
  202MOL0     H27213   2.032   6.226   2.093 -0.7362  2.1565  1.0998
  202MOL0     H27214   2.159   6.315   2.159 -0.8387  0.4516 -0.3178
  202MOL0     H27215   2.283   6.293   1.945  0.5082 -0.4968  1.7071
  202MOL0     H27216   2.126   6.240   1.877  0.5881 -0.2395  0.8956
  202MOL0     H27217   2.176   6.520   2.004  2.0640  1.8034 -2.6512
  202MOL0     H27218   2.199   6.492   1.838  2.8940 -0.3051  0.4867
  202MOL0     H27219   1.953   6.431   2.000  2.9629  3.2854  1.0497
  202MOL0     H27220   1.970   6.409   1.809 -0.6322 -0.0099 -0.4424
  202MOL0     H27221   2.035   6.645   1.674  0.7421  1.8381 -0.4905
  202MOL0     H27222   1.995   6.982   1.731 -0.0868 -0.4909 -1.0273
  202MOL0     H27223   1.939   6.879   1.602  0.2088 -0.1607 -0.4713
  202MOL0     H27224   1.776   7.053   1.791  3.1758  0.1016 -0.4098
  202MOL0     H27225   1.700   6.910   1.712  2.0510 -1.9867 -1.3285
  202MOL0     H27226   1.852   7.122   1.564  0.3252  0.4383  1.6714
  202MOL0     H27227   1.688   7.156   1.603 -0.4404 -1.0900  0.4999
  202MOL0     H27228   1.612   6.933   1.487  1.1021 -2.9525 -1.2715
  202MOL0     H27229   1.773   6.907   1.447 -3.4705 -1.4796 -2.0948
  202MOL0     H27230   1.654   6.786   1.295 -0.0581 -0.1343  0.8882
  202MOL0     H27231   1.560   6.621   1.025 -0.8275 -2.7527  0.0908
  202MOL0     H27232   1.567   6.627   1.197 -0.0231  1.2115  0.3575
  202MOL0     H27233   1.407   6.647   1.116  0.4644 -0.9150  0.2915
  202MOL0     H27234   1.432   7.144   0.630 -1.4106  1.2526  2.1171
  202MOL0     H27235   1.273   7.179   0.421 -0.0845 -1.2054 -1.4408
  202MOL0     H27236   1.152   7.139   0.251 -0.8630 -0.3405 -0.0904
  202MOL0     H27237   0.998   7.068   0.191  0.8203 -0.1820  0.0816
  202MOL0     H27238   0.878   7.223   0.274  0.0457  0.8581  0.8404
  202MOL0     H27239   0.951   7.194   0.432 -3.0309  4.3732  1.4397
  202MOL0     H27240   1.150   7.350   0.335  1.1901 -0.4524 -2.9247
  202MOL0     H27241   1.006   7.418   0.399  0.5366  1.8556 -1.9363
  202MOL0     H27242   1.040   7.341   0.107  4.1972  1.0020 -0.9563
  202MOL0     H27243   0.913   7.441   0.198 -0.0663 -2.0780 -0.1735
  202MOL0     H27244   1.212   7.511   0.181 -0.9623 -2.1125  1.7006
  202MOL0     H27245   1.086   7.628   0.238 -1.7977  1.8565 -1.7791
  202MOL0     H27246   1.089   7.522  -0.037 -1.2349 -2.4665  1.7914
  202MOL0     H27247   0.971   7.643   0.038  0.5305 -2.6490  1.5764
  202MOL0     H27248   1.170   7.787   0.083 -0.5346  2.6512 -1.6949
  202MOL0     H27249   1.091   7.781  -0.086  0.5744 -0.6790 -1.2275
  202MOL0     H27250   1.269   7.625  -0.162  0.4767 -1.3610  0.9684
  202MOL0     H27251   1.327   7.609   0.004  0.2076  1.1291  0.4783
  202MOL0     H27252   1.038   6.842   0.552  1.9222 -1.3997  0.6374
  202MOL0     H27253   1.206   6.820   0.750 -2.1026  0.6493  0.8952
  202MOL0     H27254   1.477   7.099   0.954  0.1925 -0.1660 -0.1230
  202MOL0     H27255   1.572   7.193   1.155  0.3015  0.1543 -3.1479
  202MOL0     H27256   2.088   5.736   2.589 -0.5003 -1.0073 -0.0179
  202MOL0     H27257   2.058   5.581   2.780 -0.0554 -0.2045  0.8868
  202MOL0     H27258   2.433   5.297   2.995  1.1758  0.0586  2.3671
  202MOL0     H27259   2.503   5.145   3.179  1.0021 -0.4023 -1.2958
  202MOL0     H27260   2.281   4.769   3.324  1.1525  3.1428  2.2052
  202MOL0     H27261   2.275   4.795   3.150 -3.8528 -0.1597  0.7396
  202MOL0     H27262   2.524   4.783   3.151  1.5625 -1.3807 -0.6665
  202MOL0     H27263   2.452   4.630   3.205 -1.2407  0.1946  1.4969
  202MOL0     H27264   2.493   4.718   3.446  1.8071 -0.0895  0.7376
  202MOL0     H27265   2.580   4.853   3.375  0.5815 -0.1806  1.5199
  202MOL0     H27266   2.693   4.600   3.260  1.5635 -0.7997  1.3613
  202MOL0     H27267   2.654   4.575   3.420  1.1934 -1.1166 -0.4412
  202MOL0     H27268   3.000   4.852   3.402 -0.2339  1.2730 -0.4253
  202MOL0     H27269   2.108   4.978   3.175 -2.3156  1.5643 -2.4807
  202MOL0     H27270   2.031   5.153   3.020  0.1081 -1.5270  0.4837
  203MOL0     O27271   9.141   9.187   1.078 -0.2662  0.1286  0.0313
  203MOL0     C27272   9.095   9.287   1.120  0.0989 -0.1219 -0.7064
  203MOL0     O27273   8.976   9.295   1.179 -0.3048  0.0405 -0.5797
  203MOL0     C27274   8.901   9.182   1.202 -0.5839  0.1354 -0.5081
  203MOL0     C27275   8.768   9.174   1.152 -1.0120 -0.7272  0.5966
  203MOL0     C27276   8.693   9.056   1.165 -0.2229  1.1764  0.5172
  203MOL0     C27277   8.744   8.949   1.232  0.0600 -0.0665 -0.4884
  203MOL0     O27278   8.674   8.835   1.229  0.5925 -0.0253 -0.5218
  203MOL0     C27279   8.593   8.815   1.343  0.3945  0.4332  0.3036
  203MOL0     C27280   8.484   8.709   1.309 -0.2119 -0.1368  0.0282
  203MOL0     C27281   8.352   8.766   1.249  0.2287 -0.7881  0.2062
  203MOL0     C27282   8.267   8.652   1.185  0.6320 -0.5231 -0.5497
  203MOL0     C27283   8.129   8.701   1.163  0.1304 -0.8125  0.2187
  203MOL0     C27284   8.139   8.820   1.054 -0.9113  0.8489 -1.1799
  203MOL0     C27285   8.009   8.830   0.981  0.2342 -0.1295 -0.3438
  203MOL0     C27286   7.989   8.969   0.916  0.4642  0.7040  0.2013
  203MOL0     N27287   7.974   9.096   0.997  0.3552  0.7360  0.1910
  203MOL0     C27288   8.081   9.183   1.023 -0.1102  0.1084  0.1028
  203MOL0     C27289   8.029   9.271   1.100 -0.1915 -0.6570  0.1629
  203MOL0     C27290   8.110   9.399   1.112  0.1428  0.0270  0.4795
  203MOL0     C27291   8.247   9.379   1.170 -0.2211 -0.5393  0.3178
  203MOL0     C27292   8.349   9.490   1.124  1.6739  0.1826 -0.0166
  203MOL0     C27293   8.440   9.529   1.238  0.0437  0.0419 -0.1511
  203MOL0     O27294   8.550   9.608   1.191 -0.2694  0.8746  0.4011
  203MOL0     C27295   8.620   9.674   1.283  0.2537 -0.8623 -0.0858
  203MOL0     C27296   8.646   9.809   1.258 -0.5009  0.2628  0.2352
  203MOL0     C27297   8.759   9.875   1.304  0.1299 -0.4714 -0.2060
  203MOL0     C27298   8.796  10.019   1.247 -0.5244  0.0046 -0.2182
  203MOL0     C27299   8.832   9.814   1.413 -0.1139 -0.8038  0.9334
  203MOL0     C27300   8.931   9.885   1.488  0.2414  0.4394 -0.8375
  203MOL0     O27301   8.934  10.018   1.495  0.8684 -0.1035 -0.2972
  203MOL0     C27302   9.028  10.092   1.551 -0.1618 -0.1325 -0.8982
  203MOL0     C27303   8.996  10.192   1.647 -0.4421  0.7681  0.0077
  203MOL0     C27304   9.098  10.273   1.697  0.1941 -0.3578 -0.2653
  203MOL0     C27305   9.232  10.239   1.665  0.1233 -0.0214 -0.2745
  203MOL0     O27306   9.340  10.311   1.705  0.3302  0.1404 -1.1358
  203MOL0     C27307   9.327  10.413   1.797  0.0449  0.5930 -0.2367
  203MOL0     C27308   9.314  10.350   1.932  0.1604  0.3743 -0.7706
  203MOL0     C27309   9.313  10.456   2.038 -1.0828  0.1345  0.7237
  203MOL0     C27310   9.294  10.400   2.178  0.4335  0.2217 -0.5964
  203MOL0     C27311   9.325  10.506   2.291 -0.4734 -0.4440  0.9157
  203MOL0     C27312   9.479  10.519   2.314 -0.0150  0.7633 -0.2997
  203MOL0     C27313   9.504  10.621   2.432 -0.6899  0.7477  0.4199
  203MOL0     C27314   9.652  10.636   2.453 -0.7253 -0.1152  0.8538
  203MOL0    Cl27315   9.686  10.750   2.584  0.0749  0.0822 -0.0368
  203MOL0     C27316   9.265  10.136   1.573 -0.5284  0.4594  0.0838
  203MOL0     C27317   9.158  10.066   1.511  0.5532 -0.6361 -0.7607
  203MOL0     O27318   9.020   9.810   1.538 -0.0813 -0.4638 -0.0284
  203MOL0     C27319   8.806   9.671   1.444  0.3648  0.9704  0.0578
  203MOL0     C27320   8.705   9.606   1.375  0.0588  0.2935 -0.1312
  203MOL0     N27321   7.891   9.247   1.121 -0.1811 -0.2546  1.2094
  203MOL0     N27322   7.859   9.133   1.067  0.2244  0.1846 -0.1166
  203MOL0     C27323   8.860   8.965   1.305 -0.7454  0.3079 -0.2097
  203MOL0     C27324   8.947   9.075   1.289  0.6553 -0.0632 -0.7748
  203MOL0     C27325   9.170   9.408   1.097 -0.6127 -0.0335  0.3107
  203MOL0     C27326   9.108   9.536   1.127 -0.7985  0.3804  0.1836
  203MOL0     C27327   9.182   9.645   1.101  0.0281  0.3504  0.4471
  203MOL0     C27328   9.311   9.648   1.038  0.9141  0.1767 -0.3217
  203MOL0     O27329   9.367   9.770   1.002  0.7974 -0.4657 -0.2456
  203MOL0     C27330   9.281   9.878   0.981 -0.0265  0.4010 -0.8125
  203MOL0     C27331   9.366  10.007   0.967  0.5320  0.0337  0.5928
  203MOL0     C27332   9.281  10.132   0.947 -0.0595 -0.3293  1.0909
  203MOL0     C27333   9.209  10.142   0.808 -0.0702  0.3777  0.7569
  203MOL0     C27334   9.300  10.106   0.699 -0.1205  0.3637 -0.4620
  203MOL0     C27335   9.397  10.082   0.624  0.4315 -0.1584  0.4968
  203MOL0     C27336   9.366   9.523   1.007 -0.1029 -0.6343  0.2610
  203MOL0     C27337   9.295   9.402   1.032 -0.6131 -0.3091  0.4457
  203MOL0     H27338   8.722   9.256   1.096 -1.1761 -3.3686 -3.6016
  203MOL0     H27339   8.597   9.062   1.114 -0.3353  0.5965  0.6487
  203MOL0     H27340   8.655   8.768   1.420 -0.6601 -0.3271  0.7011
  203MOL0     H27341   8.540   8.905   1.375  0.8345  0.5309  0.7712
  203MOL0     H27342   8.526   8.638   1.236  2.2436  1.4426 -0.2098
  203MOL0     H27343   8.472   8.644   1.397  1.6446 -0.4667  0.0736
  203MOL0     H27344   8.296   8.832   1.315  1.6550  0.9839 -0.2635
  203MOL0     H27345   8.387   8.835   1.171  1.5678  2.4767  3.4032
  203MOL0     H27346   8.322   8.614   1.099  3.1092  2.1097 -0.2792
  203MOL0     H27347   8.260   8.571   1.258 -0.3468  0.7608  0.8380
  203MOL0     H27348   8.070   8.612   1.138 -0.9337 -0.7142  2.1448
  203MOL0     H27349   8.084   8.752   1.249 -1.1504  1.4166 -1.6497
  203MOL0     H27350   8.163   8.915   1.102 -1.2755  0.9008 -1.0984
  203MOL0     H27351   8.216   8.789   0.983 -0.5559 -0.3026 -0.3171
  203MOL0     H27352   8.001   8.750   0.906  1.5523 -1.8232  1.2438
  203MOL0     H27353   7.918   8.815   1.040 -0.2437  1.9395 -0.4952
  203MOL0     H27354   7.900   8.958   0.853  0.3223 -3.3187  0.8504
  203MOL0     H27355   8.066   8.981   0.839  0.3825  1.7614  0.2722
  203MOL0     H27356   8.179   9.195   0.979  0.1113  2.8581  1.1643
  203MOL0     H27357   8.106   9.452   1.017 -4.6359  1.9608  1.4833
  203MOL0     H27358   8.056   9.459   1.186 -1.4184 -2.8361  1.8763
  203MOL0     H27359   8.281   9.278   1.143 -0.5226 -0.4423 -0.4644
  203MOL0     H27360   8.240   9.381   1.279  0.0586  2.9055  0.3583
  203MOL0     H27361   8.293   9.577   1.087 -0.5004 -1.0540  0.1445
  203MOL0     H27362   8.406   9.456   1.037 -1.8890 -0.2143 -2.4436
  203MOL0     H27363   8.476   9.441   1.291 -1.6000  0.0463  1.0597
  203MOL0     H27364   8.391   9.579   1.323  1.1445  1.7225 -0.4435
  203MOL0     H27365   8.592   9.874   1.191  3.3893  1.7127 -1.8084
  203MOL0     H27366   8.761  10.098   1.314 -3.3757 -2.9046  2.0795
  203MOL0     H27367   8.904  10.032   1.239 -0.7319  1.9011 -0.3017
  203MOL0     H27368   8.742  10.033   1.152  1.1790  2.1177 -0.9486
  203MOL0     H27369   8.895  10.207   1.684 -0.1429 -1.6129  2.0475
  203MOL0     H27370   9.080  10.359   1.762 -1.5157 -0.4115 -0.6440
  203MOL0     H27371   9.410  10.483   1.784  0.5586  0.6505  2.6456
  203MOL0     H27372   9.239  10.473   1.773 -0.0398  1.0949  1.2296
  203MOL0     H27373   9.217  10.300   1.939 -0.3193  1.4259  0.5107
  203MOL0     H27374   9.395  10.278   1.954 -0.3523 -0.1905 -0.6898
  203MOL0     H27375   9.220  10.510   2.018 -2.0517 -1.9087 -0.5253
  203MOL0     H27376   9.408  10.510   2.029  1.8111 -4.2721  1.6553
  203MOL0     H27377   9.195  10.358   2.192  0.2833  0.9230  0.6647
  203MOL0     H27378   9.359  10.312   2.179  0.4610  0.2163 -1.7873
  203MOL0     H27379   9.264  10.483   2.378 -1.3970 -0.0138  0.4084
  203MOL0     H27380   9.300  10.606   2.254  3.5098  0.2862 -0.2648
  203MOL0     H27381   9.517  10.425   2.357 -1.0454  0.4328 -0.0859
  203MOL0     H27382   9.534  10.538   2.221 -1.9788  2.0769 -1.2648
  203MOL0     H27383   9.473  10.580   2.529  1.2307  2.4030  1.7922
  203MOL0     H27384   9.457  10.718   2.411 -0.6122  0.9349  1.1015
  203MOL0     H27385   9.704  10.647   2.357 -3.0112 -0.7594 -0.5193
  203MOL0     H27386   9.702  10.542   2.480  2.3775  0.2895 -2.5525
  203MOL0     H27387   9.370  10.117   1.557 -0.5011  0.0611  0.6921
  203MOL0     H27388   9.191   9.984   1.449  1.6777 -1.9921  1.4990
  203MOL0     H27389   8.874   9.608   1.501  1.7554  0.9950 -1.4824
  203MOL0     H27390   8.681   9.501   1.384 -1.5048  0.6943  0.8293
  203MOL0     H27391   8.892   8.891   1.377 -0.1265  2.4473  1.8376
  203MOL0     H27392   9.041   9.074   1.343 -1.5383  0.8998  3.4258
  203MOL0     H27393   9.012   9.543   1.175 -0.3319 -1.5369  1.5433
  203MOL0     H27394   9.125   9.735   1.122 -2.1992 -0.7610 -0.4893
  203MOL0     H27395   9.210   9.876   0.898  0.5158 -0.0366 -1.2749
  203MOL0     H27396   9.224   9.895   1.073  0.1487  1.2797 -0.8527
  203MOL0     H27397   9.447  10.010   0.892  1.3872  2.2116  1.5318
  203MOL0     H27398   9.419  10.009   1.062  2.7167 -2.0283 -0.4595
  203MOL0     H27399   9.350  10.216   0.955  1.2455 -1.1413 -0.9904
  203MOL0     H27400   9.209  10.148   1.028 -1.3726 -0.5474  0.0244
  203MOL0     H27401   9.183  10.245   0.782  1.1441  0.1296 -1.8233
  203MOL0     H27402   9.123  10.074   0.803  1.1314 -1.1391 -1.0228
  203MOL0     H27403   9.473  10.066   0.550  0.1836  1.4994 -0.1604
  203MOL0     H27404   9.469   9.538   0.976  0.0793 -0.2489  1.0483
  203MOL0     H27405   9.342   9.308   1.002  2.2845  1.9030 -2.8401
  204MOL0     O27406   0.892  10.135   2.210  0.1288 -0.6236  0.3705
  204MOL0     C27407   0.803  10.169   2.129  0.2448  0.4481 -0.0413
  204MOL0     O27408   0.784  10.109   2.010  0.0685  0.7353  0.5036
  204MOL0     C27409   0.835   9.987   1.971 -0.3556  0.5027 -0.0169
  204MOL0     C27410   0.870   9.978   1.835 -0.6250 -0.0442  0.3341
  204MOL0     C27411   0.901   9.855   1.782 -0.4589 -1.0813  0.2880
  204MOL0     C27412   0.912   9.745   1.860 -0.3305 -0.0803  0.4100
  204MOL0     O27413   0.956   9.631   1.798 -0.2970 -0.6629  0.2426
  204MOL0     C27414   0.991   9.519   1.879 -0.7138 -0.1517 -0.1443
  204MOL0     C27415   1.084   9.434   1.780 -0.3900 -0.1847 -0.0868
  204MOL0     C27416   1.123   9.295   1.842 -0.4020 -0.5719 -0.0831
  204MOL0     C27417   1.226   9.225   1.759 -0.0658 -0.4234  0.6716
  204MOL0     C27418   1.380   9.271   1.768 -0.3255 -0.3158 -0.4259
  204MOL0     C27419   1.449   9.227   1.905 -0.5599  0.5122 -0.8332
  204MOL0     C27420   1.603   9.200   1.889  0.0730  0.1404  0.3228
  204MOL0     C27421   1.688   9.330   1.919  0.8099  0.1530 -0.5060
  204MOL0     N27422   1.665   9.357   2.064  0.5070  0.2816  0.1770
  204MOL0     C27423   1.741   9.312   2.166  0.5802  0.2863 -0.3996
  204MOL0     C27424   1.686   9.368   2.274  0.0901  0.0439 -0.2082
  204MOL0     C27425   1.735   9.359   2.419 -0.6326 -0.3155  0.0581
  204MOL0     C27426   1.866   9.439   2.435 -0.5665  0.5976  0.6809
  204MOL0     C27427   1.909   9.447   2.584 -0.4919  0.1387 -0.0656
  204MOL0     C27428   1.816   9.526   2.678  0.5865 -0.6942  0.1698
  204MOL0     O27429   1.810   9.665   2.646  0.4572  0.3601 -0.3482
  204MOL0     C27430   1.748   9.753   2.723  0.9712 -0.2337 -0.4655
  204MOL0     C27431   1.666   9.727   2.840 -0.1861 -1.1041  0.0892
  204MOL0     C27432   1.613   9.836   2.919 -0.2060 -0.5023  0.7627
  204MOL0     C27433   1.548   9.783   3.050  0.5924  0.1329 -0.0853
  204MOL0     C27434   1.630   9.975   2.880  0.0934 -0.6869  0.5789
  204MOL0     C27435   1.585  10.096   2.953 -1.0260  0.6008  0.1700
  204MOL0     O27436   1.654  10.211   2.920  0.6434  0.0119  0.6236
  204MOL0     C27437   1.629  10.331   2.978  0.7216 -1.0810  0.3633
  204MOL0     C27438   1.596  10.448   2.906  0.0599  0.5172 -0.1771
  204MOL0     C27439   1.602  10.576   2.966 -0.0965 -1.3025 -0.0444
  204MOL0     C27440   1.622  10.589   3.107 -0.2179  0.1684 -0.2463
  204MOL0     O27441   1.599  10.715   3.172  0.6088  0.7609  0.0661
  204MOL0     C27442   1.641  10.831   3.098 -1.0341 -0.1688  0.6740
  204MOL0     C27443   1.664  10.938   3.199 -1.1006 -0.0380  0.3743
  204MOL0     C27444   1.735  11.056   3.134  0.2196 -1.1035 -0.0287
  204MOL0     C27445   1.743  11.177   3.227 -0.6492 -0.5414 -1.1918
  204MOL0     C27446   1.834  11.296   3.172  0.3732  0.6247 -0.0788
  204MOL0     C27447   1.899  11.384   3.280  0.2666  0.4016  0.1559
  204MOL0     C27448   1.801  11.425   3.386 -0.8135 -0.2402  0.0343
  204MOL0     C27449   1.851  11.504   3.501  1.0125 -0.3553  0.4957
  204MOL0    Cl27450   1.709  11.562   3.595 -0.4216  0.4245 -0.0836
  204MOL0     C27451   1.652  10.472   3.178 -0.0306  0.2563 -0.6832
  204MOL0     C27452   1.656  10.346   3.116 -0.1487 -0.4083  0.0874
  204MOL0     O27453   1.501  10.093   3.040 -0.1964  0.3019 -0.4072
  204MOL0     C27454   1.704   9.998   2.761  0.8704  0.5932 -0.0617
  204MOL0     C27455   1.769   9.893   2.699 -0.2969  0.4119  0.3090
  204MOL0     N27456   1.591   9.452   2.233  0.1894  0.1581 -0.4642
  204MOL0     N27457   1.581   9.455   2.106  0.7186 -0.0925 -0.2559
  204MOL0     C27458   0.876   9.756   1.989  0.1005  0.3905 -0.3333
  204MOL0     C27459   0.839   9.876   2.049 -0.2207  0.1332 -0.6455
  204MOL0     C27460   0.689  10.252   2.178  0.0096 -0.1691 -0.1872
  204MOL0     C27461   0.558  10.240   2.116 -0.3101  0.5012  0.1278
  204MOL0     C27462   0.446  10.317   2.147  1.0250 -0.0973 -0.1442
  204MOL0     C27463   0.470  10.416   2.243  0.0612 -0.7471 -0.0507
  204MOL0     O27464   0.364  10.491   2.270  0.1408 -0.2512  0.2646
  204MOL0     C27465   0.367  10.584   2.381 -0.4548 -0.3662  0.8477
  204MOL0     C27466   0.234  10.654   2.414 -0.4861 -0.5098  0.2284
  204MOL0     C27467   0.191  10.764   2.306 -0.3080  0.5794 -0.7213
  204MOL0     C27468   0.075  10.846   2.360  0.7543 -0.5333  0.4561
  204MOL0     C27469   0.093  10.931   2.479  0.3823 -0.2192  0.4589
  204MOL0     C27470   0.115  10.995   2.582 -0.1048  0.2997  0.0760
  204MOL0     C27471   0.598  10.441   2.299 -0.2113  0.3487  0.0429
  204MOL0     C27472   0.709  10.360   2.271  0.4733 -0.1523  0.3698
  204MOL0     H27473   0.861  10.069   1.776  1.7144 -1.0791 -1.7947
  204MOL0     H27474   0.939   9.848   1.680  0.8634  2.1362  0.4685
  204MOL0     H27475   1.049   9.555   1.964 -0.0789 -0.9403 -0.2321
  204MOL0     H27476   0.905   9.457   1.907  0.1120 -0.8536  0.9504
  204MOL0     H27477   1.019   9.411   1.695 -1.7485 -2.1928  1.3945
  204MOL0     H27478   1.174   9.490   1.754 -1.0608  2.6581  3.0458
  204MOL0     H27479   1.167   9.303   1.942  0.4602 -0.7562 -0.4397
  204MOL0     H27480   1.029   9.239   1.841 -0.5399 -0.3678  0.8507
  204MOL0     H27481   1.231   9.119   1.787 -1.1206 -0.5106  0.5727
  204MOL0     H27482   1.185   9.225   1.658 -1.3677 -0.3639  1.1744
  204MOL0     H27483   1.434   9.227   1.684  0.2086 -3.3665  1.3577
  204MOL0     H27484   1.391   9.380   1.763  1.3751 -0.5216 -2.4126
  204MOL0     H27485   1.432   9.286   1.995 -0.3127  1.0087 -1.1066
  204MOL0     H27486   1.407   9.128   1.923 -0.3845  0.3562 -1.2687
  204MOL0     H27487   1.635   9.119   1.955 -1.9640  1.3193  2.9331
  204MOL0     H27488   1.624   9.178   1.784  0.0745  1.7001 -0.0207
  204MOL0     H27489   1.643   9.407   1.856 -3.1872 -0.7141  1.0244
  204MOL0     H27490   1.794   9.314   1.895  0.9500 -1.0610  0.7674
  204MOL0     H27491   1.835   9.258   2.155  0.3742  0.1841 -1.7747
  204MOL0     H27492   1.653   9.403   2.476 -0.2702  0.6183 -0.1298
  204MOL0     H27493   1.754   9.255   2.448 -1.2181 -0.9216 -1.6416
  204MOL0     H27494   1.839   9.537   2.395 -3.7381 -0.1283  0.7127
  204MOL0     H27495   1.950   9.397   2.379 -1.1890  0.3311 -0.0824
  204MOL0     H27496   2.005   9.498   2.589  1.7500 -3.4156 -2.6902
  204MOL0     H27497   1.951   9.357   2.629  1.4963  0.9634 -0.2059
  204MOL0     H27498   1.857   9.522   2.779 -0.9125  1.3903  0.9371
  204MOL0     H27499   1.713   9.490   2.670  0.6505 -0.9262  0.3659
  204MOL0     H27500   1.660   9.623   2.872  0.4683 -0.8005  1.2483
  204MOL0     H27501   1.561   9.842   3.141  3.5955 -1.9102  0.9510
  204MOL0     H27502   1.443   9.754   3.037  1.3408 -2.1782 -1.6135
  204MOL0     H27503   1.590   9.689   3.085 -1.9929 -0.7695  0.8643
  204MOL0     H27504   1.581  10.435   2.799  0.9234  0.5974 -0.3146
  204MOL0     H27505   1.563  10.658   2.908  1.1835  0.6753  1.7452
  204MOL0     H27506   1.733  10.816   3.040 -0.0050  2.1390  1.5733
  204MOL0     H27507   1.572  10.865   3.020  0.5395  1.4124 -0.1142
  204MOL0     H27508   1.564  10.974   3.225  0.3973  2.0357  3.9574
  204MOL0     H27509   1.724  10.897   3.281 -0.9906 -1.4660 -0.3814
  204MOL0     H27510   1.693  11.086   3.038  0.0770  0.5048  0.4990
  204MOL0     H27511   1.839  11.026   3.126 -0.0403 -1.6933 -1.4043
  204MOL0     H27512   1.645  11.217   3.255 -0.6109 -0.7913 -0.6898
  204MOL0     H27513   1.780  11.146   3.325 -1.5413  1.2832 -0.2251
  204MOL0     H27514   1.764  11.359   3.116 -0.8499 -1.1368 -0.6192
  204MOL0     H27515   1.919  11.271   3.108  2.2535  0.7609  2.2445
  204MOL0     H27516   1.978  11.326   3.327  0.9267 -1.0581 -2.5483
  204MOL0     H27517   1.949  11.471   3.236  0.4567 -0.0554 -0.5430
  204MOL0     H27518   1.755  11.340   3.437 -1.1601  0.2608  0.5776
  204MOL0     H27519   1.717  11.483   3.346 -1.5301 -0.6131  0.9496
  204MOL0     H27520   1.899  11.595   3.463  0.3757  0.6291  1.9532
  204MOL0     H27521   1.921  11.448   3.563  1.1939 -0.4163  0.2374
  204MOL0     H27522   1.686  10.491   3.279 -2.8695  2.1587  0.0483
  204MOL0     H27523   1.686  10.269   3.187 -1.9212 -2.2838 -1.0849
  204MOL0     H27524   1.718  10.096   2.718 -1.3096  0.6135 -0.8849
  204MOL0     H27525   1.845   9.920   2.627  0.0223  2.9552  1.5095
  204MOL0     H27526   0.887   9.667   2.050  2.4518 -0.6544 -2.0860
  204MOL0     H27527   0.823   9.874   2.156  1.3989 -4.2503 -0.2769
  204MOL0     H27528   0.557  10.160   2.042 -2.0113 -0.2179  0.8795
  204MOL0     H27529   0.341  10.305   2.120  0.3249 -2.0078  2.8729
  204MOL0     H27530   0.403  10.531   2.470  0.0843 -0.6646  0.4539
  204MOL0     H27531   0.436  10.667   2.366 -1.4738  0.9009  2.7504
  204MOL0     H27532   0.249  10.710   2.507  0.2342 -3.3345  1.9320
  204MOL0     H27533   0.163  10.574   2.438  1.4712 -2.7355 -0.9917
  204MOL0     H27534   0.171  10.717   2.209 -0.1968  0.6527 -0.7803
  204MOL0     H27535   0.272  10.836   2.294 -0.0286 -0.0181 -2.8382
  204MOL0     H27536  -0.011  10.778   2.360  0.4999 -0.2291 -0.4231
  204MOL0     H27537   0.057  10.912   2.275 -0.7455 -4.1028 -2.2355
  204MOL0     H27538   0.136  11.042   2.676 -0.7422  1.1073 -0.1713
  204MOL0     H27539   0.621  10.516   2.374 -1.8093  2.2131 -1.2330
  204MOL0     H27540   0.808  10.364   2.313  1.3878 -1.0177 -1.5615
  205MOL0     O27541   7.654   9.739   3.114 -0.5315 -0.7865  0.3185
  205MOL0     C27542   7.585   9.811   3.182 -1.4208  1.2117 -0.2097
  205MOL0     O27543   7.448   9.823   3.173 -0.7854  0.5691  0.7681
  205MOL0     C27544   7.388   9.741   3.080 -0.0294  0.4555  0.0411
  205MOL0     C27545   7.400   9.599   3.075  0.3941  0.8196 -0.2836
  205MOL0     C27546   7.325   9.525   2.984  0.3686  0.3897  0.7216
  205MOL0     C27547   7.227   9.590   2.912 -0.2716 -0.3481  0.1911
  205MOL0     O27548   7.149   9.505   2.834 -0.2232  0.2802  0.7231
  205MOL0     C27549   7.030   9.551   2.772 -0.0272 -0.0019  1.5501
  205MOL0     C27550   6.946   9.434   2.709 -0.1388  0.5898  0.7242
  205MOL0     C27551   7.027   9.334   2.620  0.3890  0.7150  0.7325
  205MOL0     C27552   6.961   9.194   2.628  0.1022  0.2703  0.6732
  205MOL0     C27553   6.947   9.127   2.763 -0.6508 -0.1337 -0.6792
  205MOL0     C27554   7.077   9.126   2.848  0.0798  0.2018 -0.9404
  205MOL0     C27555   7.032   9.055   2.979 -0.3972  0.5282 -0.1925
  205MOL0     C27556   7.152   8.996   3.053  0.3526  1.0755  0.3897
  205MOL0     N27557   7.098   8.920   3.169 -0.3878  0.7903  0.4827
  205MOL0     C27558   7.054   8.787   3.176 -0.0509 -0.2137  0.4315
  205MOL0     C27559   7.033   8.765   3.303  0.6206 -0.9077 -0.2921
  205MOL0     C27560   6.980   8.640   3.355  0.0757  0.5475 -0.6692
  205MOL0     C27561   7.080   8.583   3.460  0.2547  0.7005 -0.5678
  205MOL0     C27562   7.213   8.541   3.394  0.2322  0.8137  0.3245
  205MOL0     C27563   7.312   8.474   3.498  0.1882 -0.3888 -1.4564
  205MOL0     O27564   7.404   8.399   3.426  0.0332  0.1890  1.1052
  205MOL0     C27565   7.517   8.355   3.486 -0.5807  0.1209  0.6980
  205MOL0     C27566   7.524   8.326   3.623 -0.3634 -0.2096 -0.2128
  205MOL0     C27567   7.627   8.237   3.667  0.5389 -0.7346  0.4405
  205MOL0     C27568   7.602   8.178   3.806  0.4314 -0.1819  1.0274
  205MOL0     C27569   7.744   8.222   3.593 -0.0370 -0.4041 -0.0456
  205MOL0     C27570   7.872   8.166   3.639  0.3920 -0.1976  0.0545
  205MOL0     O27571   7.959   8.137   3.535  0.3828 -0.1973 -0.3527
  205MOL0     C27572   8.082   8.084   3.557  0.0746  0.0882 -0.1625
  205MOL0     C27573   8.129   7.996   3.658  0.3700  0.1409 -0.3167
  205MOL0     C27574   8.260   7.945   3.661 -1.0362 -1.0884 -0.4687
  205MOL0     C27575   8.360   7.976   3.571 -0.2842  0.9565  0.4196
  205MOL0     O27576   8.486   7.915   3.581 -0.2875 -0.8651 -0.3108
  205MOL0     C27577   8.601   8.000   3.541  0.3911  0.6571 -0.4416
  205MOL0     C27578   8.648   8.067   3.666 -0.6259  0.4177  0.2765
  205MOL0     C27579   8.781   8.146   3.639 -0.6233  0.4471 -0.2226
  205MOL0     C27580   8.903   8.057   3.644 -0.6472 -0.0868  0.2816
  205MOL0     C27581   9.026   8.135   3.652 -0.1736  0.6648  0.2232
  205MOL0     C27582   9.150   8.055   3.611 -0.4153  0.2520 -0.2646
  205MOL0     C27583   9.291   8.107   3.666  0.8139  0.1577  0.5560
  205MOL0     C27584   9.403   8.014   3.626  0.1561  0.2847  0.5394
  205MOL0    Cl27585   9.366   7.841   3.662 -0.3288 -0.1710 -0.0241
  205MOL0     C27586   8.317   8.060   3.461  0.1401  0.2563  0.8147
  205MOL0     C27587   8.183   8.112   3.463  0.5462 -0.7760  0.5698
  205MOL0     O27588   7.905   8.161   3.758  0.0740  0.9038 -0.5778
  205MOL0     C27589   7.743   8.279   3.466  0.4690  1.2808  0.0606
  205MOL0     C27590   7.630   8.338   3.410 -0.1896  0.5520 -0.8531
  205MOL0     N27591   7.043   8.892   3.366  0.2335  0.0089  0.0892
  205MOL0     N27592   7.070   8.988   3.284 -0.3659  0.6894 -0.2234
  205MOL0     C27593   7.225   9.725   2.910  0.5183  0.3621  0.2357
  205MOL0     C27594   7.292   9.801   3.006 -1.0458 -0.2788  0.3071
  205MOL0     C27595   7.641   9.880   3.301 -0.1378  0.0753  0.0753
  205MOL0     C27596   7.774   9.923   3.297  0.0148  0.4478 -0.1373
  205MOL0     C27597   7.825   9.980   3.421 -0.5181  0.7559  0.0583
  205MOL0     C27598   7.754   9.993   3.540  0.6009 -0.1514 -0.6479
  205MOL0     O27599   7.787  10.046   3.662  0.2336  1.0387 -0.4873
  205MOL0     C27600   7.936  10.061   3.682  0.8982 -0.2393 -0.3846
  205MOL0     C27601   7.978  10.206   3.647 -0.2112 -0.2102  0.2937
  205MOL0     C27602   8.130  10.216   3.654 -0.4264 -1.2506 -0.7093
  205MOL0     C27603   8.185  10.357   3.658 -0.3299  0.1711 -0.3598
  205MOL0     C27604   8.153  10.425   3.538 -0.0826 -0.1671  0.0886
  205MOL0     C27605   8.141  10.500   3.445  0.4664 -0.4016 -0.0397
  205MOL0     C27606   7.616   9.972   3.528 -0.1555  0.9252  0.3334
  205MOL0     C27607   7.562   9.921   3.411  0.0238  0.7935 -0.1997
  205MOL0     H27608   7.483   9.551   3.127 -0.3813  0.4259  0.6120
  205MOL0     H27609   7.346   9.419   2.983  0.3516  0.1493  5.3419
  205MOL0     H27610   6.967   9.592   2.851 -1.2664  1.9384 -0.3524
  205MOL0     H27611   7.051   9.626   2.695 -0.0436 -1.2391  0.2915
  205MOL0     H27612   6.893   9.378   2.786  0.5276  0.3179  0.9899
  205MOL0     H27613   6.881   9.487   2.639 -2.9939  0.2307  2.9342
  205MOL0     H27614   7.044   9.366   2.516  1.5753 -1.8212  0.0704
  205MOL0     H27615   7.128   9.325   2.661  0.1833  2.5745  1.7491
  205MOL0     H27616   6.860   9.195   2.586 -1.0872 -1.3452  3.2257
  205MOL0     H27617   7.021   9.122   2.571  0.0190  1.8168 -1.5146
  205MOL0     H27618   6.874   9.171   2.831  0.3184 -1.7211  1.5123
  205MOL0     H27619   6.921   9.022   2.746 -0.9166  0.0084 -1.1572
  205MOL0     H27620   7.155   9.070   2.797  0.4132 -0.0097 -0.2132
  205MOL0     H27621   7.109   9.229   2.871 -1.0315  1.3583 -4.0851
  205MOL0     H27622   6.976   9.126   3.041  0.0593  1.1330 -0.4667
  205MOL0     H27623   6.974   8.967   2.948  1.4795 -0.2247 -1.7521
  205MOL0     H27624   7.197   9.087   3.096  0.1830  0.4495  1.9882
  205MOL0     H27625   7.220   8.934   2.994 -1.6714  0.2008 -1.1108
  205MOL0     H27626   7.039   8.723   3.090 -1.1894 -1.3442  1.4339
  205MOL0     H27627   6.888   8.647   3.415  2.2190 -1.4911  3.3113
  205MOL0     H27628   6.965   8.574   3.269  0.1366 -1.0458  0.4910
  205MOL0     H27629   7.033   8.494   3.503 -1.5521  1.4499 -0.9086
  205MOL0     H27630   7.101   8.651   3.542  0.3428  0.4805 -0.4060
  205MOL0     H27631   7.276   8.615   3.344  0.6648  0.6965  0.6996
  205MOL0     H27632   7.198   8.467   3.315  0.8600  1.3753 -0.3294
  205MOL0     H27633   7.253   8.407   3.561  0.9758 -2.6847 -2.9981
  205MOL0     H27634   7.358   8.544   3.568 -1.2325 -3.7693  3.3368
  205MOL0     H27635   7.440   8.351   3.686 -1.5450  0.7820 -2.1064
  205MOL0     H27636   7.508   8.213   3.850 -0.0959  0.1174 -0.2694
  205MOL0     H27637   7.575   8.073   3.792 -2.9409  0.3841  2.3435
  205MOL0     H27638   7.683   8.192   3.878  1.8021  1.2605 -0.6930
  205MOL0     H27639   8.069   7.959   3.741 -0.2925  2.8121  0.4885
  205MOL0     H27640   8.282   7.878   3.744  2.1997  1.0847  0.5950
  205MOL0     H27641   8.676   7.947   3.482 -1.8836 -2.8647 -0.4684
  205MOL0     H27642   8.568   8.089   3.487 -1.2698  1.5518  1.8478
  205MOL0     H27643   8.568   8.131   3.705 -2.0816  0.2203 -2.1628
  205MOL0     H27644   8.672   7.992   3.741 -0.1819  1.4445  1.1753
  205MOL0     H27645   8.787   8.226   3.713 -1.2383 -0.4437  0.8417
  205MOL0     H27646   8.783   8.187   3.538  4.6992  0.0951 -0.5306
  205MOL0     H27647   8.896   7.985   3.725  4.6852  0.3584  1.5188
  205MOL0     H27648   8.913   8.013   3.544 -2.4608  1.4107 -0.6275
  205MOL0     H27649   9.044   8.179   3.751 -1.7303  0.3274  0.6858
  205MOL0     H27650   9.032   8.219   3.583 -1.4627  0.7364  0.1813
  205MOL0     H27651   9.136   7.955   3.653  0.0428  1.1627  2.1950
  205MOL0     H27652   9.153   8.039   3.503  1.3172  0.8767 -0.3342
  205MOL0     H27653   9.296   8.100   3.775 -3.6605  0.8550  1.0106
  205MOL0     H27654   9.293   8.212   3.634  0.6151 -0.7335 -2.7869
  205MOL0     H27655   9.487   8.057   3.680  0.5656  0.8180 -0.5044
  205MOL0     H27656   9.421   8.012   3.519 -1.2155 -1.9534  0.2795
  205MOL0     H27657   8.389   8.075   3.381 -0.0171  4.4062  1.2325
  205MOL0     H27658   8.141   8.186   3.395 -0.2865  1.6459  3.5297
  205MOL0     H27659   7.826   8.277   3.397 -1.2081  0.3260 -2.0551
  205MOL0     H27660   7.622   8.351   3.303  1.1079  0.8376 -0.9292
  205MOL0     H27661   7.153   9.779   2.849  2.7543  3.1865 -0.1147
  205MOL0     H27662   7.278   9.909   3.009  0.9563  0.0109  0.6936
  205MOL0     H27663   7.839   9.919   3.210  1.6539 -5.3203  0.9024
  205MOL0     H27664   7.917  10.037   3.419  1.4478 -2.2248  0.6100
  205MOL0     H27665   7.966  10.035   3.784  0.3589  0.7980  0.0575
  205MOL0     H27666   7.986   9.986   3.621  0.0369  0.2967 -1.7913
  205MOL0     H27667   7.941  10.276   3.722  0.2345 -0.6147  0.9007
  205MOL0     H27668   7.927  10.234   3.554 -2.0895 -2.2819  0.6011
  205MOL0     H27669   8.176  10.158   3.574  2.5871 -0.0868  0.0582
  205MOL0     H27670   8.179  10.180   3.744  1.1902 -0.6506 -1.3185
  205MOL0     H27671   8.294  10.367   3.657 -0.2656 -0.3815  0.2652
  205MOL0     H27672   8.142  10.406   3.746  0.0983  4.3778 -2.2433
  205MOL0     H27673   8.119  10.563   3.361  0.7850 -0.6324 -0.2970
  205MOL0     H27674   7.547   9.981   3.612 -1.1554 -0.2982 -0.3260
  205MOL0     H27675   7.455   9.900   3.412  0.2875 -0.7893 -1.3582
  206MOL0     O27676  11.423   5.665   8.503  0.0106 -0.0184  1.7151
  206MOL0     C27677  11.368   5.720   8.412  1.0293 -0.3055  0.7075
  206MOL0     O27678  11.339   5.850   8.403 -0.8567 -0.8311  0.8918
  206MOL0     C27679  11.345   5.941   8.504 -0.7805  0.9206  0.4860
  206MOL0     C27680  11.342   5.910   8.640  0.0246  1.2297  0.1075
  206MOL0     C27681  11.325   6.010   8.739  0.8124  0.1931  1.0580
  206MOL0     C27682  11.329   6.141   8.695 -0.2757  0.0676  0.3692
  206MOL0     O27683  11.342   6.238   8.789 -0.5728  0.0173 -0.7799
  206MOL0     C27684  11.474   6.260   8.836 -0.6362  0.5377  0.1979
  206MOL0     C27685  11.469   6.359   8.960  0.7450  0.2324  0.5243
  206MOL0     C27686  11.601   6.417   8.989 -1.1152 -0.3468  0.8184
  206MOL0     C27687  11.719   6.334   9.032  0.4187  0.2793  0.4176
  206MOL0     C27688  11.847   6.426   9.058  0.3491 -0.0128  0.2325
  206MOL0     C27689  11.845   6.491   9.191  0.1709 -0.4828 -0.4899
  206MOL0     C27690  11.985   6.542   9.231 -0.1693 -0.3784  0.1138
  206MOL0     C27691  11.987   6.577   9.383 -0.1783  0.5939 -0.6068
  206MOL0     N27692  11.899   6.688   9.419  0.6045 -0.8129  0.5840
  206MOL0     C27693  11.769   6.680   9.464 -0.0378 -0.2476 -0.8012
  206MOL0     C27694  11.700   6.785   9.415 -0.3113 -1.0635 -0.8325
  206MOL0     C27695  11.546   6.814   9.414 -0.1461 -0.7271  0.7895
  206MOL0     C27696  11.483   6.768   9.281  0.1731 -0.5465  0.5139
  206MOL0     C27697  11.335   6.789   9.248 -0.5383 -0.0879  0.0264
  206MOL0     C27698  11.234   6.747   9.370  0.3459 -0.8150 -0.7447
  206MOL0     O27699  11.206   6.608   9.351  0.5234 -0.2420 -0.2085
  206MOL0     C27700  11.295   6.507   9.373  1.2742  0.2109  0.2622
  206MOL0     C27701  11.372   6.509   9.487 -0.0778  0.0119 -0.1236
  206MOL0     C27702  11.467   6.410   9.522 -0.3345  0.0286  0.0269
  206MOL0     C27703  11.553   6.445   9.633 -0.4733  0.1101 -0.0342
  206MOL0     C27704  11.471   6.293   9.450 -0.1089  0.7331  0.7209
  206MOL0     C27705  11.551   6.173   9.480  0.7872 -0.0341  0.9350
  206MOL0     O27706  11.587   6.104   9.375 -0.0522 -0.6807  0.0679
  206MOL0     C27707  11.647   5.976   9.389 -1.1107  0.3142  0.5925
  206MOL0     C27708  11.618   5.877   9.481  0.1288 -0.0445 -0.4676
  206MOL0     C27709  11.696   5.756   9.494 -0.3798  0.8703  0.6816
  206MOL0     C27710  11.793   5.726   9.405 -0.2675  0.8005  0.2928
  206MOL0     O27711  11.864   5.611   9.404  0.3623 -0.1796  0.3578
  206MOL0     C27712  11.840   5.507   9.507  0.1454  1.3131 -0.3560
  206MOL0     C27713  11.721   5.406   9.463  0.0571 -0.1485  0.4689
  206MOL0     C27714  11.713   5.288   9.568 -0.1074 -0.9001  0.1432
  206MOL0     C27715  11.615   5.183   9.533 -0.2870  1.1984 -0.3147
  206MOL0     C27716  11.582   5.070   9.621 -0.7265 -0.4576 -1.0557
  206MOL0     C27717  11.495   4.974   9.540  0.5868  0.2001 -0.6609
  206MOL0     C27718  11.447   4.859   9.637 -0.7796 -0.2095  0.2754
  206MOL0     C27719  11.370   4.755   9.559  1.2262 -0.6133  0.4799
  206MOL0    Cl27720  11.464   4.667   9.444 -0.5644  0.1727 -0.1603
  206MOL0     C27721  11.817   5.824   9.308  0.1605 -0.7365 -0.3948
  206MOL0     C27722  11.744   5.944   9.298  0.0325 -0.1012 -0.8788
  206MOL0     O27723  11.575   6.141   9.593 -0.5541 -0.6158  0.1531
  206MOL0     C27724  11.384   6.291   9.340 -0.1177  0.3679  1.2145
  206MOL0     C27725  11.302   6.398   9.291 -0.4396 -1.0375 -0.3613
  206MOL0     N27726  11.795   6.875   9.376  0.5840 -1.0180 -0.5048
  206MOL0     N27727  11.911   6.824   9.374  0.5415  0.3454 -0.0707
  206MOL0     C27728  11.317   6.170   8.563  0.6744  0.2428 -0.4079
  206MOL0     C27729  11.316   6.075   8.469 -0.2746  0.5290 -0.4628
  206MOL0     C27730  11.326   5.634   8.296 -0.3059  1.0218  0.2323
  206MOL0     C27731  11.235   5.678   8.202  0.0918 -0.5701 -0.1443
  206MOL0     C27732  11.226   5.603   8.080  0.7397  0.1537 -0.2456
  206MOL0     C27733  11.302   5.487   8.056 -0.1012 -0.5567 -0.3667
  206MOL0     O27734  11.281   5.436   7.932  0.1650  0.8201 -0.5077
  206MOL0     C27735  11.316   5.298   7.903 -0.4371 -0.6414 -0.0778
  206MOL0     C27736  11.189   5.225   7.844  0.3275 -0.0170  0.5600
  206MOL0     C27737  11.225   5.076   7.828 -0.4799 -0.0677 -0.2040
  206MOL0     C27738  11.344   5.050   7.736 -0.0017 -1.0836 -1.4925
  206MOL0     C27739  11.336   4.931   7.656  0.3880 -0.6510  0.3824
  206MOL0     C27740  11.320   4.824   7.592  0.1716  0.1956 -0.2144
  206MOL0     C27741  11.384   5.442   8.153 -0.0920  0.5437  0.4455
  206MOL0     C27742  11.397   5.518   8.269  0.3541 -0.1251 -0.0196
  206MOL0     H27743  11.359   5.808   8.675  1.3038  1.2924 -0.2671
  206MOL0     H27744  11.309   5.984   8.844 -1.2258 -1.9002  0.3162
  206MOL0     H27745  11.521   6.166   8.867  0.4150  0.8109 -0.4735
  206MOL0     H27746  11.540   6.300   8.758 -0.5080 -3.7035 -2.1825
  206MOL0     H27747  11.408   6.447   8.935  1.5323  0.1619 -1.8851
  206MOL0     H27748  11.428   6.313   9.051 -1.3900 -2.1410 -1.4924
  206MOL0     H27749  11.630   6.486   8.910 -4.3720  1.9636  1.4776
  206MOL0     H27750  11.588   6.492   9.068 -0.6732  2.1114 -1.3182
  206MOL0     H27751  11.687   6.277   9.120 -1.3007 -0.1222 -0.4237
  206MOL0     H27752  11.731   6.254   8.958 -2.8438 -2.3733  2.4365
  206MOL0     H27753  11.924   6.350   9.047 -0.1476 -0.3192 -1.4026
  206MOL0     H27754  11.856   6.501   8.979  0.5112 -2.4882 -2.2430
  206MOL0     H27755  11.781   6.579   9.196  1.2228  0.2539  0.7217
  206MOL0     H27756  11.806   6.433   9.276 -0.9627  2.8972  1.4653
  206MOL0     H27757  12.066   6.471   9.209  0.2386  0.0193  0.3077
  206MOL0     H27758  12.017   6.632   9.178  0.7375 -0.8840 -0.2170
  206MOL0     H27759  12.094   6.584   9.402 -0.2485  1.6383 -0.4944
  206MOL0     H27760  11.955   6.494   9.446  1.8349  0.6914  0.6219
  206MOL0     H27761  11.731   6.592   9.516  0.4428 -1.3203 -2.2034
  206MOL0     H27762  11.502   6.777   9.507 -0.5441 -0.1260  0.8404
  206MOL0     H27763  11.532   6.922   9.405 -2.9751 -1.1699 -1.9613
  206MOL0     H27764  11.507   6.661   9.270  0.4300 -0.4416  0.0209
  206MOL0     H27765  11.531   6.821   9.198  0.7607 -1.3889  0.3013
  206MOL0     H27766  11.305   6.745   9.152 -0.4280 -0.3894  0.1289
  206MOL0     H27767  11.319   6.897   9.240  2.7611  0.4299 -1.1160
  206MOL0     H27768  11.137   6.797   9.358 -0.2061 -1.5840  0.3506
  206MOL0     H27769  11.290   6.759   9.463  3.5873 -1.2240 -2.5099
  206MOL0     H27770  11.358   6.592   9.556 -0.7652 -0.9423  0.9371
  206MOL0     H27771  11.538   6.548   9.667 -0.8713  0.0120  0.0882
  206MOL0     H27772  11.534   6.381   9.719  0.7862  0.4653  0.5306
  206MOL0     H27773  11.651   6.435   9.585 -1.3520 -0.6748 -1.7590
  206MOL0     H27774  11.551   5.891   9.565 -2.8634 -1.8914 -2.3539
  206MOL0     H27775  11.677   5.698   9.584 -2.3325  0.3537 -0.0124
  206MOL0     H27776  11.931   5.449   9.522 -0.8573 -1.1022 -2.6740
  206MOL0     H27777  11.803   5.545   9.602 -1.0376 -2.5803  0.9636
  206MOL0     H27778  11.624   5.454   9.451 -0.5185 -0.7858  2.2041
  206MOL0     H27779  11.755   5.362   9.369 -2.9981 -0.4481 -0.6067
  206MOL0     H27780  11.682   5.333   9.663 -1.6938  0.2709 -0.8847
  206MOL0     H27781  11.811   5.242   9.586 -0.4799 -1.0247  1.9924
  206MOL0     H27782  11.525   5.240   9.507 -0.7772  0.2673 -0.7013
  206MOL0     H27783  11.660   5.154   9.438 -0.1360  3.1067 -0.8776
  206MOL0     H27784  11.517   5.102   9.703 -2.3091  0.1242 -2.4713
  206MOL0     H27785  11.671   5.021   9.662 -1.1226  1.7296  2.9437
  206MOL0     H27786  11.407   5.028   9.505  0.7709  1.7923  1.1298
  206MOL0     H27787  11.552   4.915   9.468 -1.3920 -3.2184  0.3780
  206MOL0     H27788  11.395   4.903   9.723  3.1990 -1.3149  3.5657
  206MOL0     H27789  11.531   4.803   9.679 -1.3893 -1.2642  0.1352
  206MOL0     H27790  11.282   4.805   9.518  1.1664 -0.6059  0.6150
  206MOL0     H27791  11.331   4.695   9.642 -2.0572  1.1324  0.3594
  206MOL0     H27792  11.888   5.810   9.227  0.5129  3.1770 -0.9399
  206MOL0     H27793  11.777   6.002   9.212 -1.8570 -0.6944 -2.0594
  206MOL0     H27794  11.381   6.196   9.287 -0.6495  1.6155 -1.1488
  206MOL0     H27795  11.240   6.378   9.205  2.6341  0.7925 -3.2335
  206MOL0     H27796  11.291   6.273   8.542 -5.2097 -1.0437 -1.3605
  206MOL0     H27797  11.317   6.090   8.361  0.8214 -0.6912 -0.6500
  206MOL0     H27798  11.168   5.763   8.218 -1.1607 -1.3637 -0.9465
  206MOL0     H27799  11.153   5.642   8.011 -0.2826 -1.9571 -0.4284
  206MOL0     H27800  11.399   5.295   7.832  2.4532  1.4897  2.9441
  206MOL0     H27801  11.341   5.240   7.993 -3.1068  0.6260  1.6299
  206MOL0     H27802  11.163   5.271   7.748 -0.0711 -1.2192  0.0673
  206MOL0     H27803  11.101   5.241   7.907  0.4938  1.9316  0.3686
  206MOL0     H27804  11.137   5.016   7.800  0.4890 -0.7412 -1.9760
  206MOL0     H27805  11.239   5.030   7.927 -1.0095  1.2325  0.5054
  206MOL0     H27806  11.420   5.034   7.813  1.2235 -1.5901 -2.7576
  206MOL0     H27807  11.366   5.143   7.682 -1.1963  3.6484  4.9070
  206MOL0     H27808  11.330   4.744   7.521  0.8304 -1.2899  1.4635
  206MOL0     H27809  11.434   5.346   8.140  1.4515  1.3550  0.1058
  206MOL0     H27810  11.465   5.482   8.346 -2.1618  0.5416  2.6863
  207MOL0     O27811   1.192   9.952   4.793 -0.0184 -0.6207  0.3612
  207MOL0     C27812   1.137   9.862   4.860 -0.5209  0.5618 -0.6953
  207MOL0     O27813   1.156   9.843   4.994 -0.3356 -0.2177  0.4943
  207MOL0     C27814   1.257   9.902   5.064  0.1807 -0.0800 -0.3871
  207MOL0     C27815   1.214  10.009   5.145  0.4828 -0.6401 -0.0346
  207MOL0     C27816   1.284  10.069   5.245  0.2894 -0.3979  1.3849
  207MOL0     C27817   1.414  10.026   5.255  0.5166 -0.0981 -0.6952
  207MOL0     O27818   1.480  10.083   5.358  0.0820  0.2955  0.3362
  207MOL0     C27819   1.610  10.040   5.401  0.1259  0.1089  0.6331
  207MOL0     C27820   1.634  10.093   5.535  1.0355 -0.0895  1.0690
  207MOL0     C27821   1.706  10.226   5.535 -0.2263  1.1044 -0.1603
  207MOL0     C27822   1.723  10.281   5.673 -0.0820 -0.2528 -0.7312
  207MOL0     C27823   1.787  10.423   5.684 -0.1013 -0.1322 -0.1760
  207MOL0     C27824   1.821  10.453   5.829 -0.3067  0.7895 -0.4841
  207MOL0     C27825   1.840  10.610   5.840  0.2061  0.4676 -1.6163
  207MOL0     C27826   1.839  10.650   5.987 -0.2899  0.0604  0.0301
  207MOL0     N27827   1.810  10.797   6.003  0.6592 -0.3042  0.2564
  207MOL0     C27828   1.680  10.846   6.017  0.3719  0.7507  0.1090
  207MOL0     C27829   1.696  10.975   5.984  0.4065 -0.2997  0.7278
  207MOL0     C27830   1.586  11.078   5.992 -0.7763  0.1628 -0.6195
  207MOL0     C27831   1.537  11.109   6.140  0.2454  0.1893  0.0402
  207MOL0     C27832   1.611  11.221   6.217  0.4624 -1.0801 -0.3298
  207MOL0     C27833   1.744  11.195   6.283  0.0036  0.6956  0.1802
  207MOL0     O27834   1.762  11.292   6.384 -0.3817 -0.3467 -0.3704
  207MOL0     C27835   1.889  11.341   6.411  0.5558 -0.6245  0.6350
  207MOL0     C27836   1.896  11.418   6.529  0.0876 -0.4496 -0.2650
  207MOL0     C27837   2.005  11.489   6.561 -0.6208 -0.2988  0.6176
  207MOL0     C27838   1.981  11.586   6.675  0.8296  0.6466  0.8430
  207MOL0     C27839   2.121  11.482   6.485  0.0172 -0.0971  0.4169
  207MOL0     C27840   2.250  11.557   6.507  0.9095  0.4270  0.5111
  207MOL0     O27841   2.351  11.522   6.415 -0.2873 -0.0822  0.4530
  207MOL0     C27842   2.482  11.575   6.441 -0.6097  0.0736 -0.4579
  207MOL0     C27843   2.510  11.709   6.423  0.2927 -0.3239  0.9662
  207MOL0     C27844   2.636  11.757   6.439 -0.8652 -1.0532 -0.3358
  207MOL0     C27845   2.738  11.674   6.490 -0.3576 -0.4546 -0.3486
  207MOL0     O27846   2.858  11.739   6.517 -0.5102 -0.2272  0.1323
  207MOL0     C27847   2.955  11.675   6.603 -0.7687 -0.4531  0.2793
  207MOL0     C27848   2.921  11.685   6.758 -0.3174 -0.2601  0.4830
  207MOL0     C27849   2.937  11.824   6.828 -0.3005  0.4254 -0.4238
  207MOL0     C27850   2.892  11.806   6.983  0.2819  0.4618 -0.0181
  207MOL0     C27851   2.929  11.939   7.053  0.3816 -0.1703  0.1851
  207MOL0     C27852   3.079  11.975   7.055  0.3058  0.5626 -0.2449
  207MOL0     C27853   3.159  11.887   7.150  0.7339  0.3325  1.2224
  207MOL0     C27854   3.286  11.935   7.197 -0.1066 -0.0492  0.1208
  207MOL0    Cl27855   3.417  11.918   7.070 -0.2514 -0.0354 -0.1259
  207MOL0     C27856   2.713  11.539   6.514 -0.6870  0.2903 -0.0355
  207MOL0     C27857   2.590  11.488   6.476  0.4113 -0.2660 -0.4536
  207MOL0     O27858   2.259  11.628   6.606 -0.4245  0.1380 -0.0776
  207MOL0     C27859   2.120  11.390   6.377  0.2830  1.1603  0.5244
  207MOL0     C27860   2.012  11.314   6.341  0.6833 -1.0297 -0.2269
  207MOL0     N27861   1.837  11.001   5.961 -0.2478  0.3061 -0.1000
  207MOL0     N27862   1.906  10.892   5.963 -0.5090  0.2014  1.1394
  207MOL0     C27863   1.463   9.918   5.171  0.2711 -0.1809 -0.3851
  207MOL0     C27864   1.385   9.854   5.074 -0.3364 -0.0727 -0.0898
  207MOL0     C27865   1.044   9.763   4.780 -0.5502 -0.5630 -0.2450
  207MOL0     C27866   1.004   9.795   4.648 -0.3656  1.4456 -0.1978
  207MOL0     C27867   0.934   9.700   4.578 -0.4661 -0.6925 -0.0584
  207MOL0     C27868   0.887   9.577   4.633 -0.4232 -0.5188 -0.0688
  207MOL0     O27869   0.825   9.491   4.550  0.5635  0.7300 -0.0026
  207MOL0     C27870   0.760   9.368   4.605  0.4777  0.1564  0.7171
  207MOL0     C27871   0.733   9.258   4.516 -0.1243  0.5521  0.0539
  207MOL0     C27872   0.869   9.203   4.451  0.5933  1.0364 -0.5622
  207MOL0     C27873   0.851   9.070   4.372 -0.6936 -0.5877  0.1655
  207MOL0     C27874   0.929   9.070   4.243  0.3962 -0.0969  0.0269
  207MOL0     C27875   0.993   9.070   4.144 -0.2936 -0.1963 -0.0083
  207MOL0     C27876   0.910   9.562   4.771  0.1627  1.0049  0.1286
  207MOL0     C27877   0.997   9.644   4.840  0.0351 -0.5286  0.1298
  207MOL0     H27878   1.119  10.057   5.125  2.7432  4.4983  0.0908
  207MOL0     H27879   1.219  10.139   5.298 -2.6016  0.7985 -3.1071
  207MOL0     H27880   1.616   9.931   5.405  1.4879  0.0327 -1.6187
  207MOL0     H27881   1.693  10.066   5.335  0.4370 -2.6112 -0.1762
  207MOL0     H27882   1.538  10.090   5.587  0.8259 -1.7713  0.6567
  207MOL0     H27883   1.694  10.018   5.587  0.9985  0.1596  1.4713
  207MOL0     H27884   1.807  10.220   5.492  0.7340 -0.7627  2.1359
  207MOL0     H27885   1.670  10.310   5.475  2.0910  2.3014  0.0001
  207MOL0     H27886   1.627  10.288   5.724  1.4795  3.0448  2.1985
  207MOL0     H27887   1.789  10.212   5.726  0.8228 -0.4179 -2.0229
  207MOL0     H27888   1.880  10.425   5.626 -0.4626  0.0199 -0.7679
  207MOL0     H27889   1.708  10.489   5.646 -1.1112 -0.5455  1.1406
  207MOL0     H27890   1.745  10.413   5.897  0.3263  0.6504  0.1559
  207MOL0     H27891   1.912  10.415   5.877  0.4148  1.6320 -1.1603
  207MOL0     H27892   1.925  10.656   5.789 -1.2688  1.0399 -3.6818
  207MOL0     H27893   1.750  10.651   5.793 -1.5689 -0.6297  0.5904
  207MOL0     H27894   1.937  10.621   6.028 -0.5629 -0.3097  0.4307
  207MOL0     H27895   1.762  10.594   6.040 -0.7711  0.5222 -0.1806
  207MOL0     H27896   1.590  10.787   6.029  1.8789 -2.2626 -2.1912
  207MOL0     H27897   1.621  11.163   5.931  0.6658  1.6974  2.1716
  207MOL0     H27898   1.499  11.043   5.936 -0.7455 -0.0924 -0.5069
  207MOL0     H27899   1.555  11.022   6.203 -0.9061  0.1914  0.4029
  207MOL0     H27900   1.429  11.128   6.146  0.3479  0.7933  0.0338
  207MOL0     H27901   1.546  11.247   6.301  2.9373 -0.4056  1.4852
  207MOL0     H27902   1.639  11.312   6.161  4.2539 -1.2495  0.9939
  207MOL0     H27903   1.810  11.207   6.196  0.9557 -2.1217  0.4398
  207MOL0     H27904   1.759  11.095   6.325 -2.6983  0.3521  0.4878
  207MOL0     H27905   1.806  11.429   6.590  0.6341 -0.7099  0.6116
  207MOL0     H27906   1.998  11.689   6.644 -3.2163  0.8698 -1.4148
  207MOL0     H27907   1.877  11.587   6.711  0.3138 -0.3459 -0.5203
  207MOL0     H27908   2.042  11.559   6.762  0.1872 -0.8544  0.8676
  207MOL0     H27909   2.428  11.767   6.381 -0.6894 -1.9589  0.5272
  207MOL0     H27910   2.655  11.863   6.421 -0.3330 -1.2874 -1.2540
  207MOL0     H27911   2.963  11.568   6.583  2.0445 -0.7723  2.3601
  207MOL0     H27912   3.054  11.718   6.586  0.0272 -1.9507  0.9024
  207MOL0     H27913   2.816  11.657   6.766 -0.8439  1.3346 -0.4318
  207MOL0     H27914   2.983  11.613   6.812  0.2682 -0.8906 -1.0028
  207MOL0     H27915   2.884  11.898   6.768  1.7441  2.4465  0.1459
  207MOL0     H27916   3.042  11.854   6.831  0.1315 -1.0686  1.0131
  207MOL0     H27917   2.786  11.780   6.995 -0.4951  2.7561 -1.3615
  207MOL0     H27918   2.946  11.724   7.032 -1.9453 -1.5296 -0.6719
  207MOL0     H27919   2.903  11.931   7.159  0.8887 -0.0301  0.3241
  207MOL0     H27920   2.869  12.022   7.015  2.4342  1.2475 -0.1558
  207MOL0     H27921   3.124  11.982   6.955  3.4275  4.8665  1.1260
  207MOL0     H27922   3.077  12.080   7.088 -1.3114 -0.1973  2.3470
  207MOL0     H27923   3.169  11.787   7.108 -0.1608  1.6318 -2.4028
  207MOL0     H27924   3.098  11.893   7.241  0.2115  2.8606  0.7779
  207MOL0     H27925   3.331  11.889   7.286 -0.4207 -0.8931 -0.1486
  207MOL0     H27926   3.264  12.038   7.224 -1.3462 -0.7395  1.9774
  207MOL0     H27927   2.790  11.470   6.547 -0.2327  1.1976  0.8515
  207MOL0     H27928   2.556  11.386   6.485 -1.3765  0.3956  1.0766
  207MOL0     H27929   2.205  11.371   6.313 -2.6747  1.5325 -3.9237
  207MOL0     H27930   2.017  11.247   6.256  4.1440 -0.2462 -0.8009
  207MOL0     H27931   1.557   9.870   5.197 -0.2266 -1.1365 -0.3078
  207MOL0     H27932   1.416   9.771   5.012  0.6984  0.6592 -0.5701
  207MOL0     H27933   1.033   9.889   4.601 -0.3988  0.6056 -1.9959
  207MOL0     H27934   0.926   9.707   4.470 -2.9427 -3.5227 -0.1828
  207MOL0     H27935   0.816   9.321   4.686  0.8560 -0.2975  0.1974
  207MOL0     H27936   0.668   9.392   4.659 -0.7977  0.1421 -1.3676
  207MOL0     H27937   0.663   9.287   4.437  1.0729  0.0112 -1.2371
  207MOL0     H27938   0.702   9.179   4.586 -0.3373  0.1233 -0.5172
  207MOL0     H27939   0.940   9.173   4.528 -0.7064  0.6569  0.5284
  207MOL0     H27940   0.921   9.280   4.394  0.1286 -0.0407 -2.5305
  207MOL0     H27941   0.746   9.043   4.363 -0.7973 -0.8694  1.9978
  207MOL0     H27942   0.898   8.996   4.437  1.8760  1.2233  0.5405
  207MOL0     H27943   1.046   9.095   4.055  2.8762 -0.4029  1.6944
  207MOL0     H27944   0.877   9.476   4.829 -3.2881  1.6333 -0.6331
  207MOL0     H27945   1.015   9.642   4.947  0.7139  3.7952  0.2969
  208MOL0     O27946   0.722   7.981   8.391  0.6247  0.0438  0.8466
  208MOL0     C27947   0.785   7.904   8.465  0.3416  0.2745 -0.7112
  208MOL0     O27948   0.740   7.858   8.593 -0.4370  1.4675  0.6133
  208MOL0     C27949   0.607   7.856   8.635  1.0547 -0.0477 -1.1188
  208MOL0     C27950   0.533   7.975   8.651  0.3083  0.6737 -0.3276
  208MOL0     C27951   0.410   7.967   8.711 -0.1870  0.4206  0.1657
  208MOL0     C27952   0.353   7.852   8.756 -1.6505  0.4576  0.7713
  208MOL0     O27953   0.236   7.873   8.821 -0.0442  1.0183 -0.4419
  208MOL0     C27954   0.133   7.768   8.820  0.3071 -0.5959 -0.5955
  208MOL0     C27955   0.011   7.836   8.903  0.1025  0.3214 -0.7469
  208MOL0     C27956  -0.105   7.732   8.906  0.1412  0.1460  0.1641
  208MOL0     C27957  -0.070   7.603   8.976  0.0833 -0.2979 -0.1632
  208MOL0     C27958   0.012   7.621   9.111  0.3655  0.3826 -0.8251
  208MOL0     C27959   0.006   7.495   9.192 -0.2544  0.2002 -0.8659
  208MOL0     C27960   0.106   7.520   9.305 -0.7831 -0.3677  0.3703
  208MOL0     C27961   0.129   7.402   9.401 -0.7387  0.3245  0.6338
  208MOL0     N27962   0.265   7.388   9.438  0.8569  0.4951  0.3406
  208MOL0     C27963   0.331   7.272   9.428  0.7525  1.4106 -0.4812
  208MOL0     C27964   0.455   7.289   9.474 -1.2815 -0.1543 -0.0422
  208MOL0     C27965   0.581   7.198   9.482  0.5535  0.6830 -0.5981
  208MOL0     C27966   0.597   7.151   9.630  0.5761  1.0578 -0.7870
  208MOL0     C27967   0.729   7.082   9.656 -1.3841  0.5374 -0.4234
  208MOL0     C27968   0.738   7.047   9.800  0.0625  0.0505 -0.7389
  208MOL0     O27969   0.619   6.972   9.850 -0.1127  0.1012 -0.4627
  208MOL0     C27970   0.606   6.969   9.991  0.5398 -0.5185  0.4327
  208MOL0     C27971   0.475   6.934  10.024  0.0169 -0.2786 -0.4072
  208MOL0     C27972   0.440   6.907  10.159 -0.6241 -0.8916  0.7021
  208MOL0     C27973   0.321   6.824  10.189  0.1047  0.1351  0.3865
  208MOL0     C27974   0.534   6.947  10.259 -0.9605  0.0094 -0.2403
  208MOL0     C27975   0.516   6.914  10.396  0.4611 -0.0721 -0.6690
  208MOL0     O27976   0.631   6.877  10.458 -0.4566  0.9386 -0.3887
  208MOL0     C27977   0.641   6.861  10.595  0.0125 -0.8420  0.2598
  208MOL0     C27978   0.554   6.920  10.693  0.2558 -0.0915  0.0108
  208MOL0     C27979   0.590   6.910  10.829 -1.0866  0.6913 -0.5821
  208MOL0     C27980   0.701   6.841  10.872 -0.4572  0.0552 -0.0375
  208MOL0     O27981   0.744   6.842  10.999 -0.7260  0.5311 -0.9426
  208MOL0     C27982   0.654   6.794  11.092 -0.4878  1.4237  0.8117
  208MOL0     C27983   0.679   6.814  11.245 -1.1148  0.3551  0.3091
  208MOL0     C27984   0.805   6.748  11.281 -0.3475  0.8832 -0.3201
  208MOL0     C27985   0.824   6.730  11.427 -0.8304 -0.5421  1.3287
  208MOL0     C27986   0.965   6.675  11.445 -0.2861  0.6077 -0.1485
  208MOL0     C27987   1.000   6.657  11.601 -0.1475  0.3610  0.2884
  208MOL0     C27988   1.141   6.607  11.632 -0.9891 -0.9744  0.1983
  208MOL0     C27989   1.177   6.637  11.774  0.1638  0.4065  0.5420
  208MOL0    Cl27990   1.052   6.587  11.881  0.0557  0.3649  0.4769
  208MOL0     C27991   0.778   6.776  10.775 -0.0965  2.0601 -0.8287
  208MOL0     C27992   0.754   6.790  10.641 -0.4142  0.6477  0.3742
  208MOL0     O27993   0.407   6.944  10.453 -0.9125  0.4967  0.0915
  208MOL0     C27994   0.658   7.000  10.216 -1.5378 -0.3998  0.6770
  208MOL0     C27995   0.697   7.011  10.088 -0.3794 -0.5393 -0.1283
  208MOL0     N27996   0.463   7.418   9.514 -0.5345 -0.3740  0.3346
  208MOL0     N27997   0.358   7.475   9.490 -0.4369 -0.3792  0.3501
  208MOL0     C27998   0.427   7.732   8.740  0.2982 -0.7797  0.4251
  208MOL0     C27999   0.560   7.733   8.684 -0.4912  0.2519  0.5352
  208MOL0     C28000   0.907   7.854   8.412  1.0911  0.2704 -0.3718
  208MOL0     C28001   1.005   7.817   8.498  0.6631  0.1603 -0.5085
  208MOL0     C28002   1.134   7.784   8.455  0.0730 -1.2970 -0.1973
  208MOL0     C28003   1.160   7.787   8.322 -1.0788  0.6009 -0.4985
  208MOL0     O28004   1.292   7.757   8.281 -0.1569 -0.2610  0.4682
  208MOL0     C28005   1.328   7.723   8.151 -0.3913  0.3161  1.2567
  208MOL0     C28006   1.407   7.593   8.149  0.0521 -0.6237  0.1366
  208MOL0     C28007   1.334   7.470   8.197 -0.7797 -0.2103  0.1254
  208MOL0     C28008   1.436   7.351   8.216 -0.3124  0.0800 -0.4772
  208MOL0     C28009   1.502   7.362   8.345  0.1955  0.0230 -0.3130
  208MOL0     C28010   1.539   7.356   8.466 -0.3120  0.1534  0.5313
  208MOL0     C28011   1.065   7.825   8.227 -0.5123  0.4122  0.1603
  208MOL0     C28012   0.940   7.864   8.273 -0.1186  0.0004  0.1591
  208MOL0     H28013   0.563   8.073   8.616  2.5145 -0.7200 -2.7063
  208MOL0     H28014   0.356   8.061   8.724 -0.5008  0.2030  0.4656
  208MOL0     H28015   0.106   7.750   8.716 -0.7420  0.0226 -0.4416
  208MOL0     H28016   0.167   7.674   8.866 -2.7476 -0.7936  1.5720
  208MOL0     H28017   0.040   7.866   9.004  0.9635 -1.7618 -0.3190
  208MOL0     H28018  -0.018   7.926   8.848 -2.2069  0.0882 -0.0246
  208MOL0     H28019  -0.186   7.788   8.954 -0.3600  0.8864 -1.4573
  208MOL0     H28020  -0.142   7.712   8.805 -2.6426  0.3694  1.0644
  208MOL0     H28021  -0.165   7.549   8.981 -0.3563  0.0917 -2.6712
  208MOL0     H28022  -0.006   7.544   8.910  0.5275 -0.0074  0.0065
  208MOL0     H28023   0.113   7.661   9.098  0.1156  0.9758 -0.9898
  208MOL0     H28024  -0.039   7.696   9.172  1.1397  1.5997 -1.6341
  208MOL0     H28025  -0.089   7.467   9.240  0.6613  0.4996  1.2386
  208MOL0     H28026   0.048   7.417   9.129  3.2985  0.3826  0.9882
  208MOL0     H28027   0.200   7.553   9.261 -0.4067  1.2531  2.2637
  208MOL0     H28028   0.075   7.600   9.373  1.6618  0.4090  0.6666
  208MOL0     H28029   0.111   7.312   9.343  0.7648 -0.2949  1.0625
  208MOL0     H28030   0.061   7.402   9.487 -1.8875  0.3402 -0.2569
  208MOL0     H28031   0.298   7.181   9.378 -0.2260  0.2232  2.1502
  208MOL0     H28032   0.567   7.110   9.420  0.4129  0.7006 -0.5924
  208MOL0     H28033   0.670   7.257   9.459  1.2685  0.4962  1.4967
  208MOL0     H28034   0.511   7.088   9.655  1.0372  0.1959 -1.3244
  208MOL0     H28035   0.587   7.247   9.681 -0.2805  0.5530  0.0167
  208MOL0     H28036   0.808   7.153   9.631  0.3502 -1.1957 -0.1438
  208MOL0     H28037   0.739   6.983   9.609  2.5403  0.5598  0.0548
  208MOL0     H28038   0.755   7.139   9.857  1.3797 -0.8377  0.3287
  208MOL0     H28039   0.826   6.989   9.826  1.0933  2.0454  0.5057
  208MOL0     H28040   0.407   6.901   9.946 -1.0632  3.3921 -1.2169
  208MOL0     H28041   0.238   6.889  10.218  0.2859  0.3303  0.4617
  208MOL0     H28042   0.299   6.751  10.110 -1.1789  2.0588 -1.1570
  208MOL0     H28043   0.340   6.763  10.278  0.3468 -1.3122 -0.6230
  208MOL0     H28044   0.480   6.995  10.667  1.0786  1.5280  2.0275
  208MOL0     H28045   0.524   6.957  10.901 -0.9893 -1.0401  0.7189
  208MOL0     H28046   0.551   6.829  11.087 -1.0149  0.2531  2.4354
  208MOL0     H28047   0.651   6.686  11.076  1.3530  1.7624 -2.8402
  208MOL0     H28048   0.690   6.917  11.280  0.5975  0.5669 -0.7456
  208MOL0     H28049   0.588   6.790  11.301 -0.9087  1.5623  1.2037
  208MOL0     H28050   0.890   6.804  11.241  0.0875  1.4275  1.2906
  208MOL0     H28051   0.803   6.650  11.231 -1.9562 -1.2130  3.4149
  208MOL0     H28052   0.806   6.821  11.485 -0.0930 -1.6987  3.4624
  208MOL0     H28053   0.738   6.670  11.460 -0.8936 -1.2224  0.0179
  208MOL0     H28054   1.050   6.721  11.394  1.4067 -2.7311 -0.6016
  208MOL0     H28055   0.973   6.573  11.406 -3.0914  1.5479 -3.6898
  208MOL0     H28056   0.981   6.754  11.647  2.4500  0.4961  1.2312
  208MOL0     H28057   0.935   6.589  11.656  1.3628 -0.4846  1.0735
  208MOL0     H28058   1.213   6.650  11.561 -1.9261  0.7868  0.2654
  208MOL0     H28059   1.148   6.498  11.625  2.0563 -1.0651  2.4807
  208MOL0     H28060   1.202   6.742  11.793 -1.6089  1.0302 -0.3456
  208MOL0     H28061   1.270   6.580  11.786 -1.3495 -2.3174  0.1662
  208MOL0     H28062   0.864   6.714  10.800 -2.8272 -1.2756  1.2123
  208MOL0     H28063   0.828   6.739  10.580  0.2417  3.0826 -0.9619
  208MOL0     H28064   0.730   7.025  10.294  0.1305  0.9808 -1.2296
  208MOL0     H28065   0.797   7.051  10.073  0.2058 -0.3782  3.3857
  208MOL0     H28066   0.374   7.642   8.770 -0.0498 -0.9192 -0.5767
  208MOL0     H28067   0.623   7.644   8.684 -1.9207 -0.7990  1.0273
  208MOL0     H28068   0.988   7.804   8.604  2.2794 -1.9987 -0.4443
  208MOL0     H28069   1.218   7.765   8.521  1.4544 -0.1620 -1.5560
  208MOL0     H28070   1.249   7.708   8.076  1.0584  0.3031 -0.3112
  208MOL0     H28071   1.394   7.800   8.110  0.8776 -0.7006  1.3278
  208MOL0     H28072   1.497   7.600   8.210 -1.3223 -3.4955  2.7729
  208MOL0     H28073   1.430   7.576   8.044 -2.0300 -0.6293 -0.3702
  208MOL0     H28074   1.259   7.452   8.119  1.7194 -0.4503 -2.3754
  208MOL0     H28075   1.281   7.492   8.290  0.7165  6.1669 -0.0032
  208MOL0     H28076   1.511   7.345   8.136  1.9632  1.7699  1.3567
  208MOL0     H28077   1.377   7.259   8.220 -0.6592  0.2806 -0.9869
  208MOL0     H28078   1.575   7.331   8.564 -0.3931  0.7382  0.7157
  208MOL0     H28079   1.086   7.823   8.120 -0.3642  0.4451  0.1893
  208MOL0     H28080   0.857   7.888   8.207 -1.2891  2.7658  2.3953
  209MOL0     O28081   3.294   1.248   2.842  0.4408  0.0823  0.2625
  209MOL0     C28082   3.277   1.147   2.906  0.4699 -0.5700 -0.2545
  209MOL0     O28083   3.256   1.024   2.853 -0.4424 -1.0821  0.0244
  209MOL0     C28084   3.260   1.020   2.716  0.3322 -0.1911  0.2976
  209MOL0     C28085   3.352   0.939   2.657 -0.2222 -0.4878 -0.1697
  209MOL0     C28086   3.326   0.899   2.523 -0.0441  0.0494 -0.8311
  209MOL0     C28087   3.232   0.954   2.444 -1.2741 -0.4289  0.2388
  209MOL0     O28088   3.213   0.924   2.308 -0.2138 -0.4718 -0.0748
  209MOL0     C28089   3.247   0.787   2.270 -1.7303  0.6059 -0.4340
  209MOL0     C28090   3.376   0.778   2.181 -0.2401 -0.0265 -0.6124
  209MOL0     C28091   3.395   0.641   2.141  0.1950 -0.5618 -0.5156
  209MOL0     C28092   3.526   0.625   2.064 -0.2097  0.2161  0.2667
  209MOL0     C28093   3.508   0.686   1.928 -0.1549  0.6955  0.0900
  209MOL0     C28094   3.643   0.674   1.852 -0.1623 -0.8594 -0.4574
  209MOL0     C28095   3.629   0.695   1.697  0.5408  0.2472 -0.8441
  209MOL0     C28096   3.760   0.720   1.625 -0.3075  0.9317 -0.4218
  209MOL0     N28097   3.849   0.605   1.644  0.4757 -0.0219 -0.0919
  209MOL0     C28098   3.894   0.572   1.761 -0.1249  1.1119  0.4725
  209MOL0     C28099   3.914   0.443   1.751 -0.8579 -0.2007 -0.1721
  209MOL0     C28100   3.973   0.357   1.870  0.6717 -0.1165  0.0720
  209MOL0     C28101   4.114   0.391   1.894  0.3106 -0.4919 -0.5724
  209MOL0     C28102   4.184   0.376   1.761 -0.1125 -0.2373 -0.4245
  209MOL0     C28103   4.323   0.409   1.784 -0.5146 -0.2327 -0.6547
  209MOL0     O28104   4.356   0.551   1.786  0.2163 -0.0199 -0.2247
  209MOL0     C28105   4.487   0.594   1.784 -0.4501  0.3209  0.4874
  209MOL0     C28106   4.528   0.643   1.661  0.6918  0.5329  0.1962
  209MOL0     C28107   4.662   0.677   1.633  0.4985 -0.2250 -1.2064
  209MOL0     C28108   4.684   0.733   1.502  0.0781  0.7180  0.5361
  209MOL0     C28109   4.755   0.660   1.740 -0.8069  0.3766 -0.9054
  209MOL0     C28110   4.896   0.671   1.712 -0.5032  0.6075  0.8397
  209MOL0     O28111   4.977   0.634   1.812 -0.0532 -0.7759 -0.6764
  209MOL0     C28112   5.114   0.656   1.816 -0.0660  0.2359  0.6719
  209MOL0     C28113   5.203   0.669   1.708 -0.5478  0.3241  0.0604
  209MOL0     C28114   5.348   0.671   1.718  0.5945  0.0300  0.0246
  209MOL0     C28115   5.396   0.650   1.851 -0.7428  0.4788 -0.2002
  209MOL0     O28116   5.533   0.643   1.877 -1.0206 -0.6204  0.5308
  209MOL0     C28117   5.616   0.592   1.770  0.4120 -0.3950  0.6379
  209MOL0     C28118   5.750   0.559   1.826  0.4141  0.9074  0.3423
  209MOL0     C28119   5.844   0.492   1.718  0.1350 -0.5608  0.4842
  209MOL0     C28120   5.972   0.449   1.773  0.1125 -0.0776  0.5172
  209MOL0     C28121   6.061   0.553   1.843  1.1342 -0.5012  0.2210
  209MOL0     C28122   6.218   0.521   1.840  0.5999  0.0022 -0.2799
  209MOL0     C28123   6.311   0.635   1.818  0.3963  0.2650 -0.0658
  209MOL0     C28124   6.460   0.603   1.850 -0.0057  0.7863 -0.0980
  209MOL0    Cl28125   6.517   0.459   1.771 -0.3526 -0.5560 -0.2811
  209MOL0     C28126   5.318   0.664   1.961 -0.2772  0.3380  0.1546
  209MOL0     C28127   5.174   0.658   1.944  0.2998 -0.3071 -0.1932
  209MOL0     O28128   4.936   0.730   1.613 -0.9344  0.2701 -0.6151
  209MOL0     C28129   4.711   0.621   1.866 -0.1447  0.0040 -0.0953
  209MOL0     C28130   4.575   0.591   1.891 -0.9012  0.2471  0.7202
  209MOL0     N28131   3.883   0.393   1.624  0.2505  0.0232 -0.3132
  209MOL0     N28132   3.850   0.494   1.561  0.1088 -0.6303  0.3415
  209MOL0     C28133   3.143   1.036   2.510  0.1485 -0.0204  0.6256
  209MOL0     C28134   3.160   1.072   2.640  0.6161  0.9413  0.4296
  209MOL0     C28135   3.265   1.150   3.053  0.2259 -0.2174  0.7076
  209MOL0     C28136   3.296   1.268   3.120 -0.3977 -0.0401 -0.6036
  209MOL0     C28137   3.271   1.291   3.257  0.2195  1.5108  0.0548
  209MOL0     C28138   3.231   1.184   3.329  1.4857  0.3507  0.3159
  209MOL0     O28139   3.198   1.195   3.460 -0.4957  0.5053 -0.1901
  209MOL0     C28140   3.173   1.089   3.553  0.5431  0.4035 -0.1295
  209MOL0     C28141   3.125   1.150   3.688  0.1095  1.0026 -0.8118
  209MOL0     C28142   3.118   1.062   3.811 -0.2608 -0.5540  0.1677
  209MOL0     C28143   3.000   0.960   3.819 -0.1358 -0.1946  1.5723
  209MOL0     C28144   3.027   0.883   3.938 -0.1374 -0.1661  0.8822
  209MOL0     C28145   3.069   0.817   4.026 -0.2942  0.2233 -1.4791
  209MOL0     C28146   3.200   1.062   3.262  0.5689  0.6084  0.5545
  209MOL0     C28147   3.215   1.042   3.129  0.3266  0.3792 -0.0491
  209MOL0     H28148   3.447   0.913   2.702  0.5460 -0.3808 -1.6681
  209MOL0     H28149   3.394   0.830   2.475 -1.1561 -1.9786  0.3465
  209MOL0     H28150   3.250   0.716   2.353 -0.4183 -1.5918 -2.2595
  209MOL0     H28151   3.158   0.758   2.213 -3.8586  1.5721  2.1743
  209MOL0     H28152   3.359   0.836   2.090 -2.2798  0.1728 -0.1568
  209MOL0     H28153   3.466   0.815   2.230 -0.3876 -1.0208  0.4504
  209MOL0     H28154   3.387   0.599   2.242 -2.3926  2.6458  0.7850
  209MOL0     H28155   3.309   0.594   2.092 -0.9225 -0.3840  1.1915
  209MOL0     H28156   3.600   0.688   2.114  1.6569 -0.8390 -1.0206
  209MOL0     H28157   3.553   0.519   2.072  0.2397  0.4701  3.0997
  209MOL0     H28158   3.433   0.623   1.879 -0.6411 -1.4009  3.2629
  209MOL0     H28159   3.465   0.787   1.928  2.0642  1.7364 -1.1928
  209MOL0     H28160   3.721   0.738   1.896  0.0229 -0.4016 -1.4265
  209MOL0     H28161   3.675   0.572   1.876 -0.8951 -0.8729  0.5313
  209MOL0     H28162   3.575   0.610   1.653  0.5618 -0.1377 -0.1398
  209MOL0     H28163   3.569   0.786   1.691 -0.9117 -0.5984  0.1776
  209MOL0     H28164   3.814   0.811   1.653  0.6718  1.7971 -4.4465
  209MOL0     H28165   3.737   0.729   1.518  1.5432 -0.1046 -0.9557
  209MOL0     H28166   3.911   0.639   1.845 -0.2438  2.4310 -0.5232
  209MOL0     H28167   3.916   0.378   1.961 -0.5263  2.4247 -1.1727
  209MOL0     H28168   3.951   0.253   1.846 -2.7285  0.9361 -2.1132
  209MOL0     H28169   4.156   0.309   1.954 -0.8147  0.6861  1.9945
  209MOL0     H28170   4.136   0.488   1.939 -0.6405 -1.5558  2.4849
  209MOL0     H28171   4.139   0.449   1.693 -3.1330 -0.2408  1.3392
  209MOL0     H28172   4.175   0.272   1.729  1.5321 -0.1082 -1.4005
  209MOL0     H28173   4.376   0.351   1.708  1.2505  2.0865 -1.2740
  209MOL0     H28174   4.353   0.366   1.880  1.7615  4.1533  0.8449
  209MOL0     H28175   4.454   0.627   1.583  0.8038 -0.5065  0.2914
  209MOL0     H28176   4.588   0.760   1.457 -0.3597  0.5176  1.3405
  209MOL0     H28177   4.738   0.828   1.513 -2.7235  2.7577 -1.5872
  209MOL0     H28178   4.739   0.666   1.436  1.5209  1.4174  0.9927
  209MOL0     H28179   5.165   0.692   1.609  1.3839  0.6852 -0.6545
  209MOL0     H28180   5.410   0.702   1.634  0.1716  1.6489  0.2801
  209MOL0     H28181   5.571   0.504   1.721  0.8336  0.7223 -1.8978
  209MOL0     H28182   5.629   0.669   1.694 -2.9448  0.2751  0.5906
  209MOL0     H28183   5.804   0.651   1.848  2.3319  0.8070 -3.1264
  209MOL0     H28184   5.745   0.513   1.925  0.4907  0.0565 -0.0340
  209MOL0     H28185   5.870   0.572   1.649  0.5949  1.3109  2.7244
  209MOL0     H28186   5.787   0.417   1.661 -1.4300  1.4717 -0.7927
  209MOL0     H28187   5.958   0.370   1.847  1.8693 -0.1234  0.8407
  209MOL0     H28188   6.026   0.396   1.695 -1.1254 -1.2343  0.4271
  209MOL0     H28189   6.018   0.571   1.942 -0.1157  3.8108 -0.8536
  209MOL0     H28190   6.057   0.641   1.778  1.4043 -0.4754  0.2397
  209MOL0     H28191   6.233   0.457   1.927 -2.2315  0.6600  0.8109
  209MOL0     H28192   6.230   0.453   1.755 -0.8450  1.5674 -1.8027
  209MOL0     H28193   6.289   0.719   1.884  1.6516 -0.9417  1.9935
  209MOL0     H28194   6.310   0.675   1.716  2.6037  2.0224  0.5102
  209MOL0     H28195   6.465   0.583   1.957  1.8046 -1.2962 -0.5147
  209MOL0     H28196   6.524   0.690   1.830  4.0825 -0.9448  3.6528
  209MOL0     H28197   5.345   0.666   2.066 -0.6454  2.2463  0.2393
  209MOL0     H28198   5.092   0.659   2.016 -2.4196  1.8437 -2.9890
  209MOL0     H28199   4.780   0.630   1.950  0.4026  2.0770 -0.7117
  209MOL0     H28200   4.549   0.552   1.989 -0.6992  1.2107  1.1660
  209MOL0     H28201   3.066   1.077   2.446 -0.2480  0.5603  1.4552
  209MOL0     H28202   3.086   1.143   2.675  1.6677  2.1684  0.2496
  209MOL0     H28203   3.329   1.352   3.061  1.1005 -0.4332 -0.3686
  209MOL0     H28204   3.266   1.392   3.296 -1.1406  0.8961  1.5498
  209MOL0     H28205   3.095   1.033   3.502  0.5695  1.0516 -0.9012
  209MOL0     H28206   3.258   1.022   3.571 -1.4642 -1.5817  2.8759
  209MOL0     H28207   3.028   1.200   3.684 -0.1382  0.4557 -2.1805
  209MOL0     H28208   3.198   1.224   3.724  0.9011 -0.5310  0.8709
  209MOL0     H28209   3.120   1.121   3.903 -2.5983 -1.9406  1.1932
  209MOL0     H28210   3.216   1.014   3.817  0.2798  0.7126  2.6129
  209MOL0     H28211   3.000   0.889   3.736 -0.0070  0.1056  1.3135
  209MOL0     H28212   2.903   1.010   3.832  0.0018  1.3001 -1.9426
  209MOL0     H28213   3.093   0.755   4.109 -2.3693  0.9547 -0.2579
  209MOL0     H28214   3.156   0.978   3.316  0.2939 -0.3681 -1.1065
  209MOL0     H28215   3.184   0.942   3.101  0.2242 -0.2160  2.0718
  210MOL0     O28216   5.331   7.070   5.588 -0.0224 -0.9327  0.1615
  210MOL0     C28217   5.370   7.000   5.682  0.7065 -0.3270 -0.5513
  210MOL0     O28218   5.470   6.919   5.680  0.4890 -0.6605 -0.6298
  210MOL0     C28219   5.589   6.978   5.619  1.5455 -0.0917 -0.2688
  210MOL0     C28220   5.659   6.897   5.539  0.0823  0.5972  0.1721
  210MOL0     C28221   5.773   6.943   5.488 -0.1724  0.0585 -0.7900
  210MOL0     C28222   5.828   7.072   5.510  0.1643  0.1069  0.1330
  210MOL0     O28223   5.951   7.109   5.468 -0.5873 -0.1176  0.0830
  210MOL0     C28224   6.056   7.013   5.462  0.4310  0.1093  0.4778
  210MOL0     C28225   6.190   7.088   5.458 -0.3035 -1.5600 -0.2662
  210MOL0     C28226   6.199   7.178   5.325 -0.5725 -0.2411  0.6177
  210MOL0     C28227   6.308   7.279   5.327  0.0885  0.1493 -0.3619
  210MOL0     C28228   6.302   7.371   5.450  0.4486 -0.5025 -0.9698
  210MOL0     C28229   6.403   7.485   5.429 -0.2549 -0.9302 -0.4629
  210MOL0     C28230   6.399   7.602   5.528 -0.1090 -0.0303 -1.3153
  210MOL0     C28231   6.518   7.707   5.527 -0.2605  0.1047 -0.2227
  210MOL0     N28232   6.639   7.646   5.468 -0.5397  0.0859  0.1953
  210MOL0     C28233   6.688   7.662   5.341  0.2589 -0.5964 -0.8236
  210MOL0     C28234   6.804   7.595   5.344  0.5786  0.6274  0.5978
  210MOL0     C28235   6.911   7.598   5.234  0.7187 -1.0606 -0.6175
  210MOL0     C28236   6.932   7.457   5.196  0.4764  0.3268 -0.2568
  210MOL0     C28237   7.035   7.447   5.086 -0.1159  0.4568  0.3125
  210MOL0     C28238   7.063   7.305   5.050 -0.1862  0.5581 -0.2376
  210MOL0     O28239   7.123   7.317   4.921  0.2809  0.0153  0.0340
  210MOL0     C28240   7.227   7.236   4.873 -1.0630  0.1225  0.2384
  210MOL0     C28241   7.275   7.120   4.934 -0.1055 -0.0595 -0.0635
  210MOL0     C28242   7.361   7.028   4.863  0.7115 -0.7260 -0.7987
  210MOL0     C28243   7.404   6.917   4.955 -0.4723  0.1470 -0.0016
  210MOL0     C28244   7.416   7.058   4.734  0.5670 -0.5855  0.0298
  210MOL0     C28245   7.506   6.975   4.651  0.7619 -0.4576 -0.7785
  210MOL0     O28246   7.549   7.032   4.543 -0.6442 -0.0732  0.1830
  210MOL0     C28247   7.634   6.977   4.449 -0.8671 -0.7445 -0.5876
  210MOL0     C28248   7.774   6.931   4.470 -0.0728 -0.8972  0.2200
  210MOL0     C28249   7.844   6.879   4.355 -0.6780  0.1280 -0.4477
  210MOL0     C28250   7.786   6.876   4.222 -0.1265  0.0096 -0.3113
  210MOL0     O28251   7.847   6.848   4.107 -0.4383  0.0321 -0.0878
  210MOL0     C28252   7.970   6.768   4.123 -0.3352  0.0759  0.0697
  210MOL0     C28253   8.016   6.713   3.994 -0.3600 -0.3682 -0.6186
  210MOL0     C28254   8.144   6.633   4.008  0.4241  1.2267 -0.0938
  210MOL0     C28255   8.184   6.592   3.862  0.0521 -0.3634 -1.0464
  210MOL0     C28256   8.294   6.491   3.887  0.1733 -0.8100 -0.3095
  210MOL0     C28257   8.348   6.460   3.749 -0.4936  0.3361  0.7403
  210MOL0     C28258   8.429   6.334   3.733  0.5264 -0.7690  0.2754
  210MOL0     C28259   8.474   6.320   3.585 -0.1335 -0.9918 -0.5689
  210MOL0    Cl28260   8.546   6.158   3.550  0.4875 -0.0995  0.1362
  210MOL0     C28261   7.653   6.919   4.215 -0.5438  0.2902  0.1296
  210MOL0     C28262   7.580   6.956   4.325  0.3177 -0.0064  0.1023
  210MOL0     O28263   7.545   6.867   4.701 -0.1914 -0.5915 -0.1297
  210MOL0     C28264   7.381   7.190   4.689 -0.5613 -0.9812  1.4943
  210MOL0     C28265   7.293   7.271   4.756 -0.3696 -0.6242  0.5201
  210MOL0     N28266   6.828   7.543   5.468  0.0030 -0.4522 -0.1341
  210MOL0     N28267   6.736   7.585   5.545 -0.2704  0.0946  0.6268
  210MOL0     C28268   5.764   7.148   5.604  0.1509  1.2836  0.6788
  210MOL0     C28269   5.641   7.106   5.653  1.0894  0.8201  0.0711
  210MOL0     C28270   5.295   7.014   5.807 -0.2222  0.5804  0.7348
  210MOL0     C28271   5.308   6.910   5.906  0.7995  0.2850  1.0860
  210MOL0     C28272   5.225   6.921   6.015  0.3343 -0.4097  0.4599
  210MOL0     C28273   5.145   7.034   6.039  0.5156  0.2847 -0.5673
  210MOL0     O28274   5.090   7.056   6.165 -1.2382 -0.4373  0.2311
  210MOL0     C28275   5.078   6.942   6.262 -1.1267  0.3843 -0.5710
  210MOL0     C28276   4.953   6.979   6.333  1.7967 -0.2767 -0.8022
  210MOL0     C28277   4.829   6.937   6.258 -0.3481 -0.1355 -0.7112
  210MOL0     C28278   4.699   6.981   6.320 -0.3779 -0.3990 -0.6878
  210MOL0     C28279   4.589   6.951   6.231  0.1376 -0.8976 -0.0773
  210MOL0     C28280   4.492   6.929   6.164 -0.1971 -0.5541  0.0684
  210MOL0     C28281   5.147   7.141   5.950 -0.3045 -0.1303  1.0109
  210MOL0     C28282   5.223   7.126   5.831  0.1042 -0.3685 -0.4522
  210MOL0     H28283   5.625   6.799   5.508 -2.5892  1.3612  0.3822
  210MOL0     H28284   5.829   6.873   5.426 -0.4352 -1.1617  0.3004
  210MOL0     H28285   6.046   6.942   5.544 -2.4976 -0.4519 -0.2638
  210MOL0     H28286   6.054   6.959   5.366  0.1460 -2.9212  2.0688
  210MOL0     H28287   6.188   7.158   5.542  1.2811 -1.8343  0.0277
  210MOL0     H28288   6.278   7.025   5.471 -0.6353 -1.7890  1.0433
  210MOL0     H28289   6.228   7.112   5.243  3.1820  0.8552  0.8483
  210MOL0     H28290   6.098   7.212   5.303 -0.4356 -0.2416 -0.0362
  210MOL0     H28291   6.402   7.225   5.343  1.4270  0.7607 -4.7518
  210MOL0     H28292   6.306   7.322   5.226 -3.5934 -1.0625 -0.9495
  210MOL0     H28293   6.204   7.419   5.462  1.1251  0.2960  2.3671
  210MOL0     H28294   6.322   7.317   5.543  0.8242 -1.5308 -1.6271
  210MOL0     H28295   6.501   7.437   5.431  0.2052 -0.0523 -0.9321
  210MOL0     H28296   6.377   7.530   5.332  0.3259  0.0667 -0.1759
  210MOL0     H28297   6.301   7.647   5.509 -1.3975 -1.7628  0.8562
  210MOL0     H28298   6.392   7.559   5.628 -0.0788 -0.8866 -1.6790
  210MOL0     H28299   6.545   7.732   5.630 -0.7178 -0.7260  0.1117
  210MOL0     H28300   6.492   7.796   5.469 -0.8745  0.2899  0.3179
  210MOL0     H28301   6.641   7.715   5.259  0.7423  0.8421 -0.2002
  210MOL0     H28302   6.880   7.664   5.152  0.2971  1.3096  1.3250
  210MOL0     H28303   7.001   7.637   5.283  0.8993 -1.2394 -0.8079
  210MOL0     H28304   6.838   7.411   5.162  0.3762  0.4162 -0.1032
  210MOL0     H28305   6.969   7.391   5.275  0.6184 -1.6996 -1.9281
  210MOL0     H28306   7.130   7.487   5.123  1.5232 -1.8237 -1.1527
  210MOL0     H28307   7.000   7.496   4.995  1.4819 -1.3742 -1.4049
  210MOL0     H28308   6.972   7.245   5.052 -0.8519  1.3238 -2.7022
  210MOL0     H28309   7.136   7.273   5.124 -0.4855  2.5366  0.9810
  210MOL0     H28310   7.234   7.101   5.033  0.7800  2.7255  0.9410
  210MOL0     H28311   7.487   6.939   5.023 -0.0316 -0.2077 -0.4214
  210MOL0     H28312   7.314   6.896   5.015 -2.6799  4.2249 -1.5173
  210MOL0     H28313   7.433   6.826   4.902  2.2404  0.3914  0.9201
  210MOL0     H28314   7.816   6.935   4.569 -1.2429  0.7450  0.7071
  210MOL0     H28315   7.939   6.832   4.380 -1.6503 -0.5563  2.3646
  210MOL0     H28316   8.051   6.822   4.173  1.5063 -1.8389 -0.6638
  210MOL0     H28317   7.965   6.677   4.183  1.4856  0.2759  0.5912
  210MOL0     H28318   7.946   6.640   3.952  1.1707 -3.0791  1.2277
  210MOL0     H28319   8.029   6.802   3.932  1.2135  2.0686  2.9011
  210MOL0     H28320   8.138   6.541   4.066  1.7054  0.6712 -0.7826
  210MOL0     H28321   8.226   6.693   4.049  1.9283 -0.6973 -0.1367
  210MOL0     H28322   8.108   6.539   3.804 -2.4459 -0.2104  1.8064
  210MOL0     H28323   8.222   6.679   3.807  3.6769 -2.2198 -1.7529
  210MOL0     H28324   8.262   6.399   3.935  2.2276 -1.0157  0.8202
  210MOL0     H28325   8.377   6.526   3.950 -0.4813  1.5912 -0.6801
  210MOL0     H28326   8.267   6.468   3.677 -0.9546  1.2597  1.3413
  210MOL0     H28327   8.416   6.542   3.725  2.4321 -1.4449  2.3352
  210MOL0     H28328   8.358   6.252   3.748  0.0306 -0.3103  0.4607
  210MOL0     H28329   8.511   6.341   3.806  3.3380 -1.4973 -2.5748
  210MOL0     H28330   8.536   6.409   3.571 -1.3284  0.9333  4.4362
  210MOL0     H28331   8.382   6.329   3.526 -0.0245 -0.7153 -0.7003
  210MOL0     H28332   7.609   6.923   4.115  2.1895  1.2793 -1.1207
  210MOL0     H28333   7.479   6.993   4.309  0.6579  0.7088 -0.4300
  210MOL0     H28334   7.428   7.232   4.600 -1.1070 -1.1591  1.1173
  210MOL0     H28335   7.261   7.371   4.728  2.3727  1.2317  3.3854
  210MOL0     H28336   5.800   7.245   5.636  1.6478 -0.1901  3.8862
  210MOL0     H28337   5.586   7.180   5.710  1.2268 -0.1734  1.5446
  210MOL0     H28338   5.372   6.824   5.891  0.3809  0.0969  0.3526
  210MOL0     H28339   5.237   6.849   6.095  2.8162  2.5808  3.0796
  210MOL0     H28340   5.067   6.842   6.220 -0.3265  0.3159 -0.6226
  210MOL0     H28341   5.165   6.931   6.327  1.4673  5.9459 -2.4729
  210MOL0     H28342   4.963   7.086   6.351  3.5491 -0.8257  2.0758
  210MOL0     H28343   4.951   6.931   6.431  0.6587  1.1139 -0.1053
  210MOL0     H28344   4.839   6.829   6.246 -0.7554 -0.2831  0.1780
  210MOL0     H28345   4.818   6.976   6.156 -1.0678 -2.0954 -1.4196
  210MOL0     H28346   4.693   7.079   6.370 -0.5788 -1.5378  1.6539
  210MOL0     H28347   4.682   6.919   6.408 -3.9146  1.2019 -0.0672
  210MOL0     H28348   4.405   6.907   6.107  1.9954 -0.5880 -3.5532
  210MOL0     H28349   5.101   7.239   5.960 -1.2737 -0.4096 -0.2712
  210MOL0     H28350   5.237   7.207   5.761  1.8005 -0.9881 -0.8656
  211MOL0     O28351  10.878   9.346   1.176  0.9548  0.9420 -0.6664
  211MOL0     C28352  10.888   9.273   1.077  0.9824  1.1627 -0.5069
  211MOL0     O28353  11.002   9.229   1.015 -0.3181 -0.9181  0.4349
  211MOL0     C28354  11.111   9.263   1.085  0.3401 -0.8035 -0.4054
  211MOL0     C28355  11.199   9.373   1.040  0.4847  0.1065 -0.0945
  211MOL0     C28356  11.325   9.392   1.108 -0.8247 -0.2822  0.0377
  211MOL0     C28357  11.364   9.311   1.215  0.1849  0.2368  0.8972
  211MOL0     O28358  11.482   9.318   1.282 -0.3021 -0.2716 -0.3174
  211MOL0     C28359  11.597   9.258   1.215 -0.2493  0.2890  0.6120
  211MOL0     C28360  11.720   9.261   1.315 -0.3389 -0.1077  0.4038
  211MOL0     C28361  11.807   9.140   1.285 -0.1927 -0.2849 -0.4526
  211MOL0     C28362  11.955   9.182   1.258  0.7646  0.4420  0.2540
  211MOL0     C28363  11.972   9.239   1.114  0.0575 -0.5408 -0.3663
  211MOL0     C28364  11.965   9.148   0.994 -0.4845  0.3217 -0.0108
  211MOL0     C28365  11.996   9.216   0.857  0.0335 -0.1856  0.2078
  211MOL0     C28366  12.084   9.123   0.766 -0.3956 -1.2181 -0.1943
  211MOL0     N28367  12.195   9.046   0.825  0.0308 -0.4497 -0.8141
  211MOL0     C28368  12.291   9.101   0.912  0.4715 -0.7326 -0.8716
  211MOL0     C28369  12.387   9.014   0.906  0.1668  0.0104 -0.0343
  211MOL0     C28370  12.518   9.030   0.985  0.6420  0.5457 -0.4533
  211MOL0     C28371  12.592   8.896   0.992  0.4096  0.0693 -0.3169
  211MOL0     C28372  12.680   8.867   0.881  0.0893 -0.0687  0.9117
  211MOL0     C28373  12.619   8.767   0.781 -0.1047 -0.4241  0.1125
  211MOL0     O28374  12.731   8.677   0.746 -0.7476 -0.0877 -0.8781
  211MOL0     C28375  12.785   8.684   0.621  0.1397  1.0306  0.8274
  211MOL0     C28376  12.801   8.566   0.555  0.3006 -0.8553 -0.1049
  211MOL0     C28377  12.863   8.551   0.427 -0.1517  0.7503 -0.0279
  211MOL0     C28378  12.861   8.419   0.367 -0.2553 -0.2214 -0.1230
  211MOL0     C28379  12.917   8.668   0.370 -0.1431  0.3063  0.5345
  211MOL0     C28380  12.974   8.668   0.236  0.3285 -0.1016 -0.2257
  211MOL0     O28381  12.962   8.782   0.166  0.4047  0.0385 -0.0782
  211MOL0     C28382  13.039   8.808   0.053 -0.2788 -0.3519  0.1523
  211MOL0     C28383  13.128   8.915   0.056 -0.3226  0.6791 -0.0949
  211MOL0     C28384  13.209   8.945  -0.052 -0.4076  0.9754 -0.7141
  211MOL0     C28385  13.190   8.873  -0.169 -0.0256  0.5992 -0.1870
  211MOL0     O28386  13.270   8.903  -0.275 -0.0894  0.3456 -0.1845
  211MOL0     C28387  13.296   8.791  -0.366 -0.1036 -0.4253 -0.1003
  211MOL0     C28388  13.412   8.700  -0.330 -0.5208 -0.0594 -0.4626
  211MOL0     C28389  13.368   8.556  -0.313 -0.4576 -0.2041  0.5144
  211MOL0     C28390  13.377   8.486  -0.439  0.2422  1.0405 -0.1171
  211MOL0     C28391  13.303   8.349  -0.445 -0.2636  1.1581  0.1256
  211MOL0     C28392  13.273   8.290  -0.588 -0.5912  0.6586 -0.7235
  211MOL0     C28393  13.393   8.279  -0.679 -0.9014  0.9618  0.6635
  211MOL0     C28394  13.459   8.133  -0.689  0.6230  0.3851 -0.0010
  211MOL0    Cl28395  13.501   8.077  -0.520 -0.2330 -0.4556 -0.1289
  211MOL0     C28396  13.073   8.791  -0.180  0.0910 -0.5096  0.6170
  211MOL0     C28397  12.999   8.755  -0.074 -0.3370  0.2787 -0.5816
  211MOL0     O28398  13.056   8.576   0.212  0.5045 -0.3018 -0.0114
  211MOL0     C28399  12.895   8.793   0.439  1.4280  0.2702 -0.6207
  211MOL0     C28400  12.828   8.798   0.560 -0.0147  0.5324  1.0590
  211MOL0     N28401  12.352   8.907   0.823  0.2696  0.6807 -1.4241
  211MOL0     N28402  12.230   8.931   0.788 -0.3876 -0.9561 -0.1526
  211MOL0     C28403  11.273   9.213   1.259 -0.8069 -0.7783  0.0926
  211MOL0     C28404  11.154   9.186   1.194  1.2618  0.5542 -0.8414
  211MOL0     C28405  10.763   9.227   1.023 -0.9321 -0.2547  0.3189
  211MOL0     C28406  10.746   9.106   0.950 -0.5002 -0.3784 -0.2478
  211MOL0     C28407  10.625   9.077   0.887  0.5761 -0.3536  0.0796
  211MOL0     C28408  10.515   9.177   0.894 -0.1708 -0.2576 -0.1463
  211MOL0     O28409  10.392   9.162   0.837 -0.0976 -0.3000  1.1994
  211MOL0     C28410  10.366   9.074   0.725  0.0179 -0.4911 -0.6217
  211MOL0     C28411  10.225   9.098   0.659 -0.1673 -0.8494  0.2909
  211MOL0     C28412  10.114   9.013   0.724  0.4770  1.0147 -0.7046
  211MOL0     C28413   9.979   9.095   0.719  0.1181 -0.0904  0.2448
  211MOL0     C28414   9.966   9.139   0.575 -0.1121 -0.6336 -0.5816
  211MOL0     C28415   9.952   9.168   0.462  0.0726 -0.3492  0.3664
  211MOL0     C28416  10.532   9.291   0.965  0.8123  0.5843  0.5642
  211MOL0     C28417  10.653   9.316   1.025  0.0562 -0.5868  0.1955
  211MOL0     H28418  11.187   9.439   0.955 -0.4012 -0.6890 -0.6025
  211MOL0     H28419  11.395   9.464   1.068  0.5927 -1.8997 -0.5511
  211MOL0     H28420  11.585   9.154   1.184 -0.3562  0.2152  0.8978
  211MOL0     H28421  11.625   9.328   1.135 -1.4658  1.8939  1.5195
  211MOL0     H28422  11.770   9.358   1.313 -0.6602  0.0472 -1.0415
  211MOL0     H28423  11.689   9.253   1.420  1.1315 -0.4248  0.8288
  211MOL0     H28424  11.795   9.073   1.371  0.2368  0.6722  0.3687
  211MOL0     H28425  11.770   9.082   1.200 -0.2533  0.4612 -0.9445
  211MOL0     H28426  11.997   9.244   1.337  1.5002 -3.2708  3.0761
  211MOL0     H28427  12.013   9.090   1.263  0.1626  0.0344 -0.0490
  211MOL0     H28428  11.905   9.323   1.094  1.5890  0.9976  0.7057
  211MOL0     H28429  12.063   9.295   1.091 -1.1875  1.2116 -1.3210
  211MOL0     H28430  12.032   9.063   1.009  1.5069  1.8613  0.2908
  211MOL0     H28431  11.864   9.106   0.988  0.8406 -2.9701 -1.4924
  211MOL0     H28432  11.906   9.240   0.800 -1.7255 -0.3517  2.7724
  211MOL0     H28433  12.048   9.310   0.879  0.9891 -0.4446 -0.8505
  211MOL0     H28434  12.129   9.173   0.680  3.3416 -0.1127  2.1989
  211MOL0     H28435  12.024   9.045   0.716 -0.9188 -2.1012  1.7223
  211MOL0     H28436  12.301   9.194   0.968 -0.9883 -0.7659 -0.5260
  211MOL0     H28437  12.577   9.115   0.950  1.0809  0.5455  0.2549
  211MOL0     H28438  12.485   9.057   1.086  2.4419  0.7026  0.1155
  211MOL0     H28439  12.518   8.821   1.018 -1.7362  0.8580 -3.4615
  211MOL0     H28440  12.658   8.898   1.079  0.7306 -1.2293 -0.5203
  211MOL0     H28441  12.762   8.811   0.925  1.0827  0.6449  0.0136
  211MOL0     H28442  12.724   8.954   0.831 -2.2720  0.1238 -1.0380
  211MOL0     H28443  12.585   8.823   0.694  0.5576 -0.7924 -0.3953
  211MOL0     H28444  12.535   8.713   0.827  0.6370  0.1113  2.2157
  211MOL0     H28445  12.763   8.488   0.620  2.9866 -0.5076  2.0694
  211MOL0     H28446  12.770   8.362   0.389  0.7539 -1.0558  2.1962
  211MOL0     H28447  12.869   8.421   0.258 -1.3267  0.4796 -0.2047
  211MOL0     H28448  12.949   8.361   0.398 -0.1291 -0.5669 -1.0862
  211MOL0     H28449  13.139   8.976   0.146  3.1668 -3.2454  2.5158
  211MOL0     H28450  13.279   9.028  -0.048  0.1831  0.4587 -0.2350
  211MOL0     H28451  13.213   8.735  -0.409 -3.0157  3.2390  0.2587
  211MOL0     H28452  13.328   8.844  -0.457  1.1115 -0.8889  0.0310
  211MOL0     H28453  13.490   8.704  -0.406  2.3699 -1.8279  2.1475
  211MOL0     H28454  13.464   8.735  -0.240  0.1216  1.7893 -1.4958
  211MOL0     H28455  13.268   8.552  -0.269 -1.2578 -1.8216 -1.3242
  211MOL0     H28456  13.431   8.506  -0.238  1.1725 -0.1728 -0.7831
  211MOL0     H28457  13.328   8.545  -0.517 -3.2799 -1.9272 -0.4824
  211MOL0     H28458  13.479   8.470  -0.473  0.7192  0.9976  1.2840
  211MOL0     H28459  13.214   8.354  -0.382 -1.2836  0.8069 -1.2512
  211MOL0     H28460  13.384   8.290  -0.399  1.1849  1.7723 -1.5507
  211MOL0     H28461  13.223   8.193  -0.575 -0.5378  0.6915 -0.2240
  211MOL0     H28462  13.201   8.358  -0.634 -0.6046 -0.3338 -2.2251
  211MOL0     H28463  13.469   8.351  -0.648  0.3607  1.1356 -2.4912
  211MOL0     H28464  13.356   8.297  -0.780 -0.4257  0.2945  0.3629
  211MOL0     H28465  13.544   8.136  -0.757 -0.2083  0.6954 -1.0667
  211MOL0     H28466  13.380   8.070  -0.733  2.1092  0.4729 -3.0521
  211MOL0     H28467  13.037   8.749  -0.273  0.9264  0.7074 -0.2855
  211MOL0     H28468  12.909   8.695  -0.076  0.7999 -1.5763  0.4231
  211MOL0     H28469  12.933   8.882   0.389  3.1618  0.5296  1.0308
  211MOL0     H28470  12.811   8.896   0.604 -0.9550  1.8874 -2.0508
  211MOL0     H28471  11.313   9.145   1.334  0.2540 -1.8563 -1.3989
  211MOL0     H28472  11.081   9.116   1.232  2.8336 -1.0142 -0.6153
  211MOL0     H28473  10.828   9.035   0.941 -1.6371 -1.7601 -0.0696
  211MOL0     H28474  10.619   8.976   0.846  0.6328 -0.2515 -0.1821
  211MOL0     H28475  10.450   9.081   0.655  0.3904  1.5870 -0.0352
  211MOL0     H28476  10.375   8.974   0.769  0.8776 -0.2164 -0.1386
  211MOL0     H28477  10.237   9.088   0.551  3.0749 -2.9512  0.6925
  211MOL0     H28478  10.204   9.204   0.678 -1.2688 -0.6017 -2.0031
  211MOL0     H28479  10.134   8.982   0.827  0.0409  0.2695 -0.8400
  211MOL0     H28480  10.103   8.916   0.675 -0.3595  1.3004 -1.0916
  211MOL0     H28481   9.986   9.176   0.792  0.8431 -0.4414  0.5706
  211MOL0     H28482   9.893   9.032   0.741  0.9003 -1.8698 -1.4706
  211MOL0     H28483   9.941   9.175   0.355  1.6755 -2.9435 -0.0512
  211MOL0     H28484  10.471   9.381   0.964  0.6633  0.5585 -2.2781
  211MOL0     H28485  10.657   9.410   1.080 -4.0987 -0.9249  1.4323
  212MOL0     O28486   4.347   7.776   0.053 -0.6085 -0.1750 -0.1913
  212MOL0     C28487   4.425   7.778  -0.044  0.6509 -0.6192  0.0707
  212MOL0     O28488   4.453   7.887  -0.113 -0.3914  0.2283  0.6104
  212MOL0     C28489   4.398   8.011  -0.091  0.8038 -0.2417 -0.8937
  212MOL0     C28490   4.405   8.060   0.043  0.8505 -1.0496  0.0242
  212MOL0     C28491   4.358   8.192   0.080  0.8161  0.0656 -0.5073
  212MOL0     C28492   4.305   8.271  -0.025  0.2659  0.7308  0.0563
  212MOL0     O28493   4.278   8.398   0.017  0.0126 -0.2035  0.1959
  212MOL0     C28494   4.148   8.447  -0.019  0.2409  0.2288 -0.1976
  212MOL0     C28495   4.029   8.363   0.027  0.4794 -0.0966 -0.3997
  212MOL0     C28496   4.020   8.334   0.176  0.0889  0.5246  0.1336
  212MOL0     C28497   3.988   8.451   0.272 -1.0532  0.3678  0.1885
  212MOL0     C28498   3.963   8.414   0.419  0.3196  0.3252  0.9890
  212MOL0     C28499   3.881   8.525   0.492  0.0649  0.3309  0.6096
  212MOL0     C28500   3.738   8.536   0.441 -0.8309 -0.2722 -0.0815
  212MOL0     C28501   3.666   8.641   0.516  0.2516  0.2694  0.1915
  212MOL0     N28502   3.679   8.678   0.656 -0.2797 -0.6179 -0.3924
  212MOL0     C28503   3.802   8.728   0.718 -0.1336  0.4665 -0.3279
  212MOL0     C28504   3.777   8.728   0.849  0.0285  0.6258  0.3506
  212MOL0     C28505   3.869   8.742   0.972  0.2655  0.4572  0.1579
  212MOL0     C28506   3.825   8.680   1.105 -0.6254  0.8847  0.1040
  212MOL0     C28507   3.932   8.718   1.217  0.5589 -0.0271 -0.1152
  212MOL0     C28508   3.897   8.702   1.366  0.1594 -0.1823  0.1359
  212MOL0     O28509   3.996   8.741   1.465  0.6033 -0.9085 -0.7546
  212MOL0     C28510   4.027   8.872   1.496 -0.0126 -0.2913  0.0701
  212MOL0     C28511   4.123   8.891   1.596  0.0127  0.1700  0.1900
  212MOL0     C28512   4.172   9.011   1.646 -0.3160 -0.5707 -1.6557
  212MOL0     C28513   4.281   9.003   1.752  0.5831 -0.8992 -0.4766
  212MOL0     C28514   4.119   9.131   1.586  0.0134 -1.0553  0.4383
  212MOL0     C28515   4.159   9.264   1.630  0.6356 -0.7180 -0.3726
  212MOL0     O28516   4.270   9.271   1.720 -0.7339 -0.3729 -0.1239
  212MOL0     C28517   4.300   9.382   1.784 -0.0434 -0.6504 -0.7426
  212MOL0     C28518   4.333   9.373   1.914  0.7738 -0.6432 -0.5758
  212MOL0     C28519   4.389   9.489   1.976  1.2278 -0.5682  0.0073
  212MOL0     C28520   4.410   9.609   1.909 -0.9232  0.3525  0.3484
  212MOL0     O28521   4.481   9.715   1.960  0.2623 -0.6102 -0.3020
  212MOL0     C28522   4.435   9.767   2.079  0.5966 -0.0834 -0.0837
  212MOL0     C28523   4.539   9.839   2.152 -0.1428  0.5447 -0.6813
  212MOL0     C28524   4.505   9.952   2.238 -0.0226  0.2929 -0.1494
  212MOL0     C28525   4.623  10.039   2.282 -0.6174 -0.0811 -0.4115
  212MOL0     C28526   4.579  10.126   2.398 -0.0830 -0.0962  0.3192
  212MOL0     C28527   4.705  10.191   2.452  0.3875  0.6351 -0.0845
  212MOL0     C28528   4.668  10.290   2.567  0.8463 -0.3684  0.0413
  212MOL0     C28529   4.532  10.356   2.568  0.3415  0.0306  0.2448
  212MOL0    Cl28530   4.528  10.496   2.669  0.0527 -0.2773 -0.7470
  212MOL0     C28531   4.388   9.604   1.773 -1.3510  0.2422  0.2745
  212MOL0     C28532   4.342   9.491   1.712 -1.0398  0.1692 -0.0496
  212MOL0     O28533   4.090   9.362   1.600 -0.0780 -0.4914 -0.2171
  212MOL0     C28534   4.019   9.116   1.484 -0.3377  0.3124 -0.1908
  212MOL0     C28535   3.975   8.983   1.438 -0.1513  0.3842  0.0726
  212MOL0     N28536   3.645   8.689   0.865  0.4372 -0.6984 -0.1645
  212MOL0     N28537   3.585   8.656   0.754  0.4852 -0.5552  0.2366
  212MOL0     C28538   4.269   8.208  -0.153 -0.3036  0.4229  0.1423
  212MOL0     C28539   4.326   8.086  -0.183 -0.5251  0.2344  0.0354
  212MOL0     C28540   4.481   7.646  -0.098  0.1409  0.5690  0.7855
  212MOL0     C28541   4.401   7.533  -0.102  0.3060  0.3632 -0.0875
  212MOL0     C28542   4.458   7.412  -0.152 -0.6467  0.4794 -0.1935
  212MOL0     C28543   4.586   7.405  -0.200 -0.3812 -0.0843 -0.2253
  212MOL0     O28544   4.632   7.290  -0.250 -0.5002 -0.5779  0.8669
  212MOL0     C28545   4.767   7.251  -0.222  0.6847 -0.9539  0.5202
  212MOL0     C28546   4.775   7.098  -0.238 -0.9191 -1.1607 -0.1290
  212MOL0     C28547   4.917   7.062  -0.199 -0.3049  0.3841 -0.1993
  212MOL0     C28548   4.937   6.920  -0.238  0.3939  0.0992 -0.3633
  212MOL0     C28549   4.858   6.824  -0.151 -0.2322 -0.7446  0.8568
  212MOL0     C28550   4.802   6.757  -0.065  0.4541 -0.3184  0.6851
  212MOL0     C28551   4.663   7.523  -0.207  0.1498 -0.7000 -0.3695
  212MOL0     C28552   4.605   7.644  -0.159  0.1137 -1.0128 -0.0433
  212MOL0     H28553   4.451   8.007   0.126  1.3240  1.6393  1.5844
  212MOL0     H28554   4.365   8.234   0.180  2.0392 -1.9451  0.3316
  212MOL0     H28555   4.143   8.546   0.026  3.0909 -0.9532  3.2647
  212MOL0     H28556   4.144   8.455  -0.128  0.0064 -2.3770 -0.4550
  212MOL0     H28557   3.937   8.414  -0.003 -0.4091 -1.4818 -0.1268
  212MOL0     H28558   4.025   8.267  -0.025 -1.8082 -0.2715  0.0033
  212MOL0     H28559   3.933   8.268   0.180 -0.3850  0.7134 -3.6383
  212MOL0     H28560   4.111   8.279   0.202  0.3725 -1.2443 -3.9308
  212MOL0     H28561   4.075   8.518   0.270  3.2295 -4.3671  2.6645
  212MOL0     H28562   3.903   8.496   0.220 -0.4581 -1.9301 -3.0349
  212MOL0     H28563   3.903   8.322   0.426  1.3819 -0.7530 -2.0267
  212MOL0     H28564   4.063   8.402   0.461  0.4277 -0.8328  0.4482
  212MOL0     H28565   3.878   8.498   0.598  0.4608 -4.8614 -0.4523
  212MOL0     H28566   3.932   8.619   0.470 -0.0034  0.1618 -0.3473
  212MOL0     H28567   3.729   8.550   0.333  2.4142 -0.4363 -0.4711
  212MOL0     H28568   3.683   8.443   0.462 -0.5253  0.3890  4.5961
  212MOL0     H28569   3.558   8.630   0.500  0.2519 -2.3475  1.4491
  212MOL0     H28570   3.704   8.728   0.463 -2.7078  0.6701 -1.4773
  212MOL0     H28571   3.897   8.766   0.681  2.2460 -1.7631  2.8522
  212MOL0     H28572   3.955   8.682   0.938 -0.3720 -1.9072  2.4233
  212MOL0     H28573   3.895   8.848   0.971  0.0410  0.5584 -2.3957
  212MOL0     H28574   3.813   8.572   1.093  2.7001  0.3437  0.6686
  212MOL0     H28575   3.731   8.720   1.144 -1.1302  0.5615 -0.7831
  212MOL0     H28576   3.962   8.823   1.205 -0.7792  0.4247  0.2747
  212MOL0     H28577   4.026   8.665   1.200  1.0205  0.7389 -0.0222
  212MOL0     H28578   3.866   8.598   1.381 -0.0745  0.2337  3.1253
  212MOL0     H28579   3.806   8.760   1.384 -0.3059 -0.8798  0.0476
  212MOL0     H28580   4.152   8.794   1.633  1.0371  0.0052 -0.9610
  212MOL0     H28581   4.305   8.900   1.779  0.9031 -0.4734  0.9248
  212MOL0     H28582   4.377   9.051   1.730 -0.3451  0.9689 -0.5701
  212MOL0     H28583   4.244   9.050   1.843 -0.3706 -3.5119  0.5879
  212MOL0     H28584   4.308   9.282   1.967 -0.1598  0.7576  1.5888
  212MOL0     H28585   4.420   9.483   2.080  0.5842  0.6617  0.2964
  212MOL0     H28586   4.341   9.820   2.064 -0.9136 -2.7098 -0.6324
  212MOL0     H28587   4.404   9.686   2.146  0.6756 -0.0452 -0.0005
  212MOL0     H28588   4.607   9.773   2.207 -0.3537  1.2627  0.4553
  212MOL0     H28589   4.587   9.895   2.071 -0.3631 -0.6522 -1.6720
  212MOL0     H28590   4.443   9.922   2.323  2.3719  0.3213  1.7284
  212MOL0     H28591   4.437  10.011   2.176  0.3626 -0.3694 -1.2168
  212MOL0     H28592   4.717   9.984   2.296 -1.9795 -2.2264  0.8005
  212MOL0     H28593   4.643  10.102   2.195  0.1169  5.0080  3.0634
  212MOL0     H28594   4.523  10.072   2.475  1.4816 -1.4586  0.5622
  212MOL0     H28595   4.506  10.199   2.360  0.6113 -0.2708 -1.4027
  212MOL0     H28596   4.783  10.123   2.488 -0.7103 -0.6565 -0.0523
  212MOL0     H28597   4.747  10.250   2.370 -1.0643  2.2430  0.2799
  212MOL0     H28598   4.736  10.375   2.552  1.1045 -0.5030  0.4252
  212MOL0     H28599   4.699  10.252   2.664  1.6474  1.0650  0.3798
  212MOL0     H28600   4.467  10.285   2.620 -0.0799  1.1665  1.3123
  212MOL0     H28601   4.485  10.371   2.470  0.2235 -2.8071 -0.2032
  212MOL0     H28602   4.412   9.691   1.711 -0.6900  1.3287  1.9871
  212MOL0     H28603   4.328   9.487   1.604 -1.1128  2.5228 -0.1857
  212MOL0     H28604   3.976   9.206   1.440  0.6808  1.0817  0.3483
  212MOL0     H28605   3.898   8.974   1.362 -0.2984 -0.2859  0.2983
  212MOL0     H28606   4.222   8.265  -0.232 -0.4876  1.1665  0.7822
  212MOL0     H28607   4.330   8.061  -0.288  1.9544 -1.3473  0.4330
  212MOL0     H28608   4.306   7.535  -0.051  0.9904 -1.8173  1.3977
  212MOL0     H28609   4.405   7.316  -0.150 -0.0185  0.1112  2.0632
  212MOL0     H28610   4.828   7.312  -0.290 -2.2684  0.9772 -0.6213
  212MOL0     H28611   4.782   7.277  -0.117 -2.8929  1.2002  0.6711
  212MOL0     H28612   4.762   7.068  -0.342  0.1095 -2.4594  0.0896
  212MOL0     H28613   4.697   7.057  -0.173  0.0826 -1.4816  0.9042
  212MOL0     H28614   4.931   7.081  -0.092  1.1622 -1.8760  0.0781
  212MOL0     H28615   4.987   7.122  -0.257  0.7682 -1.8243 -1.2665
  212MOL0     H28616   5.045   6.909  -0.224  0.3790  0.3878  0.0225
  212MOL0     H28617   4.904   6.907  -0.341 -0.9425 -1.5022  0.2201
  212MOL0     H28618   4.749   6.698   0.007  0.9807 -0.3545  1.0565
  212MOL0     H28619   4.769   7.512  -0.226 -0.0914 -0.3526 -2.1081
  212MOL0     H28620   4.657   7.738  -0.179 -1.4049 -0.0429  0.4619
  213MOL0     O28621   6.608   8.157   9.095 -0.5050  0.5621 -0.4537
  213MOL0     C28622   6.701   8.087   9.133  0.5426  0.1112  0.1153
  213MOL0     O28623   6.834   8.094   9.097  1.3238  0.2004  0.2749
  213MOL0     C28624   6.877   8.182   9.000 -0.4625 -0.2236 -0.7447
  213MOL0     C28625   6.986   8.276   9.029  0.9675  1.4336  0.6939
  213MOL0     C28626   7.000   8.386   8.938 -0.1358 -0.9381 -0.3007
  213MOL0     C28627   6.918   8.397   8.824 -1.0409 -0.6822  0.8388
  213MOL0     O28628   6.931   8.501   8.722  0.1951 -0.2693 -0.2536
  213MOL0     C28629   6.953   8.636   8.752 -0.7449  0.7751 -0.7265
  213MOL0     C28630   6.862   8.721   8.666  0.2703  0.2766  0.3846
  213MOL0     C28631   6.929   8.842   8.594  0.7160 -0.5970  0.4422
  213MOL0     C28632   6.826   8.932   8.525 -0.6235  0.3184  0.2627
  213MOL0     C28633   6.896   9.045   8.465 -0.2424 -0.1478  0.0034
  213MOL0     C28634   6.963   9.006   8.333 -0.1967  0.0980 -0.0776
  213MOL0     C28635   6.987   9.135   8.256  0.0058  0.6155 -0.1396
  213MOL0     C28636   7.066   9.109   8.125 -0.4289  0.5424 -0.1883
  213MOL0     N28637   7.081   9.232   8.042  0.3759  0.3882 -1.0767
  213MOL0     C28638   7.004   9.255   7.939  0.3643  0.4101  0.4680
  213MOL0     C28639   7.032   9.382   7.902  0.9341 -0.3499 -0.1143
  213MOL0     C28640   6.969   9.462   7.788  0.1052  0.4541  0.3674
  213MOL0     C28641   6.831   9.507   7.824  0.7700 -0.3210 -0.0240
  213MOL0     C28642   6.731   9.526   7.712  0.2369 -0.3737  0.2394
  213MOL0     C28643   6.781   9.611   7.599 -0.1713  0.5476  0.3992
  213MOL0     O28644   6.686   9.625   7.495  0.0399 -0.4692 -0.3469
  213MOL0     C28645   6.694   9.728   7.399 -0.1280  0.8547 -0.0632
  213MOL0     C28646   6.811   9.724   7.317  0.6719  0.5224  0.2296
  213MOL0     C28647   6.828   9.825   7.217  1.0979  0.5970  0.6013
  213MOL0     C28648   6.971   9.816   7.148 -0.1369 -0.3487  0.2366
  213MOL0     C28649   6.725   9.913   7.182 -0.5930 -0.4278 -0.7717
  213MOL0     C28650   6.734  10.007   7.069  0.0354  0.1437  0.2935
  213MOL0     O28651   6.705  10.138   7.108  0.4210  0.0256  0.6316
  213MOL0     C28652   6.700  10.229   7.008  0.2816 -0.2056  0.0540
  213MOL0     C28653   6.806  10.309   6.971 -0.2718 -0.8020 -0.4364
  213MOL0     C28654   6.804  10.396   6.872 -0.2505 -0.4882  0.5353
  213MOL0     C28655   6.688  10.405   6.792 -0.3941  0.0784  0.4420
  213MOL0     O28656   6.678  10.464   6.670 -0.4095 -0.7378  0.0963
  213MOL0     C28657   6.685  10.601   6.673 -0.9987 -0.8853 -0.7165
  213MOL0     C28658   6.599  10.650   6.548 -0.3073 -0.2231 -0.2221
  213MOL0     C28659   6.454  10.637   6.580  0.0926 -0.4408  1.0992
  213MOL0     C28660   6.370  10.699   6.472 -0.4306  0.4093  0.5099
  213MOL0     C28661   6.219  10.684   6.487 -0.6569 -0.6220 -0.6400
  213MOL0     C28662   6.144  10.725   6.362 -0.2513 -0.2999 -0.7800
  213MOL0     C28663   5.998  10.725   6.397 -0.5710  0.0283  0.2188
  213MOL0     C28664   5.923  10.779   6.275  0.6906  0.1756 -0.4790
  213MOL0    Cl28665   5.832  10.652   6.192  0.4356  0.5065 -0.0905
  213MOL0     C28666   6.584  10.322   6.829 -0.4449  0.0811  0.3451
  213MOL0     C28667   6.590  10.227   6.928 -1.1134 -0.1494  0.0360
  213MOL0     O28668   6.787   9.974   6.965 -0.6123 -0.2447  0.9588
  213MOL0     C28669   6.616   9.916   7.273  0.2303 -0.0971 -0.3843
  213MOL0     C28670   6.595   9.826   7.373 -0.7189  1.0179  0.0069
  213MOL0     N28671   7.143   9.423   7.978 -0.0369  0.0160  0.6931
  213MOL0     N28672   7.172   9.339   8.069  0.1336  0.2159 -0.2324
  213MOL0     C28673   6.824   8.298   8.795 -0.3770  0.0417  1.2474
  213MOL0     C28674   6.812   8.193   8.883  1.1448  0.3530 -0.0243
  213MOL0     C28675   6.660   7.984   9.235 -0.7639 -0.1328  0.1658
  213MOL0     C28676   6.533   7.996   9.299 -0.0350 -0.1568  0.6440
  213MOL0     C28677   6.500   7.910   9.398  0.0449  0.8769  0.3180
  213MOL0     C28678   6.585   7.800   9.437 -0.7860 -0.2153  0.5962
  213MOL0     O28679   6.545   7.731   9.549 -0.2876  0.5559  0.3913
  213MOL0     C28680   6.578   7.598   9.575 -0.1706  0.2065  0.0274
  213MOL0     C28681   6.519   7.546   9.708  0.3662  0.3082  0.0437
  213MOL0     C28682   6.494   7.389   9.699  0.7336 -0.4152 -0.2997
  213MOL0     C28683   6.436   7.329   9.826 -0.0031 -0.4620  0.0919
  213MOL0     C28684   6.389   7.190   9.814 -0.2183  0.1511 -0.9238
  213MOL0     C28685   6.329   7.092   9.785 -0.1235  1.0229 -0.2569
  213MOL0     C28686   6.703   7.785   9.362  0.1056 -0.0060 -0.4272
  213MOL0     C28687   6.735   7.876   9.263  0.2103 -0.2157  1.6473
  213MOL0     H28688   7.061   8.261   9.106  2.0905  0.9859 -0.4548
  213MOL0     H28689   7.069   8.464   8.969 -0.2197 -0.5171 -1.1490
  213MOL0     H28690   6.940   8.657   8.858  0.1315  3.0574 -1.0240
  213MOL0     H28691   7.053   8.675   8.733 -0.7134  0.5578 -1.0234
  213MOL0     H28692   6.819   8.653   8.593  1.2318 -0.9747  0.9444
  213MOL0     H28693   6.772   8.752   8.719  1.7145  1.8894  2.0381
  213MOL0     H28694   6.970   8.913   8.667 -1.4188  0.3432  0.7985
  213MOL0     H28695   7.012   8.815   8.529  2.5485  2.2156  1.4134
  213MOL0     H28696   6.782   8.870   8.447  2.0206 -4.8208  2.4370
  213MOL0     H28697   6.758   8.962   8.605 -0.1688  2.3354 -0.0308
  213MOL0     H28698   6.815   9.116   8.446 -2.4157 -1.9218  2.0432
  213MOL0     H28699   6.968   9.087   8.536  1.6774 -3.9328  0.5482
  213MOL0     H28700   7.052   8.944   8.347 -0.8588 -0.6444  1.0111
  213MOL0     H28701   6.893   8.948   8.273 -1.5365  1.8076 -0.2708
  213MOL0     H28702   6.894   9.183   8.223  1.6476  3.5851 -0.8033
  213MOL0     H28703   7.042   9.198   8.326 -1.2519  2.1014 -0.4377
  213MOL0     H28704   7.011   9.034   8.067  2.7238 -0.8634 -1.5969
  213MOL0     H28705   7.165   9.070   8.148 -0.0066 -0.4615 -3.2253
  213MOL0     H28706   6.936   9.193   7.881  0.4302  1.6801 -1.0333
  213MOL0     H28707   7.028   9.552   7.770  2.0268 -0.7255  0.4485
  213MOL0     H28708   6.956   9.400   7.699 -1.1698 -0.1849  0.9712
  213MOL0     H28709   6.833   9.596   7.887 -0.4329  0.7898 -1.4876
  213MOL0     H28710   6.798   9.421   7.884 -1.8882  1.0852  0.6950
  213MOL0     H28711   6.641   9.574   7.752  0.6858  0.2818  0.4634
  213MOL0     H28712   6.704   9.429   7.668  0.0108 -0.0986 -0.2294
  213MOL0     H28713   6.873   9.567   7.561 -1.1336 -0.5518 -0.7644
  213MOL0     H28714   6.813   9.705   7.647  0.5842  0.1846  0.6150
  213MOL0     H28715   6.878   9.640   7.331 -0.1761 -0.5991 -1.9637
  213MOL0     H28716   7.027   9.909   7.139  0.0155 -0.5635 -1.4294
  213MOL0     H28717   7.027   9.744   7.209  2.4622 -0.8848 -2.4787
  213MOL0     H28718   6.964   9.764   7.051 -1.6827 -3.2138  1.7518
  213MOL0     H28719   6.898  10.297   7.027 -0.3439  1.5301  0.2928
  213MOL0     H28720   6.886  10.462   6.844 -0.7899 -0.4733 -1.0843
  213MOL0     H28721   6.652  10.651   6.764  3.8654 -0.0434  0.8710
  213MOL0     H28722   6.786  10.634   6.650 -0.6147 -1.8734 -0.5241
  213MOL0     H28723   6.627  10.751   6.517  0.9234 -0.4131  0.2161
  213MOL0     H28724   6.618  10.600   6.452 -1.4481  3.8847 -2.8152
  213MOL0     H28725   6.443  10.674   6.682 -0.0452  0.5358  0.7407
  213MOL0     H28726   6.428  10.531   6.584 -0.0114 -0.5120 -0.7821
  213MOL0     H28727   6.382  10.808   6.475 -0.8198  0.4356  2.6641
  213MOL0     H28728   6.403  10.673   6.371 -0.3486 -1.1547  0.9254
  213MOL0     H28729   6.195  10.751   6.570  1.5866 -0.8959  0.3114
  213MOL0     H28730   6.214  10.578   6.513  0.6454 -1.0089 -1.8481
  213MOL0     H28731   6.168  10.828   6.336  1.6013 -0.9681 -1.8667
  213MOL0     H28732   6.148  10.663   6.272 -2.7404 -2.1082  0.2333
  213MOL0     H28733   5.972  10.797   6.475 -0.2904  0.9835 -0.5502
  213MOL0     H28734   5.961  10.625   6.420 -2.0098  0.4366 -0.2335
  213MOL0     H28735   5.988  10.835   6.207  3.8150 -1.2985  1.0832
  213MOL0     H28736   5.850  10.850   6.314 -0.4494 -1.2236  0.0316
  213MOL0     H28737   6.489  10.319   6.778 -0.3035 -0.2124  0.0973
  213MOL0     H28738   6.502  10.172   6.958 -0.1811 -1.3216  0.6827
  213MOL0     H28739   6.538   9.990   7.257  0.8381  0.3069 -1.5730
  213MOL0     H28740   6.506   9.838   7.433 -2.8894 -1.6224 -2.4115
  213MOL0     H28741   6.768   8.306   8.703  0.9409 -3.5163 -0.0602
  213MOL0     H28742   6.731   8.125   8.859  1.7349  0.4720 -2.6315
  213MOL0     H28743   6.466   8.081   9.289 -1.1154 -0.8499  1.7219
  213MOL0     H28744   6.410   7.918   9.458  1.9364 -1.0816  3.6848
  213MOL0     H28745   6.556   7.531   9.491 -0.0614  1.2284 -0.8251
  213MOL0     H28746   6.687   7.587   9.580  0.1294  1.7851 -1.9331
  213MOL0     H28747   6.431   7.598   9.746  1.8161  0.9679  2.6795
  213MOL0     H28748   6.589   7.563   9.789  0.5517 -0.4263  0.0440
  213MOL0     H28749   6.591   7.338   9.692  0.2382 -2.1489  3.1335
  213MOL0     H28750   6.429   7.365   9.615  2.0347 -0.2715 -1.3856
  213MOL0     H28751   6.358   7.395   9.866 -1.4188 -1.9536 -0.1109
  213MOL0     H28752   6.513   7.315   9.902  2.5398 -4.6736 -2.8693
  213MOL0     H28753   6.260   7.018   9.750 -0.8386  1.1832  0.7678
  213MOL0     H28754   6.767   7.706   9.400 -2.2242 -3.1135 -2.5327
  213MOL0     H28755   6.828   7.872   9.207 -0.5272  0.1871  0.3302
  214MOL0     O28756  11.111   1.558  10.470  0.7332  0.4821  0.2366
  214MOL0     C28757  11.149   1.466  10.536  0.3491 -0.0075 -0.0902
  214MOL0     O28758  11.268   1.400  10.512  0.1654 -0.3739 -0.0722
  214MOL0     C28759  11.365   1.426  10.418  0.1798  0.1979  0.7806
  214MOL0     C28760  11.443   1.321  10.392 -0.7154 -0.5420  0.4524
  214MOL0     C28761  11.561   1.329  10.306  1.3193 -0.1779  0.3752
  214MOL0     C28762  11.600   1.453  10.244  0.3249  0.6860 -0.9383
  214MOL0     O28763  11.713   1.478  10.181 -0.6016 -0.3614  1.4121
  214MOL0     C28764  11.812   1.386  10.136  1.4891  0.8934  0.0567
  214MOL0     C28765  11.951   1.391  10.202  0.6384 -0.1741  0.2674
  214MOL0     C28766  11.955   1.428  10.355 -0.2608  0.0629  0.0027
  214MOL0     C28767  11.900   1.316  10.446 -0.1121  0.1613  0.4129
  214MOL0     C28768  11.982   1.190  10.433  0.2072 -1.1537 -0.0293
  214MOL0     C28769  11.949   1.092  10.535 -0.4842  0.1527 -0.9464
  214MOL0     C28770  11.819   1.017  10.489  0.1585  0.5357  0.0532
  214MOL0     C28771  11.755   0.953  10.614 -0.2418  0.3530  1.1061
  214MOL0     N28772  11.651   1.035  10.671 -0.0787  0.2087 -0.0973
  214MOL0     C28773  11.667   1.170  10.699 -0.5470  0.4170 -0.4902
  214MOL0     C28774  11.551   1.205  10.761 -0.2517 -0.3527 -0.4426
  214MOL0     C28775  11.524   1.349  10.796  0.3345  0.1500 -0.3232
  214MOL0     C28776  11.593   1.373  10.928  0.5263 -0.6360  0.2856
  214MOL0     C28777  11.592   1.523  10.973  0.6576  0.6487  0.1788
  214MOL0     C28778  11.719   1.593  10.927  0.3850  0.5391 -0.6456
  214MOL0     O28779  11.715   1.627  10.788 -0.0094  0.2224 -0.6543
  214MOL0     C28780  11.772   1.739  10.744 -0.4531 -0.6430  1.6587
  214MOL0     C28781  11.767   1.764  10.603 -0.3544 -0.7694  0.0509
  214MOL0     C28782  11.830   1.874  10.538  0.6929  0.8255 -0.4619
  214MOL0     C28783  11.813   1.887  10.388 -0.7872  0.3838 -0.5834
  214MOL0     C28784  11.903   1.970  10.615 -0.1570  0.8209 -0.2216
  214MOL0     C28785  11.969   2.092  10.566 -0.5249  0.7482  0.3133
  214MOL0     O28786  11.976   2.207  10.649  0.9253  0.2115  0.3528
  214MOL0     C28787  12.055   2.309  10.609  0.7872  0.7009  0.5229
  214MOL0     C28788  12.172   2.337  10.671 -0.1374 -0.1193 -0.4166
  214MOL0     C28789  12.262   2.434  10.624  0.7122  0.2255  0.6220
  214MOL0     C28790  12.236   2.507  10.507  0.0912  0.6703 -0.6758
  214MOL0     O28791  12.326   2.601  10.455  0.2315 -0.2875 -0.9911
  214MOL0     C28792  12.451   2.602  10.511  0.6876 -0.3082  0.6818
  214MOL0     C28793  12.539   2.697  10.435  0.1652  0.2449  1.0110
  214MOL0     C28794  12.580   2.649  10.299 -0.4283  0.3829  0.2233
  214MOL0     C28795  12.468   2.670  10.194  0.2176 -0.3816  0.3915
  214MOL0     C28796  12.503   2.631  10.052  0.5494  0.6163 -0.1732
  214MOL0     C28797  12.383   2.632   9.965  0.5174  0.3233  1.1660
  214MOL0     C28798  12.419   2.591   9.826 -0.4226 -0.2683  0.1286
  214MOL0     C28799  12.503   2.701   9.759  0.7081 -0.9386  0.2739
  214MOL0    Cl28800  12.430   2.865   9.767 -0.0636 -0.2881  0.4386
  214MOL0     C28801  12.104   2.500  10.458 -0.6181  0.2610  0.5845
  214MOL0     C28802  12.014   2.397  10.504 -0.1394 -0.3973  0.6964
  214MOL0     O28803  12.027   2.086  10.453 -0.1097  0.2681 -0.0355
  214MOL0     C28804  11.886   1.953  10.752  0.1726  0.4367 -0.2314
  214MOL0     C28805  11.827   1.842  10.817  0.2006 -0.3338 -0.2673
  214MOL0     N28806  11.470   1.097  10.768  0.7996 -0.0586  0.3066
  214MOL0     N28807  11.534   1.000  10.723  0.1762  0.5853 -0.5717
  214MOL0     C28808  11.514   1.559  10.268  0.2009  0.4677  0.4024
  214MOL0     C28809  11.393   1.543  10.345 -0.3545 -0.2147 -0.0283
  214MOL0     C28810  11.070   1.445  10.667 -0.5640  0.0630 -0.7597
  214MOL0     C28811  11.116   1.336  10.753 -0.0303 -0.0080  0.3249
  214MOL0     C28812  11.077   1.327  10.882  0.1857 -0.7114 -0.9539
  214MOL0     C28813  10.981   1.416  10.936  0.5458  0.7486  0.2020
  214MOL0     O28814  10.918   1.410  11.060 -0.3477 -0.6572  0.2274
  214MOL0     C28815  10.934   1.285  11.128  0.1321  0.0393 -0.2560
  214MOL0     C28816  10.848   1.287  11.259 -0.1956 -0.2874 -0.1077
  214MOL0     C28817  10.701   1.294  11.240  1.0625 -0.4054 -0.6724
  214MOL0     C28818  10.618   1.344  11.362 -0.4879 -0.1983 -0.6577
  214MOL0     C28819  10.626   1.257  11.483 -0.4863 -0.0880  0.3723
  214MOL0     C28820  10.630   1.195  11.587  0.4864 -0.0443  0.5400
  214MOL0     C28821  10.929   1.525  10.848 -0.2189  1.3116  0.6352
  214MOL0     C28822  10.979   1.529  10.717  0.7583 -0.0177 -0.3272
  214MOL0     H28823  11.431   1.235  10.457  1.0255 -0.1618  1.3409
  214MOL0     H28824  11.623   1.241  10.296 -1.4175 -2.4200  1.6844
  214MOL0     H28825  11.776   1.284  10.152 -1.4441  1.9942  1.0958
  214MOL0     H28826  11.832   1.395  10.029  2.6659  0.7966  0.2493
  214MOL0     H28827  12.002   1.295  10.196  2.2714  0.6268  0.6937
  214MOL0     H28828  12.012   1.463  10.146 -2.5816 -0.4495 -4.1324
  214MOL0     H28829  12.056   1.458  10.385 -0.0342 -1.4379  0.8695
  214MOL0     H28830  11.877   1.504  10.368 -1.7655 -1.5670  1.0146
  214MOL0     H28831  11.905   1.361  10.545 -2.1418 -0.8020  1.0108
  214MOL0     H28832  11.795   1.303  10.415  0.9092  0.3874 -3.8768
  214MOL0     H28833  11.976   1.150  10.332  1.6197 -0.9379 -0.2265
  214MOL0     H28834  12.087   1.221  10.445  0.4456 -0.4187 -3.1271
  214MOL0     H28835  12.037   1.026  10.534  1.2626  2.3189  0.1695
  214MOL0     H28836  11.932   1.145  10.629 -1.8937 -3.6453  1.1359
  214MOL0     H28837  11.758   1.081  10.425  0.7767 -2.9355 -4.5705
  214MOL0     H28838  11.841   0.938  10.417 -1.0292  0.2010  0.0504
  214MOL0     H28839  11.823   0.908  10.687  1.5248  0.2112 -0.5417
  214MOL0     H28840  11.702   0.863  10.583  1.5884 -0.7234  0.9396
  214MOL0     H28841  11.754   1.234  10.685  0.5856 -0.2363  2.8086
  214MOL0     H28842  11.569   1.419  10.724 -0.6249  0.1497 -0.9342
  214MOL0     H28843  11.419   1.377  10.807  0.4665  0.1189  1.1526
  214MOL0     H28844  11.696   1.336  10.919  0.4119 -0.5797 -1.7263
  214MOL0     H28845  11.528   1.319  10.997 -0.6093 -1.8567 -1.6436
  214MOL0     H28846  11.577   1.535  11.080  0.3185  2.9832 -0.0853
  214MOL0     H28847  11.504   1.573  10.934  0.3996 -1.5616 -2.3898
  214MOL0     H28848  11.809   1.538  10.956 -1.1401 -1.3504  0.7810
  214MOL0     H28849  11.720   1.688  10.981 -1.7186 -0.0501  0.5017
  214MOL0     H28850  11.695   1.703  10.549  1.2633 -2.2497 -0.5266
  214MOL0     H28851  11.904   1.845  10.345 -0.6999  0.7088 -0.7231
  214MOL0     H28852  11.725   1.831  10.355 -0.9657  1.2825 -1.7070
  214MOL0     H28853  11.805   1.993  10.361  0.7595  0.5959 -0.3306
  214MOL0     H28854  12.204   2.280  10.758  3.6481 -0.3899 -1.8232
  214MOL0     H28855  12.351   2.453  10.683  1.4486  2.3067 -1.0162
  214MOL0     H28856  12.437   2.640  10.612  1.5285  1.8811  0.0444
  214MOL0     H28857  12.501   2.505  10.510  1.3952 -0.0524  3.6826
  214MOL0     H28858  12.489   2.790  10.406 -1.3327 -1.2072 -1.4168
  214MOL0     H28859  12.628   2.720  10.495  0.2923 -0.1690  0.9849
  214MOL0     H28860  12.590   2.540  10.292  0.2563  0.5424 -3.6428
  214MOL0     H28861  12.668   2.701  10.261  0.2277 -0.3414  0.7131
  214MOL0     H28862  12.381   2.614  10.229  0.2448  1.5361  4.0225
  214MOL0     H28863  12.430   2.772  10.190 -1.5101 -0.9709  0.8850
  214MOL0     H28864  12.551   2.533  10.048 -1.8442 -0.6088 -1.2716
  214MOL0     H28865  12.579   2.703  10.021  0.4190  0.6160 -0.4920
  214MOL0     H28866  12.295   2.578  10.003 -1.9550  0.5170 -3.5686
  214MOL0     H28867  12.344   2.734   9.957 -0.3724 -0.1813 -2.7291
  214MOL0     H28868  12.324   2.581   9.773 -2.5514  1.1735  3.3858
  214MOL0     H28869  12.472   2.496   9.820  0.8591  0.3633  1.0106
  214MOL0     H28870  12.509   2.681   9.652 -1.0499  0.5235 -0.1491
  214MOL0     H28871  12.603   2.708   9.804 -0.5649 -0.7491  3.3271
  214MOL0     H28872  12.087   2.577  10.383  0.1326 -0.9695 -0.8907
  214MOL0     H28873  11.912   2.386  10.468  0.1969  3.9323 -2.3232
  214MOL0     H28874  11.930   2.028  10.818 -0.9254  1.4052 -0.5630
  214MOL0     H28875  11.820   1.846  10.925  1.0248 -2.2039 -0.1040
  214MOL0     H28876  11.551   1.649  10.219  0.6879  0.1565  0.1919
  214MOL0     H28877  11.324   1.626  10.342  0.8553  0.8242 -0.0628
  214MOL0     H28878  11.189   1.272  10.705 -0.9445  0.6085 -2.0437
  214MOL0     H28879  11.121   1.257  10.952 -1.6965  0.3858  1.5058
  214MOL0     H28880  10.897   1.198  11.072 -2.4204  0.3961  0.7250
  214MOL0     H28881  11.038   1.276  11.161 -0.1116  0.6446  0.7290
  214MOL0     H28882  10.890   1.374  11.309  3.6530 -1.9708 -0.0203
  214MOL0     H28883  10.875   1.204  11.325 -1.2148 -0.5433  0.0022
  214MOL0     H28884  10.664   1.197  11.204  0.6468 -1.6214  2.7217
  214MOL0     H28885  10.689   1.373  11.164  1.5761 -0.5658 -0.9244
  214MOL0     H28886  10.511   1.352  11.341 -0.3952  3.7984 -0.2631
  214MOL0     H28887  10.646   1.445  11.390 -0.5424 -0.8730  2.0700
  214MOL0     H28888  10.635   1.135  11.675 -1.6696 -0.1776  0.6188
  214MOL0     H28889  10.858   1.593  10.894 -1.0834 -0.7882  2.5529
  214MOL0     H28890  10.915   1.592  10.656 -1.9082 -2.6639 -0.4855
  215MOL0     O28891   0.962   2.677   2.736  0.4430 -0.3536  0.6925
  215MOL0     C28892   0.980   2.742   2.843 -0.5254 -0.2781  0.5464
  215MOL0     O28893   1.006   2.882   2.856  0.4844  0.2671  0.3001
  215MOL0     C28894   1.016   2.962   2.743  0.7282  0.1349 -1.5928
  215MOL0     C28895   1.107   3.068   2.755  0.6261  0.5764  0.3975
  215MOL0     C28896   1.136   3.154   2.647 -0.0505 -0.3944  0.5532
  215MOL0     C28897   1.067   3.141   2.527 -1.1728 -0.4880 -0.9210
  215MOL0     O28898   1.112   3.224   2.419  0.3909  0.3683 -0.9359
  215MOL0     C28899   1.038   3.211   2.294  1.5369  0.4028  0.3340
  215MOL0     C28900   1.080   3.322   2.209 -0.2687 -0.4960  0.0403
  215MOL0     C28901   1.023   3.315   2.061  0.7807  0.2190 -0.8954
  215MOL0     C28902   1.064   3.424   1.966  0.2862  0.0606 -0.6686
  215MOL0     C28903   1.008   3.384   1.828 -0.3758  0.3591  0.5900
  215MOL0     C28904   1.029   3.511   1.731  0.1145  0.5030 -0.2570
  215MOL0     C28905   0.958   3.489   1.595  0.3030  0.5524  0.0219
  215MOL0     C28906   0.801   3.508   1.608  0.1246 -0.6109 -0.0322
  215MOL0     N28907   0.737   3.417   1.512 -0.3866 -1.1242  0.2998
  215MOL0     C28908   0.753   3.433   1.382  0.0825  0.7799  0.2857
  215MOL0     C28909   0.725   3.307   1.329  0.1359  0.1811 -0.1411
  215MOL0     C28910   0.727   3.269   1.181  0.7619 -0.4965 -0.2281
  215MOL0     C28911   0.717   3.118   1.157 -0.0899  0.1491  0.4786
  215MOL0     C28912   0.837   3.037   1.182  1.0622 -0.0381  0.7615
  215MOL0     C28913   0.894   3.042   1.329  0.1968 -0.0336  0.0616
  215MOL0     O28914   1.000   2.960   1.343  0.1879 -0.5438  0.0636
  215MOL0     C28915   1.042   2.933   1.472 -0.4661 -0.2632  0.1861
  215MOL0     C28916   1.156   2.864   1.484 -0.3543  0.1203  1.0850
  215MOL0     C28917   1.224   2.839   1.608 -0.5403  0.2897 -0.3345
  215MOL0     C28918   1.342   2.747   1.604  0.4408  0.3650 -0.0212
  215MOL0     C28919   1.182   2.917   1.724 -0.3624  0.6604 -0.9770
  215MOL0     C28920   1.237   2.909   1.865  0.2722 -0.1257 -0.1607
  215MOL0     O28921   1.151   2.945   1.969  0.6392 -0.0186  0.0884
  215MOL0     C28922   1.200   2.912   2.089  0.3278  0.2137  0.2063
  215MOL0     C28923   1.291   2.995   2.162  0.0009  0.2034 -0.2558
  215MOL0     C28924   1.344   2.951   2.289  0.3130 -0.0726  0.4122
  215MOL0     C28925   1.305   2.833   2.343  0.5931  0.4071  1.0663
  215MOL0     O28926   1.373   2.784   2.448 -0.1177 -0.7468 -0.0780
  215MOL0     C28927   1.296   2.743   2.556  0.3183  0.2409 -0.0716
  215MOL0     C28928   1.374   2.735   2.689  0.2048 -0.3044  0.4607
  215MOL0     C28929   1.422   2.877   2.739 -0.8991 -0.2163  0.6313
  215MOL0     C28930   1.528   2.875   2.852  0.2464 -0.8938 -0.0406
  215MOL0     C28931   1.487   2.818   2.977  0.6967  0.2832 -0.4979
  215MOL0     C28932   1.589   2.826   3.089 -0.7586 -0.0581 -0.8206
  215MOL0     C28933   1.529   2.831   3.227  0.7276 -0.7247  0.0243
  215MOL0     C28934   1.440   2.710   3.252 -0.2336 -1.0974 -0.3725
  215MOL0    Cl28935   1.315   2.742   3.383  0.0655  0.2255 -0.1533
  215MOL0     C28936   1.206   2.759   2.283  0.5288 -0.1425 -0.0973
  215MOL0     C28937   1.155   2.800   2.165 -0.5484 -0.3943  0.5233
  215MOL0     O28938   1.354   2.873   1.875 -0.1247 -0.0037 -0.8265
  215MOL0     C28939   1.073   2.993   1.705 -0.0780  0.0298  0.4830
  215MOL0     C28940   0.994   2.996   1.585 -0.2096 -0.4169  0.0725
  215MOL0     N28941   0.681   3.226   1.435  0.1420 -0.1753 -0.3431
  215MOL0     N28942   0.697   3.295   1.537 -0.5428 -0.5977  0.4784
  215MOL0     C28943   0.987   3.028   2.509  0.5461  0.2273  0.3750
  215MOL0     C28944   0.956   2.937   2.615  0.4179  0.3080  0.5471
  215MOL0     C28945   0.996   2.660   2.965  0.1174  0.0219  0.0966
  215MOL0     C28946   0.982   2.516   2.966  0.9648 -0.3661  0.3455
  215MOL0     C28947   0.989   2.448   3.086 -0.4499  1.1107 -0.7386
  215MOL0     C28948   1.023   2.510   3.206  0.0562 -0.3468 -0.8759
  215MOL0     O28949   1.021   2.439   3.328  0.3143 -1.1034  0.7981
  215MOL0     C28950   1.000   2.522   3.443 -0.5031 -0.2271  0.1887
  215MOL0     C28951   0.943   2.435   3.557 -0.0984 -0.7966 -0.0894
  215MOL0     C28952   1.027   2.309   3.595 -0.1815  0.2793  0.2134
  215MOL0     C28953   1.184   2.342   3.621  0.4208  0.0437 -1.0757
  215MOL0     C28954   1.214   2.385   3.756 -0.4537 -0.0860 -0.4093
  215MOL0     C28955   1.244   2.419   3.870 -0.1736  0.8035 -0.2069
  215MOL0     C28956   1.056   2.643   3.199 -0.4780 -0.3782  0.3967
  215MOL0     C28957   1.041   2.719   3.083 -0.1503 -0.0658 -0.0381
  215MOL0     H28958   1.154   3.074   2.852 -1.6649  5.6266  1.5045
  215MOL0     H28959   1.223   3.218   2.654 -0.8937  0.7732  0.6111
  215MOL0     H28960   1.055   3.115   2.245  3.8882  0.7170  0.3721
  215MOL0     H28961   0.933   3.230   2.315  1.0446 -0.7772 -0.9845
  215MOL0     H28962   1.047   3.414   2.258  1.8669  1.9349 -2.7137
  215MOL0     H28963   1.188   3.334   2.199 -0.3864  0.5275 -0.0511
  215MOL0     H28964   1.046   3.214   2.026 -2.9119 -1.7457  1.6214
  215MOL0     H28965   0.914   3.308   2.072  0.6378 -0.1568 -2.3119
  215MOL0     H28966   1.016   3.514   2.005 -0.7976 -1.0267  0.6277
  215MOL0     H28967   1.174   3.427   1.970  0.3545 -1.9311  2.8765
  215MOL0     H28968   1.063   3.299   1.784  1.7444  2.6238 -1.5177
  215MOL0     H28969   0.904   3.356   1.846 -0.5267  0.7292  0.3040
  215MOL0     H28970   0.988   3.593   1.791  2.4302 -0.4408  2.8535
  215MOL0     H28971   1.136   3.524   1.713  0.8914 -1.0547  2.5959
  215MOL0     H28972   1.003   3.552   1.518  0.3917  0.9403  0.3834
  215MOL0     H28973   0.972   3.386   1.560 -2.7375  0.4058 -1.0661
  215MOL0     H28974   0.771   3.611   1.583  0.3002 -0.4978  0.2262
  215MOL0     H28975   0.773   3.499   1.713 -0.9889  3.0646  0.1537
  215MOL0     H28976   0.785   3.524   1.334  1.4899  0.2023  0.0840
  215MOL0     H28977   0.650   3.327   1.130 -1.3670 -2.3244  0.7249
  215MOL0     H28978   0.830   3.300   1.160  0.2784  2.1008  0.8108
  215MOL0     H28979   0.693   3.104   1.051 -1.5659  0.5840  0.7256
  215MOL0     H28980   0.635   3.082   1.220 -2.2097  0.8159 -1.7194
  215MOL0     H28981   0.915   3.081   1.120  1.9068  2.1178  3.1692
  215MOL0     H28982   0.811   2.937   1.145 -2.5938  1.0976 -0.1366
  215MOL0     H28983   0.810   3.000   1.385  1.5377 -0.3578  1.9289
  215MOL0     H28984   0.923   3.143   1.359 -4.3489  0.9670  1.8692
  215MOL0     H28985   1.193   2.812   1.397  0.9107 -1.2089  2.3456
  215MOL0     H28986   1.407   2.777   1.687  1.2627  0.1874 -0.5831
  215MOL0     H28987   1.296   2.649   1.620 -0.8902  0.8712 -0.6255
  215MOL0     H28988   1.397   2.749   1.509  1.1666  5.2015  0.2289
  215MOL0     H28989   1.334   3.076   2.103  1.9147 -1.0326 -0.6340
  215MOL0     H28990   1.421   3.005   2.343  1.7169  0.2213 -1.7448
  215MOL0     H28991   1.216   2.816   2.567  0.2847  0.3464 -0.9202
  215MOL0     H28992   1.266   2.642   2.526 -2.1067  1.1819 -0.9833
  215MOL0     H28993   1.309   2.693   2.766  2.2363  0.2992  2.6242
  215MOL0     H28994   1.463   2.677   2.663 -0.1714 -0.1470 -1.2844
  215MOL0     H28995   1.340   2.946   2.761 -1.2832 -0.4572 -0.0137
  215MOL0     H28996   1.473   2.909   2.648  0.1304 -4.8530 -0.7015
  215MOL0     H28997   1.609   2.807   2.821  0.0913 -2.3513  2.4646
  215MOL0     H28998   1.572   2.974   2.865 -2.7963  0.4344  1.0292
  215MOL0     H28999   1.464   2.712   2.960  0.5836 -0.2268  2.2595
  215MOL0     H29000   1.391   2.864   3.002 -0.5073 -0.9812 -2.5240
  215MOL0     H29001   1.648   2.734   3.099  1.7169  1.7246  3.7440
  215MOL0     H29002   1.652   2.915   3.091  0.1735 -0.7013 -0.9632
  215MOL0     H29003   1.463   2.918   3.234  0.8457 -0.7600  2.5531
  215MOL0     H29004   1.611   2.825   3.300  2.0689  0.4513 -1.3149
  215MOL0     H29005   1.503   2.631   3.294 -0.6705 -0.3582  1.7894
  215MOL0     H29006   1.391   2.675   3.161 -1.2791  0.5470 -0.4908
  215MOL0     H29007   1.177   2.662   2.324 -2.5761  2.2345  4.0559
  215MOL0     H29008   1.085   2.733   2.115  0.6611  1.8650 -4.9028
  215MOL0     H29009   1.035   3.051   1.788 -2.0522 -0.4774 -0.0185
  215MOL0     H29010   0.903   3.054   1.576 -0.1442 -0.1054  1.2586
  215MOL0     H29011   0.944   3.003   2.412  1.5210 -1.8313  0.4206
  215MOL0     H29012   0.903   2.845   2.592  0.7220  0.1763  0.3537
  215MOL0     H29013   0.963   2.464   2.872  5.5854  0.0788 -1.0647
  215MOL0     H29014   0.956   2.345   3.094  1.1902  0.5897 -0.0960
  215MOL0     H29015   1.100   2.551   3.476  0.5873 -3.7469  0.4503
  215MOL0     H29016   0.929   2.605   3.438 -2.2826 -1.5601  1.9183
  215MOL0     H29017   0.844   2.399   3.529 -0.7765  0.9611 -0.0365
  215MOL0     H29018   0.929   2.504   3.641  2.9732  0.0436 -0.1459
  215MOL0     H29019   1.012   2.241   3.512 -0.9159 -0.3615  0.8617
  215MOL0     H29020   1.001   2.261   3.690  1.8595  1.9897  1.7550
  215MOL0     H29021   1.228   2.411   3.550 -1.6897  2.9805  0.2579
  215MOL0     H29022   1.235   2.245   3.626 -2.6705 -1.6920 -0.2905
  215MOL0     H29023   1.284   2.426   3.969  3.4304  0.8398 -1.5278
  215MOL0     H29024   1.093   2.711   3.275 -1.2003  0.5805 -0.0788
  215MOL0     H29025   1.058   2.826   3.094  0.5045 -0.4334  4.0138
  216MOL0     O29026   7.478   5.017   6.596 -0.7615  0.2542  0.4354
  216MOL0     C29027   7.554   4.988   6.506  1.1313  0.2176 -0.8949
  216MOL0     O29028   7.683   5.036   6.495  0.2971  0.1463  0.1812
  216MOL0     C29029   7.729   5.110   6.603 -0.7648 -0.4843 -0.5862
  216MOL0     C29030   7.789   5.058   6.722  0.4614  0.2981 -0.8347
  216MOL0     C29031   7.850   5.137   6.813  0.3161  0.5820 -0.0653
  216MOL0     C29032   7.841   5.273   6.797 -0.5675 -0.5428  0.0816
  216MOL0     O29033   7.894   5.363   6.888  0.3083 -0.4774 -0.2990
  216MOL0     C29034   7.922   5.314   7.019 -0.3979 -0.2117  0.0627
  216MOL0     C29035   7.945   5.436   7.118  0.4179 -0.1523  0.9348
  216MOL0     C29036   7.971   5.376   7.260  0.7191 -0.2076  0.3536
  216MOL0     C29037   7.970   5.477   7.376  0.1088  0.9820  0.1530
  216MOL0     C29038   7.949   5.411   7.518  0.3748  0.1013  0.1827
  216MOL0     C29039   7.936   5.517   7.638  0.1873  0.5124 -0.2570
  216MOL0     C29040   7.863   5.650   7.609  0.4730  0.4122 -0.0609
  216MOL0     C29041   7.856   5.752   7.730 -0.2504 -0.9474 -0.5868
  216MOL0     N29042   7.987   5.811   7.768 -1.0987 -0.1914  0.1566
  216MOL0     C29043   8.022   5.941   7.765  0.1850 -0.3910 -0.1186
  216MOL0     C29044   8.121   5.955   7.861  0.9804  0.8185  0.6066
  216MOL0     C29045   8.202   6.078   7.894  0.8546  0.4103  0.0245
  216MOL0     C29046   8.143   6.144   8.027 -0.7770  0.3074  0.0319
  216MOL0     C29047   8.253   6.129   8.138 -0.5050 -0.3116 -0.4779
  216MOL0     C29048   8.228   6.212   8.262 -0.5320 -0.2218 -0.7716
  216MOL0     O29049   8.095   6.217   8.309  0.7687 -0.3205  0.5455
  216MOL0     C29050   8.044   6.109   8.377 -0.1731 -0.2276  0.9348
  216MOL0     C29051   8.129   6.006   8.427 -0.0319  0.7211 -0.5927
  216MOL0     C29052   8.073   5.896   8.491 -0.5208  0.3063 -0.2230
  216MOL0     C29053   8.176   5.780   8.521 -0.1827 -0.8633 -1.0689
  216MOL0     C29054   7.936   5.884   8.521 -0.3058 -0.8261  0.1956
  216MOL0     C29055   7.876   5.775   8.596 -0.0092 -0.6020  0.8142
  216MOL0     O29056   7.741   5.792   8.632 -0.5434  0.1314  0.4865
  216MOL0     C29057   7.691   5.681   8.697 -0.4201  0.4748 -0.2093
  216MOL0     C29058   7.703   5.656   8.835  1.2083 -0.3148  0.1851
  216MOL0     C29059   7.640   5.545   8.897 -0.3033 -0.2289 -0.0221
  216MOL0     C29060   7.566   5.448   8.816 -0.7745 -0.0927  0.2496
  216MOL0     O29061   7.515   5.328   8.872 -0.5514  0.3478  0.5756
  216MOL0     C29062   7.590   5.280   8.987 -0.4308  0.3956  0.8430
  216MOL0     C29063   7.567   5.132   8.985 -0.3406  1.4436  0.2455
  216MOL0     C29064   7.435   5.082   9.044  0.3805 -0.2838 -0.2434
  216MOL0     C29065   7.412   5.135   9.186 -0.6234  0.5670 -0.5436
  216MOL0     C29066   7.295   5.060   9.249 -0.5420  0.5561  0.1620
  216MOL0     C29067   7.335   4.952   9.365  0.4269  0.2970 -0.0683
  216MOL0     C29068   7.437   4.857   9.326 -0.4269 -0.2139 -0.4329
  216MOL0     C29069   7.469   4.757   9.444 -0.2451 -0.4427  0.3257
  216MOL0    Cl29070   7.610   4.636   9.415 -0.1462 -0.0711 -0.1871
  216MOL0     C29071   7.550   5.474   8.679 -1.3425  0.3573  0.5943
  216MOL0     C29072   7.619   5.580   8.619 -0.9653  0.5097  0.1240
  216MOL0     O29073   7.941   5.680   8.616 -0.2924 -0.5185 -0.3630
  216MOL0     C29074   7.849   5.990   8.472 -0.2160  0.3570  0.0131
  216MOL0     C29075   7.901   6.094   8.395 -0.6015  0.6991  0.1262
  216MOL0     N29076   8.138   5.826   7.917  0.0495  0.3407  0.0005
  216MOL0     N29077   8.057   5.742   7.862  0.1113 -0.0566 -0.1472
  216MOL0     C29078   7.779   5.334   6.684 -0.0199  0.0360 -0.5563
  216MOL0     C29079   7.714   5.250   6.587 -0.6255 -0.4731  0.7053
  216MOL0     C29080   7.503   4.899   6.403  0.1765  0.4202 -0.8680
  216MOL0     C29081   7.386   4.822   6.415  0.6206  0.0940  0.1696
  216MOL0     C29082   7.334   4.752   6.308 -0.9240  0.2843 -0.3023
  216MOL0     C29083   7.405   4.747   6.183  0.2385 -0.8681  0.3668
  216MOL0     O29084   7.354   4.690   6.069 -0.0940 -0.0629  0.3153
  216MOL0     C29085   7.414   4.569   6.033  0.4278 -0.1718 -1.0972
  216MOL0     C29086   7.365   4.521   5.894  0.0557 -0.2753 -0.8717
  216MOL0     C29087   7.223   4.454   5.897 -0.0608  0.2052  0.2028
  216MOL0     C29088   7.130   4.512   5.792 -1.0619 -0.9043  0.2549
  216MOL0     C29089   6.993   4.462   5.803  0.2214 -0.6674 -1.1381
  216MOL0     C29090   6.874   4.447   5.802  0.5016 -0.7650  0.6480
  216MOL0     C29091   7.532   4.809   6.180  0.0192 -0.1071 -0.6815
  216MOL0     C29092   7.579   4.887   6.288 -0.2463  0.2511  0.4542
  216MOL0     H29093   7.798   4.950   6.731 -1.8591 -0.0094 -1.5432
  216MOL0     H29094   7.904   5.102   6.900  0.9989  0.2181 -0.6190
  216MOL0     H29095   7.837   5.259   7.061 -1.7525  0.6832 -1.4078
  216MOL0     H29096   8.008   5.246   7.014  2.1125  2.7345  0.3909
  216MOL0     H29097   8.017   5.513   7.091 -1.3648  0.9977 -0.7946
  216MOL0     H29098   7.850   5.490   7.113 -2.8849 -5.1862 -5.0824
  216MOL0     H29099   7.886   5.312   7.286  0.3400  0.0298 -0.2872
  216MOL0     H29100   8.058   5.309   7.263  0.9830  0.1053 -0.1449
  216MOL0     H29101   8.068   5.523   7.387  0.1106  0.9628  0.2140
  216MOL0     H29102   7.886   5.541   7.348 -1.1283  0.0894  1.6591
  216MOL0     H29103   7.860   5.348   7.530  0.4001  0.0695  0.2049
  216MOL0     H29104   8.032   5.341   7.534  1.3530  0.4010 -2.9154
  216MOL0     H29105   7.881   5.455   7.709  0.8171 -0.3611 -0.5099
  216MOL0     H29106   8.022   5.537   7.701 -1.4105 -0.0738  2.2426
  216MOL0     H29107   7.909   5.686   7.517 -2.6815 -3.0496 -3.3282
  216MOL0     H29108   7.759   5.629   7.581 -1.4342  0.8785  5.4891
  216MOL0     H29109   7.811   5.701   7.816 -0.6095  0.7056  0.2448
  216MOL0     H29110   7.802   5.842   7.702  1.4071  0.6024  0.9446
  216MOL0     H29111   8.002   6.019   7.692  0.4036 -1.3933 -1.2688
  216MOL0     H29112   8.308   6.054   7.906  1.9906  2.0176 -4.5704
  216MOL0     H29113   8.191   6.147   7.810 -2.1397  0.8097  0.6328
  216MOL0     H29114   8.049   6.097   8.057 -0.4927 -0.5239 -0.3453
  216MOL0     H29115   8.121   6.250   8.012  0.2452  0.3622 -1.2534
  216MOL0     H29116   8.351   6.156   8.098 -1.2167 -0.9745 -2.7941
  216MOL0     H29117   8.254   6.024   8.167 -0.7969 -0.2110 -0.0912
  216MOL0     H29118   8.250   6.314   8.229 -1.0549 -0.1510 -0.9028
  216MOL0     H29119   8.298   6.198   8.346  3.0919 -1.5008 -3.6970
  216MOL0     H29120   8.237   6.015   8.424 -0.0147  2.8963  2.1335
  216MOL0     H29121   8.275   5.788   8.474  0.0361 -0.1992 -0.5247
  216MOL0     H29122   8.193   5.776   8.629  0.9076  2.6317 -0.9833
  216MOL0     H29123   8.144   5.681   8.489 -2.2644 -0.0560 -1.6261
  216MOL0     H29124   7.775   5.714   8.892 -0.6458 -0.2999  2.6989
  216MOL0     H29125   7.656   5.524   9.003  3.2303 -0.5681 -0.4947
  216MOL0     H29126   7.696   5.300   8.970 -0.4013 -1.1127 -1.2094
  216MOL0     H29127   7.569   5.322   9.085  5.0428 -2.8123  3.8809
  216MOL0     H29128   7.559   5.092   8.884 -1.7656  0.2379  0.8022
  216MOL0     H29129   7.640   5.074   9.043 -3.9958 -0.7325  3.1165
  216MOL0     H29130   7.438   4.972   9.047 -1.3956 -0.3507  0.2298
  216MOL0     H29131   7.358   5.101   8.969  1.3060  1.7446 -0.7338
  216MOL0     H29132   7.503   5.137   9.247 -1.6687  2.5038  1.0828
  216MOL0     H29133   7.376   5.238   9.186 -3.8732 -0.4544  1.1466
  216MOL0     H29134   7.225   5.016   9.178  0.6380 -1.6954  0.2994
  216MOL0     H29135   7.231   5.137   9.293  1.7768  0.6540  3.8061
  216MOL0     H29136   7.378   5.013   9.444  0.0240 -1.9962  2.0291
  216MOL0     H29137   7.243   4.901   9.396  0.3963  1.7762  2.4774
  216MOL0     H29138   7.522   4.905   9.278 -2.3810  1.3585 -2.5471
  216MOL0     H29139   7.398   4.792   9.246  0.3035 -2.9753  1.3054
  216MOL0     H29140   7.373   4.717   9.478 -0.5643  0.5360  0.5926
  216MOL0     H29141   7.501   4.819   9.528 -1.3791 -0.2571  0.6437
  216MOL0     H29142   7.496   5.400   8.622 -1.0444  0.1687  0.5553
  216MOL0     H29143   7.607   5.579   8.511 -1.6466  0.4558  0.1989
  216MOL0     H29144   7.743   5.979   8.493  0.1805  1.3006  3.0277
  216MOL0     H29145   7.829   6.156   8.343  0.9233  1.8501 -0.6873
  216MOL0     H29146   7.772   5.443   6.689 -3.4453 -0.1249  2.2705
  216MOL0     H29147   7.662   5.305   6.509  0.3184  0.2643  0.5634
  216MOL0     H29148   7.329   4.823   6.507 -0.4278  2.4830 -0.4383
  216MOL0     H29149   7.248   4.687   6.319 -0.0694 -0.9046 -0.3816
  216MOL0     H29150   7.522   4.584   6.029  0.4877 -0.2399 -0.0325
  216MOL0     H29151   7.402   4.488   6.107 -1.1959  0.0669 -1.0678
  216MOL0     H29152   7.430   4.443   5.852 -4.6592 -3.4801 -3.1879
  216MOL0     H29153   7.357   4.608   5.828 -0.5895 -0.2518 -0.7670
  216MOL0     H29154   7.177   4.460   5.997 -0.8744  1.3920 -0.2129
  216MOL0     H29155   7.226   4.347   5.877  0.3960 -0.2598  2.4510
  216MOL0     H29156   7.161   4.496   5.689  2.7449 -0.6421  1.2067
  216MOL0     H29157   7.140   4.621   5.805 -0.5987 -0.8545 -0.4844
  216MOL0     H29158   6.767   4.443   5.806  0.5453 -1.2524  2.4477
  216MOL0     H29159   7.587   4.799   6.087 -0.6924 -0.2207 -1.1009
  216MOL0     H29160   7.681   4.923   6.282  0.1254 -0.4363  2.1698
  217MOL0     O29161   1.784   7.285   6.066 -0.2342  0.2886  0.2962
  217MOL0     C29162   1.837   7.271   6.176  0.3791 -0.5028  1.2446
  217MOL0     O29163   1.948   7.342   6.209 -0.7242  0.0687 -0.2631
  217MOL0     C29164   1.980   7.452   6.145  0.2056  0.4434  0.5961
  217MOL0     C29165   2.100   7.456   6.076 -0.1726  0.0186  0.0125
  217MOL0     C29166   2.148   7.563   6.005 -0.5754  0.2181 -0.0878
  217MOL0     C29167   2.067   7.678   5.989 -0.2580  0.1671  0.5704
  217MOL0     O29168   2.108   7.794   5.910 -0.1400 -0.7150  0.2789
  217MOL0     C29169   2.092   7.923   5.977  0.1807 -1.0521 -1.2164
  217MOL0     C29170   2.137   8.030   5.883  0.0122 -0.2638 -0.2564
  217MOL0     C29171   2.038   8.074   5.778  0.9288  0.1319  0.0758
  217MOL0     C29172   2.091   8.145   5.658  0.0470 -0.6320  0.7655
  217MOL0     C29173   1.982   8.176   5.541  0.0774  0.0074  0.0094
  217MOL0     C29174   2.034   8.233   5.413 -0.1063  0.1303 -1.2242
  217MOL0     C29175   2.118   8.355   5.411 -0.6961 -0.6486 -0.3591
  217MOL0     C29176   2.052   8.495   5.427  0.8240 -0.6547 -0.3934
  217MOL0     N29177   2.023   8.528   5.567  0.2507 -0.8824 -0.5602
  217MOL0     C29178   2.110   8.603   5.659  0.9136 -0.3799 -0.6486
  217MOL0     C29179   2.039   8.624   5.772 -0.1741  0.1393 -1.4656
  217MOL0     C29180   2.091   8.693   5.894  0.2866 -0.3874 -0.2010
  217MOL0     C29181   2.061   8.840   5.920 -0.2736 -0.3941  0.8176
  217MOL0     C29182   1.914   8.886   5.928  0.7001  0.1390 -0.6515
  217MOL0     C29183   1.851   8.848   6.058  0.9270  0.0967 -0.3853
  217MOL0     O29184   1.925   8.920   6.160  0.5882 -0.3295  0.9092
  217MOL0     C29185   1.896   8.889   6.295  0.0689 -0.0787  1.1958
  217MOL0     C29186   1.955   8.783   6.361 -0.2385 -0.4764 -0.4877
  217MOL0     C29187   1.925   8.744   6.487 -0.3148 -0.2263 -0.8473
  217MOL0     C29188   1.989   8.622   6.536  0.4528 -0.1416  1.4794
  217MOL0     C29189   1.839   8.830   6.564 -0.1125  0.2582 -0.4002
  217MOL0     C29190   1.835   8.827   6.719  0.2853 -0.3511 -0.2162
  217MOL0     O29191   1.791   8.934   6.782  0.4253  0.2415 -0.3508
  217MOL0     C29192   1.790   8.925   6.917 -0.4239 -0.1236 -0.6639
  217MOL0     C29193   1.673   8.891   6.980  0.1598  0.4503 -0.5337
  217MOL0     C29194   1.653   8.870   7.121 -0.6351  0.4217 -0.1137
  217MOL0     C29195   1.765   8.903   7.202 -0.7933  0.2715 -0.0065
  217MOL0     O29196   1.749   8.900   7.336 -0.1975 -0.0688 -0.5034
  217MOL0     C29197   1.857   8.920   7.431 -0.7128  0.9464  1.3032
  217MOL0     C29198   1.791   8.974   7.562 -0.2918  1.0797  0.1267
  217MOL0     C29199   1.699   9.089   7.537  0.2085 -1.0040  0.5506
  217MOL0     C29200   1.580   9.084   7.644 -0.2472 -0.1204  0.8347
  217MOL0     C29201   1.628   9.090   7.791  0.6028 -0.3891 -0.9629
  217MOL0     C29202   1.516   9.107   7.884 -0.4767 -1.1436 -0.3530
  217MOL0     C29203   1.561   9.141   8.023  0.7674  0.0993  0.5404
  217MOL0     C29204   1.445   9.198   8.108 -0.1910 -0.3638  0.2804
  217MOL0    Cl29205   1.325   9.086   8.145 -0.4913 -0.2052 -0.3161
  217MOL0     C29206   1.889   8.941   7.142 -0.4391 -0.6111 -0.9633
  217MOL0     C29207   1.904   8.948   7.004 -0.4177  0.3345  0.5404
  217MOL0     O29208   1.895   8.734   6.775 -0.2366 -0.1988  0.3911
  217MOL0     C29209   1.775   8.937   6.500  0.1359  0.0740 -0.1108
  217MOL0     C29210   1.798   8.968   6.360 -1.1419  0.1329 -0.1451
  217MOL0     N29211   1.916   8.554   5.756 -0.5026 -0.1245  0.3057
  217MOL0     N29212   1.915   8.505   5.632  0.6975  0.5773 -0.1900
  217MOL0     C29213   1.953   7.680   6.060  0.2159  0.4373  1.1458
  217MOL0     C29214   1.907   7.563   6.126  1.1940 -0.5345  0.5293
  217MOL0     C29215   1.804   7.157   6.266 -0.2978  0.2158  0.2599
  217MOL0     C29216   1.711   7.056   6.228 -0.0532 -1.2419 -0.2676
  217MOL0     C29217   1.671   6.968   6.323 -0.0844 -0.1406 -1.1669
  217MOL0     C29218   1.740   6.962   6.443  0.0852 -1.1292  0.1212
  217MOL0     O29219   1.702   6.849   6.516  0.6990  0.1151  0.5747
  217MOL0     C29220   1.782   6.827   6.631  0.4951  0.2684 -0.0795
  217MOL0     C29221   1.727   6.699   6.696 -0.3959 -0.1581 -0.0334
  217MOL0     C29222   1.635   6.743   6.811  0.6579 -0.0535  1.0213
  217MOL0     C29223   1.558   6.614   6.870 -1.2266 -0.4779  0.3041
  217MOL0     C29224   1.661   6.536   6.942 -0.3340 -0.2510  0.6726
  217MOL0     C29225   1.755   6.474   6.983 -0.5530 -0.5643  0.7999
  217MOL0     C29226   1.822   7.063   6.479 -0.7241  0.8397  0.7058
  217MOL0     C29227   1.849   7.168   6.394 -0.4459  0.0886  1.0004
  217MOL0     H29228   2.171   7.374   6.087  1.2030  0.9851 -1.3609
  217MOL0     H29229   2.247   7.553   5.963 -0.3414 -1.3066  0.7580
  217MOL0     H29230   1.988   7.936   6.009  0.8190 -0.7310  0.8547
  217MOL0     H29231   2.163   7.910   6.059  2.2794 -2.5732 -3.1595
  217MOL0     H29232   2.149   8.124   5.938 -0.8534  0.6896 -1.6361
  217MOL0     H29233   2.237   8.002   5.848  0.0313  3.1672 -3.5472
  217MOL0     H29234   1.984   7.984   5.747  2.2005 -0.8233  0.5449
  217MOL0     H29235   1.968   8.140   5.829 -1.1807  0.2455 -2.6844
  217MOL0     H29236   2.125   8.241   5.698 -1.0989  0.3277 -0.4399
  217MOL0     H29237   2.180   8.095   5.619 -0.4465  0.2404 -1.6494
  217MOL0     H29238   1.935   8.083   5.505  1.1538  1.1019 -5.0498
  217MOL0     H29239   1.906   8.249   5.570  2.1249  2.8075 -1.2475
  217MOL0     H29240   2.088   8.148   5.370 -0.5977  1.0350 -3.7899
  217MOL0     H29241   1.944   8.247   5.352 -0.1462 -0.4498 -1.3108
  217MOL0     H29242   2.201   8.348   5.483 -2.0779 -2.5026  1.1790
  217MOL0     H29243   2.156   8.367   5.310  0.7827  1.8212  0.4050
  217MOL0     H29244   1.954   8.502   5.378  0.1351  0.7354  1.0821
  217MOL0     H29245   2.108   8.579   5.384 -2.5305  1.4076 -1.2032
  217MOL0     H29246   2.208   8.651   5.652  0.2225  1.8985  2.7952
  217MOL0     H29247   2.058   8.643   5.985 -1.8067 -0.3845 -0.9141
  217MOL0     H29248   2.200   8.681   5.890  0.6093  1.3070  1.6367
  217MOL0     H29249   2.105   8.894   5.836 -2.4033 -1.2842 -0.9522
  217MOL0     H29250   2.118   8.872   6.009  0.1899 -0.9124  0.7166
  217MOL0     H29251   1.856   8.839   5.847 -1.9605  0.1406  1.1232
  217MOL0     H29252   1.901   8.995   5.929  2.7626  0.4211  1.5573
  217MOL0     H29253   1.857   8.739   6.065 -0.9492 -0.2443 -2.6471
  217MOL0     H29254   1.743   8.867   6.052  0.4488 -2.6625 -2.2815
  217MOL0     H29255   2.029   8.731   6.301  1.0388  0.4100  0.2718
  217MOL0     H29256   2.018   8.557   6.453 -2.1558  0.3254  0.1015
  217MOL0     H29257   2.078   8.639   6.597 -0.4170 -1.6471  3.2664
  217MOL0     H29258   1.918   8.570   6.601  1.6078 -1.5551  1.6367
  217MOL0     H29259   1.598   8.856   6.910 -2.7271  1.1838  1.9781
  217MOL0     H29260   1.560   8.826   7.154  0.3788 -3.1717 -1.5687
  217MOL0     H29261   1.915   8.828   7.446  0.7012  1.4479 -0.7267
  217MOL0     H29262   1.931   8.990   7.391 -1.6438  0.1498 -2.0676
  217MOL0     H29263   1.761   8.882   7.613  6.6481 -2.1984 -0.4263
  217MOL0     H29264   1.875   9.000   7.628 -1.3044 -2.5278  3.1813
  217MOL0     H29265   1.673   9.088   7.431 -1.7549  0.9060  0.9403
  217MOL0     H29266   1.743   9.190   7.531  3.0213 -2.2143 -1.5538
  217MOL0     H29267   1.506   9.164   7.631  0.9817  0.8988 -0.1890
  217MOL0     H29268   1.531   8.989   7.621 -0.4288 -0.1195  1.2064
  217MOL0     H29269   1.700   9.172   7.803 -1.1275  1.4399 -2.3886
  217MOL0     H29270   1.689   9.004   7.821 -0.4060 -0.6163  0.5200
  217MOL0     H29271   1.444   9.176   7.840 -1.2873 -1.0739  1.0490
  217MOL0     H29272   1.457   9.016   7.896 -0.9171 -0.5806  2.3395
  217MOL0     H29273   1.639   9.218   8.016 -0.8299  2.1385  3.1684
  217MOL0     H29274   1.593   9.050   8.075 -1.1853 -2.0264 -1.7619
  217MOL0     H29275   1.400   9.284   8.057 -2.7829 -0.4860  2.1713
  217MOL0     H29276   1.497   9.227   8.200 -0.7827 -3.9227  1.9037
  217MOL0     H29277   1.975   8.973   7.200  1.1840 -3.2586 -1.6804
  217MOL0     H29278   2.000   8.970   6.959 -0.0898 -0.7472  0.6624
  217MOL0     H29279   1.704   8.992   6.561 -0.9477 -1.3067 -0.0759
  217MOL0     H29280   1.753   9.055   6.313  1.3877  0.8576 -1.4028
  217MOL0     H29281   1.889   7.768   6.060  2.4939  2.1942  2.0772
  217MOL0     H29282   1.822   7.566   6.194  1.6000 -2.2015  1.1538
  217MOL0     H29283   1.668   7.052   6.128 -0.9839 -2.4005  0.1515
  217MOL0     H29284   1.607   6.885   6.294  0.5937 -0.7548 -0.9469
  217MOL0     H29285   1.884   6.809   6.597 -0.4870 -2.5925 -1.9544
  217MOL0     H29286   1.784   6.905   6.707  0.3844 -0.2567  0.4639
  217MOL0     H29287   1.813   6.650   6.743 -0.3491  0.9583  1.1243
  217MOL0     H29288   1.676   6.635   6.625 -0.6703 -0.0557  0.0707
  217MOL0     H29289   1.558   6.807   6.765  2.5699  0.4307 -1.7129
  217MOL0     H29290   1.682   6.809   6.885  1.7821  0.8774 -0.4547
  217MOL0     H29291   1.524   6.549   6.789  0.0868  1.5406 -2.0064
  217MOL0     H29292   1.488   6.644   6.949 -2.0383  1.0496 -0.9584
  217MOL0     H29293   1.828   6.412   7.031 -1.0044 -3.7638 -2.1643
  217MOL0     H29294   1.859   7.063   6.581 -0.9547 -0.6265  0.8109
  217MOL0     H29295   1.920   7.245   6.424  0.6754 -0.2213 -0.7259
  218MOL0     O29296   9.801   3.948   2.595  0.0658 -0.5881 -0.4397
  218MOL0     C29297   9.911   3.900   2.589  0.2024 -0.0138  0.1130
  218MOL0     O29298   9.934   3.762   2.571  0.6265 -0.2161  1.0376
  218MOL0     C29299   9.835   3.666   2.574  0.0024  0.3199  0.1163
  218MOL0     C29300   9.867   3.556   2.502  0.2443 -0.1609 -0.0168
  218MOL0     C29301   9.787   3.438   2.517 -0.1792  0.2836 -0.3486
  218MOL0     C29302   9.673   3.446   2.585  0.9878 -0.1914 -0.2217
  218MOL0     O29303   9.608   3.332   2.569 -0.0524  0.8834 -0.3886
  218MOL0     C29304   9.523   3.282   2.675 -0.0217  0.6360  0.2765
  218MOL0     C29305   9.440   3.162   2.637 -0.9403  0.5416  0.7173
  218MOL0     C29306   9.337   3.206   2.533  0.1185 -0.8565 -0.0385
  218MOL0     C29307   9.207   3.120   2.533 -0.3673  0.1292  0.0403
  218MOL0     C29308   9.117   3.166   2.415  0.1128 -0.6261 -0.0460
  218MOL0     C29309   8.978   3.131   2.433  1.0736  0.4533  0.6596
  218MOL0     C29310   8.892   3.150   2.302  0.5339  0.7120  0.6754
  218MOL0     C29311   8.927   3.030   2.211  0.2328 -0.1078 -0.2804
  218MOL0     N29312   8.856   3.060   2.082 -0.8566 -0.0154  0.0179
  218MOL0     C29313   8.723   3.032   2.055  0.3454  0.7644 -0.0227
  218MOL0     C29314   8.720   3.005   1.915 -0.4031 -1.0767 -0.6441
  218MOL0     C29315   8.602   2.965   1.834 -0.0660  0.3104  0.0771
  218MOL0     C29316   8.595   2.808   1.815  0.3656 -0.0548 -0.8546
  218MOL0     C29317   8.704   2.749   1.717  0.5542 -0.3431 -0.2935
  218MOL0     C29318   8.676   2.600   1.702  0.2920  0.2419  0.3801
  218MOL0     O29319   8.790   2.535   1.641 -0.3904  0.2309 -0.2602
  218MOL0     C29320   8.892   2.493   1.722 -0.1288  0.2408 -0.0566
  218MOL0     C29321   9.000   2.437   1.661 -0.4155 -0.1721  0.0893
  218MOL0     C29322   9.116   2.402   1.734  1.1010 -0.0869  0.3032
  218MOL0     C29323   9.220   2.306   1.668  0.4041 -0.3742  0.1192
  218MOL0     C29324   9.131   2.435   1.869  0.2636  0.2329 -0.7295
  218MOL0     C29325   9.251   2.402   1.946  0.1410 -0.3935 -0.1060
  218MOL0     O29326   9.228   2.379   2.075  0.4898 -0.0312  0.0540
  218MOL0     C29327   9.331   2.401   2.159  0.1391 -0.7515 -0.3839
  218MOL0     C29328   9.359   2.526   2.208 -0.6909  0.1609 -0.4994
  218MOL0     C29329   9.481   2.545   2.279 -0.9929 -0.6342  0.2726
  218MOL0     C29330   9.567   2.438   2.306 -0.1021  0.3627  0.1067
  218MOL0     O29331   9.685   2.445   2.378  0.6991 -0.2307 -0.3521
  218MOL0     C29332   9.726   2.556   2.464  0.0617  0.4466 -0.0542
  218MOL0     C29333   9.871   2.536   2.489 -1.1125 -0.0221  0.3850
  218MOL0     C29334   9.950   2.568   2.361  0.3026  0.6105 -0.2963
  218MOL0     C29335  10.043   2.693   2.393  0.1932 -0.0459 -0.2502
  218MOL0     C29336  10.152   2.723   2.284  0.9130 -0.6512 -0.2669
  218MOL0     C29337  10.226   2.850   2.312  0.6282 -0.9343 -0.2664
  218MOL0     C29338  10.164   2.980   2.255  0.9789  0.1162  0.2034
  218MOL0     C29339  10.273   3.083   2.255  0.0028  0.5215  0.1374
  218MOL0    Cl29340  10.207   3.247   2.220  0.0318 -0.0344 -0.5506
  218MOL0     C29341   9.540   2.309   2.250 -0.2847  0.6315 -0.8476
  218MOL0     C29342   9.425   2.294   2.186  0.2167 -0.4099  0.4806
  218MOL0     O29343   9.365   2.412   1.897 -0.0806 -0.4059 -0.0781
  218MOL0     C29344   9.016   2.498   1.932 -0.2793  1.1093 -0.2692
  218MOL0     C29345   8.902   2.529   1.855  0.0830 -0.9774 -0.3060
  218MOL0     N29346   8.841   3.029   1.866 -0.6722  0.5896 -0.2242
  218MOL0     N29347   8.923   3.062   1.963  0.0441  0.5060 -0.2893
  218MOL0     C29348   9.633   3.566   2.649  0.3495  0.5635  0.0730
  218MOL0     C29349   9.718   3.678   2.649  0.4522  0.2977 -0.4715
  218MOL0     C29350  10.027   3.991   2.582  0.3333  0.4102  0.6180
  218MOL0     C29351  10.014   4.126   2.620 -0.7453 -0.6569 -0.0936
  218MOL0     C29352  10.121   4.221   2.618  0.2840 -0.0850  0.0230
  218MOL0     C29353  10.243   4.185   2.569 -0.4456 -0.3373  0.5735
  218MOL0     O29354  10.339   4.271   2.529  0.8754 -0.1351 -0.1524
  218MOL0     C29355  10.367   4.392   2.597  0.0907 -0.9050 -0.1607
  218MOL0     C29356  10.464   4.474   2.531  0.1617  0.3725 -0.3085
  218MOL0     C29357  10.459   4.447   2.379 -0.7369  0.1140  0.3002
  218MOL0     C29358  10.514   4.580   2.310  0.0940 -0.0009  0.3262
  218MOL0     C29359  10.659   4.604   2.347 -0.1792 -0.2293 -1.0238
  218MOL0     C29360  10.774   4.634   2.377  0.2439 -0.2533 -1.0705
  218MOL0     C29361  10.254   4.057   2.522 -0.6225  1.3900 -0.0215
  218MOL0     C29362  10.151   3.956   2.522  0.8478 -0.6208  0.5117
  218MOL0     H29363   9.957   3.545   2.441  0.4927 -1.7515  0.5867
  218MOL0     H29364   9.820   3.350   2.463 -1.5583  0.5861 -1.7523
  218MOL0     H29365   9.585   3.254   2.761 -0.2106  0.9350  0.5098
  218MOL0     H29366   9.457   3.364   2.704  2.3289  1.5749  3.5152
  218MOL0     H29367   9.508   3.085   2.598  0.3800  0.5403  2.8303
  218MOL0     H29368   9.391   3.113   2.723  0.0439 -3.2522 -0.6588
  218MOL0     H29369   9.316   3.312   2.550  0.4666 -1.1245  2.3154
  218MOL0     H29370   9.381   3.203   2.432  1.0782  1.3403  0.2357
  218MOL0     H29371   9.233   3.017   2.507  0.8100  0.6365 -0.8668
  218MOL0     H29372   9.155   3.128   2.629 -0.9475 -1.2017 -0.1317
  218MOL0     H29373   9.114   3.275   2.410 -1.6393 -0.5227  2.0782
  218MOL0     H29374   9.154   3.128   2.319 -3.5496 -1.8985 -1.1409
  218MOL0     H29375   8.958   3.031   2.473  2.1372 -0.0888 -0.1195
  218MOL0     H29376   8.930   3.200   2.503 -0.8867  0.5408 -0.7019
  218MOL0     H29377   8.785   3.151   2.326 -0.4744  0.1649 -3.2381
  218MOL0     H29378   8.928   3.237   2.247 -0.1316 -0.6193 -2.0514
  218MOL0     H29379   8.886   2.937   2.251 -0.0149  0.5071  0.9563
  218MOL0     H29380   9.033   3.018   2.190  0.5994  2.5575 -0.3406
  218MOL0     H29381   8.637   3.019   2.119 -1.2232  0.3951 -2.0812
  218MOL0     H29382   8.508   3.005   1.871  0.0341 -0.6599  1.4725
  218MOL0     H29383   8.613   3.013   1.737  3.5522 -1.1926 -0.4531
  218MOL0     H29384   8.496   2.800   1.770  0.7138  0.4925 -1.7552
  218MOL0     H29385   8.591   2.749   1.907 -0.8051  0.8793 -0.2841
  218MOL0     H29386   8.804   2.762   1.758 -0.3336 -0.4985  2.1057
  218MOL0     H29387   8.703   2.810   1.626 -1.3000  0.6180  0.3170
  218MOL0     H29388   8.587   2.577   1.643 -1.9608 -1.1401  3.9786
  218MOL0     H29389   8.653   2.548   1.796  1.9799 -1.3993 -0.0469
  218MOL0     H29390   8.985   2.394   1.562 -0.6516 -0.5829  0.2999
  218MOL0     H29391   9.251   2.235   1.745 -1.9844 -0.3926  1.1647
  218MOL0     H29392   9.172   2.256   1.583 -1.7459  3.4797 -1.1880
  218MOL0     H29393   9.306   2.355   1.620 -0.3522 -1.7245 -2.8167
  218MOL0     H29394   9.292   2.610   2.200 -0.9059  0.4152  2.5495
  218MOL0     H29395   9.495   2.639   2.332  0.1853  0.5171 -1.9452
  218MOL0     H29396   9.723   2.654   2.415  0.5112  1.3314  1.5922
  218MOL0     H29397   9.674   2.560   2.561 -0.2608 -0.7599 -0.1608
  218MOL0     H29398   9.896   2.591   2.581 -0.0248  1.6009 -0.8245
  218MOL0     H29399   9.892   2.432   2.514 -0.1489  0.3475  1.1841
  218MOL0     H29400   9.884   2.584   2.276 -0.5912 -5.2237 -1.1113
  218MOL0     H29401  10.014   2.485   2.329 -0.6251 -1.4934  2.8342
  218MOL0     H29402   9.980   2.782   2.403  1.4776  0.6789  2.4772
  218MOL0     H29403  10.093   2.684   2.491 -0.5977  0.7461  0.2373
  218MOL0     H29404  10.114   2.722   2.182  0.2920 -0.2234 -0.0472
  218MOL0     H29405  10.228   2.647   2.304  1.7513  1.0155  4.0905
  218MOL0     H29406  10.227   2.851   2.422 -2.9857 -0.4833 -0.1103
  218MOL0     H29407  10.333   2.838   2.292  0.5521  0.6364 -1.8499
  218MOL0     H29408  10.085   3.011   2.324  1.0947  2.3188 -0.5747
  218MOL0     H29409  10.140   2.977   2.149 -0.0064  0.5362  0.3963
  218MOL0     H29410  10.346   3.053   2.179  0.0015  1.9134 -0.4430
  218MOL0     H29411  10.329   3.099   2.348 -2.1385  1.5624  1.3340
  218MOL0     H29412   9.589   2.213   2.264 -1.5779  0.1906  0.9503
  218MOL0     H29413   9.394   2.197   2.149 -0.4895 -0.0223  0.0217
  218MOL0     H29414   9.017   2.509   2.040  1.7588 -3.0914  0.3538
  218MOL0     H29415   8.828   2.586   1.909  1.4774 -0.4147  1.1046
  218MOL0     H29416   9.548   3.565   2.716  1.5380 -3.6667  1.8421
  218MOL0     H29417   9.704   3.764   2.714  4.0639  1.6274 -1.2277
  218MOL0     H29418   9.922   4.174   2.652 -0.0605  0.3760  0.3751
  218MOL0     H29419  10.093   4.325   2.630  2.2155  0.7697 -2.1734
  218MOL0     H29420  10.272   4.445   2.584  0.5481 -0.0048  0.0864
  218MOL0     H29421  10.379   4.394   2.706  0.9916 -0.4461 -0.2673
  218MOL0     H29422  10.561   4.448   2.575  1.3296  0.8468 -2.4295
  218MOL0     H29423  10.456   4.579   2.560  3.0038  0.8852 -1.0686
  218MOL0     H29424  10.357   4.427   2.344 -0.6213  2.3785 -1.6301
  218MOL0     H29425  10.518   4.359   2.353 -1.9209 -1.0822  1.5027
  218MOL0     H29426  10.453   4.669   2.328 -1.3800 -0.6715 -1.0594
  218MOL0     H29427  10.510   4.573   2.201  1.2658  2.9391  0.0224
  218MOL0     H29428  10.869   4.671   2.408 -0.2870  1.2884 -1.2056
  218MOL0     H29429  10.352   4.030   2.483 -0.6528  1.1148  0.0863
  218MOL0     H29430  10.173   3.854   2.492  0.7962 -0.9062  1.4362
  219MOL0     O29431   5.050   6.545  10.588 -0.1873 -0.7005  0.8678
  219MOL0     C29432   5.102   6.630  10.517 -0.6796  0.2182 -0.2505
  219MOL0     O29433   5.083   6.767  10.535  0.0210  0.5303 -0.1201
  219MOL0     C29434   4.992   6.824  10.616  0.1595 -0.2500 -0.2850
  219MOL0     C29435   5.032   6.943  10.678  0.6891  0.3148 -0.1911
  219MOL0     C29436   4.937   7.024  10.744 -0.0208  0.2882 -0.0862
  219MOL0     C29437   4.809   6.975  10.764 -0.5633  0.1037  0.3142
  219MOL0     O29438   4.710   7.049  10.824  0.4087 -0.0740  1.1357
  219MOL0     C29439   4.723   7.189  10.828  0.3559  0.5088 -0.1028
  219MOL0     C29440   4.589   7.261  10.885  0.0982 -0.2623  0.0320
  219MOL0     C29441   4.586   7.421  10.895 -1.2445 -0.0339 -0.3116
  219MOL0     C29442   4.460   7.454  10.951  0.2271  0.7497 -1.0360
  219MOL0     C29443   4.442   7.606  10.952  0.9664 -0.0839 -0.3137
  219MOL0     C29444   4.358   7.652  11.070 -0.1274  0.5890  0.0098
  219MOL0     C29445   4.343   7.807  11.075 -0.4535  0.5353  0.5907
  219MOL0     C29446   4.302   7.879  10.949  0.7449 -0.0882  0.4179
  219MOL0     N29447   4.157   7.854  10.918 -0.5461  0.6727  0.2827
  219MOL0     C29448   4.053   7.817  11.005 -0.1396  0.0927  0.0917
  219MOL0     C29449   3.950   7.841  10.923 -0.2287  0.4087 -0.9429
  219MOL0     C29450   3.805   7.824  10.966 -0.8786 -0.5157  0.4622
  219MOL0     C29451   3.775   7.849  11.114  0.2836 -0.4347  0.8177
  219MOL0     C29452   3.806   7.989  11.168 -0.6541 -1.0045  0.4822
  219MOL0     C29453   3.805   8.008  11.312 -0.6496 -0.2999  0.5110
  219MOL0     O29454   3.905   7.925  11.369  0.3125  0.4855 -0.1837
  219MOL0     C29455   3.938   7.953  11.507 -0.2073  0.0964  0.6116
  219MOL0     C29456   3.842   8.000  11.590  0.0618  0.0650 -0.7998
  219MOL0     C29457   3.860   8.010  11.732 -0.0763 -0.6970 -0.3373
  219MOL0     C29458   3.748   8.075  11.810  0.2034 -0.5017 -0.4085
  219MOL0     C29459   3.983   7.980  11.777 -0.2353 -0.4407 -0.4882
  219MOL0     C29460   4.027   7.998  11.921 -1.0580 -0.4267  0.3529
  219MOL0     O29461   4.161   7.999  11.945 -0.5411 -0.1852  0.5232
  219MOL0     C29462   4.210   7.995  12.074  0.3618 -1.4859 -0.4134
  219MOL0     C29463   4.303   7.904  12.110 -0.6244  0.3512  0.4895
  219MOL0     C29464   4.383   7.909  12.234 -0.3866 -0.4721 -0.2021
  219MOL0     C29465   4.336   8.000  12.332  0.3391  0.1863 -0.8193
  219MOL0     O29466   4.405   8.007  12.447 -0.3629 -0.1192 -0.2028
  219MOL0     C29467   4.355   8.077  12.559 -0.4703  0.3938 -0.3174
  219MOL0     C29468   4.414   8.001  12.685 -0.2387  0.1872  0.9486
  219MOL0     C29469   4.370   8.075  12.815 -0.6639  0.7970 -0.4055
  219MOL0     C29470   4.440   8.006  12.938 -0.0725 -0.6548  0.6954
  219MOL0     C29471   4.400   8.047  13.081  0.2087  0.9530  0.2543
  219MOL0     C29472   4.252   8.074  13.111 -0.0980 -0.3915  0.1484
  219MOL0     C29473   4.225   8.152  13.242  0.1467 -0.3133  0.3609
  219MOL0     C29474   4.296   8.079  13.363 -0.0040 -0.3624  0.0391
  219MOL0    Cl29475   4.440   8.170  13.395  0.3694  0.0423 -0.1601
  219MOL0     C29476   4.228   8.085  12.296  0.4068  0.0427  0.5336
  219MOL0     C29477   4.172   8.090  12.167 -0.4635 -0.3126 -0.5723
  219MOL0     O29478   3.944   8.010  12.007 -0.0172  0.0422 -0.0416
  219MOL0     C29479   4.082   7.930  11.688 -0.4396 -0.2653 -0.0214
  219MOL0     C29480   4.059   7.918  11.554 -0.0115 -0.3485  0.3123
  219MOL0     N29481   3.992   7.896  10.803 -1.5332 -1.1707  0.4513
  219MOL0     N29482   4.117   7.900  10.798  0.3435  0.0616  0.3117
  219MOL0     C29483   4.781   6.850  10.716 -0.2118  1.0347  0.1782
  219MOL0     C29484   4.867   6.771  10.639 -0.2940  0.3168 -0.0211
  219MOL0     C29485   5.211   6.613  10.412  0.9648  1.8024 -0.2286
  219MOL0     C29486   5.236   6.701  10.306 -0.3490 -0.8028 -0.2433
  219MOL0     C29487   5.330   6.661  10.203  0.2010 -0.2613  0.2313
  219MOL0     C29488   5.403   6.539  10.204 -0.0962 -0.4065 -0.3672
  219MOL0     O29489   5.510   6.522  10.123 -0.2701  0.2541  0.3264
  219MOL0     C29490   5.576   6.397  10.125 -0.0816  1.0056  1.5818
  219MOL0     C29491   5.640   6.375   9.980  0.1353 -0.0141 -0.0956
  219MOL0     C29492   5.753   6.470   9.952 -0.4424 -0.4757 -0.7595
  219MOL0     C29493   5.826   6.433   9.818  0.8052  0.1656 -0.3486
  219MOL0     C29494   5.881   6.306   9.834 -0.8800  0.3358  0.2657
  219MOL0     C29495   5.935   6.196   9.835 -0.2404 -0.0536  0.5190
  219MOL0     C29496   5.367   6.453  10.313 -0.3786 -0.0105  0.5985
  219MOL0     C29497   5.274   6.481  10.414  0.8701  0.3708  0.0481
  219MOL0     H29498   5.128   6.992  10.665  0.0910  2.0881  1.4792
  219MOL0     H29499   4.970   7.121  10.780  0.1096  0.3244 -0.3018
  219MOL0     H29500   4.812   7.215  10.886 -0.8298 -1.0016  2.6165
  219MOL0     H29501   4.738   7.222  10.725  0.3435 -1.3180 -0.7353
  219MOL0     H29502   4.514   7.232  10.811 -1.7229  2.2074  0.7560
  219MOL0     H29503   4.566   7.215  10.981  1.3641 -0.1500  0.4105
  219MOL0     H29504   4.662   7.447  10.969 -2.7236 -0.1854  1.2928
  219MOL0     H29505   4.622   7.483  10.812 -0.3724  1.2273  0.9512
  219MOL0     H29506   4.380   7.406  10.894  1.5258 -0.2278 -2.0763
  219MOL0     H29507   4.463   7.412  11.052  1.4300  0.5146 -1.1636
  219MOL0     H29508   4.537   7.659  10.955 -0.1838  2.0276  2.0264
  219MOL0     H29509   4.393   7.636  10.859 -1.4978  3.7148  1.9615
  219MOL0     H29510   4.261   7.601  11.063  1.2279 -2.6729  2.3762
  219MOL0     H29511   4.415   7.611  11.154  0.3622 -0.3646 -0.7784
  219MOL0     H29512   4.277   7.817  11.162  0.4925 -2.0473  1.6911
  219MOL0     H29513   4.440   7.838  11.114 -0.2609 -2.7171  3.1566
  219MOL0     H29514   4.369   7.859  10.865 -1.2168 -3.0338 -0.6321
  219MOL0     H29515   4.325   7.984  10.970  2.9398 -0.1534 -1.3615
  219MOL0     H29516   4.049   7.773  11.104  0.8661  0.0826  0.1396
  219MOL0     H29517   3.741   7.889  10.906  0.7777  3.3326  2.4894
  219MOL0     H29518   3.788   7.716  10.957 -0.7166 -0.4224 -1.3987
  219MOL0     H29519   3.819   7.769  11.175 -0.8938 -2.7980 -1.2537
  219MOL0     H29520   3.669   7.829  11.127  0.1698 -1.7912 -1.4495
  219MOL0     H29521   3.739   8.058  11.117  0.2945  1.3619  2.2758
  219MOL0     H29522   3.902   8.029  11.132 -1.8504  0.8820 -0.7460
  219MOL0     H29523   3.716   7.970  11.364 -0.2308 -2.6414 -0.3613
  219MOL0     H29524   3.823   8.112  11.338  1.1773  0.4324 -3.0760
  219MOL0     H29525   3.746   8.040  11.559  0.8587  3.6796  0.8785
  219MOL0     H29526   3.689   8.144  11.750  1.4147 -1.5345 -2.9134
  219MOL0     H29527   3.688   7.991  11.846  1.0954 -0.5458  1.0991
  219MOL0     H29528   3.794   8.126  11.896  2.0838  1.8551 -2.6442
  219MOL0     H29529   4.330   7.833  12.032 -0.1231  0.3372  0.6768
  219MOL0     H29530   4.456   7.838  12.271 -0.1821 -0.5741 -0.7905
  219MOL0     H29531   4.382   8.182  12.549  1.3957 -0.1126 -0.9463
  219MOL0     H29532   4.250   8.056  12.580 -0.0735 -3.5524 -1.4687
  219MOL0     H29533   4.368   7.902  12.687  0.4900 -0.1430  1.8868
  219MOL0     H29534   4.523   7.997  12.679 -0.2284  0.0139  1.2602
  219MOL0     H29535   4.262   8.070  12.828 -0.4569  0.5362  1.4614
  219MOL0     H29536   4.396   8.181  12.812 -1.5146  1.2143  2.7732
  219MOL0     H29537   4.409   7.901  12.930 -2.0581  0.0436 -4.2079
  219MOL0     H29538   4.546   8.001  12.914  0.5194  1.1046  2.6581
  219MOL0     H29539   4.457   8.138  13.098  0.1964  0.8112  1.0679
  219MOL0     H29540   4.443   7.980  13.156 -1.8784  1.9172  2.4531
  219MOL0     H29541   4.218   8.144  13.034  1.9490 -1.4972 -1.9035
  219MOL0     H29542   4.186   7.987  13.100  2.6073 -2.2539 -4.5006
  219MOL0     H29543   4.118   8.154  13.268 -0.6369  1.5265 -2.6093
  219MOL0     H29544   4.263   8.255  13.245 -1.3599  0.2791  0.1538
  219MOL0     H29545   4.318   7.974  13.342 -2.5849 -1.4126  1.9394
  219MOL0     H29546   4.235   8.072  13.454  3.6213 -1.4795  2.5832
  219MOL0     H29547   4.191   8.165  12.359 -0.3807  0.2519 -0.1818
  219MOL0     H29548   4.104   8.172  12.144 -0.4264  0.7968  2.7135
  219MOL0     H29549   4.185   7.917  11.717 -0.3043  1.1353  0.1709
  219MOL0     H29550   4.131   7.887  11.479 -1.0276  2.7904 -2.1594
  219MOL0     H29551   4.681   6.811  10.730  0.7924 -2.3976 -1.3620
  219MOL0     H29552   4.855   6.674  10.592  0.0264  0.2536  0.0225
  219MOL0     H29553   5.196   6.802  10.307 -1.3002 -1.1730  1.4562
  219MOL0     H29554   5.371   6.731  10.131  2.2123 -0.6335  0.9417
  219MOL0     H29555   5.651   6.399  10.205  0.2578 -0.2491  1.3158
  219MOL0     H29556   5.499   6.323  10.150 -0.2977  1.0791  1.1307
  219MOL0     H29557   5.555   6.401   9.917 -1.7512 -2.8597  1.0775
  219MOL0     H29558   5.663   6.272   9.955  2.4605  0.6364 -0.8771
  219MOL0     H29559   5.816   6.484  10.040 -3.9793  1.3123  1.7229
  219MOL0     H29560   5.717   6.573   9.944 -0.1405 -0.3440 -0.4462
  219MOL0     H29561   5.907   6.504   9.799  0.1964  0.4408 -2.0314
  219MOL0     H29562   5.756   6.424   9.734 -0.6257  2.2745  0.5468
  219MOL0     H29563   5.975   6.098   9.852  1.8192  1.0257  2.5029
  219MOL0     H29564   5.409   6.355  10.331  1.5899  0.4572 -1.1021
  219MOL0     H29565   5.257   6.403  10.487  0.0024 -0.8942 -1.4445
  220MOL0     O29566   6.204   5.095   6.829 -0.0457 -0.4910 -0.2301
  220MOL0     C29567   6.111   5.176   6.814  0.0450  0.9176  0.2909
  220MOL0     O29568   5.997   5.186   6.900 -0.1053 -0.4246 -0.0145
  220MOL0     C29569   6.006   5.115   7.021  0.6505 -0.0616  0.0563
  220MOL0     C29570   5.895   5.045   7.069 -0.8534 -1.6087  1.1206
  220MOL0     C29571   5.891   4.977   7.193 -0.0036  0.3199  0.4403
  220MOL0     C29572   6.004   4.980   7.271  0.0576  0.4032 -0.2513
  220MOL0     O29573   6.011   4.916   7.392 -0.5722  0.1606 -0.1356
  220MOL0     C29574   5.896   4.829   7.431  1.0687  0.4557  0.5041
  220MOL0     C29575   5.934   4.763   7.562  0.9464  0.5373 -0.5435
  220MOL0     C29576   5.811   4.686   7.619 -0.9141 -0.5210  0.3908
  220MOL0     C29577   5.865   4.601   7.735 -0.2768  0.6871 -0.2418
  220MOL0     C29578   5.758   4.520   7.812 -0.5601  0.2490 -0.0371
  220MOL0     C29579   5.824   4.431   7.919  0.5482  0.6322  0.6127
  220MOL0     C29580   5.775   4.289   7.948  0.7874  0.9267  0.2475
  220MOL0     C29581   5.638   4.274   8.013  0.1623 -0.3873  0.6180
  220MOL0     N29582   5.655   4.295   8.161  1.2087 -0.2775 -1.1279
  220MOL0     C29583   5.742   4.225   8.241 -0.5244 -0.3150 -0.0663
  220MOL0     C29584   5.741   4.278   8.368 -0.4124  0.3174  0.8674
  220MOL0     C29585   5.801   4.214   8.483 -1.5100 -0.3837  0.6357
  220MOL0     C29586   5.949   4.177   8.470 -0.0755  0.6390 -0.4394
  220MOL0     C29587   5.977   4.035   8.408  0.6629 -0.1699 -0.1229
  220MOL0     C29588   6.131   3.997   8.411 -0.8549  0.4021  0.1270
  220MOL0     O29589   6.196   4.014   8.538 -0.1114 -0.8967 -0.0580
  220MOL0     C29590   6.311   3.947   8.575 -0.6600 -0.0208  1.3960
  220MOL0     C29591   6.343   3.935   8.704 -0.1024  0.7485  0.1872
  220MOL0     C29592   6.458   3.862   8.750  0.3264 -0.1781  0.4012
  220MOL0     C29593   6.488   3.855   8.894 -0.8593  0.3732 -0.2701
  220MOL0     C29594   6.538   3.794   8.655 -0.3086 -0.2213  0.1262
  220MOL0     C29595   6.659   3.708   8.685  0.1358 -0.0323  0.7720
  220MOL0     O29596   6.695   3.705   8.813 -0.1380 -0.2541 -0.7140
  220MOL0     C29597   6.816   3.682   8.857 -0.0483 -1.5736  0.5870
  220MOL0     C29598   6.901   3.571   8.813  0.1740  0.2255 -0.3939
  220MOL0     C29599   7.023   3.538   8.868  0.1202 -0.6430  0.6299
  220MOL0     C29600   7.073   3.627   8.967 -1.0227 -0.4694 -0.1445
  220MOL0     O29601   7.199   3.604   9.016  0.0540  0.1968  0.1022
  220MOL0     C29602   7.272   3.728   9.004 -0.4942 -0.7810  0.1686
  220MOL0     C29603   7.421   3.691   8.992 -0.8523 -0.4126  0.5113
  220MOL0     C29604   7.522   3.809   9.018 -0.6249  0.2709  0.2808
  220MOL0     C29605   7.663   3.780   8.957  0.6226  0.5939 -0.2807
  220MOL0     C29606   7.770   3.890   8.996 -0.3074 -0.2151  0.4932
  220MOL0     C29607   7.914   3.851   8.959 -0.8998  0.2279 -0.2652
  220MOL0     C29608   8.009   3.967   8.981  0.2955 -0.4019 -0.2916
  220MOL0     C29609   8.019   4.019   9.125  0.3002  0.2287  0.8564
  220MOL0    Cl29610   7.996   3.890   9.244 -0.1860  0.0858  0.1176
  220MOL0     C29611   6.996   3.737   9.007  0.3899  0.2174 -0.1811
  220MOL0     C29612   6.864   3.763   8.958  0.9149 -0.5683 -0.2711
  220MOL0     O29613   6.721   3.661   8.585 -0.5607  0.0759 -0.8942
  220MOL0     C29614   6.506   3.814   8.516  0.6749  0.1163  0.1630
  220MOL0     C29615   6.394   3.894   8.473 -0.3688  0.6538 -0.9997
  220MOL0     N29616   5.663   4.397   8.355 -0.2349  0.0331  0.0678
  220MOL0     N29617   5.608   4.401   8.241 -0.0158 -0.2762  0.1140
  220MOL0     C29618   6.109   5.059   7.236 -0.0312 -0.8777 -0.1908
  220MOL0     C29619   6.111   5.127   7.115 -0.5015 -0.8527 -0.2492
  220MOL0     C29620   6.104   5.242   6.683  0.2507  0.0815  0.2736
  220MOL0     C29621   6.006   5.331   6.653 -0.0863  0.4800 -0.3756
  220MOL0     C29622   5.993   5.391   6.529  0.4560  0.2552 -0.0966
  220MOL0     C29623   6.080   5.371   6.429  0.7561 -0.5156  0.4418
  220MOL0     O29624   6.039   5.421   6.307 -0.9577 -0.7849 -0.6614
  220MOL0     C29625   6.133   5.395   6.193  0.7446 -0.7565  0.3158
  220MOL0     C29626   6.269   5.457   6.183 -0.2326  0.3418 -0.4133
  220MOL0     C29627   6.281   5.607   6.158 -0.6720 -0.8519 -0.0287
  220MOL0     C29628   6.213   5.650   6.029 -0.6658  0.4135  0.0948
  220MOL0     C29629   6.211   5.798   6.015  0.7679  0.1763 -0.2121
  220MOL0     C29630   6.216   5.919   6.000  0.1749 -0.9650  0.1624
  220MOL0     C29631   6.180   5.281   6.457  1.4121  0.1731 -0.6221
  220MOL0     C29632   6.192   5.221   6.583 -1.2788  0.2902 -1.3010
  220MOL0     H29633   5.808   5.035   7.005 -2.3002  0.0698  2.6985
  220MOL0     H29634   5.802   4.921   7.219 -0.9572  1.8871  0.6935
  220MOL0     H29635   5.797   4.874   7.425  0.3286 -1.2747 -0.9466
  220MOL0     H29636   5.888   4.745   7.362  0.0639  1.0552 -0.1344
  220MOL0     H29637   6.010   4.685   7.556 -0.2662 -0.5934 -1.5234
  220MOL0     H29638   5.949   4.840   7.639 -0.9447  2.2585 -1.7851
  220MOL0     H29639   5.738   4.755   7.661 -0.9364 -0.3375  0.0545
  220MOL0     H29640   5.759   4.624   7.545 -1.4477 -0.1427  0.4411
  220MOL0     H29641   5.943   4.537   7.694  1.4751  3.3688 -1.3546
  220MOL0     H29642   5.916   4.667   7.807  2.5900  1.0095 -2.4264
  220MOL0     H29643   5.689   4.582   7.870 -0.7978 -0.9569  1.0178
  220MOL0     H29644   5.696   4.455   7.751 -2.7316 -1.8755  4.0447
  220MOL0     H29645   5.932   4.424   7.898  0.1783 -1.5958 -0.8820
  220MOL0     H29646   5.815   4.483   8.015 -0.2617 -1.3665  1.6699
  220MOL0     H29647   5.771   4.228   7.858 -0.7672  1.0802  0.1772
  220MOL0     H29648   5.854   4.239   8.004  0.4067  0.3544  0.2843
  220MOL0     H29649   5.596   4.176   7.989  0.6134  0.2505 -3.5516
  220MOL0     H29650   5.562   4.343   7.974  0.6900 -1.4814 -2.6674
  220MOL0     H29651   5.792   4.138   8.200 -0.6295 -0.7115  0.6304
  220MOL0     H29652   5.794   4.287   8.564  0.9866  0.2313  0.3787
  220MOL0     H29653   5.740   4.125   8.503 -2.0273  0.0447  1.0049
  220MOL0     H29654   5.994   4.179   8.570  0.1706  1.5719 -0.5566
  220MOL0     H29655   6.005   4.248   8.409 -2.3535  0.6932 -2.6266
  220MOL0     H29656   5.941   4.007   8.309 -1.5902  0.5480  0.4314
  220MOL0     H29657   5.930   3.963   8.476  1.8816 -0.8748  0.0117
  220MOL0     H29658   6.175   4.042   8.322 -2.6365 -0.2051 -1.1011
  220MOL0     H29659   6.125   3.890   8.392  0.8746 -0.3112  3.0434
  220MOL0     H29660   6.262   3.961   8.770 -2.2885 -4.9022  0.2900
  220MOL0     H29661   6.422   3.920   8.952  0.4937  1.6838 -0.1326
  220MOL0     H29662   6.475   3.751   8.923 -0.6128  0.2247 -0.6756
  220MOL0     H29663   6.591   3.886   8.915  0.4866 -2.5578 -1.8713
  220MOL0     H29664   6.866   3.517   8.725 -1.5239  4.0656 -2.3341
  220MOL0     H29665   7.081   3.454   8.833  2.4302  1.2791 -0.4836
  220MOL0     H29666   7.246   3.789   8.917  2.4229  1.8597  0.9892
  220MOL0     H29667   7.244   3.782   9.095 -1.2297 -3.1365  1.4283
  220MOL0     H29668   7.442   3.629   9.079 -0.4011 -2.1896 -0.7943
  220MOL0     H29669   7.430   3.625   8.905 -0.9332 -1.7741  1.5120
  220MOL0     H29670   7.531   3.829   9.125  0.7990  3.6780 -0.3369
  220MOL0     H29671   7.487   3.896   8.962  2.1889  0.8708 -0.7158
  220MOL0     H29672   7.687   3.678   8.990 -2.1955 -0.0814 -0.1129
  220MOL0     H29673   7.650   3.767   8.849 -2.6320 -2.6621  0.3368
  220MOL0     H29674   7.770   3.898   9.106  1.2010  0.1690  0.4881
  220MOL0     H29675   7.744   3.988   8.957  3.0353  0.5886 -0.0396
  220MOL0     H29676   7.955   3.769   9.018 -0.0988  2.0419  1.8212
  220MOL0     H29677   7.905   3.818   8.855 -3.1897  2.6868 -0.9284
  220MOL0     H29678   7.981   4.043   8.909 -1.6827 -1.0131 -0.2265
  220MOL0     H29679   8.110   3.930   8.960  0.4750  0.3908 -0.8426
  220MOL0     H29680   7.943   4.093   9.150 -1.7177 -1.4106 -0.1934
  220MOL0     H29681   8.116   4.067   9.146  0.5145 -0.5526  1.7092
  220MOL0     H29682   7.035   3.798   9.088 -1.1215 -0.9241  1.4799
  220MOL0     H29683   6.802   3.850   8.979 -1.2298 -2.3115  1.0777
  220MOL0     H29684   6.560   3.760   8.439 -1.0986 -3.3984  1.1635
  220MOL0     H29685   6.363   3.889   8.369  1.2551  0.1018 -1.4976
  220MOL0     H29686   6.190   5.076   7.306 -0.8026 -2.6291  1.1918
  220MOL0     H29687   6.193   5.193   7.088  0.7690 -2.5254 -0.6292
  220MOL0     H29688   5.929   5.354   6.726 -0.9948 -0.1420 -1.1067
  220MOL0     H29689   5.908   5.457   6.510 -0.5597 -0.6576  1.1411
  220MOL0     H29690   6.165   5.290   6.197  0.5827 -1.1781 -4.5277
  220MOL0     H29691   6.080   5.419   6.101  1.4020  1.6870  0.5160
  220MOL0     H29692   6.327   5.407   6.105  2.2587  1.8376  0.3753
  220MOL0     H29693   6.330   5.446   6.273  1.4530  4.5683 -0.7964
  220MOL0     H29694   6.386   5.635   6.168 -0.9549 -0.0894  0.9322
  220MOL0     H29695   6.241   5.665   6.242  2.3170  3.0710 -0.9703
  220MOL0     H29696   6.108   5.620   6.033  0.0019 -2.1511  3.7358
  220MOL0     H29697   6.264   5.604   5.943  0.9329  1.5520  0.3695
  220MOL0     H29698   6.229   6.025   5.987 -3.7058 -0.3519  0.2295
  220MOL0     H29699   6.255   5.255   6.384  3.1340  3.1389 -0.0465
  220MOL0     H29700   6.276   5.165   6.624 -1.9335 -0.4637 -0.9697
  221MOL0     O29701   5.761   1.350  10.860  0.0874  0.7848  0.4242
  221MOL0     C29702   5.824   1.293  10.943  0.1642  0.6263 -0.3583
  221MOL0     O29703   5.777   1.253  11.060  0.1269 -0.4547 -0.7917
  221MOL0     C29704   5.661   1.314  11.108  0.4905  1.3750 -1.0249
  221MOL0     C29705   5.674   1.370  11.235  0.6004  0.0016 -0.4126
  221MOL0     C29706   5.569   1.442  11.292 -0.7224  0.4192  0.0956
  221MOL0     C29707   5.442   1.456  11.226 -0.1113 -0.3961  0.8034
  221MOL0     O29708   5.336   1.528  11.283  0.2062 -1.3642  0.1612
  221MOL0     C29709   5.325   1.660  11.229  0.2573 -0.5932  0.1802
  221MOL0     C29710   5.207   1.733  11.303  0.8875  0.8178 -0.2157
  221MOL0     C29711   5.055   1.701  11.252 -0.1601 -0.2547 -0.5433
  221MOL0     C29712   4.964   1.804  11.300 -0.1341  0.0371  0.3697
  221MOL0     C29713   4.813   1.779  11.275  0.6899 -0.7571 -0.0714
  221MOL0     C29714   4.748   1.857  11.384  0.2829  0.0786 -0.0262
  221MOL0     C29715   4.605   1.897  11.368  0.2482  0.1442 -0.2707
  221MOL0     C29716   4.514   1.767  11.388 -0.7857 -0.2346  0.3917
  221MOL0     N29717   4.416   1.737  11.275 -0.1018 -0.4612 -0.1839
  221MOL0     C29718   4.315   1.822  11.237  0.2287  0.1990  0.6737
  221MOL0     C29719   4.265   1.785  11.120 -0.4184  0.7520  0.3172
  221MOL0     C29720   4.154   1.833  11.041  0.6681  1.2910 -0.2865
  221MOL0     C29721   4.176   1.845  10.893 -0.4396 -0.0489 -0.1766
  221MOL0     C29722   4.045   1.872  10.824 -0.3955  0.6736  0.7121
  221MOL0     C29723   4.062   1.866  10.671 -0.1463  0.3992  0.0991
  221MOL0     O29724   4.085   1.730  10.612 -0.4044 -1.2792 -0.1442
  221MOL0     C29725   3.970   1.667  10.567 -1.4270 -0.1854 -0.0084
  221MOL0     C29726   3.858   1.659  10.646  1.5538 -0.7051  1.0928
  221MOL0     C29727   3.740   1.593  10.601  0.5246  0.0968 -0.0997
  221MOL0     C29728   3.631   1.571  10.696  0.9412 -0.3370 -1.0892
  221MOL0     C29729   3.737   1.513  10.478  0.2219  0.2214 -0.3151
  221MOL0     C29730   3.628   1.419  10.434  0.6853  0.7585 -0.6087
  221MOL0     O29731   3.669   1.322  10.350 -0.2102 -0.0748  1.1674
  221MOL0     C29732   3.568   1.274  10.276  1.1334  0.4928  1.6058
  221MOL0     C29733   3.533   1.144  10.298 -0.0314 -0.1521  0.2854
  221MOL0     C29734   3.430   1.098  10.222  0.2865 -0.0423  0.2943
  221MOL0     C29735   3.370   1.157  10.106  0.7322 -1.0226 -0.6480
  221MOL0     O29736   3.275   1.086  10.035 -0.1354  0.4231  0.6476
  221MOL0     C29737   3.146   1.151  10.014 -1.1197  1.1156 -0.8975
  221MOL0     C29738   3.050   1.051   9.934 -0.6390  0.5182  0.2366
  221MOL0     C29739   2.915   1.129   9.912  1.0239  0.5276  0.5083
  221MOL0     C29740   2.932   1.210   9.783 -0.2706  0.8761 -0.9236
  221MOL0     C29741   2.805   1.253   9.714  0.9697  0.1100 -0.3222
  221MOL0     C29742   2.838   1.348   9.603  1.1440 -0.4895  0.2058
  221MOL0     C29743   2.714   1.417   9.534  0.3723  0.1397 -0.5346
  221MOL0     C29744   2.666   1.335   9.416  0.5114 -0.5844  0.4561
  221MOL0    Cl29745   2.562   1.202   9.457 -0.3446 -0.1190 -0.1561
  221MOL0     C29746   3.415   1.288  10.083  0.4808 -0.5078 -0.1494
  221MOL0     C29747   3.510   1.348  10.170  0.2242  0.4660 -0.8714
  221MOL0     O29748   3.516   1.427  10.489  0.6647 -1.0340  0.0070
  221MOL0     C29749   3.856   1.526  10.406 -0.0056  0.1761 -0.6235
  221MOL0     C29750   3.967   1.602  10.448  0.1339  0.7489 -0.5222
  221MOL0     N29751   4.344   1.670  11.093  0.5023  0.1559  0.5617
  221MOL0     N29752   4.430   1.644  11.183 -0.6251  0.6801 -0.0632
  221MOL0     C29753   5.434   1.407  11.095  0.4266  0.5322  0.2476
  221MOL0     C29754   5.538   1.327  11.041 -1.2777 -0.2573 -0.1937
  221MOL0     C29755   5.963   1.255  10.909  0.2685  0.4722 -0.3781
  221MOL0     C29756   6.053   1.245  11.015 -0.3813 -0.0533  0.3800
  221MOL0     C29757   6.189   1.214  10.986  0.3832 -0.2950  0.1480
  221MOL0     C29758   6.233   1.203  10.852  0.1643 -0.6453 -0.4612
  221MOL0     O29759   6.360   1.161  10.821  0.4239  0.9993 -0.1595
  221MOL0     C29760   6.469   1.222  10.894 -0.1794  0.2858  0.4177
  221MOL0     C29761   6.601   1.192  10.818 -0.0394 -0.9529  0.1383
  221MOL0     C29762   6.655   1.051  10.835 -0.9337 -0.2770 -1.1912
  221MOL0     C29763   6.560   0.939  10.805 -0.2857 -0.8137  0.9854
  221MOL0     C29764   6.623   0.830  10.732 -0.0440  0.9840 -0.1610
  221MOL0     C29765   6.674   0.732  10.678 -0.4301 -0.4122 -0.3960
  221MOL0     C29766   6.137   1.204  10.756 -0.5836 -0.0149  0.0573
  221MOL0     C29767   6.003   1.232  10.778 -0.7022  0.6421  0.4902
  221MOL0     H29768   5.757   1.363  11.303 -0.4323 -2.2570  0.7179
  221MOL0     H29769   5.582   1.472  11.396  1.4241 -0.0441  0.0135
  221MOL0     H29770   5.418   1.713  11.251 -1.0540  2.2129 -0.5902
  221MOL0     H29771   5.303   1.668  11.122  0.7778 -0.7100  0.0620
  221MOL0     H29772   5.211   1.708  11.409 -0.1484  0.6793 -0.2062
  221MOL0     H29773   5.241   1.837  11.299  1.8527  0.5483  0.5855
  221MOL0     H29774   5.056   1.697  11.143  2.9304 -0.4960 -0.6054
  221MOL0     H29775   5.020   1.606  11.292  0.4984 -1.3305 -2.3781
  221MOL0     H29776   4.984   1.814  11.407  1.2040  2.1893 -0.0084
  221MOL0     H29777   4.986   1.905  11.263 -2.7977  0.4882 -0.1636
  221MOL0     H29778   4.776   1.813  11.178 -1.6317  1.8848  1.5914
  221MOL0     H29779   4.783   1.676  11.297  1.4424 -0.8294  0.6988
  221MOL0     H29780   4.778   1.814  11.479 -3.8637 -2.2666  0.4580
  221MOL0     H29781   4.790   1.955  11.358 -2.2917  0.4947 -3.4735
  221MOL0     H29782   4.584   1.968  11.448  2.4146  2.2540 -1.4657
  221MOL0     H29783   4.597   1.942  11.269 -0.7875 -2.2625 -1.3823
  221MOL0     H29784   4.453   1.788  11.476  1.0521 -2.6417  2.3627
  221MOL0     H29785   4.582   1.684  11.408 -2.2693 -1.2104  1.5661
  221MOL0     H29786   4.279   1.899  11.305 -1.0640 -1.3164  1.7924
  221MOL0     H29787   4.065   1.769  11.052  2.1084 -1.0202 -1.3077
  221MOL0     H29788   4.105   1.923  11.079 -4.0081 -1.7468  1.9903
  221MOL0     H29789   4.236   1.762  10.855 -1.8992 -1.3912  0.3179
  221MOL0     H29790   4.242   1.930  10.873 -1.4858  0.8782  0.1588
  221MOL0     H29791   4.012   1.975  10.841 -2.2626  0.3691 -0.6501
  221MOL0     H29792   3.961   1.811  10.858 -3.0388  2.7728 -1.5554
  221MOL0     H29793   4.157   1.918  10.651  1.5765 -2.6226 -0.2722
  221MOL0     H29794   3.983   1.923  10.623 -0.3118  1.4774  1.5869
  221MOL0     H29795   3.853   1.711  10.741  0.4583  0.7897  0.2630
  221MOL0     H29796   3.660   1.614  10.792 -1.6857 -0.4632 -0.1708
  221MOL0     H29797   3.540   1.629  10.679 -0.3142 -1.7332  0.4766
  221MOL0     H29798   3.627   1.462  10.703  0.1779 -0.2435  0.1171
  221MOL0     H29799   3.560   1.095  10.391 -2.4225  0.0139  1.1314
  221MOL0     H29800   3.379   1.006  10.250 -0.8236  0.4581  0.0018
  221MOL0     H29801   3.111   1.189  10.110  2.9996  0.9933  0.8705
  221MOL0     H29802   3.163   1.244   9.959  2.7773  0.2015 -1.5412
  221MOL0     H29803   3.094   1.031   9.836 -1.9309  0.5222 -0.3624
  221MOL0     H29804   3.047   0.960   9.995  0.6974  1.6231  2.0336
  221MOL0     H29805   2.868   1.195   9.986 -1.7537  0.5608 -1.1720
  221MOL0     H29806   2.844   1.049   9.888  4.1312 -1.4393 -3.2279
  221MOL0     H29807   2.985   1.298   9.821  0.0806 -0.0186  0.7683
  221MOL0     H29808   2.996   1.152   9.717 -1.0588 -2.3229  0.9108
  221MOL0     H29809   2.740   1.294   9.792 -1.1533 -1.6617 -1.0565
  221MOL0     H29810   2.759   1.161   9.678  0.1178 -0.0144  1.0444
  221MOL0     H29811   2.896   1.433   9.641 -1.8082  1.3458  1.0361
  221MOL0     H29812   2.896   1.291   9.531  1.1032 -3.1879  2.1456
  221MOL0     H29813   2.754   1.505   9.483 -0.2795 -0.9391 -3.0947
  221MOL0     H29814   2.628   1.442   9.597 -0.6009  1.9193 -2.4458
  221MOL0     H29815   2.739   1.284   9.353 -2.8586 -1.1516 -3.4683
  221MOL0     H29816   2.601   1.393   9.350 -0.8913 -1.4059  1.0644
  221MOL0     H29817   3.385   1.342   9.993  0.0242 -3.0325 -1.5975
  221MOL0     H29818   3.543   1.448  10.146  1.7128 -0.4733 -3.0736
  221MOL0     H29819   3.852   1.490  10.304 -0.9643 -3.8508  0.6566
  221MOL0     H29820   4.041   1.621  10.371 -0.7563  2.8195 -0.9323
  221MOL0     H29821   5.333   1.407  11.056 -0.6046  1.0924  2.7408
  221MOL0     H29822   5.517   1.268  10.952  0.7083 -1.2149 -0.0784
  221MOL0     H29823   6.002   1.246  11.111 -0.8471  1.9148  0.1346
  221MOL0     H29824   6.252   1.207  11.074  1.4691  0.5208 -0.5309
  221MOL0     H29825   6.468   1.331  10.903  3.0038  0.4368 -0.0120
  221MOL0     H29826   6.462   1.188  10.998 -0.7140 -0.6461  0.0853
  221MOL0     H29827   6.675   1.256  10.867  2.5269 -2.2875 -1.7456
  221MOL0     H29828   6.596   1.219  10.712  1.4769  0.3933  0.3837
  221MOL0     H29829   6.695   1.039  10.936  0.1773  1.0198 -1.4440
  221MOL0     H29830   6.754   1.054  10.789  0.3229 -0.0715  1.3378
  221MOL0     H29831   6.478   0.973  10.741  0.1975  0.5526  1.0772
  221MOL0     H29832   6.510   0.903  10.895 -1.6462  0.7831  0.9122
  221MOL0     H29833   6.719   0.643  10.639 -0.4807 -0.4796 -0.3019
  221MOL0     H29834   6.162   1.192  10.652 -0.1492 -0.6248  0.2235
  221MOL0     H29835   5.929   1.232  10.699  1.0067 -3.7845 -1.4226
  222MOL0     O29836   3.013   5.411  11.037 -0.4934  0.0767 -0.2633
  222MOL0     C29837   2.903   5.354  11.013 -0.2817  0.5970 -0.0050
  222MOL0     O29838   2.859   5.326  10.880  0.2216 -0.4529  0.1286
  222MOL0     C29839   2.953   5.329  10.783 -0.4771  0.3182  0.0199
  222MOL0     C29840   2.953   5.437  10.692  0.5106 -0.1862 -0.9331
  222MOL0     C29841   3.045   5.446  10.598  0.0746 -0.7338 -0.7541
  222MOL0     C29842   3.139   5.349  10.584  0.0908 -0.1609 -0.3252
  222MOL0     O29843   3.208   5.379  10.470 -0.8975 -0.3074  0.3068
  222MOL0     C29844   3.341   5.322  10.467  0.2223  0.5584 -0.5845
  222MOL0     C29845   3.333   5.175  10.409  0.3088 -0.4051 -0.1526
  222MOL0     C29846   3.472   5.122  10.416  0.1228  1.0745 -0.5476
  222MOL0     C29847   3.498   4.965  10.423  0.6107 -0.5563  0.5770
  222MOL0     C29848   3.647   4.940  10.440  0.4327  0.1529  0.0013
  222MOL0     C29849   3.665   4.797  10.503 -0.7578 -1.1199  0.4935
  222MOL0     C29850   3.821   4.771  10.516 -0.9604  0.1627 -0.0168
  222MOL0     C29851   3.851   4.654  10.603 -0.0731  0.6455 -0.7235
  222MOL0     N29852   3.811   4.680  10.743  0.5226 -0.8454 -0.8466
  222MOL0     C29853   3.882   4.758  10.827  0.7421  1.2043 -0.3487
  222MOL0     C29854   3.814   4.750  10.944  0.0408  0.6489  0.0495
  222MOL0     C29855   3.848   4.825  11.065 -0.9051  0.1663  0.5524
  222MOL0     C29856   3.905   4.965  11.045  0.5800  0.2407  0.1727
  222MOL0     C29857   3.916   5.049  11.166  0.2393  0.1594  0.2038
  222MOL0     C29858   3.781   5.081  11.238  0.2208  0.7874 -1.3935
  222MOL0     O29859   3.795   5.178  11.343  1.6203 -0.8103  0.9293
  222MOL0     C29860   3.693   5.265  11.358  0.4227  0.2586 -0.6600
  222MOL0     C29861   3.715   5.384  11.424  0.3782 -0.3248  0.3420
  222MOL0     C29862   3.623   5.480  11.460 -0.3063 -0.3154  0.1762
  222MOL0     C29863   3.681   5.601  11.531  0.3567 -0.4836  0.8902
  222MOL0     C29864   3.487   5.451  11.423  1.1370  0.5526 -0.2375
  222MOL0     C29865   3.374   5.544  11.442 -0.3114 -0.4326 -0.1036
  222MOL0     O29866   3.250   5.504  11.409 -0.1818 -0.0826 -0.6373
  222MOL0     C29867   3.156   5.603  11.426 -0.5505  0.4144 -0.6138
  222MOL0     C29868   3.120   5.648  11.551  0.5337 -0.2224 -0.6507
  222MOL0     C29869   3.006   5.739  11.559  1.0693  0.2523  0.1610
  222MOL0     C29870   2.934   5.763  11.451  0.5884 -1.0732  0.2458
  222MOL0     O29871   2.816   5.837  11.463  0.2726  0.2063 -0.0520
  222MOL0     C29872   2.731   5.855  11.346 -0.3240  0.3282  0.0481
  222MOL0     C29873   2.604   5.928  11.391 -0.2625  0.4782  1.1934
  222MOL0     C29874   2.502   5.835  11.460  0.2961  0.2166  0.7043
  222MOL0     C29875   2.415   5.930  11.548 -0.0202 -0.8610 -0.8752
  222MOL0     C29876   2.322   6.034  11.474 -0.4286  1.0132 -0.1719
  222MOL0     C29877   2.224   5.978  11.377 -0.4947  0.7044 -0.3723
  222MOL0     C29878   2.102   5.953  11.464  0.1562  0.2318 -0.8344
  222MOL0     C29879   1.992   5.867  11.402  0.3662 -0.0253 -0.4723
  222MOL0    Cl29880   1.896   5.953  11.278 -0.7147  0.4007 -0.2500
  222MOL0     C29881   2.968   5.721  11.326 -0.3478 -0.0871  0.7738
  222MOL0     C29882   3.072   5.636  11.315  0.5955  0.6160  0.3343
  222MOL0     O29883   3.404   5.657  11.470 -0.2167 -0.2904  0.0667
  222MOL0     C29884   3.454   5.331  11.359  0.4334  0.8510  0.1762
  222MOL0     C29885   3.558   5.239  11.341  0.3281  0.2508  0.0679
  222MOL0     N29886   3.709   4.661  10.931  0.1322 -0.7773  0.2569
  222MOL0     N29887   3.701   4.624  10.806 -0.5079 -0.0037  0.3986
  222MOL0     C29888   3.146   5.244  10.675 -0.6639 -0.2859 -0.1163
  222MOL0     C29889   3.057   5.233  10.777 -0.2567 -0.0135  0.8042
  222MOL0     C29890   2.812   5.314  11.131 -0.3213 -0.3131  0.4460
  222MOL0     C29891   2.682   5.278  11.109 -0.4049 -0.1237  0.7383
  222MOL0     C29892   2.595   5.252  11.218  1.2464  0.1644 -0.3508
  222MOL0     C29893   2.647   5.258  11.351  0.5780 -0.4830 -0.1701
  222MOL0     O29894   2.562   5.225  11.446  1.0690  0.0049 -0.4971
  222MOL0     C29895   2.580   5.282  11.577 -0.2417  0.8790  0.1105
  222MOL0     C29896   2.533   5.432  11.586 -0.7017 -0.0092 -0.1771
  222MOL0     C29897   2.578   5.511  11.710 -1.3847  1.0228 -0.5988
  222MOL0     C29898   2.725   5.560  11.698 -0.3108 -0.2300 -0.6490
  222MOL0     C29899   2.796   5.514  11.825 -0.2824  0.4424  0.2071
  222MOL0     C29900   2.848   5.487  11.935  0.0051 -0.4626  0.4338
  222MOL0     C29901   2.776   5.290  11.369 -0.5655 -0.0842  0.3918
  222MOL0     C29902   2.863   5.320  11.256  0.1233 -0.4223 -0.0588
  222MOL0     H29903   2.880   5.513  10.717 -0.3102 -1.0263 -0.6960
  222MOL0     H29904   3.037   5.520  10.520  0.0731  1.0649  0.8888
  222MOL0     H29905   3.412   5.371  10.400  2.5541 -0.3086  1.1202
  222MOL0     H29906   3.386   5.333  10.566 -2.4030  0.6251  0.6739
  222MOL0     H29907   3.259   5.110  10.457 -1.3416  0.8063 -0.9587
  222MOL0     H29908   3.309   5.172  10.303  1.3689 -4.1449 -0.4385
  222MOL0     H29909   3.538   5.173  10.345  2.4969 -0.9718  0.0370
  222MOL0     H29910   3.524   5.145  10.509 -0.5017 -0.2946  0.1696
  222MOL0     H29911   3.448   4.916  10.507  1.4573 -2.7304 -0.1038
  222MOL0     H29912   3.450   4.915  10.338  0.5758  0.4706 -0.0336
  222MOL0     H29913   3.695   4.936  10.341  0.3139  1.9590 -0.1698
  222MOL0     H29914   3.696   5.014  10.504  1.1579  0.3720 -0.7826
  222MOL0     H29915   3.624   4.799  10.605  1.7991 -0.5974  1.6079
  222MOL0     H29916   3.609   4.715  10.457 -0.5309 -1.7959  1.3810
  222MOL0     H29917   3.860   4.742  10.418 -0.1834 -1.0630  0.6427
  222MOL0     H29918   3.876   4.859  10.550  1.2536 -1.6294  1.2355
  222MOL0     H29919   3.957   4.630  10.595  0.5475  2.3173  1.5948
  222MOL0     H29920   3.789   4.571  10.566  1.2996 -0.7288 -0.0604
  222MOL0     H29921   3.973   4.814  10.808 -0.1634  1.9243 -3.0938
  222MOL0     H29922   3.749   4.843  11.108 -2.3188 -0.7179 -2.0908
  222MOL0     H29923   3.910   4.757  11.124 -0.2775 -1.7318 -2.1206
  222MOL0     H29924   3.839   5.020  10.977 -1.1191 -0.4497  1.1693
  222MOL0     H29925   3.999   4.969  10.991  1.6388  5.9729  1.7635
  222MOL0     H29926   3.962   5.143  11.133 -2.1993  1.5485  0.4826
  222MOL0     H29927   3.983   5.000  11.237  0.0313 -0.9531 -0.3434
  222MOL0     H29928   3.733   4.994  11.286 -0.6171  1.8202 -0.3058
  222MOL0     H29929   3.715   5.119  11.160 -0.0816  0.8675 -1.0994
  222MOL0     H29930   3.813   5.403  11.467  0.4026  1.0509 -0.2761
  222MOL0     H29931   3.756   5.567  11.604  0.2418  0.0908  1.2812
  222MOL0     H29932   3.721   5.664  11.451  0.0737 -1.9534 -0.4824
  222MOL0     H29933   3.597   5.638  11.590 -3.3209 -5.1059 -0.7811
  222MOL0     H29934   3.175   5.639  11.644 -1.0671  2.7929  0.7440
  222MOL0     H29935   2.981   5.788  11.653 -1.0087 -1.2639  0.4857
  222MOL0     H29936   2.781   5.921  11.275  0.7983 -0.5895 -0.0490
  222MOL0     H29937   2.702   5.756  11.309 -1.1852  0.0838  1.3129
  222MOL0     H29938   2.639   5.998  11.468  2.5487  0.2356  0.2404
  222MOL0     H29939   2.552   5.974  11.306 -1.6493 -2.1236  0.5374
  222MOL0     H29940   2.549   5.767  11.532  1.7681  3.2115  2.7988
  222MOL0     H29941   2.434   5.789  11.388  2.7578  1.0072 -2.3675
  222MOL0     H29942   2.341   5.875  11.608  2.0209 -0.2531  2.4515
  222MOL0     H29943   2.465   5.986  11.628 -0.9058 -1.8884  0.4474
  222MOL0     H29944   2.389   6.100  11.419  0.9319 -0.1206  0.0821
  222MOL0     H29945   2.280   6.095  11.554 -1.6967 -0.9835  0.7894
  222MOL0     H29946   2.199   6.057  11.304 -0.6945  0.5101 -0.5129
  222MOL0     H29947   2.246   5.878  11.340  0.7800 -0.7087  3.7113
  222MOL0     H29948   2.060   6.046  11.504 -0.2298 -1.2423  2.5060
  222MOL0     H29949   2.134   5.905  11.557 -2.5431  2.1328  1.2298
  222MOL0     H29950   1.908   5.838  11.467  0.3100  0.9688 -0.0886
  222MOL0     H29951   2.045   5.778  11.368 -0.8039 -0.5651 -0.9500
  222MOL0     H29952   2.912   5.741  11.236 -1.2394  3.6725  1.9795
  222MOL0     H29953   3.101   5.584  11.224 -0.8981 -1.0246  0.7419
  222MOL0     H29954   3.353   5.295  11.343  1.0249 -1.3114  0.8824
  222MOL0     H29955   3.534   5.140  11.302  1.0593 -0.3884  1.1958
  222MOL0     H29956   3.223   5.169  10.668 -1.3974 -1.2240  1.3645
  222MOL0     H29957   3.068   5.154  10.851 -3.2736 -2.9583 -1.5862
  222MOL0     H29958   2.644   5.255  11.010  0.5274  0.6819  0.1740
  222MOL0     H29959   2.496   5.213  11.198 -0.3731  4.1430 -1.0528
  222MOL0     H29960   2.517   5.234  11.653 -0.6779  0.1202 -0.7070
  222MOL0     H29961   2.684   5.269  11.606  0.5130 -3.1641 -3.2997
  222MOL0     H29962   2.424   5.428  11.590 -0.9610  2.7100 -1.8392
  222MOL0     H29963   2.573   5.491  11.503  1.4195 -0.2469  0.6077
  222MOL0     H29964   2.562   5.442  11.793 -1.0275  0.1987 -1.1940
  222MOL0     H29965   2.502   5.589  11.719 -0.5487  1.6186  3.1958
  222MOL0     H29966   2.732   5.666  11.671 -2.0242 -0.1394 -0.8510
  222MOL0     H29967   2.779   5.521  11.611  1.4800  0.7831 -0.0486
  222MOL0     H29968   2.883   5.458  12.032 -1.1508 -3.0610  0.1755
  222MOL0     H29969   2.817   5.312  11.466 -2.4922  0.3848  1.1541
  222MOL0     H29970   2.962   5.351  11.285 -1.0325 -0.4629  4.7870
  223MOL0     O29971   3.775   5.582   6.125 -0.6830  0.1428 -0.1805
  223MOL0     C29972   3.661   5.577   6.097 -0.0162  0.4969 -0.2985
  223MOL0     O29973   3.573   5.469   6.131 -0.2499  0.2127 -0.3445
  223MOL0     C29974   3.628   5.381   6.221  0.4232 -1.0295 -0.3554
  223MOL0     C29975   3.683   5.257   6.190 -0.2730  0.2841  0.1681
  223MOL0     C29976   3.740   5.172   6.282  0.6674  0.1925  0.5120
  223MOL0     C29977   3.726   5.196   6.419  0.0457 -0.0633 -0.0382
  223MOL0     O29978   3.770   5.111   6.509  0.1541 -0.3816  0.3578
  223MOL0     C29979   3.914   5.116   6.528 -0.5722  0.1182  0.7211
  223MOL0     C29980   4.001   4.996   6.544  0.2204 -0.1773 -0.8135
  223MOL0     C29981   4.147   5.019   6.581 -0.6557 -0.3178  0.4784
  223MOL0     C29982   4.223   4.886   6.566  0.0065 -0.6810 -0.5217
  223MOL0     C29983   4.364   4.893   6.629 -0.2631  0.7503 -0.3850
  223MOL0     C29984   4.378   4.888   6.786  0.9025 -0.7386 -0.6797
  223MOL0     C29985   4.505   4.836   6.844  0.8615  0.2834 -0.5083
  223MOL0     C29986   4.626   4.942   6.835  0.0277 -0.0627  0.1138
  223MOL0     N29987   4.746   4.887   6.901 -0.0090 -0.2540 -0.6843
  223MOL0     C29988   4.839   4.808   6.833 -0.0126  0.0936 -0.0305
  223MOL0     C29989   4.902   4.742   6.927  0.1383  0.3149 -1.2116
  223MOL0     C29990   5.001   4.633   6.902  0.6213  0.7061 -0.7206
  223MOL0     C29991   5.095   4.606   7.019  0.4204  0.2757 -1.2300
  223MOL0     C29992   5.049   4.486   7.102 -0.0009 -0.1038  0.7726
  223MOL0     C29993   5.129   4.464   7.230 -0.4456 -0.2471 -0.1629
  223MOL0     O29994   5.144   4.324   7.257  0.7360  0.1927 -0.6600
  223MOL0     C29995   5.127   4.287   7.387  0.1535  0.6196  0.4567
  223MOL0     C29996   5.202   4.344   7.492 -0.0876  0.4405 -0.7640
  223MOL0     C29997   5.178   4.319   7.628  0.2280 -0.6672  0.0590
  223MOL0     C29998   5.267   4.392   7.725  0.1802  1.7289 -0.0746
  223MOL0     C29999   5.100   4.202   7.660  0.4365  0.0994  1.2190
  223MOL0     C30000   5.107   4.133   7.785 -0.4002 -0.0950  0.2551
  223MOL0     O30001   5.037   4.022   7.792  0.9871  0.5388  0.8295
  223MOL0     C30002   5.004   3.956   7.911  0.8924  0.0794 -0.5878
  223MOL0     C30003   5.097   3.924   8.005 -1.1389 -0.1559  0.4408
  223MOL0     C30004   5.061   3.857   8.123 -0.0249 -0.8911  0.4532
  223MOL0     C30005   4.923   3.842   8.154 -0.9169  0.3808 -0.8889
  223MOL0     O30006   4.883   3.784   8.275 -0.0499 -0.8112  0.1970
  223MOL0     C30007   4.777   3.848   8.350 -0.5064  0.1567 -1.0411
  223MOL0     C30008   4.802   3.801   8.496 -0.0643  0.1359  0.3175
  223MOL0     C30009   4.795   3.655   8.506 -0.1023  0.5549 -1.5447
  223MOL0     C30010   4.860   3.595   8.636 -0.0717 -0.0319  0.6326
  223MOL0     C30011   4.845   3.441   8.636 -0.0421 -1.0344 -1.4733
  223MOL0     C30012   4.717   3.384   8.672  0.0459 -0.0631 -0.6969
  223MOL0     C30013   4.644   3.458   8.784 -0.4708 -0.3885 -0.2354
  223MOL0     C30014   4.511   3.404   8.819 -0.4168  0.6414 -1.0114
  223MOL0    Cl30015   4.442   3.470   8.977 -0.2019 -0.0961  0.0946
  223MOL0     C30016   4.822   3.876   8.062 -0.2690  0.1357  0.5402
  223MOL0     C30017   4.869   3.934   7.938  0.1035 -0.0468 -0.0444
  223MOL0     O30018   5.173   4.185   7.876 -0.2472 -0.2754 -0.0406
  223MOL0     C30019   5.029   4.141   7.557 -0.5416 -0.4007  0.5931
  223MOL0     C30020   5.044   4.185   7.427 -0.0077 -0.8826 -1.2134
  223MOL0     N30021   4.854   4.786   7.052  0.3878  0.4972  0.9687
  223MOL0     N30022   4.757   4.868   7.033  1.1958 -0.0079 -0.0568
  223MOL0     C30023   3.669   5.324   6.462  0.0220  0.8471 -0.1063
  223MOL0     C30024   3.619   5.412   6.363  0.3500 -0.3210 -0.1132
  223MOL0     C30025   3.591   5.690   6.046 -0.2170 -0.2435  1.2039
  223MOL0     C30026   3.657   5.812   6.041 -0.0985  0.9761 -0.0864
  223MOL0     C30027   3.593   5.929   5.997 -0.1665  0.4397  0.1962
  223MOL0     C30028   3.468   5.928   5.943 -0.0630  0.6319 -0.5096
  223MOL0     O30029   3.412   6.049   5.917 -0.1377 -0.5217  0.3075
  223MOL0     C30030   3.287   6.059   5.857 -0.4925 -0.9102 -0.7930
  223MOL0     C30031   3.261   6.198   5.797  0.3448 -0.0082 -0.4139
  223MOL0     C30032   3.123   6.216   5.730 -0.6732  0.2416 -0.0604
  223MOL0     C30033   3.101   6.190   5.585  0.6409  0.9310 -0.1950
  223MOL0     C30034   3.226   6.218   5.511  0.2231  0.5205 -0.8279
  223MOL0     C30035   3.332   6.251   5.460  0.6120  1.5556 -0.1385
  223MOL0     C30036   3.400   5.800   5.941  0.0552 -0.8659 -0.5055
  223MOL0     C30037   3.452   5.681   5.987 -1.0077  0.1681  0.3045
  223MOL0     H30038   3.691   5.212   6.091 -1.2297 -0.1962  0.3058
  223MOL0     H30039   3.783   5.078   6.250  0.2915 -0.3261  1.4914
  223MOL0     H30040   3.966   5.172   6.451  2.8573  1.0310  3.4431
  223MOL0     H30041   3.925   5.178   6.618  0.6636  0.4127  0.3870
  223MOL0     H30042   3.964   4.935   6.626  2.2544  0.9352  1.0419
  223MOL0     H30043   3.993   4.951   6.444  1.5266  0.2387 -1.1381
  223MOL0     H30044   4.200   5.088   6.515  2.2623 -0.3224  2.6422
  223MOL0     H30045   4.150   5.068   6.679 -0.9477 -0.0805  0.3714
  223MOL0     H30046   4.160   4.811   6.617 -0.2839  0.1556  0.3818
  223MOL0     H30047   4.231   4.870   6.458 -0.0002  2.0267 -0.9776
  223MOL0     H30048   4.399   4.792   6.608 -1.7396 -0.8590  3.7968
  223MOL0     H30049   4.436   4.964   6.588  0.4075 -1.0866 -2.5413
  223MOL0     H30050   4.360   4.984   6.834  2.4688 -0.1657 -1.2004
  223MOL0     H30051   4.305   4.813   6.820  0.6656 -0.4417 -0.5326
  223MOL0     H30052   4.482   4.808   6.947 -2.1791  3.7149 -0.0569
  223MOL0     H30053   4.532   4.758   6.772 -0.9497  0.3925 -1.3629
  223MOL0     H30054   4.603   5.030   6.896  1.0943  0.1093  0.2912
  223MOL0     H30055   4.636   4.979   6.733 -1.2072 -1.4240 -0.5247
  223MOL0     H30056   4.858   4.792   6.727  2.4112  0.2281  0.3189
  223MOL0     H30057   4.945   4.542   6.878 -1.7311  0.8249  3.3965
  223MOL0     H30058   5.062   4.670   6.818  2.7482  1.1042  0.9204
  223MOL0     H30059   5.101   4.692   7.087 -3.8607 -0.1430  0.0185
  223MOL0     H30060   5.191   4.576   6.978  1.0868  1.9728 -0.9823
  223MOL0     H30061   5.055   4.394   7.043 -1.7695 -0.8240  1.6400
  223MOL0     H30062   4.941   4.497   7.120 -0.3325 -3.0503  1.0906
  223MOL0     H30063   5.075   4.506   7.315 -0.1958 -1.3796  0.5895
  223MOL0     H30064   5.230   4.506   7.233 -1.5971  2.6876  0.2161
  223MOL0     H30065   5.268   4.425   7.461 -0.0242 -0.2992 -2.6996
  223MOL0     H30066   5.355   4.330   7.746 -1.1252  0.4708  1.9430
  223MOL0     H30067   5.308   4.480   7.674  3.8224 -0.1011 -0.6553
  223MOL0     H30068   5.207   4.442   7.801 -1.4559  1.3786 -1.0926
  223MOL0     H30069   5.201   3.950   7.989 -1.3422  1.6026  1.6947
  223MOL0     H30070   5.140   3.845   8.196  0.8187 -0.8542 -0.4312
  223MOL0     H30071   4.787   3.956   8.332 -0.8475 -0.0848 -2.9993
  223MOL0     H30072   4.674   3.829   8.318 -0.2172 -0.9103 -1.3757
  223MOL0     H30073   4.910   3.814   8.503  1.0248 -3.9110 -3.9321
  223MOL0     H30074   4.741   3.840   8.579 -4.7025  0.1805 -2.7257
  223MOL0     H30075   4.847   3.606   8.424 -1.9286 -1.1689 -1.7626
  223MOL0     H30076   4.692   3.618   8.506  0.2248 -0.6057  1.1894
  223MOL0     H30077   4.965   3.624   8.640 -0.0204 -0.2212  0.6591
  223MOL0     H30078   4.821   3.646   8.725 -2.2670  0.0729 -0.3198
  223MOL0     H30079   4.912   3.407   8.715 -0.8655  0.9862  0.1802
  223MOL0     H30080   4.881   3.405   8.540  1.3195  0.6893 -1.6654
  223MOL0     H30081   4.659   3.387   8.580 -0.0525  0.8210 -0.6176
  223MOL0     H30082   4.731   3.279   8.699 -2.9871 -0.1832  0.8868
  223MOL0     H30083   4.617   3.558   8.750 -0.6104  0.5267  2.3370
  223MOL0     H30084   4.710   3.462   8.871 -1.3861 -0.5357  0.4856
  223MOL0     H30085   4.514   3.295   8.812  1.9280  0.6635 -1.2010
  223MOL0     H30086   4.433   3.433   8.748 -0.8462 -2.6724 -2.0490
  223MOL0     H30087   4.719   3.842   8.073  0.9383 -4.1380  0.2652
  223MOL0     H30088   4.798   3.961   7.861 -0.7394  1.1439  1.1071
  223MOL0     H30089   4.958   4.060   7.571 -2.5564  0.6651 -2.4032
  223MOL0     H30090   4.990   4.137   7.346  1.7473 -0.5986 -2.6101
  223MOL0     H30091   3.653   5.344   6.567  0.0761 -0.7363  0.2289
  223MOL0     H30092   3.568   5.503   6.393  2.1471  0.3150  1.1638
  223MOL0     H30093   3.754   5.816   6.091 -1.1087 -0.9309  2.2879
  223MOL0     H30094   3.651   6.019   6.015 -1.5826  1.7541 -1.3949
  223MOL0     H30095   3.279   5.988   5.774 -1.2297  0.5545 -2.0222
  223MOL0     H30096   3.211   6.035   5.932  2.5778 -0.5987  2.7200
  223MOL0     H30097   3.343   6.243   5.741 -0.4634  1.8373 -0.2011
  223MOL0     H30098   3.251   6.276   5.874  1.8392  0.4677 -0.6782
  223MOL0     H30099   3.103   6.322   5.749 -1.2259  0.4419 -1.5793
  223MOL0     H30100   3.059   6.152   5.793 -0.3534 -1.1562 -1.0991
  223MOL0     H30101   3.027   6.265   5.558 -1.8277 -1.3108 -0.0438
  223MOL0     H30102   3.062   6.089   5.570  3.1799 -0.2144  0.3279
  223MOL0     H30103   3.415   6.282   5.400 -0.9139  2.9513 -1.6311
  223MOL0     H30104   3.300   5.795   5.899 -0.1801  0.9925 -0.2883
  223MOL0     H30105   3.392   5.590   5.983  1.3551 -1.4616 -0.0260
  224MOL0     O30106   6.427   4.220   5.051  0.5514  0.0420 -0.6853
  224MOL0     C30107   6.383   4.258   5.163 -0.2963 -0.0473  0.4641
  224MOL0     O30108   6.411   4.196   5.283  0.8203 -0.3013  0.7723
  224MOL0     C30109   6.521   4.128   5.306 -0.0446  1.0886  0.0376
  224MOL0     C30110   6.570   4.023   5.228 -0.8118 -0.3228  0.6889
  224MOL0     C30111   6.670   3.942   5.277 -0.0024 -0.7259 -0.6854
  224MOL0     C30112   6.721   3.959   5.404  0.5200  0.2434 -0.7970
  224MOL0     O30113   6.818   3.877   5.462  1.0259  0.1896 -0.3396
  224MOL0     C30114   6.868   3.764   5.394 -0.0876 -0.6246  0.1965
  224MOL0     C30115   6.994   3.810   5.307 -0.7793 -0.0154  0.4526
  224MOL0     C30116   7.077   3.686   5.256 -0.4281  0.4877 -1.0767
  224MOL0     C30117   7.208   3.750   5.188  0.2065 -0.1437  0.4472
  224MOL0     C30118   7.311   3.640   5.160 -0.4411  0.0702 -0.4735
  224MOL0     C30119   7.455   3.705   5.118  0.7416  0.7032  0.1642
  224MOL0     C30120   7.535   3.760   5.243  0.3561 -0.6388 -0.0697
  224MOL0     C30121   7.596   3.900   5.216 -0.8777  0.6000  0.6061
  224MOL0     N30122   7.668   3.955   5.340 -0.5586  0.6817  1.0153
  224MOL0     C30123   7.619   3.974   5.463  0.8990 -0.3908 -0.1537
  224MOL0     C30124   7.714   4.029   5.533  0.5453 -0.0780 -0.7614
  224MOL0     C30125   7.702   4.067   5.677 -0.5399  0.1822  0.7737
  224MOL0     C30126   7.654   3.955   5.763 -0.1980  0.2136  0.3326
  224MOL0     C30127   7.720   3.815   5.760  0.5078  0.4139  0.4725
  224MOL0     C30128   7.855   3.807   5.831  0.3688  0.1430  1.0284
  224MOL0     O30129   7.945   3.914   5.801  0.0175  0.5512 -0.4339
  224MOL0     C30130   8.066   3.921   5.877  0.1198  0.4933 -0.3637
  224MOL0     C30131   8.119   3.826   5.972 -0.4153  0.0979 -0.0651
  224MOL0     C30132   8.237   3.841   6.038 -0.0411 -0.8983  0.0903
  224MOL0     C30133   8.273   3.755   6.157  0.3945 -0.5511 -0.1695
  224MOL0     C30134   8.312   3.961   6.003  1.7115  0.0269  0.3602
  224MOL0     C30135   8.445   3.988   6.055  0.3794  0.0842  0.8793
  224MOL0     O30136   8.529   3.889   6.079  0.3138 -0.7109  0.1766
  224MOL0     C30137   8.659   3.932   6.069 -0.5944 -0.1933 -0.5279
  224MOL0     C30138   8.711   3.987   5.951  0.1615  0.4894 -0.0917
  224MOL0     C30139   8.842   4.030   5.946 -0.1623  0.6572  0.1745
  224MOL0     C30140   8.927   4.021   6.055  0.5349  0.8661 -0.4606
  224MOL0     O30141   9.063   4.050   6.048 -0.5273 -0.6117  0.7334
  224MOL0     C30142   9.147   4.061   6.171 -0.3251 -1.4020 -0.0472
  224MOL0     C30143   9.277   4.146   6.133  0.2635 -0.0777 -0.7087
  224MOL0     C30144   9.360   4.073   6.026 -0.0471  0.2510  0.2952
  224MOL0     C30145   9.443   4.172   5.950 -0.5913 -0.3057 -0.0913
  224MOL0     C30146   9.553   4.085   5.882 -0.5126  0.3511 -0.9130
  224MOL0     C30147   9.607   4.168   5.775 -0.9482 -0.0565  0.5310
  224MOL0     C30148   9.717   4.087   5.703  0.0442  0.7840 -0.3639
  224MOL0     C30149   9.782   4.171   5.600 -0.1019  0.0433  0.1865
  224MOL0    Cl30150   9.915   4.077   5.510 -0.1299  0.3884  0.1048
  224MOL0     C30151   8.877   3.953   6.166  0.7960 -0.1304 -0.2829
  224MOL0     C30152   8.748   3.906   6.177  0.3639 -0.3890 -0.1083
  224MOL0     O30153   8.471   4.103   6.068 -0.1706 -0.6254  0.3682
  224MOL0     C30154   8.262   4.060   5.913 -0.1069  0.9288 -0.2793
  224MOL0     C30155   8.138   4.037   5.857 -0.6879 -0.2660 -0.1493
  224MOL0     N30156   7.829   4.038   5.457  0.5211 -0.5338 -0.0144
  224MOL0     N30157   7.798   3.989   5.344 -0.5474 -0.7279  0.5694
  224MOL0     C30158   6.678   4.070   5.482 -0.5923  0.8025  0.1731
  224MOL0     C30159   6.579   4.152   5.436 -0.2768  0.0012  0.9149
  224MOL0     C30160   6.309   4.389   5.167 -1.0936 -0.3739  0.1806
  224MOL0     C30161   6.273   4.454   5.044  0.5512  0.8844 -1.1615
  224MOL0     C30162   6.201   4.567   5.043  0.6258 -0.8927  0.0599
  224MOL0     C30163   6.178   4.634   5.165  0.2066  0.0681 -0.4088
  224MOL0     O30164   6.111   4.750   5.156 -0.3042  0.3972  0.8188
  224MOL0     C30165   6.034   4.800   5.263 -0.5161 -0.4733 -0.3026
  224MOL0     C30166   5.905   4.725   5.276  0.2978 -0.3251 -0.7083
  224MOL0     C30167   5.796   4.796   5.364 -0.7786 -0.1647  0.2855
  224MOL0     C30168   5.677   4.713   5.416  0.5171  0.3332  0.6813
  224MOL0     C30169   5.579   4.692   5.309  0.5006  0.1780  0.5643
  224MOL0     C30170   5.494   4.691   5.225  0.1086 -0.2799 -0.3009
  224MOL0     C30171   6.215   4.570   5.280  0.3670  0.4383  0.3553
  224MOL0     C30172   6.283   4.454   5.287 -0.0298  0.4285 -0.0983
  224MOL0     H30173   6.524   4.019   5.129 -0.3048  1.2660  0.3641
  224MOL0     H30174   6.715   3.863   5.219  0.1992 -0.7096 -0.5516
  224MOL0     H30175   6.889   3.687   5.468 -1.4872 -1.3731 -0.1450
  224MOL0     H30176   6.795   3.707   5.336 -3.0184 -0.5327  3.4982
  224MOL0     H30177   6.963   3.868   5.220  0.3801 -1.3201 -0.8802
  224MOL0     H30178   7.063   3.876   5.360 -1.7134  5.2479 -4.0036
  224MOL0     H30179   7.107   3.633   5.346 -0.6813 -0.3367 -1.4664
  224MOL0     H30180   7.017   3.623   5.189 -0.2049  2.0557 -2.8431
  224MOL0     H30181   7.185   3.818   5.106  2.1234  0.1139  0.0806
  224MOL0     H30182   7.254   3.815   5.263 -1.0748  2.4749 -0.9390
  224MOL0     H30183   7.321   3.572   5.245  1.6891  1.3928  0.4203
  224MOL0     H30184   7.274   3.592   5.069 -5.0488 -1.0983  1.6949
  224MOL0     H30185   7.503   3.621   5.068  0.1537  0.0033  0.7364
  224MOL0     H30186   7.450   3.786   5.045 -2.1494 -0.2933 -0.9093
  224MOL0     H30187   7.466   3.767   5.328 -0.0827 -1.7481 -0.3060
  224MOL0     H30188   7.610   3.683   5.263 -0.5545 -1.3874  0.5800
  224MOL0     H30189   7.512   3.967   5.195 -3.2129 -2.6086 -1.2215
  224MOL0     H30190   7.667   3.904   5.132 -0.6988 -0.2447  0.7060
  224MOL0     H30191   7.522   3.955   5.509  0.5295  1.6909  0.0327
  224MOL0     H30192   7.797   4.098   5.722  1.7701 -3.8030 -0.8121
  224MOL0     H30193   7.626   4.145   5.685 -0.1747  0.7201 -0.7620
  224MOL0     H30194   7.546   3.944   5.749 -0.2424 -0.3270  1.0270
  224MOL0     H30195   7.661   3.993   5.866 -2.8065 -1.0067  1.0506
  224MOL0     H30196   7.741   3.793   5.654  0.7009 -0.6490  0.7170
  224MOL0     H30197   7.650   3.748   5.810 -1.5174  2.2670  0.2746
  224MOL0     H30198   7.898   3.708   5.815  2.0603  0.7662  1.5467
  224MOL0     H30199   7.843   3.815   5.939  0.1472  1.6291  0.9055
  224MOL0     H30200   8.061   3.737   5.998  2.3040 -1.8929 -0.3739
  224MOL0     H30201   8.284   3.825   6.240 -0.6538 -2.1278  1.3698
  224MOL0     H30202   8.194   3.683   6.182  1.0092 -0.3985  2.4693
  224MOL0     H30203   8.367   3.702   6.143  0.8485  0.5604 -1.5929
  224MOL0     H30204   8.642   4.002   5.869  0.3738  1.1944 -0.1473
  224MOL0     H30205   8.882   4.083   5.860  2.6448  0.5580  1.3164
  224MOL0     H30206   9.089   4.112   6.248 -1.4421 -1.8276 -0.5838
  224MOL0     H30207   9.173   3.962   6.207 -1.7706 -1.5613  0.6151
  224MOL0     H30208   9.231   4.238   6.096 -2.9586 -1.5313 -0.6007
  224MOL0     H30209   9.344   4.165   6.218 -0.1783 -0.3882 -0.2889
  224MOL0     H30210   9.288   4.016   5.966 -0.6348  2.3713 -1.1266
  224MOL0     H30211   9.429   4.011   6.084 -0.2026  0.3706  0.6078
  224MOL0     H30212   9.385   4.220   5.870  0.6922 -0.2188 -1.0097
  224MOL0     H30213   9.488   4.253   6.009  0.8115 -1.7686  0.9177
  224MOL0     H30214   9.503   3.991   5.857  0.3053 -1.7293  4.1424
  224MOL0     H30215   9.623   4.053   5.959 -0.7093 -1.2025 -1.3522
  224MOL0     H30216   9.530   4.185   5.699 -0.7117  0.7114  0.4603
  224MOL0     H30217   9.652   4.264   5.803 -1.2206  0.3990 -0.5492
  224MOL0     H30218   9.673   4.001   5.652 -0.6239  0.4064  0.7882
  224MOL0     H30219   9.794   4.051   5.772 -1.6069  0.6552  1.5014
  224MOL0     H30220   9.831   4.259   5.642  1.1219  0.4839 -2.0051
  224MOL0     H30221   9.702   4.215   5.539  0.8203 -0.4288 -1.4096
  224MOL0     H30222   8.934   3.936   6.257  1.1218  1.6955 -0.1038
  224MOL0     H30223   8.718   3.859   6.270 -1.7195  0.1175 -0.4731
  224MOL0     H30224   8.324   4.147   5.893  3.1576  1.0240  7.1267
  224MOL0     H30225   8.115   4.113   5.783  0.8677  2.4285  1.9390
  224MOL0     H30226   6.718   4.062   5.583  0.5154  1.4095 -0.2011
  224MOL0     H30227   6.525   4.228   5.491 -1.4896 -0.4943  0.4683
  224MOL0     H30228   6.314   4.417   4.950 -0.1810  0.4924 -1.3341
  224MOL0     H30229   6.166   4.607   4.948 -1.3968 -2.4252  0.0946
  224MOL0     H30230   6.099   4.805   5.351  1.9147 -1.2435 -1.9578
  224MOL0     H30231   6.006   4.906   5.254 -4.9130 -1.3511  0.8064
  224MOL0     H30232   5.927   4.634   5.331  2.0831 -0.6594 -1.9290
  224MOL0     H30233   5.863   4.690   5.181  0.4671 -0.7519 -0.6258
  224MOL0     H30234   5.757   4.876   5.299 -1.7198  2.8063  4.1226
  224MOL0     H30235   5.835   4.850   5.451 -3.0677  1.6575  0.2785
  224MOL0     H30236   5.622   4.757   5.499  0.4096  0.4600  0.5437
  224MOL0     H30237   5.712   4.617   5.456  0.6760  0.4818  0.9047
  224MOL0     H30238   5.422   4.695   5.146  0.5369  2.1790 -0.6692
  224MOL0     H30239   6.168   4.607   5.371 -1.5077 -1.3117  0.1918
  224MOL0     H30240   6.318   4.419   5.383 -1.5712 -0.6080  0.1278
  225MOL0     O30241   8.477   6.472   4.650 -0.1380 -0.0120 -0.6321
  225MOL0     C30242   8.558   6.399   4.605 -0.6546  0.4608  1.2683
  225MOL0     O30243   8.542   6.284   4.535 -0.1047  0.7403 -0.3487
  225MOL0     C30244   8.418   6.249   4.468  0.5422 -0.2476 -0.9456
  225MOL0     C30245   8.368   6.339   4.378 -0.5462 -0.7115  0.4353
  225MOL0     C30246   8.237   6.320   4.326  0.0688  1.0878 -0.1893
  225MOL0     C30247   8.167   6.203   4.360 -0.2872  0.2952  0.1624
  225MOL0     O30248   8.040   6.168   4.325 -1.1784  0.2790 -0.2999
  225MOL0     C30249   7.975   6.259   4.240 -0.0036 -0.1681 -0.1540
  225MOL0     C30250   7.837   6.210   4.198 -0.1818  0.1103  0.5901
  225MOL0     C30251   7.759   6.306   4.099 -0.7256 -0.4030  0.9090
  225MOL0     C30252   7.768   6.459   4.139 -0.3170  0.0275 -0.5349
  225MOL0     C30253   7.673   6.541   4.049  0.3261  0.1672  0.0140
  225MOL0     C30254   7.526   6.545   4.093  0.5271 -0.2040 -0.8974
  225MOL0     C30255   7.440   6.450   4.010  0.6194  0.5390  0.5648
  225MOL0     C30256   7.295   6.501   3.979 -0.1468 -0.9723  0.6965
  225MOL0     N30257   7.227   6.573   4.088 -0.1336  0.5069 -0.7920
  225MOL0     C30258   7.224   6.512   4.212 -0.3783  0.8101  0.1166
  225MOL0     C30259   7.182   6.612   4.289  0.2222  0.8313 -0.6412
  225MOL0     C30260   7.158   6.609   4.436  0.5407  0.5518  0.2602
  225MOL0     C30261   7.279   6.653   4.522  0.8903 -0.3953 -0.2389
  225MOL0     C30262   7.415   6.597   4.477 -0.5043  0.2070 -0.2219
  225MOL0     C30263   7.424   6.445   4.482 -0.4493  0.0564 -0.3850
  225MOL0     O30264   7.563   6.417   4.466  0.5665  0.3110 -0.0100
  225MOL0     C30265   7.596   6.298   4.536 -0.4256 -1.0332 -0.6815
  225MOL0     C30266   7.522   6.188   4.578  0.1362 -0.4020 -0.1886
  225MOL0     C30267   7.575   6.072   4.640  0.3366 -0.1043  0.2173
  225MOL0     C30268   7.487   5.955   4.682 -0.4984  1.1844 -0.2744
  225MOL0     C30269   7.718   6.081   4.670 -0.4439  0.1949  0.2113
  225MOL0     C30270   7.799   5.971   4.738  0.0961 -0.1512  0.0107
  225MOL0     O30271   7.931   5.992   4.755  0.2123 -0.2406  0.1147
  225MOL0     C30272   7.985   5.979   4.883 -0.5510  0.3058  0.1255
  225MOL0     C30273   7.916   5.971   5.008 -0.5338  0.3956  0.4663
  225MOL0     C30274   7.985   6.008   5.119  0.0917  1.4855 -1.1598
  225MOL0     C30275   8.117   6.024   5.116 -0.8474 -0.7469  0.4516
  225MOL0     O30276   8.184   6.046   5.239  0.2286 -0.0307  0.4883
  225MOL0     C30277   8.161   5.941   5.332  0.0686 -0.0180 -0.5409
  225MOL0     C30278   8.269   5.935   5.444  0.1100 -0.4089  0.8452
  225MOL0     C30279   8.251   5.807   5.525  0.4479  0.1858 -0.1754
  225MOL0     C30280   8.147   5.838   5.630 -1.1757  0.7332 -0.6342
  225MOL0     C30281   8.104   5.710   5.696  0.8512  0.0696 -0.4455
  225MOL0     C30282   7.956   5.742   5.760 -0.2328  0.3781 -0.3971
  225MOL0     C30283   7.927   5.647   5.885 -0.3456  0.3769 -0.2308
  225MOL0     C30284   7.796   5.684   5.953  0.4856 -0.2597 -0.9347
  225MOL0    Cl30285   7.794   5.843   6.036  0.1880  0.5550 -0.1701
  225MOL0     C30286   8.187   6.010   4.998  0.7990 -0.7336 -0.2088
  225MOL0     C30287   8.123   6.000   4.881 -0.5841  0.0210 -0.6671
  225MOL0     O30288   7.743   5.869   4.785 -0.1567 -0.3475 -0.6775
  225MOL0     C30289   7.790   6.190   4.617  0.0863 -0.5036  0.1379
  225MOL0     C30290   7.729   6.297   4.557  0.1764 -0.4993 -0.0072
  225MOL0     N30291   7.155   6.720   4.213  0.1584 -0.1819  0.6996
  225MOL0     N30292   7.194   6.706   4.092  0.5342 -0.1973 -0.8079
  225MOL0     C30293   8.227   6.111   4.452 -0.1513 -1.2031  1.2924
  225MOL0     C30294   8.357   6.129   4.497 -0.1720  0.3918  0.0712
  225MOL0     C30295   8.693   6.447   4.633 -0.5662  0.2477 -0.3975
  225MOL0     C30296   8.725   6.569   4.698  0.1666  0.6033 -0.5580
  225MOL0     C30297   8.858   6.591   4.739 -0.5026 -0.7267 -0.3293
  225MOL0     C30298   8.963   6.507   4.703 -0.4343  0.7047  0.8892
  225MOL0     O30299   9.094   6.530   4.724  1.0536 -0.1357 -0.4135
  225MOL0     C30300   9.132   6.623   4.822 -0.2687 -0.5533 -0.9387
  225MOL0     C30301   9.276   6.583   4.860  0.3250  0.6111  0.0535
  225MOL0     C30302   9.321   6.644   4.991 -0.0825 -1.8427  0.1535
  225MOL0     C30303   9.470   6.637   5.014  0.0769  0.3239  0.0434
  225MOL0     C30304   9.518   6.699   5.142  0.6101 -0.4084  0.7232
  225MOL0     C30305   9.566   6.729   5.251 -0.5244  0.2209 -0.5191
  225MOL0     C30306   8.940   6.399   4.612  1.4761  0.3815 -0.8945
  225MOL0     C30307   8.801   6.366   4.588  0.0576  0.1624 -0.3318
  225MOL0     H30308   8.417   6.434   4.360 -3.4961  0.3120 -3.9645
  225MOL0     H30309   8.202   6.382   4.245  0.9169  0.4451 -1.0849
  225MOL0     H30310   7.965   6.359   4.283  0.4045  0.3838 -1.2855
  225MOL0     H30311   8.031   6.286   4.150  2.0334  2.6199  1.7792
  225MOL0     H30312   7.847   6.110   4.154  2.3491  0.8407 -0.7156
  225MOL0     H30313   7.769   6.203   4.283  1.3271 -3.7812  1.7242
  225MOL0     H30314   7.798   6.305   3.997  1.5809  3.9894  1.4865
  225MOL0     H30315   7.655   6.274   4.089 -0.3517 -1.0097 -2.3202
  225MOL0     H30316   7.734   6.477   4.241 -0.6888  1.3988 -0.8816
  225MOL0     H30317   7.871   6.490   4.121  0.9309 -1.3862  3.1886
  225MOL0     H30318   7.708   6.645   4.051  1.5353 -0.2191 -0.4159
  225MOL0     H30319   7.680   6.510   3.944  0.0899 -0.0639  0.0652
  225MOL0     H30320   7.529   6.541   4.203  3.6170 -0.6708 -0.9076
  225MOL0     H30321   7.484   6.641   4.064  0.0730 -0.9510 -2.8325
  225MOL0     H30322   7.490   6.421   3.918  0.6232  0.8747  0.4583
  225MOL0     H30323   7.423   6.353   4.057  0.9211 -0.8199 -1.9659
  225MOL0     H30324   7.230   6.423   3.938  1.2470 -1.6377 -0.3351
  225MOL0     H30325   7.293   6.568   3.892 -3.7421 -1.9384 -0.1259
  225MOL0     H30326   7.239   6.409   4.244  0.9879  1.6084  2.3361
  225MOL0     H30327   7.073   6.668   4.469 -4.4906 -5.0812 -0.8105
  225MOL0     H30328   7.124   6.508   4.461 -1.1781  0.6210 -1.5662
  225MOL0     H30329   7.265   6.622   4.626 -0.8031 -2.8837 -1.1306
  225MOL0     H30330   7.277   6.762   4.511 -2.2098 -0.1717  1.4294
  225MOL0     H30331   7.499   6.640   4.533 -1.0723  2.8539 -1.2218
  225MOL0     H30332   7.452   6.628   4.378  1.3273  1.1989  0.7077
  225MOL0     H30333   7.364   6.398   4.404  0.9598 -3.0720  0.2451
  225MOL0     H30334   7.385   6.421   4.581 -1.2505  0.7061 -0.5406
  225MOL0     H30335   7.418   6.188   4.547  0.4774  2.0043 -1.5881
  225MOL0     H30336   7.522   5.862   4.634 -0.4256  1.1543 -0.1617
  225MOL0     H30337   7.487   5.938   4.790  0.5849 -1.2741 -0.5924
  225MOL0     H30338   7.382   5.976   4.661 -1.4774 -1.2095  1.7196
  225MOL0     H30339   7.808   5.966   4.999 -0.4734  0.8217 -0.6245
  225MOL0     H30340   7.942   6.005   5.219  0.0138  0.7264 -1.2107
  225MOL0     H30341   8.068   5.966   5.384  1.0871  0.6317  1.0756
  225MOL0     H30342   8.163   5.843   5.285 -1.4033 -0.5444  0.4397
  225MOL0     H30343   8.366   5.931   5.393 -1.0440  2.1871 -1.9304
  225MOL0     H30344   8.267   6.024   5.506 -1.1168 -0.5275  0.9920
  225MOL0     H30345   8.347   5.784   5.571 -0.4822  1.2953  2.4934
  225MOL0     H30346   8.215   5.722   5.466  0.3267 -0.6125  1.0332
  225MOL0     H30347   8.193   5.900   5.707 -1.6176 -0.3656  0.5578
  225MOL0     H30348   8.066   5.899   5.592 -0.5429  0.8422 -1.8455
  225MOL0     H30349   8.164   5.682   5.783  0.2324  0.8508  0.2573
  225MOL0     H30350   8.096   5.623   5.631  1.4157 -1.2293  1.1443
  225MOL0     H30351   7.951   5.848   5.788  0.6297 -0.2751  2.4831
  225MOL0     H30352   7.880   5.724   5.683 -0.6696  0.5659 -0.0145
  225MOL0     H30353   8.023   5.656   5.938  1.3058 -0.0150 -2.9947
  225MOL0     H30354   7.917   5.544   5.852  1.2379 -0.1057  0.6739
  225MOL0     H30355   7.771   5.598   6.016  0.1067 -0.2019 -1.0045
  225MOL0     H30356   7.724   5.692   5.872  0.3652  3.1403 -0.6147
  225MOL0     H30357   8.295   6.014   4.988  0.7613  1.4814 -0.3600
  225MOL0     H30358   8.165   5.996   4.781 -0.2251 -1.9836 -0.4741
  225MOL0     H30359   7.897   6.203   4.629  0.3843  1.8354 -3.4781
  225MOL0     H30360   7.790   6.377   4.518  0.4727 -0.7897 -0.1409
  225MOL0     H30361   8.170   6.023   4.477  0.7075 -1.7359  1.4197
  225MOL0     H30362   8.414   6.057   4.554 -0.0601 -1.3157 -2.0510
  225MOL0     H30363   8.641   6.633   4.725 -0.8248  1.5746 -5.1215
  225MOL0     H30364   8.880   6.689   4.780  0.8648 -0.3456 -1.8326
  225MOL0     H30365   9.118   6.720   4.775  1.5601  0.6651  0.8558
  225MOL0     H30366   9.075   6.598   4.912  0.7214  1.1894  0.2390
  225MOL0     H30367   9.341   6.635   4.789 -1.9452  0.8513 -1.9727
  225MOL0     H30368   9.288   6.475   4.872 -2.9981  0.3374  2.3214
  225MOL0     H30369   9.276   6.593   5.077 -2.0523  0.2054  0.4318
  225MOL0     H30370   9.283   6.746   4.990  3.0295 -0.5179 -2.4928
  225MOL0     H30371   9.521   6.690   4.933 -0.3138  0.0102 -0.4128
  225MOL0     H30372   9.508   6.534   5.013 -0.9792 -0.1901  2.6042
  225MOL0     H30373   9.621   6.749   5.341 -1.9278 -2.1187  0.9599
  225MOL0     H30374   9.020   6.334   4.577 -0.6999 -1.6632 -2.3448
  225MOL0     H30375   8.798   6.274   4.530  4.0419  1.0532 -2.2350
  226MOL0     O30376   2.810   2.035   5.064 -0.8722  0.2759  0.3553
  226MOL0     C30377   2.891   2.074   4.980  0.0882  0.2022 -0.3272
  226MOL0     O30378   2.890   2.031   4.844 -0.1437 -0.4753  0.2138
  226MOL0     C30379   2.805   1.923   4.822 -0.2033 -0.5214  0.8330
  226MOL0     C30380   2.697   1.934   4.733 -0.2539 -0.0576  0.2591
  226MOL0     C30381   2.624   1.824   4.689 -0.3234  0.3533  0.0787
  226MOL0     C30382   2.659   1.698   4.743  1.0202 -0.7110 -0.8495
  226MOL0     O30383   2.595   1.579   4.720 -0.2321 -0.0018 -1.0642
  226MOL0     C30384   2.582   1.526   4.586  0.6419 -0.3028 -0.3719
  226MOL0     C30385   2.443   1.538   4.540 -0.1174 -0.3384  0.0988
  226MOL0     C30386   2.438   1.499   4.386  0.1766  0.1168  0.1641
  226MOL0     C30387   2.296   1.518   4.341 -0.3943 -0.1326 -0.1611
  226MOL0     C30388   2.286   1.481   4.195 -0.1079  0.0986  0.2502
  226MOL0     C30389   2.180   1.554   4.113  0.7225  0.3893 -0.2415
  226MOL0     C30390   2.195   1.542   3.960  0.3893  0.2100  0.2549
  226MOL0     C30391   2.057   1.527   3.882  0.4535  0.2631  0.5957
  226MOL0     N30392   1.986   1.397   3.906  0.2622  0.5740 -0.4331
  226MOL0     C30393   1.849   1.376   3.904 -0.3293  0.5839 -0.6995
  226MOL0     C30394   1.824   1.243   3.931  0.2220  0.1882 -0.8688
  226MOL0     C30395   1.690   1.190   3.935 -0.0431  0.1334  0.4407
  226MOL0     C30396   1.627   1.185   4.070  0.9607  0.0751  0.1054
  226MOL0     C30397   1.710   1.095   4.163 -0.3673 -0.2389  0.2651
  226MOL0     C30398   1.661   1.100   4.307 -1.4196 -0.4504 -0.9010
  226MOL0     O30399   1.712   0.979   4.366  0.0740 -0.2277 -0.1083
  226MOL0     C30400   1.643   0.915   4.460 -0.1052  0.4612 -0.2335
  226MOL0     C30401   1.662   0.951   4.591 -0.0228  0.1713 -0.4216
  226MOL0     C30402   1.585   0.896   4.697  0.9205 -0.3251  0.8214
  226MOL0     C30403   1.608   0.927   4.835 -1.2551  0.1644 -0.4612
  226MOL0     C30404   1.492   0.787   4.656 -0.0658 -1.3149  0.2435
  226MOL0     C30405   1.396   0.716   4.744  0.1758 -0.1245  0.7885
  226MOL0     O30406   1.348   0.610   4.686  0.3980  0.6008  0.4987
  226MOL0     C30407   1.238   0.537   4.730  0.2437 -0.3448  0.1524
  226MOL0     C30408   1.150   0.561   4.831 -0.4719  0.9194 -0.6105
  226MOL0     C30409   1.042   0.477   4.855  0.2935  0.1197 -0.3508
  226MOL0     C30410   1.032   0.360   4.794  0.4497 -0.8501 -0.9644
  226MOL0     O30411   0.934   0.284   4.856  0.4818  0.4869  0.7947
  226MOL0     C30412   0.902   0.160   4.797 -0.6077 -0.0062  0.4126
  226MOL0     C30413   0.766   0.121   4.859  0.3756  0.4428 -0.2425
  226MOL0     C30414   0.684   0.028   4.752 -0.8121  0.2316 -0.4966
  226MOL0     C30415   0.552   0.004   4.809 -0.2785 -0.0031 -0.6346
  226MOL0     C30416   0.479  -0.088   4.718  0.0169  1.2132  0.6230
  226MOL0     C30417   0.334  -0.124   4.756  0.4755 -0.2526  0.1760
  226MOL0     C30418   0.252  -0.180   4.634  0.4023 -0.3076 -0.7067
  226MOL0     C30419   0.099  -0.159   4.649  0.1973  0.6238 -0.4676
  226MOL0    Cl30420   0.031  -0.250   4.793  0.4358  0.3996  0.0840
  226MOL0     C30421   1.115   0.332   4.687  0.9902 -0.2636  0.2208
  226MOL0     C30422   1.209   0.425   4.652  0.3152  0.3594  0.5159
  226MOL0     O30423   1.380   0.755   4.859  1.3145 -0.1185 -0.0537
  226MOL0     C30424   1.480   0.763   4.520  0.7394  0.1248 -0.0498
  226MOL0     C30425   1.548   0.829   4.428  0.1310  0.5182 -0.1749
  226MOL0     N30426   1.946   1.182   3.942 -0.6187  0.4307 -0.2036
  226MOL0     N30427   2.040   1.271   3.928 -0.0342 -0.3205  0.1050
  226MOL0     C30428   2.757   1.690   4.847  0.4352 -0.1142  0.7410
  226MOL0     C30429   2.837   1.799   4.872  0.5245  0.2344 -0.5306
  226MOL0     C30430   2.977   2.192   5.009  0.7041  0.3154  0.5004
  226MOL0     C30431   2.941   2.296   5.106  0.8109  0.3616  0.0243
  226MOL0     C30432   3.027   2.397   5.140 -0.1902  0.0261  0.8051
  226MOL0     C30433   3.146   2.414   5.064 -1.0862  0.1145 -0.2092
  226MOL0     O30434   3.226   2.520   5.097  0.1586 -0.4770 -0.3705
  226MOL0     C30435   3.306   2.490   5.211 -0.2425  0.3796 -0.2684
  226MOL0     C30436   3.413   2.607   5.234  1.6355  0.0304 -0.4818
  226MOL0     C30437   3.525   2.571   5.339 -0.2113 -0.0442  0.9447
  226MOL0     C30438   3.652   2.547   5.247  1.1893 -1.1023  0.5368
  226MOL0     C30439   3.643   2.421   5.164 -0.8909 -0.8092 -0.7737
  226MOL0     C30440   3.648   2.321   5.097  0.4506 -0.4108  0.5594
  226MOL0     C30441   3.179   2.331   4.957 -0.2164  0.2267  0.4133
  226MOL0     C30442   3.090   2.219   4.936 -0.4938  0.1149 -0.3398
  226MOL0     H30443   2.671   2.032   4.694 -2.7173  0.3989  2.6937
  226MOL0     H30444   2.548   1.818   4.612 -0.7557  0.0495  0.5242
  226MOL0     H30445   2.652   1.569   4.515  0.4471 -3.6794 -2.8384
  226MOL0     H30446   2.610   1.421   4.576 -0.3202 -0.6464  0.3742
  226MOL0     H30447   2.380   1.481   4.608  2.3148 -0.1067  2.7552
  226MOL0     H30448   2.412   1.643   4.546  0.2902 -0.1924 -0.3182
  226MOL0     H30449   2.505   1.568   4.334 -1.0265 -1.2820 -3.5222
  226MOL0     H30450   2.480   1.399   4.372  2.4779  1.2650 -1.8719
  226MOL0     H30451   2.223   1.453   4.391 -1.0330  0.4521 -0.3177
  226MOL0     H30452   2.275   1.624   4.355  1.4329  0.2658 -0.2911
  226MOL0     H30453   2.378   1.500   4.138 -1.0849  2.8044 -0.5799
  226MOL0     H30454   2.275   1.372   4.192  1.8136 -0.1150 -0.6064
  226MOL0     H30455   2.081   1.520   4.144  0.0116  1.3644 -1.3541
  226MOL0     H30456   2.183   1.659   4.142 -0.6639  0.3551  0.0854
  226MOL0     H30457   2.251   1.628   3.925 -0.7713  0.6983 -0.4495
  226MOL0     H30458   2.249   1.451   3.931  0.8469 -0.0529  1.8468
  226MOL0     H30459   2.084   1.526   3.776  1.1683 -4.7508  0.5844
  226MOL0     H30460   1.983   1.607   3.892 -0.8598 -0.6598 -1.2406
  226MOL0     H30461   1.779   1.455   3.883 -1.2991 -0.1362 -0.2508
  226MOL0     H30462   1.620   1.247   3.872 -0.9368 -0.5006  0.8345
  226MOL0     H30463   1.709   1.089   3.897 -0.6826  0.2861 -0.3282
  226MOL0     H30464   1.537   1.125   4.054  3.5134 -3.7311 -1.5769
  226MOL0     H30465   1.605   1.283   4.112  0.7420  0.1352 -0.1466
  226MOL0     H30466   1.809   1.141   4.156 -0.8084  0.4752 -3.9385
  226MOL0     H30467   1.700   0.991   4.130  1.1134  0.6358 -3.4290
  226MOL0     H30468   1.553   1.112   4.321 -0.8029  4.7078  1.8913
  226MOL0     H30469   1.699   1.186   4.363 -5.2419 -0.6520  2.4229
  226MOL0     H30470   1.743   1.019   4.615 -0.7703  0.6190  0.9399
  226MOL0     H30471   1.685   1.005   4.839 -1.7234  0.5883  1.3279
  226MOL0     H30472   1.519   0.961   4.889 -0.7678  1.3697 -0.3753
  226MOL0     H30473   1.643   0.836   4.885  0.7284  0.4043 -1.3559
  226MOL0     H30474   1.166   0.654   4.884  3.5102 -0.0797  0.2366
  226MOL0     H30475   0.990   0.501   4.947  1.1422  0.6976 -0.0039
  226MOL0     H30476   0.892   0.160   4.688  0.3422 -3.3920  0.2265
  226MOL0     H30477   0.986   0.090   4.806 -2.5604 -2.9252 -2.0783
  226MOL0     H30478   0.780   0.079   4.958  1.7564  0.8420 -0.2443
  226MOL0     H30479   0.708   0.213   4.874  2.6585  1.7000  1.6391
  226MOL0     H30480   0.740  -0.065   4.743 -0.8260  0.0859  0.7752
  226MOL0     H30481   0.673   0.069   4.651  2.5168 -1.8767 -1.8980
  226MOL0     H30482   0.558  -0.041   4.909  2.3511  1.4850 -0.0422
  226MOL0     H30483   0.486   0.091   4.809  0.6592  0.7551 -2.1997
  226MOL0     H30484   0.541  -0.178   4.707 -0.6940  0.7309  0.5418
  226MOL0     H30485   0.480  -0.045   4.617 -3.1057 -3.1911 -1.6225
  226MOL0     H30486   0.344  -0.192   4.842  1.9082  0.8700  0.9323
  226MOL0     H30487   0.291  -0.032   4.796 -1.2516  0.5041 -3.0943
  226MOL0     H30488   0.280  -0.284   4.617  1.4599 -0.1241 -0.1596
  226MOL0     H30489   0.291  -0.129   4.545  3.8740 -0.5072  0.5704
  226MOL0     H30490   0.048  -0.190   4.557 -0.3624  0.1619 -0.0108
  226MOL0     H30491   0.070  -0.057   4.676  1.9655  0.1974  3.6707
  226MOL0     H30492   1.098   0.249   4.620 -0.4881  0.3156 -0.1653
  226MOL0     H30493   1.252   0.413   4.553  2.4291  1.4001  1.2284
  226MOL0     H30494   1.421   0.678   4.487  0.4840  0.2031  0.2042
  226MOL0     H30495   1.529   0.789   4.328  0.8352 -1.1929  0.3374
  226MOL0     H30496   2.780   1.595   4.894  0.8961  0.5422  1.9005
  226MOL0     H30497   2.927   1.775   4.927  1.5092  1.7153 -1.4556
  226MOL0     H30498   2.852   2.297   5.168  1.1086  0.7532  0.4609
  226MOL0     H30499   2.993   2.473   5.210  0.1002  0.1599  0.8037
  226MOL0     H30500   3.248   2.466   5.301 -0.3089 -1.1535 -0.6920
  226MOL0     H30501   3.364   2.400   5.189  0.9882  1.2990 -0.9148
  226MOL0     H30502   3.353   2.691   5.272 -0.4189 -2.1218  1.3938
  226MOL0     H30503   3.445   2.643   5.136 -2.3252 -0.7015 -2.2803
  226MOL0     H30504   3.499   2.484   5.400 -2.2044 -0.7972 -0.8637
  226MOL0     H30505   3.537   2.662   5.399  1.9532  1.8778 -2.0845
  226MOL0     H30506   3.736   2.551   5.316  1.8483  3.2898 -0.2369
  226MOL0     H30507   3.663   2.637   5.185 -0.2672 -1.6637 -0.5952
  226MOL0     H30508   3.670   2.229   5.047 -0.6551 -0.7722  0.7245
  226MOL0     H30509   3.276   2.332   4.908  0.2616 -1.0744  1.2839
  226MOL0     H30510   3.137   2.147   4.869  0.9078  0.0232  0.7014
  227MOL0     O30511   5.647   1.358   8.786 -0.5239  0.1069 -0.1649
  227MOL0     C30512   5.693   1.429   8.873  0.4383 -0.5098 -0.0342
  227MOL0     O30513   5.817   1.443   8.922  0.5249  0.7711  0.9600
  227MOL0     C30514   5.911   1.360   8.874  0.3035  0.7250 -0.4338
  227MOL0     C30515   5.934   1.329   8.737  0.0769  1.7563 -0.3380
  227MOL0     C30516   6.022   1.226   8.697  0.3786  0.1371 -0.2066
  227MOL0     C30517   6.074   1.133   8.795 -0.1876  0.8328 -0.5075
  227MOL0     O30518   6.162   1.032   8.762  0.1406 -0.4817  0.2669
  227MOL0     C30519   6.160   0.969   8.626  0.2657  0.7943 -0.3280
  227MOL0     C30520   6.276   0.870   8.611 -0.0512 -0.7631 -0.9174
  227MOL0     C30521   6.273   0.773   8.735 -0.0848  0.5526 -0.1553
  227MOL0     C30522   6.387   0.679   8.726  0.3351  0.0789  0.1038
  227MOL0     C30523   6.354   0.548   8.809  0.0905 -0.5462 -0.3504
  227MOL0     C30524   6.482   0.455   8.804  0.3645  0.1035  0.7842
  227MOL0     C30525   6.458   0.310   8.855  0.2717  0.2444 -0.7239
  227MOL0     C30526   6.395   0.219   8.750  0.0241 -0.0125  0.1853
  227MOL0     N30527   6.388   0.080   8.789 -0.9938 -0.7074  0.4110
  227MOL0     C30528   6.403   0.022   8.914  0.3434 -0.3262  0.3326
  227MOL0     C30529   6.437  -0.107   8.891  0.6390 -0.3139 -0.4585
  227MOL0     C30530   6.489  -0.212   8.979  1.0615  0.0890  0.0314
  227MOL0     C30531   6.590  -0.141   9.069  0.0566 -0.1499  0.2247
  227MOL0     C30532   6.659  -0.236   9.171  0.7159 -0.3469 -0.5655
  227MOL0     C30533   6.770  -0.180   9.262  1.0075 -0.1816  0.0988
  227MOL0     O30534   6.817  -0.295   9.344  0.1967  0.5234  0.4364
  227MOL0     C30535   6.765  -0.335   9.466  0.6090 -0.3720  1.0091
  227MOL0     C30536   6.848  -0.429   9.527 -0.6687  0.3247 -0.0541
  227MOL0     C30537   6.824  -0.462   9.664  0.4782 -0.0903  0.1360
  227MOL0     C30538   6.927  -0.558   9.727  0.4107  0.1037  0.4866
  227MOL0     C30539   6.727  -0.387   9.741 -0.0753 -1.2894  0.3302
  227MOL0     C30540   6.691  -0.417   9.887  0.1575  0.0399  0.6946
  227MOL0     O30541   6.582  -0.357   9.954  0.0111 -0.1590  0.3828
  227MOL0     C30542   6.594  -0.327  10.091 -0.0929  0.0769  0.7543
  227MOL0     C30543   6.539  -0.412  10.182 -0.0753  0.1278  0.7144
  227MOL0     C30544   6.553  -0.390  10.318 -0.0401  0.2084 -0.5529
  227MOL0     C30545   6.627  -0.284  10.369 -0.7108  0.1656  0.0965
  227MOL0     O30546   6.627  -0.271  10.513 -0.4851  0.3987  0.1889
  227MOL0     C30547   6.759  -0.244  10.567 -0.3527 -0.4793  0.3592
  227MOL0     C30548   6.772  -0.377  10.656  0.2311 -1.2855 -0.3152
  227MOL0     C30549   6.685  -0.352  10.777  0.5608 -0.3711 -0.0308
  227MOL0     C30550   6.688  -0.464  10.886  0.6720 -0.6042  0.5667
  227MOL0     C30551   6.562  -0.447  10.975 -0.3736 -0.1830 -0.3247
  227MOL0     C30552   6.561  -0.547  11.089 -0.0443  0.3378 -0.0258
  227MOL0     C30553   6.441  -0.538  11.182 -0.3838  0.0427  0.6698
  227MOL0     C30554   6.446  -0.609  11.319  0.3583  0.0250  0.1130
  227MOL0    Cl30555   6.559  -0.534  11.434 -0.2492 -0.5137 -0.2970
  227MOL0     C30556   6.694  -0.203  10.279  0.4570 -0.0209 -0.2661
  227MOL0     C30557   6.672  -0.217  10.145 -0.8011  0.4520  0.9776
  227MOL0     O30558   6.766  -0.503   9.938  0.3454 -0.1510  0.3511
  227MOL0     C30559   6.651  -0.284   9.677  0.2524 -0.3446 -0.5149
  227MOL0     C30560   6.656  -0.275   9.533 -0.3466  0.1141 -0.7606
  227MOL0     N30561   6.413  -0.125   8.754  0.1854 -1.3336 -0.4632
  227MOL0     N30562   6.386  -0.015   8.690  0.0166  0.7835  0.2835
  227MOL0     C30563   6.048   1.155   8.931  0.2063  0.5720  0.9414
  227MOL0     C30564   5.972   1.266   8.970  0.4943 -0.6852  0.2685
  227MOL0     C30565   5.573   1.502   8.939 -0.0441  1.1357 -0.2119
  227MOL0     C30566   5.597   1.614   9.019  0.5029 -0.2701  0.9465
  227MOL0     C30567   5.489   1.684   9.069  0.9509 -0.4081  1.6450
  227MOL0     C30568   5.361   1.648   9.057  0.2113 -0.1092 -0.2389
  227MOL0     O30569   5.267   1.732   9.112 -1.0289  0.3730  0.0568
  227MOL0     C30570   5.251   1.861   9.062 -0.2314  0.3065 -0.9503
  227MOL0     C30571   5.111   1.871   9.004  0.5443 -0.5442 -0.4835
  227MOL0     C30572   5.000   1.835   9.102 -0.6379 -0.4819 -0.3010
  227MOL0     C30573   4.870   1.799   9.021  0.0843  0.3986 -0.6181
  227MOL0     C30574   4.887   1.674   8.938  0.0090  0.8809 -0.2432
  227MOL0     C30575   4.901   1.563   8.895  0.8559 -0.3396  0.0346
  227MOL0     C30576   5.332   1.530   8.989  0.4398  0.8578 -0.2856
  227MOL0     C30577   5.440   1.453   8.938  0.1749 -1.3927  0.9022
  227MOL0     H30578   5.899   1.396   8.658  2.5229  1.3944 -1.8284
  227MOL0     H30579   6.048   1.207   8.594  0.0416  0.9222 -0.4446
  227MOL0     H30580   6.065   0.916   8.630  0.6823  0.0906  0.7287
  227MOL0     H30581   6.157   1.037   8.540  0.1488 -1.2029 -2.0004
  227MOL0     H30582   6.277   0.824   8.512  4.0604 -1.4845 -0.7151
  227MOL0     H30583   6.372   0.921   8.620 -1.7066  2.4699  0.0228
  227MOL0     H30584   6.265   0.824   8.831  0.3220  1.2426 -0.4790
  227MOL0     H30585   6.183   0.713   8.717  0.3226 -0.3334  0.7154
  227MOL0     H30586   6.421   0.657   8.625  0.0469  3.6832 -0.9041
  227MOL0     H30587   6.462   0.742   8.775  0.9825 -0.3798 -0.2841
  227MOL0     H30588   6.347   0.582   8.913  1.6687 -0.2155 -0.3318
  227MOL0     H30589   6.260   0.495   8.789 -0.5815  0.0795  0.9920
  227MOL0     H30590   6.514   0.455   8.699 -0.7044 -0.8595  0.4414
  227MOL0     H30591   6.561   0.507   8.860  1.7096 -0.1803 -0.7670
  227MOL0     H30592   6.547   0.262   8.896 -0.0799  0.3058  0.1334
  227MOL0     H30593   6.387   0.314   8.938 -0.2690 -0.0410 -1.1627
  227MOL0     H30594   6.462   0.230   8.664 -0.9452  3.0279 -0.3078
  227MOL0     H30595   6.301   0.268   8.725 -0.9306 -0.8180  2.0268
  227MOL0     H30596   6.386   0.070   9.010  0.6828 -2.3505  1.4708
  227MOL0     H30597   6.412  -0.261   9.040  2.3961 -2.2725 -0.0477
  227MOL0     H30598   6.532  -0.293   8.918  2.9399  1.1587 -0.1435
  227MOL0     H30599   6.530  -0.066   9.122 -3.2900 -2.5583  0.1837
  227MOL0     H30600   6.673  -0.090   9.019 -0.0059  2.8019  2.8289
  227MOL0     H30601   6.703  -0.319   9.115  1.7779  0.9380 -1.7157
  227MOL0     H30602   6.586  -0.273   9.243  1.1527 -0.4944 -0.1909
  227MOL0     H30603   6.734  -0.105   9.333  0.6529 -0.7665  0.5520
  227MOL0     H30604   6.854  -0.134   9.210 -0.6798 -0.1252 -2.7482
  227MOL0     H30605   6.929  -0.476   9.472  1.8378 -1.4555  4.6172
  227MOL0     H30606   6.982  -0.506   9.806  1.0552  0.5501 -0.2505
  227MOL0     H30607   6.877  -0.650   9.760 -0.6419 -0.2695 -1.9593
  227MOL0     H30608   6.999  -0.577   9.647 -2.2444  3.7360 -3.1797
  227MOL0     H30609   6.488  -0.494  10.131  1.0958  0.4649 -1.0992
  227MOL0     H30610   6.502  -0.459  10.385  2.1310 -0.1847  0.7910
  227MOL0     H30611   6.835  -0.241  10.488 -2.4165  0.7437 -1.6895
  227MOL0     H30612   6.768  -0.147  10.617 -1.3548  0.3304 -0.9606
  227MOL0     H30613   6.753  -0.467  10.597 -2.1633  0.1064 -1.8191
  227MOL0     H30614   6.877  -0.376  10.686  1.2021 -0.0389 -3.2921
  227MOL0     H30615   6.588  -0.341  10.728  0.3555  0.5517  0.5669
  227MOL0     H30616   6.696  -0.258  10.830  0.3373  1.1225 -2.4726
  227MOL0     H30617   6.682  -0.561  10.836 -1.7568 -0.8840  1.2628
  227MOL0     H30618   6.785  -0.465  10.937  0.1783 -1.8255  1.5378
  227MOL0     H30619   6.473  -0.477  10.920 -0.4361 -0.8179  0.1135
  227MOL0     H30620   6.551  -0.343  11.009  1.7672  0.6728 -1.9877
  227MOL0     H30621   6.558  -0.643  11.037 -4.0466  1.4904 -2.3927
  227MOL0     H30622   6.654  -0.543  11.147  0.3674  0.0431 -0.6563
  227MOL0     H30623   6.353  -0.576  11.128 -0.2681  1.5388 -0.6365
  227MOL0     H30624   6.408  -0.436  11.199 -3.5894 -1.1537  2.6113
  227MOL0     H30625   6.502  -0.701  11.303  1.6764  0.4587  1.9326
  227MOL0     H30626   6.345  -0.619  11.361 -1.5732  2.9683 -3.2647
  227MOL0     H30627   6.753  -0.118  10.310  1.5100 -0.6046 -0.5850
  227MOL0     H30628   6.726  -0.151  10.077  1.2944 -2.5257 -0.4589
  227MOL0     H30629   6.579  -0.222   9.729 -0.4339 -1.3696 -0.2054
  227MOL0     H30630   6.597  -0.198   9.485  1.9422  0.8427 -2.5829
  227MOL0     H30631   6.096   1.082   8.996 -2.5484  1.9425  4.9295
  227MOL0     H30632   5.958   1.283   9.076  0.3389  0.0812  0.1359
  227MOL0     H30633   5.695   1.661   9.030 -1.2560  3.5751  1.5387
  227MOL0     H30634   5.505   1.772   9.131 -1.1249  1.1341  0.1574
  227MOL0     H30635   5.271   1.930   9.145 -0.1775 -2.1504  1.2249
  227MOL0     H30636   5.318   1.896   8.983  0.1952 -1.4433 -1.3981
  227MOL0     H30637   5.103   1.801   8.920 -2.1299  0.4386 -1.1549
  227MOL0     H30638   5.088   1.969   8.961  1.3913  0.2006  0.6814
  227MOL0     H30639   4.984   1.917   9.173 -0.3434 -0.9656  0.3410
  227MOL0     H30640   5.025   1.742   9.154 -0.1546 -0.1168  0.1292
  227MOL0     H30641   4.850   1.881   8.952 -1.9755  1.6868  1.3886
  227MOL0     H30642   4.785   1.776   9.087  0.4513  1.0084  0.0848
  227MOL0     H30643   4.901   1.465   8.853  0.9448  0.1625 -1.1887
  227MOL0     H30644   5.227   1.504   8.980  0.7370 -1.7101  2.2659
  227MOL0     H30645   5.412   1.369   8.875 -0.0766 -0.7212  0.1095
  228MOL0     O30646   7.945   7.792   2.385 -0.4212  0.0010  0.5516
  228MOL0     C30647   7.957   7.841   2.500 -0.7599 -0.1736 -0.1850
  228MOL0     O30648   7.846   7.877   2.577 -1.0466  0.4335 -0.0443
  228MOL0     C30649   7.722   7.824   2.548 -0.6068  0.6731 -0.1829
  228MOL0     C30650   7.606   7.902   2.502 -0.6659 -0.0051  0.2303
  228MOL0     C30651   7.482   7.842   2.481 -0.9566 -0.1554 -0.5686
  228MOL0     C30652   7.463   7.708   2.514  0.1318  0.7566 -0.0592
  228MOL0     O30653   7.340   7.653   2.490  0.3384 -0.7641 -0.0563
  228MOL0     C30654   7.303   7.528   2.542 -0.0560  0.6664  0.0123
  228MOL0     C30655   7.284   7.435   2.427  0.2172  0.6360 -0.0617
  228MOL0     C30656   7.332   7.296   2.447  0.5365  0.1723 -0.4717
  228MOL0     C30657   7.242   7.235   2.559 -0.6808 -0.7147  0.2887
  228MOL0     C30658   7.286   7.092   2.600 -0.0128  0.0557 -0.5043
  228MOL0     C30659   7.157   7.012   2.624  0.0174  0.1266  0.6063
  228MOL0     C30660   7.203   6.864   2.614 -0.4550  0.0771 -0.3246
  228MOL0     C30661   7.096   6.770   2.682  0.2739  0.0110 -1.1107
  228MOL0     N30662   7.138   6.638   2.741  1.3430 -0.6824 -0.5341
  228MOL0     C30663   7.235   6.633   2.836  0.2386  1.0136 -0.7364
  228MOL0     C30664   7.247   6.499   2.855 -0.1322 -0.4814 -0.5403
  228MOL0     C30665   7.352   6.459   2.950 -0.1719 -0.3842  0.3110
  228MOL0     C30666   7.492   6.430   2.880 -0.8345 -0.0072  0.3219
  228MOL0     C30667   7.593   6.363   2.974 -0.1301 -0.0066 -0.9622
  228MOL0     C30668   7.553   6.223   3.017 -0.5670  0.1620 -0.4512
  228MOL0     O30669   7.652   6.174   3.106 -0.0831  0.4520  0.8702
  228MOL0     C30670   7.642   6.053   3.162 -0.7183 -0.1925  0.2272
  228MOL0     C30671   7.627   6.045   3.294  0.7014  1.4288 -0.5457
  228MOL0     C30672   7.610   5.907   3.351  0.1234 -0.6740  1.2030
  228MOL0     C30673   7.606   5.908   3.504  0.2156  0.0687  1.0347
  228MOL0     C30674   7.629   5.795   3.272 -0.7006  0.1725  0.1727
  228MOL0     C30675   7.643   5.658   3.322  0.3328  0.7227  0.3792
  228MOL0     O30676   7.612   5.638   3.454 -0.2141  0.3335 -0.2760
  228MOL0     C30677   7.623   5.523   3.523  0.6802 -0.6085 -0.9201
  228MOL0     C30678   7.611   5.392   3.461  0.0974 -0.3463 -0.1904
  228MOL0     C30679   7.616   5.285   3.544 -1.0080  0.6708 -0.0902
  228MOL0     C30680   7.630   5.290   3.686 -0.7345  0.1239  0.5580
  228MOL0     O30681   7.626   5.173   3.755  0.0835  0.5455 -0.6106
  228MOL0     C30682   7.512   5.146   3.835  0.9260 -0.0156 -0.1694
  228MOL0     C30683   7.376   5.129   3.756 -0.0447  0.1302  0.3152
  228MOL0     C30684   7.370   5.005   3.672 -0.5318 -0.4910  0.9371
  228MOL0     C30685   7.233   5.004   3.608  0.8128 -0.2108  0.8217
  228MOL0     C30686   7.190   4.876   3.534  0.0563  0.3859 -0.9994
  228MOL0     C30687   7.275   4.836   3.414 -0.0470 -0.6273  0.8323
  228MOL0     C30688   7.235   4.698   3.348 -0.8017  0.4135 -0.5892
  228MOL0     C30689   7.348   4.639   3.268  0.0344  0.4016  0.0481
  228MOL0    Cl30690   7.293   4.474   3.223 -0.5336  0.2840 -0.7352
  228MOL0     C30691   7.642   5.415   3.748  0.3831  0.0829 -0.5927
  228MOL0     C30692   7.640   5.534   3.667 -0.5781  0.0067  0.3169
  228MOL0     O30693   7.708   5.580   3.250  0.4095 -0.4239  0.1998
  228MOL0     C30694   7.648   5.814   3.135  1.1474  0.1727  0.0827
  228MOL0     C30695   7.656   5.941   3.085  0.4504 -0.2470 -0.7492
  228MOL0     N30696   7.148   6.425   2.790 -0.2196 -0.2458  0.4342
  228MOL0     N30697   7.086   6.513   2.716  0.5111 -0.2457 -0.3538
  228MOL0     C30698   7.579   7.629   2.545  0.2046  1.1175  0.5513
  228MOL0     C30699   7.704   7.689   2.564  0.3231 -0.8488 -0.5238
  228MOL0     C30700   8.095   7.875   2.544  0.4753  0.3007 -0.3281
  228MOL0     C30701   8.192   7.916   2.451  1.1877  0.6486  0.3159
  228MOL0     C30702   8.310   7.951   2.496 -0.1982  0.0675 -0.5309
  228MOL0     C30703   8.347   7.939   2.627 -0.4389  1.0428  0.4038
  228MOL0     O30704   8.460   7.986   2.687 -0.1832 -0.3684  0.7581
  228MOL0     C30705   8.554   8.050   2.602 -0.8081 -0.0767 -1.1474
  228MOL0     C30706   8.663   8.094   2.697 -1.1408 -0.2479  0.7583
  228MOL0     C30707   8.784   8.164   2.622 -0.1160  0.2621 -1.5771
  228MOL0     C30708   8.882   8.204   2.735  0.4254 -0.7383  0.0512
  228MOL0     C30709   8.998   8.283   2.675  0.2729 -0.1122 -0.5815
  228MOL0     C30710   9.092   8.344   2.630  0.5057 -0.6705 -0.3989
  228MOL0     C30711   8.254   7.889   2.723 -0.2229  0.2808 -0.0977
  228MOL0     C30712   8.123   7.863   2.677 -0.7145 -0.6736 -0.0810
  228MOL0     H30713   7.612   8.009   2.490  2.3113 -0.1249 -0.1834
  228MOL0     H30714   7.390   7.897   2.467 -1.0602  0.0126  0.6060
  228MOL0     H30715   7.372   7.485   2.614 -2.2939 -0.7403  1.4646
  228MOL0     H30716   7.211   7.541   2.600 -0.8795 -2.4537 -0.4040
  228MOL0     H30717   7.177   7.432   2.405  0.4315 -1.4554 -1.0389
  228MOL0     H30718   7.333   7.470   2.335 -0.3652 -0.8711 -0.9808
  228MOL0     H30719   7.340   7.235   2.356  1.0889 -0.9932  0.3309
  228MOL0     H30720   7.430   7.293   2.495 -0.5019  1.9635  1.9312
  228MOL0     H30721   7.241   7.294   2.651 -0.6381  3.5738 -2.1895
  228MOL0     H30722   7.140   7.226   2.522 -1.4713 -1.7173  2.5258
  228MOL0     H30723   7.347   7.040   2.526 -0.3092 -0.9024 -0.0953
  228MOL0     H30724   7.347   7.091   2.691 -0.4556 -1.6929 -0.1926
  228MOL0     H30725   7.114   7.029   2.723  0.2775 -1.0095  0.9369
  228MOL0     H30726   7.079   7.034   2.550  2.4765 -1.2387 -2.6548
  228MOL0     H30727   7.207   6.830   2.510  2.8602 -0.5140 -0.1203
  228MOL0     H30728   7.299   6.838   2.660 -0.7007 -1.4265 -0.6190
  228MOL0     H30729   7.021   6.749   2.605  0.8390  0.7369 -1.8849
  228MOL0     H30730   7.048   6.822   2.765 -0.0295 -2.0675  0.0806
  228MOL0     H30731   7.286   6.710   2.894  3.1443 -1.9616  1.0195
  228MOL0     H30732   7.362   6.543   3.020 -2.1807 -2.0112  2.7204
  228MOL0     H30733   7.316   6.374   3.009 -1.2252  2.1340  3.5807
  228MOL0     H30734   7.544   6.521   2.851  3.4445 -1.9930  0.9734
  228MOL0     H30735   7.485   6.370   2.789 -0.3651  0.4105  0.0051
  228MOL0     H30736   7.604   6.412   3.071  1.1746  1.6609 -1.8851
  228MOL0     H30737   7.690   6.353   2.924  1.3455 -0.7353  1.8769
  228MOL0     H30738   7.545   6.161   2.927  1.4155 -0.0103 -0.5534
  228MOL0     H30739   7.465   6.231   3.081  0.9952  0.3904  1.7704
  228MOL0     H30740   7.598   6.129   3.356 -1.3217  1.4177 -1.4174
  228MOL0     H30741   7.698   5.859   3.539  1.0400 -0.8799 -2.1491
  228MOL0     H30742   7.591   6.007   3.548 -4.7173 -0.0938  0.2450
  228MOL0     H30743   7.522   5.844   3.533 -2.2734  1.7460 -2.0029
  228MOL0     H30744   7.592   5.395   3.354 -0.7919 -2.7317 -0.1609
  228MOL0     H30745   7.590   5.190   3.500 -0.7288  1.4555 -2.0302
  228MOL0     H30746   7.525   5.051   3.888 -1.8504 -0.3385  0.0446
  228MOL0     H30747   7.496   5.226   3.907  0.8591 -0.0906 -0.1004
  228MOL0     H30748   7.295   5.134   3.829  0.7677 -2.2583  1.5002
  228MOL0     H30749   7.362   5.220   3.696 -1.3489 -0.5862 -0.5006
  228MOL0     H30750   7.383   4.917   3.736 -1.9426 -1.4244  0.0137
  228MOL0     H30751   7.446   5.012   3.594  0.0825  1.5919  1.6450
  228MOL0     H30752   7.153   5.018   3.682 -0.8908 -3.0415 -0.2873
  228MOL0     H30753   7.250   5.084   3.536  3.3464 -2.0143 -0.7302
  228MOL0     H30754   7.085   4.872   3.505 -1.1395  0.9159  2.7020
  228MOL0     H30755   7.194   4.796   3.609 -1.6300  1.3288  0.1737
  228MOL0     H30756   7.268   4.917   3.340 -1.8446  0.1289  1.7575
  228MOL0     H30757   7.374   4.824   3.458 -0.9157 -1.4957  2.6206
  228MOL0     H30758   7.137   4.706   3.301 -2.2133 -2.8589  1.4909
  228MOL0     H30759   7.216   4.626   3.427  4.8465 -1.5698 -0.5276
  228MOL0     H30760   7.434   4.628   3.334 -1.3551 -0.4300  1.8244
  228MOL0     H30761   7.372   4.694   3.177 -1.2761  1.7125  0.4439
  228MOL0     H30762   7.645   5.424   3.856  0.4594 -0.2239 -0.5694
  228MOL0     H30763   7.651   5.635   3.705 -0.2850 -0.0599  0.4090
  228MOL0     H30764   7.658   5.722   3.078  0.3718  0.5912 -0.7557
  228MOL0     H30765   7.685   5.944   2.980  2.1655 -3.5586 -0.5194
  228MOL0     H30766   7.575   7.521   2.548 -2.7530  1.1195  3.8596
  228MOL0     H30767   7.790   7.626   2.584  0.6891 -0.3510 -0.5050
  228MOL0     H30768   8.168   7.920   2.345  1.4222  0.2161  0.2427
  228MOL0     H30769   8.385   7.970   2.420 -0.1431 -1.3937 -0.8770
  228MOL0     H30770   8.593   7.975   2.533  1.6543  1.8098 -1.9746
  228MOL0     H30771   8.514   8.134   2.546  0.5769 -1.7602 -5.0256
  228MOL0     H30772   8.705   8.002   2.739 -0.1083  0.3998  1.1806
  228MOL0     H30773   8.613   8.170   2.757 -2.0034  2.8353 -3.3532
  228MOL0     H30774   8.752   8.257   2.573  1.7608  1.8040 -0.0384
  228MOL0     H30775   8.842   8.109   2.547  0.8265  0.3478 -0.9262
  228MOL0     H30776   8.917   8.114   2.787  1.6870  0.5315  1.5145
  228MOL0     H30777   8.830   8.270   2.804 -2.5250 -4.1419  1.3775
  228MOL0     H30778   9.171   8.401   2.585 -0.2559  1.8052  1.1675
  228MOL0     H30779   8.269   7.866   2.828  0.4857 -0.0108 -0.2641
  228MOL0     H30780   8.054   7.818   2.749 -0.5611 -2.5513 -1.0627
  229MOL0     O30781   2.720  10.344  11.066 -0.4501 -0.4935 -0.4182
  229MOL0     C30782   2.821  10.422  11.062  0.5057  0.0669 -0.2253
  229MOL0     O30783   2.820  10.560  11.064  0.1739  0.1335  0.1465
  229MOL0     C30784   2.710  10.649  11.076  0.4008  0.4981  0.2217
  229MOL0     C30785   2.579  10.613  11.110 -0.7292  0.1037  0.4451
  229MOL0     C30786   2.469  10.704  11.113 -0.0221  0.6700  0.1611
  229MOL0     C30787   2.485  10.837  11.097  0.1789 -0.3323 -0.7353
  229MOL0     O30788   2.392  10.930  11.114 -0.3457 -0.3325 -0.6835
  229MOL0     C30789   2.260  10.892  11.092 -0.0308  0.2513 -0.8653
  229MOL0     C30790   2.170  11.019  11.109 -0.2196 -0.6503  0.6501
  229MOL0     C30791   2.189  11.107  10.984 -0.0745  1.4463 -0.7426
  229MOL0     C30792   2.116  11.242  11.017 -0.1744  0.3915 -0.7011
  229MOL0     C30793   2.064  11.300  10.893 -0.3408  0.0230 -0.0373
  229MOL0     C30794   2.007  11.434  10.917  0.1405  0.5694  0.7858
  229MOL0     C30795   1.887  11.431  11.013  0.5651 -0.0945  0.5183
  229MOL0     C30796   1.776  11.339  10.977  0.5023  0.3012  0.7924
  229MOL0     N30797   1.663  11.343  11.077 -0.0727  0.3147  1.5455
  229MOL0     C30798   1.679  11.300  11.206  0.3054  0.5745  0.3929
  229MOL0     C30799   1.564  11.333  11.280  0.3813 -0.5913  0.8667
  229MOL0     C30800   1.546  11.298  11.423  0.3937 -0.0575 -0.0646
  229MOL0     C30801   1.475  11.159  11.440 -0.1622 -0.3076  0.5805
  229MOL0     C30802   1.451  11.124  11.589  0.2789  0.7972 -0.1126
  229MOL0     C30803   1.573  11.098  11.671  0.0209 -0.8841  0.2891
  229MOL0     O30804   1.658  11.013  11.599 -0.5416  0.9162 -0.1867
  229MOL0     C30805   1.794  11.014  11.637  0.6164 -0.5825 -0.1779
  229MOL0     C30806   1.877  10.932  11.564  0.0312  0.5403 -0.4606
  229MOL0     C30807   2.012  10.921  11.601 -0.5317 -0.2952  0.6035
  229MOL0     C30808   2.091  10.833  11.517 -0.1958 -0.2472  1.1480
  229MOL0     C30809   2.071  10.994  11.713 -0.2754 -0.1833 -0.4300
  229MOL0     C30810   2.230  10.982  11.732  0.5959 -0.4560 -0.7953
  229MOL0     O30811   2.323  10.920  11.649  0.3685  0.3155  0.0267
  229MOL0     C30812   2.453  10.958  11.662  0.0787 -0.6302 -0.6802
  229MOL0     C30813   2.511  11.029  11.558 -0.0229  0.8248 -0.0985
  229MOL0     C30814   2.652  11.052  11.573  1.0701 -0.7966  0.2998
  229MOL0     C30815   2.738  10.993  11.664  0.9383  0.2459 -0.2881
  229MOL0     O30816   2.875  11.007  11.667 -0.1810  1.3144 -0.0332
  229MOL0     C30817   2.950  10.885  11.674 -0.1584 -0.5646 -0.8526
  229MOL0     C30818   2.924  10.789  11.562 -0.3233  0.0528  0.3367
  229MOL0     C30819   3.034  10.672  11.571 -0.3279 -0.2856 -0.1336
  229MOL0     C30820   3.012  10.594  11.696 -0.0186 -0.2767 -0.4304
  229MOL0     C30821   3.066  10.458  11.690 -0.7764  0.2807  0.0094
  229MOL0     C30822   3.095  10.392  11.826 -0.1062 -0.6050 -0.1189
  229MOL0     C30823   3.168  10.263  11.825  0.2841  0.3648 -0.6611
  229MOL0     C30824   3.092  10.142  11.763  0.9648 -0.6705  0.3474
  229MOL0    Cl30825   2.937  10.124  11.849 -0.1202 -0.0334 -0.1763
  229MOL0     C30826   2.667  10.919  11.772  0.3969  0.7207  0.9273
  229MOL0     C30827   2.524  10.906  11.773  0.0110 -0.3762  0.5419
  229MOL0     O30828   2.263  11.048  11.833  0.1206  0.8895 -0.6093
  229MOL0     C30829   1.980  11.068  11.790  0.5333 -0.2208 -0.4889
  229MOL0     C30830   1.848  11.083  11.751  0.3378  0.6701 -0.5245
  229MOL0     N30831   1.479  11.402  11.192 -0.8621 -0.3571 -0.1955
  229MOL0     N30832   1.538  11.405  11.071 -0.1953 -0.5916  0.1019
  229MOL0     C30833   2.618  10.879  11.067  0.5934 -0.5081 -0.6002
  229MOL0     C30834   2.724  10.786  11.061 -0.3524 -0.3152 -0.8677
  229MOL0     C30835   2.944  10.336  11.052  0.2033 -0.7418 -0.2592
  229MOL0     C30836   3.047  10.367  10.957 -0.2637 -0.0004 -0.2723
  229MOL0     C30837   3.155  10.274  10.945 -0.8855  1.0165 -0.7646
  229MOL0     C30838   3.162  10.165  11.038  0.4650  0.1251  0.1322
  229MOL0     O30839   3.260  10.068  11.028  0.2238 -0.3317  1.4065
  229MOL0     C30840   3.282  10.026  10.895 -0.2265  0.4303  1.3889
  229MOL0     C30841   3.304   9.868  10.880  0.3149  0.0235  0.2894
  229MOL0     C30842   3.400   9.820  10.978 -0.3968 -0.3324 -0.5849
  229MOL0     C30843   3.356   9.758  11.110 -1.1305  0.6317  0.2105
  229MOL0     C30844   3.277   9.623  11.096 -0.0566 -0.3709  0.1871
  229MOL0     C30845   3.223   9.515  11.096 -1.1358  0.1322 -0.6484
  229MOL0     C30846   3.071  10.156  11.138 -0.2608 -0.8197 -0.3335
  229MOL0     C30847   2.961  10.229  11.142  0.4441 -0.1064  0.3164
  229MOL0     H30848   2.558  10.511  11.138  1.4614 -0.1872  1.1898
  229MOL0     H30849   2.374  10.655  11.129 -0.6858  2.3971  1.9316
  229MOL0     H30850   2.252  10.843  10.994  3.0025  0.3380 -1.2712
  229MOL0     H30851   2.227  10.817  11.165  3.9689 -2.0623 -1.1150
  229MOL0     H30852   2.064  10.995  11.108 -0.6211  0.7901  2.8275
  229MOL0     H30853   2.185  11.071  11.204  1.5572 -1.1201  0.6765
  229MOL0     H30854   2.293  11.136  10.965  0.5883 -0.5024 -0.3771
  229MOL0     H30855   2.149  11.049  10.901 -2.8918 -0.8542  1.9618
  229MOL0     H30856   2.038  11.219  11.090  0.2470 -4.7449 -1.4922
  229MOL0     H30857   2.180  11.318  11.064  0.4462 -1.1184  1.0868
  229MOL0     H30858   2.152  11.306  10.829 -0.1006 -1.9996  0.0429
  229MOL0     H30859   1.989  11.236  10.846  0.6007  0.9644 -2.9956
  229MOL0     H30860   2.080  11.505  10.958 -0.2407  1.6312 -0.3105
  229MOL0     H30861   1.980  11.475  10.820  0.7424 -0.3765  0.2055
  229MOL0     H30862   1.919  11.408  11.115  1.5638  0.2520  0.2910
  229MOL0     H30863   1.850  11.534  11.013  0.8182  0.0105 -1.0996
  229MOL0     H30864   1.809  11.235  10.965 -2.7653 -0.6908 -0.9019
  229MOL0     H30865   1.740  11.363  10.876  3.1041 -0.6153 -0.4577
  229MOL0     H30866   1.768  11.248  11.243  1.6614  1.0629 -2.0005
  229MOL0     H30867   1.645  11.291  11.468  1.7071  1.4059 -2.5076
  229MOL0     H30868   1.478  11.368  11.473 -2.1280 -2.5779  0.2870
  229MOL0     H30869   1.535  11.075  11.405  0.4297 -1.0147  3.1313
  229MOL0     H30870   1.383  11.160  11.380  0.5484  2.3966 -0.6501
  229MOL0     H30871   1.400  11.027  11.591  1.1145  0.3633  1.0686
  229MOL0     H30872   1.398  11.206  11.639 -0.8131 -1.0028  1.8058
  229MOL0     H30873   1.542  11.061  11.769 -0.4685  0.2211  0.5761
  229MOL0     H30874   1.620  11.193  11.699  0.1148 -0.6978 -0.4667
  229MOL0     H30875   1.839  10.880  11.477 -2.0042  1.5306 -0.2104
  229MOL0     H30876   2.168  10.883  11.458  0.5860 -2.3114  0.3254
  229MOL0     H30877   2.141  10.766  11.589  0.3250 -0.7557  0.3319
  229MOL0     H30878   2.027  10.765  11.460  1.8295 -1.7896  0.5675
  229MOL0     H30879   2.443  11.072  11.486 -0.7743 -0.0931  0.0413
  229MOL0     H30880   2.668  11.125  11.494  2.4075 -0.6405  0.6959
  229MOL0     H30881   3.057  10.910  11.671  0.7973 -3.6215  2.0623
  229MOL0     H30882   2.939  10.830  11.768 -1.0456 -0.7560 -1.0610
  229MOL0     H30883   2.824  10.750  11.582 -0.3391 -0.6604 -1.0418
  229MOL0     H30884   2.926  10.846  11.468  3.4616 -0.3048  0.0423
  229MOL0     H30885   3.132  10.720  11.568 -0.8728  0.8513 -0.3018
  229MOL0     H30886   3.027  10.609  11.482  2.3740 -0.7838 -0.0741
  229MOL0     H30887   3.043  10.641  11.790  1.5100 -1.1059 -0.4786
  229MOL0     H30888   2.904  10.587  11.713 -0.3359  2.6455 -0.8002
  229MOL0     H30889   3.166  10.463  11.645 -0.0577  0.7559  1.6090
  229MOL0     H30890   3.000  10.398  11.626 -1.2129  0.3247  0.4126
  229MOL0     H30891   3.165  10.454  11.882  1.1889  0.0257 -2.3021
  229MOL0     H30892   2.997  10.387  11.876  0.0304  0.9255  0.3425
  229MOL0     H30893   3.200  10.229  11.924 -2.7872  0.1961  0.3720
  229MOL0     H30894   3.261  10.276  11.768  0.3969  1.1411 -0.3073
  229MOL0     H30895   3.148  10.050  11.779  3.4383  0.4779 -1.1764
  229MOL0     H30896   3.082  10.151  11.655  0.3161 -1.6584  0.3160
  229MOL0     H30897   2.714  10.885  11.863  0.2322  2.8825  1.8766
  229MOL0     H30898   2.471  10.846  11.846  1.5319 -1.1213  1.0937
  229MOL0     H30899   2.019  11.120  11.877 -1.3754  3.0992 -1.4560
  229MOL0     H30900   1.784  11.126  11.827  1.0741 -1.4654  1.4305
  229MOL0     H30901   2.645  10.980  11.037 -0.0275  0.0979  0.8319
  229MOL0     H30902   2.824  10.822  11.042 -0.0799  0.5458  1.8019
  229MOL0     H30903   3.051  10.453  10.892 -0.4764  1.6266  1.7764
  229MOL0     H30904   3.230  10.290  10.868  0.5505  1.5287  0.6931
  229MOL0     H30905   3.203  10.056  10.825  0.4301 -1.6231 -0.3163
  229MOL0     H30906   3.373  10.071  10.855  1.4978 -2.8602  1.3547
  229MOL0     H30907   3.337   9.852  10.777 -0.5670  1.1062 -0.1801
  229MOL0     H30908   3.202   9.828  10.888 -0.0078 -0.4029 -3.7809
  229MOL0     H30909   3.459   9.907  11.008  1.9797 -2.6778  2.2786
  229MOL0     H30910   3.479   9.756  10.937  1.2765  0.6796  0.9138
  229MOL0     H30911   3.315   9.820  11.190 -1.7695  0.4134  0.0559
  229MOL0     H30912   3.442   9.719  11.165 -3.4276 -4.4179  0.8308
  229MOL0     H30913   3.190   9.414  11.105 -2.3277  0.6840  2.6107
  229MOL0     H30914   3.089  10.078  11.212  2.3586 -0.7039 -0.7648
  229MOL0     H30915   2.881  10.216  11.214 -0.0418  0.8361 -0.0257
  230MOL0     O30916   8.203   0.672   4.945 -0.6786  0.7404 -0.7645
  230MOL0     C30917   8.137   0.754   5.008 -0.1703 -0.0622  0.0160
  230MOL0     O30918   8.153   0.897   4.994  0.3350 -0.0984 -0.1934
  230MOL0     C30919   8.254   0.943   4.918 -0.6986  0.8388  0.2234
  230MOL0     C30920   8.348   1.038   4.958 -0.1512 -0.5086  0.3787
  230MOL0     C30921   8.454   1.081   4.870  0.1840 -0.4250 -0.7539
  230MOL0     C30922   8.468   1.033   4.743 -1.1231  0.1418 -0.2780
  230MOL0     O30923   8.565   1.090   4.661  0.0355  0.3070 -0.2286
  230MOL0     C30924   8.623   1.015   4.556 -0.4230 -1.3787  0.3917
  230MOL0     C30925   8.769   1.005   4.587  0.6275 -0.0781 -0.8785
  230MOL0     C30926   8.847   1.134   4.561  0.7455 -0.1888  0.2735
  230MOL0     C30927   8.997   1.097   4.557 -0.1476  0.5227  0.8609
  230MOL0     C30928   9.039   1.044   4.418  0.9260  0.0464  0.8577
  230MOL0     C30929   9.180   0.998   4.400 -0.6908  0.4249 -0.7714
  230MOL0     C30930   9.222   0.893   4.511 -1.3689 -0.0871  0.2169
  230MOL0     C30931   9.365   0.844   4.465 -0.3933 -0.6264 -0.7059
  230MOL0     N30932   9.400   0.716   4.526 -0.0911  0.1644 -0.5099
  230MOL0     C30933   9.514   0.687   4.594  0.2938 -0.9313  0.3194
  230MOL0     C30934   9.501   0.566   4.654 -0.8847 -0.9777  0.3543
  230MOL0     C30935   9.586   0.505   4.771  0.1136 -0.1483  0.3173
  230MOL0     C30936   9.546   0.568   4.904  0.2425  0.0939  0.0315
  230MOL0     C30937   9.628   0.521   5.027  0.7082  1.0796 -0.4527
  230MOL0     C30938   9.579   0.385   5.088  0.1357 -0.2990  0.3940
  230MOL0     O30939   9.563   0.283   4.987 -0.0129  0.2102 -0.2799
  230MOL0     C30940   9.445   0.206   4.986  0.2475 -0.4735  0.5001
  230MOL0     C30941   9.341   0.249   4.905 -0.8898  0.3580  0.1498
  230MOL0     C30942   9.221   0.176   4.885  0.2336 -0.9325 -0.1720
  230MOL0     C30943   9.134   0.217   4.765 -0.1012  0.4172 -0.1198
  230MOL0     C30944   9.197   0.075   4.974  0.0192  0.3508 -1.6925
  230MOL0     C30945   9.067   0.004   4.987 -0.3756  0.5515  0.8687
  230MOL0     O30946   9.062  -0.082   5.094 -0.1877 -0.0286  0.5361
  230MOL0     C30947   8.937  -0.125   5.130  0.7636  0.2971  0.4103
  230MOL0     C30948   8.897  -0.241   5.063  0.4511  0.0450  0.1940
  230MOL0     C30949   8.777  -0.308   5.106  0.1256 -0.3316  0.0847
  230MOL0     C30950   8.698  -0.250   5.208 -0.3546 -0.5123  0.3172
  230MOL0     O30951   8.580  -0.301   5.263 -1.1007  0.1810  1.2586
  230MOL0     C30952   8.507  -0.386   5.169 -0.5618 -0.1868  0.5117
  230MOL0     C30953   8.427  -0.319   5.065  0.3690 -0.7113  0.8647
  230MOL0     C30954   8.324  -0.215   5.122  0.2402  0.6721 -1.4512
  230MOL0     C30955   8.219  -0.274   5.216  0.7831 -0.3019  0.0656
  230MOL0     C30956   8.105  -0.167   5.277 -0.0579  1.5853 -0.0988
  230MOL0     C30957   8.011  -0.106   5.161  0.2385  0.5790 -0.3962
  230MOL0     C30958   7.906  -0.203   5.112 -0.2452  0.3136  0.1892
  230MOL0     C30959   7.832  -0.127   5.004  0.2017  0.4921  1.1056
  230MOL0    Cl30960   7.720  -0.242   4.917 -0.0706 -0.1797 -0.3242
  230MOL0     C30961   8.740  -0.130   5.266  0.2511  0.2054  0.4093
  230MOL0     C30962   8.860  -0.065   5.237 -0.0959 -0.1177  1.0602
  230MOL0     O30963   8.976   0.032   4.910  1.0338 -0.3461  0.2096
  230MOL0     C30964   9.305   0.039   5.072  1.0804 -0.6655  0.5803
  230MOL0     C30965   9.432   0.099   5.069  0.2458 -0.2236 -0.4895
  230MOL0     N30966   9.379   0.517   4.606 -0.0842  0.1434  0.0412
  230MOL0     N30967   9.319   0.609   4.533  0.1252  0.2111  0.5064
  230MOL0     C30968   8.371   0.954   4.699 -0.5489  0.2112  0.3512
  230MOL0     C30969   8.268   0.902   4.784 -0.4497 -0.2864 -0.1239
  230MOL0     C30970   8.020   0.702   5.085 -0.6478 -0.3413 -0.0386
  230MOL0     C30971   8.006   0.570   5.126 -0.1990  0.2610 -0.7408
  230MOL0     C30972   7.899   0.525   5.201  0.4803  0.6831  0.5117
  230MOL0     C30973   7.796   0.607   5.223  0.2128 -0.6843 -0.3815
  230MOL0     O30974   7.682   0.560   5.296  0.0107 -0.7642 -0.1452
  230MOL0     C30975   7.678   0.429   5.348 -0.5946 -0.1620 -0.0776
  230MOL0     C30976   7.627   0.324   5.244  1.5698 -0.2363  0.6789
  230MOL0     C30977   7.497   0.362   5.157 -0.4950 -0.0875  0.1902
  230MOL0     C30978   7.371   0.359   5.253 -0.1959 -0.6949 -0.0736
  230MOL0     C30979   7.246   0.355   5.184 -0.2052  0.1498 -0.0271
  230MOL0     C30980   7.136   0.358   5.133 -0.4764  0.0417 -0.0114
  230MOL0     C30981   7.810   0.746   5.181  0.1455 -0.2117 -0.6853
  230MOL0     C30982   7.916   0.799   5.108 -0.0136  0.4374  0.1995
  230MOL0     H30983   8.333   1.084   5.055  1.8334  0.4055  0.3140
  230MOL0     H30984   8.510   1.166   4.908  0.1738 -1.1308  0.8962
  230MOL0     H30985   8.588   0.913   4.540  0.5911 -1.1481 -4.8691
  230MOL0     H30986   8.605   1.071   4.464 -0.4204  3.3006  2.8944
  230MOL0     H30987   8.790   0.971   4.688  1.8455  0.8678 -0.7924
  230MOL0     H30988   8.817   0.921   4.535  2.3046 -1.7852  3.0224
  230MOL0     H30989   8.811   1.172   4.464 -2.6841 -0.0686  1.4574
  230MOL0     H30990   8.819   1.208   4.637 -4.0074 -0.4900 -0.8966
  230MOL0     H30991   9.051   1.190   4.575  3.0650  0.0375 -4.2794
  230MOL0     H30992   9.016   1.018   4.631 -0.9635  0.4720  1.0282
  230MOL0     H30993   8.973   0.961   4.388 -0.5524  1.7550 -0.9461
  230MOL0     H30994   9.019   1.126   4.349 -1.4463 -0.5757  0.7157
  230MOL0     H30995   9.170   0.957   4.299  2.1688 -1.3489 -0.4597
  230MOL0     H30996   9.248   1.084   4.401  1.9588 -1.5500  0.0610
  230MOL0     H30997   9.240   0.932   4.611 -1.9312 -1.8273  1.0308
  230MOL0     H30998   9.141   0.819   4.507 -0.5080 -1.0340 -3.2420
  230MOL0     H30999   9.439   0.917   4.499 -0.0586 -1.9793  1.6471
  230MOL0     H31000   9.371   0.840   4.355 -1.1644 -2.1309 -0.7206
  230MOL0     H31001   9.588   0.765   4.609 -0.0360 -0.6597  0.5566
  230MOL0     H31002   9.568   0.397   4.765  0.5417 -0.2217  0.2779
  230MOL0     H31003   9.693   0.526   4.764 -0.3585  2.0203 -2.1554
  230MOL0     H31004   9.447   0.556   4.950  1.0856  1.1123  2.2435
  230MOL0     H31005   9.553   0.677   4.899 -1.8755  0.3386  1.0055
  230MOL0     H31006   9.613   0.584   5.115  2.8761 -3.0413  3.2904
  230MOL0     H31007   9.735   0.520   5.002  0.5777 -0.0164 -1.0155
  230MOL0     H31008   9.486   0.412   5.138  0.5977  1.0683  0.5785
  230MOL0     H31009   9.655   0.343   5.155  1.0639 -1.3558 -1.2511
  230MOL0     H31010   9.373   0.330   4.839 -0.2154 -0.7935 -0.9842
  230MOL0     H31011   9.032   0.243   4.793 -0.5350 -0.7403 -0.5562
  230MOL0     H31012   9.176   0.305   4.716  4.1751 -2.2120 -1.8421
  230MOL0     H31013   9.133   0.136   4.691  1.9480 -0.7197  0.9720
  230MOL0     H31014   8.945  -0.293   4.980 -0.5455  1.9273 -1.6576
  230MOL0     H31015   8.761  -0.408   5.067  1.2302  0.5233 -2.8099
  230MOL0     H31016   8.573  -0.458   5.120 -0.8416  0.1967 -0.4585
  230MOL0     H31017   8.436  -0.439   5.232  2.5069  0.1870  4.6820
  230MOL0     H31018   8.497  -0.260   5.006 -1.9642  3.5631  1.9820
  230MOL0     H31019   8.367  -0.387   5.003 -2.8263  0.6742  2.1781
  230MOL0     H31020   8.261  -0.179   5.040 -1.0353 -1.2676 -1.3743
  230MOL0     H31021   8.368  -0.124   5.166 -1.3110 -0.1784  2.2542
  230MOL0     H31022   8.161  -0.353   5.168 -0.2486 -0.3485  1.3298
  230MOL0     H31023   8.273  -0.318   5.300 -0.8635  0.2736  1.4961
  230MOL0     H31024   8.153  -0.083   5.329 -2.3840  3.6060 -1.0039
  230MOL0     H31025   8.044  -0.214   5.355 -0.5122 -2.4616 -2.6002
  230MOL0     H31026   7.964  -0.020   5.210 -2.5951 -2.2890  2.4682
  230MOL0     H31027   8.086  -0.079   5.086 -1.7922  0.4694 -2.5500
  230MOL0     H31028   7.842  -0.230   5.197  2.8051  0.2324  2.6330
  230MOL0     H31029   7.952  -0.288   5.062 -0.4021  0.8882 -0.9518
  230MOL0     H31030   7.903  -0.096   4.927  0.9402 -2.5119  0.4545
  230MOL0     H31031   7.768  -0.049   5.046  1.3519  1.1641  1.6657
  230MOL0     H31032   8.676  -0.075   5.335 -1.0201  0.5264 -0.9687
  230MOL0     H31033   8.890   0.024   5.290 -2.2384 -0.6140  3.3571
  230MOL0     H31034   9.294  -0.044   5.141  2.0589 -2.5616 -1.4301
  230MOL0     H31035   9.507   0.071   5.143  0.0809 -0.4736 -0.4137
  230MOL0     H31036   8.378   0.918   4.597  0.0688 -1.7795  1.0620
  230MOL0     H31037   8.209   0.822   4.742  1.5796 -2.2362  0.5484
  230MOL0     H31038   8.084   0.497   5.108  0.1458  0.5544 -0.4474
  230MOL0     H31039   7.906   0.426   5.245 -1.2123  1.3021  2.3397
  230MOL0     H31040   7.771   0.396   5.394 -0.5488  0.3532  0.1970
  230MOL0     H31041   7.605   0.445   5.428  0.3374  0.9257  0.5774
  230MOL0     H31042   7.596   0.235   5.299  0.9280  0.3525  1.2975
  230MOL0     H31043   7.709   0.304   5.175 -0.2273 -1.2933 -1.2387
  230MOL0     H31044   7.476   0.278   5.090 -4.6530  0.5235  0.4814
  230MOL0     H31045   7.513   0.452   5.097 -0.9956  1.8392  2.7555
  230MOL0     H31046   7.385   0.448   5.315  3.7762 -1.5524  0.5273
  230MOL0     H31047   7.369   0.282   5.331 -2.5996  0.1163  0.7460
  230MOL0     H31048   7.039   0.347   5.088  0.1488  1.6170 -1.8689
  230MOL0     H31049   7.735   0.822   5.200  2.2896  1.5404  1.3782
  230MOL0     H31050   7.918   0.903   5.078 -0.2149  1.3470  3.0942
  231MOL0     O31051   3.145   9.480   2.424 -0.1506 -0.0435 -0.4583
  231MOL0     C31052   3.108   9.512   2.540  0.2822 -0.3771  0.3035
  231MOL0     O31053   3.080   9.640   2.574  0.8563 -0.6427  0.6966
  231MOL0     C31054   3.147   9.744   2.522  0.7165  0.6205  0.6573
  231MOL0     C31055   3.280   9.746   2.500 -0.0700 -0.5373  0.1941
  231MOL0     C31056   3.347   9.863   2.465  0.6059  0.0681  0.1732
  231MOL0     C31057   3.271   9.982   2.453  0.5446 -0.6357 -0.4016
  231MOL0     O31058   3.334  10.108   2.434 -0.3995 -0.1692  0.5561
  231MOL0     C31059   3.471  10.118   2.389  0.6213 -0.7575 -0.0397
  231MOL0     C31060   3.515  10.259   2.346  0.9376  0.0471 -0.1376
  231MOL0     C31061   3.494  10.357   2.458  0.2123  1.5293 -0.8445
  231MOL0     C31062   3.506  10.508   2.438  0.5792 -0.1682  0.7932
  231MOL0     C31063   3.499  10.593   2.563 -0.7919 -0.3908  0.4601
  231MOL0     C31064   3.526  10.742   2.526 -0.0959 -0.3236 -1.1787
  231MOL0     C31065   3.491  10.828   2.655  0.4845  0.5850  0.5508
  231MOL0     C31066   3.340  10.841   2.700 -1.4592  0.5440 -0.2596
  231MOL0     N31067   3.264  10.929   2.612 -0.2342 -0.4731  0.3140
  231MOL0     C31068   3.185  11.038   2.647 -0.7756 -0.5368  0.6834
  231MOL0     C31069   3.131  11.075   2.529  0.1047 -0.0368 -1.1988
  231MOL0     C31070   3.040  11.194   2.520 -0.9706 -0.2417 -0.4398
  231MOL0     C31071   3.088  11.303   2.431  0.3276 -0.1341  0.3468
  231MOL0     C31072   3.133  11.428   2.503  0.3010 -1.0547 -0.5382
  231MOL0     C31073   3.014  11.518   2.557 -0.6576  0.6167 -1.2884
  231MOL0     O31074   3.041  11.628   2.641  0.7569 -0.0348  0.1354
  231MOL0     C31075   3.051  11.598   2.774  0.1826 -0.3241  0.3020
  231MOL0     C31076   3.066  11.467   2.836 -0.2230  0.2257  0.7289
  231MOL0     C31077   3.044  11.448   2.971 -0.0491  0.1552 -0.2760
  231MOL0     C31078   3.053  11.297   3.005  0.1987 -0.3441  0.2495
  231MOL0     C31079   3.028  11.558   3.061 -0.1333 -0.8703  0.2282
  231MOL0     C31080   3.039  11.558   3.218  0.5461  0.8456  0.6112
  231MOL0     O31081   3.034  11.681   3.287 -0.3376 -0.1324 -0.0403
  231MOL0     C31082   3.059  11.688   3.415 -0.5744  0.0168 -0.2520
  231MOL0     C31083   2.982  11.784   3.491  1.1988 -0.0712  0.2420
  231MOL0     C31084   2.986  11.796   3.634 -1.5102 -0.3377 -0.7146
  231MOL0     C31085   3.081  11.709   3.704 -0.5647 -0.2043 -0.3575
  231MOL0     O31086   3.077  11.721   3.841 -0.7628 -0.0467  0.3803
  231MOL0     C31087   3.086  11.601   3.913 -0.0165  0.3854 -0.4418
  231MOL0     C31088   3.006  11.614   4.037 -0.4919 -0.4867 -1.1709
  231MOL0     C31089   3.078  11.716   4.128 -1.1946 -0.4024  0.0731
  231MOL0     C31090   2.972  11.769   4.221 -1.3991  0.7400 -0.9515
  231MOL0     C31091   3.040  11.853   4.332 -0.6369 -0.3681  0.0263
  231MOL0     C31092   3.117  11.972   4.273 -0.6316 -0.0641 -0.2476
  231MOL0     C31093   3.200  12.044   4.393  0.6592  0.1734  0.2793
  231MOL0     C31094   3.292  12.155   4.336 -0.5220 -0.1170 -0.2606
  231MOL0    Cl31095   3.228  12.306   4.409 -0.6953 -0.0195  0.1066
  231MOL0     C31096   3.159  11.617   3.622 -1.1440 -0.3286 -0.4283
  231MOL0     C31097   3.155  11.616   3.483 -0.8402  0.1005  0.8572
  231MOL0     O31098   3.043  11.451   3.276  0.4486  1.1040  0.8682
  231MOL0     C31099   3.030  11.689   3.000 -0.5259  0.4736  0.1039
  231MOL0     C31100   3.039  11.706   2.862 -0.2148  0.0637 -0.5745
  231MOL0     N31101   3.148  10.986   2.427 -0.3406  0.2262 -1.2889
  231MOL0     N31102   3.228  10.898   2.481  0.5170  0.2166  0.2601
  231MOL0     C31103   3.134   9.973   2.468 -0.0082 -0.0563 -0.0661
  231MOL0     C31104   3.079   9.852   2.490 -0.6690  0.2124 -0.3519
  231MOL0     C31105   3.076   9.406   2.632  0.5875 -0.1159 -0.0644
  231MOL0     C31106   3.145   9.285   2.607 -0.7108 -0.1474 -0.9696
  231MOL0     C31107   3.121   9.173   2.678  0.4604 -0.4401 -0.1672
  231MOL0     C31108   3.027   9.184   2.784  0.8433  0.2362  0.6257
  231MOL0     O31109   2.994   9.079   2.857 -0.0904 -0.3555 -0.2276
  231MOL0     C31110   3.103   9.010   2.933  0.9543  0.4420 -0.1284
  231MOL0     C31111   3.131   9.064   3.071  0.4060 -0.6550  0.1355
  231MOL0     C31112   3.006   9.098   3.156 -0.0912  0.5814 -1.6079
  231MOL0     C31113   2.938   8.988   3.230  0.4922  0.1576 -0.3685
  231MOL0     C31114   3.030   8.928   3.330 -0.0955  0.7579 -0.8012
  231MOL0     C31115   3.106   8.887   3.414 -0.1286  0.0605 -0.2649
  231MOL0     C31116   2.964   9.302   2.824  0.0606 -0.9310  0.2253
  231MOL0     C31117   2.989   9.419   2.742 -0.1198  0.1028 -0.4411
  231MOL0     H31118   3.325   9.648   2.514 -0.6885 -0.9213 -0.4097
  231MOL0     H31119   3.454   9.856   2.449  1.1744  1.3937  2.9438
  231MOL0     H31120   3.535  10.075   2.467  0.6752 -1.6804 -0.5800
  231MOL0     H31121   3.485  10.048   2.306 -2.1339  0.5207 -1.7405
  231MOL0     H31122   3.621  10.265   2.322  0.6351  3.2678 -1.0917
  231MOL0     H31123   3.464  10.287   2.254  3.1133  1.7109 -0.9161
  231MOL0     H31124   3.402  10.336   2.514  2.1505 -0.5176  1.8656
  231MOL0     H31125   3.567  10.333   2.536  0.1433  0.3819 -1.1178
  231MOL0     H31126   3.604  10.544   2.408 -0.0804  0.5845 -0.5388
  231MOL0     H31127   3.438  10.550   2.363 -0.9213  1.8856  3.1147
  231MOL0     H31128   3.409  10.571   2.620  0.5321  0.3521  3.0080
  231MOL0     H31129   3.580  10.557   2.627 -1.1830 -0.1255  1.1066
  231MOL0     H31130   3.626  10.758   2.484  0.5258  1.2103  0.7339
  231MOL0     H31131   3.466  10.769   2.438 -0.5264  0.4570 -0.6592
  231MOL0     H31132   3.554  10.790   2.735  1.6199 -1.5715 -1.2734
  231MOL0     H31133   3.524  10.930   2.635  2.6646 -0.1891 -0.0411
  231MOL0     H31134   3.341  10.893   2.796 -0.5844  4.3200 -2.1202
  231MOL0     H31135   3.284  10.747   2.702 -0.7237  0.0514 -1.5771
  231MOL0     H31136   3.191  11.094   2.739  0.2967  2.5696 -1.1269
  231MOL0     H31137   2.937  11.165   2.496 -1.9114 -0.1732  3.0462
  231MOL0     H31138   3.021  11.241   2.617 -2.2207  0.9337 -1.2119
  231MOL0     H31139   2.999  11.328   2.372 -0.8149 -0.9186  1.6621
  231MOL0     H31140   3.166  11.266   2.363  0.1988 -0.0894  0.1746
  231MOL0     H31141   3.188  11.486   2.429  1.0636 -0.9404  0.0980
  231MOL0     H31142   3.193  11.404   2.591 -0.9014  1.1353  0.9963
  231MOL0     H31143   2.931  11.461   2.599 -0.1686  0.5455 -0.4023
  231MOL0     H31144   2.968  11.572   2.474 -4.2709 -0.5098 -0.1717
  231MOL0     H31145   3.098  11.386   2.772  1.2267  1.7501 -0.5683
  231MOL0     H31146   2.953  11.259   3.028 -0.0869 -0.8605 -1.7049
  231MOL0     H31147   3.079  11.232   2.921 -0.6183 -2.4722  1.5529
  231MOL0     H31148   3.116  11.274   3.091  1.3628 -0.3966 -0.5993
  231MOL0     H31149   2.911  11.838   3.429  0.6805 -0.9152  0.0865
  231MOL0     H31150   2.923  11.857   3.699  2.6977  3.3165  0.3938
  231MOL0     H31151   3.033  11.530   3.848 -1.6394  2.6977 -1.7813
  231MOL0     H31152   3.190  11.571   3.927  0.1055 -0.0772 -2.1283
  231MOL0     H31153   2.904  11.654   4.030 -0.1728  1.2020  1.9551
  231MOL0     H31154   2.992  11.514   4.080 -5.3181 -0.0532 -1.1531
  231MOL0     H31155   3.117  11.794   4.061 -0.4065  0.2399  1.2619
  231MOL0     H31156   3.167  11.675   4.176 -0.9418 -1.3675 -1.1712
  231MOL0     H31157   2.906  11.834   4.163 -1.0842  2.2027  0.2837
  231MOL0     H31158   2.911  11.690   4.266 -1.0603  0.5875 -0.7582
  231MOL0     H31159   3.100  11.791   4.399 -0.4758 -1.5357 -1.1434
  231MOL0     H31160   2.959  11.904   4.386 -0.7708 -1.0531  0.4889
  231MOL0     H31161   3.190  11.939   4.199  0.1801  1.6800 -0.2901
  231MOL0     H31162   3.055  12.055   4.238  1.3207  3.0044  2.8064
  231MOL0     H31163   3.268  11.968   4.432 -0.2982 -0.0292  1.6042
  231MOL0     H31164   3.141  12.078   4.479 -0.1089  0.3955 -0.3166
  231MOL0     H31165   3.295  12.149   4.227 -1.9473 -1.1787 -0.2814
  231MOL0     H31166   3.393  12.151   4.377 -0.6772 -0.3185  0.1118
  231MOL0     H31167   3.226  11.550   3.675  0.5220  2.9694  2.0056
  231MOL0     H31168   3.218  11.551   3.423 -0.4990  0.9369  0.2941
  231MOL0     H31169   3.037  11.779   3.060  0.6644  0.9462 -0.7115
  231MOL0     H31170   3.037  11.808   2.824  0.7236  0.5005  0.4845
  231MOL0     H31171   3.082  10.065   2.442  2.1651  0.7989 -1.7112
  231MOL0     H31172   2.971   9.850   2.501 -1.0759  2.4791 -3.0164
  231MOL0     H31173   3.222   9.276   2.531  3.0666 -1.3145  2.5625
  231MOL0     H31174   3.160   9.075   2.654 -0.1515 -1.2697  1.9671
  231MOL0     H31175   3.065   8.908   2.947 -1.0380  1.0088 -1.0731
  231MOL0     H31176   3.196   9.006   2.876  1.3166 -0.0696  0.4771
  231MOL0     H31177   3.183   9.160   3.065  2.4930 -1.7540 -0.2512
  231MOL0     H31178   3.204   9.009   3.130  0.0911  2.3279  3.6533
  231MOL0     H31179   2.937   9.153   3.092 -2.7160  0.4511  0.8894
  231MOL0     H31180   3.040   9.172   3.230 -2.0449  0.4475 -0.5127
  231MOL0     H31181   2.908   8.911   3.159 -0.3254 -0.3432  0.4903
  231MOL0     H31182   2.847   9.039   3.265  0.1834 -0.3560 -0.4104
  231MOL0     H31183   3.174   8.854   3.490 -0.1943  0.5964  0.0377
  231MOL0     H31184   2.887   9.319   2.899 -0.7282 -0.8623 -0.5913
  231MOL0     H31185   2.937   9.511   2.764 -3.4509 -1.2843 -1.7897
  232MOL0     O31186   0.211   0.045  10.111  0.7081 -0.4041  0.2455
  232MOL0     C31187   0.269  -0.057  10.132 -0.3820 -0.0045 -0.3168
  232MOL0     O31188   0.403  -0.066  10.141 -1.1202 -0.1765  0.2997
  232MOL0     C31189   0.474   0.047  10.100  0.5992  0.8774 -0.5985
  232MOL0     C31190   0.563   0.114  10.179 -0.1093 -0.6144  0.0534
  232MOL0     C31191   0.624   0.235  10.126  0.6942 -0.4081 -0.2185
  232MOL0     C31192   0.602   0.278   9.998 -0.0853 -0.2516  0.3193
  232MOL0     O31193   0.663   0.386   9.942 -0.3905 -0.8205 -0.8832
  232MOL0     C31194   0.685   0.501  10.034  0.1826  0.6825  0.0059
  232MOL0     C31195   0.732   0.631   9.970  0.9521 -0.1215  0.1415
  232MOL0     C31196   0.882   0.628   9.941  0.1302  0.3891  0.0516
  232MOL0     C31197   0.908   0.680   9.799  0.7315  0.2431 -0.1052
  232MOL0     C31198   1.056   0.697   9.773  0.9416 -0.4997  0.3284
  232MOL0     C31199   1.086   0.731   9.628  0.1183 -0.7785  0.1047
  232MOL0     C31200   1.041   0.875   9.604 -1.0556 -0.1845 -0.5508
  232MOL0     C31201   0.959   0.901   9.480  0.8110  0.1302 -0.7048
  232MOL0     N31202   0.834   0.823   9.492 -0.2329 -0.5734  0.3661
  232MOL0     C31203   0.810   0.700   9.440 -0.0003  0.0646 -0.1426
  232MOL0     C31204   0.678   0.684   9.457 -0.3771 -0.1418  0.1967
  232MOL0     C31205   0.593   0.583   9.381 -0.4263 -0.8470 -0.6161
  232MOL0     C31206   0.592   0.448   9.451 -0.6063  0.6677  0.2189
  232MOL0     C31207   0.585   0.440   9.610  0.5805 -0.8730 -0.2767
  232MOL0     C31208   0.441   0.468   9.650  0.2561 -0.7059  0.1115
  232MOL0     O31209   0.367   0.363   9.591 -0.3529 -0.0329 -0.4542
  232MOL0     C31210   0.238   0.320   9.635 -0.3678  0.8305 -0.3858
  232MOL0     C31211   0.191   0.360   9.762 -0.5524  0.0734  0.4012
  232MOL0     C31212   0.059   0.341   9.793  0.4630  0.5801  0.7527
  232MOL0     C31213   0.000   0.382   9.922 -1.5654 -0.6832 -0.6811
  232MOL0     C31214  -0.023   0.277   9.702 -1.0084  0.5499 -0.2768
  232MOL0     C31215  -0.168   0.240   9.721 -0.0357  0.8414  0.0108
  232MOL0     O31216  -0.244   0.322   9.804  0.1309 -0.2539 -1.1198
  232MOL0     C31217  -0.368   0.281   9.821 -0.3927 -0.0563  0.1759
  232MOL0     C31218  -0.464   0.322   9.726  0.0359 -0.0461  0.0493
  232MOL0     C31219  -0.591   0.272   9.728 -0.2769 -0.6013 -0.0067
  232MOL0     C31220  -0.636   0.190   9.830 -0.5141  0.4239  0.3386
  232MOL0     O31221  -0.762   0.132   9.821 -0.7201 -0.1095  0.5929
  232MOL0     C31222  -0.788   0.038   9.925 -0.0463  0.3471 -0.2619
  232MOL0     C31223  -0.932  -0.013   9.915  0.1609  0.4452  0.1051
  232MOL0     C31224  -0.938  -0.115   9.795 -0.0622 -0.0426 -0.0675
  232MOL0     C31225  -1.075  -0.186   9.789 -0.1746  0.1706  0.2159
  232MOL0     C31226  -1.097  -0.262   9.659 -0.0767 -0.7192  0.0014
  232MOL0     C31227  -1.162  -0.174   9.560  0.2506 -0.2976 -0.3800
  232MOL0     C31228  -1.202  -0.248   9.432 -0.0357 -0.4033  0.3159
  232MOL0     C31229  -1.284  -0.165   9.331 -0.4967  0.3254  0.0660
  232MOL0    Cl31230  -1.309  -0.265   9.184  0.0125  0.5721 -0.0207
  232MOL0     C31231  -0.534   0.147   9.927  0.5836 -0.7223 -0.4784
  232MOL0     C31232  -0.401   0.205   9.928 -0.4177  0.4146 -0.6032
  232MOL0     O31233  -0.219   0.143   9.668 -0.4208  0.8734  0.1534
  232MOL0     C31234   0.034   0.232   9.581  1.0493 -0.4069 -0.0243
  232MOL0     C31235   0.161   0.246   9.552 -0.7248 -0.7796 -0.3710
  232MOL0     N31236   0.628   0.786   9.531 -0.0876 -0.6162  0.0963
  232MOL0     N31237   0.730   0.868   9.562  0.1304  0.8013 -0.2969
  232MOL0     C31238   0.511   0.212   9.928  0.4584  0.7317 -0.4061
  232MOL0     C31239   0.446   0.089   9.965  0.7088  0.0054 -0.1207
  232MOL0     C31240   0.183  -0.175  10.152 -0.2825 -0.8824 -1.1633
  232MOL0     C31241   0.237  -0.293  10.205 -0.2722  0.3745  0.2042
  232MOL0     C31242   0.162  -0.410  10.207 -0.8390  1.2505  0.1980
  232MOL0     C31243   0.039  -0.409  10.137  0.1562 -0.8430  0.1606
  232MOL0     O31244  -0.024  -0.527  10.123  0.2366 -0.4086 -0.5312
  232MOL0     C31245  -0.115  -0.546  10.013 -0.9533 -0.2434 -0.0900
  232MOL0     C31246  -0.150  -0.689   9.993  0.5216 -0.0845  0.1563
  232MOL0     C31247  -0.028  -0.771   9.948  0.1010 -0.0923 -0.0891
  232MOL0     C31248   0.031  -0.875  10.045  0.3695  0.1860 -0.2621
  232MOL0     C31249   0.152  -0.933   9.987  0.8242 -1.0828  0.2307
  232MOL0     C31250   0.253  -0.999   9.963 -0.5330  0.0919 -0.4205
  232MOL0     C31251  -0.020  -0.289  10.095  0.5665  0.3001 -0.1070
  232MOL0     C31252   0.049  -0.174  10.108 -0.0558  1.1191  0.1261
  232MOL0     H31253   0.574   0.080  10.282 -0.7017  1.2407  0.7844
  232MOL0     H31254   0.683   0.301  10.189  0.8805 -0.6524 -0.1360
  232MOL0     H31255   0.590   0.530  10.080 -0.7128  2.2701 -2.6386
  232MOL0     H31256   0.763   0.472  10.105  1.7755  1.3748 -1.3868
  232MOL0     H31257   0.691   0.634   9.869  4.5787 -0.2920 -1.4786
  232MOL0     H31258   0.712   0.719  10.032  0.5606  1.3630 -1.9810
  232MOL0     H31259   0.932   0.695  10.011  0.5025 -0.4865  0.6424
  232MOL0     H31260   0.920   0.526   9.953 -1.4755 -0.5040 -1.8216
  232MOL0     H31261   0.866   0.601   9.737  1.8109 -0.1793 -0.3248
  232MOL0     H31262   0.856   0.769   9.765  0.7128 -0.2536 -1.4151
  232MOL0     H31263   1.083   0.779   9.841 -5.0464  2.0667  0.1739
  232MOL0     H31264   1.101   0.604   9.810  2.1316 -0.2649 -0.4614
  232MOL0     H31265   1.194   0.734   9.616  0.2099  4.3396 -0.0293
  232MOL0     H31266   1.040   0.665   9.555 -1.6869  1.1780 -0.6303
  232MOL0     H31267   0.994   0.926   9.689 -0.1537 -0.4180  0.1015
  232MOL0     H31268   1.131   0.932   9.582 -1.7974  1.1376 -0.2497
  232MOL0     H31269   1.020   0.870   9.395  2.2824  2.3803 -0.5480
  232MOL0     H31270   0.934   1.006   9.462 -2.0904 -0.4870 -0.8866
  232MOL0     H31271   0.868   0.640   9.370 -0.3625 -0.3850 -0.0612
  232MOL0     H31272   0.490   0.618   9.376 -0.0454  0.1716 -5.0810
  232MOL0     H31273   0.614   0.563   9.276 -0.8577  0.6313 -1.0044
  232MOL0     H31274   0.690   0.403   9.435  1.3132  3.6761  2.4872
  232MOL0     H31275   0.522   0.384   9.396 -0.2163  1.4205 -1.2222
  232MOL0     H31276   0.657   0.505   9.659  0.7356  0.9912 -2.7603
  232MOL0     H31277   0.595   0.337   9.647  1.2120 -0.3126  1.1694
  232MOL0     H31278   0.396   0.564   9.622 -0.1180 -1.3743 -1.6818
  232MOL0     H31279   0.432   0.463   9.759 -1.7565  0.4690  0.0500
  232MOL0     H31280   0.254   0.417   9.830  0.4110  0.7423 -1.0048
  232MOL0     H31281  -0.062   0.300   9.962 -2.4169 -0.0599 -0.7094
  232MOL0     H31282   0.066   0.404  10.007 -3.0576  1.7774 -0.0660
  232MOL0     H31283  -0.064   0.470   9.918 -2.4595 -1.1003  2.0496
  232MOL0     H31284  -0.433   0.383   9.641 -1.0392  0.2251 -0.1645
  232MOL0     H31285  -0.667   0.285   9.651 -0.3098 -2.4597 -0.3364
  232MOL0     H31286  -0.721  -0.047   9.910 -1.3574 -0.6581 -0.5070
  232MOL0     H31287  -0.786   0.096  10.018  1.3112  4.0027 -2.3214
  232MOL0     H31288  -0.964  -0.049  10.012  0.3286  0.2752  0.0976
  232MOL0     H31289  -1.000   0.070   9.895 -1.4017 -0.3286  1.9847
  232MOL0     H31290  -0.860  -0.191   9.807 -0.2512 -0.0408  1.3152
  232MOL0     H31291  -0.926  -0.063   9.700  3.1988  3.7099  2.1193
  232MOL0     H31292  -1.066  -0.248   9.879 -0.9451  1.1410  0.9853
  232MOL0     H31293  -1.160  -0.120   9.808 -2.3309 -1.8289 -1.8131
  232MOL0     H31294  -1.162  -0.349   9.678 -1.5024 -0.1767 -2.1057
  232MOL0     H31295  -0.997  -0.290   9.625  0.3855  1.4770 -0.5568
  232MOL0     H31296  -1.255  -0.138   9.606  1.1222 -0.5548  1.6805
  232MOL0     H31297  -1.104  -0.083   9.542 -3.6761  3.3698  3.1422
  232MOL0     H31298  -1.273  -0.325   9.462 -2.2290  0.8513 -1.3154
  232MOL0     H31299  -1.113  -0.294   9.388  2.4270  0.3180  4.0899
  232MOL0     H31300  -1.227  -0.076   9.301 -1.1571  0.6253 -0.3278
  232MOL0     H31301  -1.374  -0.144   9.388  0.8104 -3.6664  4.1389
  232MOL0     H31302  -0.566   0.081  10.007  2.3064 -0.4627  0.4685
  232MOL0     H31303  -0.335   0.177  10.010  0.7062 -0.4535 -1.7622
  232MOL0     H31304  -0.029   0.177   9.511 -1.1915  0.8433  0.9218
  232MOL0     H31305   0.197   0.215   9.454 -1.8575 -3.5260 -0.0206
  232MOL0     H31306   0.504   0.246   9.825  1.5896  1.6968 -0.1743
  232MOL0     H31307   0.385   0.035   9.893  0.3869  1.7789 -1.2419
  232MOL0     H31308   0.337  -0.294  10.246  0.0535  1.8120 -0.4741
  232MOL0     H31309   0.198  -0.504  10.247  0.8287  1.0523 -1.6277
  232MOL0     H31310  -0.205  -0.487  10.035  1.0232  2.4676  1.5386
  232MOL0     H31311  -0.069  -0.509   9.921 -1.2457  1.8177  0.5369
  232MOL0     H31312  -0.232  -0.700   9.922 -0.8236 -2.8086  1.9513
  232MOL0     H31313  -0.197  -0.722  10.086  0.5536  1.8560  0.9029
  232MOL0     H31314   0.053  -0.698   9.934 -0.2802  0.2348 -0.6457
  232MOL0     H31315  -0.055  -0.826   9.857  1.3873 -0.2932 -0.3672
  232MOL0     H31316  -0.043  -0.950  10.077 -0.5166  0.5455 -1.4074
  232MOL0     H31317   0.045  -0.824  10.141 -0.9121 -0.0817  0.0883
  232MOL0     H31318   0.344  -1.053   9.951 -0.5535  0.3389 -1.8399
  232MOL0     H31319  -0.119  -0.286  10.050  0.1484 -0.0846  0.7637
  232MOL0     H31320   0.010  -0.075  10.088 -3.6976  1.1010  5.2660
  233MOL0     O31321   4.167   8.454   8.168 -0.2264 -1.0121 -0.1093
  233MOL0     C31322   4.267   8.410   8.210 -1.2436  0.3614 -1.0437
  233MOL0     O31323   4.302   8.386   8.342  0.1160 -0.1692 -0.1158
  233MOL0     C31324   4.204   8.437   8.424 -0.4217 -0.0537 -0.4017
  233MOL0     C31325   4.224   8.566   8.484  0.4479 -0.2176  0.1439
  233MOL0     C31326   4.134   8.610   8.582  0.0899 -0.9646 -0.4342
  233MOL0     C31327   4.028   8.525   8.625 -0.5496  0.6150 -0.6715
  233MOL0     O31328   3.952   8.584   8.729  0.6446 -0.0883  0.5522
  233MOL0     C31329   3.876   8.509   8.826  0.5889  0.0660  0.6207
  233MOL0     C31330   3.989   8.465   8.920  0.6310 -1.1380  0.0480
  233MOL0     C31331   3.929   8.380   9.033 -0.4752  0.4320 -0.3625
  233MOL0     C31332   4.039   8.330   9.130 -0.5130 -0.1522  0.8925
  233MOL0     C31333   3.978   8.236   9.234  0.7359 -0.3100 -0.1102
  233MOL0     C31334   4.086   8.187   9.327  0.5732 -0.4253  0.0760
  233MOL0     C31335   4.057   8.077   9.429 -0.6917  0.0279 -0.0375
  233MOL0     C31336   4.101   7.944   9.372 -0.4641  0.1174  0.1263
  233MOL0     N31337   4.243   7.920   9.419  0.1005  0.5714 -1.2313
  233MOL0     C31338   4.275   7.807   9.497 -1.1808  1.2128  0.4321
  233MOL0     C31339   4.406   7.795   9.473 -1.1247  0.6503  0.1597
  233MOL0     C31340   4.494   7.675   9.509  0.1825 -0.7733  0.7364
  233MOL0     C31341   4.649   7.696   9.485  0.2461 -0.0520  0.1545
  233MOL0     C31342   4.732   7.624   9.593  0.3260  0.1167 -0.0616
  233MOL0     C31343   4.878   7.646   9.571 -0.4006  0.2236 -0.2845
  233MOL0     O31344   4.973   7.544   9.635 -0.1353 -0.1170  0.7423
  233MOL0     C31345   4.989   7.425   9.566  0.5335 -0.5236  0.1417
  233MOL0     C31346   5.098   7.343   9.598 -0.2421 -0.1025 -0.9793
  233MOL0     C31347   5.134   7.228   9.520 -0.8567  0.2825 -1.0104
  233MOL0     C31348   5.255   7.143   9.577  0.0782  0.6496 -0.2114
  233MOL0     C31349   5.055   7.186   9.417  0.1973 -0.0418  0.4016
  233MOL0     C31350   5.067   7.053   9.351  0.5854 -1.1019 -1.2092
  233MOL0     O31351   5.189   7.002   9.332 -0.2120 -0.5825  0.2805
  233MOL0     C31352   5.197   6.868   9.297  0.3847 -0.6657  1.0949
  233MOL0     C31353   5.268   6.839   9.179 -0.8114 -0.4001  0.5085
  233MOL0     C31354   5.307   6.708   9.145 -0.3937 -0.3358 -0.3414
  233MOL0     C31355   5.280   6.607   9.239 -0.0237  0.2547  0.4850
  233MOL0     O31356   5.319   6.474   9.229 -1.0920 -0.4788  0.2788
  233MOL0     C31357   5.360   6.421   9.107  0.2526 -0.6260 -0.3672
  233MOL0     C31358   5.306   6.288   9.078 -0.6066  0.3077  0.0145
  233MOL0     C31359   5.147   6.283   9.069 -1.8979 -0.1109 -0.3259
  233MOL0     C31360   5.109   6.143   9.021 -0.2981  0.1797  1.0802
  233MOL0     C31361   4.959   6.122   9.036 -0.4901  0.3691  0.3523
  233MOL0     C31362   4.924   5.978   9.016  0.5772  1.0878  0.9371
  233MOL0     C31363   4.945   5.896   9.141 -0.0952 -0.9503 -0.3493
  233MOL0     C31364   5.055   5.790   9.145  0.2038  0.0544  0.1230
  233MOL0    Cl31365   5.179   5.829   9.257 -0.3136 -0.0465  0.0062
  233MOL0     C31366   5.198   6.635   9.347  0.6847  0.6621  0.3329
  233MOL0     C31367   5.162   6.760   9.383  0.8742 -0.3858  1.1657
  233MOL0     O31368   4.958   7.004   9.325  0.2964 -0.1483  0.2789
  233MOL0     C31369   4.947   7.269   9.381 -0.3815  1.0639  0.5154
  233MOL0     C31370   4.909   7.378   9.451  0.0374 -0.6204 -0.2228
  233MOL0     N31371   4.461   7.904   9.409 -0.3503 -0.1356  0.1486
  233MOL0     N31372   4.361   7.969   9.370 -0.6469  0.4216 -0.0816
  233MOL0     C31373   4.016   8.399   8.568  0.2890  0.2888  0.0021
  233MOL0     C31374   4.109   8.347   8.477  0.8266 -0.5360  0.5695
  233MOL0     C31375   4.380   8.375   8.109  0.1810  0.2339  0.4653
  233MOL0     C31376   4.378   8.412   7.972  0.2429 -0.1751 -1.1704
  233MOL0     C31377   4.480   8.367   7.893 -0.6049  0.2517  0.3521
  233MOL0     C31378   4.589   8.284   7.947 -0.2230 -0.1295  1.1879
  233MOL0     O31379   4.690   8.224   7.870  0.7936 -0.1615 -0.1939
  233MOL0     C31380   4.678   8.214   7.728 -0.3535 -0.7524 -0.3262
  233MOL0     C31381   4.567   8.118   7.683  0.4024  0.8131 -0.4889
  233MOL0     C31382   4.593   7.969   7.744  0.2194  0.0132 -0.6228
  233MOL0     C31383   4.670   7.887   7.628 -0.6251 -0.6723 -0.1420
  233MOL0     C31384   4.676   7.756   7.680  0.2910  0.8094 -0.0362
  233MOL0     C31385   4.691   7.645   7.720 -0.3072  0.2783  0.2958
  233MOL0     C31386   4.590   8.260   8.079 -0.0652 -0.0076  0.0920
  233MOL0     C31387   4.486   8.297   8.160 -0.1611  0.2238  0.2058
  233MOL0     H31388   4.295   8.636   8.441 -1.9808  1.0496 -2.1415
  233MOL0     H31389   4.144   8.709   8.623 -1.5197 -0.6200 -0.7875
  233MOL0     H31390   3.809   8.579   8.876  0.7756 -0.7313  2.0136
  233MOL0     H31391   3.819   8.423   8.791 -2.4895  1.0503  2.8371
  233MOL0     H31392   4.057   8.396   8.869  2.8061 -0.1356  1.4490
  233MOL0     H31393   4.048   8.553   8.949 -1.7400  0.2537  0.9285
  233MOL0     H31394   3.859   8.438   9.094 -0.7320  0.6220 -0.8343
  233MOL0     H31395   3.883   8.295   8.983  0.1112  0.4046 -0.8674
  233MOL0     H31396   4.109   8.273   9.069 -1.0222  0.2313 -0.0790
  233MOL0     H31397   4.096   8.412   9.174  1.6493 -0.8892 -0.3718
  233MOL0     H31398   3.900   8.289   9.289 -0.0788  1.1643 -2.5224
  233MOL0     H31399   3.934   8.151   9.181 -1.2976  1.4840 -1.4913
  233MOL0     H31400   4.168   8.159   9.262  0.4075 -1.2821  0.2259
  233MOL0     H31401   4.128   8.273   9.379 -0.9706  1.9593 -2.3651
  233MOL0     H31402   4.098   8.090   9.530 -0.5871  0.0671 -0.0835
  233MOL0     H31403   3.949   8.076   9.440 -1.1279  0.5852 -3.3729
  233MOL0     H31404   4.106   7.952   9.263 -0.3146  1.0458  0.1904
  233MOL0     H31405   4.031   7.862   9.391  1.7024 -2.0673 -0.7669
  233MOL0     H31406   4.213   7.723   9.528  0.0108 -0.4791 -1.5486
  233MOL0     H31407   4.487   7.656   9.617 -0.4728  1.6755  1.1732
  233MOL0     H31408   4.459   7.585   9.457 -1.4262 -0.4379  1.1935
  233MOL0     H31409   4.675   7.802   9.497 -2.6101  0.6161  1.2695
  233MOL0     H31410   4.681   7.661   9.387 -1.9383 -0.9476 -0.3015
  233MOL0     H31411   4.695   7.521   9.599 -1.6072  0.8241  1.4732
  233MOL0     H31412   4.697   7.654   9.693  0.2200  1.0061 -0.3532
  233MOL0     H31413   4.900   7.749   9.601  1.3407 -0.1418 -0.1654
  233MOL0     H31414   4.884   7.633   9.463 -2.5109 -1.4423 -0.2609
  233MOL0     H31415   5.157   7.374   9.684  1.8451  1.1091 -2.7652
  233MOL0     H31416   5.307   7.096   9.493 -1.1218 -1.2661  0.0606
  233MOL0     H31417   5.324   7.204   9.636  1.6385 -0.3151 -0.9575
  233MOL0     H31418   5.218   7.064   9.642 -0.3805  1.9448  1.1516
  233MOL0     H31419   5.296   6.924   9.117 -2.1200  0.0212  0.4798
  233MOL0     H31420   5.375   6.692   9.062 -0.0524 -1.2939  0.1034
  233MOL0     H31421   5.338   6.489   9.024  0.4530  2.1780  1.7368
  233MOL0     H31422   5.468   6.408   9.102  0.5882  1.2234  1.1065
  233MOL0     H31423   5.350   6.271   8.979 -0.5086 -2.0748  0.4073
  233MOL0     H31424   5.351   6.220   9.150  1.2265  0.9979 -0.4129
  233MOL0     H31425   5.114   6.349   8.989 -0.0535 -0.1634 -1.1896
  233MOL0     H31426   5.098   6.301   9.165  0.4163 -2.0409  1.3405
  233MOL0     H31427   5.144   6.134   8.918  1.3304  3.0847  1.3009
  233MOL0     H31428   5.166   6.072   9.082 -0.5125 -1.8268 -0.9018
  233MOL0     H31429   4.910   6.179   8.957  0.8117 -1.8247 -2.1740
  233MOL0     H31430   4.921   6.155   9.133 -3.8589 -3.4310  0.6172
  233MOL0     H31431   4.818   5.968   8.993  1.0136 -2.2612 -0.0909
  233MOL0     H31432   4.979   5.944   8.928  0.7826  2.9107  0.3109
  233MOL0     H31433   4.852   5.850   9.175  0.6458  0.0224  3.4747
  233MOL0     H31434   4.953   5.980   9.212  0.8038  0.3904 -1.9597
  233MOL0     H31435   5.084   5.764   9.043  0.6157 -0.0908  0.2765
  233MOL0     H31436   5.023   5.698   9.194 -1.0030  0.0703 -0.6020
  233MOL0     H31437   5.179   6.544   9.404 -0.5577  1.6522  1.5682
  233MOL0     H31438   5.108   6.767   9.477  1.6020 -1.4624  1.6867
  233MOL0     H31439   4.887   7.238   9.296  0.9772 -0.4842  0.0860
  233MOL0     H31440   4.825   7.432   9.411  0.5456 -0.2641 -0.8209
  233MOL0     H31441   3.930   8.343   8.603  1.1368  1.1029  3.9716
  233MOL0     H31442   4.103   8.247   8.435  0.7818 -0.7907  1.1699
  233MOL0     H31443   4.300   8.479   7.938 -0.7651  1.8316  4.1750
  233MOL0     H31444   4.488   8.384   7.787 -0.8778  0.2080  0.3227
  233MOL0     H31445   4.662   8.309   7.676  1.0389 -0.4893 -0.3066
  233MOL0     H31446   4.780   8.188   7.701  0.9422  1.8883  1.6332
  233MOL0     H31447   4.562   8.117   7.574  1.3426 -1.6748 -0.5842
  233MOL0     H31448   4.470   8.148   7.723 -0.1495 -2.3936  0.8752
  233MOL0     H31449   4.498   7.921   7.770 -0.1540  1.5398  0.9881
  233MOL0     H31450   4.653   7.970   7.835  0.6043  2.3344 -0.8383
  233MOL0     H31451   4.768   7.934   7.617 -1.3435  1.6421  2.2463
  233MOL0     H31452   4.619   7.896   7.531  0.0773 -1.3665 -0.5914
  233MOL0     H31453   4.704   7.548   7.762 -0.7206 -0.2758 -0.8158
  233MOL0     H31454   4.672   8.202   8.119  0.1389 -1.6577 -2.4495
  233MOL0     H31455   4.487   8.268   8.265 -1.1471  1.2439  0.5157
  234MOL0     O31456  11.203   6.813   3.647  0.0416 -0.6452 -0.0444
  234MOL0     C31457  11.266   6.917   3.633  0.8024  0.1263  0.4159
  234MOL0     O31458  11.265   7.026   3.718 -0.1328 -0.2465  0.7333
  234MOL0     C31459  11.228   7.011   3.850  0.1359 -0.2933  0.7146
  234MOL0     C31460  11.232   6.891   3.932 -0.1802  0.2938  0.3251
  234MOL0     C31461  11.195   6.895   4.073 -0.4829  0.1455 -0.2817
  234MOL0     C31462  11.142   7.011   4.127 -0.6409 -0.8375  0.5793
  234MOL0     O31463  11.089   7.004   4.256 -0.4574 -0.0278 -0.1423
  234MOL0     C31464  11.034   7.121   4.320  0.1991  0.3220  0.2140
  234MOL0     C31465  10.897   7.165   4.273 -1.0587  0.0518  0.0876
  234MOL0     C31466  10.837   7.263   4.376 -0.0402  0.6725 -0.6460
  234MOL0     C31467  10.907   7.400   4.384  0.7345  0.1497  0.6048
  234MOL0     C31468  10.853   7.491   4.491  0.1339  0.2847 -0.9558
  234MOL0     C31469  10.950   7.587   4.546 -0.0827  0.0616  0.9419
  234MOL0     C31470  10.891   7.673   4.654  0.5075  0.0167  0.4983
  234MOL0     C31471  10.993   7.782   4.705 -1.0797 -0.0958  0.1967
  234MOL0     N31472  11.104   7.739   4.787  0.6325 -0.0313 -0.4909
  234MOL0     C31473  11.110   7.626   4.872  0.1669 -0.4956  1.1545
  234MOL0     C31474  11.220   7.648   4.953 -0.0073  0.3597  0.3671
  234MOL0     C31475  11.282   7.554   5.061 -1.1868  0.3719  1.1093
  234MOL0     C31476  11.422   7.505   5.026 -0.2514 -0.0501  0.0376
  234MOL0     C31477  11.492   7.435   5.151  0.1222 -0.0228  0.1629
  234MOL0     C31478  11.439   7.299   5.186  0.3949  1.5672 -0.7018
  234MOL0     O31479  11.496   7.196   5.106 -0.0423  0.1592 -0.0356
  234MOL0     C31480  11.469   7.064   5.144  0.5946 -0.2376  0.3580
  234MOL0     C31481  11.493   6.968   5.045  0.0732 -0.0419 -0.2118
  234MOL0     C31482  11.445   6.834   5.054 -0.8827  0.5485 -0.1761
  234MOL0     C31483  11.490   6.746   4.947  0.1437  0.1000  1.1485
  234MOL0     C31484  11.376   6.792   5.173 -0.9975  0.5766 -0.0648
  234MOL0     C31485  11.347   6.648   5.218 -0.7206  0.8072 -0.4113
  234MOL0     O31486  11.227   6.639   5.293 -0.6904  0.4191  0.2289
  234MOL0     C31487  11.211   6.513   5.344 -0.7958 -0.2349  0.9463
  234MOL0     C31488  11.101   6.430   5.311 -0.7776  0.2263 -0.7464
  234MOL0     C31489  11.096   6.295   5.360  0.0384  0.1892 -0.1853
  234MOL0     C31490  11.188   6.248   5.456  0.6604 -1.1228  0.1390
  234MOL0     O31491  11.180   6.116   5.491 -0.3654 -0.0845 -0.0496
  234MOL0     C31492  11.290   6.053   5.566 -1.0046 -0.3453 -0.1126
  234MOL0     C31493  11.272   5.900   5.576 -0.2125 -0.0240 -0.0931
  234MOL0     C31494  11.184   5.867   5.693 -0.0465 -0.2989  0.2147
  234MOL0     C31495  11.192   5.720   5.719  1.6501 -1.3566 -0.0244
  234MOL0     C31496  11.064   5.667   5.778  1.0884  0.3561  0.6467
  234MOL0     C31497  11.083   5.541   5.854 -0.8741 -0.1351 -0.3831
  234MOL0     C31498  10.964   5.446   5.884 -0.2446  0.0329 -1.0429
  234MOL0     C31499  10.984   5.330   5.972 -0.0789 -0.7517  0.1661
  234MOL0    Cl31500  10.824   5.260   5.993 -0.4490  0.6625 -0.0367
  234MOL0     C31501  11.282   6.338   5.498 -0.0957  0.0157  0.6620
  234MOL0     C31502  11.297   6.467   5.448  0.1688  0.4376 -1.1582
  234MOL0     O31503  11.428   6.559   5.199  1.0372  0.1060 -0.7522
  234MOL0     C31504  11.356   6.883   5.275 -1.0613  0.3055 -0.1208
  234MOL0     C31505  11.395   7.019   5.254  0.2040 -0.2558 -0.2585
  234MOL0     N31506  11.273   7.771   4.915  0.8285 -0.4442 -0.8747
  234MOL0     N31507  11.207   7.823   4.814 -0.3808  0.3976 -1.0573
  234MOL0     C31508  11.159   7.127   4.054 -0.4176 -0.7377  0.0210
  234MOL0     C31509  11.209   7.126   3.917  0.6209  0.1744 -1.0829
  234MOL0     C31510  11.342   6.936   3.513 -1.2093 -0.9327  0.8944
  234MOL0     C31511  11.375   6.843   3.411  0.2199  0.3141  0.5739
  234MOL0     C31512  11.449   6.876   3.299  0.9277  0.0480 -0.1619
  234MOL0     C31513  11.486   7.004   3.274 -0.4137 -0.2343 -0.0372
  234MOL0     O31514  11.551   7.038   3.149  0.3167 -0.1451 -1.1295
  234MOL0     C31515  11.684   6.991   3.145 -0.3805 -1.6093 -0.2665
  234MOL0     C31516  11.757   7.077   3.043 -0.4387  0.0345  0.2078
  234MOL0     C31517  11.877   6.999   2.980  0.8284 -0.0028  0.1999
  234MOL0     C31518  11.829   6.881   2.890 -0.0292  0.3123  0.1411
  234MOL0     C31519  11.919   6.836   2.783 -0.4665 -0.1471 -0.9119
  234MOL0     C31520  11.978   6.797   2.683 -0.7591 -0.5047 -0.4301
  234MOL0     C31521  11.443   7.106   3.364 -0.4058 -0.0165  0.6644
  234MOL0     C31522  11.377   7.074   3.482 -0.8344  0.6700 -0.8808
  234MOL0     H31523  11.254   6.795   3.887 -0.2996  1.7111 -3.0601
  234MOL0     H31524  11.198   6.804   4.132  2.6301  1.0897  1.2022
  234MOL0     H31525  11.035   7.102   4.428 -3.9966 -2.5831 -0.0233
  234MOL0     H31526  11.098   7.207   4.299  0.6185  1.4665  4.9878
  234MOL0     H31527  10.893   7.216   4.177 -3.6019  0.4640  0.3246
  234MOL0     H31528  10.840   7.073   4.258  1.7516 -1.6602 -0.7784
  234MOL0     H31529  10.736   7.277   4.335  0.3222 -2.2083 -2.8133
  234MOL0     H31530  10.818   7.212   4.471  1.8201 -1.0722 -1.1518
  234MOL0     H31531  11.016   7.401   4.394  0.8625  0.3323 -0.6465
  234MOL0     H31532  10.885   7.445   4.286 -1.8318  2.3567  2.0494
  234MOL0     H31533  10.764   7.545   4.458 -1.1087 -0.3434  1.1904
  234MOL0     H31534  10.818   7.432   4.576  3.5796  0.0225  0.4622
  234MOL0     H31535  11.032   7.525   4.582  1.0019  0.3117 -0.9410
  234MOL0     H31536  10.994   7.644   4.464  0.1714 -0.9717  0.3520
  234MOL0     H31537  10.791   7.708   4.629  0.3371 -0.9175 -0.1622
  234MOL0     H31538  10.876   7.605   4.738  0.1677 -0.7474 -0.1700
  234MOL0     H31539  10.930   7.854   4.759  0.0047  0.2051  1.0822
  234MOL0     H31540  11.040   7.835   4.623 -1.9075 -1.9718 -1.5755
  234MOL0     H31541  11.044   7.541   4.858  0.3658 -0.4026 -0.6291
  234MOL0     H31542  11.282   7.603   5.159 -1.2635 -0.5601  1.5855
  234MOL0     H31543  11.224   7.462   5.070 -1.0433  0.1843  0.2129
  234MOL0     H31544  11.483   7.592   5.000  0.0564 -0.9820 -2.7737
  234MOL0     H31545  11.432   7.446   4.934  3.7869  0.4424 -0.0205
  234MOL0     H31546  11.481   7.505   5.235  0.3320  0.6747 -0.3771
  234MOL0     H31547  11.600   7.430   5.134 -0.1117  0.6840 -1.8462
  234MOL0     H31548  11.332   7.295   5.166 -0.2224  2.8147  1.8422
  234MOL0     H31549  11.459   7.289   5.294 -0.9318 -1.5790 -0.6501
  234MOL0     H31550  11.560   6.978   4.961 -1.3839 -1.9239 -1.6837
  234MOL0     H31551  11.429   6.757   4.857 -1.4977  1.7008  2.3882
  234MOL0     H31552  11.597   6.761   4.926  0.7716 -2.1694  2.3867
  234MOL0     H31553  11.481   6.642   4.979  2.4676 -0.4461  0.2486
  234MOL0     H31554  11.027   6.464   5.239 -0.8678  0.3566 -0.5934
  234MOL0     H31555  11.030   6.215   5.327  1.0528 -0.4469 -0.7367
  234MOL0     H31556  11.382   6.075   5.512 -2.4612  1.3269 -2.0845
  234MOL0     H31557  11.299   6.098   5.665  0.8098 -0.6456 -0.1094
  234MOL0     H31558  11.242   5.864   5.477  0.2863  0.3356 -0.3773
  234MOL0     H31559  11.371   5.864   5.607  0.0928  1.5722  0.8995
  234MOL0     H31560  11.083   5.894   5.661  0.6742  1.1292 -0.9561
  234MOL0     H31561  11.205   5.928   5.782 -1.9479  0.9037 -0.1048
  234MOL0     H31562  11.220   5.662   5.631 -0.5270 -3.8914  0.7747
  234MOL0     H31563  11.276   5.707   5.788 -0.4759 -3.5067  2.3735
  234MOL0     H31564  10.976   5.670   5.712 -0.6766  0.8810  2.8783
  234MOL0     H31565  11.034   5.741   5.853 -0.0804 -2.1464  2.7763
  234MOL0     H31566  11.144   5.482   5.785  0.2617 -1.0182  1.3085
  234MOL0     H31567  11.136   5.566   5.946 -3.2228  0.2211  0.9744
  234MOL0     H31568  10.935   5.400   5.789  0.5532 -4.5512  0.6563
  234MOL0     H31569  10.884   5.509   5.924  0.7478  2.2882 -2.4456
  234MOL0     H31570  11.025   5.360   6.069  0.9830  0.4662 -0.6348
  234MOL0     H31571  11.058   5.268   5.922  3.0729  0.8776  2.4797
  234MOL0     H31572  11.362   6.310   5.566 -0.6979 -0.2114  1.2875
  234MOL0     H31573  11.378   6.529   5.485  2.2115 -3.2300  1.1986
  234MOL0     H31574  11.289   6.859   5.357 -3.3686 -2.5789 -2.5693
  234MOL0     H31575  11.375   7.089   5.334  0.8079 -0.1876 -0.1561
  234MOL0     H31576  11.133   7.228   4.083  0.4962 -0.0947 -1.2796
  234MOL0     H31577  11.207   7.213   3.852 -0.4917 -1.9002 -4.0159
  234MOL0     H31578  11.342   6.740   3.418  1.0362  0.1321  2.5350
  234MOL0     H31579  11.476   6.796   3.231  4.4513 -0.1089  1.2198
  234MOL0     H31580  11.741   6.998   3.238 -0.4802 -2.1696 -0.1638
  234MOL0     H31581  11.666   6.886   3.122 -1.7474 -1.9903  2.1810
  234MOL0     H31582  11.791   7.167   3.096 -3.2752  1.1922  0.2280
  234MOL0     H31583  11.684   7.107   2.968 -1.7470 -1.7563  0.6975
  234MOL0     H31584  11.941   6.965   3.062  1.9022  0.6092 -0.3514
  234MOL0     H31585  11.928   7.073   2.917  1.3152  2.1883  2.9619
  234MOL0     H31586  11.737   6.897   2.834 -0.0080 -1.3970 -0.4575
  234MOL0     H31587  11.815   6.793   2.954 -1.5463  1.8312  2.0061
  234MOL0     H31588  12.036   6.762   2.600  3.4352  2.0571  1.1035
  234MOL0     H31589  11.468   7.210   3.347  1.6731 -0.8502 -2.0074
  234MOL0     H31590  11.354   7.159   3.546  2.1869  0.8525  0.1352
  235MOL0     O31591   4.707   8.240   3.960 -0.6826 -0.4234 -0.4503
  235MOL0     C31592   4.662   8.147   3.895  0.5515  0.7140  0.2921
  235MOL0     O31593   4.567   8.156   3.808 -0.1103 -0.2025 -0.1068
  235MOL0     C31594   4.507   8.277   3.775  1.0211  0.3103 -0.0646
  235MOL0     C31595   4.452   8.366   3.878  0.0880 -0.6981 -0.2544
  235MOL0     C31596   4.367   8.462   3.828 -0.6032 -0.1111 -0.0614
  235MOL0     C31597   4.330   8.484   3.691 -0.3029  0.1745 -0.0318
  235MOL0     O31598   4.243   8.568   3.637  0.4773 -0.2552  0.7729
  235MOL0     C31599   4.101   8.547   3.660 -0.2140  0.2654 -0.0975
  235MOL0     C31600   4.028   8.657   3.583  0.9391  0.4522 -0.1041
  235MOL0     C31601   4.043   8.638   3.433 -0.2341  0.5481 -0.8700
  235MOL0     C31602   3.948   8.541   3.370 -0.2471  0.8948  0.6848
  235MOL0     C31603   3.939   8.536   3.219 -0.0364 -0.0964  0.6501
  235MOL0     C31604   3.835   8.622   3.161  0.7950 -0.7572  0.4571
  235MOL0     C31605   3.842   8.650   3.011 -0.8885  0.3480  1.0280
  235MOL0     C31606   3.741   8.757   2.966  0.4342  0.8578 -0.5962
  235MOL0     N31607   3.755   8.789   2.821 -0.2817 -0.1151 -0.6127
  235MOL0     C31608   3.856   8.866   2.781  1.0495 -0.1943  0.6132
  235MOL0     C31609   3.824   8.891   2.644  0.0938 -0.5230  0.3158
  235MOL0     C31610   3.897   8.970   2.540 -0.0233 -0.1365  1.1425
  235MOL0     C31611   3.888   9.125   2.578  0.1882 -0.2639 -0.4380
  235MOL0     C31612   3.967   9.217   2.486  0.0980  0.5693  0.5305
  235MOL0     C31613   3.976   9.356   2.551 -0.2993  0.6682  0.4567
  235MOL0     O31614   3.842   9.399   2.576  0.7238  0.4265  0.1614
  235MOL0     C31615   3.809   9.521   2.533 -0.2310 -0.0766 -0.0825
  235MOL0     C31616   3.828   9.641   2.597 -0.8210  0.5139  1.0869
  235MOL0     C31617   3.808   9.764   2.535 -0.7391 -0.2081  0.5243
  235MOL0     C31618   3.837   9.891   2.615  0.4822  0.4286  0.2961
  235MOL0     C31619   3.761   9.767   2.396 -0.1073  0.1869 -0.3112
  235MOL0     C31620   3.736   9.889   2.306  0.4986 -0.2714 -0.2352
  235MOL0     O31621   3.697   9.865   2.175  0.1557  0.5319  0.0131
  235MOL0     C31622   3.709   9.950   2.061 -0.5939 -0.4219 -0.2292
  235MOL0     C31623   3.665   9.898   1.944  0.3918  0.0275  0.4353
  235MOL0     C31624   3.677   9.974   1.819 -0.4868 -0.2442 -0.0574
  235MOL0     C31625   3.713  10.106   1.828  0.2598 -0.0902  0.0951
  235MOL0     O31626   3.727  10.197   1.719 -0.3412  0.0827 -0.1001
  235MOL0     C31627   3.654  10.324   1.730 -0.4312 -0.2900 -0.1552
  235MOL0     C31628   3.564  10.324   1.603  0.8201  0.3736 -0.1674
  235MOL0     C31629   3.491  10.462   1.606 -0.4621  0.0238 -0.7150
  235MOL0     C31630   3.424  10.508   1.470 -0.3348 -0.7783 -0.2500
  235MOL0     C31631   3.282  10.457   1.460  0.0186 -0.5549  0.3629
  235MOL0     C31632   3.226  10.456   1.320  0.0692 -0.4120 -0.1255
  235MOL0     C31633   3.077  10.427   1.314 -0.9208  0.3710 -0.0511
  235MOL0     C31634   3.033  10.437   1.163 -0.0146  0.5445 -0.2864
  235MOL0    Cl31635   2.858  10.487   1.147  0.2703  0.2039  0.6698
  235MOL0     C31636   3.737  10.165   1.954 -0.3661 -0.0630  0.8236
  235MOL0     C31637   3.741  10.084   2.070  0.3189  0.1799 -0.3069
  235MOL0     O31638   3.786   9.999   2.338 -0.6317 -0.1356 -0.1014
  235MOL0     C31639   3.734   9.648   2.336  0.1573 -0.7880 -0.5666
  235MOL0     C31640   3.757   9.528   2.401 -0.5350  0.3030 -0.1522
  235MOL0     N31641   3.697   8.845   2.624  0.0900 -0.3330  0.3299
  235MOL0     N31642   3.654   8.783   2.731  0.5866  0.5065 -1.1348
  235MOL0     C31643   4.389   8.391   3.605 -0.7395 -0.3525  0.0780
  235MOL0     C31644   4.476   8.288   3.644  0.2079 -1.0959  0.2807
  235MOL0     C31645   4.709   8.010   3.937  0.2796 -0.4400 -0.5768
  235MOL0     C31646   4.834   7.989   3.992  0.3982  0.1934 -0.5601
  235MOL0     C31647   4.874   7.863   4.036 -0.4634 -0.0962  0.1778
  235MOL0     C31648   4.790   7.755   4.037  0.7347 -0.6479  0.4422
  235MOL0     O31649   4.812   7.632   4.090 -0.5322  0.3505 -0.4707
  235MOL0     C31650   4.951   7.587   4.125  0.0090  1.4106  0.4853
  235MOL0     C31651   5.026   7.554   3.996  0.6628 -0.1366  0.0327
  235MOL0     C31652   5.169   7.595   3.992  0.0077 -0.3705  0.3798
  235MOL0     C31653   5.262   7.537   3.892 -0.5314  1.2202 -0.2479
  235MOL0     C31654   5.198   7.504   3.772  0.4450 -0.0893 -0.1315
  235MOL0     C31655   5.141   7.480   3.665 -0.1532  0.2128  0.1165
  235MOL0     C31656   4.666   7.775   3.981  0.6447 -0.1282  1.1188
  235MOL0     C31657   4.620   7.894   3.922 -0.5507 -0.1208 -1.0370
  235MOL0     H31658   4.474   8.365   3.984 -1.7094 -0.6063  0.1489
  235MOL0     H31659   4.317   8.525   3.901 -1.5438  0.0305 -0.8100
  235MOL0     H31660   4.072   8.451   3.617 -1.9819  1.2059 -1.1198
  235MOL0     H31661   4.078   8.550   3.767  1.7725 -1.6019  0.4443
  235MOL0     H31662   3.924   8.655   3.616  1.2871 -1.5886  1.0219
  235MOL0     H31663   4.071   8.753   3.612  0.4260  0.6464  0.0186
  235MOL0     H31664   4.033   8.733   3.380 -0.2045 -0.5115 -2.8612
  235MOL0     H31665   4.147   8.607   3.419 -0.0806 -0.3513  1.6819
  235MOL0     H31666   3.978   8.441   3.401  3.6733  0.7587 -2.6832
  235MOL0     H31667   3.850   8.547   3.417  0.0466 -0.6959  1.5455
  235MOL0     H31668   4.036   8.570   3.182 -0.5260  1.0428  0.3621
  235MOL0     H31669   3.916   8.434   3.188 -0.3958 -0.1588  1.1080
  235MOL0     H31670   3.738   8.580   3.190 -2.7334  3.2372 -4.0621
  235MOL0     H31671   3.844   8.723   3.202  4.6598 -1.2850  1.2598
  235MOL0     H31672   3.943   8.683   2.982 -1.7615  1.0373 -1.5068
  235MOL0     H31673   3.816   8.557   2.959 -2.9868  0.8339  1.1216
  235MOL0     H31674   3.751   8.849   3.025  1.6143  0.2804  0.1348
  235MOL0     H31675   3.643   8.714   2.990  1.8788 -3.1191 -1.1718
  235MOL0     H31676   3.944   8.900   2.836  0.7155  1.9686 -0.1244
  235MOL0     H31677   4.002   8.940   2.545  0.3077  0.7277 -0.1138
  235MOL0     H31678   3.847   8.954   2.444 -0.9201  0.3963  1.5030
  235MOL0     H31679   3.925   9.134   2.680 -0.9879  0.4291 -0.0584
  235MOL0     H31680   3.784   9.158   2.566  0.2270  0.0412  0.0426
  235MOL0     H31681   3.913   9.236   2.393 -0.6386  3.1946  1.4035
  235MOL0     H31682   4.064   9.172   2.464 -0.3103  0.0392 -0.2206
  235MOL0     H31683   4.037   9.415   2.482  0.1691  1.0213  1.1574
  235MOL0     H31684   4.027   9.346   2.648  0.3301 -0.3538  0.0405
  235MOL0     H31685   3.868   9.634   2.698 -1.5201  1.8452  1.4809
  235MOL0     H31686   3.852   9.884   2.723  1.1503  0.7361  0.2328
  235MOL0     H31687   3.925   9.946   2.578  1.6823 -2.0177 -0.7393
  235MOL0     H31688   3.748   9.952   2.597 -1.3910 -2.9938 -3.6786
  235MOL0     H31689   3.616   9.802   1.926  1.5447 -0.7153  1.1208
  235MOL0     H31690   3.635   9.947   1.723 -3.3555 -1.7704  1.4870
  235MOL0     H31691   3.602  10.330   1.825 -0.3724  1.3650 -0.1997
  235MOL0     H31692   3.716  10.414   1.725  0.9336 -1.0901  1.3687
  235MOL0     H31693   3.612  10.302   1.507  0.2209 -3.3371  0.2362
  235MOL0     H31694   3.490  10.244   1.617 -0.6167  1.3217 -1.8969
  235MOL0     H31695   3.576  10.531   1.618  1.0749 -1.7675 -0.7695
  235MOL0     H31696   3.421  10.462   1.690  2.2051 -0.6519  1.6918
  235MOL0     H31697   3.418  10.616   1.456 -1.5329 -0.9986 -1.6422
  235MOL0     H31698   3.480  10.469   1.385  1.8168  2.9297 -0.7516
  235MOL0     H31699   3.211  10.517   1.518  0.0690 -1.9337  1.9162
  235MOL0     H31700   3.266  10.356   1.498  1.0165 -3.0093 -4.7401
  235MOL0     H31701   3.236  10.558   1.282  3.4194 -1.4714 -2.5627
  235MOL0     H31702   3.284  10.388   1.257  0.9245 -1.2957  1.5160
  235MOL0     H31703   3.040  10.509   1.376  2.2410  2.1192 -0.2961
  235MOL0     H31704   3.042  10.334   1.361 -1.6297  0.6847  0.0635
  235MOL0     H31705   3.055  10.343   1.111  0.3385 -0.3176  1.3579
  235MOL0     H31706   3.098  10.510   1.113 -0.9444 -0.3037 -2.9012
  235MOL0     H31707   3.747  10.273   1.952 -0.2993  0.0149 -3.1554
  235MOL0     H31708   3.766  10.139   2.161 -0.2486 -0.4244  0.2251
  235MOL0     H31709   3.689   9.638   2.238 -1.1258  1.9802 -0.3494
  235MOL0     H31710   3.740   9.441   2.338 -4.5526  0.5759  0.2885
  235MOL0     H31711   4.366   8.410   3.500 -1.0659  3.3377  0.6781
  235MOL0     H31712   4.511   8.215   3.572  2.0947  1.2341 -1.3387
  235MOL0     H31713   4.909   8.066   4.005  0.4083  0.1567 -0.3965
  235MOL0     H31714   4.980   7.859   4.056  0.7364  3.2934 -3.9809
  235MOL0     H31715   5.003   7.675   4.165  0.1901  1.2504  0.5993
  235MOL0     H31716   4.950   7.499   4.189 -1.1840  0.0302 -1.3283
  235MOL0     H31717   4.980   7.595   3.906  1.7990  0.9640 -0.0854
  235MOL0     H31718   5.017   7.447   3.978  0.0334 -0.0969  0.0871
  235MOL0     H31719   5.219   7.575   4.087  1.5485 -1.1875 -0.5662
  235MOL0     H31720   5.159   7.704   3.978 -0.7572 -0.3832  0.7495
  235MOL0     H31721   5.308   7.445   3.931 -1.3957  0.8866 -0.0023
  235MOL0     H31722   5.342   7.604   3.858  0.2511 -1.2416 -3.7743
  235MOL0     H31723   5.112   7.447   3.567  0.5425  2.2480 -0.8261
  235MOL0     H31724   4.594   7.694   3.979 -1.1021  1.3653 -0.3912
  235MOL0     H31725   4.519   7.898   3.882 -0.7107  0.8254 -0.5648
  236MOL0     O31726   1.192   4.063   7.672 -0.2900 -0.2866  0.5063
  236MOL0     C31727   1.115   4.119   7.597  0.3260  0.7573 -0.3344
  236MOL0     O31728   1.123   4.250   7.552 -0.4400 -0.0456  0.3578
  236MOL0     C31729   1.236   4.336   7.571  0.3971 -0.5511 -0.2846
  236MOL0     C31730   1.219   4.472   7.546  0.8310 -0.1337  0.7253
  236MOL0     C31731   1.318   4.558   7.549 -0.0862 -0.0224 -0.2691
  236MOL0     C31732   1.448   4.524   7.584 -0.0159 -0.3549 -0.3905
  236MOL0     O31733   1.545   4.619   7.589  0.2088  0.0992 -0.1271
  236MOL0     C31734   1.630   4.625   7.700  0.0419  0.2895 -0.4152
  236MOL0     C31735   1.714   4.751   7.691  0.8025  1.0596  0.3516
  236MOL0     C31736   1.869   4.728   7.696  0.4831  0.0694  0.3620
  236MOL0     C31737   1.936   4.872   7.720 -0.1619 -1.8204  0.3438
  236MOL0     C31738   2.073   4.851   7.767  0.2162 -0.0601  0.1653
  236MOL0     C31739   2.074   4.866   7.923  0.5097 -0.9022  0.1943
  236MOL0     C31740   2.203   4.816   7.995 -0.2930  0.5019 -0.0698
  236MOL0     C31741   2.219   4.666   8.001  0.5579 -0.3886  1.0354
  236MOL0     N31742   2.113   4.589   8.071 -0.7940 -0.1138  0.0129
  236MOL0     C31743   2.036   4.494   8.010 -0.7164 -0.5023  0.1478
  236MOL0     C31744   1.959   4.435   8.108  0.4449 -0.6460 -0.9971
  236MOL0     C31745   1.858   4.319   8.086 -0.0635  0.2412  0.4340
  236MOL0     C31746   1.733   4.377   8.042  0.2335 -0.3091 -0.0181
  236MOL0     C31747   1.642   4.263   8.032  0.0297  0.4148 -1.1800
  236MOL0     C31748   1.504   4.307   7.983 -0.0595  0.0942 -0.4770
  236MOL0     O31749   1.429   4.193   8.029  0.6196  0.0871  0.2931
  236MOL0     C31750   1.294   4.177   8.041 -0.1053  0.1465  0.3997
  236MOL0     C31751   1.206   4.248   7.957 -0.1137  0.9249  0.4299
  236MOL0     C31752   1.066   4.230   7.964  0.7732  1.0895 -0.4721
  236MOL0     C31753   0.990   4.289   7.852  0.0263 -0.0806  0.2655
  236MOL0     C31754   1.007   4.155   8.068 -0.0767  0.9111 -0.2181
  236MOL0     C31755   0.861   4.126   8.094  1.1684  0.0843  0.3823
  236MOL0     O31756   0.769   4.208   8.017 -0.2942 -0.3440 -0.4255
  236MOL0     C31757   0.634   4.201   8.051  0.3359  0.4063  0.5720
  236MOL0     C31758   0.566   4.089   8.091  1.1317  0.1483  0.2007
  236MOL0     C31759   0.426   4.093   8.105 -0.8496  0.7703  0.4251
  236MOL0     C31760   0.354   4.202   8.078  0.2637 -0.1163  0.0409
  236MOL0     O31761   0.216   4.201   8.091 -0.3368  0.7945  0.0008
  236MOL0     C31762   0.152   4.330   8.099 -0.0411 -0.0310 -0.2960
  236MOL0     C31763   0.209   4.420   8.211  0.5731 -0.3729  0.4355
  236MOL0     C31764   0.108   4.531   8.232 -0.8912  0.9283 -0.0428
  236MOL0     C31765   0.165   4.630   8.326  0.5053 -0.4538 -0.7659
  236MOL0     C31766   0.258   4.740   8.272  0.3160  0.0700  0.1315
  236MOL0     C31767   0.214   4.807   8.137 -0.0848 -0.0209  0.2016
  236MOL0     C31768   0.071   4.845   8.108 -1.0768 -0.4488  0.0177
  236MOL0     C31769   0.070   4.973   8.036  0.1562 -0.4908 -0.1776
  236MOL0    Cl31770   0.102   5.100   8.160 -0.0568 -0.1015  0.2317
  236MOL0     C31771   0.421   4.318   8.016 -0.2923 -0.0796 -0.4246
  236MOL0     C31772   0.562   4.314   8.015 -0.0616 -0.3840  1.2195
  236MOL0     O31773   0.834   4.041   8.178  0.2819  0.2274 -0.8034
  236MOL0     C31774   1.098   4.084   8.149 -0.5773  1.3793  0.5480
  236MOL0     C31775   1.243   4.095   8.142 -0.1110  0.2130  0.5271
  236MOL0     N31776   1.989   4.494   8.227 -0.0374  0.1460 -0.1372
  236MOL0     N31777   2.079   4.584   8.202 -0.2972  0.0554 -0.6218
  236MOL0     C31778   1.477   4.385   7.610 -0.0753  1.0217 -0.9077
  236MOL0     C31779   1.370   4.295   7.602 -0.5287 -0.0889 -0.2795
  236MOL0     C31780   0.993   4.039   7.561 -0.3183  1.0462 -0.5068
  236MOL0     C31781   1.002   3.899   7.545  0.5365  0.3124  0.1758
  236MOL0     C31782   0.896   3.822   7.500 -0.0570  0.3099 -1.0869
  236MOL0     C31783   0.776   3.878   7.452 -1.2780  0.7346 -1.2631
  236MOL0     O31784   0.673   3.805   7.389  0.2130 -0.2881  0.4690
  236MOL0     C31785   0.603   3.887   7.280 -0.1116  0.9039  0.9472
  236MOL0     C31786   0.544   3.787   7.171  0.4814  0.5833 -0.6124
  236MOL0     C31787   0.427   3.843   7.084 -0.0783 -0.3343 -0.9383
  236MOL0     C31788   0.408   3.750   6.960 -1.1068  0.1774 -1.0895
  236MOL0     C31789   0.282   3.775   6.879  0.5926  0.4261  0.1427
  236MOL0     C31790   0.167   3.771   6.830 -0.6940 -0.0668 -0.1447
  236MOL0     C31791   0.767   4.018   7.470  0.9533  0.0969 -0.0837
  236MOL0     C31792   0.872   4.096   7.520  0.0515 -0.4390 -0.3085
  236MOL0     H31793   1.126   4.521   7.516  1.4397  0.5064 -0.1663
  236MOL0     H31794   1.297   4.662   7.522 -2.1599 -1.4532 -5.4164
  236MOL0     H31795   1.573   4.633   7.794 -1.3740 -2.8090 -0.8694
  236MOL0     H31796   1.687   4.533   7.715 -1.4432 -0.5553  0.3330
  236MOL0     H31797   1.682   4.797   7.597 -1.2375 -0.5807  0.1611
  236MOL0     H31798   1.680   4.811   7.775 -4.5745 -0.3940 -0.3992
  236MOL0     H31799   1.916   4.662   7.770  3.2473 -0.6693 -1.8441
  236MOL0     H31800   1.906   4.686   7.601 -1.4418  3.2666 -2.0054
  236MOL0     H31801   1.940   4.924   7.624  0.0187  0.3335  1.4559
  236MOL0     H31802   1.876   4.937   7.784  0.6844 -0.7512  0.0766
  236MOL0     H31803   2.109   4.749   7.749 -0.7127 -0.6278  1.3784
  236MOL0     H31804   2.149   4.918   7.724  1.2466 -0.1087  1.8144
  236MOL0     H31805   2.063   4.973   7.940  0.1416 -1.4867  4.7529
  236MOL0     H31806   1.988   4.813   7.965  0.5768  1.3210  3.5292
  236MOL0     H31807   2.294   4.860   7.954  0.0918 -0.1686  0.0609
  236MOL0     H31808   2.219   4.854   8.096 -2.2109  0.8282  0.1452
  236MOL0     H31809   2.312   4.641   8.052  0.4472 -1.5716  0.6903
  236MOL0     H31810   2.244   4.632   7.900 -1.1456 -1.7783  1.0278
  236MOL0     H31811   2.030   4.470   7.904 -0.4558  0.5433 -0.1171
  236MOL0     H31812   1.893   4.239   8.020  0.7457  0.5824  0.4368
  236MOL0     H31813   1.837   4.265   8.179  0.2586  2.3104  1.7763
  236MOL0     H31814   1.756   4.415   7.942  0.4079  0.4618  0.3082
  236MOL0     H31815   1.689   4.459   8.098  0.4804  0.0021 -0.2699
  236MOL0     H31816   1.618   4.218   8.128 -1.5403  1.3623 -1.0909
  236MOL0     H31817   1.683   4.187   7.965 -1.1728  0.4652 -2.0030
  236MOL0     H31818   1.494   4.310   7.874  0.2424 -1.0809 -0.5470
  236MOL0     H31819   1.481   4.398   8.039 -1.3169  0.8800 -2.1968
  236MOL0     H31820   1.248   4.304   7.874 -1.2634 -0.0892 -0.8761
  236MOL0     H31821   1.060   4.298   7.768  0.4581 -1.9395  0.3724
  236MOL0     H31822   0.923   4.214   7.810  0.0509  0.8826 -1.5890
  236MOL0     H31823   0.945   4.380   7.891 -1.2701 -0.4343 -0.3429
  236MOL0     H31824   0.614   3.994   8.115 -0.0907 -1.1943 -2.2333
  236MOL0     H31825   0.377   4.004   8.146  3.2540 -2.2939 -0.6953
  236MOL0     H31826   0.145   4.393   8.009  1.6839  2.3218  1.0841
  236MOL0     H31827   0.045   4.322   8.120  0.2009 -0.2087  0.9518
  236MOL0     H31828   0.205   4.356   8.300  0.1522 -2.7061 -1.1885
  236MOL0     H31829   0.308   4.463   8.196  0.8258 -0.7502  0.9775
  236MOL0     H31830   0.027   4.474   8.278  0.1917 -3.6049 -3.1276
  236MOL0     H31831   0.071   4.580   8.141  1.3166  4.6970  0.8604
  236MOL0     H31832   0.071   4.680   8.352  1.2584  0.6809 -0.1440
  236MOL0     H31833   0.219   4.577   8.405  2.6710 -2.6035 -3.4771
  236MOL0     H31834   0.351   4.685   8.256  0.4168  0.3139 -0.1362
  236MOL0     H31835   0.293   4.817   8.342 -2.3915 -0.6402  2.4590
  236MOL0     H31836   0.272   4.900   8.130  0.8029 -0.4390  1.5554
  236MOL0     H31837   0.257   4.750   8.055  2.0175  2.0233 -0.2131
  236MOL0     H31838   0.020   4.854   8.205 -2.9700 -0.3527 -0.9382
  236MOL0     H31839   0.026   4.765   8.049  1.7019 -1.0873 -1.3965
  236MOL0     H31840  -0.032   4.994   8.003  0.3085 -0.0421 -0.3651
  236MOL0     H31841   0.141   4.973   7.953  0.5117  0.4726  0.1152
  236MOL0     H31842   0.366   4.403   7.977 -1.8334 -2.4367 -3.9267
  236MOL0     H31843   0.615   4.400   7.974  0.1884 -0.5946  1.0945
  236MOL0     H31844   1.071   4.011   8.224 -2.3086  0.6450 -0.7185
  236MOL0     H31845   1.308   4.034   8.204  2.1625  3.4715  1.6548
  236MOL0     H31846   1.580   4.354   7.623  0.3461  2.8910  0.5420
  236MOL0     H31847   1.392   4.189   7.604  1.6592  0.3189 -0.3082
  236MOL0     H31848   1.090   3.841   7.571  0.5057 -0.6373 -1.6221
  236MOL0     H31849   0.920   3.719   7.477  2.3058  0.7182 -0.6255
  236MOL0     H31850   0.541   3.965   7.326 -0.1453  1.5415 -0.1603
  236MOL0     H31851   0.681   3.935   7.221  3.5627 -4.9356  0.1749
  236MOL0     H31852   0.500   3.697   7.213  0.3986  0.4448 -0.9868
  236MOL0     H31853   0.634   3.760   7.115  1.5436 -2.4222  2.2631
  236MOL0     H31854   0.440   3.942   7.040 -0.2353  1.3087  2.3760
  236MOL0     H31855   0.334   3.842   7.142  1.1247 -2.6867  1.1218
  236MOL0     H31856   0.410   3.646   6.994  0.3988  1.1758  2.3652
  236MOL0     H31857   0.489   3.762   6.887 -1.9219  0.4888 -1.9563
  236MOL0     H31858   0.064   3.771   6.799 -1.5721  0.5064  2.5474
  236MOL0     H31859   0.681   4.076   7.436  0.9303  3.1674  4.3185
  236MOL0     H31860   0.854   4.202   7.533  0.8972 -0.3087 -0.1441
  237MOL0     O31861   4.043   7.227   7.104 -0.5840  0.5523 -0.2257
  237MOL0     C31862   4.155   7.232   7.157 -0.2533  1.6637 -0.9654
  237MOL0     O31863   4.182   7.233   7.291 -0.0157 -0.3398 -0.2799
  237MOL0     C31864   4.081   7.190   7.377  0.5602 -0.1814 -0.5136
  237MOL0     C31865   4.051   7.270   7.485 -0.3844 -0.0628  0.2825
  237MOL0     C31866   3.963   7.230   7.577 -0.3672 -0.5430  1.8652
  237MOL0     C31867   3.880   7.117   7.557  0.7356  0.1389 -0.0146
  237MOL0     O31868   3.774   7.079   7.634 -0.0526  0.6238 -0.2400
  237MOL0     C31869   3.706   7.171   7.728 -0.2556 -1.2865  0.0603
  237MOL0     C31870   3.651   7.294   7.658  0.6333  0.4615  0.3259
  237MOL0     C31871   3.550   7.381   7.739  1.1016  0.8656 -0.0104
  237MOL0     C31872   3.461   7.448   7.635  0.5488 -1.2576 -0.5454
  237MOL0     C31873   3.537   7.541   7.554 -0.4869 -0.0339 -0.0197
  237MOL0     C31874   3.457   7.651   7.481  1.4868  0.6263  0.5681
  237MOL0     C31875   3.321   7.597   7.419 -0.4524 -0.1434  0.1048
  237MOL0     C31876   3.237   7.714   7.375 -0.2019  0.5762  0.6023
  237MOL0     N31877   3.310   7.824   7.305  0.9959 -0.1121  0.3683
  237MOL0     C31878   3.359   7.938   7.363 -0.7992  0.6015  0.5581
  237MOL0     C31879   3.424   8.011   7.262 -0.5198  0.3022 -0.5233
  237MOL0     C31880   3.508   8.131   7.292 -0.1666 -0.4550  0.0206
  237MOL0     C31881   3.439   8.221   7.387  0.2667  0.0607 -1.2273
  237MOL0     C31882   3.292   8.275   7.354  0.1902  0.5233 -0.6741
  237MOL0     C31883   3.286   8.382   7.249  0.4419 -0.3395  0.4872
  237MOL0     O31884   3.143   8.417   7.214  0.2163  0.4777  0.0141
  237MOL0     C31885   3.067   8.332   7.134  0.2854 -0.6628 -0.7786
  237MOL0     C31886   2.940   8.374   7.104  0.3310 -0.4799  0.6627
  237MOL0     C31887   2.866   8.306   7.006  1.5404 -0.1583 -0.4544
  237MOL0     C31888   2.724   8.358   6.977  0.6061 -0.1098  0.6215
  237MOL0     C31889   2.916   8.188   6.953 -0.4712  0.0492  0.8167
  237MOL0     C31890   2.841   8.096   6.866  0.4603  0.0826 -0.7211
  237MOL0     O31891   2.822   7.971   6.917  0.4291  0.7611  0.2080
  237MOL0     C31892   2.764   7.870   6.835  0.1367 -0.0484  0.5252
  237MOL0     C31893   2.842   7.818   6.742 -0.6779  0.4027 -0.7765
  237MOL0     C31894   2.795   7.715   6.649 -1.0977 -1.1560  0.6123
  237MOL0     C31895   2.666   7.657   6.662 -0.5951 -0.6882  0.4131
  237MOL0     O31896   2.615   7.574   6.575  0.9871  0.1238 -0.1234
  237MOL0     C31897   2.705   7.462   6.542  0.3662 -0.1378  0.5550
  237MOL0     C31898   2.621   7.371   6.453  0.2052  0.2273  0.1823
  237MOL0     C31899   2.586   7.425   6.316  0.0077 -0.2500 -0.5087
  237MOL0     C31900   2.710   7.432   6.216  0.2742 -0.2145  0.1704
  237MOL0     C31901   2.691   7.377   6.072 -0.7376  0.2466 -0.3538
  237MOL0     C31902   2.582   7.444   5.988  0.1513  0.1717  0.7864
  237MOL0     C31903   2.628   7.577   5.920  0.2657  0.0389  0.7553
  237MOL0     C31904   2.607   7.687   6.014  0.5297  0.0192  0.2311
  237MOL0    Cl31905   2.582   7.835   5.905 -0.1988 -0.0820  0.5175
  237MOL0     C31906   2.580   7.710   6.761  0.0994 -1.2885 -0.7272
  237MOL0     C31907   2.629   7.816   6.848 -0.4536 -0.2787  0.6737
  237MOL0     O31908   2.786   8.149   6.766 -0.0647 -0.3494 -0.7962
  237MOL0     C31909   3.046   8.149   6.979 -1.3734  0.7994 -0.8512
  237MOL0     C31910   3.125   8.216   7.069  0.0289 -0.4971 -0.3193
  237MOL0     N31911   3.397   7.943   7.147 -0.2970 -0.1741  0.3285
  237MOL0     N31912   3.335   7.834   7.166 -0.5248  0.1781  0.3564
  237MOL0     C31913   3.909   7.031   7.450  0.0393 -0.0090 -0.9291
  237MOL0     C31914   4.014   7.066   7.360 -0.5601 -0.0149 -0.3548
  237MOL0     C31915   4.276   7.258   7.070 -0.4870  0.1507  0.1005
  237MOL0     C31916   4.404   7.285   7.118 -0.1157  0.0631 -0.0995
  237MOL0     C31917   4.520   7.309   7.035 -0.1898  0.8287 -0.4797
  237MOL0     C31918   4.504   7.316   6.900  0.3288  0.6291  0.5471
  237MOL0     O31919   4.600   7.343   6.808 -0.3414 -0.2291  0.4226
  237MOL0     C31920   4.731   7.379   6.851  0.1353 -0.2929  0.5592
  237MOL0     C31921   4.729   7.525   6.920  0.3788 -1.2866 -0.4383
  237MOL0     C31922   4.856   7.540   7.006  0.6549 -0.5915  0.0687
  237MOL0     C31923   4.889   7.687   7.038 -0.3071  0.2419  0.1160
  237MOL0     C31924   4.795   7.747   7.140 -0.7800  0.1438  0.4454
  237MOL0     C31925   4.712   7.793   7.216  0.2841  0.3292 -0.4381
  237MOL0     C31926   4.377   7.298   6.846 -0.0181 -0.2799 -0.1300
  237MOL0     C31927   4.264   7.267   6.934 -0.0892  1.2003 -0.1257
  237MOL0     H31928   4.106   7.362   7.504  0.1079 -0.1235 -0.7960
  237MOL0     H31929   3.967   7.288   7.669 -0.8953 -0.8306  2.0769
  237MOL0     H31930   3.621   7.114   7.768 -0.9430 -0.0270  0.4480
  237MOL0     H31931   3.768   7.205   7.812 -1.1986 -3.9921  2.0049
  237MOL0     H31932   3.736   7.351   7.619  2.0606 -1.9078 -0.1790
  237MOL0     H31933   3.600   7.253   7.570  1.0609 -3.1411  1.5946
  237MOL0     H31934   3.489   7.331   7.815  1.5645  3.1070  1.9458
  237MOL0     H31935   3.600   7.463   7.792  0.1036  0.0772  2.2765
  237MOL0     H31936   3.418   7.367   7.574 -0.0694 -1.3680  0.0321
  237MOL0     H31937   3.391   7.501   7.700  0.9615 -0.0047 -1.0963
  237MOL0     H31938   3.615   7.592   7.611  0.6060  1.2040 -2.4981
  237MOL0     H31939   3.594   7.487   7.478  1.1321  1.5486  0.0253
  237MOL0     H31940   3.410   7.718   7.554 -2.4325 -1.3622  0.1733
  237MOL0     H31941   3.514   7.706   7.405 -2.2793  1.7581 -1.7559
  237MOL0     H31942   3.347   7.532   7.335  1.6336  0.8911 -0.1206
  237MOL0     H31943   3.263   7.549   7.498 -2.6694 -0.1203 -1.3946
  237MOL0     H31944   3.180   7.759   7.457 -0.8459  1.0424 -0.0837
  237MOL0     H31945   3.161   7.671   7.309 -0.9742  2.0368  0.4935
  237MOL0     H31946   3.363   7.961   7.469  1.3705 -2.1296  1.1792
  237MOL0     H31947   3.605   8.110   7.339  1.7095  2.7497 -2.0816
  237MOL0     H31948   3.545   8.168   7.196  1.1460 -2.7831 -0.4638
  237MOL0     H31949   3.507   8.305   7.405  2.6730 -1.9607 -0.2167
  237MOL0     H31950   3.435   8.170   7.484  3.0002 -1.8028 -1.9885
  237MOL0     H31951   3.249   8.329   7.440  0.6652 -1.3767  0.8328
  237MOL0     H31952   3.228   8.190   7.330  0.6054  0.2204 -0.7208
  237MOL0     H31953   3.341   8.357   7.158  0.8468  0.9836  0.3419
  237MOL0     H31954   3.336   8.471   7.289 -1.5327  1.2024 -0.2750
  237MOL0     H31955   2.913   8.465   7.156  0.9366 -0.0151  0.1636
  237MOL0     H31956   2.714   8.400   6.876  3.1519  0.9239  0.7142
  237MOL0     H31957   2.656   8.276   7.000  0.3339 -0.4432 -1.2491
  237MOL0     H31958   2.694   8.435   7.048  0.0950  1.6145 -1.3648
  237MOL0     H31959   2.944   7.846   6.719 -0.1029 -2.0969 -1.6223
  237MOL0     H31960   2.868   7.677   6.578  0.3969  4.0609 -1.0626
  237MOL0     H31961   2.794   7.492   6.485 -0.6029  0.0736 -0.9014
  237MOL0     H31962   2.741   7.400   6.624  1.0678 -2.9471 -1.6932
  237MOL0     H31963   2.682   7.282   6.439  1.2752  0.8967  0.5097
  237MOL0     H31964   2.529   7.334   6.501 -0.2004  2.6929  1.5215
  237MOL0     H31965   2.538   7.522   6.329 -1.7501 -0.9142 -1.6814
  237MOL0     H31966   2.517   7.350   6.275 -0.6692  1.0187 -1.7609
  237MOL0     H31967   2.718   7.541   6.221 -1.9052 -0.0574  1.2197
  237MOL0     H31968   2.796   7.382   6.261 -2.6697 -2.3752  4.1110
  237MOL0     H31969   2.675   7.269   6.079  0.1984  0.1947  1.5276
  237MOL0     H31970   2.788   7.387   6.022 -1.1626 -3.4425 -2.2592
  237MOL0     H31971   2.557   7.376   5.906 -1.5818  0.7300  0.8159
  237MOL0     H31972   2.484   7.450   6.037 -2.0360 -5.1643 -2.0157
  237MOL0     H31973   2.560   7.589   5.836 -2.5618  0.2771  2.9084
  237MOL0     H31974   2.730   7.563   5.882 -0.7044 -2.5219 -1.1847
  237MOL0     H31975   2.694   7.692   6.079  1.4313 -1.9850 -0.7621
  237MOL0     H31976   2.523   7.676   6.084 -2.5529  1.6081 -2.9163
  237MOL0     H31977   2.484   7.666   6.785 -0.6425  1.6851  2.5945
  237MOL0     H31978   2.570   7.845   6.935  0.9832  3.0720  0.6814
  237MOL0     H31979   3.071   8.049   6.946 -1.6959  0.3303  0.2813
  237MOL0     H31980   3.225   8.175   7.085  0.4031  0.7369  0.6943
  237MOL0     H31981   3.845   6.943   7.448 -0.2437  0.1627  0.0258
  237MOL0     H31982   4.040   6.996   7.282 -1.0129 -0.1462 -0.3904
  237MOL0     H31983   4.431   7.277   7.223  2.7070 -4.5801 -0.9032
  237MOL0     H31984   4.621   7.321   7.074 -0.1336  3.9600 -1.3497
  237MOL0     H31985   4.766   7.307   6.926 -1.4889  1.0380  2.7359
  237MOL0     H31986   4.805   7.380   6.770 -1.8147  1.3132 -1.3313
  237MOL0     H31987   4.638   7.542   6.977 -0.9995  1.5257 -3.1475
  237MOL0     H31988   4.717   7.613   6.856 -1.9087  0.5466  2.2810
  237MOL0     H31989   4.932   7.491   6.944 -0.3869  1.2415 -2.8535
  237MOL0     H31990   4.838   7.491   7.102 -0.9130  0.5219  0.3716
  237MOL0     H31991   4.905   7.749   6.949  2.1585  0.6654  0.7611
  237MOL0     H31992   4.993   7.684   7.074  0.0615  3.1163 -0.3980
  237MOL0     H31993   4.648   7.838   7.289  1.9523 -0.5217  1.6225
  237MOL0     H31994   4.366   7.321   6.741 -2.5645 -1.3085 -0.1571
  237MOL0     H31995   4.167   7.253   6.888 -0.5702  2.0851  0.5612
  238MOL0     O31996   0.438   5.835  10.720  0.4880 -0.1187  0.5010
  238MOL0     C31997   0.553   5.848  10.729 -0.9494  0.6049  0.2230
  238MOL0     O31998   0.617   5.865  10.848 -0.2503 -0.3137  0.8473
  238MOL0     C31999   0.553   5.889  10.969 -0.9067  1.3736  0.8636
  238MOL0     C32000   0.435   5.819  11.002  1.2888 -0.1945 -0.6012
  238MOL0     C32001   0.371   5.833  11.125 -0.4480  0.3559 -0.4288
  238MOL0     C32002   0.429   5.920  11.224  1.2635  0.1283 -0.2575
  238MOL0     O32003   0.378   5.947  11.345  0.5298  0.6728 -0.1672
  238MOL0     C32004   0.364   5.836  11.434 -0.2465 -0.0785  1.2458
  238MOL0     C32005   0.262   5.865  11.546 -1.0337 -0.3629  0.0257
  238MOL0     C32006   0.303   5.976  11.646  0.3502  1.5080  0.2785
  238MOL0     C32007   0.197   5.963  11.764  0.5304 -0.3082  0.0713
  238MOL0     C32008   0.246   5.862  11.865  0.6817  0.2351 -0.3301
  238MOL0     C32009   0.162   5.881  11.998 -1.2874  0.5301  0.1439
  238MOL0     C32010   0.186   5.787  12.113 -1.0057 -0.4926  0.2206
  238MOL0     C32011   0.089   5.832  12.230  0.2729  1.6722 -0.5253
  238MOL0     N32012   0.111   5.744  12.353 -0.6900  0.1325  0.5922
  238MOL0     C32013   0.180   5.785  12.463 -0.4859 -0.1610  0.0756
  238MOL0     C32014   0.162   5.689  12.555  0.8734 -0.7966 -0.5488
  238MOL0     C32015   0.219   5.695  12.696 -0.0798  1.3590  1.0445
  238MOL0     C32016   0.119   5.771  12.791  0.0803 -0.2764  0.2083
  238MOL0     C32017   0.176   5.743  12.927  0.8885  0.5695 -1.1914
  238MOL0     C32018   0.075   5.803  13.034  0.5501 -0.9052  0.6327
  238MOL0     O32019   0.038   5.945  13.026 -0.6648  0.7838 -0.5576
  238MOL0     C32020  -0.089   5.982  13.012  0.0939 -0.6479 -0.4347
  238MOL0     C32021  -0.181   5.915  12.935  0.8828 -0.3359 -0.4633
  238MOL0     C32022  -0.312   5.965  12.921  0.9021 -0.3984  0.1097
  238MOL0     C32023  -0.407   5.888  12.831  0.3680  0.0816  1.0684
  238MOL0     C32024  -0.359   6.082  12.997  0.0917 -0.2317 -0.2400
  238MOL0     C32025  -0.498   6.128  13.006 -0.3797  0.4222 -0.0505
  238MOL0     O32026  -0.527   6.255  13.048  0.2507 -0.3365 -0.0592
  238MOL0     C32027  -0.652   6.306  13.083  0.7985  0.5914  0.2143
  238MOL0     C32028  -0.735   6.237  13.176  0.0198 -0.0060 -0.5718
  238MOL0     C32029  -0.846   6.311  13.219 -0.6908 -0.7363 -0.0087
  238MOL0     C32030  -0.880   6.435  13.166  0.0309  0.4006  0.1316
  238MOL0     O32031  -0.991   6.486  13.222  0.5464  0.2357  0.5208
  238MOL0     C32032  -1.038   6.616  13.178  1.4880 -0.5976  0.3496
  238MOL0     C32033  -1.119   6.614  13.052  0.7216  0.0119 -0.1223
  238MOL0     C32034  -1.130   6.752  12.973 -0.9356 -0.2623  0.4713
  238MOL0     C32035  -1.186   6.744  12.833 -0.4012 -0.5420  0.2271
  238MOL0     C32036  -1.150   6.877  12.761  0.4096  0.6984  0.4423
  238MOL0     C32037  -1.196   6.869  12.612  0.9895  0.2957 -0.3356
  238MOL0     C32038  -1.159   6.997  12.537 -0.6564  0.1088 -0.1225
  238MOL0     C32039  -1.026   7.013  12.497 -0.7454  0.6482  0.1977
  238MOL0    Cl32040  -0.967   6.889  12.377  0.2162 -0.1303  0.1729
  238MOL0     C32041  -0.803   6.490  13.066 -0.7918 -0.3042  0.0306
  238MOL0     C32042  -0.684   6.429  13.030  0.5015  0.3794  0.6788
  238MOL0     O32043  -0.578   6.039  13.003 -0.6020  0.9142  0.3758
  238MOL0     C32044  -0.261   6.147  13.075 -0.3807  0.0469  0.2131
  238MOL0     C32045  -0.136   6.100  13.085 -0.2100 -0.4016 -0.1564
  238MOL0     N32046   0.081   5.590  12.495 -0.3270 -0.2261  0.4187
  238MOL0     N32047   0.051   5.623  12.375 -0.1616 -0.1662 -0.5043
  238MOL0     C32048   0.532   6.000  11.182 -0.3370 -0.1090  0.3753
  238MOL0     C32049   0.600   5.984  11.058  0.3394 -0.7792 -0.5085
  238MOL0     C32050   0.635   5.839  10.604  0.6515  1.2452  0.4128
  238MOL0     C32051   0.771   5.875  10.601  0.5806  0.1783 -0.4241
  238MOL0     C32052   0.828   5.896  10.470  0.1304  0.0436 -0.2210
  238MOL0     C32053   0.757   5.874  10.351  0.1530 -0.0152 -0.3431
  238MOL0     O32054   0.830   5.905  10.238  0.1976  0.2111  0.0349
  238MOL0     C32055   0.752   5.931  10.116  0.4001 -0.0442 -0.1050
  238MOL0     C32056   0.674   6.054  10.127 -0.6297 -0.3819 -0.5963
  238MOL0     C32057   0.743   6.173  10.193  0.0941  0.4991 -0.1201
  238MOL0     C32058   0.642   6.289  10.194  0.4647 -1.2409 -0.2118
  238MOL0     C32059   0.679   6.405  10.271 -0.5130 -0.4321 -0.5692
  238MOL0     C32060   0.703   6.514  10.324  0.0523 -0.8018 -0.2915
  238MOL0     C32061   0.631   5.820  10.367  0.3074  0.2286  0.1034
  238MOL0     C32062   0.566   5.819  10.487 -0.2629  0.6982  0.1094
  238MOL0     H32063   0.394   5.746  10.932  1.7619 -0.2358 -0.8370
  238MOL0     H32064   0.278   5.780  11.143 -1.7890  2.0124 -2.0096
  238MOL0     H32065   0.345   5.743  11.381  5.1628 -1.6140  1.4436
  238MOL0     H32066   0.460   5.812  11.482  1.1941 -0.4396 -1.5939
  238MOL0     H32067   0.166   5.892  11.501 -0.5647  1.1966 -0.0920
  238MOL0     H32068   0.257   5.769  11.600 -2.4633 -0.0720  0.4427
  238MOL0     H32069   0.399   5.941  11.685 -0.0927 -0.5070 -0.2957
  238MOL0     H32070   0.298   6.073  11.595  1.8059  0.9510 -1.0090
  238MOL0     H32071   0.194   6.062  11.810  1.0764  0.5679 -1.7133
  238MOL0     H32072   0.097   5.941  11.726  0.4269  2.5336 -1.5113
  238MOL0     H32073   0.217   5.763  11.829 -2.9433  1.3234 -0.7815
  238MOL0     H32074   0.348   5.879  11.900  0.6799  0.7486 -0.5716
  238MOL0     H32075   0.177   5.987  12.020 -1.7830  0.2253  2.2028
  238MOL0     H32076   0.061   5.874  11.957 -1.0362  0.1787 -0.4284
  238MOL0     H32077   0.172   5.682  12.086  0.8687 -1.0494  1.2547
  238MOL0     H32078   0.289   5.802  12.146  0.1868 -2.4362 -2.2073
  238MOL0     H32079  -0.011   5.807  12.194  0.2224  1.2266 -0.0770
  238MOL0     H32080   0.091   5.935  12.266 -1.7782  1.6243 -0.1822
  238MOL0     H32081   0.248   5.869  12.476 -0.0953 -0.2536 -1.2215
  238MOL0     H32082   0.250   5.595  12.725 -1.5634  0.2354 -0.9981
  238MOL0     H32083   0.315   5.748  12.696 -0.6302  2.4933 -0.9862
  238MOL0     H32084   0.014   5.741  12.781 -0.5144  2.2116 -5.8321
  238MOL0     H32085   0.130   5.877  12.763 -0.9294 -0.3938 -0.7230
  238MOL0     H32086   0.276   5.787  12.934  1.5207 -0.9319 -0.1917
  238MOL0     H32087   0.178   5.635  12.946  2.7595  0.9049  0.8731
  238MOL0     H32088   0.119   5.786  13.133  0.8405 -1.3934  0.4191
  238MOL0     H32089  -0.019   5.746  13.031  0.6749 -1.1088  0.5936
  238MOL0     H32090  -0.155   5.831  12.871  0.2375 -0.0627 -1.0954
  238MOL0     H32091  -0.454   5.964  12.767  1.1311  1.7006  2.3426
  238MOL0     H32092  -0.359   5.813  12.768 -2.3889 -0.8399 -0.1231
  238MOL0     H32093  -0.492   5.836  12.877  0.4359 -1.6917 -0.6695
  238MOL0     H32094  -0.702   6.137  13.200  3.3980  0.6045 -2.0789
  238MOL0     H32095  -0.905   6.260  13.294  2.0483 -0.6554  2.3768
  238MOL0     H32096  -1.069   6.683  13.259  1.8678 -1.0261  0.8617
  238MOL0     H32097  -0.940   6.664  13.162  3.8963 -3.8585  3.6218
  238MOL0     H32098  -1.068   6.540  12.989  0.7641  0.0842 -0.1723
  238MOL0     H32099  -1.219   6.576  13.073  0.1682  1.0651 -0.7932
  238MOL0     H32100  -1.028   6.787  12.960 -0.6838 -1.1680 -0.0766
  238MOL0     H32101  -1.200   6.822  13.019 -2.6964 -0.6802 -1.3774
  238MOL0     H32102  -1.144   6.655  12.785 -0.3946 -1.9891  2.7829
  238MOL0     H32103  -1.295   6.733  12.832 -0.5412  0.2891 -2.1720
  238MOL0     H32104  -1.041   6.872  12.757  0.4420  0.5510  1.3456
  238MOL0     H32105  -1.175   6.976  12.798 -0.3383  1.2726 -1.4472
  238MOL0     H32106  -1.154   6.775  12.573  2.2142  1.9508 -3.3417
  238MOL0     H32107  -1.306   6.865  12.615  1.0051 -0.2747 -0.4330
  238MOL0     H32108  -1.191   7.086  12.593  0.7437 -0.2167  1.2873
  238MOL0     H32109  -1.220   7.008  12.447  2.1341  0.2105 -2.1142
  238MOL0     H32110  -0.949   7.014  12.575  2.6208  0.6659 -2.8559
  238MOL0     H32111  -1.014   7.106  12.440  2.8782  1.5368  2.1051
  238MOL0     H32112  -0.831   6.583  13.017  0.5576 -0.9542 -2.0809
  238MOL0     H32113  -0.629   6.482  12.953 -1.7582  0.7481 -0.7895
  238MOL0     H32114  -0.280   6.241  13.126 -1.4723  0.4773 -0.9432
  238MOL0     H32115  -0.073   6.161  13.149 -3.2634  0.9646  1.7800
  238MOL0     H32116   0.587   6.055  11.257  1.1557 -1.2066  0.1279
  238MOL0     H32117   0.685   6.044  11.028 -1.2518  2.3567  0.8091
  238MOL0     H32118   0.825   5.907  10.689 -0.5309  0.9527 -0.0083
  238MOL0     H32119   0.934   5.919  10.464 -0.1583  1.0049 -2.4273
  238MOL0     H32120   0.819   5.940  10.029 -0.8474 -2.5693 -1.4348
  238MOL0     H32121   0.683   5.850  10.092 -0.9233  1.4119 -1.4836
  238MOL0     H32122   0.581   6.042  10.184 -2.1078 -0.5338 -2.8902
  238MOL0     H32123   0.648   6.081  10.024 -1.5005  1.3758  0.0473
  238MOL0     H32124   0.823   6.194  10.122 -1.0256  0.4296 -1.4431
  238MOL0     H32125   0.771   6.157  10.297 -1.0198 -1.5070 -0.0712
  238MOL0     H32126   0.546   6.250  10.229 -1.6115  4.7727  2.1632
  238MOL0     H32127   0.628   6.321  10.090 -2.1283 -0.7102  0.2281
  238MOL0     H32128   0.731   6.600  10.380  1.3765 -1.9946  0.9768
  238MOL0     H32129   0.568   5.802  10.280  0.4377  1.1774 -0.2063
  238MOL0     H32130   0.460   5.799  10.476 -0.1651  1.7322 -4.5910
  239MOL0     O32131   1.600   3.567   2.688  0.9835 -0.6261  0.3866
  239MOL0     C32132   1.529   3.474   2.657  0.5700  0.3157  0.5003
  239MOL0     O32133   1.470   3.394   2.748  0.6825  0.5304 -0.3008
  239MOL0     C32134   1.501   3.387   2.886 -0.4199 -0.0720 -0.6950
  239MOL0     C32135   1.442   3.288   2.968  0.9991  0.9950  0.0626
  239MOL0     C32136   1.478   3.252   3.096 -0.9425 -0.3177  0.3495
  239MOL0     C32137   1.578   3.329   3.164  0.5150  0.7797  0.1311
  239MOL0     O32138   1.639   3.282   3.278 -0.1219  0.2112 -0.0457
  239MOL0     C32139   1.550   3.210   3.366  0.3629 -0.2151 -0.2841
  239MOL0     C32140   1.620   3.202   3.498  0.1591 -0.3771  0.5087
  239MOL0     C32141   1.556   3.105   3.589 -0.2640  0.8096 -0.5222
  239MOL0     C32142   1.626   3.101   3.728  0.6430  0.4483 -0.9586
  239MOL0     C32143   1.571   3.209   3.825  0.5524  0.3191 -0.6285
  239MOL0     C32144   1.641   3.190   3.960 -0.3270  0.0165  0.3967
  239MOL0     C32145   1.627   3.321   4.052 -0.0956  0.3787  0.1869
  239MOL0     C32146   1.677   3.297   4.188 -0.1059  0.1232  0.3430
  239MOL0     N32147   1.822   3.303   4.179  0.5830 -1.0757 -0.8164
  239MOL0     C32148   1.913   3.201   4.182  0.5115 -0.3503  0.2261
  239MOL0     C32149   2.029   3.260   4.170 -1.0589  0.0194  0.2744
  239MOL0     C32150   2.164   3.200   4.143 -0.0466 -0.3350 -0.4645
  239MOL0     C32151   2.255   3.202   4.277  0.5048 -0.2017 -0.5052
  239MOL0     C32152   2.313   3.333   4.314  0.1940 -0.7297 -0.3229
  239MOL0     C32153   2.417   3.324   4.425 -0.0272 -0.1296  0.4549
  239MOL0     O32154   2.397   3.217   4.517 -0.7964  0.7262 -0.4939
  239MOL0     C32155   2.502   3.166   4.587  1.2675  0.6119  0.7423
  239MOL0     C32156   2.635   3.211   4.582 -0.3230 -0.4805  0.2029
  239MOL0     C32157   2.733   3.157   4.658 -0.4957 -0.3898 -0.7806
  239MOL0     C32158   2.876   3.216   4.643  0.1637  0.4170 -0.1245
  239MOL0     C32159   2.698   3.065   4.762  0.1026 -0.1029  0.4932
  239MOL0     C32160   2.784   3.026   4.871  0.2351 -0.4762 -0.6099
  239MOL0     O32161   2.771   2.893   4.917  0.0309  0.4433 -0.6030
  239MOL0     C32162   2.856   2.860   5.015  0.3123  1.2220 -0.4814
  239MOL0     C32163   2.994   2.863   4.998  0.4163 -1.3005 -0.2058
  239MOL0     C32164   3.088   2.826   5.106  0.3454 -1.1260  0.8274
  239MOL0     C32165   3.035   2.791   5.233 -0.0711  0.4592 -0.2197
  239MOL0     O32166   3.131   2.749   5.336 -0.0581 -0.3926 -0.9366
  239MOL0     C32167   3.078   2.758   5.472  0.0486  0.6198 -0.5017
  239MOL0     C32168   3.102   2.905   5.509  0.3648  0.1769  0.1793
  239MOL0     C32169   3.044   2.930   5.647 -0.1533 -0.4672  0.8171
  239MOL0     C32170   3.046   3.079   5.676  0.0037 -0.0165 -0.3896
  239MOL0     C32171   3.180   3.123   5.733  0.0479 -0.4916 -0.0243
  239MOL0     C32172   3.170   3.276   5.766  0.3980 -0.0011 -0.4065
  239MOL0     C32173   3.296   3.349   5.791 -0.8101 -0.0257  0.8403
  239MOL0     C32174   3.323   3.355   5.939 -0.1223 -0.3816  0.2121
  239MOL0    Cl32175   3.346   3.184   6.002 -0.3629 -0.2198 -0.4632
  239MOL0     C32176   2.891   2.768   5.235  0.4686 -0.2743  0.0329
  239MOL0     C32177   2.807   2.817   5.136 -0.0474  0.5757 -0.7168
  239MOL0     O32178   2.862   3.110   4.917 -0.6110 -0.1020 -0.0789
  239MOL0     C32179   2.564   3.020   4.763 -1.1362  0.7741 -0.5972
  239MOL0     C32180   2.471   3.063   4.681  0.5131  1.1000  0.4028
  239MOL0     N32181   2.006   3.400   4.171  0.2562 -0.1676 -0.2579
  239MOL0     N32182   1.883   3.426   4.182  0.2361  0.4572  0.2748
  239MOL0     C32183   1.633   3.438   3.094 -0.9672 -1.1257  0.0878
  239MOL0     C32184   1.583   3.474   2.965  1.5013 -0.6706 -0.1694
  239MOL0     C32185   1.501   3.464   2.510 -0.1265  0.6019  0.0280
  239MOL0     C32186   1.516   3.568   2.423 -0.3352  0.2576 -0.9472
  239MOL0     C32187   1.489   3.564   2.289  0.1470  1.6339  0.9798
  239MOL0     C32188   1.465   3.433   2.225  0.7498 -1.1999  0.2644
  239MOL0     O32189   1.439   3.425   2.094  0.2896 -0.3139 -0.9550
  239MOL0     C32190   1.481   3.525   2.002 -0.0623 -0.2396  0.6022
  239MOL0     C32191   1.530   3.458   1.859  0.1179  0.0305  0.7382
  239MOL0     C32192   1.424   3.441   1.748  0.1440 -0.3865 -0.3273
  239MOL0     C32193   1.354   3.303   1.744 -0.2835  0.2236 -0.6772
  239MOL0     C32194   1.440   3.191   1.699  0.0243 -0.2988  0.4374
  239MOL0     C32195   1.491   3.084   1.675 -0.5320  0.8014 -0.0720
  239MOL0     C32196   1.450   3.326   2.310  0.1457 -0.1682 -0.5629
  239MOL0     C32197   1.466   3.338   2.452  0.2777 -0.5530  0.3291
  239MOL0     H32198   1.376   3.209   2.933  2.5759  0.3249 -1.5947
  239MOL0     H32199   1.449   3.153   3.130  0.0932  0.3990  3.6218
  239MOL0     H32200   1.467   3.279   3.383  1.3339  0.5691  1.5941
  239MOL0     H32201   1.512   3.114   3.330 -2.3918  0.7386 -0.1468
  239MOL0     H32202   1.717   3.155   3.479  2.2043  3.0275  1.5172
  239MOL0     H32203   1.636   3.301   3.542 -0.5049  0.5823 -1.3106
  239MOL0     H32204   1.448   3.116   3.603 -0.1085  0.8476  0.7170
  239MOL0     H32205   1.559   3.006   3.542 -3.4125  0.5243 -0.3729
  239MOL0     H32206   1.598   3.006   3.775  1.5196 -0.2472 -1.8173
  239MOL0     H32207   1.734   3.088   3.729  0.2905 -5.6868  1.1916
  239MOL0     H32208   1.595   3.307   3.782  0.6681  0.6392  0.1520
  239MOL0     H32209   1.462   3.207   3.837  0.2906 -1.1997 -2.7502
  239MOL0     H32210   1.607   3.105   4.020  1.8602 -0.3043  1.2804
  239MOL0     H32211   1.748   3.166   3.952 -0.3907 -0.2644  0.3824
  239MOL0     H32212   1.696   3.397   4.014  0.4939 -0.3308 -0.1866
  239MOL0     H32213   1.522   3.347   4.067 -0.1640  0.9982 -1.2166
  239MOL0     H32214   1.651   3.197   4.225  0.7113 -0.8473 -1.5424
  239MOL0     H32215   1.636   3.374   4.254 -0.0044  1.6821 -1.3409
  239MOL0     H32216   1.881   3.098   4.168 -1.9587  0.5691 -1.7343
  239MOL0     H32217   2.151   3.098   4.106 -2.3192 -0.6939  1.1477
  239MOL0     H32218   2.229   3.262   4.080 -0.5082 -0.5877 -1.2004
  239MOL0     H32219   2.346   3.141   4.268  2.1339  1.8059  1.3062
  239MOL0     H32220   2.197   3.167   4.364  1.5249  0.0708  0.2998
  239MOL0     H32221   2.235   3.393   4.362 -0.6570 -1.6247 -0.5526
  239MOL0     H32222   2.363   3.380   4.229  0.1544  1.0055  0.5662
  239MOL0     H32223   2.425   3.418   4.479 -1.4477  0.5405 -0.4279
  239MOL0     H32224   2.506   3.292   4.370 -0.3745 -1.2644  0.5211
  239MOL0     H32225   2.651   3.302   4.525 -0.6397 -0.2466  0.4807
  239MOL0     H32226   2.949   3.146   4.685  2.9281  1.7928 -2.3426
  239MOL0     H32227   2.915   3.223   4.541  4.0481  0.4663  1.1825
  239MOL0     H32228   2.873   3.306   4.705  0.1075 -1.2038  2.3810
  239MOL0     H32229   3.027   2.892   4.898  1.2587  0.5812  0.5810
  239MOL0     H32230   3.195   2.836   5.088  0.6617 -0.7040  2.7201
  239MOL0     H32231   2.970   2.748   5.479 -0.0184  2.3569  2.7017
  239MOL0     H32232   3.129   2.687   5.538 -1.2772 -0.9992 -1.1668
  239MOL0     H32233   3.207   2.935   5.505 -0.3764  3.0913  0.0097
  239MOL0     H32234   3.042   2.968   5.442 -2.0833 -1.1147  1.0512
  239MOL0     H32235   3.104   2.873   5.718  1.7880 -2.1555 -1.9817
  239MOL0     H32236   2.949   2.876   5.645  2.7371 -6.2365  0.2910
  239MOL0     H32237   3.014   3.137   5.589 -1.8370  0.7261  0.7220
  239MOL0     H32238   2.965   3.100   5.746  0.1950 -0.9541  0.1338
  239MOL0     H32239   3.258   3.121   5.657  0.6663  1.8345  0.4763
  239MOL0     H32240   3.215   3.062   5.817  1.3505 -1.0354 -0.9173
  239MOL0     H32241   3.123   3.329   5.683 -0.5147  1.8272  1.2107
  239MOL0     H32242   3.096   3.288   5.845 -0.6642  0.2349 -1.4201
  239MOL0     H32243   3.300   3.452   5.756 -2.1914 -0.9798 -2.5716
  239MOL0     H32244   3.379   3.300   5.739  0.5148  1.0073  1.9110
  239MOL0     H32245   3.249   3.419   5.988 -1.2392 -1.4655 -0.0258
  239MOL0     H32246   3.422   3.403   5.941 -0.7934  1.0558  3.2613
  239MOL0     H32247   2.839   2.724   5.320 -2.0649  1.3730 -0.5374
  239MOL0     H32248   2.700   2.808   5.152 -0.0130 -1.8995 -1.4991
  239MOL0     H32249   2.520   2.958   4.840  1.3748 -0.1548  0.2010
  239MOL0     H32250   2.375   3.014   4.691  1.1287 -0.3524 -0.4768
  239MOL0     H32251   1.704   3.503   3.145 -5.5175  2.5663  2.5118
  239MOL0     H32252   1.603   3.577   2.935 -0.4920 -0.8193 -2.2712
  239MOL0     H32253   1.551   3.667   2.452 -0.9271  0.3498 -0.5346
  239MOL0     H32254   1.494   3.655   2.230  2.2973  1.5118  0.9207
  239MOL0     H32255   1.398   3.594   1.984 -0.3258 -1.0963 -2.0293
  239MOL0     H32256   1.571   3.575   2.038 -0.0815  3.5323 -3.6605
  239MOL0     H32257   1.577   3.361   1.876 -0.0379 -1.0781 -3.8370
  239MOL0     H32258   1.606   3.516   1.806  0.6119 -2.0358 -0.9616
  239MOL0     H32259   1.475   3.476   1.658  0.2137  1.2984  0.3233
  239MOL0     H32260   1.346   3.516   1.765 -0.9921 -1.0218 -2.4563
  239MOL0     H32261   1.273   3.320   1.673  0.6741  1.9370 -1.4257
  239MOL0     H32262   1.311   3.281   1.842 -1.6196  1.4949 -0.9433
  239MOL0     H32263   1.532   2.986   1.661 -4.4584 -1.2027  0.9694
  239MOL0     H32264   1.436   3.225   2.273 -0.1577  0.4769 -2.3202
  239MOL0     H32265   1.450   3.239   2.492  0.2612  0.0909  2.0085
  240MOL0     O32266   5.151   6.871   1.417 -0.1047  0.5625  0.9520
  240MOL0     C32267   5.101   6.762   1.397  0.3816  0.1525  0.4049
  240MOL0     O32268   5.159   6.643   1.418 -0.5735 -0.2118 -0.1631
  240MOL0     C32269   5.291   6.634   1.376  0.2529  0.5948 -0.4443
  240MOL0     C32270   5.370   6.703   1.288  0.1062 -0.6233 -0.0029
  240MOL0     C32271   5.515   6.680   1.283  0.5359 -0.4378  0.1558
  240MOL0     C32272   5.573   6.573   1.350  0.7954 -0.2515 -0.0323
  240MOL0     O32273   5.703   6.544   1.324  0.6701  0.8141  0.4046
  240MOL0     C32274   5.712   6.429   1.233 -0.1212 -0.7094  0.6146
  240MOL0     C32275   5.737   6.295   1.292  0.1891  0.5038 -1.4129
  240MOL0     C32276   5.710   6.175   1.192 -0.3504 -0.6249  0.4041
  240MOL0     C32277   5.746   6.045   1.263  0.8037  0.6471 -0.9839
  240MOL0     C32278   5.652   5.939   1.191  0.2532  0.6095 -0.9122
  240MOL0     C32279   5.668   5.792   1.247 -0.1862  0.5349  0.2208
  240MOL0     C32280   5.572   5.694   1.179  0.2845  0.6415  0.3137
  240MOL0     C32281   5.595   5.551   1.236  0.4217  0.1806 -0.2082
  240MOL0     N32282   5.476   5.458   1.225  0.3041 -0.1509  0.0996
  240MOL0     C32283   5.439   5.400   1.104  0.1929 -0.0092 -0.2829
  240MOL0     C32284   5.334   5.322   1.125 -0.0099 -0.2895 -0.0353
  240MOL0     C32285   5.246   5.238   1.034  0.0132 -0.6579 -0.3753
  240MOL0     C32286   5.322   5.150   0.938 -0.0393  0.1168  0.7544
  240MOL0     C32287   5.229   5.049   0.868  0.3491  0.6278  0.0543
  240MOL0     C32288   5.269   5.057   0.714  0.5906 -0.3889  0.1303
  240MOL0     O32289   5.214   4.947   0.633 -0.3253  0.4874 -0.4040
  240MOL0     C32290   5.208   4.971   0.501  0.4136  1.5323  0.5933
  240MOL0     C32291   5.079   4.971   0.438  0.5010 -0.3293  0.2403
  240MOL0     C32292   5.058   4.993   0.299  0.4426  0.1473 -0.4088
  240MOL0     C32293   4.913   5.002   0.244  0.2424 -0.9258  0.3677
  240MOL0     C32294   5.180   5.003   0.222  0.7008 -0.0309  0.6981
  240MOL0     C32295   5.190   5.024   0.076  0.2944  0.6174  0.2316
  240MOL0     O32296   5.306   5.092   0.040 -0.8085  0.2403  0.5277
  240MOL0     C32297   5.310   5.114  -0.091 -0.1890  0.7734  0.8677
  240MOL0     C32298   5.368   5.017  -0.173  0.8167  0.5600 -0.1690
  240MOL0     C32299   5.381   5.038  -0.313  0.4423  0.3577 -0.0752
  240MOL0     C32300   5.335   5.163  -0.360 -0.7576  0.1318  0.7493
  240MOL0     O32301   5.372   5.196  -0.493 -0.0533 -0.0059  0.2547
  240MOL0     C32302   5.254   5.245  -0.565 -0.4461 -0.4277 -0.4947
  240MOL0     C32303   5.263   5.202  -0.711 -0.8626  0.3861 -0.5177
  240MOL0     C32304   5.283   5.057  -0.734 -0.4638  0.7770  0.2251
  240MOL0     C32305   5.304   5.029  -0.876  0.6875 -0.3554  0.1886
  240MOL0     C32306   5.303   4.879  -0.900 -0.0251 -0.7844  0.2660
  240MOL0     C32307   5.388   4.783  -0.804 -0.4863  1.0046  0.1971
  240MOL0     C32308   5.389   4.639  -0.840  0.0526  0.7746 -0.7544
  240MOL0     C32309   5.442   4.609  -0.976 -0.1216 -0.0561  0.9703
  240MOL0    Cl32310   5.396   4.441  -1.014 -0.3293  0.0634  0.0534
  240MOL0     C32311   5.280   5.257  -0.279 -0.0081 -0.5956  1.3188
  240MOL0     C32312   5.265   5.226  -0.145  0.3775 -1.2660  0.6038
  240MOL0     O32313   5.107   4.968  -0.002 -1.5183 -0.0931 -0.3458
  240MOL0     C32314   5.299   4.995   0.290 -0.2481  0.2246 -0.3153
  240MOL0     C32315   5.324   4.979   0.433 -0.2405 -0.9809  0.9206
  240MOL0     N32316   5.309   5.325   1.270 -0.3001  0.3276  0.8603
  240MOL0     N32317   5.401   5.405   1.325 -0.3714  0.3425  0.5441
  240MOL0     C32318   5.491   6.491   1.434  0.3033 -0.8409  0.4251
  240MOL0     C32319   5.349   6.517   1.439 -0.3082  0.1572  0.2842
  240MOL0     C32320   4.952   6.760   1.373  0.4309 -0.2570  0.1006
  240MOL0     C32321   4.885   6.879   1.333 -0.1333  0.5547  0.1777
  240MOL0     C32322   4.745   6.890   1.323  0.5228  0.2562 -0.3616
  240MOL0     C32323   4.662   6.784   1.351  0.3764 -0.0872  0.0286
  240MOL0     O32324   4.526   6.793   1.334  0.2269 -0.1874 -0.2951
  240MOL0     C32325   4.434   6.705   1.396  0.2136  0.4303 -0.6019
  240MOL0     C32326   4.375   6.598   1.299  0.3728  0.5577  0.6023
  240MOL0     C32327   4.265   6.535   1.376  0.8377  0.2722 -0.4048
  240MOL0     C32328   4.203   6.432   1.278 -0.3679  0.1311  0.3932
  240MOL0     C32329   4.284   6.309   1.255 -0.0321 -0.1320 -0.5574
  240MOL0     C32330   4.349   6.210   1.238 -0.3073  0.2271 -1.1894
  240MOL0     C32331   4.733   6.668   1.407  0.7778  0.2238  0.9339
  240MOL0     C32332   4.870   6.654   1.416 -0.0850 -0.6883 -0.0864
  240MOL0     H32333   5.340   6.788   1.227  1.5278 -0.3778 -0.4017
  240MOL0     H32334   5.559   6.743   1.207 -3.3396 -0.0345 -2.0286
  240MOL0     H32335   5.630   6.430   1.161  1.3894 -1.4497 -1.1950
  240MOL0     H32336   5.803   6.446   1.176 -0.7482  0.6223 -0.0459
  240MOL0     H32337   5.836   6.289   1.337 -0.7506 -2.4983  0.5390
  240MOL0     H32338   5.671   6.270   1.375  1.4291 -1.5309 -0.9888
  240MOL0     H32339   5.607   6.182   1.154  0.2557  2.0852 -1.0396
  240MOL0     H32340   5.763   6.186   1.096  0.4778  1.5009  1.0478
  240MOL0     H32341   5.852   6.019   1.254  0.0117 -4.2706  0.5603
  240MOL0     H32342   5.719   6.038   1.369  0.7289  0.0337 -1.0393
  240MOL0     H32343   5.554   5.980   1.220 -0.2937 -2.4283  2.1870
  240MOL0     H32344   5.663   5.947   1.083 -1.0339 -3.2437 -1.4693
  240MOL0     H32345   5.772   5.766   1.229  0.5199  2.7864  0.6535
  240MOL0     H32346   5.654   5.783   1.355  0.2893 -4.2938  0.0988
  240MOL0     H32347   5.470   5.728   1.198 -0.1597 -0.4904  0.0299
  240MOL0     H32348   5.591   5.692   1.071  0.9933 -1.8417  0.4225
  240MOL0     H32349   5.624   5.552   1.342  1.8391 -0.6672 -0.5679
  240MOL0     H32350   5.671   5.507   1.171  0.2926  3.3413 -2.7111
  240MOL0     H32351   5.488   5.415   1.008  1.4264 -2.7379 -0.1561
  240MOL0     H32352   5.180   5.186   1.104 -0.3991  1.6757  1.0512
  240MOL0     H32353   5.187   5.315   0.984  1.8765 -0.2262 -2.0545
  240MOL0     H32354   5.401   5.098   0.992  0.1177 -0.5823 -0.1086
  240MOL0     H32355   5.364   5.204   0.853 -3.2537 -1.7781 -2.3401
  240MOL0     H32356   5.124   5.080   0.877  0.1932  0.9901 -2.3475
  240MOL0     H32357   5.238   4.947   0.906  0.2162 -0.0445 -1.6443
  240MOL0     H32358   5.377   5.053   0.694  0.3972  1.9500 -1.8021
  240MOL0     H32359   5.227   5.154   0.689 -0.3809 -0.0268  2.9018
  240MOL0     H32360   4.983   4.962   0.487 -0.9716  1.0228 -2.1534
  240MOL0     H32361   4.851   5.033   0.329  3.8688 -0.2185  2.9816
  240MOL0     H32362   4.907   5.080   0.168 -1.6177 -0.7147  0.6692
  240MOL0     H32363   4.883   4.914   0.187  0.2920 -0.2862 -0.6776
  240MOL0     H32364   5.411   4.933  -0.119 -2.1529  0.7473  2.7790
  240MOL0     H32365   5.432   4.972  -0.382 -1.8707 -3.4811  1.5634
  240MOL0     H32366   5.163   5.197  -0.526 -0.4305  2.5227  3.8190
  240MOL0     H32367   5.246   5.354  -0.564  2.1536 -0.0016 -4.5187
  240MOL0     H32368   5.172   5.242  -0.755 -0.3435 -1.5630 -3.7304
  240MOL0     H32369   5.338   5.258  -0.767  0.8198 -0.6860  0.5495
  240MOL0     H32370   5.188   5.013  -0.702 -0.2146 -0.4960 -0.7276
  240MOL0     H32371   5.358   5.014  -0.667 -2.1443  0.2447  1.8495
  240MOL0     H32372   5.234   5.083  -0.941  0.3033 -2.8797 -1.6486
  240MOL0     H32373   5.394   5.080  -0.914 -0.7575  1.1531 -1.3993
  240MOL0     H32374   5.340   4.873  -1.002  1.8200  0.6250  0.8038
  240MOL0     H32375   5.198   4.847  -0.894 -0.6217  1.2440  1.8660
  240MOL0     H32376   5.491   4.818  -0.800  0.2221 -0.9706  0.7131
  240MOL0     H32377   5.351   4.789  -0.701 -0.5564 -1.6754  0.3984
  240MOL0     H32378   5.289   4.594  -0.841  0.6407 -0.5995 -0.3272
  240MOL0     H32379   5.455   4.585  -0.772  1.4162  3.2665  0.0272
  240MOL0     H32380   5.549   4.633  -0.986 -0.3093 -0.0193 -1.3684
  240MOL0     H32381   5.380   4.670  -1.041 -0.7117  0.2657  1.8159
  240MOL0     H32382   5.275   5.359  -0.314  2.4973 -0.0710  2.2267
  240MOL0     H32383   5.233   5.308  -0.081  0.2661 -1.6742  1.0739
  240MOL0     H32384   5.394   5.018   0.243  0.0161 -1.8502 -0.9085
  240MOL0     H32385   5.424   4.972   0.475  1.3387  0.3488 -2.3420
  240MOL0     H32386   5.540   6.422   1.501 -0.8806 -1.2276  0.9140
  240MOL0     H32387   5.286   6.444   1.488  0.9695 -0.5475  0.9500
  240MOL0     H32388   4.950   6.962   1.310  0.0340 -0.0373 -1.6735
  240MOL0     H32389   4.698   6.987   1.310 -0.0710  0.5991  3.1856
  240MOL0     H32390   4.481   6.662   1.485  1.0579  2.9087  0.2264
  240MOL0     H32391   4.358   6.778   1.425 -0.7773 -1.6567  2.6094
  240MOL0     H32392   4.455   6.533   1.262 -0.0095  0.2478  0.3165
  240MOL0     H32393   4.337   6.645   1.207  0.5025 -1.4270 -0.5153
  240MOL0     H32394   4.184   6.604   1.402  0.0275 -1.4164  1.9770
  240MOL0     H32395   4.304   6.498   1.471  2.6604  3.7488  0.3472
  240MOL0     H32396   4.189   6.476   1.179 -0.6290  1.3575  0.9485
  240MOL0     H32397   4.109   6.404   1.328  2.0286  1.6541  6.7345
  240MOL0     H32398   4.393   6.113   1.220 -1.5230 -0.5914  0.0045
  240MOL0     H32399   4.680   6.576   1.430  0.1295  0.5162  0.6529
  240MOL0     H32400   4.918   6.566   1.459  0.1919 -1.1022 -1.1934
  241MOL0     O32401   2.684  11.053   1.708  0.0210 -0.4319 -0.1480
  241MOL0     C32402   2.585  10.979   1.708 -0.3717 -0.3497  0.1291
  241MOL0     O32403   2.501  10.966   1.812 -0.1207 -0.0932 -0.3365
  241MOL0     C32404   2.507  11.060   1.919  0.5241  0.8310 -0.2182
  241MOL0     C32405   2.486  10.999   2.040 -0.3916 -0.1028 -0.2363
  241MOL0     C32406   2.465  11.074   2.153  1.0540 -0.3424 -0.7668
  241MOL0     C32407   2.474  11.215   2.156  0.6914 -0.0935  0.6367
  241MOL0     O32408   2.443  11.310   2.250  0.2551  1.4276 -0.3640
  241MOL0     C32409   2.408  11.267   2.379  1.3365  0.6643 -0.5822
  241MOL0     C32410   2.393  11.386   2.469 -0.5152  0.2063 -0.0268
  241MOL0     C32411   2.272  11.479   2.427  0.1571 -0.2558 -0.3772
  241MOL0     C32412   2.291  11.617   2.500  0.7280  0.1008 -0.0804
  241MOL0     C32413   2.203  11.734   2.432 -0.9443 -0.3095 -0.6490
  241MOL0     C32414   2.227  11.869   2.501 -0.3760 -0.1430  1.0494
  241MOL0     C32415   2.161  11.990   2.428 -0.0884  0.1773 -0.8517
  241MOL0     C32416   2.210  12.122   2.491 -0.1985 -0.5549 -0.0673
  241MOL0     N32417   2.150  12.161   2.617 -0.4403  0.1710 -0.3347
  241MOL0     C32418   2.165  12.107   2.743 -0.4382 -1.0342  1.0261
  241MOL0     C32419   2.064  12.156   2.818  0.0807 -0.1823  0.2103
  241MOL0     C32420   2.030  12.125   2.956 -0.7412 -0.0565  0.4822
  241MOL0     C32421   2.121  12.211   3.044 -0.6351  0.2478 -0.4669
  241MOL0     C32422   2.244  12.136   3.112 -0.3306 -0.1955 -0.4670
  241MOL0     C32423   2.350  12.090   3.013  0.5604  0.9112 -0.1925
  241MOL0     O32424   2.303  11.957   2.982 -0.1500  0.7029 -0.5249
  241MOL0     C32425   2.383  11.877   2.907 -0.5304 -0.0166 -1.5202
  241MOL0     C32426   2.500  11.896   2.843  0.0106  0.5593  1.4015
  241MOL0     C32427   2.563  11.790   2.780 -0.9328 -0.0753  0.0023
  241MOL0     C32428   2.690  11.816   2.715  0.0179  0.7599 -0.7184
  241MOL0     C32429   2.507  11.661   2.793 -0.2233 -0.3589  0.2043
  241MOL0     C32430   2.575  11.540   2.748  0.2447  0.6661  0.3436
  241MOL0     O32431   2.509  11.428   2.785 -0.3247  0.3264  0.2214
  241MOL0     C32432   2.580  11.307   2.776  0.5886 -0.1271  0.0843
  241MOL0     C32433   2.714  11.266   2.735  0.3372  0.0424 -0.5968
  241MOL0     C32434   2.752  11.137   2.767  0.8881 -0.3371  0.2589
  241MOL0     C32435   2.661  11.039   2.805  0.7462  0.2115  0.2806
  241MOL0     O32436   2.683  10.898   2.803 -0.2612  0.0207 -0.0195
  241MOL0     C32437   2.810  10.859   2.759 -0.4450 -0.2107  0.3914
  241MOL0     C32438   2.842  10.708   2.780  0.2122 -0.2667 -0.5996
  241MOL0     C32439   2.739  10.618   2.705 -0.4283 -1.1238 -0.7641
  241MOL0     C32440   2.802  10.501   2.629  0.1883 -0.7975 -0.2236
  241MOL0     C32441   2.696  10.405   2.548 -0.1951 -0.0178  0.3349
  241MOL0     C32442   2.771  10.322   2.439 -0.0749  0.2260  0.3231
  241MOL0     C32443   2.672  10.216   2.378  0.2847 -0.3350  0.0955
  241MOL0     C32444   2.718  10.153   2.253 -0.5390 -0.8968 -0.3494
  241MOL0    Cl32445   2.718  10.280   2.120 -0.6135 -0.2963 -0.2994
  241MOL0     C32446   2.533  11.076   2.834  0.7024 -0.2562  0.5569
  241MOL0     C32447   2.492  11.205   2.814 -0.2281 -0.3646  0.2758
  241MOL0     O32448   2.677  11.539   2.676  0.5119  0.1587 -0.3060
  241MOL0     C32449   2.376  11.645   2.835  0.2203 -0.6832  0.4267
  241MOL0     C32450   2.320  11.752   2.896  0.9301  0.3098 -0.3071
  241MOL0     N32451   1.983  12.225   2.731  0.1632 -1.6264  0.5151
  241MOL0     N32452   2.038  12.226   2.613 -0.0691  0.7679  0.6886
  241MOL0     C32453   2.498  11.279   2.027 -0.5541  0.1428  0.1628
  241MOL0     C32454   2.535  11.195   1.918 -0.6041 -0.5622  1.3750
  241MOL0     C32455   2.550  10.920   1.580 -0.4593  1.2382 -0.2599
  241MOL0     C32456   2.415  10.871   1.557  0.1121 -0.2621 -0.7127
  241MOL0     C32457   2.372  10.847   1.424 -0.0725 -0.3702 -0.3138
  241MOL0     C32458   2.467  10.839   1.314  0.3784  0.0721 -1.1953
  241MOL0     O32459   2.459  10.797   1.184 -0.4074 -0.0871 -1.0907
  241MOL0     C32460   2.335  10.798   1.109  0.0306  0.2835 -0.5607
  241MOL0     C32461   2.287  10.936   1.071 -0.6933 -0.1445  0.1480
  241MOL0     C32462   2.150  10.935   1.007 -0.5030 -1.5017  1.0094
  241MOL0     C32463   2.127  11.069   0.928 -0.4601 -0.1101 -0.9324
  241MOL0     C32464   2.196  11.083   0.797  0.0221  0.0638  0.5808
  241MOL0     C32465   2.264  11.087   0.695  0.0446  0.2632 -0.5011
  241MOL0     C32466   2.594  10.882   1.345  0.0565 -0.1918  0.4786
  241MOL0     C32467   2.638  10.921   1.472 -1.2730 -0.2559  0.2043
  241MOL0     H32468   2.482  10.891   2.048  1.8932 -0.1110  3.2265
  241MOL0     H32469   2.440  11.038   2.252  2.1710  1.4273  0.2252
  241MOL0     H32470   2.307  11.225   2.380 -0.2558  4.1062  0.1598
  241MOL0     H32471   2.478  11.201   2.431  1.1851  1.7637  1.1031
  241MOL0     H32472   2.376  11.329   2.562 -2.0018 -0.7281 -0.8291
  241MOL0     H32473   2.487  11.442   2.461 -0.6652  0.3454 -0.8118
  241MOL0     H32474   2.298  11.489   2.321  0.9833 -1.5903 -0.3328
  241MOL0     H32475   2.170  11.440   2.439  0.5176 -1.6606 -1.5863
  241MOL0     H32476   2.268  11.620   2.607  2.3362 -0.5132  0.3122
  241MOL0     H32477   2.396  11.648   2.488 -0.0739  2.9339 -0.5561
  241MOL0     H32478   2.224  11.743   2.325 -1.2445 -1.6453 -0.8345
  241MOL0     H32479   2.098  11.703   2.424 -0.9018 -0.7572  0.3835
  241MOL0     H32480   2.217  11.858   2.609  0.3286 -0.4321  1.0919
  241MOL0     H32481   2.331  11.895   2.477 -0.7667  0.2448 -0.3529
  241MOL0     H32482   2.191  11.976   2.324 -0.3636 -1.5503 -0.7361
  241MOL0     H32483   2.052  11.995   2.421  0.0048  1.2332 -1.6077
  241MOL0     H32484   2.189  12.199   2.415 -0.4664 -2.4520 -2.0012
  241MOL0     H32485   2.319  12.124   2.502  0.0055 -1.9683 -1.5276
  241MOL0     H32486   2.234  12.026   2.768 -3.4799 -4.1293  0.0930
  241MOL0     H32487   1.925  12.148   2.975  0.1481  2.4748  3.0564
  241MOL0     H32488   2.048  12.018   2.972  3.9097  0.4053 -0.1207
  241MOL0     H32489   2.056  12.255   3.120  0.2631 -0.7298  0.9023
  241MOL0     H32490   2.170  12.291   2.988 -1.0469 -1.2581 -3.1304
  241MOL0     H32491   2.198  12.055   3.169 -2.9288  0.9538 -0.7597
  241MOL0     H32492   2.296  12.199   3.185 -0.2037 -0.9035  0.0517
  241MOL0     H32493   2.448  12.084   3.060 -0.4236  2.9433  2.3622
  241MOL0     H32494   2.366  12.163   2.932  2.4393 -1.4139 -2.0507
  241MOL0     H32495   2.535  11.998   2.840 -1.4385  1.1574  2.7987
  241MOL0     H32496   2.771  11.754   2.753  1.2945  2.9087  0.2802
  241MOL0     H32497   2.679  11.798   2.608  0.9987 -2.5161 -0.3538
  241MOL0     H32498   2.713  11.922   2.735 -0.3440  0.1324  4.3562
  241MOL0     H32499   2.794  11.332   2.702  2.2041 -0.2095  2.9358
  241MOL0     H32500   2.856  11.111   2.748  1.1821 -2.7213  4.0385
  241MOL0     H32501   2.818  10.876   2.651  2.1640 -0.0195  0.5458
  241MOL0     H32502   2.886  10.906   2.822  0.7507  0.1246 -1.2334
  241MOL0     H32503   2.944  10.677   2.756  1.4733  0.6587  2.9163
  241MOL0     H32504   2.842  10.696   2.889 -1.5260 -0.0968 -0.5552
  241MOL0     H32505   2.665  10.667   2.641 -1.8149 -2.2663 -0.1122
  241MOL0     H32506   2.679  10.578   2.788  1.5492  1.4515  2.1540
  241MOL0     H32507   2.859  10.544   2.546 -2.0645 -1.7548 -2.3828
  241MOL0     H32508   2.864  10.444   2.699  2.0356  1.8670  0.4846
  241MOL0     H32509   2.623  10.472   2.501 -1.2386 -1.0295  0.4565
  241MOL0     H32510   2.644  10.343   2.622 -0.4360  1.3988  1.3757
  241MOL0     H32511   2.814  10.381   2.358 -1.6699 -1.4203 -1.8268
  241MOL0     H32512   2.845  10.267   2.499  1.1708  1.6370  0.1390
  241MOL0     H32513   2.570  10.248   2.357 -1.3103 -4.1212  1.3303
  241MOL0     H32514   2.658  10.139   2.454 -1.0853  1.2455  1.5273
  241MOL0     H32515   2.652  10.067   2.238 -1.5637 -1.4188  5.1733
  241MOL0     H32516   2.822  10.132   2.281 -0.7673 -0.0556  1.2251
  241MOL0     H32517   2.455  11.003   2.856 -1.6409  1.9362  0.0873
  241MOL0     H32518   2.390  11.224   2.845 -1.1372 -3.7128 -0.2087
  241MOL0     H32519   2.324  11.551   2.819  1.5519 -1.7867  2.1934
  241MOL0     H32520   2.218  11.746   2.932  0.8824  0.6111 -0.3934
  241MOL0     H32521   2.487  11.386   2.018  4.1754  1.0270  1.8484
  241MOL0     H32522   2.561  11.243   1.824 -4.1417  0.8574  0.9664
  241MOL0     H32523   2.339  10.874   1.634 -0.7997 -0.6267 -1.5758
  241MOL0     H32524   2.270  10.813   1.408  0.1107 -1.3355  0.4754
  241MOL0     H32525   2.341  10.740   1.017  1.4058 -0.8701  0.2208
  241MOL0     H32526   2.255  10.752   1.168  0.4993 -0.0980 -0.2152
  241MOL0     H32527   2.352  10.981   0.995 -0.3994 -1.0058 -0.1197
  241MOL0     H32528   2.279  10.998   1.160  1.8913 -0.1887  0.5059
  241MOL0     H32529   2.079  10.926   1.089 -0.3336  0.1835  1.3757
  241MOL0     H32530   2.143  10.850   0.938  2.1290 -0.8400 -0.2071
  241MOL0     H32531   2.154  11.158   0.985 -0.7636 -0.0618 -0.8594
  241MOL0     H32532   2.020  11.088   0.915 -0.5995  1.9383  2.0989
  241MOL0     H32533   2.332  11.068   0.613  0.5002  0.8813 -0.2751
  241MOL0     H32534   2.668  10.908   1.270  0.7488  1.5429  1.6703
  241MOL0     H32535   2.740  10.953   1.487 -0.9682 -2.1875  3.3255
  242MOL0     O32536  11.171  10.988   1.011 -0.5658 -0.9159 -0.4720
  242MOL0     C32537  11.049  10.971   0.974 -0.5262  0.7983 -0.5848
  242MOL0     O32538  10.977  10.858   1.002 -0.5628 -0.0118  0.1822
  242MOL0     C32539  11.015  10.770   1.103  0.6681  0.2216 -0.3100
  242MOL0     C32540  11.008  10.635   1.083  0.4760 -0.2248  0.2818
  242MOL0     C32541  11.034  10.540   1.190 -0.0481 -0.0829  1.9454
  242MOL0     C32542  11.093  10.582   1.313  0.7218 -0.3813  0.3087
  242MOL0     O32543  11.113  10.508   1.435  0.1777  0.3776 -0.0093
  242MOL0     C32544  11.076  10.367   1.428 -0.2137  0.2223 -0.1266
  242MOL0     C32545  11.071  10.310   1.573 -0.6219  0.3682  0.4360
  242MOL0     C32546  10.951  10.362   1.665 -0.5060  0.7757  1.1403
  242MOL0     C32547  10.967  10.511   1.704  0.4540  0.2238  0.1186
  242MOL0     C32548  10.892  10.560   1.836 -0.3176  0.2701 -1.1449
  242MOL0     C32549  10.911  10.461   1.961  0.1914  0.8657  1.4460
  242MOL0     C32550  11.035  10.462   2.033  0.3801  0.0982  0.0226
  242MOL0     C32551  11.035  10.368   2.159  0.1207 -0.6469 -0.3277
  242MOL0     N32552  11.036  10.228   2.117 -0.0216 -0.9283 -0.4278
  242MOL0     C32553  11.140  10.150   2.070 -0.8586 -0.6420  0.0407
  242MOL0     C32554  11.082  10.035   2.036 -1.3593 -0.4239  0.0938
  242MOL0     C32555  11.157   9.942   1.944  0.2120 -0.3769 -0.0130
  242MOL0     C32556  11.155   9.991   1.799  0.3998 -0.2734 -0.2927
  242MOL0     C32557  11.232   9.892   1.702 -0.4544  0.8515 -0.6240
  242MOL0     C32558  11.206   9.939   1.551 -0.0742 -0.6448  0.1712
  242MOL0     O32559  11.096   9.862   1.504  0.1387 -0.7509  0.0434
  242MOL0     C32560  11.027   9.896   1.392 -0.2471  0.1492 -0.1823
  242MOL0     C32561  10.949   9.794   1.337 -0.3700  0.2687 -0.5440
  242MOL0     C32562  10.887   9.802   1.208  1.5529 -0.7433 -0.7411
  242MOL0     C32563  10.808   9.679   1.143 -0.5030 -0.1032 -0.2532
  242MOL0     C32564  10.894   9.923   1.139  0.1892  0.9462  0.9823
  242MOL0     C32565  10.833   9.963   1.007 -0.1264 -0.5589 -0.2557
  242MOL0     O32566  10.901  10.055   0.935  0.5022  0.3108 -0.7396
  242MOL0     C32567  10.836  10.125   0.835  0.0110 -0.2464 -0.0716
  242MOL0     C32568  10.697  10.148   0.826 -0.8703 -0.7273 -0.5714
  242MOL0     C32569  10.642  10.228   0.723 -0.5887 -0.3766 -0.3942
  242MOL0     C32570  10.730  10.294   0.629 -0.1989  1.4944  0.1888
  242MOL0     O32571  10.675  10.378   0.539 -0.3586  0.5538 -0.2789
  242MOL0     C32572  10.714  10.375   0.399 -0.4692  0.4131 -0.1274
  242MOL0     C32573  10.832  10.473   0.376 -0.8966  0.2592 -0.2633
  242MOL0     C32574  10.781  10.622   0.356  0.0799  0.2962 -0.3690
  242MOL0     C32575  10.904  10.713   0.320  1.1315  0.6440  0.2791
  242MOL0     C32576  11.001  10.670   0.206 -0.9056 -0.0085 -0.0816
  242MOL0     C32577  11.106  10.768   0.180  0.1337  0.4776  0.3682
  242MOL0     C32578  11.213  10.775   0.287 -0.2371  0.4688  0.1185
  242MOL0     C32579  11.333  10.844   0.215  0.9798  0.5910 -0.3207
  242MOL0    Cl32580  11.273  11.009   0.179  0.0898 -0.3931 -0.0143
  242MOL0     C32581  10.867  10.260   0.637 -0.3584 -0.6379 -0.0501
  242MOL0     C32582  10.921  10.184   0.744  0.5864 -0.5099  0.0799
  242MOL0     O32583  10.730   9.902   0.968  0.1908 -0.4106  0.0410
  242MOL0     C32584  10.978  10.014   1.197  0.1350  0.4942 -0.2712
  242MOL0     C32585  11.042  10.010   1.318 -1.0731  0.4364 -0.3911
  242MOL0     N32586  10.946  10.036   2.064 -0.5028 -1.2736 -0.3000
  242MOL0     N32587  10.917  10.157   2.112 -0.9578  0.2842 -0.2270
  242MOL0     C32588  11.115  10.715   1.331  0.2930  0.4629  0.4209
  242MOL0     C32589  11.081  10.805   1.223 -0.0162  0.5722 -0.4386
  242MOL0     C32590  10.986  11.077   0.881  0.3366  1.2724  0.4037
  242MOL0     C32591  10.848  11.071   0.852  0.7224 -0.0763 -0.3571
  242MOL0     C32592  10.796  11.175   0.778  0.7334 -0.9201  1.5526
  242MOL0     C32593  10.871  11.284   0.735 -0.6465 -0.7774 -0.1956
  242MOL0     O32594  10.797  11.392   0.680  0.2781  0.4901 -0.1195
  242MOL0     C32595  10.861  11.522   0.649  0.1608  0.1048 -0.4900
  242MOL0     C32596  10.885  11.597   0.781 -1.0465  0.4418 -0.0371
  242MOL0     C32597  10.760  11.692   0.800  0.0790 -0.6386 -0.5932
  242MOL0     C32598  10.759  11.816   0.708 -0.5691 -0.5578 -0.2436
  242MOL0     C32599  10.672  11.926   0.761  0.3449 -0.1982  1.1965
  242MOL0     C32600  10.589  12.008   0.813  0.8641  0.4090 -0.0709
  242MOL0     C32601  11.007  11.275   0.764  0.2487 -0.1508 -0.6377
  242MOL0     C32602  11.069  11.176   0.833  0.3254  0.9067 -0.4023
  242MOL0     H32603  10.965  10.603   0.988  0.6099 -2.5322  0.9469
  242MOL0     H32604  11.011  10.438   1.162 -0.1875  0.1371  1.2556
  242MOL0     H32605  10.979  10.371   1.379  0.8720  4.7854 -2.4559
  242MOL0     H32606  11.156  10.327   1.365  1.2720  1.1331  1.1110
  242MOL0     H32607  11.056  10.202   1.560  2.2838  0.0873 -1.4644
  242MOL0     H32608  11.161  10.330   1.631 -0.0102  0.5930 -0.5707
  242MOL0     H32609  10.855  10.369   1.612  0.9232 -0.0940 -1.7507
  242MOL0     H32610  10.935  10.297   1.751  1.4160 -0.8599  0.3221
  242MOL0     H32611  11.075  10.521   1.721  0.4949 -0.8580  0.6575
  242MOL0     H32612  10.934  10.578   1.625 -3.6921  1.0689  2.2853
  242MOL0     H32613  10.923  10.663   1.856 -0.1102  0.4905 -2.4918
  242MOL0     H32614  10.786  10.556   1.810 -0.5642 -2.6316 -0.0832
  242MOL0     H32615  10.835  10.485   2.036  0.7007  2.4635  1.4730
  242MOL0     H32616  10.878  10.363   1.924  1.6561  0.5286  0.9883
  242MOL0     H32617  11.114  10.436   1.961  0.1330  1.2216 -0.6864
  242MOL0     H32618  11.052  10.565   2.064 -3.6188  1.8882 -2.8126
  242MOL0     H32619  10.946  10.390   2.220  0.0657  2.3596 -1.3149
  242MOL0     H32620  11.123  10.372   2.224  0.3219 -3.1771 -0.3419
  242MOL0     H32621  11.245  10.170   2.054 -0.5102 -1.0317  1.7382
  242MOL0     H32622  11.262   9.942   1.975 -0.2894  1.2212  1.8519
  242MOL0     H32623  11.118   9.840   1.954  0.2575 -0.2202  2.1119
  242MOL0     H32624  11.205  10.087   1.787 -1.7357  0.6243 -3.6524
  242MOL0     H32625  11.052  10.004   1.762 -0.0114 -2.3072 -0.0004
  242MOL0     H32626  11.197   9.788   1.703  0.2471  0.5334 -2.9823
  242MOL0     H32627  11.337   9.885   1.729 -0.8246 -1.8806  0.4987
  242MOL0     H32628  11.291   9.929   1.483  0.0815 -0.9400  0.4081
  242MOL0     H32629  11.165  10.040   1.563 -0.9824 -0.9149 -0.5288
  242MOL0     H32630  10.947   9.702   1.395  2.2982 -0.4823 -1.4761
  242MOL0     H32631  10.845   9.586   1.186  1.7880  1.0810  0.4932
  242MOL0     H32632  10.703   9.695   1.169 -1.5283 -4.0626 -1.2692
  242MOL0     H32633  10.816   9.663   1.035  1.4512 -0.3812 -0.1009
  242MOL0     H32634  10.617  10.115   0.892 -1.8740  0.1000 -1.3424
  242MOL0     H32635  10.539  10.262   0.727 -0.7136 -0.8583  0.7929
  242MOL0     H32636  10.743  10.273   0.369 -0.4590  0.1469  0.7556
  242MOL0     H32637  10.633  10.395   0.328  0.3876  0.7879 -1.0224
  242MOL0     H32638  10.895  10.466   0.465 -3.7344 -1.6633  1.7680
  242MOL0     H32639  10.875  10.439   0.282 -0.2056 -1.2252  0.5620
  242MOL0     H32640  10.735  10.658   0.448 -0.2034  0.0831 -0.4265
  242MOL0     H32641  10.706  10.617   0.277 -1.4739 -0.2916  1.0862
  242MOL0     H32642  10.858  10.810   0.297 -0.6228  0.0377  1.0544
  242MOL0     H32643  10.964  10.729   0.409  1.8654 -1.2176  0.1489
  242MOL0     H32644  10.954  10.649   0.109 -4.5951 -0.3225  1.6157
  242MOL0     H32645  11.052  10.580   0.241 -1.8651 -1.2452 -1.6881
  242MOL0     H32646  11.155  10.740   0.086  2.4785 -0.3993  1.7513
  242MOL0     H32647  11.066  10.868   0.165  1.8552  1.0739 -0.4141
  242MOL0     H32648  11.244  10.672   0.309  1.4232  1.2550  1.7184
  242MOL0     H32649  11.195  10.827   0.381  1.4608 -0.7988  1.1915
  242MOL0     H32650  11.364  10.801   0.119  0.7663 -0.8138  0.2155
  242MOL0     H32651  11.429  10.844   0.267  0.7445  0.8719  0.1216
  242MOL0     H32652  10.933  10.309   0.566 -1.8925  3.4964  1.0951
  242MOL0     H32653  11.029  10.178   0.747  0.5418 -1.2392  0.4253
  242MOL0     H32654  10.989  10.109   1.145  0.2902  0.1829 -0.8103
  242MOL0     H32655  11.117  10.089   1.322  0.0948 -0.0062 -5.6805
  242MOL0     H32656  11.165  10.748   1.422 -0.3597  1.1174  0.5530
  242MOL0     H32657  11.102  10.909   1.247 -2.4764  1.2279 -0.8130
  242MOL0     H32658  10.774  11.000   0.888  1.4221  0.0469  1.4516
  242MOL0     H32659  10.691  11.172   0.750  0.9548 -0.5477  0.6516
  242MOL0     H32660  10.953  11.505   0.591 -0.8510 -0.0319 -2.1207
  242MOL0     H32661  10.789  11.568   0.580  0.8967  0.3082 -1.1411
  242MOL0     H32662  10.974  11.659   0.768 -0.7150 -0.1788 -0.8041
  242MOL0     H32663  10.903  11.534   0.869  0.0970  3.7683  2.3195
  242MOL0     H32664  10.771  11.737   0.900 -0.7199  2.8441 -1.9409
  242MOL0     H32665  10.662  11.646   0.783 -1.3344 -0.4604  4.9176
  242MOL0     H32666  10.735  11.780   0.608 -0.8844 -3.3053  0.7393
  242MOL0     H32667  10.865  11.845   0.704 -0.3600 -0.0807  3.8933
  242MOL0     H32668  10.518  12.079   0.850  1.7650  0.3299  1.9407
  242MOL0     H32669  11.065  11.363   0.740  0.2212 -0.2067 -0.9082
  242MOL0     H32670  11.176  11.180   0.849  0.7721 -3.0504 -1.5063
  243MOL0     O32671   9.106   2.769  10.591  0.3146  0.7688 -0.0804
  243MOL0     C32672   8.994   2.812  10.600  0.3775 -0.1538  0.3652
  243MOL0     O32673   8.929   2.882  10.495  0.2202 -0.5525 -0.5643
  243MOL0     C32674   8.960   2.866  10.366 -1.3334 -0.3069  0.6298
  243MOL0     C32675   9.059   2.785  10.300 -0.1346 -0.1898 -0.2543
  243MOL0     C32676   9.087   2.792  10.160 -0.0762 -0.7139  0.7660
  243MOL0     C32677   9.010   2.886  10.077  1.3027  0.0353  0.5009
  243MOL0     O32678   9.028   2.888   9.937  0.1125  0.1144 -0.4173
  243MOL0     C32679   8.944   2.966   9.850 -0.5125  0.0204 -0.1602
  243MOL0     C32680   9.001   2.962   9.704  0.2564 -0.0150  0.2458
  243MOL0     C32681   8.990   2.818   9.645  0.7418 -1.2216  0.8072
  243MOL0     C32682   8.849   2.811   9.572 -0.3386 -0.0938  0.5117
  243MOL0     C32683   8.819   2.672   9.525  0.4238 -0.7601  0.1584
  243MOL0     C32684   8.669   2.636   9.515 -0.7452 -0.8298 -0.7076
  243MOL0     C32685   8.591   2.612   9.642 -0.6969  0.2669  0.0341
  243MOL0     C32686   8.652   2.492   9.725 -1.0805 -0.1753 -0.5712
  243MOL0     N32687   8.562   2.456   9.840 -0.2819  0.1762 -0.4359
  243MOL0     C32688   8.619   2.389   9.941 -0.6979 -0.3946 -0.6279
  243MOL0     C32689   8.525   2.395  10.036  0.0475  0.9918 -0.3695
  243MOL0     C32690   8.543   2.336  10.177  0.2731  0.0289  0.6517
  243MOL0     C32691   8.507   2.185  10.166  0.0601 -0.6041  0.3633
  243MOL0     C32692   8.500   2.126  10.300 -0.0597 -0.2336 -0.5553
  243MOL0     C32693   8.423   1.991  10.268 -0.2998  0.4251 -0.1515
  243MOL0     O32694   8.433   1.892  10.376 -0.6388  0.0324  0.5901
  243MOL0     C32695   8.345   1.890  10.482  1.4222  0.6018 -0.4461
  243MOL0     C32696   8.350   1.771  10.566  0.3504  0.1360  0.8585
  243MOL0     C32697   8.257   1.757  10.670  0.1376  0.0142  0.4638
  243MOL0     C32698   8.258   1.636  10.756  0.1679 -0.1588 -0.6598
  243MOL0     C32699   8.163   1.854  10.697 -0.6440 -0.2001 -0.5234
  243MOL0     C32700   8.058   1.858  10.807  1.2976  0.1969  1.4752
  243MOL0     O32701   8.101   1.850  10.937  0.1603  0.3401  0.3424
  243MOL0     C32702   8.012   1.811  11.036 -0.3940  0.4409 -0.7357
  243MOL0     C32703   8.045   1.850  11.167 -0.2385  0.5040  0.4515
  243MOL0     C32704   7.978   1.788  11.281  0.3367 -0.0081  0.2273
  243MOL0     C32705   7.864   1.707  11.256  0.1335  0.2126  0.2440
  243MOL0     O32706   7.791   1.670  11.369  0.2126  0.1149  0.3677
  243MOL0     C32707   7.644   1.684  11.363 -1.1015 -0.5106  0.3192
  243MOL0     C32708   7.600   1.583  11.465 -0.0405 -0.1002  1.0387
  243MOL0     C32709   7.448   1.557  11.476 -0.4389 -0.4236 -0.3234
  243MOL0     C32710   7.375   1.688  11.516 -0.2803  0.8601  0.3068
  243MOL0     C32711   7.247   1.658  11.600 -0.4454 -0.1642 -0.4991
  243MOL0     C32712   7.284   1.643  11.756 -0.3192  0.0990 -1.3800
  243MOL0     C32713   7.153   1.662  11.840 -0.2813  0.2562  0.3467
  243MOL0     C32714   7.183   1.661  11.989  0.8364 -0.0994 -0.5281
  243MOL0    Cl32715   7.222   1.491  12.041 -0.8624 -0.2742  0.2703
  243MOL0     C32716   7.816   1.674  11.132 -0.0780 -0.1796  0.3590
  243MOL0     C32717   7.904   1.719  11.020  0.7921 -0.7497  0.4111
  243MOL0     O32718   7.940   1.874  10.773 -0.4150  0.4065  0.1104
  243MOL0     C32719   8.164   1.969  10.615  0.7810 -0.0925 -0.4005
  243MOL0     C32720   8.246   1.979  10.505  0.4562 -0.9836 -0.5599
  243MOL0     N32721   8.407   2.457   9.988 -0.6706  0.3925 -0.1449
  243MOL0     N32722   8.431   2.486   9.865 -0.3228  0.6489  1.0005
  243MOL0     C32723   8.933   2.980  10.136 -0.1405  0.1898 -0.2403
  243MOL0     C32724   8.901   2.960  10.277  0.6030  0.4165  0.6329
  243MOL0     C32725   8.941   2.812  10.737  0.8737 -0.0496  0.1675
  243MOL0     C32726   8.986   2.718  10.826  0.1576 -0.3046 -0.4511
  243MOL0     C32727   8.937   2.728  10.957 -0.2964 -0.2749 -0.1629
  243MOL0     C32728   8.844   2.828  11.001 -0.3363  0.3062  0.2411
  243MOL0     O32729   8.802   2.838  11.132 -0.1260  0.5605  0.0044
  243MOL0     C32730   8.860   2.765  11.234 -0.4862  0.4463  0.6681
  243MOL0     C32731   8.770   2.784  11.359 -0.5708 -0.2913  1.4729
  243MOL0     C32732   8.792   2.922  11.424  0.0825 -1.4550  0.6691
  243MOL0     C32733   8.923   2.944  11.492 -0.6163  0.8963 -0.1072
  243MOL0     C32734   8.960   2.850  11.602  0.4757 -0.5199  0.3622
  243MOL0     C32735   8.993   2.771  11.688 -0.9661  0.0013 -0.9465
  243MOL0     C32736   8.799   2.915  10.915 -0.4659  0.1509  0.5214
  243MOL0     C32737   8.850   2.908  10.785  0.6086  0.0396 -0.4514
  243MOL0     H32738   9.115   2.707  10.351 -2.5123 -1.4138  0.6228
  243MOL0     H32739   9.139   2.712  10.109  1.1110  0.0115  0.8223
  243MOL0     H32740   8.838   2.938   9.860 -0.5839  0.6846  1.1327
  243MOL0     H32741   8.953   3.069   9.885 -2.4455 -0.6594  2.6933
  243MOL0     H32742   8.934   3.026   9.646  0.3322  0.1036  0.2896
  243MOL0     H32743   9.102   3.003   9.694  1.3306 -2.3881  0.6224
  243MOL0     H32744   9.062   2.806   9.563 -0.7836  3.6960 -1.6148
  243MOL0     H32745   9.002   2.744   9.724  1.3617 -2.2465 -0.2060
  243MOL0     H32746   8.766   2.845   9.634 -0.6694  1.8090 -0.8864
  243MOL0     H32747   8.859   2.877   9.485  0.4808 -0.6311  0.1924
  243MOL0     H32748   8.848   2.658   9.421 -1.1929 -2.0219 -0.1712
  243MOL0     H32749   8.872   2.598   9.586  2.1394  0.4532  0.2134
  243MOL0     H32750   8.618   2.707   9.448 -1.0535 -1.9484 -1.6939
  243MOL0     H32751   8.661   2.541   9.463 -2.5265 -2.1502  1.7955
  243MOL0     H32752   8.593   2.696   9.712 -0.1767 -0.4258  0.8742
  243MOL0     H32753   8.491   2.576   9.617  0.5870 -3.0913 -0.8601
  243MOL0     H32754   8.749   2.527   9.760 -1.8143  1.1103  0.2684
  243MOL0     H32755   8.660   2.416   9.647  0.4595  0.2010 -0.7973
  243MOL0     H32756   8.718   2.347   9.950 -0.6946  0.1495  3.3851
  243MOL0     H32757   8.641   2.360  10.219  0.0089 -0.8092  1.7898
  243MOL0     H32758   8.477   2.391  10.246  0.0496 -1.3563  1.5832
  243MOL0     H32759   8.586   2.148  10.100 -1.6562 -0.7801 -1.6870
  243MOL0     H32760   8.409   2.178  10.118  0.7023  0.4712 -1.2193
  243MOL0     H32761   8.454   2.186  10.379 -3.0958 -2.7823 -0.1924
  243MOL0     H32762   8.599   2.107  10.342 -1.1623 -2.4381  1.2591
  243MOL0     H32763   8.477   1.942  10.186 -1.8923 -2.3795  0.3391
  243MOL0     H32764   8.316   2.003  10.248 -0.8660 -1.7744  1.2172
  243MOL0     H32765   8.420   1.691  10.542  0.6592  0.0905  1.8648
  243MOL0     H32766   8.340   1.640  10.829 -1.3912 -0.0791  1.1869
  243MOL0     H32767   8.160   1.624  10.804 -0.6576  0.8571 -2.0341
  243MOL0     H32768   8.277   1.547  10.695 -1.8500 -0.6608 -0.6245
  243MOL0     H32769   8.130   1.913  11.192 -0.8293  1.6696 -0.3781
  243MOL0     H32770   8.012   1.817  11.380 -0.7251  2.1834  0.0163
  243MOL0     H32771   7.613   1.785  11.389  2.0778  0.8644 -0.7429
  243MOL0     H32772   7.598   1.669  11.265 -1.9068  1.0755  0.4345
  243MOL0     H32773   7.642   1.484  11.446  2.6346  0.7253  2.1079
  243MOL0     H32774   7.647   1.611  11.560  3.7899  0.7056 -0.9127
  243MOL0     H32775   7.432   1.484  11.557  1.4057  0.1582  0.6221
  243MOL0     H32776   7.423   1.519  11.377  1.0459  1.7915 -1.6145
  243MOL0     H32777   7.442   1.750  11.577  0.0020 -0.1806  1.0891
  243MOL0     H32778   7.349   1.747  11.428  1.8427  0.1458 -0.8826
  243MOL0     H32779   7.183   1.579  11.560  0.4811 -2.2512  1.8610
  243MOL0     H32780   7.192   1.752  11.595 -0.9828 -0.4999 -1.1319
  243MOL0     H32781   7.338   1.552  11.784 -3.4075 -0.6455  3.3543
  243MOL0     H32782   7.351   1.727  11.776 -0.8074  0.6026 -1.8149
  243MOL0     H32783   7.082   1.583  11.811 -1.3508  1.4723 -0.4516
  243MOL0     H32784   7.100   1.753  11.810  0.9713 -0.0696 -3.3581
  243MOL0     H32785   7.104   1.709  12.048  1.2904  1.3543 -1.0500
  243MOL0     H32786   7.267   1.729  12.010  0.4980 -0.1642  1.2126
  243MOL0     H32787   7.742   1.599  11.111  0.6010 -0.0968 -3.0072
  243MOL0     H32788   7.881   1.682  10.920 -0.5242  1.6634 -0.2599
  243MOL0     H32789   8.093   2.044  10.647 -3.4349 -2.7738 -2.4577
  243MOL0     H32790   8.240   2.067  10.442  1.1166 -2.2021 -2.4281
  243MOL0     H32791   8.879   3.059  10.085  0.4788  0.1478 -0.9793
  243MOL0     H32792   8.839   3.034  10.326 -0.5745 -2.3932  3.8174
  243MOL0     H32793   9.046   2.634  10.791  3.2501  1.3928  0.3901
  243MOL0     H32794   8.959   2.640  11.016  0.4568 -1.3511 -1.9681
  243MOL0     H32795   8.865   2.659  11.207  1.6298 -0.1454  3.0181
  243MOL0     H32796   8.963   2.796  11.250  0.3900 -1.3151 -1.1144
  243MOL0     H32797   8.796   2.702  11.427  1.6685 -1.7429 -0.9422
  243MOL0     H32798   8.664   2.786  11.333 -0.6081 -2.5481  1.2300
  243MOL0     H32799   8.719   2.920  11.505  2.5732 -2.0096  3.0593
  243MOL0     H32800   8.775   3.004  11.354  0.2291 -2.9581 -1.2397
  243MOL0     H32801   8.936   3.044  11.533  5.2732  0.8309 -1.0103
  243MOL0     H32802   9.003   2.935  11.418  1.5148  1.6884  1.9833
  243MOL0     H32803   9.020   2.700  11.764  0.5726  0.9966 -0.5236
  243MOL0     H32804   8.730   2.995  10.938 -1.5527 -1.6580  4.4204
  243MOL0     H32805   8.821   2.995  10.727  1.6253  2.5787  2.5693
  244MOL0     O32806   3.529   9.450   9.018 -0.1626 -0.0021  0.4188
  244MOL0     C32807   3.497   9.446   8.894 -0.2769 -1.0122 -1.0881
  244MOL0     O32808   3.566   9.374   8.796 -0.3426  0.3978 -0.3409
  244MOL0     C32809   3.672   9.289   8.836  0.1336  0.0423  0.4052
  244MOL0     C32810   3.794   9.307   8.767  0.7321 -0.7328 -0.4558
  244MOL0     C32811   3.901   9.235   8.804 -0.5232 -0.4025 -0.0390
  244MOL0     C32812   3.888   9.126   8.892 -0.0618  0.0284 -0.1489
  244MOL0     O32813   3.996   9.050   8.934  0.2114  0.4859  0.0957
  244MOL0     C32814   4.090   8.996   8.830  0.8225  0.0890 -0.0456
  244MOL0     C32815   4.232   9.031   8.868  0.1268 -0.2387 -0.4883
  244MOL0     C32816   4.338   8.923   8.828 -0.6888  0.0699  0.8272
  244MOL0     C32817   4.307   8.789   8.894  0.1962  0.6307 -0.7809
  244MOL0     C32818   4.414   8.710   8.824  1.2211  1.2139 -0.0540
  244MOL0     C32819   4.413   8.570   8.887  0.1522 -0.0186  0.7253
  244MOL0     C32820   4.472   8.468   8.792 -0.1199  0.4916  0.4745
  244MOL0     C32821   4.496   8.335   8.870 -0.7235  0.6760  0.0631
  244MOL0     N32822   4.532   8.214   8.791  0.6399 -0.1333 -0.7655
  244MOL0     C32823   4.628   8.132   8.834  0.2040  0.3451 -0.0324
  244MOL0     C32824   4.650   8.042   8.735 -0.8588 -0.3605 -0.6451
  244MOL0     C32825   4.762   7.934   8.753 -1.4148 -1.0120  0.1149
  244MOL0     C32826   4.910   7.988   8.717 -0.1234  0.0825  0.1851
  244MOL0     C32827   5.025   7.885   8.732  0.0915 -0.1730  0.1212
  244MOL0     C32828   4.999   7.755   8.667  0.2489 -0.0255  0.0023
  244MOL0     O32829   5.128   7.700   8.651 -0.5808 -1.4263 -1.1614
  244MOL0     C32830   5.140   7.594   8.564 -0.7561  0.2269 -0.7163
  244MOL0     C32831   5.030   7.517   8.521  0.8624 -0.2967 -0.2730
  244MOL0     C32832   5.046   7.413   8.434  0.7274 -0.5297 -0.3670
  244MOL0     C32833   4.928   7.331   8.400 -0.1607 -0.5155  0.1565
  244MOL0     C32834   5.178   7.389   8.381  0.0777 -0.4962 -0.3386
  244MOL0     C32835   5.195   7.272   8.285  0.4432 -1.2034 -0.4702
  244MOL0     O32836   5.124   7.157   8.312 -0.8427  1.0417 -0.1841
  244MOL0     C32837   5.139   7.054   8.227  0.3381 -0.8057  0.6989
  244MOL0     C32838   5.261   6.999   8.196 -0.1513  0.2828 -0.3491
  244MOL0     C32839   5.272   6.878   8.125 -0.4272 -0.1177 -0.0676
  244MOL0     C32840   5.162   6.817   8.065  0.2395 -1.0204 -0.4236
  244MOL0     O32841   5.166   6.719   7.975 -0.0121 -0.1094  0.0643
  244MOL0     C32842   5.264   6.708   7.868 -0.0023 -0.5541 -0.7629
  244MOL0     C32843   5.233   6.611   7.762  0.4009 -0.0295  0.5281
  244MOL0     C32844   5.204   6.464   7.806 -0.7778  0.0996 -0.3004
  244MOL0     C32845   5.339   6.401   7.839  0.4368  0.4692  0.1452
  244MOL0     C32846   5.367   6.336   7.971  0.5223 -0.6977 -0.5030
  244MOL0     C32847   5.405   6.425   8.094 -0.0159 -0.9727  0.0964
  244MOL0     C32848   5.419   6.342   8.221  0.2530 -0.0729 -0.2017
  244MOL0     C32849   5.494   6.207   8.209 -0.6251 -0.4261 -0.5327
  244MOL0    Cl32850   5.661   6.224   8.130 -0.1312 -0.3895  0.3575
  244MOL0     C32851   5.039   6.875   8.095  0.0849  0.5005  0.2735
  244MOL0     C32852   5.027   7.003   8.163  0.7303 -0.4441  1.1813
  244MOL0     O32853   5.286   7.282   8.205 -0.6245  0.0146 -0.1288
  244MOL0     C32854   5.283   7.480   8.401 -0.0545  0.6459  0.2495
  244MOL0     C32855   5.271   7.570   8.500  0.1298 -0.0753 -0.2474
  244MOL0     N32856   4.568   8.079   8.631 -0.2927  0.6332  0.5996
  244MOL0     N32857   4.490   8.178   8.660  0.0126 -0.9418 -0.4177
  244MOL0     C32858   3.771   9.106   8.950  0.9170  0.1187 -0.0783
  244MOL0     C32859   3.653   9.187   8.922  0.3992  0.9580 -0.6163
  244MOL0     C32860   3.379   9.521   8.843 -0.6583  0.0370 -0.5633
  244MOL0     C32861   3.344   9.519   8.708 -0.5796 -0.7323 -0.7953
  244MOL0     C32862   3.234   9.584   8.657 -0.1107 -1.0557 -0.6320
  244MOL0     C32863   3.142   9.647   8.743 -0.6125  0.3098  0.3201
  244MOL0     O32864   3.023   9.702   8.709  0.1176 -0.0649  1.4054
  244MOL0     C32865   2.974   9.665   8.580  0.2460  0.1026 -0.7143
  244MOL0     C32866   2.917   9.524   8.575  0.7854  0.8898  0.4765
  244MOL0     C32867   2.811   9.495   8.685 -0.6118 -0.2669  0.5681
  244MOL0     C32868   2.785   9.344   8.696 -0.9408  0.3282 -1.0234
  244MOL0     C32869   2.704   9.305   8.581  0.1914  0.1368 -0.1212
  244MOL0     C32870   2.642   9.273   8.481  0.2376  0.9645 -0.1042
  244MOL0     C32871   3.172   9.653   8.881  0.9826  0.5706 -0.2741
  244MOL0     C32872   3.291   9.589   8.928 -0.3785 -0.7444 -0.4372
  244MOL0     H32873   3.798   9.394   8.702 -1.2191  1.0716  1.6409
  244MOL0     H32874   3.995   9.269   8.761 -0.8407 -0.7092 -1.0214
  244MOL0     H32875   4.073   8.888   8.821  1.8720 -0.1910  1.0319
  244MOL0     H32876   4.064   9.036   8.731  0.4743  0.3765  0.1603
  244MOL0     H32877   4.260   9.124   8.819  2.5433 -0.4156  0.4057
  244MOL0     H32878   4.237   9.056   8.975 -1.0978  1.5672 -0.8084
  244MOL0     H32879   4.336   8.904   8.720 -2.3797 -0.7587  0.9691
  244MOL0     H32880   4.438   8.960   8.853 -0.4023 -1.5624  2.2546
  244MOL0     H32881   4.318   8.792   9.003  0.2429  2.2498 -0.8032
  244MOL0     H32882   4.209   8.748   8.868  1.0593 -1.1132 -1.4383
  244MOL0     H32883   4.405   8.714   8.715  1.3272  1.4547 -0.0563
  244MOL0     H32884   4.503   8.765   8.858  0.2937 -0.0083  5.3218
  244MOL0     H32885   4.470   8.573   8.980  0.6467 -4.2486  0.7779
  244MOL0     H32886   4.312   8.535   8.912  0.0876 -0.0554  0.4197
  244MOL0     H32887   4.394   8.458   8.717  0.9740  1.6680 -0.8803
  244MOL0     H32888   4.567   8.502   8.749 -0.5028  1.1601  0.1383
  244MOL0     H32889   4.407   8.310   8.928  0.2814 -3.3194  0.2059
  244MOL0     H32890   4.576   8.352   8.943 -0.5414  0.0949  0.0094
  244MOL0     H32891   4.689   8.135   8.924 -2.5459  1.9569  1.9444
  244MOL0     H32892   4.760   7.900   8.857  3.3259 -1.3050  0.3197
  244MOL0     H32893   4.726   7.853   8.689 -1.8690  1.0581 -2.4042
  244MOL0     H32894   4.934   8.073   8.781  0.7296  0.9742 -1.2823
  244MOL0     H32895   4.907   8.038   8.620 -2.1893  1.1630  0.7507
  244MOL0     H32896   5.044   7.864   8.837 -2.4763 -0.7451  0.5586
  244MOL0     H32897   5.116   7.931   8.693 -0.9163  0.9807 -0.9508
  244MOL0     H32898   4.953   7.781   8.571  0.5558  2.8135  0.5531
  244MOL0     H32899   4.931   7.685   8.715 -0.9896  0.6384 -0.7367
  244MOL0     H32900   4.928   7.535   8.552  1.0087  1.9854 -0.9208
  244MOL0     H32901   4.837   7.379   8.438  1.0807 -0.3373  3.1755
  244MOL0     H32902   4.933   7.314   8.292  0.9712 -1.7578  0.3802
  244MOL0     H32903   4.936   7.228   8.436  1.1114 -0.4469  0.1084
  244MOL0     H32904   5.345   7.047   8.245 -2.0266  3.1264  0.2803
  244MOL0     H32905   5.374   6.841   8.124 -0.3625 -0.0146  0.9627
  244MOL0     H32906   5.271   6.803   7.814  2.4747 -1.5491 -2.3419
  244MOL0     H32907   5.359   6.678   7.913  0.1864  2.9294  1.5659
  244MOL0     H32908   5.147   6.643   7.703  2.1052  0.4928 -1.8235
  244MOL0     H32909   5.319   6.615   7.695 -0.6090 -0.7215 -0.8565
  244MOL0     H32910   5.162   6.408   7.722 -2.6139  0.5603  0.2750
  244MOL0     H32911   5.135   6.458   7.890  0.7040 -0.7509  0.8929
  244MOL0     H32912   5.361   6.323   7.766 -1.4535  1.3594 -1.4546
  244MOL0     H32913   5.421   6.472   7.820  0.4446 -0.1750 -2.5050
  244MOL0     H32914   5.459   6.277   7.958  1.3267  0.1327  1.0924
  244MOL0     H32915   5.287   6.264   7.990 -1.0876  1.1528 -0.0867
  244MOL0     H32916   5.488   6.494   8.079 -2.8659  2.3621 -1.9712
  244MOL0     H32917   5.331   6.503   8.116  3.3098  2.6338 -0.4660
  244MOL0     H32918   5.315   6.314   8.240  0.1771 -0.4031 -1.0462
  244MOL0     H32919   5.471   6.406   8.292  0.6755 -0.9887  0.3211
  244MOL0     H32920   5.430   6.143   8.148 -0.3377  0.1464 -1.4473
  244MOL0     H32921   5.503   6.154   8.305 -0.6823  1.4701  0.5638
  244MOL0     H32922   4.957   6.818   8.053  2.5860 -2.9327 -0.3797
  244MOL0     H32923   4.928   7.047   8.166  0.4549 -1.1143  2.5522
  244MOL0     H32924   5.372   7.463   8.341 -1.5788  0.2875 -2.0379
  244MOL0     H32925   5.355   7.637   8.514  2.4087 -2.8909  0.3850
  244MOL0     H32926   3.757   9.019   9.014  0.9261 -0.1177 -0.3921
  244MOL0     H32927   3.555   9.154   8.957  0.3058 -1.7701 -3.0606
  244MOL0     H32928   3.399   9.478   8.623 -2.2124 -2.4466 -1.0809
  244MOL0     H32929   3.235   9.593   8.549 -0.6885  0.1995 -0.5486
  244MOL0     H32930   2.886   9.721   8.547 -1.3192 -2.2680 -0.7928
  244MOL0     H32931   3.049   9.682   8.502 -0.2108  0.2614 -1.1290
  244MOL0     H32932   2.997   9.454   8.601  1.2401  0.6831 -1.3888
  244MOL0     H32933   2.876   9.495   8.478  1.9815 -1.8416  0.6792
  244MOL0     H32934   2.715   9.544   8.667 -1.6994 -1.9146  1.5639
  244MOL0     H32935   2.852   9.526   8.781 -2.4897 -3.6701  2.6859
  244MOL0     H32936   2.731   9.334   8.791  1.1246  1.0853  0.3042
  244MOL0     H32937   2.867   9.271   8.695 -0.4074  0.8862  0.1226
  244MOL0     H32938   2.592   9.246   8.391  1.8359  2.6518 -1.5957
  244MOL0     H32939   3.105   9.711   8.943  0.4346  0.1374 -0.4534
  244MOL0     H32940   3.306   9.594   9.036 -1.4609 -2.3167 -0.1705
  245MOL0     O32941   0.936   6.499   9.980  0.1725  0.4673  0.0970
  245MOL0     C32942   0.910   6.607  10.036  0.4411  0.0671  0.6315
  245MOL0     O32943   0.795   6.680  10.016 -0.5030  0.3276  0.3141
  245MOL0     C32944   0.695   6.611   9.943  1.0083  0.3982  0.2780
  245MOL0     C32945   0.571   6.588  10.012  0.7117 -0.0261 -0.8079
  245MOL0     C32946   0.460   6.527   9.952  0.2158  0.1907 -0.5103
  245MOL0     C32947   0.473   6.493   9.815  0.5802 -0.6324  0.0110
  245MOL0     O32948   0.369   6.425   9.757  0.6533 -0.2294  0.5116
  245MOL0     C32949   0.358   6.294   9.812 -0.2058 -0.2794 -0.1515
  245MOL0     C32950   0.476   6.204   9.769 -0.0990 -0.8416 -0.0260
  245MOL0     C32951   0.465   6.184   9.619 -0.2470  0.0139 -0.4743
  245MOL0     C32952   0.550   6.066   9.574  0.2914  0.0794  0.3451
  245MOL0     C32953   0.609   6.080   9.442  0.7845 -0.9763 -0.3219
  245MOL0     C32954   0.677   5.953   9.389  0.8676 -1.1035 -0.4152
  245MOL0     C32955   0.703   5.978   9.239  0.5770 -1.0085  0.1214
  245MOL0     C32956   0.750   5.854   9.162  0.5322 -0.2101 -0.3209
  245MOL0     N32957   0.823   5.896   9.045  0.6709  0.8933  0.4882
  245MOL0     C32958   0.932   5.972   9.037 -0.4478 -0.1053  0.8237
  245MOL0     C32959   0.960   5.977   8.900 -1.3875  0.6998  0.1438
  245MOL0     C32960   1.100   6.015   8.858 -0.1226  0.5429  0.6727
  245MOL0     C32961   1.108   6.160   8.813 -0.3296  0.8290 -0.1032
  245MOL0     C32962   1.255   6.210   8.819 -0.4890 -0.5984  0.0497
  245MOL0     C32963   1.265   6.361   8.816  0.0681  0.1123  0.3339
  245MOL0     O32964   1.228   6.428   8.693 -0.5514  0.7889  0.5696
  245MOL0     C32965   1.298   6.401   8.576  0.0185 -0.5449  0.2233
  245MOL0     C32966   1.231   6.365   8.459 -0.4696 -0.7547 -0.6160
  245MOL0     C32967   1.301   6.326   8.344  0.1264 -0.3226 -0.1479
  245MOL0     C32968   1.221   6.254   8.241 -0.5834  0.5526 -0.2731
  245MOL0     C32969   1.443   6.330   8.342 -0.2802  0.3069 -0.0597
  245MOL0     C32970   1.528   6.279   8.223 -0.4406 -0.6395 -0.9788
  245MOL0     O32971   1.476   6.216   8.115 -0.6196 -0.2517  0.3506
  245MOL0     C32972   1.571   6.135   8.047  0.5130 -0.6804  0.0901
  245MOL0     C32973   1.609   6.189   7.923  0.0908 -0.1065  0.5599
  245MOL0     C32974   1.696   6.120   7.839 -0.1831  1.2630 -0.5720
  245MOL0     C32975   1.765   6.003   7.886  0.3812  0.3194  0.5555
  245MOL0     O32976   1.857   5.930   7.816  0.8200  0.0602 -0.2173
  245MOL0     C32977   1.928   5.999   7.705 -0.5458  0.0153 -0.6214
  245MOL0     C32978   2.050   5.909   7.666 -0.8088 -0.1765  0.7598
  245MOL0     C32979   2.160   5.908   7.778  0.1639 -0.0628 -0.8599
  245MOL0     C32980   2.277   5.809   7.762 -0.3733 -0.0346  0.8350
  245MOL0     C32981   2.373   5.824   7.880  0.8560  0.5358 -0.5833
  245MOL0     C32982   2.497   5.744   7.849  0.0969  0.0978 -0.7482
  245MOL0     C32983   2.607   5.758   7.952 -1.2281  0.9046 -0.1482
  245MOL0     C32984   2.731   5.684   7.924 -1.0379 -0.2522  0.8438
  245MOL0    Cl32985   2.796   5.754   7.765  0.1380  0.1254  0.0261
  245MOL0     C32986   1.723   5.955   8.007  0.6107  0.4672 -0.2772
  245MOL0     C32987   1.621   6.007   8.088  0.0484  0.2782 -0.3789
  245MOL0     O32988   1.647   6.302   8.230  0.0244 -0.9788  0.2837
  245MOL0     C32989   1.507   6.375   8.453  0.1622  0.6457 -0.2257
  245MOL0     C32990   1.442   6.409   8.567 -0.1302  0.5958  0.1498
  245MOL0     N32991   0.866   5.900   8.833  0.0914  0.4960  0.1290
  245MOL0     N32992   0.794   5.849   8.921 -0.1821  0.4068 -0.0070
  245MOL0     C32993   0.579   6.539   9.743 -0.6609  0.2471 -0.4762
  245MOL0     C32994   0.697   6.587   9.799  0.3565 -0.3356  0.3095
  245MOL0     C32995   0.994   6.652  10.142 -0.1790 -0.5468  0.2200
  245MOL0     C32996   0.964   6.758  10.230  0.2101  1.0707  0.0112
  245MOL0     C32997   1.041   6.789  10.339 -0.4215  0.4772 -0.1806
  245MOL0     C32998   1.155   6.710  10.363 -0.0066 -0.0096  0.3175
  245MOL0     O32999   1.237   6.750  10.457  0.0698 -0.5143 -0.2828
  245MOL0     C33000   1.279   6.658  10.561  0.1272  0.3228 -0.0382
  245MOL0     C33001   1.163   6.634  10.662 -0.2412  0.6695 -0.4646
  245MOL0     C33002   1.179   6.732  10.779  0.0366 -0.4044  0.0585
  245MOL0     C33003   1.198   6.881  10.739 -0.4011 -0.5348  0.1221
  245MOL0     C33004   1.217   6.974  10.849 -0.9107  0.3695 -0.6097
  245MOL0     C33005   1.259   7.048  10.932  0.0081 -0.2086  0.1985
  245MOL0     C33006   1.195   6.617  10.274  0.2000 -0.2172  0.0844
  245MOL0     C33007   1.115   6.586  10.167 -0.3683 -0.2862  0.5399
  245MOL0     H33008   0.555   6.630  10.111 -1.2554  0.2889 -1.2043
  245MOL0     H33009   0.370   6.503  10.008  0.6827  1.4828  0.8588
  245MOL0     H33010   0.343   6.305   9.919 -0.6997 -1.5509 -0.0766
  245MOL0     H33011   0.264   6.245   9.783 -0.7713  0.3778  0.5210
  245MOL0     H33012   0.570   6.248   9.802 -1.3951  0.3648  2.2830
  245MOL0     H33013   0.465   6.119   9.837  0.5242  0.8851  2.3298
  245MOL0     H33014   0.359   6.171   9.599 -0.4470  2.7917 -1.5778
  245MOL0     H33015   0.500   6.274   9.568  1.5451  0.5721  1.5860
  245MOL0     H33016   0.622   6.043   9.654 -1.0263  0.4025  1.6688
  245MOL0     H33017   0.482   5.980   9.572  0.2936  0.0273 -2.9607
  245MOL0     H33018   0.526   6.115   9.379  1.8111  1.5420 -0.3787
  245MOL0     H33019   0.683   6.160   9.433 -1.2016  0.8676 -1.0040
  245MOL0     H33020   0.772   5.939   9.442  1.3418  0.9660 -0.6340
  245MOL0     H33021   0.613   5.866   9.405 -1.3949  0.3380 -1.1289
  245MOL0     H33022   0.609   6.008   9.193 -1.4368 -2.2648  3.0761
  245MOL0     H33023   0.775   6.060   9.229 -2.4930  2.0072  0.8980
  245MOL0     H33024   0.666   5.788   9.136 -1.1260  1.1983  1.1945
  245MOL0     H33025   0.821   5.816   9.235  1.6232  2.4481  0.1100
  245MOL0     H33026   0.999   6.003   9.117  0.4957 -2.2742  0.9484
  245MOL0     H33027   1.165   6.009   8.946  0.7355 -1.7298 -0.0387
  245MOL0     H33028   1.146   5.947   8.786  1.1889 -0.4713  2.3877
  245MOL0     H33029   1.055   6.224   8.884 -0.3194 -0.7067  1.3465
  245MOL0     H33030   1.076   6.176   8.710  2.6395  1.6341 -0.9983
  245MOL0     H33031   1.311   6.165   8.736 -0.7299  1.9676 -1.6156
  245MOL0     H33032   1.295   6.168   8.912  0.5150  0.7880  0.2767
  245MOL0     H33033   1.364   6.395   8.848  0.3932 -0.0322 -0.4860
  245MOL0     H33034   1.194   6.390   8.894 -2.2337 -0.9776 -1.2208
  245MOL0     H33035   1.123   6.359   8.470 -0.7250  2.4798 -0.2742
  245MOL0     H33036   1.256   6.150   8.235  1.0225  0.9311  1.5738
  245MOL0     H33037   1.118   6.242   8.276 -0.6986 -1.9535 -1.2243
  245MOL0     H33038   1.222   6.305   8.144  3.7076  3.4176  0.9923
  245MOL0     H33039   1.582   6.289   7.889  2.8895 -0.3358 -2.8827
  245MOL0     H33040   1.716   6.161   7.741  2.9255 -1.6401 -1.3322
  245MOL0     H33041   1.867   6.022   7.617 -1.0840 -0.1955 -0.3055
  245MOL0     H33042   1.961   6.096   7.742 -2.4657  1.9929 -3.6162
  245MOL0     H33043   2.029   5.805   7.639  2.0558 -0.5721 -0.2121
  245MOL0     H33044   2.095   5.947   7.574  0.7977 -1.2510  1.0672
  245MOL0     H33045   2.117   5.888   7.877  2.5530 -2.3350 -0.1694
  245MOL0     H33046   2.210   6.005   7.776  1.9461 -0.9615 -2.3241
  245MOL0     H33047   2.237   5.708   7.755 -0.6662  0.1202  0.2355
  245MOL0     H33048   2.321   5.823   7.663 -1.6351 -1.8264 -0.0415
  245MOL0     H33049   2.320   5.783   7.966 -0.4774  1.9082 -0.7098
  245MOL0     H33050   2.399   5.928   7.902  0.0449  1.5365 -3.7813
  245MOL0     H33051   2.461   5.642   7.840 -1.3435  0.4155  0.8616
  245MOL0     H33052   2.537   5.784   7.755  1.3849 -0.0327 -0.2746
  245MOL0     H33053   2.563   5.715   8.043  1.3448  1.9425  1.6889
  245MOL0     H33054   2.619   5.862   7.983 -2.8646  0.3036  2.9124
  245MOL0     H33055   2.711   5.576   7.924 -0.1341 -0.4576  3.1680
  245MOL0     H33056   2.812   5.702   7.995 -0.3907 -2.0518  0.6177
  245MOL0     H33057   1.779   5.867   8.040  1.6637  1.8688  1.9270
  245MOL0     H33058   1.605   5.974   8.190 -2.4092 -0.0214 -0.7961
  245MOL0     H33059   1.615   6.371   8.462 -0.0083 -0.4361  2.3967
  245MOL0     H33060   1.504   6.442   8.650  0.1276 -0.8328  0.5616
  245MOL0     H33061   0.582   6.521   9.636 -1.7723 -0.9912 -0.3257
  245MOL0     H33062   0.779   6.612   9.733  0.0996 -2.9064 -1.1031
  245MOL0     H33063   0.882   6.826  10.208 -0.2382  2.1506  4.1094
  245MOL0     H33064   1.035   6.881  10.395  0.0352  0.8657 -0.7597
  245MOL0     H33065   1.302   6.561  10.516 -1.1781 -0.7830  1.5614
  245MOL0     H33066   1.361   6.699  10.620  0.0228 -2.1341  2.0121
  245MOL0     H33067   1.174   6.527  10.681  0.9856  0.4585 -2.1329
  245MOL0     H33068   1.067   6.656  10.613 -0.5258  1.3321  0.3683
  245MOL0     H33069   1.267   6.700  10.835 -0.0880 -0.2708  0.3367
  245MOL0     H33070   1.089   6.716  10.840  0.7320 -1.4323  0.8440
  245MOL0     H33071   1.107   6.913  10.688 -0.6410  0.9289  1.3910
  245MOL0     H33072   1.282   6.886  10.669 -0.5056  1.6533  0.0969
  245MOL0     H33073   1.295   7.122  11.001 -4.5168  2.1309  0.3917
  245MOL0     H33074   1.289   6.565  10.286  0.7300  0.2932 -1.6450
  245MOL0     H33075   1.156   6.500  10.114 -0.8906 -0.7937  0.9392
  246MOL0     O33076   7.913   8.633   8.811  0.3672  0.6945 -1.3267
  246MOL0     C33077   7.879   8.639   8.928 -0.3132 -0.4750  0.6072
  246MOL0     O33078   7.751   8.660   8.981 -0.2524 -0.9589  0.4484
  246MOL0     C33079   7.651   8.685   8.893  0.2833 -0.1027  0.2808
  246MOL0     C33080   7.639   8.820   8.843  0.0395  0.7934  0.6302
  246MOL0     C33081   7.533   8.850   8.760  0.1782 -0.2364  1.1372
  246MOL0     C33082   7.439   8.754   8.730  0.0722  0.3291  0.1525
  246MOL0     O33083   7.326   8.791   8.655  0.5778 -0.8362 -0.5401
  246MOL0     C33084   7.342   8.746   8.519 -0.1128 -0.6971  0.3309
  246MOL0     C33085   7.384   8.850   8.424 -0.8076  0.4420 -0.2022
  246MOL0     C33086   7.412   8.795   8.288  0.1764 -0.7629 -0.4054
  246MOL0     C33087   7.457   8.909   8.192  0.1056 -0.2363 -0.4365
  246MOL0     C33088   7.490   8.844   8.057 -0.0926 -0.4839  0.1810
  246MOL0     C33089   7.511   8.957   7.954 -0.0987 -0.1320  0.3179
  246MOL0     C33090   7.562   8.901   7.810  0.9522 -0.8855 -0.3724
  246MOL0     C33091   7.472   8.800   7.745 -0.6687 -0.5985 -0.6177
  246MOL0     N33092   7.326   8.837   7.727 -0.3450 -0.4254 -0.0558
  246MOL0     C33093   7.275   8.932   7.645  0.2003 -0.1768  0.0665
  246MOL0     C33094   7.142   8.930   7.659 -0.7811  0.2047  0.1903
  246MOL0     C33095   7.055   9.027   7.583  0.2374  0.7714  0.2259
  246MOL0     C33096   6.906   8.968   7.564 -0.9310 -0.8791  0.5281
  246MOL0     C33097   6.817   9.077   7.505 -0.6382  0.1029 -1.1309
  246MOL0     C33098   6.670   9.039   7.523  0.3075 -0.3330  0.4929
  246MOL0     O33099   6.608   9.175   7.498  0.5395 -0.6717 -0.5860
  246MOL0     C33100   6.475   9.203   7.535  0.1232  0.1643 -0.4959
  246MOL0     C33101   6.426   9.335   7.540  0.1713  0.8019 -0.8412
  246MOL0     C33102   6.295   9.365   7.587  0.2062 -0.3231 -0.7749
  246MOL0     C33103   6.243   9.503   7.564  0.2264  0.0381 -0.1681
  246MOL0     C33104   6.215   9.264   7.642 -0.1639 -0.3160 -0.5340
  246MOL0     C33105   6.068   9.276   7.689 -0.1716  0.4999 -0.0385
  246MOL0     O33106   6.016   9.389   7.744  0.8283 -0.5186  0.4955
  246MOL0     C33107   5.882   9.384   7.785 -0.4371  0.7463 -0.1909
  246MOL0     C33108   5.833   9.323   7.904  0.1188  0.2830 -0.1852
  246MOL0     C33109   5.698   9.352   7.945  0.3040  0.1473  1.0615
  246MOL0     C33110   5.604   9.407   7.865 -0.8778 -0.0664 -0.6350
  246MOL0     O33111   5.468   9.416   7.894  0.0351 -0.2971  0.2326
  246MOL0     C33112   5.410   9.288   7.930  0.1873 -0.0866 -0.7483
  246MOL0     C33113   5.309   9.249   7.822 -0.2245 -0.3827  0.4326
  246MOL0     C33114   5.374   9.224   7.684  0.4117 -0.3645  0.5666
  246MOL0     C33115   5.259   9.203   7.581  0.3865  0.6913  0.2622
  246MOL0     C33116   5.321   9.201   7.444 -0.3861  1.0644 -0.1068
  246MOL0     C33117   5.243   9.123   7.341 -0.5574 -0.4177  0.0076
  246MOL0     C33118   5.108   9.181   7.321  0.1455 -0.9824 -0.4994
  246MOL0     C33119   5.046   9.098   7.204  0.7923  0.3199 -0.6183
  246MOL0    Cl33120   5.043   8.917   7.234 -0.1387  0.3434 -0.1706
  246MOL0     C33121   5.653   9.461   7.748  0.3556  0.1373 -0.3741
  246MOL0     C33122   5.785   9.454   7.705 -0.0342 -0.0534  0.1080
  246MOL0     O33123   6.004   9.176   7.670 -0.0989  0.7137 -1.0478
  246MOL0     C33124   6.268   9.129   7.629 -0.3825  0.5355 -0.1687
  246MOL0     C33125   6.393   9.104   7.581 -1.0155 -0.5605  0.1741
  246MOL0     N33126   7.112   8.834   7.747  0.2572 -0.1234  0.2928
  246MOL0     N33127   7.222   8.779   7.790 -0.8991  0.0961 -0.0018
  246MOL0     C33128   7.443   8.626   8.780 -0.2154  0.2974  0.2527
  246MOL0     C33129   7.556   8.591   8.856  0.0307  0.4972 -0.7070
  246MOL0     C33130   7.979   8.585   9.028 -0.3388  0.9301 -0.6623
  246MOL0     C33131   8.108   8.540   8.992  0.7403 -0.2447  0.2675
  246MOL0     C33132   8.194   8.477   9.086 -0.5304 -0.4072  0.1041
  246MOL0     C33133   8.169   8.490   9.219 -0.5705  0.6220 -0.4738
  246MOL0     O33134   8.260   8.431   9.304  0.0383  0.6546 -0.2688
  246MOL0     C33135   8.227   8.411   9.438  0.1254 -0.2811  0.9592
  246MOL0     C33136   8.335   8.363   9.531 -1.1229  0.0785  0.0474
  246MOL0     C33137   8.426   8.472   9.582 -0.5064  0.0261  0.0523
  246MOL0     C33138   8.528   8.412   9.679  0.5115  0.1672  0.8813
  246MOL0     C33139   8.648   8.493   9.700 -0.6137 -0.4078  0.2944
  246MOL0     C33140   8.753   8.555   9.691 -0.3539  0.1133  0.3639
  246MOL0     C33141   8.051   8.559   9.264  0.8436  0.2893  0.3833
  246MOL0     C33142   7.946   8.586   9.164  0.1170 -0.1459 -0.4303
  246MOL0     H33143   7.712   8.897   8.868  2.8231 -0.9039 -1.6163
  246MOL0     H33144   7.524   8.946   8.710 -2.5042 -1.6923 -1.4521
  246MOL0     H33145   7.398   8.653   8.507  0.6293 -0.1111 -1.0896
  246MOL0     H33146   7.241   8.719   8.489  0.8553 -0.7425 -3.3537
  246MOL0     H33147   7.322   8.939   8.412  0.2876  1.4329  1.0528
  246MOL0     H33148   7.483   8.883   8.459 -0.2040 -0.2812 -1.1687
  246MOL0     H33149   7.510   8.746   8.288  1.0230  0.7689 -2.2726
  246MOL0     H33150   7.327   8.734   8.256  0.6114 -2.1438  0.9851
  246MOL0     H33151   7.382   8.985   8.170  1.7575  0.9010 -2.4190
  246MOL0     H33152   7.542   8.964   8.234  0.6808  0.1361 -2.0455
  246MOL0     H33153   7.579   8.785   8.080 -0.9111 -2.2346 -0.9557
  246MOL0     H33154   7.404   8.781   8.034 -2.1540  2.2904 -0.2365
  246MOL0     H33155   7.418   9.005   7.922 -1.2514 -3.3130 -1.6113
  246MOL0     H33156   7.576   9.035   7.995  0.6661 -1.5796  1.9931
  246MOL0     H33157   7.564   8.988   7.744  1.0335 -0.3401  0.3367
  246MOL0     H33158   7.663   8.864   7.830  2.2703  0.5265 -3.6051
  246MOL0     H33159   7.469   8.715   7.813  0.1497  1.3119  1.9445
  246MOL0     H33160   7.528   8.767   7.657  0.6235 -0.9918  0.3266
  246MOL0     H33161   7.340   8.997   7.587  1.3952 -1.0692  0.3610
  246MOL0     H33162   7.060   9.123   7.636  0.6152  1.1648 -0.5111
  246MOL0     H33163   7.097   9.039   7.483 -0.4375 -0.3089 -0.2029
  246MOL0     H33164   6.877   8.931   7.663 -0.7120  1.4213  1.5109
  246MOL0     H33165   6.896   8.883   7.497 -4.9200  1.4713 -2.3196
  246MOL0     H33166   6.843   9.088   7.400 -0.3781 -1.1274 -1.2076
  246MOL0     H33167   6.827   9.176   7.551  1.9513  0.2742 -1.8882
  246MOL0     H33168   6.645   9.014   7.626  0.6204  0.8601  0.8858
  246MOL0     H33169   6.622   8.966   7.457 -0.4934 -0.6033  1.3628
  246MOL0     H33170   6.495   9.402   7.489 -0.5569  0.9916 -1.6116
  246MOL0     H33171   6.270   9.569   7.646  0.1157  0.2297 -0.2846
  246MOL0     H33172   6.281   9.548   7.471  1.4395  0.1282  0.3574
  246MOL0     H33173   6.134   9.497   7.560  0.0180  1.7635  1.4991
  246MOL0     H33174   5.912   9.278   7.964  3.1237  3.3386 -1.5605
  246MOL0     H33175   5.665   9.313   8.040 -1.5635 -0.1526  0.3233
  246MOL0     H33176   5.484   9.208   7.941 -1.2644 -1.5364 -1.0408
  246MOL0     H33177   5.353   9.292   8.023  0.8171  2.1790 -0.3902
  246MOL0     H33178   5.255   9.163   7.863  0.1390 -1.0309 -0.4210
  246MOL0     H33179   5.239   9.333   7.816  2.1007  1.5941 -0.4001
  246MOL0     H33180   5.452   9.148   7.680  0.9002  0.1552  0.0445
  246MOL0     H33181   5.421   9.320   7.658 -0.5717  0.5766  2.0961
  246MOL0     H33182   5.220   9.103   7.600 -0.6538  0.8305 -1.0048
  246MOL0     H33183   5.167   9.263   7.577  0.5078  0.9125 -3.9554
  246MOL0     H33184   5.421   9.156   7.450 -0.9670 -1.2751 -4.0191
  246MOL0     H33185   5.333   9.305   7.410 -0.3378  2.0974  2.8243
  246MOL0     H33186   5.288   9.137   7.243 -2.9309  0.8622 -0.9713
  246MOL0     H33187   5.226   9.021   7.379 -0.9477 -0.7084 -0.9323
  246MOL0     H33188   5.117   9.286   7.292 -1.4909  0.0088  2.1867
  246MOL0     H33189   5.054   9.180   7.416 -1.1747 -0.2010 -1.2285
  246MOL0     H33190   5.087   9.118   7.105  2.1141 -1.2469 -0.4127
  246MOL0     H33191   4.941   9.128   7.190  0.5747  0.0052  0.2580
  246MOL0     H33192   5.576   9.510   7.689 -1.5817 -0.5662  1.4586
  246MOL0     H33193   5.802   9.498   7.607 -2.1219  2.1607  0.6385
  246MOL0     H33194   6.208   9.046   7.664  0.1882 -0.1975 -0.8975
  246MOL0     H33195   6.421   9.000   7.594 -1.5153 -0.9072 -1.3718
  246MOL0     H33196   7.374   8.550   8.745  1.8949 -0.7345 -1.9513
  246MOL0     H33197   7.567   8.501   8.915  1.4742  2.4987  2.2881
  246MOL0     H33198   8.129   8.548   8.886 -1.5544  2.7735 -0.1123
  246MOL0     H33199   8.291   8.438   9.056 -1.1098 -2.1261  0.3425
  246MOL0     H33200   8.188   8.501   9.488  0.6660 -0.7845  2.3413
  246MOL0     H33201   8.140   8.346   9.447  0.0807 -0.1686  1.3845
  246MOL0     H33202   8.395   8.290   9.477 -0.1920 -0.2078  1.4315
  246MOL0     H33203   8.296   8.316   9.621 -1.7658  0.9891  0.2640
  246MOL0     H33204   8.381   8.550   9.644 -3.6679  0.3354 -2.3952
  246MOL0     H33205   8.461   8.538   9.502 -1.7052  0.5027 -0.0901
  246MOL0     H33206   8.576   8.319   9.646  1.2669 -1.4445  5.6342
  246MOL0     H33207   8.489   8.392   9.779  4.6212  1.7479  3.0605
  246MOL0     H33208   8.852   8.597   9.695  0.1745 -1.1622  1.3266
  246MOL0     H33209   8.041   8.571   9.371  1.4440 -1.0559  0.6130
  246MOL0     H33210   7.852   8.632   9.194  0.3039  0.3187 -0.5377
  247MOL0     O33211   2.823   3.816   7.125 -0.1666 -0.2823 -0.9536
  247MOL0     C33212   2.747   3.778   7.220  0.4583 -0.0459  0.7281
  247MOL0     O33213   2.628   3.731   7.202  0.0133 -0.1714 -0.2791
  247MOL0     C33214   2.577   3.708   7.073 -0.1257 -0.5231 -0.9970
  247MOL0     C33215   2.516   3.587   7.075  0.4829  0.1760 -0.1857
  247MOL0     C33216   2.463   3.538   6.957 -1.0028 -0.8944 -1.0045
  247MOL0     C33217   2.476   3.610   6.832 -0.0414 -0.6068  0.2818
  247MOL0     O33218   2.440   3.553   6.715 -0.1188 -0.0677  0.1175
  247MOL0     C33219   2.480   3.417   6.702 -0.3090  0.4235  0.7578
  247MOL0     C33220   2.524   3.400   6.549  0.0071 -0.6831  0.4077
  247MOL0     C33221   2.555   3.260   6.535  0.1585  0.5869 -0.6924
  247MOL0     C33222   2.587   3.236   6.387  0.4898 -0.1594  0.2209
  247MOL0     C33223   2.600   3.085   6.361  0.1975  0.1672 -0.0573
  247MOL0     C33224   2.706   3.005   6.443  0.6296 -0.3615  0.4913
  247MOL0     C33225   2.712   2.855   6.394 -0.1204 -0.1535 -0.4092
  247MOL0     C33226   2.577   2.789   6.381  0.1633 -1.1503 -0.0311
  247MOL0     N33227   2.599   2.651   6.346 -0.3538  0.1350  0.1517
  247MOL0     C33228   2.577   2.582   6.220  0.5486 -0.6502 -0.5684
  247MOL0     C33229   2.644   2.470   6.236  0.0229 -0.5651 -0.3908
  247MOL0     C33230   2.640   2.381   6.112 -0.3361 -0.2441 -0.7551
  247MOL0     C33231   2.734   2.263   6.155  1.1270  1.1187  0.2512
  247MOL0     C33232   2.783   2.190   6.023 -0.2842  0.7041 -0.3957
  247MOL0     C33233   2.885   2.080   6.050  0.3585 -0.2110  0.6814
  247MOL0     O33234   2.826   1.986   6.143 -0.1468 -0.5540  0.4638
  247MOL0     C33235   2.900   1.877   6.172  0.2564  1.1975 -0.7084
  247MOL0     C33236   2.968   1.799   6.078  0.3287 -0.4465  0.7520
  247MOL0     C33237   3.056   1.695   6.111 -0.1266  0.1719  0.1135
  247MOL0     C33238   3.126   1.622   5.990 -0.3722 -0.2878  0.8237
  247MOL0     C33239   3.069   1.671   6.251 -0.4442  1.1531  0.1486
  247MOL0     C33240   3.155   1.554   6.303 -0.1605  0.6755  0.4028
  247MOL0     O33241   3.183   1.557   6.437  0.3419 -0.8662  0.2990
  247MOL0     C33242   3.260   1.449   6.488  0.1348 -0.6357  0.6016
  247MOL0     C33243   3.395   1.453   6.470  0.2804  0.9316 -0.0747
  247MOL0     C33244   3.471   1.346   6.524 -0.1695  1.5542  0.0759
  247MOL0     C33245   3.413   1.237   6.590  0.2828 -0.2732  0.3949
  247MOL0     O33246   3.475   1.132   6.652  0.4459  0.0808  0.0802
  247MOL0     C33247   3.610   1.152   6.700  0.0007  0.6442 -0.4148
  247MOL0     C33248   3.634   1.273   6.796  0.2152  0.2246  0.6886
  247MOL0     C33249   3.775   1.327   6.825  1.0650 -0.5466  0.1073
  247MOL0     C33250   3.859   1.234   6.902 -1.3108  0.8895 -0.4560
  247MOL0     C33251   4.006   1.277   6.890  0.0656  0.0724  0.6468
  247MOL0     C33252   4.086   1.181   6.972  0.1771  0.5067 -0.4119
  247MOL0     C33253   4.232   1.222   6.983 -1.0909  0.1631 -0.7430
  247MOL0     C33254   4.323   1.120   7.054  1.1071  0.3226  0.1593
  247MOL0    Cl33255   4.475   1.204   7.109 -0.0152  0.5848 -0.0130
  247MOL0     C33256   3.272   1.233   6.602  0.5704  0.3011 -0.3593
  247MOL0     C33257   3.201   1.339   6.551  0.8222 -0.3343 -0.5450
  247MOL0     O33258   3.205   1.477   6.221  0.2587 -0.0201  0.0464
  247MOL0     C33259   2.994   1.741   6.352  0.3903 -0.4969 -0.1666
  247MOL0     C33260   2.920   1.850   6.310  0.5603 -1.0737 -1.3391
  247MOL0     N33261   2.683   2.451   6.369 -0.4008 -0.1270 -0.0382
  247MOL0     N33262   2.668   2.567   6.427 -0.6086  0.7488 -0.4540
  247MOL0     C33263   2.549   3.723   6.832  0.4985 -0.7366  0.1147
  247MOL0     C33264   2.596   3.780   6.953  0.5824 -0.3599 -0.4468
  247MOL0     C33265   2.789   3.763   7.359  0.5124 -0.5563  0.2643
  247MOL0     C33266   2.711   3.799   7.469  0.4161 -0.0692 -0.6033
  247MOL0     C33267   2.769   3.803   7.597  0.7339  0.9454  0.0827
  247MOL0     C33268   2.902   3.765   7.623  0.1300 -0.7498 -0.0281
  247MOL0     O33269   2.963   3.781   7.750 -0.2516  0.0416  0.4092
  247MOL0     C33270   2.883   3.810   7.868 -0.0173 -0.9105 -0.3050
  247MOL0     C33271   2.960   3.813   8.003  0.1930 -0.3982 -0.1247
  247MOL0     C33272   2.884   3.859   8.124  1.1060  0.1328  0.6285
  247MOL0     C33273   2.931   3.816   8.266 -0.1433  0.5112  0.3910
  247MOL0     C33274   3.081   3.835   8.280 -1.2447  1.0346 -1.1135
  247MOL0     C33275   3.205   3.871   8.288  0.2710  0.4771 -0.0245
  247MOL0     C33276   2.980   3.737   7.517 -0.0787  0.5016  1.7773
  247MOL0     C33277   2.919   3.725   7.379  0.2180  0.7270 -0.0454
  247MOL0     H33278   2.514   3.527   7.166 -0.3481  1.4920  0.6939
  247MOL0     H33279   2.411   3.443   6.948  0.2939 -1.4831 -3.1326
  247MOL0     H33280   2.557   3.374   6.767 -0.5990 -2.0472 -0.4307
  247MOL0     H33281   2.385   3.363   6.706  0.1396 -0.8744 -2.4875
  247MOL0     H33282   2.449   3.430   6.476  2.0539  0.9187 -1.1447
  247MOL0     H33283   2.614   3.461   6.536 -0.1682 -0.3122  0.8738
  247MOL0     H33284   2.641   3.226   6.594 -0.5842 -1.9254 -0.9348
  247MOL0     H33285   2.471   3.205   6.580 -0.8701  3.1667  0.7557
  247MOL0     H33286   2.514   3.278   6.317 -0.1810 -0.3904  0.7706
  247MOL0     H33287   2.684   3.279   6.358 -0.8559  2.4476 -0.7819
  247MOL0     H33288   2.499   3.047   6.377 -1.1117  2.7701 -1.3947
  247MOL0     H33289   2.632   3.064   6.258  0.9351 -2.3849  0.6152
  247MOL0     H33290   2.808   3.044   6.431 -0.3183  1.3373 -3.8471
  247MOL0     H33291   2.688   3.015   6.550 -1.2984  1.5673  0.0521
  247MOL0     H33292   2.775   2.861   6.304 -1.5458  1.9628 -1.3523
  247MOL0     H33293   2.774   2.802   6.467  0.8530 -1.5860 -2.1693
  247MOL0     H33294   2.514   2.847   6.313 -1.3038 -2.1550  0.4180
  247MOL0     H33295   2.522   2.798   6.475 -1.3911  1.3089 -1.0605
  247MOL0     H33296   2.530   2.619   6.130  1.9677 -1.6536 -1.7633
  247MOL0     H33297   2.539   2.342   6.099 -0.5344 -0.0826  0.2162
  247MOL0     H33298   2.688   2.427   6.025  2.5581 -2.0950 -0.2675
  247MOL0     H33299   2.685   2.187   6.217 -0.4955  2.3953  0.6160
  247MOL0     H33300   2.828   2.302   6.196  0.5236  0.4789  2.3845
  247MOL0     H33301   2.828   2.267   5.960 -0.2157 -0.1161 -1.3742
  247MOL0     H33302   2.705   2.151   5.956  1.1213 -1.4246 -0.8968
  247MOL0     H33303   2.988   2.105   6.078  1.8635 -2.0376 -2.6027
  247MOL0     H33304   2.897   2.030   5.953 -1.6526  0.8216 -0.1656
  247MOL0     H33305   2.950   1.828   5.975 -1.2661  0.5798  1.2765
  247MOL0     H33306   3.228   1.595   6.021 -0.2897  0.9676  1.6934
  247MOL0     H33307   3.067   1.535   5.960 -0.7370 -0.7752  2.8548
  247MOL0     H33308   3.130   1.686   5.901  1.9930  0.0829  1.1154
  247MOL0     H33309   3.450   1.533   6.421  1.5661 -0.2751 -0.6989
  247MOL0     H33310   3.578   1.334   6.513 -0.1771 -2.5908  2.3221
  247MOL0     H33311   3.650   1.061   6.745 -1.0199  1.4579  2.3301
  247MOL0     H33312   3.667   1.180   6.611 -0.0359  1.0966 -0.3007
  247MOL0     H33313   3.574   1.353   6.754 -3.0028 -3.0416 -1.5491
  247MOL0     H33314   3.593   1.252   6.895 -1.4951 -0.9796 -0.2206
  247MOL0     H33315   3.759   1.415   6.888  0.5706  1.2245 -2.3280
  247MOL0     H33316   3.813   1.372   6.732 -4.1398  3.5766 -0.4959
  247MOL0     H33317   3.834   1.235   7.009 -0.7420 -1.9523 -0.1965
  247MOL0     H33318   3.856   1.134   6.859  0.4906  0.9272 -0.7568
  247MOL0     H33319   4.020   1.380   6.921  0.3282  0.4725 -0.7170
  247MOL0     H33320   4.030   1.275   6.783  0.2880  1.1451  0.6716
  247MOL0     H33321   4.047   1.185   7.074 -0.3986  2.2826 -0.6583
  247MOL0     H33322   4.061   1.084   6.929 -0.4030  1.2444 -1.8165
  247MOL0     H33323   4.233   1.320   7.031 -1.5942  0.0734 -0.5490
  247MOL0     H33324   4.270   1.239   6.882 -0.8634 -3.1756 -1.3212
  247MOL0     H33325   4.344   1.035   6.988 -2.3898 -1.3865  1.0168
  247MOL0     H33326   4.275   1.058   7.130 -4.6400  0.5340 -2.7700
  247MOL0     H33327   3.230   1.155   6.665  1.1102 -0.6280 -1.1185
  247MOL0     H33328   3.095   1.348   6.568  1.1267 -0.4067  1.7968
  247MOL0     H33329   2.997   1.723   6.459 -0.1426  1.2567  0.1727
  247MOL0     H33330   2.877   1.906   6.393 -0.6760 -1.9195 -1.3848
  247MOL0     H33331   2.555   3.777   6.738 -0.0727  2.1837  1.6265
  247MOL0     H33332   2.650   3.875   6.958 -0.6716  0.2972  1.3224
  247MOL0     H33333   2.617   3.850   7.452  1.1143  1.6078  0.4019
  247MOL0     H33334   2.709   3.851   7.673 -2.6302  1.2501 -2.5172
  247MOL0     H33335   2.858   3.916   7.866 -0.8875 -0.9669  2.5433
  247MOL0     H33336   2.794   3.747   7.879 -1.3363  0.6622 -1.4794
  247MOL0     H33337   3.053   3.869   7.985 -0.5069  0.2120 -2.2076
  247MOL0     H33338   2.987   3.707   8.006 -1.0503 -0.6890  1.2473
  247MOL0     H33339   2.787   3.810   8.112  1.7816 -1.6204  1.9862
  247MOL0     H33340   2.863   3.967   8.123  0.8205  0.0784 -0.9163
  247MOL0     H33341   2.911   3.710   8.284  2.1153  0.5069  3.9330
  247MOL0     H33342   2.883   3.878   8.343  0.8684 -0.0579  1.5248
  247MOL0     H33343   3.308   3.899   8.280  0.1965  1.5184  2.0709
  247MOL0     H33344   3.084   3.717   7.541 -0.4114 -0.1618  2.7159
  247MOL0     H33345   2.977   3.693   7.293 -0.1226 -1.1550  0.4009
  248MOL0     O33346   7.859   6.654   9.161  0.0233 -0.0087 -0.4043
  248MOL0     C33347   7.806   6.708   9.256  0.2054  0.5587  0.7019
  248MOL0     O33348   7.862   6.737   9.375  0.3163 -0.0065  0.5995
  248MOL0     C33349   7.992   6.698   9.389  1.2801  0.5169  1.0051
  248MOL0     C33350   8.104   6.771   9.346 -0.7186  0.2546  0.4762
  248MOL0     C33351   8.235   6.730   9.390  0.1940  0.4534  0.7599
  248MOL0     C33352   8.252   6.613   9.467  0.3077  0.9190 -0.2787
  248MOL0     O33353   8.379   6.573   9.501 -0.3094 -0.5596  0.1475
  248MOL0     C33354   8.413   6.511   9.627  0.1641 -0.2955  0.5043
  248MOL0     C33355   8.561   6.514   9.640 -0.8086  0.3466  1.1739
  248MOL0     C33356   8.630   6.387   9.572 -0.2896 -0.5348  0.0379
  248MOL0     C33357   8.786   6.394   9.567  0.9931 -0.6444 -1.0154
  248MOL0     C33358   8.836   6.283   9.460  0.1049 -0.5670  0.3979
  248MOL0     C33359   8.987   6.266   9.444 -0.8698 -0.6237  0.4826
  248MOL0     C33360   9.016   6.154   9.350 -1.3739  0.6117 -0.1474
  248MOL0     C33361   9.169   6.120   9.343  0.0889 -0.0850 -0.7878
  248MOL0     N33362   9.252   6.103   9.465 -0.7529  0.2123 -0.2202
  248MOL0     C33363   9.352   6.190   9.499  0.7036  0.0547 -0.6018
  248MOL0     C33364   9.395   6.137   9.617  0.2308  0.6038 -0.9241
  248MOL0     C33365   9.497   6.187   9.703  0.6628  0.0623 -0.0795
  248MOL0     C33366   9.637   6.169   9.646 -0.0145 -0.3033 -0.0919
  248MOL0     C33367   9.677   6.271   9.528  0.3125  0.4844 -0.8977
  248MOL0     C33368   9.825   6.249   9.500 -0.3206 -0.3206 -0.1546
  248MOL0     O33369   9.853   6.109   9.493 -0.4739 -0.8063 -0.1766
  248MOL0     C33370   9.971   6.066   9.434  1.1552  0.0286 -0.2373
  248MOL0     C33371   9.975   5.932   9.389  0.4236 -0.0154 -0.0870
  248MOL0     C33372  10.099   5.870   9.343 -1.0004  0.4047 -0.2164
  248MOL0     C33373  10.097   5.729   9.289 -0.4976  0.2677  0.2836
  248MOL0     C33374  10.223   5.946   9.349 -0.3776 -0.7115 -0.1852
  248MOL0     C33375  10.354   5.901   9.296  0.2899  0.3150  1.0438
  248MOL0     O33376  10.462   5.967   9.346 -0.2956 -0.1106  0.1745
  248MOL0     C33377  10.592   5.947   9.320 -0.0865 -0.3721 -0.7409
  248MOL0     C33378  10.680   6.061   9.345  0.1657  0.0248  0.0786
  248MOL0     C33379  10.821   6.050   9.335  0.1166  0.5134  0.2252
  248MOL0     C33380  10.875   5.923   9.303 -0.4134  0.3705 -0.9003
  248MOL0     O33381  11.004   5.897   9.288 -0.1008 -0.4040  0.2325
  248MOL0     C33382  11.053   5.871   9.155  0.5862 -0.3752  0.0310
  248MOL0     C33383  11.209   5.854   9.179 -0.0317 -0.1444 -0.3804
  248MOL0     C33384  11.271   5.766   9.067  0.1997 -0.4693 -0.1354
  248MOL0     C33385  11.422   5.741   9.106 -0.3887 -0.0527 -0.1334
  248MOL0     C33386  11.515   5.684   8.994  0.4303 -0.5237  0.1636
  248MOL0     C33387  11.651   5.633   9.058  1.0584 -0.1824 -0.7535
  248MOL0     C33388  11.691   5.483   9.025 -0.0334  0.0208 -0.3023
  248MOL0     C33389  11.717   5.471   8.876  0.2558 -0.2157 -1.2692
  248MOL0    Cl33390  11.761   5.307   8.845 -0.1162  0.4147 -0.4490
  248MOL0     C33391  10.787   5.813   9.280  0.1015 -0.6969 -0.4592
  248MOL0     C33392  10.655   5.823   9.294  0.9704 -0.3870 -0.2752
  248MOL0     O33393  10.371   5.810   9.217 -0.0713 -0.7174  1.1444
  248MOL0     C33394  10.210   6.082   9.400 -0.3303  0.6287 -0.2807
  248MOL0     C33395  10.087   6.136   9.433 -1.1054  0.0588 -0.4451
  248MOL0     N33396   9.327   6.019   9.651 -0.4586  0.1308  0.7467
  248MOL0     N33397   9.243   6.003   9.554 -0.5594  0.0666 -0.6882
  248MOL0     C33398   8.142   6.536   9.505 -0.3357 -0.0328  0.1791
  248MOL0     C33399   8.016   6.590   9.473 -0.6995  1.5922 -0.1014
  248MOL0     C33400   7.659   6.738   9.249  0.5437 -0.4629 -0.0131
  248MOL0     C33401   7.587   6.675   9.153  0.5976 -0.1067 -0.6785
  248MOL0     C33402   7.446   6.695   9.143 -0.1620 -0.5085  0.1486
  248MOL0     C33403   7.371   6.774   9.229 -0.3017 -0.4433 -1.0001
  248MOL0     O33404   7.232   6.783   9.211 -0.1467 -0.4654  0.5323
  248MOL0     C33405   7.200   6.920   9.185  0.0554 -0.5310 -0.7830
  248MOL0     C33406   7.089   6.950   9.074  0.0567  0.0733  0.7456
  248MOL0     C33407   6.947   6.896   9.101 -0.2943 -0.0015  0.5948
  248MOL0     C33408   6.843   6.969   9.016 -0.0102 -1.0219 -0.4376
  248MOL0     C33409   6.856   6.945   8.874 -0.0657 -1.2999 -0.1240
  248MOL0     C33410   6.846   6.919   8.757 -0.4744 -0.3240  0.4078
  248MOL0     C33411   7.449   6.836   9.339  0.4376  0.6423  0.7735
  248MOL0     C33412   7.590   6.820   9.339 -0.0991  1.0016 -0.1640
  248MOL0     H33413   8.094   6.864   9.291  1.6198 -0.5396 -1.5001
  248MOL0     H33414   8.304   6.799   9.343 -1.9046 -0.3029 -3.9497
  248MOL0     H33415   8.369   6.581   9.699  4.9531  1.4667  2.1409
  248MOL0     H33416   8.379   6.408   9.643 -1.9447  0.6428  2.8444
  248MOL0     H33417   8.608   6.603   9.597 -1.7102  0.9527  1.4002
  248MOL0     H33418   8.572   6.514   9.749 -2.8194  1.1824  1.4204
  248MOL0     H33419   8.605   6.290   9.616  1.4815 -2.4499 -2.8477
  248MOL0     H33420   8.603   6.396   9.466  1.2248  0.2793 -0.3094
  248MOL0     H33421   8.818   6.491   9.526  2.7070 -1.1847 -1.0412
  248MOL0     H33422   8.826   6.376   9.667 -1.5512 -0.7920  0.0299
  248MOL0     H33423   8.782   6.196   9.496 -3.7523  1.0084 -1.0693
  248MOL0     H33424   8.794   6.301   9.361  3.4290 -0.8134 -1.2112
  248MOL0     H33425   9.039   6.354   9.406 -0.0407 -1.7325 -1.0948
  248MOL0     H33426   9.029   6.253   9.544 -1.0359  2.6397  1.0675
  248MOL0     H33427   8.956   6.067   9.379  2.3201 -2.1550 -0.0223
  248MOL0     H33428   8.997   6.193   9.250  1.3516  2.0432 -0.2198
  248MOL0     H33429   9.207   6.193   9.272 -0.7703  0.4082 -0.7534
  248MOL0     H33430   9.170   6.021   9.298 -0.9084 -0.5829  0.2319
  248MOL0     H33431   9.377   6.279   9.442 -0.4632  1.1492  0.5194
  248MOL0     H33432   9.479   6.294   9.716 -2.0834 -0.1583 -1.5091
  248MOL0     H33433   9.484   6.132   9.797  0.4070 -0.8683 -0.6484
  248MOL0     H33434   9.636   6.064   9.615 -1.4151 -0.1539 -0.6283
  248MOL0     H33435   9.703   6.182   9.733 -3.5770  3.2356  2.4032
  248MOL0     H33436   9.651   6.374   9.554 -0.1177  0.1195  0.1886
  248MOL0     H33437   9.623   6.258   9.434  0.4261 -2.5194 -0.6544
  248MOL0     H33438   9.894   6.295   9.571 -0.9776 -0.0681  0.3401
  248MOL0     H33439   9.841   6.300   9.405  0.4288 -1.7540 -0.8221
  248MOL0     H33440   9.885   5.872   9.381 -1.7335  3.0451 -0.5247
  248MOL0     H33441  10.105   5.726   9.180  2.1860 -0.3203  0.4335
  248MOL0     H33442  10.184   5.681   9.334 -0.6670  0.5586  0.9347
  248MOL0     H33443  10.006   5.675   9.319 -0.8128  0.6279 -0.0088
  248MOL0     H33444  10.641   6.158   9.373  4.4077  2.2689 -0.9471
  248MOL0     H33445  10.875   6.141   9.359  0.6067  0.8113 -1.8477
  248MOL0     H33446  11.007   5.780   9.117 -2.8597 -0.4363  3.7352
  248MOL0     H33447  11.035   5.962   9.096  0.1345 -0.4844 -0.0016
  248MOL0     H33448  11.260   5.946   9.208  2.9895 -1.5896 -0.7864
  248MOL0     H33449  11.231   5.788   9.264 -1.6300 -0.7763 -0.4206
  248MOL0     H33450  11.263   5.826   8.976 -2.0222  0.1488  0.4168
  248MOL0     H33451  11.218   5.672   9.051 -1.0148  0.0594  0.6788
  248MOL0     H33452  11.469   5.832   9.143  0.2129 -0.8304  1.0672
  248MOL0     H33453  11.413   5.673   9.191 -3.1028  0.6810  0.2905
  248MOL0     H33454  11.523   5.753   8.909 -1.0849  0.1645  0.5390
  248MOL0     H33455  11.455   5.599   8.961 -0.1748 -1.2619  2.9290
  248MOL0     H33456  11.734   5.698   9.026  2.9965 -2.7017 -1.1286
  248MOL0     H33457  11.636   5.640   9.166  0.6152 -0.3466 -0.8024
  248MOL0     H33458  11.615   5.410   9.056 -0.9036  0.6987 -0.7894
  248MOL0     H33459  11.780   5.457   9.083 -1.0593 -2.2957  0.3353
  248MOL0     H33460  11.793   5.543   8.844  1.7407  0.3788  2.9822
  248MOL0     H33461  11.616   5.482   8.837 -1.7716 -4.4948  2.0016
  248MOL0     H33462  10.828   5.715   9.257  2.3188  0.4445 -1.7487
  248MOL0     H33463  10.598   5.731   9.302  2.3695 -1.1838  1.0233
  248MOL0     H33464  10.297   6.145   9.411  2.0935 -2.5243  0.1359
  248MOL0     H33465  10.093   6.240   9.463  4.2963 -0.0509 -0.1658
  248MOL0     H33466   8.158   6.453   9.572  2.3699  1.4496  1.5777
  248MOL0     H33467   7.935   6.541   9.527  2.0789  0.0448  3.0918
  248MOL0     H33468   7.630   6.617   9.072 -3.8270 -2.1945 -1.8262
  248MOL0     H33469   7.384   6.639   9.074 -2.2231  2.0220 -0.1702
  248MOL0     H33470   7.172   6.975   9.276  1.4208 -0.4078 -0.4271
  248MOL0     H33471   7.291   6.975   9.159  0.4354 -0.2921  0.9285
  248MOL0     H33472   7.133   6.913   8.981  0.2038 -0.4822  1.0300
  248MOL0     H33473   7.082   7.058   9.062 -3.3585  0.1032  1.8556
  248MOL0     H33474   6.916   6.893   9.206 -3.7955 -1.8960 -0.3149
  248MOL0     H33475   6.954   6.790   9.077 -0.0976  0.1701 -0.1248
  248MOL0     H33476   6.846   7.078   9.017 -3.7274 -0.7349  2.4209
  248MOL0     H33477   6.740   6.935   9.033 -0.2076 -1.6727 -2.6253
  248MOL0     H33478   6.854   6.882   8.657  3.1112 -1.4956  1.0070
  248MOL0     H33479   7.398   6.894   9.415 -1.1126 -1.4539  1.4332
  248MOL0     H33480   7.657   6.867   9.411  1.0412  0.6110 -0.9322
  249MOL0     O33481   6.599   0.738  11.064 -0.5746 -0.5346 -0.2821
  249MOL0     C33482   6.645   0.637  11.108  0.6755 -0.2017 -0.3030
  249MOL0     O33483   6.601   0.511  11.078 -0.0391  0.5998 -0.4569
  249MOL0     C33484   6.478   0.481  11.025 -0.2183 -0.0887 -1.6534
  249MOL0     C33485   6.415   0.569  10.940 -0.1486 -0.1814 -1.0881
  249MOL0     C33486   6.297   0.532  10.871 -0.7939 -0.7464  0.2663
  249MOL0     C33487   6.240   0.412  10.900  0.5549  1.4217  0.2566
  249MOL0     O33488   6.133   0.366  10.831  0.4489  0.2346  0.0116
  249MOL0     C33489   6.159   0.239  10.776 -0.4230  0.5453  0.1169
  249MOL0     C33490   6.027   0.159  10.747  0.4531 -0.0895 -0.4024
  249MOL0     C33491   5.970   0.103  10.882 -0.5757 -0.1279 -1.1274
  249MOL0     C33492   5.818   0.070  10.871  0.4997  0.6648  0.0304
  249MOL0     C33493   5.759   0.049  11.020 -0.0759 -0.2117 -0.0275
  249MOL0     C33494   5.611   0.031  11.007  0.3448  0.0723  0.5983
  249MOL0     C33495   5.558  -0.003  11.144  0.1228  0.3214 -0.3088
  249MOL0     C33496   5.405   0.002  11.158  1.3356 -0.1533 -0.0418
  249MOL0     N33497   5.333  -0.104  11.085 -0.1462 -0.8536  0.1454
  249MOL0     C33498   5.301  -0.236  11.130 -0.3820  0.0340 -0.4227
  249MOL0     C33499   5.246  -0.306  11.038  0.2137 -0.6812 -0.1946
  249MOL0     C33500   5.204  -0.451  11.049  0.5005 -0.0119 -0.0913
  249MOL0     C33501   5.323  -0.553  11.059  0.2036 -0.5914  0.3058
  249MOL0     C33502   5.416  -0.552  10.937  0.9009  0.1146  0.4439
  249MOL0     C33503   5.346  -0.607  10.807  0.5432  0.0649  1.2037
  249MOL0     O33504   5.310  -0.751  10.824 -0.2617 -0.6686 -0.1385
  249MOL0     C33505   5.405  -0.852  10.849  1.0174 -0.6533 -0.7070
  249MOL0     C33506   5.539  -0.837  10.824 -0.2499 -0.2999 -0.2772
  249MOL0     C33507   5.629  -0.935  10.857 -0.3786  1.2569 -0.3783
  249MOL0     C33508   5.767  -0.917  10.790  0.0428 -0.0184 -0.3805
  249MOL0     C33509   5.585  -1.049  10.930 -0.0368  0.8153  0.2047
  249MOL0     C33510   5.670  -1.164  10.962 -0.0339 -0.1095 -0.4809
  249MOL0     O33511   5.804  -1.155  10.934  0.2512 -0.2954  0.5633
  249MOL0     C33512   5.875  -1.273  10.945  0.4046  0.2739 -0.5611
  249MOL0     C33513   5.836  -1.394  10.880  1.0459  0.0399 -0.1603
  249MOL0     C33514   5.927  -1.499  10.862  0.4246  0.7553  0.4848
  249MOL0     C33515   6.049  -1.499  10.938 -0.3576 -1.0570 -0.1416
  249MOL0     O33516   6.142  -1.601  10.942  0.2489  0.0811 -0.6817
  249MOL0     C33517   6.125  -1.711  10.857 -0.8515  0.3275 -0.0954
  249MOL0     C33518   6.267  -1.778  10.874 -0.0012  0.3588 -0.2410
  249MOL0     C33519   6.273  -1.913  10.807  0.2711  0.4408  0.8768
  249MOL0     C33520   6.190  -2.029  10.882 -0.2746  0.1029 -0.1876
  249MOL0     C33521   6.263  -2.076  11.014  0.1747  0.4043  0.7312
  249MOL0     C33522   6.404  -2.148  10.997 -0.9664  0.1239  0.5729
  249MOL0     C33523   6.423  -2.247  11.118  1.1583 -0.3322  0.6178
  249MOL0     C33524   6.551  -2.333  11.099 -0.6240  0.4185  0.7838
  249MOL0    Cl33525   6.574  -2.453  11.235  0.1410  0.1753  0.1214
  249MOL0     C33526   6.086  -1.390  11.014  0.3473  0.2760  0.3970
  249MOL0     C33527   6.008  -1.277  11.009  0.2314  0.6888 -0.1083
  249MOL0     O33528   5.622  -1.261  11.028 -0.3145 -0.2127  0.6153
  249MOL0     C33529   5.454  -1.051  10.970 -0.3203 -0.0239  0.2232
  249MOL0     C33530   5.360  -0.961  10.927 -0.4622  0.3073 -0.5557
  249MOL0     N33531   5.245  -0.221  10.931  0.0232 -0.6573 -0.0057
  249MOL0     N33532   5.300  -0.108  10.955  0.6393  0.1875 -0.0244
  249MOL0     C33533   6.286   0.331  11.008 -0.2629  0.3207  0.4290
  249MOL0     C33534   6.416   0.358  11.061  1.3722 -0.8569  0.0129
  249MOL0     C33535   6.766   0.647  11.185 -0.5233  0.1305 -0.7559
  249MOL0     C33536   6.833   0.774  11.188 -0.4599  0.1506 -0.1395
  249MOL0     C33537   6.962   0.781  11.246 -1.2871 -0.0889 -0.8098
  249MOL0     C33538   7.017   0.664  11.294 -1.0741  0.9363 -0.6372
  249MOL0     O33539   7.133   0.658  11.365  0.6353 -0.1758  0.1526
  249MOL0     C33540   7.216   0.775  11.359 -0.3585  1.3132 -0.6881
  249MOL0     C33541   7.333   0.766  11.444  0.1991 -1.0119  0.1102
  249MOL0     C33542   7.439   0.871  11.399  1.3880  0.7414  0.2469
  249MOL0     C33543   7.552   0.888  11.510  0.4779  0.4867  0.4680
  249MOL0     C33544   7.622   1.020  11.502 -0.1604  0.6427  0.6324
  249MOL0     C33545   7.680   1.128  11.497  0.3724  0.0146 -0.4328
  249MOL0     C33546   6.951   0.540  11.297 -0.5690 -0.7970  0.5042
  249MOL0     C33547   6.821   0.532  11.241  0.2140  0.5999 -0.0066
  249MOL0     H33548   6.445   0.669  10.911 -0.9020 -0.2401 -2.0959
  249MOL0     H33549   6.262   0.585  10.782  1.6522 -2.4634 -1.8830
  249MOL0     H33550   6.221   0.241  10.686 -0.9821 -0.7137 -0.3234
  249MOL0     H33551   6.224   0.173  10.835  2.0315  2.4094 -0.3192
  249MOL0     H33552   5.940   0.208  10.704  0.5835 -1.9849 -3.1081
  249MOL0     H33553   6.056   0.081  10.675  0.4711 -0.0995 -0.3834
  249MOL0     H33554   6.016   0.008  10.911 -2.4704 -0.1220  2.5770
  249MOL0     H33555   5.988   0.177  10.960  0.8706 -0.1595 -1.4121
  249MOL0     H33556   5.770   0.163  10.840  2.5736  2.4939  1.8793
  249MOL0     H33557   5.795  -0.019  10.811  4.0498  0.5886 -1.5032
  249MOL0     H33558   5.808  -0.038  11.064  1.3327 -0.6858 -2.3563
  249MOL0     H33559   5.770   0.143  11.076 -3.7895  1.1948 -1.3353
  249MOL0     H33560   5.561   0.121  10.969  2.3823  0.9929 -0.0124
  249MOL0     H33561   5.588  -0.052  10.939 -1.1315 -0.4930  1.7239
  249MOL0     H33562   5.600  -0.098  11.177  0.7260  0.3139 -1.0758
  249MOL0     H33563   5.595   0.082  11.203 -1.7643  1.4919 -0.7185
  249MOL0     H33564   5.379   0.104  11.128  1.5403  0.0245  0.3722
  249MOL0     H33565   5.376  -0.005  11.263  2.3839 -0.8069  0.2268
  249MOL0     H33566   5.322  -0.287  11.224  0.9452 -1.1424 -1.3091
  249MOL0     H33567   5.143  -0.464  11.139  0.6490  0.3080  0.0580
  249MOL0     H33568   5.138  -0.486  10.969 -1.5835  1.4595  0.8834
  249MOL0     H33569   5.275  -0.652  11.060  0.3165 -0.6508 -0.0787
  249MOL0     H33570   5.378  -0.534  11.152  1.7509 -0.8773 -0.5157
  249MOL0     H33571   5.502  -0.617  10.954  1.0603 -0.5763 -2.4554
  249MOL0     H33572   5.463  -0.455  10.919  3.0440 -1.1185 -1.0767
  249MOL0     H33573   5.419  -0.604  10.726 -0.6833 -0.7711  0.0154
  249MOL0     H33574   5.255  -0.548  10.792  0.4631  0.0787  1.7040
  249MOL0     H33575   5.576  -0.747  10.775 -2.7476 -1.0216 -3.9140
  249MOL0     H33576   5.793  -0.996  10.719  4.2577  1.9163 -1.3652
  249MOL0     H33577   5.767  -0.830  10.723 -0.6030 -1.1064 -1.8343
  249MOL0     H33578   5.844  -0.913  10.868  0.8098 -3.1268 -0.8575
  249MOL0     H33579   5.740  -1.380  10.831  2.1812  0.7729 -2.2781
  249MOL0     H33580   5.904  -1.587  10.802 -0.8318  0.3225  1.5499
  249MOL0     H33581   6.041  -1.767  10.899 -0.6050 -0.2347 -0.3508
  249MOL0     H33582   6.110  -1.680  10.753 -1.0957  0.8286  0.0863
  249MOL0     H33583   6.347  -1.725  10.822  0.8275  0.6531  1.2620
  249MOL0     H33584   6.303  -1.781  10.978  1.8470 -1.5565 -0.8495
  249MOL0     H33585   6.375  -1.950  10.797 -0.4894 -1.6678  0.3690
  249MOL0     H33586   6.245  -1.915  10.701  1.5933 -2.0553  0.5047
  249MOL0     H33587   6.087  -2.007  10.911 -0.2922 -1.8816  1.4895
  249MOL0     H33588   6.183  -2.108  10.806  0.6159  1.6292 -1.9497
  249MOL0     H33589   6.188  -2.144  11.057 -1.0962 -0.6471 -2.7440
  249MOL0     H33590   6.255  -1.992  11.084 -4.4610 -1.4959  2.9089
  249MOL0     H33591   6.401  -2.209  10.907  1.4150 -0.4451  0.8263
  249MOL0     H33592   6.482  -2.071  10.995  0.3934 -1.1817  1.2176
  249MOL0     H33593   6.326  -2.296  11.131 -0.5696  2.7337  0.4571
  249MOL0     H33594   6.436  -2.188  11.209 -1.8051 -0.5666  1.2880
  249MOL0     H33595   6.636  -2.271  11.071 -1.5211  0.4198 -2.3265
  249MOL0     H33596   6.527  -2.395  11.013 -1.0938 -0.3957  1.4829
  249MOL0     H33597   6.183  -1.399  11.062  0.3046 -0.3229  0.3881
  249MOL0     H33598   6.036  -1.183  11.057 -2.5422  0.6026  1.9239
  249MOL0     H33599   5.422  -1.139  11.027 -0.1733 -0.5817 -0.5437
  249MOL0     H33600   5.260  -0.981  10.966 -0.6941  0.7307 -0.9239
  249MOL0     H33601   6.237   0.239  11.039 -0.4086  0.7887  1.6163
  249MOL0     H33602   6.454   0.295  11.141  1.3381 -0.6382  0.2051
  249MOL0     H33603   6.785   0.865  11.155  2.8193  1.3732 -1.9488
  249MOL0     H33604   7.012   0.876  11.259  0.9078 -1.3654  0.8413
  249MOL0     H33605   7.248   0.790  11.255  2.6801  2.0901  0.2496
  249MOL0     H33606   7.160   0.864  11.391  0.5005  1.8220 -0.5556
  249MOL0     H33607   7.390   0.673  11.451  1.7754 -0.1191 -0.2157
  249MOL0     H33608   7.298   0.775  11.547 -2.1672 -1.9055 -0.5575
  249MOL0     H33609   7.392   0.969  11.389  0.9056  0.4608 -0.2838
  249MOL0     H33610   7.477   0.837  11.303  0.5189 -2.4981  0.9325
  249MOL0     H33611   7.622   0.804  11.504 -0.9311 -0.6445 -2.8629
  249MOL0     H33612   7.504   0.888  11.608 -1.6991  1.4879 -0.5326
  249MOL0     H33613   7.719   1.228  11.502 -3.5229  1.9119 -2.3626
  249MOL0     H33614   6.997   0.448  11.333 -0.7763 -3.1503 -4.3183
  249MOL0     H33615   6.774   0.434  11.230  1.5914  0.1209 -2.0777
  250MOL0     O33616   4.059   8.616   1.791  0.5755  0.7073 -0.2247
  250MOL0     C33617   3.938   8.609   1.793  0.0877  0.7685 -0.4069
  250MOL0     O33618   3.860   8.685   1.872 -0.3530  0.7285  0.2227
  250MOL0     C33619   3.897   8.802   1.933  0.1232 -0.3502  0.2417
  250MOL0     C33620   3.939   8.785   2.063  0.2155  0.3148  0.4680
  250MOL0     C33621   3.970   8.901   2.141 -0.4355  0.6562 -0.3317
  250MOL0     C33622   3.972   9.029   2.076 -0.1653  0.6827  0.1078
  250MOL0     O33623   3.998   9.138   2.151 -0.1050 -0.2038 -0.5615
  250MOL0     C33624   4.061   9.251   2.095  0.2251  0.0751  0.1008
  250MOL0     C33625   3.953   9.358   2.071  0.1330 -0.3426 -0.1297
  250MOL0     C33626   4.015   9.481   1.984 -0.2554  0.0450 -1.2189
  250MOL0     C33627   3.908   9.593   1.978 -0.3283 -0.7817 -0.6848
  250MOL0     C33628   3.960   9.687   1.867  0.8415 -0.3497  0.1364
  250MOL0     C33629   4.016   9.808   1.936  0.2032  0.7719  0.3903
  250MOL0     C33630   4.088   9.904   1.848 -0.0226  0.0751 -0.4078
  250MOL0     C33631   4.113  10.043   1.908  0.1336  0.1986  0.0993
  250MOL0     N33632   4.148  10.143   1.809 -0.0509  0.3193 -0.3116
  250MOL0     C33633   4.056  10.237   1.766  0.2659 -0.6764  0.5669
  250MOL0     C33634   4.129  10.321   1.679  0.7888 -0.4433 -0.7008
  250MOL0     C33635   4.074  10.438   1.595  0.6684  0.1643 -0.6288
  250MOL0     C33636   3.972  10.382   1.492  0.0906 -0.2793 -0.3605
  250MOL0     C33637   3.915  10.495   1.403 -0.1039 -0.0086  0.1579
  250MOL0     C33638   3.841  10.441   1.276  0.4977  0.0173 -0.4071
  250MOL0     O33639   3.777  10.552   1.203  0.0372  0.9929 -0.1044
  250MOL0     C33640   3.653  10.530   1.152  0.3793 -0.1414 -0.3660
  250MOL0     C33641   3.599  10.401   1.124 -0.6001 -0.7115 -1.0497
  250MOL0     C33642   3.491  10.382   1.050 -0.8678  0.2912 -0.3387
  250MOL0     C33643   3.459  10.239   1.004 -0.8755  0.6398 -0.1427
  250MOL0     C33644   3.416  10.498   1.016 -0.5403  0.1656  0.3675
  250MOL0     C33645   3.297  10.500   0.920 -0.4216  0.2807 -0.0644
  250MOL0     O33646   3.249  10.629   0.888  0.0174 -0.0026  0.5325
  250MOL0     C33647   3.127  10.641   0.820  0.4618  0.7902 -0.2459
  250MOL0     C33648   3.020  10.716   0.876  0.0978 -0.2750 -0.3217
  250MOL0     C33649   2.907  10.741   0.800 -0.4884  0.1953 -0.3655
  250MOL0     C33650   2.886  10.673   0.676 -0.5421  0.1689 -0.3191
  250MOL0     O33651   2.770  10.680   0.605  0.2575  0.4380  0.4421
  250MOL0     C33652   2.667  10.614   0.688 -0.3056 -0.7916  0.6087
  250MOL0     C33653   2.541  10.624   0.596  0.3267 -0.1508  0.2080
  250MOL0     C33654   2.545  10.556   0.466 -0.1954  0.0529  0.4904
  250MOL0     C33655   2.560  10.407   0.491 -0.5740 -0.7550 -1.0805
  250MOL0     C33656   2.587  10.328   0.362  0.3334 -0.3345  0.3051
  250MOL0     C33657   2.563  10.181   0.392  0.3613  0.8849  0.2391
  250MOL0     C33658   2.549  10.094   0.267  0.5949 -0.1219 -0.5565
  250MOL0     C33659   2.500   9.948   0.301 -0.3643  0.6204 -0.0835
  250MOL0    Cl33660   2.628   9.847   0.384  0.1826  0.1188 -0.3684
  250MOL0     C33661   2.979  10.570   0.644 -1.2919 -0.5870 -0.0176
  250MOL0     C33662   3.108  10.558   0.706  0.6405 -0.5476  0.3960
  250MOL0     O33663   3.240  10.395   0.890  0.0317  0.5231 -0.4247
  250MOL0     C33664   3.461  10.625   1.052  1.1746  0.5573  0.1978
  250MOL0     C33665   3.578  10.638   1.108 -1.7057  0.8441 -0.0591
  250MOL0     N33666   4.264  10.282   1.681  0.7225  0.6026  0.5304
  250MOL0     N33667   4.272  10.175   1.758 -0.0711  0.4115  0.9687
  250MOL0     C33668   3.935   9.043   1.941 -0.3626 -0.2796 -0.0867
  250MOL0     C33669   3.901   8.926   1.863 -0.1039  0.1907 -0.0605
  250MOL0     C33670   3.872   8.511   1.707 -0.1177 -0.3837  0.3794
  250MOL0     C33671   3.738   8.539   1.678 -0.4015  0.5679  0.5275
  250MOL0     C33672   3.668   8.440   1.599 -1.0303 -0.9857 -0.2755
  250MOL0     C33673   3.728   8.323   1.551 -0.0379  1.4597  0.5724
  250MOL0     O33674   3.658   8.232   1.481 -0.7144 -0.1283 -0.2314
  250MOL0     C33675   3.651   8.104   1.547 -0.6816 -0.5515  0.0199
  250MOL0     C33676   3.661   7.990   1.449  0.1783  0.3415 -0.0332
  250MOL0     C33677   3.544   7.986   1.352 -0.6426  0.5186  0.7356
  250MOL0     C33678   3.585   8.063   1.217 -0.3097  0.0327  0.1793
  250MOL0     C33679   3.513   8.028   1.098  0.4584  0.7147  0.6532
  250MOL0     C33680   3.447   8.002   1.004 -0.6332 -0.8798 -0.5199
  250MOL0     C33681   3.866   8.310   1.571 -0.0225  0.1984  0.0130
  250MOL0     C33682   3.941   8.406   1.645 -0.4666  0.0711 -0.1105
  250MOL0     H33683   3.949   8.688   2.110  2.0576  0.1370 -0.1962
  250MOL0     H33684   3.994   8.893   2.246  0.4575 -2.0400 -0.6708
  250MOL0     H33685   4.140   9.295   2.157  1.0306 -2.1034  0.7410
  250MOL0     H33686   4.096   9.223   1.995 -1.8460  0.6350 -0.8352
  250MOL0     H33687   3.863   9.321   2.022 -1.7078  1.6510  1.5543
  250MOL0     H33688   3.916   9.394   2.167  0.7640  0.6025 -0.2263
  250MOL0     H33689   4.106   9.512   2.037 -2.5109  0.5045  2.8415
  250MOL0     H33690   4.040   9.451   1.882  3.4328  3.6689 -1.6658
  250MOL0     H33691   3.808   9.557   1.950 -0.0880 -0.3461 -2.1925
  250MOL0     H33692   3.879   9.642   2.072 -5.7123 -0.2648 -2.2837
  250MOL0     H33693   4.042   9.643   1.810  3.4277  2.6091  1.2781
  250MOL0     H33694   3.882   9.724   1.800  1.1058 -0.9087 -0.4944
  250MOL0     H33695   3.942   9.853   2.003 -1.9577 -1.8519 -0.0714
  250MOL0     H33696   4.095   9.768   2.001 -0.1825  0.2535  0.5414
  250MOL0     H33697   4.170   9.844   1.808 -1.6723 -3.4063  0.9732
  250MOL0     H33698   4.032   9.929   1.758 -0.0310  0.1183 -0.3910
  250MOL0     H33699   4.194  10.040   1.981  0.2834 -2.7115 -0.0668
  250MOL0     H33700   4.023  10.074   1.961 -0.2488  0.8847 -0.9149
  250MOL0     H33701   3.948  10.228   1.775  0.1359 -0.1107 -0.3223
  250MOL0     H33702   4.022  10.508   1.661  2.2699  0.2895  0.5654
  250MOL0     H33703   4.160  10.491   1.554  1.6362 -0.4271  0.5671
  250MOL0     H33704   3.889  10.328   1.539  1.9511 -2.3986  0.6793
  250MOL0     H33705   4.016  10.312   1.420  0.4262 -0.1953 -0.2382
  250MOL0     H33706   3.990  10.564   1.364 -1.1919  2.0567  1.5253
  250MOL0     H33707   3.848  10.557   1.464  0.6360  1.5343 -0.5435
  250MOL0     H33708   3.781  10.358   1.311 -0.8320  1.2150  0.2538
  250MOL0     H33709   3.913  10.400   1.204  2.0453  2.8628 -0.6696
  250MOL0     H33710   3.654  10.309   1.145  0.8108  0.6262  1.6274
  250MOL0     H33711   3.354  10.217   0.983 -0.0383 -0.7143 -3.5510
  250MOL0     H33712   3.527  10.203   0.926 -1.3191 -1.8422  0.5158
  250MOL0     H33713   3.483  10.171   1.087 -1.0659 -1.4221 -1.6948
  250MOL0     H33714   3.034  10.763   0.973 -2.7296 -1.8734  0.9913
  250MOL0     H33715   2.826  10.799   0.844 -1.1807 -1.0072 -0.0107
  250MOL0     H33716   2.696  10.512   0.715  0.0862 -0.6317  0.7813
  250MOL0     H33717   2.639  10.674   0.775  1.2304 -1.3587  1.5267
  250MOL0     H33718   2.451  10.581   0.639  2.0778 -3.4318  0.9258
  250MOL0     H33719   2.528  10.731   0.577  1.4514 -0.1904 -0.9811
  250MOL0     H33720   2.630  10.597   0.411  1.5331 -0.9932  2.2756
  250MOL0     H33721   2.454  10.587   0.413 -0.6216 -2.1677 -0.1465
  250MOL0     H33722   2.644  10.379   0.555  0.1108 -3.6990 -3.0681
  250MOL0     H33723   2.477  10.373   0.554  0.9156 -0.1396  1.3683
  250MOL0     H33724   2.693  10.330   0.335  0.1111  0.7264 -0.5596
  250MOL0     H33725   2.525  10.366   0.281 -0.2105  0.8056  1.2253
  250MOL0     H33726   2.639  10.140   0.459 -0.9144 -1.1244  0.5572
  250MOL0     H33727   2.466  10.173   0.443 -0.2913  1.4151 -0.8941
  250MOL0     H33728   2.644  10.098   0.214  1.1229  6.0626  0.1507
  250MOL0     H33729   2.475  10.137   0.199  0.9576 -1.1197 -1.6070
  250MOL0     H33730   2.480   9.909   0.201 -1.2236  2.8720 -0.8361
  250MOL0     H33731   2.409   9.946   0.362 -0.7520  0.8715 -0.6550
  250MOL0     H33732   2.929  10.521   0.561 -4.6569 -0.3006  1.6854
  250MOL0     H33733   3.179  10.486   0.667 -0.3711 -1.7853  0.7667
  250MOL0     H33734   3.414  10.721   1.031 -0.9793 -0.6998 -1.1850
  250MOL0     H33735   3.631  10.730   1.133  0.9886 -0.1660 -1.6063
  250MOL0     H33736   3.948   9.128   1.875  1.4528 -2.5342 -2.8712
  250MOL0     H33737   3.877   8.923   1.757 -0.3469 -2.2044  0.0092
  250MOL0     H33738   3.681   8.623   1.717 -0.2325 -0.0373  2.1408
  250MOL0     H33739   3.563   8.466   1.594 -1.4853 -2.7646 -0.5544
  250MOL0     H33740   3.743   8.086   1.604 -0.4587  3.8887  1.4978
  250MOL0     H33741   3.571   8.114   1.622 -2.9893 -0.3119 -2.3370
  250MOL0     H33742   3.667   7.898   1.508 -0.1123  0.6179  0.4269
  250MOL0     H33743   3.757   7.992   1.396 -0.1585 -0.1794 -0.6768
  250MOL0     H33744   3.452   8.029   1.392 -1.8338  1.7981 -3.0379
  250MOL0     H33745   3.508   7.885   1.328 -0.4267  0.4374  0.7532
  250MOL0     H33746   3.691   8.043   1.201  0.2886  1.5858  1.9683
  250MOL0     H33747   3.574   8.171   1.226 -4.8216 -0.2110 -0.3122
  250MOL0     H33748   3.385   8.007   0.918  2.2741  4.9703 -2.7844
  250MOL0     H33749   3.915   8.227   1.521 -0.4939 -1.9517  2.9189
  250MOL0     H33750   4.048   8.396   1.664 -0.2545  1.9761 -0.1416
  251MOL0     O33751   5.519   3.547   8.097 -0.0315 -0.3672 -1.0227
  251MOL0     C33752   5.520   3.435   8.054  0.6979  0.4146 -0.6543
  251MOL0     O33753   5.430   3.335   8.072 -0.3999 -0.1065 -0.1004
  251MOL0     C33754   5.304   3.351   8.132 -0.3447 -0.3919 -1.2887
  251MOL0     C33755   5.234   3.470   8.142  0.1097  0.7881  0.6963
  251MOL0     C33756   5.106   3.466   8.194 -1.0575 -0.0625 -0.0127
  251MOL0     C33757   5.045   3.357   8.241 -0.2041 -1.0429 -0.8287
  251MOL0     O33758   4.915   3.358   8.283 -0.4773 -0.2215 -0.0225
  251MOL0     C33759   4.814   3.388   8.185 -0.1031  0.1411 -0.6566
  251MOL0     C33760   4.689   3.295   8.191  0.5383 -0.1915 -0.9036
  251MOL0     C33761   4.721   3.148   8.226  0.2939 -0.1907 -0.4835
  251MOL0     C33762   4.791   3.077   8.106  0.2850 -0.1645 -0.9493
  251MOL0     C33763   4.841   2.937   8.155  0.3106  0.4149  0.3884
  251MOL0     C33764   4.729   2.838   8.205 -0.3791  0.9296  1.1044
  251MOL0     C33765   4.729   2.694   8.141  0.3374  0.4305  1.1207
  251MOL0     C33766   4.622   2.590   8.196 -0.4405  0.6760  0.2879
  251MOL0     N33767   4.495   2.652   8.200  0.6572  0.3108 -0.8209
  251MOL0     C33768   4.426   2.690   8.090  0.3248 -0.0905 -0.2797
  251MOL0     C33769   4.319   2.762   8.136 -0.8627  0.3568 -0.6582
  251MOL0     C33770   4.208   2.835   8.064 -0.0069  0.0341  0.6543
  251MOL0     C33771   4.193   2.973   8.119 -0.0411  0.7542 -0.5297
  251MOL0     C33772   4.307   3.069   8.070  0.7728  0.4786 -0.3098
  251MOL0     C33773   4.262   3.222   8.066 -0.5332 -0.3212  0.1395
  251MOL0     O33774   4.362   3.299   7.999  0.1187 -0.1563  0.0689
  251MOL0     C33775   4.364   3.441   8.015 -1.2346  0.5167  0.5877
  251MOL0     C33776   4.440   3.507   7.921 -0.5643  0.4087  0.0599
  251MOL0     C33777   4.442   3.651   7.923  0.1299  0.3533 -0.9548
  251MOL0     C33778   4.500   3.723   7.809 -0.6511 -0.2011 -0.0081
  251MOL0     C33779   4.397   3.729   8.037  0.2939  0.3722  0.5530
  251MOL0     C33780   4.392   3.873   8.053 -0.3658 -0.5767  0.1112
  251MOL0     O33781   4.418   3.932   8.175  0.9717  0.1006 -0.5177
  251MOL0     C33782   4.412   4.072   8.184 -0.1476 -0.2772  0.0834
  251MOL0     C33783   4.481   4.132   8.290 -0.1353 -0.3686  0.7959
  251MOL0     C33784   4.466   4.273   8.304  0.3909  0.4219 -0.5415
  251MOL0     C33785   4.369   4.348   8.233  0.4270 -0.0906  0.0154
  251MOL0     O33786   4.354   4.487   8.231 -0.1493 -0.3647 -0.5702
  251MOL0     C33787   4.362   4.551   8.364  0.1857 -0.3214 -0.0519
  251MOL0     C33788   4.225   4.553   8.431  0.7538 -0.3626  0.5158
  251MOL0     C33789   4.229   4.615   8.574 -0.6354 -0.7991  0.0912
  251MOL0     C33790   4.086   4.623   8.625  1.5589  0.1156 -0.4841
  251MOL0     C33791   4.086   4.683   8.763  0.0017  0.9453 -0.9058
  251MOL0     C33792   3.938   4.666   8.797  0.7737 -0.8677  0.4712
  251MOL0     C33793   3.920   4.683   8.948  1.0750 -0.5585  1.2948
  251MOL0     C33794   3.982   4.811   9.007  0.9913  0.1823  0.3422
  251MOL0    Cl33795   3.929   4.956   8.921  0.0985 -0.1892 -0.7886
  251MOL0     C33796   4.303   4.274   8.137 -0.0935 -0.4461  0.1470
  251MOL0     C33797   4.325   4.146   8.105 -0.1943  0.1502 -0.7959
  251MOL0     O33798   4.360   3.931   7.941 -0.0286 -0.3013 -0.5722
  251MOL0     C33799   4.340   3.653   8.140 -0.0749 -0.7404 -1.1507
  251MOL0     C33800   4.318   3.512   8.128 -0.0107  0.6847 -0.7701
  251MOL0     N33801   4.318   2.747   8.278  0.6204 -0.1371 -0.2776
  251MOL0     N33802   4.424   2.684   8.316  0.2994  0.4176  0.1054
  251MOL0     C33803   5.111   3.236   8.245 -0.3074  0.8231  0.2948
  251MOL0     C33804   5.242   3.236   8.191 -0.7281  0.2682  0.2212
  251MOL0     C33805   5.617   3.402   7.954 -0.4320  0.5512  0.2992
  251MOL0     C33806   5.615   3.289   7.878  0.5515 -0.0455  0.6663
  251MOL0     C33807   5.713   3.262   7.786 -0.7197  0.1101 -0.5472
  251MOL0     C33808   5.829   3.334   7.770 -0.0981 -0.3241 -0.1395
  251MOL0     O33809   5.928   3.288   7.693 -0.9126 -0.5385  0.7788
  251MOL0     C33810   6.055   3.282   7.729  0.5334  0.8013 -0.0648
  251MOL0     C33811   6.151   3.327   7.633 -0.4880 -0.2428  0.4189
  251MOL0     C33812   6.176   3.222   7.524 -0.0845 -0.2489 -0.5580
  251MOL0     C33813   6.062   3.202   7.426  0.1409  0.0567 -0.1700
  251MOL0     C33814   6.111   3.113   7.317  0.3066 -0.5182  0.8961
  251MOL0     C33815   6.164   3.037   7.237 -0.3134  0.4547 -0.2090
  251MOL0     C33816   5.836   3.454   7.842 -0.2356 -0.4479 -0.2738
  251MOL0     C33817   5.730   3.488   7.929  0.4909  0.0071 -0.0184
  251MOL0     H33818   5.275   3.569   8.129 -2.9236  1.8176 -3.5989
  251MOL0     H33819   5.062   3.564   8.208 -0.5439  0.2439 -0.4809
  251MOL0     H33820   4.777   3.490   8.199  0.8732  0.6070 -1.3423
  251MOL0     H33821   4.864   3.380   8.087 -1.4867 -1.4361 -1.2893
  251MOL0     H33822   4.615   3.341   8.258 -0.0291  1.1645 -2.4035
  251MOL0     H33823   4.642   3.298   8.092 -0.2338 -1.2985 -0.5933
  251MOL0     H33824   4.784   3.150   8.315 -0.9895  0.6706  0.4545
  251MOL0     H33825   4.629   3.098   8.257  0.6695 -2.3611 -2.5975
  251MOL0     H33826   4.718   3.078   8.024 -0.4223 -0.7372 -0.3502
  251MOL0     H33827   4.879   3.128   8.067  0.7577  1.2236  1.7271
  251MOL0     H33828   4.883   2.887   8.066  3.9013  1.8278  1.0915
  251MOL0     H33829   4.923   2.937   8.228  1.3157 -2.3369 -0.5951
  251MOL0     H33830   4.749   2.812   8.310 -0.1134 -1.7709  0.4563
  251MOL0     H33831   4.636   2.894   8.191 -1.8337 -1.6147  0.0093
  251MOL0     H33832   4.720   2.715   8.035  2.3108 -1.8088  0.4007
  251MOL0     H33833   4.831   2.655   8.147 -0.2605 -1.4045  0.2268
  251MOL0     H33834   4.657   2.582   8.299  1.8663  0.4008 -0.4455
  251MOL0     H33835   4.636   2.494   8.145  1.9963  0.9617  0.2576
  251MOL0     H33836   4.459   2.666   7.989  2.5827 -0.4075  0.4730
  251MOL0     H33837   4.234   2.841   7.958  1.6174  0.4304  1.0528
  251MOL0     H33838   4.111   2.785   8.070 -0.0892  0.2546  1.2319
  251MOL0     H33839   4.195   2.979   8.228 -0.3904 -1.0846 -0.4061
  251MOL0     H33840   4.093   3.008   8.090 -1.0136 -0.3255  1.3353
  251MOL0     H33841   4.339   3.042   7.969 -0.3200 -0.6250 -0.3853
  251MOL0     H33842   4.388   3.051   8.141 -0.4869 -1.3989  0.7415
  251MOL0     H33843   4.253   3.249   8.171  1.7916  0.4424  0.2117
  251MOL0     H33844   4.166   3.232   8.016 -0.9303  1.0954  1.1366
  251MOL0     H33845   4.488   3.451   7.841  0.7063  1.5902 -0.0401
  251MOL0     H33846   4.427   3.788   7.759  1.4834  0.0351 -3.1035
  251MOL0     H33847   4.587   3.788   7.821  0.2582 -0.8881 -2.3535
  251MOL0     H33848   4.522   3.644   7.736 -4.2365 -1.4171  0.0154
  251MOL0     H33849   4.548   4.072   8.351  1.4002 -0.0322 -0.4915
  251MOL0     H33850   4.536   4.328   8.367  1.0955 -1.9054  0.8329
  251MOL0     H33851   4.432   4.498   8.430 -1.1244 -2.4017 -0.2515
  251MOL0     H33852   4.398   4.652   8.343 -0.1145 -0.1792  0.1203
  251MOL0     H33853   4.163   4.612   8.364 -1.7731 -1.2398  1.9751
  251MOL0     H33854   4.186   4.451   8.423 -0.6351  0.1818  0.1485
  251MOL0     H33855   4.275   4.714   8.565  2.6324 -2.3034 -1.3706
  251MOL0     H33856   4.290   4.560   8.646  0.1389  1.1960  1.0378
  251MOL0     H33857   4.029   4.692   8.562  1.6070  0.6978  0.1089
  251MOL0     H33858   4.035   4.526   8.618 -3.4179  1.9173  4.4844
  251MOL0     H33859   4.117   4.788   8.763 -2.1208  1.6161 -0.3035
  251MOL0     H33860   4.141   4.621   8.834 -0.3570  2.3777  0.6781
  251MOL0     H33861   3.880   4.741   8.743  0.1954  0.4161  2.7479
  251MOL0     H33862   3.903   4.568   8.762  0.0018 -0.1896 -0.7391
  251MOL0     H33863   3.959   4.599   9.007  1.9438 -1.5544 -0.6232
  251MOL0     H33864   3.814   4.697   8.970  0.7909 -0.5725 -0.0141
  251MOL0     H33865   4.091   4.812   9.012  1.1960  0.3406 -2.6747
  251MOL0     H33866   3.951   4.824   9.111 -0.0947  0.1778  0.0336
  251MOL0     H33867   4.246   4.351   8.086  3.4615  2.5475  0.2817
  251MOL0     H33868   4.267   4.106   8.022  3.3986 -1.7957 -2.5827
  251MOL0     H33869   4.301   3.697   8.231  1.2967 -0.4436 -0.6804
  251MOL0     H33870   4.281   3.452   8.211 -2.1690  0.3410 -1.8972
  251MOL0     H33871   5.054   3.152   8.282  0.0852 -0.7782 -2.4886
  251MOL0     H33872   5.297   3.143   8.182  0.0123  0.8283 -1.3634
  251MOL0     H33873   5.541   3.210   7.886 -0.9753  1.1810 -0.6409
  251MOL0     H33874   5.725   3.165   7.739  1.4430 -1.9051  3.5678
  251MOL0     H33875   6.064   3.341   7.820  0.6817  0.3531  0.2167
  251MOL0     H33876   6.074   3.178   7.760  0.1901  1.6356  3.3034
  251MOL0     H33877   6.243   3.349   7.687 -0.3184 -1.0486  0.4680
  251MOL0     H33878   6.125   3.427   7.596  4.0790  1.3733  0.8893
  251MOL0     H33879   6.195   3.129   7.578  2.1622  0.3246 -0.2586
  251MOL0     H33880   6.271   3.245   7.476  0.7536 -1.5464  0.4290
  251MOL0     H33881   6.036   3.295   7.373 -1.9793 -1.1781 -1.4281
  251MOL0     H33882   5.973   3.167   7.478 -1.2260  0.9506 -1.7788
  251MOL0     H33883   6.204   2.964   7.170  1.3146  1.2143 -0.1172
  251MOL0     H33884   5.918   3.525   7.842 -1.2075  0.7369  0.8529
  251MOL0     H33885   5.748   3.578   7.986 -0.0570  0.8918 -1.1999
  252MOL0     O33886   0.860  11.358   3.145  0.1799  1.2969  0.4157
  252MOL0     C33887   0.894  11.419   3.047 -0.3219 -0.1451  0.0794
  252MOL0     O33888   0.919  11.376   2.920 -0.0117  0.1154 -0.2517
  252MOL0     C33889   0.922  11.248   2.884  0.3246 -0.5046  0.1156
  252MOL0     C33890   0.841  11.147   2.938 -0.2738 -0.0125 -0.6984
  252MOL0     C33891   0.845  11.013   2.885 -0.5638  0.1705  0.7132
  252MOL0     C33892   0.930  10.985   2.772  0.6218 -0.0875 -1.0026
  252MOL0     O33893   0.946  10.855   2.722 -0.1213  0.5044  0.0246
  252MOL0     C33894   0.907  10.826   2.585 -0.3952 -0.0050 -0.9631
  252MOL0     C33895   0.832  10.698   2.566  0.5081 -0.3653  1.3886
  252MOL0     C33896   0.894  10.573   2.631 -0.1356  0.0863  0.6483
  252MOL0     C33897   0.803  10.445   2.625 -0.4285 -0.1336  0.0726
  252MOL0     C33898   0.892  10.333   2.673  0.1298  0.6361 -0.8418
  252MOL0     C33899   0.806  10.200   2.666 -0.8750  0.1168 -0.5590
  252MOL0     C33900   0.817  10.112   2.535 -0.2871 -0.8732 -0.3963
  252MOL0     C33901   0.752   9.974   2.545  0.6591 -0.5227  0.3408
  252MOL0     N33902   0.787   9.911   2.674  0.2910 -0.3861 -0.0685
  252MOL0     C33903   0.920   9.892   2.708 -0.1094  0.5740  0.6193
  252MOL0     C33904   0.913   9.854   2.833 -0.0268 -0.8211  0.5168
  252MOL0     C33905   1.035   9.828   2.915  0.2586  0.6968 -0.0755
  252MOL0     C33906   1.044   9.670   2.939  0.8714 -0.9020 -0.5451
  252MOL0     C33907   1.180   9.624   2.967 -1.2635  0.5508 -1.2884
  252MOL0     C33908   1.257   9.582   2.842  0.0615 -0.3627 -0.0949
  252MOL0     O33909   1.392   9.540   2.873  0.0108 -0.0182 -1.2652
  252MOL0     C33910   1.403   9.402   2.858 -0.2622 -0.3946  0.6315
  252MOL0     C33911   1.430   9.348   2.732  1.1083  0.5037  0.2064
  252MOL0     C33912   1.454   9.216   2.705 -0.6981 -0.5327  0.3416
  252MOL0     C33913   1.464   9.178   2.560 -0.4245  0.8441 -0.6634
  252MOL0     C33914   1.460   9.128   2.822  0.4758  0.2038 -0.6005
  252MOL0     C33915   1.473   8.980   2.796 -0.4228 -0.0888 -1.1416
  252MOL0     O33916   1.409   8.898   2.884  0.3465 -1.2769  0.1440
  252MOL0     C33917   1.390   8.766   2.842  0.3115 -1.0113 -0.9541
  252MOL0     C33918   1.306   8.731   2.736  0.1192  1.0706  0.3008
  252MOL0     C33919   1.272   8.595   2.726 -0.5130  0.3097 -0.0179
  252MOL0     C33920   1.323   8.498   2.817 -0.4937 -0.1060  0.2193
  252MOL0     O33921   1.289   8.369   2.793 -0.2533  0.9802 -0.3385
  252MOL0     C33922   1.359   8.262   2.867  0.2238 -0.0528  0.3535
  252MOL0     C33923   1.305   8.133   2.814  0.4783 -0.1032 -0.2449
  252MOL0     C33924   1.341   7.992   2.876 -0.2948 -0.2551  0.2917
  252MOL0     C33925   1.295   7.969   3.016  0.3119 -0.1491  0.0407
  252MOL0     C33926   1.363   7.847   3.067 -0.3971  0.1806 -0.3803
  252MOL0     C33927   1.331   7.829   3.217  0.5678 -1.0327  0.1807
  252MOL0     C33928   1.416   7.719   3.272  0.1998  0.7842 -0.2144
  252MOL0     C33929   1.547   7.767   3.316  0.3194  0.6388 -1.4761
  252MOL0    Cl33930   1.613   7.645   3.432 -0.0138  0.1118  0.2364
  252MOL0     C33931   1.409   8.535   2.918  0.4037 -0.6182 -0.1046
  252MOL0     C33932   1.434   8.672   2.941 -0.2382  0.4660  0.0895
  252MOL0     O33933   1.547   8.941   2.704  0.6240 -0.2363 -0.8801
  252MOL0     C33934   1.419   9.179   2.947 -1.1525  0.6979 -0.3935
  252MOL0     C33935   1.401   9.315   2.964  0.1909 -0.1269 -0.0730
  252MOL0     N33936   0.782   9.864   2.878 -0.7468  0.4846  0.3910
  252MOL0     N33937   0.709   9.889   2.782  0.9168  0.7491 -0.3944
  252MOL0     C33938   1.003  11.087   2.715  0.6708 -0.6001 -0.6041
  252MOL0     C33939   1.002  11.215   2.772  0.0585  0.4518  0.9662
  252MOL0     C33940   0.916  11.570   3.066 -0.8070 -0.0567 -0.5875
  252MOL0     C33941   0.944  11.621   3.199  0.6216  0.2760  0.3151
  252MOL0     C33942   0.974  11.757   3.207  0.1237 -0.1920 -0.0177
  252MOL0     C33943   0.995  11.841   3.098 -0.3773  0.0501  0.0148
  252MOL0     O33944   1.037  11.972   3.121 -0.4055  0.4455 -0.2573
  252MOL0     C33945   1.095  12.057   3.022 -0.6504 -0.3674 -0.5668
  252MOL0     C33946   1.094  12.197   3.088  0.2630  0.5566 -0.3531
  252MOL0     C33947   1.171  12.213   3.228  0.4569 -1.3526  0.1696
  252MOL0     C33948   1.088  12.308   3.317  0.2114  1.2525  0.8473
  252MOL0     C33949   1.100  12.453   3.299 -0.1579 -0.4219  0.2760
  252MOL0     C33950   1.116  12.572   3.278  0.3971  0.1382 -0.3467
  252MOL0     C33951   0.995  11.778   2.973  0.0326 -0.3351 -0.8407
  252MOL0     C33952   0.958  11.645   2.956 -0.0331 -0.9289  0.6195
  252MOL0     H33953   0.772  11.168   3.019 -0.0090 -1.7217  0.0305
  252MOL0     H33954   0.801  10.930   2.939  1.6066 -0.1509  2.0980
  252MOL0     H33955   0.835  10.901   2.551 -1.8409 -0.8979 -0.0576
  252MOL0     H33956   0.998  10.822   2.525  0.4803 -1.9294  0.3834
  252MOL0     H33957   0.732  10.715   2.607 -0.1601 -0.4840 -0.1085
  252MOL0     H33958   0.822  10.679   2.458 -0.2274  0.4000  1.3161
  252MOL0     H33959   0.981  10.547   2.569 -1.8334 -1.5740 -1.1932
  252MOL0     H33960   0.938  10.585   2.730 -0.6433 -3.9910  1.5327
  252MOL0     H33961   0.727  10.468   2.700 -1.2991 -1.3279 -0.4024
  252MOL0     H33962   0.759  10.434   2.525 -0.3772 -1.1206  0.1458
  252MOL0     H33963   0.982  10.314   2.613 -0.3544 -2.2074 -0.8096
  252MOL0     H33964   0.924  10.350   2.776 -1.2782 -0.7193 -0.1359
  252MOL0     H33965   0.857  10.152   2.750 -1.5429  2.5523  1.3825
  252MOL0     H33966   0.702  10.214   2.698 -0.8627  0.6567 -0.7340
  252MOL0     H33967   0.768  10.176   2.461 -1.6386  0.3883  1.4669
  252MOL0     H33968   0.923  10.109   2.509  0.0611  3.0009 -0.0892
  252MOL0     H33969   0.772   9.904   2.463  0.5162  0.6265 -0.7015
  252MOL0     H33970   0.644   9.991   2.540  0.7271  1.3496  3.0172
  252MOL0     H33971   1.001   9.918   2.641  1.1957  0.6883  2.1999
  252MOL0     H33972   1.117   9.877   2.862 -1.7438  2.6748 -1.5494
  252MOL0     H33973   1.029   9.888   3.006 -0.4098  0.5046  0.0139
  252MOL0     H33974   1.007   9.609   2.857  0.0406 -0.1223 -0.7688
  252MOL0     H33975   0.978   9.648   3.023 -0.6304  0.4538 -1.3254
  252MOL0     H33976   1.184   9.533   3.027  3.5360  0.5278 -1.2200
  252MOL0     H33977   1.243   9.689   3.029  0.4094 -2.4208  0.3914
  252MOL0     H33978   1.275   9.669   2.778  2.9046 -0.5352  0.3295
  252MOL0     H33979   1.197   9.509   2.787 -2.0207 -1.6395  3.5355
  252MOL0     H33980   1.409   9.414   2.649  1.9871  1.0040  0.3604
  252MOL0     H33981   1.429   9.258   2.494  1.6093  2.8638  0.5462
  252MOL0     H33982   1.572   9.182   2.541 -0.4186 -0.1216 -0.8774
  252MOL0     H33983   1.416   9.081   2.543 -1.0648  0.6358  1.9714
  252MOL0     H33984   1.251   8.801   2.673 -0.9843 -2.2628 -2.7964
  252MOL0     H33985   1.216   8.553   2.643 -0.0232 -0.4191  0.0130
  252MOL0     H33986   1.467   8.265   2.851  0.2029  2.1885  0.3749
  252MOL0     H33987   1.337   8.263   2.974  0.3710 -0.3901  0.3884
  252MOL0     H33988   1.196   8.142   2.808  0.3738  0.2736  1.7974
  252MOL0     H33989   1.350   8.133   2.714 -1.0560  0.9576 -0.9827
  252MOL0     H33990   1.450   7.980   2.874 -0.4009 -1.2263 -0.5034
  252MOL0     H33991   1.290   7.933   2.800 -0.2793  1.3996 -1.0801
  252MOL0     H33992   1.308   8.061   3.074  0.1805  0.6647 -1.1978
  252MOL0     H33993   1.191   7.936   3.010  0.4744 -0.4293 -1.6908
  252MOL0     H33994   1.472   7.859   3.063 -0.1357 -0.7569  2.0684
  252MOL0     H33995   1.335   7.761   3.006 -0.6065 -0.2861  0.3587
  252MOL0     H33996   1.356   7.918   3.275  1.9965 -1.0129 -0.4184
  252MOL0     H33997   1.227   7.802   3.234  0.6530 -1.2140  0.4165
  252MOL0     H33998   1.443   7.635   3.207 -2.2430 -0.4478  0.2785
  252MOL0     H33999   1.363   7.688   3.363  0.7578  1.2390  0.2755
  252MOL0     H34000   1.538   7.866   3.363 -2.5583 -0.1277 -0.2372
  252MOL0     H34001   1.617   7.777   3.232 -0.0281 -2.5802 -2.2558
  252MOL0     H34002   1.448   8.452   2.976 -0.4671 -2.9116 -2.6276
  252MOL0     H34003   1.464   8.698   3.042 -3.6245  2.6701  0.7149
  252MOL0     H34004   1.399   9.113   3.031 -0.4795  0.5016 -0.3864
  252MOL0     H34005   1.368   9.361   3.056 -2.5908 -3.1402  0.6104
  252MOL0     H34006   1.062  11.064   2.627  1.0770 -4.0466  0.4039
  252MOL0     H34007   1.067  11.283   2.718  0.7604 -0.7628  0.2340
  252MOL0     H34008   0.930  11.567   3.292 -1.2832  0.0963 -0.0493
  252MOL0     H34009   0.969  11.793   3.310  1.2036 -1.6017  0.5581
  252MOL0     H34010   1.202  12.033   3.015 -0.5936 -0.8962  1.4356
  252MOL0     H34011   1.050  12.052   2.922 -2.6371 -0.8612  0.3194
  252MOL0     H34012   0.987  12.218   3.097 -0.0655 -1.5747  1.5471
  252MOL0     H34013   1.143  12.266   3.019  3.4800  0.5340  1.7331
  252MOL0     H34014   1.274  12.244   3.207 -0.2928 -0.8696 -3.4881
  252MOL0     H34015   1.172  12.125   3.293  2.1359 -0.6258  1.1932
  252MOL0     H34016   1.109  12.293   3.424  1.5270 -1.6509  0.2913
  252MOL0     H34017   0.982  12.290   3.301  0.4462  0.2139  0.3870
  252MOL0     H34018   1.123  12.677   3.254  4.1949  0.2336  0.5036
  252MOL0     H34019   1.015  11.827   2.878 -0.3478 -0.0565 -0.7789
  252MOL0     H34020   0.954  11.601   2.856 -0.3264  1.5805 -0.5461
  253MOL0     O34021   2.265   2.310   0.254 -0.8367 -0.9493 -0.4189
  253MOL0     C34022   2.151   2.333   0.230  0.5629  0.2047 -0.0099
  253MOL0     O34023   2.067   2.238   0.183  0.3067 -0.5497 -0.4147
  253MOL0     C34024   2.116   2.125   0.127 -0.8768 -0.1754  0.0458
  253MOL0     C34025   2.059   2.003   0.160  1.0285  0.4846 -0.0218
  253MOL0     C34026   2.088   1.895   0.090 -0.1517 -0.3632 -1.3786
  253MOL0     C34027   2.175   1.892  -0.017  0.4627 -0.3819  0.9500
  253MOL0     O34028   2.205   1.765  -0.063 -0.1836  0.5213  0.3888
  253MOL0     C34029   2.303   1.761  -0.172 -0.4281  1.1657 -0.2214
  253MOL0     C34030   2.239   1.799  -0.306 -0.3707  0.2873 -0.0607
  253MOL0     C34031   2.347   1.798  -0.417  0.6095  0.0455 -0.5279
  253MOL0     C34032   2.439   1.674  -0.419 -0.0930 -0.8341 -0.0207
  253MOL0     C34033   2.536   1.666  -0.531  0.7226 -0.1151 -0.0925
  253MOL0     C34034   2.635   1.781  -0.537 -0.1155  0.1171  0.9687
  253MOL0     C34035   2.734   1.765  -0.647  0.5478  0.4304  0.6919
  253MOL0     C34036   2.851   1.865  -0.656  0.0994 -0.1681  0.1337
  253MOL0     N34037   2.800   1.996  -0.717 -0.8309 -0.1341 -0.5260
  253MOL0     C34038   2.745   2.105  -0.649 -0.4924 -0.5830  0.7894
  253MOL0     C34039   2.730   2.194  -0.750 -0.2977 -0.4346  0.6592
  253MOL0     C34040   2.663   2.326  -0.756 -0.2754  0.1389  0.6191
  253MOL0     C34041   2.510   2.302  -0.778  0.1115  0.2313  0.0872
  253MOL0     C34042   2.447   2.439  -0.804 -0.0926  0.7390  0.4981
  253MOL0     C34043   2.300   2.436  -0.831  0.7534  0.3308 -0.2276
  253MOL0     O34044   2.257   2.372  -0.960 -0.1111 -0.1973 -0.0081
  253MOL0     C34045   2.134   2.303  -0.970  0.1434 -0.3885  0.1095
  253MOL0     C34046   2.134   2.202  -1.059  0.7520  0.1436  0.2338
  253MOL0     C34047   2.018   2.133  -1.081 -0.1071  0.7399  0.8570
  253MOL0     C34048   2.034   2.028  -1.186 -0.0328  0.7400  0.7748
  253MOL0     C34049   1.898   2.165  -1.006 -0.4670 -0.0860 -0.0866
  253MOL0     C34050   1.766   2.098  -1.030 -0.5069 -0.2409  0.3667
  253MOL0     O34051   1.752   2.037  -1.149  0.4710  0.2797 -0.5804
  253MOL0     C34052   1.638   1.961  -1.175 -0.3621 -0.4842 -0.8834
  253MOL0     C34053   1.634   1.827  -1.149 -0.3784  0.4916 -0.2606
  253MOL0     C34054   1.507   1.756  -1.159 -0.2254  0.0305  0.6473
  253MOL0     C34055   1.406   1.815  -1.226 -0.3873  0.5513 -0.6053
  253MOL0     O34056   1.291   1.746  -1.258  0.4837  0.4529 -0.8550
  253MOL0     C34057   1.161   1.812  -1.241  0.2048  0.1565  0.2050
  253MOL0     C34058   1.040   1.733  -1.204 -0.2106 -0.0355 -0.5564
  253MOL0     C34059   1.012   1.605  -1.280 -0.1111  1.0993  0.2542
  253MOL0     C34060   0.914   1.523  -1.199  0.0954  0.5377  0.7420
  253MOL0     C34061   0.890   1.378  -1.257 -0.7305 -0.4204  0.4072
  253MOL0     C34062   0.841   1.388  -1.395 -0.0431 -0.8981  0.2442
  253MOL0     C34063   0.781   1.277  -1.457  0.0055  0.0456  0.1677
  253MOL0     C34064   0.763   1.281  -1.608  0.8216  0.3892 -1.1524
  253MOL0    Cl34065   0.757   1.116  -1.686 -0.1947 -0.2176  0.0698
  253MOL0     C34066   1.421   1.940  -1.275 -0.1935  0.1745  1.1187
  253MOL0     C34067   1.529   2.020  -1.237  0.4291 -0.0957  0.0198
  253MOL0     O34068   1.677   2.104  -0.945 -0.4145 -0.1510 -0.3499
  253MOL0     C34069   1.907   2.264  -0.913  0.0638 -0.2614  0.1795
  253MOL0     C34070   2.028   2.335  -0.891 -0.1949  1.2798  0.1389
  253MOL0     N34071   2.775   2.140  -0.870  0.6773 -0.2638  0.3445
  253MOL0     N34072   2.814   2.019  -0.848  0.6719  0.4138  0.0296
  253MOL0     C34073   2.239   2.007  -0.051 -0.2531  0.2746 -0.3779
  253MOL0     C34074   2.206   2.127   0.019 -0.3027  0.2699  0.3917
  253MOL0     C34075   2.091   2.453   0.280  0.0808 -0.6710 -0.2457
  253MOL0     C34076   2.167   2.546   0.350 -0.7433 -0.3295 -0.5779
  253MOL0     C34077   2.113   2.663   0.407  0.6893  0.2726 -0.9384
  253MOL0     C34078   1.977   2.686   0.399 -0.7196 -0.9643  0.5958
  253MOL0     O34079   1.913   2.803   0.436  0.2252  0.4183  0.5605
  253MOL0     C34080   1.984   2.903   0.511  0.0691 -0.6017  0.8830
  253MOL0     C34081   1.871   2.988   0.585  0.0081 -0.6864  0.0196
  253MOL0     C34082   1.923   3.108   0.664 -0.1107 -0.0387  0.4075
  253MOL0     C34083   1.802   3.177   0.740  0.0734 -0.3439  0.1388
  253MOL0     C34084   1.747   3.290   0.669 -0.1448  0.0654 -0.4566
  253MOL0     C34085   1.700   3.389   0.616  0.0699  0.1118  0.2002
  253MOL0     C34086   1.896   2.595   0.333  0.0771  0.3462 -0.3251
  253MOL0     C34087   1.956   2.481   0.271 -0.3573 -0.1740  0.3820
  253MOL0     H34088   1.983   1.998   0.237 -1.0492  1.4271 -1.9157
  253MOL0     H34089   2.035   1.807   0.124  0.6335 -1.0044 -1.7777
  253MOL0     H34090   2.390   1.825  -0.152  1.2908 -0.8261 -1.0527
  253MOL0     H34091   2.336   1.657  -0.176 -0.9306  0.8193  2.4602
  253MOL0     H34092   2.171   1.719  -0.338  0.2256 -0.7518  1.1480
  253MOL0     H34093   2.175   1.887  -0.295 -1.2752 -0.2303 -0.9786
  253MOL0     H34094   2.293   1.806  -0.512 -0.4899  1.1805  0.1628
  253MOL0     H34095   2.408   1.888  -0.406 -2.1351  2.0312 -0.5440
  253MOL0     H34096   2.496   1.679  -0.326  2.4567 -1.3883 -1.4641
  253MOL0     H34097   2.384   1.581  -0.407 -2.7738  0.8551  1.8788
  253MOL0     H34098   2.596   1.577  -0.509 -0.9670 -0.5907  3.2376
  253MOL0     H34099   2.486   1.654  -0.628  0.3565  3.0836 -0.3957
  253MOL0     H34100   2.583   1.877  -0.550 -2.2677 -1.3951 -3.1025
  253MOL0     H34101   2.686   1.784  -0.440  0.0998 -1.4224  0.9317
  253MOL0     H34102   2.793   1.677  -0.621  1.4365  0.1843 -1.8477
  253MOL0     H34103   2.686   1.768  -0.746 -0.1160  2.8037  1.0233
  253MOL0     H34104   2.930   1.828  -0.722  0.6352  2.1871 -0.6630
  253MOL0     H34105   2.905   1.889  -0.564  0.6172 -1.2241  0.1148
  253MOL0     H34106   2.703   2.117  -0.550  1.2625  3.6387  1.2184
  253MOL0     H34107   2.683   2.378  -0.662  1.7681 -0.3071  0.4867
  253MOL0     H34108   2.706   2.386  -0.837 -0.1453 -0.4352  0.2559
  253MOL0     H34109   2.463   2.243  -0.698  0.3949  1.3203  1.0786
  253MOL0     H34110   2.498   2.249  -0.873 -2.1186  1.9851 -0.6960
  253MOL0     H34111   2.473   2.492  -0.896 -4.7276  1.9556 -0.3657
  253MOL0     H34112   2.467   2.510  -0.722  0.7685  0.3445  0.6385
  253MOL0     H34113   2.259   2.536  -0.812 -2.0770 -0.7680 -0.1391
  253MOL0     H34114   2.253   2.370  -0.758  3.9325 -1.6700  0.1842
  253MOL0     H34115   2.229   2.176  -1.104  1.3458  4.0274 -1.1617
  253MOL0     H34116   1.975   1.938  -1.163 -1.0414 -0.1149 -3.9345
  253MOL0     H34117   2.007   2.067  -1.285  0.7292 -0.8930 -0.1259
  253MOL0     H34118   2.133   1.991  -1.213 -0.2460  0.3552  0.5023
  253MOL0     H34119   1.722   1.776  -1.111  2.4778  3.1493 -2.7664
  253MOL0     H34120   1.502   1.649  -1.143  0.6218 -0.5562 -2.3606
  253MOL0     H34121   1.170   1.885  -1.160  0.0325 -0.3364  0.6769
  253MOL0     H34122   1.133   1.850  -1.340  0.5324 -2.4098 -0.9409
  253MOL0     H34123   1.068   1.698  -1.104  1.7478 -1.3293 -1.4956
  253MOL0     H34124   0.952   1.798  -1.195 -0.0977 -0.1081  1.4599
  253MOL0     H34125   1.108   1.553  -1.293 -1.7867 -3.6122  3.7645
  253MOL0     H34126   0.974   1.615  -1.382  1.1412 -1.6172 -0.5691
  253MOL0     H34127   0.942   1.523  -1.093 -2.3838  2.9001  1.5092
  253MOL0     H34128   0.815   1.568  -1.191 -0.9018 -1.8189  3.5062
  253MOL0     H34129   0.815   1.325  -1.197  0.4651 -1.4039  1.0716
  253MOL0     H34130   0.983   1.323  -1.240  0.1276  1.0801  0.7776
  253MOL0     H34131   0.773   1.473  -1.410 -0.1682 -1.1262 -0.5589
  253MOL0     H34132   0.931   1.412  -1.452 -0.7186  0.2478 -0.3724
  253MOL0     H34133   0.683   1.265  -1.409 -0.5466  1.1710 -0.6291
  253MOL0     H34134   0.846   1.190  -1.443 -2.6208 -2.1619 -0.2459
  253MOL0     H34135   0.837   1.335  -1.667  2.8078 -1.9485 -0.9599
  253MOL0     H34136   0.668   1.333  -1.623 -0.0065 -1.2634 -1.8916
  253MOL0     H34137   1.337   1.984  -1.329  0.4283  0.3131  0.2481
  253MOL0     H34138   1.532   2.124  -1.267  0.7234  0.2574  1.1970
  253MOL0     H34139   1.817   2.289  -0.858 -0.6951 -1.3729 -0.5239
  253MOL0     H34140   2.037   2.404  -0.808  0.6959 -0.8143  1.9057
  253MOL0     H34141   2.312   2.004  -0.131  0.6245  0.5283  0.4034
  253MOL0     H34142   2.257   2.218  -0.009 -0.9727  1.3651  2.4626
  253MOL0     H34143   2.272   2.520   0.364 -0.9062 -2.3866 -2.6018
  253MOL0     H34144   2.187   2.724   0.458  3.7208 -3.3230 -0.6020
  253MOL0     H34145   2.066   2.858   0.569  3.2734 -1.5333 -3.8011
  253MOL0     H34146   2.039   2.970   0.445 -4.0516  3.8002  1.4255
  253MOL0     H34147   1.811   2.934   0.657  2.7174 -0.0017  3.0361
  253MOL0     H34148   1.806   3.027   0.506 -0.4966 -0.2574  0.6378
  253MOL0     H34149   1.969   3.174   0.590 -0.6336  1.7419  1.6020
  253MOL0     H34150   1.999   3.065   0.729 -0.0905  0.5541  0.7853
  253MOL0     H34151   1.849   3.210   0.833  1.8956  3.3405 -1.8799
  253MOL0     H34152   1.725   3.100   0.749 -0.4130  0.2442  1.1894
  253MOL0     H34153   1.661   3.486   0.591  0.3445  0.2743  0.3987
  253MOL0     H34154   1.791   2.610   0.309 -0.2126 -1.1891 -0.1382
  253MOL0     H34155   1.896   2.409   0.217 -0.1454  1.7579 -2.6319
  254MOL0     O34156   6.472   4.096   3.988  0.2853  0.0523  0.3493
  254MOL0     C34157   6.419   4.157   4.080  0.4899  0.1942  0.7002
  254MOL0     O34158   6.427   4.299   4.097  0.1407  0.3592 -0.1097
  254MOL0     C34159   6.516   4.364   4.014  0.2684  0.0199  0.0686
  254MOL0     C34160   6.489   4.353   3.873  0.4003  0.4132  0.0598
  254MOL0     C34161   6.574   4.418   3.784 -0.8342 -0.0346 -0.0853
  254MOL0     C34162   6.685   4.489   3.838 -0.0955  0.0900  0.3254
  254MOL0     O34163   6.782   4.541   3.757  0.3922  0.2148  0.1381
  254MOL0     C34164   6.745   4.674   3.724 -0.1447  0.5922 -0.1538
  254MOL0     C34165   6.829   4.741   3.620 -0.0978 -0.3627  0.1210
  254MOL0     C34166   6.792   4.695   3.478  0.5518  0.7635 -0.0300
  254MOL0     C34167   6.806   4.547   3.443  0.1858 -0.5458  0.8615
  254MOL0     C34168   6.941   4.494   3.453 -0.8317 -0.0817 -0.3127
  254MOL0     C34169   6.926   4.340   3.422  0.8762 -0.6664  0.0154
  254MOL0     C34170   6.931   4.320   3.271  0.0314  0.1836  0.5822
  254MOL0     C34171   6.936   4.169   3.233 -0.3836 -0.2048  0.3392
  254MOL0     N34172   6.933   4.188   3.084  0.8195 -0.7592  0.0846
  254MOL0     C34173   7.052   4.189   3.014  0.1930 -0.1870  0.1838
  254MOL0     C34174   7.019   4.196   2.885  0.5444 -0.0251 -0.2898
  254MOL0     C34175   7.104   4.169   2.766 -0.0032  0.9507 -0.2630
  254MOL0     C34176   7.145   4.291   2.694 -0.6260  0.0139  0.7800
  254MOL0     C34177   7.242   4.380   2.763 -0.4631 -0.6020  0.5880
  254MOL0     C34178   7.388   4.312   2.772 -0.2133 -0.2100  0.8935
  254MOL0     O34179   7.469   4.376   2.874  0.1312  0.2083  0.7398
  254MOL0     C34180   7.579   4.317   2.930  0.9513  0.5559 -0.4092
  254MOL0     C34181   7.652   4.215   2.883 -0.5672  0.0702 -0.1454
  254MOL0     C34182   7.755   4.152   2.947  1.0946 -0.2617 -0.5956
  254MOL0     C34183   7.824   4.031   2.896 -0.3702  0.9239 -0.0134
  254MOL0     C34184   7.806   4.211   3.061  0.5599 -0.7963  0.0331
  254MOL0     C34185   7.925   4.184   3.136 -0.2347 -0.2108 -0.7335
  254MOL0     O34186   7.979   4.294   3.198 -0.0279  0.0665  0.0032
  254MOL0     C34187   8.111   4.277   3.231  0.3475  0.2144 -0.3755
  254MOL0     C34188   8.196   4.297   3.124 -0.9672 -0.1699  0.0480
  254MOL0     C34189   8.340   4.283   3.148  0.4617 -0.0358 -0.3029
  254MOL0     C34190   8.384   4.249   3.273 -1.1562  1.3196 -0.1315
  254MOL0     O34191   8.515   4.228   3.323 -0.4198  0.9810  0.1834
  254MOL0     C34192   8.614   4.314   3.256  0.8849 -0.9367 -0.2580
  254MOL0     C34193   8.731   4.354   3.343  0.3317  0.2403  0.5810
  254MOL0     C34194   8.695   4.408   3.481  1.3654  0.8834 -0.1724
  254MOL0     C34195   8.806   4.467   3.570 -0.0370 -0.3236  0.1435
  254MOL0     C34196   8.772   4.478   3.718 -0.6419 -0.5992  0.5752
  254MOL0     C34197   8.892   4.505   3.807  0.2606  0.0079  0.8550
  254MOL0     C34198   8.847   4.499   3.948  0.9383  0.5154  0.6998
  254MOL0     C34199   8.967   4.528   4.035  0.4423  0.3912  0.0924
  254MOL0    Cl34200   8.918   4.519   4.204 -0.0382 -0.1277  0.0593
  254MOL0     C34201   8.287   4.227   3.369  0.2367  1.1229 -0.0816
  254MOL0     C34202   8.156   4.251   3.360 -0.5639 -0.4842  0.0200
  254MOL0     O34203   7.961   4.068   3.161 -0.0068 -0.7646 -0.8293
  254MOL0     C34204   7.734   4.334   3.106 -0.2399  0.4584  0.2712
  254MOL0     C34205   7.622   4.387   3.039 -0.1209 -0.6033 -0.0849
  254MOL0     N34206   6.883   4.220   2.874 -0.2426 -0.3050 -0.1254
  254MOL0     N34207   6.832   4.218   2.995 -0.0370 -0.0799 -0.7073
  254MOL0     C34208   6.713   4.491   3.975  0.0721  0.0877  0.1426
  254MOL0     C34209   6.619   4.426   4.063 -0.4358  0.6306  0.6151
  254MOL0     C34210   6.340   4.066   4.175  0.2992 -0.0965  0.0297
  254MOL0     C34211   6.313   3.924   4.155  0.5706 -0.9162 -1.0547
  254MOL0     C34212   6.264   3.835   4.253  0.9030  0.2422  0.3014
  254MOL0     C34213   6.218   3.899   4.375 -0.1750  0.2401 -0.0426
  254MOL0     O34214   6.187   3.803   4.469  0.1925 -1.6024  0.3296
  254MOL0     C34215   6.107   3.868   4.573 -0.1094  0.3690  0.2358
  254MOL0     C34216   6.055   3.736   4.642 -0.2302  0.1175 -0.3329
  254MOL0     C34217   5.949   3.670   4.549 -0.7041  0.4588 -0.0734
  254MOL0     C34218   5.990   3.537   4.487 -0.0071  0.0257  0.2690
  254MOL0     C34219   5.971   3.438   4.598 -0.4706  0.6700 -0.5232
  254MOL0     C34220   5.931   3.366   4.693 -0.6957  0.3547  0.1110
  254MOL0     C34221   6.212   4.038   4.381  0.5804 -0.0583 -0.9202
  254MOL0     C34222   6.276   4.118   4.288 -0.7336 -0.3889 -0.1199
  254MOL0     H34223   6.411   4.288   3.834  0.4223 -0.6095  1.6230
  254MOL0     H34224   6.576   4.407   3.676  0.4655 -1.3142  0.0470
  254MOL0     H34225   6.643   4.666   3.686 -0.5742  0.1244  1.0457
  254MOL0     H34226   6.737   4.740   3.810 -0.0831  1.9721 -1.1726
  254MOL0     H34227   6.802   4.847   3.621  3.7087  0.8765 -3.0951
  254MOL0     H34228   6.937   4.738   3.635  0.2755 -2.6743 -2.2622
  254MOL0     H34229   6.691   4.732   3.459  0.6562  0.1171 -2.0494
  254MOL0     H34230   6.875   4.733   3.419  0.1906 -1.4784 -2.1411
  254MOL0     H34231   6.738   4.492   3.508  3.0685 -0.0920  4.6581
  254MOL0     H34232   6.777   4.528   3.339  1.9700 -1.2255  0.4551
  254MOL0     H34233   7.010   4.532   3.376  1.9592 -2.4285  0.8614
  254MOL0     H34234   6.981   4.511   3.553  1.4699  1.8832 -1.4660
  254MOL0     H34235   7.000   4.282   3.478  2.6032 -1.2723 -2.7420
  254MOL0     H34236   6.828   4.305   3.455 -0.2491  2.0391 -0.2070
  254MOL0     H34237   6.853   4.378   3.221 -0.2632 -0.5883  0.1452
  254MOL0     H34238   7.022   4.360   3.227 -0.7842 -0.7835 -2.1626
  254MOL0     H34239   6.843   4.118   3.259 -1.1545  1.1158  0.2624
  254MOL0     H34240   7.029   4.119   3.263  0.4873  2.0911  1.7938
  254MOL0     H34241   7.149   4.161   3.054  0.3351  1.2884  0.9633
  254MOL0     H34242   7.181   4.099   2.799  0.6349 -0.3858 -4.0705
  254MOL0     H34243   7.065   4.090   2.702 -0.4064 -0.9198  2.1386
  254MOL0     H34244   7.061   4.346   2.651  1.9182  0.2530 -4.6786
  254MOL0     H34245   7.194   4.261   2.601  2.4868 -0.9774  2.5888
  254MOL0     H34246   7.212   4.409   2.865  0.8008  2.8394  0.1216
  254MOL0     H34247   7.256   4.470   2.703  2.4986 -0.7939  0.8603
  254MOL0     H34248   7.424   4.313   2.669 -2.4436 -1.0191  0.0469
  254MOL0     H34249   7.385   4.207   2.801  2.5878 -0.6961 -0.2638
  254MOL0     H34250   7.626   4.181   2.783 -0.4496 -1.8068  0.4333
  254MOL0     H34251   7.776   3.999   2.803 -1.4840  0.2705  0.7599
  254MOL0     H34252   7.931   4.051   2.886 -0.4670  1.8655  0.7038
  254MOL0     H34253   7.829   3.943   2.961  0.7821  0.8766 -0.1496
  254MOL0     H34254   8.159   4.307   3.022  0.5127 -2.4578 -0.7973
  254MOL0     H34255   8.406   4.280   3.062  0.6530  1.3571 -0.2278
  254MOL0     H34256   8.644   4.290   3.154 -2.6265  0.3296 -1.7526
  254MOL0     H34257   8.572   4.414   3.251  5.4853  1.3026  0.7074
  254MOL0     H34258   8.788   4.260   3.347 -1.3109 -0.7605  1.3123
  254MOL0     H34259   8.784   4.431   3.285  0.7438 -1.7936 -1.9480
  254MOL0     H34260   8.653   4.321   3.532  2.8800  0.3359  0.1869
  254MOL0     H34261   8.607   4.473   3.483 -2.4473 -3.6509 -1.0487
  254MOL0     H34262   8.900   4.414   3.558 -0.3320 -0.9566  0.6104
  254MOL0     H34263   8.826   4.568   3.532 -0.2106 -0.6832 -0.9431
  254MOL0     H34264   8.735   4.379   3.746 -3.5377  0.0550 -0.6406
  254MOL0     H34265   8.698   4.558   3.721  1.1249  1.4678 -3.4160
  254MOL0     H34266   8.964   4.429   3.778  0.4265  0.4564  0.0686
  254MOL0     H34267   8.924   4.605   3.777 -0.9210 -0.3821 -1.9890
  254MOL0     H34268   8.808   4.401   3.978 -0.8709  0.6733 -0.9555
  254MOL0     H34269   8.768   4.571   3.970  0.2064 -1.0435  3.8056
  254MOL0     H34270   9.006   4.626   4.007  1.9644  0.3019  1.7399
  254MOL0     H34271   9.048   4.457   4.016  0.1699  0.4858 -1.6108
  254MOL0     H34272   8.329   4.204   3.467  1.2870  2.2629 -0.2288
  254MOL0     H34273   8.097   4.243   3.451 -0.1785  0.1645  0.3338
  254MOL0     H34274   7.756   4.387   3.198  0.4211 -0.5736  0.7236
  254MOL0     H34275   7.567   4.470   3.082  3.1518  2.6058 -1.5787
  254MOL0     H34276   6.805   4.528   4.018 -0.3598 -1.8511  3.0370
  254MOL0     H34277   6.648   4.415   4.167  2.6374  2.8562  0.1476
  254MOL0     H34278   6.341   3.874   4.063  3.6799 -2.7748  0.6967
  254MOL0     H34279   6.253   3.727   4.247  1.6865  0.1984 -0.6766
  254MOL0     H34280   6.172   3.914   4.649 -1.0511  0.0782  1.2472
  254MOL0     H34281   6.018   3.922   4.541 -1.1502  0.3695  2.8587
  254MOL0     H34282   6.014   3.767   4.739 -1.5911 -4.0491  0.6144
  254MOL0     H34283   6.143   3.675   4.661  0.9396  1.2248 -1.9087
  254MOL0     H34284   5.915   3.741   4.474  0.2519  1.6950  0.6290
  254MOL0     H34285   5.864   3.646   4.614  1.4648  0.7632  3.1511
  254MOL0     H34286   6.093   3.542   4.453 -0.4105 -3.2057 -1.8745
  254MOL0     H34287   5.929   3.497   4.406  1.9603 -1.5581 -0.5141
  254MOL0     H34288   5.892   3.314   4.779  0.6587 -2.3950 -0.8293
  254MOL0     H34289   6.179   4.078   4.477  1.8859 -0.5294 -0.2514
  254MOL0     H34290   6.295   4.223   4.305  2.1325 -0.9540  0.7069
  255MOL0     O34291  10.292   9.297   8.452  0.5103  0.6391 -0.5203
  255MOL0     C34292  10.409   9.304   8.487  0.3323 -0.9077  1.4840
  255MOL0     O34293  10.471   9.387   8.575 -0.2981  0.3420  0.0664
  255MOL0     C34294  10.389   9.463   8.652  0.2187 -0.2048  0.2294
  255MOL0     C34295  10.306   9.568   8.594 -0.4710  0.3851  0.1962
  255MOL0     C34296  10.230   9.643   8.685  1.1988 -0.3002 -0.0944
  255MOL0     C34297  10.242   9.642   8.824 -1.0669  0.5313  0.3692
  255MOL0     O34298  10.164   9.700   8.921 -0.1622  0.1177  0.2817
  255MOL0     C34299  10.045   9.773   8.880 -1.6432  0.7200 -0.2113
  255MOL0     C34300   9.942   9.758   8.997  0.3271  0.2721  0.4696
  255MOL0     C34301   9.804   9.794   8.932 -0.8696 -0.2482 -0.2927
  255MOL0     C34302   9.738   9.684   8.857 -0.1528 -0.3192 -0.2110
  255MOL0     C34303   9.592   9.717   8.828  0.3908 -0.2521  0.7447
  255MOL0     C34304   9.534   9.582   8.777  0.6914 -0.7452 -0.6838
  255MOL0     C34305   9.384   9.587   8.731 -0.7944 -0.1220 -0.6827
  255MOL0     C34306   9.286   9.608   8.832 -1.0170 -0.0505 -0.7866
  255MOL0     N34307   9.169   9.678   8.790  0.1439 -0.5573  1.0446
  255MOL0     C34308   9.153   9.811   8.815 -0.4921  0.2976  0.1366
  255MOL0     C34309   9.021   9.839   8.847  0.8215  0.6597  0.5869
  255MOL0     C34310   8.961   9.981   8.866 -0.3885  0.8317  0.1579
  255MOL0     C34311   8.970  10.045   8.729  0.3755  0.8556 -0.0924
  255MOL0     C34312   8.914  10.187   8.736 -0.0661 -0.3164 -0.0065
  255MOL0     C34313   8.925  10.245   8.582 -0.9811  0.3488 -0.4981
  255MOL0     O34314   9.057  10.264   8.532  0.1845  0.3421 -0.2595
  255MOL0     C34315   9.138  10.347   8.601 -0.2944 -0.4865  0.3698
  255MOL0     C34316   9.099  10.457   8.690  0.1965  1.3479 -0.4471
  255MOL0     C34317   9.185  10.552   8.742  0.1238 -0.3307  0.3213
  255MOL0     C34318   9.128  10.675   8.814 -0.4181 -0.2431 -0.1556
  255MOL0     C34319   9.319  10.537   8.710 -0.5802  0.0412 -0.1662
  255MOL0     C34320   9.422  10.609   8.780 -0.0506 -0.1623 -0.3261
  255MOL0     O34321   9.392  10.654   8.897 -0.2579 -0.5672 -0.9242
  255MOL0     C34322   9.464  10.761   8.948 -0.4128  0.6354  0.6233
  255MOL0     C34323   9.600  10.759   8.983 -0.1472  0.6459  0.3066
  255MOL0     C34324   9.664  10.871   9.045 -0.1167 -0.1468  0.5419
  255MOL0     C34325   9.589  10.991   9.057  0.2695  0.8522  0.2516
  255MOL0     O34326   9.640  11.102   9.113  0.6015 -0.0807  0.1894
  255MOL0     C34327   9.594  11.164   9.242  0.0633  1.5290  0.5487
  255MOL0     C34328   9.567  11.312   9.217  0.8876 -0.0439 -0.1445
  255MOL0     C34329   9.679  11.406   9.222 -0.3100  0.1373  0.2827
  255MOL0     C34330   9.770  11.400   9.101  0.6577 -0.6846  0.0350
  255MOL0     C34331   9.827  11.539   9.095 -0.0277 -0.5439  0.1932
  255MOL0     C34332   9.949  11.548   9.000  0.5222  0.1535 -0.0027
  255MOL0     C34333   9.907  11.516   8.859  0.0098  0.7568  0.4597
  255MOL0     C34334  10.002  11.579   8.758  0.6482 -0.5209 -0.2300
  255MOL0    Cl34335   9.974  11.513   8.586  0.4436 -0.1610  0.4774
  255MOL0     C34336   9.450  10.986   9.029  0.1469  0.3022  1.5037
  255MOL0     C34337   9.389  10.873   8.980  0.3264 -0.0344  0.7171
  255MOL0     O34338   9.524  10.631   8.724 -0.6432  0.2247  0.2373
  255MOL0     C34339   9.361  10.428   8.628  0.2602 -0.6616  0.2399
  255MOL0     C34340   9.266  10.342   8.565 -0.4171 -0.3467  0.4328
  255MOL0     N34341   8.955   9.718   8.833  0.1545 -0.0229  0.3183
  255MOL0     N34342   9.046   9.621   8.806  0.3844 -0.4749 -0.0029
  255MOL0     C34343  10.335   9.550   8.872 -1.5462  0.7472 -0.5139
  255MOL0     C34344  10.415   9.464   8.786  0.3623 -0.4768  1.0437
  255MOL0     C34345  10.506   9.225   8.402  0.0536 -0.5699 -0.4097
  255MOL0     C34346  10.476   9.103   8.341 -0.3140  0.0339  0.3405
  255MOL0     C34347  10.580   9.023   8.297  0.8745  0.0008  0.3211
  255MOL0     C34348  10.714   9.055   8.301 -0.2375 -1.0932 -0.0348
  255MOL0     O34349  10.817   8.984   8.246  0.3433  0.0667 -0.8916
  255MOL0     C34350  10.867   8.894   8.343 -0.2174  0.1835 -0.3495
  255MOL0     C34351  10.779   8.773   8.369 -0.4553  0.0930  0.4923
  255MOL0     C34352  10.690   8.785   8.498 -0.0027  0.2210  0.6723
  255MOL0     C34353  10.778   8.776   8.622  0.5875 -0.0112  0.9156
  255MOL0     C34354  10.843   8.649   8.630  0.5222 -0.1416  0.0663
  255MOL0     C34355  10.900   8.548   8.644 -0.3221 -0.1292 -1.0366
  255MOL0     C34356  10.735   9.172   8.370  0.2189 -0.4065  0.7582
  255MOL0     C34357  10.638   9.258   8.411  0.0564 -0.0781 -0.5038
  255MOL0     H34358  10.293   9.555   8.487  0.2392 -2.7679  0.3832
  255MOL0     H34359  10.167   9.724   8.649  2.7024  1.0460  0.1966
  255MOL0     H34360  10.056   9.882   8.869  0.4654  0.5776  0.0401
  255MOL0     H34361  10.002   9.721   8.795  0.1764 -0.3004 -0.5654
  255MOL0     H34362   9.939   9.658   9.041 -2.1611  0.1332  0.1261
  255MOL0     H34363   9.960   9.829   9.078 -1.7805  1.5459 -0.1040
  255MOL0     H34364   9.737   9.818   9.015 -1.6770 -4.9565  0.7083
  255MOL0     H34365   9.824   9.878   8.865 -0.5011 -2.0988 -2.6291
  255MOL0     H34366   9.778   9.662   8.758  0.8986 -0.1654  0.1653
  255MOL0     H34367   9.745   9.593   8.918  0.2849  0.1465  0.4534
  255MOL0     H34368   9.548   9.748   8.923 -0.0803 -1.3031  0.8842
  255MOL0     H34369   9.588   9.792   8.748  1.0200 -0.4767  0.5019
  255MOL0     H34370   9.602   9.537   8.704  1.1702 -2.2909  0.6719
  255MOL0     H34371   9.531   9.522   8.868  2.4635 -0.0400 -0.1235
  255MOL0     H34372   9.380   9.662   8.651  0.3937 -0.4620 -1.0826
  255MOL0     H34373   9.362   9.496   8.675  1.9286 -1.5522  0.3653
  255MOL0     H34374   9.333   9.665   8.913  1.6694 -3.7582  0.5431
  255MOL0     H34375   9.265   9.511   8.878  1.0002  1.0602  2.9091
  255MOL0     H34376   9.235   9.883   8.814  2.0431 -2.3527  2.4213
  255MOL0     H34377   8.859   9.964   8.902  0.8229 -2.6929  2.5337
  255MOL0     H34378   9.022  10.040   8.936  0.9211 -0.0336 -0.2020
  255MOL0     H34379   8.908   9.995   8.655  0.5875 -0.8397  0.8349
  255MOL0     H34380   9.070  10.046   8.684  0.5060  1.5946  0.1962
  255MOL0     H34381   8.974  10.241   8.810  2.1314 -0.6018 -1.4720
  255MOL0     H34382   8.810  10.178   8.766 -0.4193 -0.9984 -1.3688
  255MOL0     H34383   8.876  10.342   8.576  0.6630  1.2064 -0.4701
  255MOL0     H34384   8.882  10.174   8.511  3.1976 -2.0750 -0.9522
  255MOL0     H34385   8.996  10.462   8.723  0.8786  4.2939  1.5190
  255MOL0     H34386   9.126  10.663   8.923 -3.4631  1.4027  0.0904
  255MOL0     H34387   9.178  10.765   8.779 -1.9011  1.8231  2.6223
  255MOL0     H34388   9.024  10.692   8.785 -0.5699 -0.2665  0.3640
  255MOL0     H34389   9.663  10.677   8.951 -0.7324  1.0660 -2.1415
  255MOL0     H34390   9.765  10.880   9.082 -0.1813  2.7362  0.2240
  255MOL0     H34391   9.504  11.109   9.268  1.3704 -1.5218 -0.8231
  255MOL0     H34392   9.668  11.153   9.322 -1.3264 -1.8039  1.5379
  255MOL0     H34393   9.515  11.324   9.121  0.1914  1.4683  0.3865
  255MOL0     H34394   9.512  11.352   9.303 -4.2629 -3.1937 -1.5285
  255MOL0     H34395   9.748  11.385   9.305 -1.5512 -2.5628  0.7319
  255MOL0     H34396   9.636  11.505   9.239 -0.1108  0.0925  1.0979
  255MOL0     H34397   9.849  11.326   9.105  0.7002 -0.6848 -0.6659
  255MOL0     H34398   9.713  11.385   9.009  3.8701  0.9006 -2.4173
  255MOL0     H34399   9.845  11.571   9.198 -2.1940  2.7122 -0.3004
  255MOL0     H34400   9.749  11.606   9.059 -1.3478 -0.2568  3.2192
  255MOL0     H34401  10.000  11.645   8.993 -0.2388  0.4516 -2.9634
  255MOL0     H34402  10.023  11.474   9.031 -0.5241 -0.2997  1.5427
  255MOL0     H34403   9.804  11.544   8.838  0.0101 -0.1744 -0.9429
  255MOL0     H34404   9.919  11.407   8.860  0.5392  0.8146  1.0885
  255MOL0     H34405  10.101  11.548   8.792  0.1747 -3.4130 -1.2922
  255MOL0     H34406   9.995  11.688   8.752  0.3429 -0.4922  0.5241
  255MOL0     H34407   9.404  11.084   9.025  0.9913  0.6779  0.8180
  255MOL0     H34408   9.282  10.882   8.964  0.7358  0.0257 -2.5974
  255MOL0     H34409   9.463  10.424   8.592 -0.0545 -2.8349 -0.5551
  255MOL0     H34410   9.297  10.291   8.474  0.4195 -1.2473  1.1870
  255MOL0     H34411  10.326   9.528   8.978 -1.7947 -0.1134 -0.6979
  255MOL0     H34412  10.466   9.378   8.828 -0.1205 -1.7360 -0.8490
  255MOL0     H34413  10.376   9.065   8.325 -1.2130  2.8357 -1.6329
  255MOL0     H34414  10.564   8.927   8.247 -0.8326 -1.6916  3.7817
  255MOL0     H34415  10.959   8.840   8.318 -0.7440 -2.4964  2.8496
  255MOL0     H34416  10.893   8.951   8.433 -0.9552  2.6669 -1.6131
  255MOL0     H34417  10.850   8.691   8.357 -1.8002 -0.7382 -2.9708
  255MOL0     H34418  10.720   8.761   8.278 -0.3153  0.2687  0.3745
  255MOL0     H34419  10.621   8.700   8.495  1.2287 -0.7700 -1.5095
  255MOL0     H34420  10.627   8.875   8.504 -3.0839 -1.6912 -0.5823
  255MOL0     H34421  10.717   8.781   8.713  1.0918 -1.6018  1.3741
  255MOL0     H34422  10.850   8.858   8.623 -0.5407  1.0243  0.1143
  255MOL0     H34423  10.954   8.456   8.631  1.6951  1.0479 -1.4563
  255MOL0     H34424  10.836   9.212   8.372 -0.0826  0.3915  0.4790
  255MOL0     H34425  10.676   9.346   8.463 -0.8910  2.3676 -3.6356
  256MOL0     O34426  11.335   8.507  10.833  0.2001 -0.4159  0.0847
  256MOL0     C34427  11.266   8.586  10.897  0.2030  0.1068 -0.6669
  256MOL0     O34428  11.160   8.545  10.977  0.1120 -0.3521 -0.7336
  256MOL0     C34429  11.118   8.413  10.989 -0.8050 -0.3247  0.3966
  256MOL0     C34430  11.145   8.316  10.892  0.5311  0.4186 -0.2710
  256MOL0     C34431  11.109   8.183  10.925  0.0428 -0.7484  0.1731
  256MOL0     C34432  11.046   8.142  11.038 -0.7925 -0.1894 -0.2592
  256MOL0     O34433  11.025   8.008  11.035 -0.1301 -0.2006 -0.1809
  256MOL0     C34434  11.033   7.940  11.162  0.1327 -0.7067  0.0309
  256MOL0     C34435  11.094   7.807  11.134 -0.5116  0.4004  0.4003
  256MOL0     C34436  10.984   7.722  11.062  0.2233  0.6141 -0.5167
  256MOL0     C34437  11.025   7.568  11.039  0.4712  0.9444  0.3801
  256MOL0     C34438  10.938   7.503  10.937 -0.6096 -0.2669  0.7937
  256MOL0     C34439  10.788   7.505  10.965 -0.5983  0.8196  0.0304
  256MOL0     C34440  10.758   7.398  11.073 -0.2042  0.6002  0.8341
  256MOL0     C34441  10.604   7.373  11.100  0.2503 -1.3099 -0.1906
  256MOL0     N34442  10.521   7.304  10.997  0.4668 -0.4868  0.4971
  256MOL0     C34443  10.471   7.371  10.886  0.6948  0.4816  0.0287
  256MOL0     C34444  10.401   7.278  10.814 -1.1031 -0.4936 -0.3303
  256MOL0     C34445  10.341   7.282  10.677  0.4747  0.0473  0.5940
  256MOL0     C34446  10.248   7.402  10.668 -0.1106  0.9586  0.7909
  256MOL0     C34447  10.145   7.398  10.781 -1.0266  0.5303 -0.1415
  256MOL0     C34448  10.021   7.477  10.744 -0.3290  0.2157 -1.1230
  256MOL0     O34449   9.928   7.392  10.672 -0.8260 -0.3086 -0.5778
  256MOL0     C34450   9.816   7.453  10.627 -0.4113 -0.5195  0.4849
  256MOL0     C34451   9.744   7.358  10.566  1.1356  0.6253  0.6593
  256MOL0     C34452   9.619   7.382  10.500  0.7320 -0.3766  0.5349
  256MOL0     C34453   9.555   7.259  10.431  1.1349 -0.5294 -1.3189
  256MOL0     C34454   9.557   7.512  10.527 -0.6389 -0.4711 -0.2494
  256MOL0     C34455   9.409   7.538  10.519  1.2736 -0.0514  0.0172
  256MOL0     O34456   9.365   7.671  10.516 -0.2313 -0.0846  0.4146
  256MOL0     C34457   9.234   7.690  10.544 -0.6438  0.5397 -1.4969
  256MOL0     C34458   9.175   7.630  10.659 -0.0676 -1.4317 -0.7894
  256MOL0     C34459   9.044   7.661  10.704 -0.6684 -0.2487 -0.8924
  256MOL0     C34460   8.969   7.745  10.617  1.1350  1.1553 -0.8785
  256MOL0     O34461   8.832   7.745  10.641 -0.1061 -0.5525  0.6043
  256MOL0     C34462   8.745   7.831  10.572  0.0889  0.1420  0.7229
  256MOL0     C34463   8.686   7.746  10.460  0.6864 -0.1960  0.9522
  256MOL0     C34464   8.598   7.840  10.368 -1.3368 -0.4606 -0.7219
  256MOL0     C34465   8.480   7.910  10.437  0.6240  0.3135 -0.7228
  256MOL0     C34466   8.390   7.968  10.327  0.3269  0.3849 -0.0095
  256MOL0     C34467   8.264   8.028  10.404 -0.6877 -0.2038 -0.3602
  256MOL0     C34468   8.184   8.090  10.293  0.5130  0.1257  0.3538
  256MOL0     C34469   8.030   8.109  10.315 -1.3972  0.1276 -0.0816
  256MOL0    Cl34470   7.968   8.195  10.163  0.6051 -0.5774 -0.3319
  256MOL0     C34471   9.024   7.801  10.500 -0.3087 -0.1845 -0.2912
  256MOL0     C34472   9.159   7.783  10.469  0.5836  0.3562 -0.3568
  256MOL0     O34473   9.333   7.436  10.529 -0.4112 -0.5686  0.5000
  256MOL0     C34474   9.634   7.610  10.600  1.0708  0.0951 -0.6887
  256MOL0     C34475   9.762   7.579  10.641  0.1165 -0.1226 -0.5576
  256MOL0     N34476  10.397   7.169  10.894 -0.6072  0.6986 -0.3661
  256MOL0     N34477  10.463   7.185  11.005  0.5660  0.5164 -0.0145
  256MOL0     C34478  11.005   8.241  11.127  0.2299  0.4341 -0.1011
  256MOL0     C34479  11.053   8.373  11.107 -1.3441 -0.8714  0.8162
  256MOL0     C34480  11.277   8.723  10.863 -0.1076  0.4584 -0.1888
  256MOL0     C34481  11.401   8.773  10.838 -0.3687 -1.0223 -0.1895
  256MOL0     C34482  11.422   8.909  10.803  0.5385 -0.0771 -0.3733
  256MOL0     C34483  11.304   8.997  10.785 -0.4293  0.4549  0.4608
  256MOL0     O34484  11.312   9.124  10.740 -0.4281  0.1006  0.0588
  256MOL0     C34485  11.375   9.125  10.608  0.6601  1.0316 -0.1408
  256MOL0     C34486  11.390   9.267  10.567  0.6614 -0.2646  1.0047
  256MOL0     C34487  11.261   9.342  10.556 -0.3528  0.5986 -0.0839
  256MOL0     C34488  11.148   9.271  10.456 -0.7254  0.5831 -0.5218
  256MOL0     C34489  11.195   9.284  10.320  0.3602  0.7619  0.3414
  256MOL0     C34490  11.230   9.324  10.203  0.3098 -0.2216  0.3130
  256MOL0     C34491  11.182   8.938  10.820 -0.3783 -0.0820  1.2923
  256MOL0     C34492  11.159   8.808  10.859 -0.8902  0.4150  0.0796
  256MOL0     H34493  11.162   8.343  10.789 -0.9971  1.2971 -0.3161
  256MOL0     H34494  11.145   8.115  10.848 -0.5989 -1.1567  0.2270
  256MOL0     H34495  11.103   7.989  11.230 -3.0490 -0.3451  3.3743
  256MOL0     H34496  10.929   7.936  11.196 -0.7107  1.5227 -1.9821
  256MOL0     H34497  11.190   7.812  11.081 -0.8370  4.1579 -0.1231
  256MOL0     H34498  11.109   7.745  11.222  2.1279 -0.8637 -0.7983
  256MOL0     H34499  10.901   7.726  11.133  1.1026  2.0885  0.4856
  256MOL0     H34500  10.967   7.773  10.967  3.0070 -0.3561 -1.6538
  256MOL0     H34501  11.129   7.553  11.008 -0.7975 -3.7635 -2.5243
  256MOL0     H34502  11.013   7.520  11.136 -0.6780  1.2709  0.4107
  256MOL0     H34503  10.952   7.554  10.841  2.1489 -1.6284  0.3843
  256MOL0     H34504  10.964   7.399  10.913  1.3232  1.2137 -5.3587
  256MOL0     H34505  10.759   7.604  11.001 -1.2962 -0.0540  2.0321
  256MOL0     H34506  10.730   7.477  10.876 -0.2511  0.1567  0.0057
  256MOL0     H34507  10.802   7.307  11.033 -1.1453  0.9679 -1.1040
  256MOL0     H34508  10.788   7.445  11.168 -0.7763  2.5378  0.1059
  256MOL0     H34509  10.566   7.472  11.125  1.4503 -0.4545 -1.5825
  256MOL0     H34510  10.594   7.307  11.187 -0.1794  1.1825  1.7728
  256MOL0     H34511  10.480   7.478  10.865  1.5702  0.2097 -1.0636
  256MOL0     H34512  10.426   7.287  10.609  1.7196 -1.0557  2.0098
  256MOL0     H34513  10.300   7.184  10.651  1.2015  0.2511 -1.5100
  256MOL0     H34514  10.198   7.392  10.571 -1.1502  3.6483  0.9570
  256MOL0     H34515  10.311   7.492  10.662  1.2136 -0.0271 -1.4649
  256MOL0     H34516  10.194   7.444  10.867  0.0024  1.3203 -1.1090
  256MOL0     H34517  10.127   7.291  10.796  0.7236 -0.0428 -1.7934
  256MOL0     H34518  10.037   7.567  10.683 -0.1218  0.7190 -0.3394
  256MOL0     H34519   9.974   7.517  10.834 -0.3005  1.9790 -1.8589
  256MOL0     H34520   9.780   7.256  10.563 -1.6021 -0.4316  1.3122
  256MOL0     H34521   9.500   7.198  10.504  1.3323  1.7956  0.9355
  256MOL0     H34522   9.494   7.296  10.348  0.9394 -0.2595 -1.0608
  256MOL0     H34523   9.627   7.191  10.386  2.2482 -0.6188  0.4741
  256MOL0     H34524   9.245   7.568  10.713  0.1573 -0.8433 -0.3855
  256MOL0     H34525   8.996   7.609  10.786  0.4224  1.4387  0.9180
  256MOL0     H34526   8.666   7.853  10.644 -0.8453 -2.7430  0.7115
  256MOL0     H34527   8.791   7.926  10.545  0.1281 -0.0585  0.0529
  256MOL0     H34528   8.761   7.693  10.401  1.3969  1.0549  0.6917
  256MOL0     H34529   8.627   7.659  10.489 -1.8911  1.5270  1.1955
  256MOL0     H34530   8.567   7.782  10.281 -0.6420 -4.8593  1.6957
  256MOL0     H34531   8.657   7.922  10.325  0.2953 -0.3272  1.5834
  256MOL0     H34532   8.433   7.828  10.492 -0.5239  0.3182 -1.6542
  256MOL0     H34533   8.512   7.981  10.514  1.0533 -1.0120  0.3641
  256MOL0     H34534   8.359   7.895  10.251  0.8428 -0.0972  0.2370
  256MOL0     H34535   8.448   8.044  10.274  2.7322 -2.1052 -1.1864
  256MOL0     H34536   8.217   7.944  10.455  2.3697 -0.7786  1.7908
  256MOL0     H34537   8.289   8.096  10.487 -2.3704 -1.4138  1.2182
  256MOL0     H34538   8.179   8.016  10.212  0.3737 -0.8097  1.1952
  256MOL0     H34539   8.235   8.178  10.254 -2.3542  1.9999  0.5382
  256MOL0     H34540   8.015   8.181  10.395 -3.3952  1.0450 -1.2253
  256MOL0     H34541   7.980   8.012  10.328 -2.7962  0.7560 -0.5480
  256MOL0     H34542   8.962   7.862  10.436  1.0513  2.4025  0.6897
  256MOL0     H34543   9.212   7.829  10.387  2.5402  1.5019  1.4454
  256MOL0     H34544   9.606   7.711  10.627 -1.4162 -0.4293 -1.1089
  256MOL0     H34545   9.787   7.644  10.724  0.3626 -2.0564  0.9702
  256MOL0     H34546  10.959   8.229  11.224 -0.4504  0.0708 -0.4667
  256MOL0     H34547  11.049   8.456  11.176  0.3702 -1.4752  1.7029
  256MOL0     H34548  11.486   8.718  10.879 -1.4351 -0.8741  2.4242
  256MOL0     H34549  11.522   8.942  10.775 -0.0504  1.8521 -0.3642
  256MOL0     H34550  11.469   9.072  10.624  0.1094  0.4651  1.3685
  256MOL0     H34551  11.318   9.065  10.537 -0.6515  0.8260  1.0302
  256MOL0     H34552  11.452   9.264  10.477 -1.3651  0.9142 -0.5348
  256MOL0     H34553  11.464   9.317  10.629  0.4731  0.8832  0.3338
  256MOL0     H34554  11.280   9.439  10.508 -4.0371  1.1847 -0.5835
  256MOL0     H34555  11.217   9.352  10.656  2.1259 -0.1786  1.1831
  256MOL0     H34556  11.055   9.329  10.458 -0.2386  1.3687  0.8953
  256MOL0     H34557  11.144   9.162  10.469 -2.4632  0.7119  0.2662
  256MOL0     H34558  11.264   9.363  10.109  1.4956 -0.3060  0.6908
  256MOL0     H34559  11.097   9.006  10.816 -3.9432 -4.0914  1.2092
  256MOL0     H34560  11.060   8.766  10.873  0.2420 -2.2805  0.5701
  257MOL0     O34561   0.072   5.793   3.861 -0.3335 -0.0226 -0.3967
  257MOL0     C34562  -0.021   5.855   3.814 -0.2315 -0.5257  0.0383
  257MOL0     O34563  -0.136   5.899   3.880  0.1125  0.8461  0.4679
  257MOL0     C34564  -0.132   5.895   4.018 -0.3104 -0.7466 -0.3399
  257MOL0     C34565  -0.120   5.778   4.094  1.3907 -0.7604  0.6117
  257MOL0     C34566  -0.144   5.784   4.228 -0.1218  0.3208  0.0446
  257MOL0     C34567  -0.168   5.903   4.297 -0.1526 -0.0461  0.6155
  257MOL0     O34568  -0.175   5.888   4.434  0.2779  0.0849  0.1267
  257MOL0     C34569  -0.260   5.970   4.513 -0.3620  0.0863 -0.0013
  257MOL0     C34570  -0.231   5.946   4.662  0.7202  0.1720  0.8914
  257MOL0     C34571  -0.270   5.803   4.697  0.3711  0.5811 -0.7396
  257MOL0     C34572  -0.247   5.760   4.844 -0.1682  0.2478 -0.2851
  257MOL0     C34573  -0.116   5.803   4.904  0.1661  0.4139  0.1596
  257MOL0     C34574  -0.107   5.757   5.052  0.0696  0.2544  0.9589
  257MOL0     C34575   0.022   5.791   5.121  0.3196 -0.1826  0.2319
  257MOL0     C34576   0.020   5.777   5.274 -0.8020 -0.0014 -0.7414
  257MOL0     N34577  -0.019   5.638   5.310 -0.1167 -0.3117 -0.3991
  257MOL0     C34578   0.045   5.515   5.275  0.3100  0.5980 -0.5127
  257MOL0     C34579  -0.003   5.418   5.366 -0.8874 -1.0204  0.5336
  257MOL0     C34580   0.047   5.278   5.377  0.6204 -0.3750 -0.2645
  257MOL0     C34581   0.160   5.267   5.484 -0.0709  0.0944  1.3214
  257MOL0     C34582   0.288   5.339   5.438 -0.0436 -0.2270 -0.1043
  257MOL0     C34583   0.377   5.347   5.557 -0.2014  0.6121  0.1223
  257MOL0     O34584   0.347   5.445   5.657  0.9190 -0.4150 -0.4657
  257MOL0     C34585   0.344   5.583   5.628  0.5262  0.4573 -0.5738
  257MOL0     C34586   0.268   5.664   5.719  0.3894  0.3446  0.1074
  257MOL0     C34587   0.258   5.802   5.689  0.5335  0.1438 -0.6815
  257MOL0     C34588   0.176   5.885   5.784  1.1713 -0.0452 -1.0723
  257MOL0     C34589   0.319   5.862   5.578  1.0256  0.6555  0.5613
  257MOL0     C34590   0.307   6.004   5.544  0.0549  0.5038 -0.9509
  257MOL0     O34591   0.312   6.049   5.411 -1.0122 -0.0806  0.5602
  257MOL0     C34592   0.310   6.178   5.388 -0.9984 -0.1542 -1.4111
  257MOL0     C34593   0.437   6.248   5.406 -0.2800  0.3177  0.1644
  257MOL0     C34594   0.449   6.382   5.351 -0.1445  0.6035  0.0971
  257MOL0     C34595   0.347   6.445   5.291  0.4649  0.3649  0.3838
  257MOL0     O34596   0.342   6.573   5.234 -1.2263  0.5676  0.0251
  257MOL0     C34597   0.458   6.605   5.164  0.9250 -0.3838  0.2021
  257MOL0     C34598   0.435   6.650   5.016 -0.9361 -0.2957  0.3211
  257MOL0     C34599   0.347   6.551   4.942  0.0677 -1.0111 -0.2926
  257MOL0     C34600   0.360   6.591   4.795  0.5902  0.6928 -0.4279
  257MOL0     C34601   0.489   6.567   4.702 -0.2740 -0.1748 -0.7809
  257MOL0     C34602   0.541   6.436   4.705  0.6425  1.3084 -0.6811
  257MOL0     C34603   0.680   6.445   4.635  0.7100  0.8755 -0.6722
  257MOL0     C34604   0.758   6.318   4.674  0.4953 -1.0526  0.8388
  257MOL0    Cl34605   0.794   6.300   4.845 -0.1835  0.0259  0.3850
  257MOL0     C34606   0.222   6.380   5.287  0.7740  0.0183  0.1160
  257MOL0     C34607   0.209   6.245   5.324  0.3570  0.0677  0.9591
  257MOL0     O34608   0.288   6.076   5.642 -0.2281 -0.2117  0.0423
  257MOL0     C34609   0.390   5.777   5.485  0.5674  1.3846 -0.6975
  257MOL0     C34610   0.397   5.636   5.514  0.2073  0.6667 -0.1157
  257MOL0     N34611  -0.103   5.480   5.437 -0.1595 -0.2523 -0.1815
  257MOL0     N34612  -0.111   5.606   5.405 -0.3717 -0.3038 -0.1477
  257MOL0     C34613  -0.177   6.027   4.226 -0.6696  0.0377  0.1463
  257MOL0     C34614  -0.162   6.024   4.087 -0.5937  0.0325  0.3849
  257MOL0     C34615  -0.026   5.869   3.666 -0.4443  0.3607 -0.0881
  257MOL0     C34616  -0.105   5.971   3.599  0.0824  0.3457 -0.0075
  257MOL0     C34617  -0.104   5.974   3.456 -0.6666 -1.1699  0.9877
  257MOL0     C34618  -0.027   5.883   3.377 -0.0485 -0.1140  0.8336
  257MOL0     O34619  -0.031   5.894   3.243  0.1666  0.3978 -0.4094
  257MOL0     C34620   0.068   5.830   3.170 -0.4889  0.3333 -0.6593
  257MOL0     C34621   0.083   5.886   3.024 -0.2314  0.2317  0.7822
  257MOL0     C34622  -0.037   5.856   2.938  0.0475  0.8584  0.4409
  257MOL0     C34623  -0.001   5.887   2.791  0.4202  0.1106  0.3059
  257MOL0     C34624  -0.118   5.906   2.707 -0.2390 -0.3558 -0.2318
  257MOL0     C34625  -0.223   5.901   2.648 -0.7334  1.1077 -0.4672
  257MOL0     C34626   0.051   5.794   3.442  0.2297 -0.1178  0.0179
  257MOL0     C34627   0.057   5.790   3.586  0.6536 -0.5839 -1.2569
  257MOL0     H34628  -0.085   5.685   4.051  1.3404 -0.3709 -0.2985
  257MOL0     H34629  -0.138   5.691   4.284  1.3541 -1.4382 -2.8038
  257MOL0     H34630  -0.246   6.076   4.490  1.5396 -0.1485 -0.0616
  257MOL0     H34631  -0.362   5.945   4.483 -1.0292 -0.1777  2.2562
  257MOL0     H34632  -0.124   5.965   4.678  0.3755  3.9929 -0.2859
  257MOL0     H34633  -0.285   6.014   4.727 -0.8136  1.0485 -1.2006
  257MOL0     H34634  -0.379   5.796   4.688  0.3193 -2.7426  0.8121
  257MOL0     H34635  -0.231   5.722   4.635 -1.8154 -0.0792 -1.3676
  257MOL0     H34636  -0.331   5.794   4.906  0.3175 -1.6553  1.5381
  257MOL0     H34637  -0.255   5.651   4.842 -1.8182  0.3241  0.5239
  257MOL0     H34638  -0.041   5.748   4.846  0.4159 -1.2400  1.9330
  257MOL0     H34639  -0.085   5.907   4.895  0.8866  0.4106  1.9894
  257MOL0     H34640  -0.190   5.801   5.107  1.2878  1.4936  1.8830
  257MOL0     H34641  -0.112   5.648   5.056  2.4032  0.0860  0.6980
  257MOL0     H34642   0.101   5.732   5.075 -0.2100  0.1835 -1.1897
  257MOL0     H34643   0.043   5.895   5.096 -0.5467 -0.1032 -0.2111
  257MOL0     H34644  -0.046   5.851   5.320 -0.8323 -1.2501  1.2930
  257MOL0     H34645   0.124   5.790   5.305  0.2144 -2.7304 -2.5741
  257MOL0     H34646   0.128   5.508   5.205  2.6003 -0.4552  2.1434
  257MOL0     H34647  -0.040   5.215   5.396  0.1254 -0.3068 -2.1605
  257MOL0     H34648   0.095   5.239   5.288 -1.7176 -3.2939 -0.3873
  257MOL0     H34649   0.184   5.161   5.494 -2.0609 -0.5070  0.2484
  257MOL0     H34650   0.129   5.308   5.580 -2.9340  1.6078 -0.1346
  257MOL0     H34651   0.269   5.439   5.397  4.2998  0.8250 -0.0784
  257MOL0     H34652   0.340   5.282   5.360 -1.8508  0.6341 -2.0436
  257MOL0     H34653   0.482   5.345   5.527 -0.1885  0.7098  0.1606
  257MOL0     H34654   0.362   5.252   5.610 -1.1804  1.5240  1.5727
  257MOL0     H34655   0.229   5.620   5.811 -0.2412  1.5470  0.4311
  257MOL0     H34656   0.086   5.918   5.732  0.5274  3.3799  1.8445
  257MOL0     H34657   0.136   5.831   5.870 -2.2539  2.3223 -0.9699
  257MOL0     H34658   0.236   5.959   5.838  0.8043  0.4741 -1.3623
  257MOL0     H34659   0.521   6.203   5.459  0.2979  0.2949 -0.7547
  257MOL0     H34660   0.543   6.432   5.374  1.4822 -2.4284  0.5100
  257MOL0     H34661   0.509   6.688   5.213  1.2802 -0.6967  0.3671
  257MOL0     H34662   0.534   6.526   5.169  1.4513  0.0975 -0.0868
  257MOL0     H34663   0.387   6.748   5.021 -2.8285 -1.1860  0.3381
  257MOL0     H34664   0.528   6.668   4.961 -1.3308  0.5156 -0.1012
  257MOL0     H34665   0.245   6.570   4.978  1.5639  1.1058  3.3079
  257MOL0     H34666   0.344   6.445   4.967 -0.5374 -0.7229  0.9420
  257MOL0     H34667   0.283   6.525   4.754  1.7737 -2.4002  1.9004
  257MOL0     H34668   0.331   6.695   4.778 -0.6068  0.6573  1.1849
  257MOL0     H34669   0.568   6.636   4.734 -0.1440 -0.7211  0.1280
  257MOL0     H34670   0.467   6.610   4.604  2.6215 -0.2499 -1.5540
  257MOL0     H34671   0.566   6.407   4.807  1.0434  0.3062 -1.0509
  257MOL0     H34672   0.479   6.364   4.650  0.7547 -0.0296  0.8722
  257MOL0     H34673   0.730   6.539   4.660  0.0428  0.6334  1.8747
  257MOL0     H34674   0.672   6.439   4.526  1.2457  2.5113 -0.8260
  257MOL0     H34675   0.849   6.319   4.612 -0.0625 -0.2323  0.0133
  257MOL0     H34676   0.695   6.236   4.638  1.9351 -1.2542 -1.4549
  257MOL0     H34677   0.139   6.435   5.245  0.2583 -0.4377  0.5137
  257MOL0     H34678   0.113   6.194   5.320 -0.9325  2.2759  1.9809
  257MOL0     H34679   0.444   5.820   5.402 -1.8646  0.0777 -3.1243
  257MOL0     H34680   0.444   5.578   5.435  1.1120 -2.3879  2.4703
  257MOL0     H34681  -0.174   6.126   4.270  0.1499  0.8172 -1.5779
  257MOL0     H34682  -0.164   6.125   4.047 -1.1066  0.4729  1.4513
  257MOL0     H34683  -0.165   6.035   3.663 -1.3114 -0.2521 -0.6696
  257MOL0     H34684  -0.148   6.061   3.408  2.1376  0.5389  1.3388
  257MOL0     H34685   0.163   5.842   3.222 -1.7242  0.6759  1.6522
  257MOL0     H34686   0.037   5.725   3.180  0.1457  0.3146  1.8039
  257MOL0     H34687   0.170   5.833   2.983 -1.9121 -1.1177 -1.2559
  257MOL0     H34688   0.109   5.992   3.021  0.7827  0.0102 -2.3438
  257MOL0     H34689  -0.120   5.922   2.966 -0.2517 -0.4123  2.7822
  257MOL0     H34690  -0.069   5.751   2.943  1.3180  0.5188  1.9737
  257MOL0     H34691   0.061   5.805   2.756  0.8491  0.8660 -0.7483
  257MOL0     H34692   0.055   5.981   2.795  2.0055 -0.7492 -0.7359
  257MOL0     H34693  -0.318   5.896   2.598 -0.9507  0.4074 -0.0104
  257MOL0     H34694   0.103   5.707   3.402 -1.7213 -1.8284  0.9749
  257MOL0     H34695   0.123   5.715   3.628  2.0796  0.7340 -1.0190
  258MOL0     O34696   9.470   6.238  10.222  0.4677  1.1036  0.2820
  258MOL0     C34697   9.531   6.265  10.122 -0.7904  0.2983  0.1956
  258MOL0     O34698   9.633   6.194  10.078 -0.1092 -0.1790 -0.0222
  258MOL0     C34699   9.665   6.073  10.138  1.0368  0.1340  0.6392
  258MOL0     C34700   9.604   5.948  10.113  0.8034  0.7081  0.0577
  258MOL0     C34701   9.650   5.833  10.183 -0.4510 -0.6593  0.7519
  258MOL0     C34702   9.754   5.841  10.272 -0.6378 -0.3517 -0.0491
  258MOL0     O34703   9.781   5.720  10.317  0.2133  0.7564  0.1091
  258MOL0     C34704   9.824   5.700  10.450 -0.0380  1.0554 -0.5486
  258MOL0     C34705   9.751   5.763  10.562  0.3372  0.0547  0.5923
  258MOL0     C34706   9.828   5.752  10.689 -0.0296 -0.6891 -0.5461
  258MOL0     C34707   9.786   5.634  10.777 -0.4462 -0.6536 -0.0832
  258MOL0     C34708   9.815   5.663  10.925 -0.5949 -0.3094 -0.6681
  258MOL0     C34709   9.969   5.658  10.931 -0.3515 -0.1459 -0.7398
  258MOL0     C34710  10.028   5.638  11.075 -0.4280  0.5565  0.1198
  258MOL0     C34711  10.037   5.765  11.147  0.9322 -1.0429 -0.4228
  258MOL0     N34712   9.919   5.863  11.142  0.2964  0.1270 -0.1406
  258MOL0     C34713   9.804   5.843  11.213 -0.2549 -0.8428 -0.4276
  258MOL0     C34714   9.717   5.929  11.168  0.4674  0.8896  0.3800
  258MOL0     C34715   9.575   5.924  11.203  0.3490  0.0229 -0.2792
  258MOL0     C34716   9.488   5.873  11.090  0.3088 -0.9896  0.0204
  258MOL0     C34717   9.458   5.985  10.989 -0.0856 -0.5350  0.4720
  258MOL0     C34718   9.405   5.925  10.857  0.9305  0.3252 -0.6837
  258MOL0     O34719   9.425   6.038  10.763 -0.2752  0.4881 -0.1436
  258MOL0     C34720   9.331   6.124  10.718  0.0259  1.2156 -0.0870
  258MOL0     C34721   9.233   6.180  10.794 -0.1745 -0.4869 -0.2445
  258MOL0     C34722   9.147   6.280  10.749 -0.3019 -1.2412 -0.1699
  258MOL0     C34723   9.048   6.334  10.838 -0.1665 -0.3950 -0.8130
  258MOL0     C34724   9.157   6.328  10.614 -0.0975  0.2140 -0.2080
  258MOL0     C34725   9.087   6.441  10.546  0.2052 -0.5286  0.3888
  258MOL0     O34726   9.104   6.452  10.414  0.0064 -0.0203 -0.1593
  258MOL0     C34727   9.054   6.560  10.332  0.1702 -0.5023 -0.0186
  258MOL0     C34728   9.057   6.521  10.201 -0.0271 -0.5538  0.8508
  258MOL0     C34729   9.003   6.604  10.101  0.3028 -0.5784 -0.9453
  258MOL0     C34730   8.954   6.729  10.131 -0.5371 -0.4306 -0.1366
  258MOL0     O34731   8.886   6.796  10.030 -0.1046 -0.0737 -0.0634
  258MOL0     C34732   8.830   6.924  10.046  0.2213 -0.2460 -0.5183
  258MOL0     C34733   8.768   6.980   9.914  1.3289  0.3510  0.4995
  258MOL0     C34734   8.673   6.883   9.845  0.8555  0.5892 -0.0828
  258MOL0     C34735   8.575   6.952   9.754  0.8183  0.1069 -0.8400
  258MOL0     C34736   8.463   7.031   9.817 -0.3685  0.7223 -0.1028
  258MOL0     C34737   8.326   7.022   9.748 -0.5913 -0.0133  0.0432
  258MOL0     C34738   8.245   6.894   9.772 -0.2182  0.7026 -0.6274
  258MOL0     C34739   8.159   6.910   9.895 -0.0150  1.5506 -0.0624
  258MOL0    Cl34740   8.003   6.806   9.896 -0.4571 -0.4685 -0.3284
  258MOL0     C34741   8.945   6.768  10.265  0.3315 -0.5672  0.1099
  258MOL0     C34742   8.988   6.685  10.361 -0.9547 -0.1266 -0.3398
  258MOL0     O34743   9.058   6.532  10.618 -0.0623  0.5119  1.4964
  258MOL0     C34744   9.247   6.249  10.535 -0.1609  0.3032  0.1669
  258MOL0     C34745   9.340   6.160  10.582 -0.3411  0.2661 -0.2374
  258MOL0     N34746   9.784   6.014  11.084 -0.4994  0.4722  0.5926
  258MOL0     N34747   9.910   5.979  11.077  0.9804 -0.1940 -0.5665
  258MOL0     C34748   9.818   5.960  10.300 -0.3193  0.2512  0.3166
  258MOL0     C34749   9.771   6.074  10.230  0.0956 -0.7013 -0.0105
  258MOL0     C34750   9.504   6.389  10.047  0.4216 -0.9117  0.2751
  258MOL0     C34751   9.398   6.470  10.083  0.1882 -0.4501 -0.4907
  258MOL0     C34752   9.381   6.593  10.020 -0.1960  0.9116 -0.2617
  258MOL0     C34753   9.471   6.641   9.932 -0.5052  0.3327  0.1585
  258MOL0     O34754   9.468   6.770   9.884 -0.1326 -0.2786  0.6670
  258MOL0     C34755   9.593   6.833   9.865  0.2233 -0.4732  0.0631
  258MOL0     C34756   9.551   6.981   9.870  0.6820 -0.1073 -0.6113
  258MOL0     C34757   9.496   7.020   9.734  0.1165 -0.4186 -0.0415
  258MOL0     C34758   9.454   7.174   9.742  0.4800 -0.2915  0.3649
  258MOL0     C34759   9.442   7.220   9.596  0.0118  1.1278 -0.1939
  258MOL0     C34760   9.455   7.252   9.484 -0.5601 -0.3619 -0.3729
  258MOL0     C34761   9.569   6.555   9.887 -0.6009  0.5215  0.3867
  258MOL0     C34762   9.589   6.430   9.945  0.3668  0.6251 -0.3637
  258MOL0     H34763   9.518   5.944  10.047 -1.5515 -0.8244  2.9931
  258MOL0     H34764   9.575   5.754  10.192 -2.1228  0.9335  1.3987
  258MOL0     H34765   9.838   5.596  10.481 -1.6892  1.5717  2.3108
  258MOL0     H34766   9.922   5.748  10.452 -0.6581  2.4532 -1.4950
  258MOL0     H34767   9.731   5.868  10.539  0.6369 -0.4228 -2.2135
  258MOL0     H34768   9.650   5.722  10.570  1.3692 -2.5766  1.1589
  258MOL0     H34769   9.932   5.754  10.655 -0.3251  2.9279 -1.6572
  258MOL0     H34770   9.825   5.838  10.756  3.1581 -1.9734  1.5003
  258MOL0     H34771   9.677   5.623  10.775 -0.9332  0.9988  4.7306
  258MOL0     H34772   9.836   5.539  10.756  2.8100  0.4932  1.7022
  258MOL0     H34773   9.765   5.752  10.965 -2.3636 -1.7537  0.4958
  258MOL0     H34774   9.787   5.574  10.982  0.3446 -0.7433 -0.8630
  258MOL0     H34775  10.017   5.583  10.868  3.3746  2.7093 -1.5937
  258MOL0     H34776  10.002   5.751  10.885 -0.2182  0.3134  0.2528
  258MOL0     H34777   9.976   5.564  11.136  0.3381 -0.9299 -0.9664
  258MOL0     H34778  10.127   5.593  11.068  0.3889  2.2458  0.3342
  258MOL0     H34779  10.136   5.806  11.122  1.3815 -3.5950 -3.4776
  258MOL0     H34780  10.045   5.731  11.251 -1.5561 -0.9754 -0.1695
  258MOL0     H34781   9.790   5.755  11.275  5.7518 -1.1183  1.1146
  258MOL0     H34782   9.573   5.848  11.281 -3.1652 -0.8424 -1.0457
  258MOL0     H34783   9.551   6.025  11.237 -0.8353 -0.4384  0.3291
  258MOL0     H34784   9.391   5.838  11.124 -1.8713  5.1148  1.4192
  258MOL0     H34785   9.538   5.784  11.052 -0.1882 -1.1516 -0.2560
  258MOL0     H34786   9.548   6.044  10.970  1.3123 -2.7245 -0.1208
  258MOL0     H34787   9.381   6.049  11.033 -0.9961 -0.2596 -1.3957
  258MOL0     H34788   9.298   5.905  10.863  0.8539  0.0518 -2.4547
  258MOL0     H34789   9.463   5.839  10.822 -3.3694 -2.9393 -0.6759
  258MOL0     H34790   9.211   6.133  10.890 -1.8319 -1.3433 -0.9949
  258MOL0     H34791   9.040   6.275  10.930 -0.9714 -0.1499 -0.7106
  258MOL0     H34792   9.092   6.433  10.857  5.1748 -1.7961 -4.0310
  258MOL0     H34793   8.949   6.347  10.793  0.1039 -1.2070 -1.6585
  258MOL0     H34794   9.114   6.432  10.178  3.0716  0.8657  2.3625
  258MOL0     H34795   9.011   6.574   9.997  3.8029 -1.0830 -0.6534
  258MOL0     H34796   8.754   6.921  10.125 -2.7620 -0.1311 -3.1639
  258MOL0     H34797   8.913   6.990  10.073 -0.9613  0.6085  1.2167
  258MOL0     H34798   8.722   7.079   9.923 -0.4147 -0.3829  0.1429
  258MOL0     H34799   8.844   6.998   9.836 -3.4386  1.2651 -4.6104
  258MOL0     H34800   8.622   6.831   9.927 -0.1813  1.8588  0.1040
  258MOL0     H34801   8.724   6.799   9.797 -3.1102 -0.6176 -2.6136
  258MOL0     H34802   8.637   7.007   9.682 -1.9672  0.7101 -2.9153
  258MOL0     H34803   8.528   6.864   9.711 -0.8160  1.0021 -0.9571
  258MOL0     H34804   8.505   7.130   9.834  2.3453 -0.5523  1.2167
  258MOL0     H34805   8.441   6.981   9.912  1.8857 -1.5870 -0.6955
  258MOL0     H34806   8.274   7.115   9.774  0.2960  1.0383 -1.8121
  258MOL0     H34807   8.340   7.045   9.642  0.8096  1.6208  0.5396
  258MOL0     H34808   8.312   6.808   9.784  0.5011  1.5834  2.4545
  258MOL0     H34809   8.178   6.886   9.686 -0.8287 -2.7037  0.0239
  258MOL0     H34810   8.129   7.015   9.902 -0.3309  1.4092  1.0515
  258MOL0     H34811   8.221   6.884   9.981 -0.9548 -0.3299  0.1241
  258MOL0     H34812   8.890   6.851  10.310 -1.2577  0.9430 -4.0488
  258MOL0     H34813   8.979   6.714  10.465 -0.1638  2.0027 -0.8094
  258MOL0     H34814   9.249   6.267  10.428  1.5314 -2.3630 -0.3590
  258MOL0     H34815   9.418   6.124  10.515 -2.3553  3.8191 -5.1191
  258MOL0     H34816   9.894   5.970  10.378 -0.6577 -2.8642  1.1716
  258MOL0     H34817   9.806   6.171  10.264 -2.4995  1.5482 -3.0135
  258MOL0     H34818   9.326   6.425  10.151  0.4382  0.3230  0.3045
  258MOL0     H34819   9.291   6.652  10.035 -1.6018 -1.4990  1.5801
  258MOL0     H34820   9.667   6.810   9.943  1.7613 -2.1286 -1.7468
  258MOL0     H34821   9.647   6.809   9.773  1.2656 -0.2675  0.6057
  258MOL0     H34822   9.641   7.038   9.895  1.1495  0.3256 -3.0643
  258MOL0     H34823   9.473   7.007   9.942  0.1058  1.4273 -1.7386
  258MOL0     H34824   9.414   6.954   9.703 -0.0312 -0.3660  0.2391
  258MOL0     H34825   9.573   7.019   9.656 -2.1527 -2.1864 -2.4646
  258MOL0     H34826   9.539   7.219   9.794  1.7934  0.0968 -1.9906
  258MOL0     H34827   9.363   7.204   9.796 -0.1753 -2.7869  0.7788
  258MOL0     H34828   9.462   7.281   9.381  0.2768 -1.6326 -0.6860
  258MOL0     H34829   9.630   6.586   9.802 -0.0532  2.7641  1.5236
  258MOL0     H34830   9.677   6.377   9.910  0.1311 -0.5673  0.7837
  259MOL0     O34831   6.279   3.327   8.022 -0.6369  0.7060  0.3806
  259MOL0     C34832   6.307   3.426   7.960  0.9503  0.8012 -0.0943
  259MOL0     O34833   6.264   3.551   7.986 -0.0880  0.1733  0.0575
  259MOL0     C34834   6.151   3.590   8.056  0.5353 -0.0872  0.3309
  259MOL0     C34835   6.072   3.507   8.137  0.6613  0.3236 -0.5108
  259MOL0     C34836   5.951   3.548   8.201  0.2859  0.2694  0.3377
  259MOL0     C34837   5.916   3.690   8.192 -0.1728 -0.2435  0.4902
  259MOL0     O34838   5.813   3.729   8.256 -0.1109  0.3062 -0.7702
  259MOL0     C34839   5.726   3.818   8.190 -0.2264 -0.8165 -0.7300
  259MOL0     C34840   5.606   3.818   8.287  0.2600  0.2817 -0.0124
  259MOL0     C34841   5.495   3.906   8.217  0.5277  0.3033 -0.6985
  259MOL0     C34842   5.444   4.029   8.295 -0.6600  0.2501 -0.3381
  259MOL0     C34843   5.340   4.124   8.223  1.2469 -0.1213 -0.5897
  259MOL0     C34844   5.294   4.246   8.308 -0.7216 -0.1893  0.1628
  259MOL0     C34845   5.217   4.194   8.431  0.2924 -0.5050 -0.1417
  259MOL0     C34846   5.089   4.121   8.408 -1.1777 -0.9829  1.0375
  259MOL0     N34847   4.985   4.204   8.340  0.1932 -0.7499 -0.1550
  259MOL0     C34848   4.980   4.229   8.204  0.3748  0.5887  0.3734
  259MOL0     C34849   4.886   4.325   8.191 -0.0119  0.2096  0.7386
  259MOL0     C34850   4.844   4.384   8.064  0.9895  0.0305  0.7309
  259MOL0     C34851   4.699   4.324   8.033  0.0122  0.1859 -0.0062
  259MOL0     C34852   4.671   4.345   7.879  0.2324  0.7112 -0.6778
  259MOL0     C34853   4.531   4.291   7.854  0.2920  0.6865  0.4400
  259MOL0     O34854   4.486   4.338   7.729  0.2355  0.3429  0.6974
  259MOL0     C34855   4.452   4.244   7.629  0.9117 -1.6302  0.5267
  259MOL0     C34856   4.368   4.136   7.653 -0.0555 -0.1724  0.7922
  259MOL0     C34857   4.331   4.054   7.552  0.0332  0.0774 -0.0414
  259MOL0     C34858   4.227   3.955   7.586  0.0207  0.3985  0.1508
  259MOL0     C34859   4.396   4.070   7.423  0.7548 -0.0626 -0.7722
  259MOL0     C34860   4.377   3.983   7.305 -0.8927 -0.3108  0.3438
  259MOL0     O34861   4.439   4.013   7.181 -0.4286 -0.3114 -0.7382
  259MOL0     C34862   4.441   3.919   7.075  0.5163  0.6764 -0.0758
  259MOL0     C34863   4.553   3.883   7.016 -0.5611 -1.2884 -1.1824
  259MOL0     C34864   4.553   3.794   6.909 -0.2456  0.2546  1.2909
  259MOL0     C34865   4.432   3.739   6.857  0.4654 -0.0917  0.6828
  259MOL0     O34866   4.420   3.647   6.763  0.4780  0.4187 -0.5522
  259MOL0     C34867   4.299   3.629   6.686  0.4046 -0.2667 -0.0323
  259MOL0     C34868   4.344   3.544   6.570 -0.1019  0.0939  0.0342
  259MOL0     C34869   4.388   3.401   6.593  1.1376 -0.9534 -0.0208
  259MOL0     C34870   4.273   3.318   6.656  0.0327 -0.8360 -0.4380
  259MOL0     C34871   4.316   3.177   6.662 -0.4806  0.2892 -0.1141
  259MOL0     C34872   4.205   3.072   6.688 -0.7479  0.2567 -0.1987
  259MOL0     C34873   4.274   2.934   6.723 -0.2035 -0.0424  0.0219
  259MOL0     C34874   4.366   2.881   6.610 -0.4396  0.9956  0.1456
  259MOL0    Cl34875   4.261   2.797   6.484  0.3946  0.1693 -0.2577
  259MOL0     C34876   4.313   3.762   6.929 -0.6392 -0.6769 -0.3349
  259MOL0     C34877   4.318   3.856   7.034 -0.4994  0.2029  0.5932
  259MOL0     O34878   4.304   3.888   7.322  0.6084 -0.9720  0.1462
  259MOL0     C34879   4.482   4.184   7.406 -0.2272 -0.3033  0.4155
  259MOL0     C34880   4.498   4.277   7.504  0.5191 -0.5076  0.5662
  259MOL0     N34881   4.812   4.338   8.311  0.2861  0.2677 -0.1431
  259MOL0     N34882   4.878   4.263   8.399  0.6735 -0.0606 -0.3864
  259MOL0     C34883   5.999   3.772   8.109 -0.6251 -0.6158 -0.1308
  259MOL0     C34884   6.113   3.721   8.043  0.4009 -0.6856 -0.5977
  259MOL0     C34885   6.424   3.404   7.866 -0.5062 -0.1218  0.6621
  259MOL0     C34886   6.455   3.280   7.805 -0.5655 -0.7512 -0.6617
  259MOL0     C34887   6.572   3.251   7.744  0.6880  0.4549  0.6163
  259MOL0     C34888   6.654   3.350   7.702 -0.6645  0.6504 -0.5713
  259MOL0     O34889   6.758   3.314   7.622  0.8470 -0.5434  0.6911
  259MOL0     C34890   6.857   3.411   7.592 -0.2246  0.4056 -0.3388
  259MOL0     C34891   6.956   3.338   7.504 -0.6186 -0.2327 -0.2693
  259MOL0     C34892   7.007   3.213   7.579 -0.2775  0.7339 -0.5827
  259MOL0     C34893   7.130   3.154   7.521 -0.4550 -0.6379 -0.0052
  259MOL0     C34894   7.154   3.019   7.560 -0.4266  0.1894  0.0198
  259MOL0     C34895   7.161   2.910   7.604  0.2569  0.3990 -0.7033
  259MOL0     C34896   6.614   3.480   7.746  0.0284  0.0805  0.2196
  259MOL0     C34897   6.507   3.510   7.825 -0.2938 -0.2367 -0.4090
  259MOL0     H34898   6.103   3.403   8.138  2.2266  0.7746 -0.2008
  259MOL0     H34899   5.894   3.472   8.254  0.0067 -0.0061 -0.3353
  259MOL0     H34900   5.765   3.919   8.178 -2.7040  0.4031  0.6137
  259MOL0     H34901   5.690   3.781   8.093  0.2593 -0.4357 -1.0578
  259MOL0     H34902   5.566   3.716   8.298  1.4858 -0.4629 -2.0096
  259MOL0     H34903   5.632   3.861   8.384  2.0739  0.9389 -0.7556
  259MOL0     H34904   5.543   3.955   8.132 -0.7455  0.0569 -1.5910
  259MOL0     H34905   5.409   3.847   8.185 -1.0659  2.3509 -0.4772
  259MOL0     H34906   5.394   3.996   8.386  1.6472  1.0536  1.3254
  259MOL0     H34907   5.526   4.097   8.319 -1.2427  0.9158 -0.1998
  259MOL0     H34908   5.387   4.172   8.137  2.5899 -1.1632 -0.4804
  259MOL0     H34909   5.247   4.076   8.192  0.1534 -2.1657  4.6826
  259MOL0     H34910   5.379   4.307   8.340  1.0635 -1.3823 -2.0325
  259MOL0     H34911   5.232   4.313   8.248 -2.0423 -2.3789 -1.0505
  259MOL0     H34912   5.278   4.127   8.492 -2.7971 -0.5640  3.2101
  259MOL0     H34913   5.212   4.288   8.488  0.4578 -1.0504  0.8004
  259MOL0     H34914   5.044   4.082   8.500 -1.8173 -0.3566  1.0055
  259MOL0     H34915   5.100   4.031   8.347 -2.0896 -0.1806 -0.3664
  259MOL0     H34916   5.047   4.191   8.127  1.8512  3.0907  0.3142
  259MOL0     H34917   4.826   4.492   8.071 -0.4642 -0.1959  0.7260
  259MOL0     H34918   4.911   4.378   7.978  3.3584  1.4505  2.3567
  259MOL0     H34919   4.622   4.372   8.094  0.1207  0.5042 -0.1186
  259MOL0     H34920   4.696   4.219   8.064  1.4442  0.2270  0.3656
  259MOL0     H34921   4.743   4.284   7.822 -0.0787 -0.3083 -0.0003
  259MOL0     H34922   4.684   4.452   7.859  0.2633  1.0021  0.8330
  259MOL0     H34923   4.460   4.326   7.930 -0.0068 -0.4985  0.7299
  259MOL0     H34924   4.534   4.182   7.850 -2.2034  0.5970 -1.4050
  259MOL0     H34925   4.331   4.118   7.754 -0.6569  0.7963  0.7539
  259MOL0     H34926   4.225   3.858   7.537  1.7889 -0.6693  2.0250
  259MOL0     H34927   4.229   3.932   7.693 -5.0277  0.5525  0.5051
  259MOL0     H34928   4.132   4.005   7.563  0.4335  0.4413 -1.5858
  259MOL0     H34929   4.642   3.932   7.054 -1.9662 -0.5378  1.3618
  259MOL0     H34930   4.645   3.769   6.857 -0.4508  0.6509  0.7225
  259MOL0     H34931   4.218   3.565   6.724  0.8381 -1.2208 -0.6839
  259MOL0     H34932   4.262   3.723   6.644  2.9949  0.4825 -0.7785
  259MOL0     H34933   4.248   3.533   6.518 -0.9914  3.2285  0.8265
  259MOL0     H34934   4.419   3.592   6.506  2.2245 -0.1669  2.3949
  259MOL0     H34935   4.480   3.392   6.652  0.0312 -2.0393  1.6206
  259MOL0     H34936   4.394   3.369   6.489 -3.2489  2.7424 -1.7683
  259MOL0     H34937   4.251   3.360   6.755 -2.7252  0.6786 -1.5843
  259MOL0     H34938   4.179   3.334   6.604  0.8394  3.5857 -0.9334
  259MOL0     H34939   4.384   3.164   6.746 -0.9038 -0.7564  0.0762
  259MOL0     H34940   4.381   3.160   6.576  0.6149 -0.6361  0.8703
  259MOL0     H34941   4.142   3.117   6.765 -1.1521 -0.4701 -0.0856
  259MOL0     H34942   4.134   3.068   6.605 -0.9892  0.5829 -0.0111
  259MOL0     H34943   4.191   2.866   6.743 -1.2074  0.4744 -2.0445
  259MOL0     H34944   4.332   2.946   6.815  2.8052  0.3932 -1.7987
  259MOL0     H34945   4.433   2.801   6.641  0.4396  1.4000 -0.6551
  259MOL0     H34946   4.439   2.955   6.574  1.3980 -1.8340 -2.4439
  259MOL0     H34947   4.219   3.717   6.898 -0.5199 -1.0538 -0.1573
  259MOL0     H34948   4.222   3.883   7.076  0.1512  1.2895  1.4432
  259MOL0     H34949   4.523   4.205   7.308 -5.5731  2.0059 -1.7399
  259MOL0     H34950   4.567   4.361   7.493 -0.3437  0.1105 -0.4242
  259MOL0     H34951   5.991   3.879   8.091  1.1166 -0.7910 -2.3878
  259MOL0     H34952   6.164   3.782   7.970  0.3287 -0.2944 -0.3208
  259MOL0     H34953   6.403   3.188   7.830 -0.4705 -0.4145  0.8814
  259MOL0     H34954   6.594   3.149   7.712 -0.5524  0.3083  0.1826
  259MOL0     H34955   6.819   3.493   7.530  0.4830 -0.9974 -2.7802
  259MOL0     H34956   6.894   3.453   7.686  1.1581 -4.0781  1.4401
  259MOL0     H34957   7.031   3.408   7.469 -2.5243  0.7710 -2.5911
  259MOL0     H34958   6.908   3.290   7.418 -0.5803  0.7873 -0.8719
  259MOL0     H34959   6.928   3.140   7.595  0.3676  0.2770  0.6293
  259MOL0     H34960   7.034   3.256   7.676  2.4241  4.1510 -2.6252
  259MOL0     H34961   7.214   3.218   7.545 -2.3253  0.7289  3.7673
  259MOL0     H34962   7.112   3.158   7.413 -2.3747  1.1828  0.3173
  259MOL0     H34963   7.171   2.809   7.640  0.0587  0.5614 -0.1893
  259MOL0     H34964   6.689   3.553   7.718  0.5960 -0.3886  0.4905
  259MOL0     H34965   6.485   3.607   7.867  0.0279  0.4828 -1.8470
  260MOL0     O34966   0.179   7.899   0.236 -0.6881  0.1231  0.1755
  260MOL0     C34967   0.202   7.785   0.279  0.2463  0.2523  0.0257
  260MOL0     O34968   0.325   7.736   0.295 -0.5018 -0.5632 -0.4753
  260MOL0     C34969   0.430   7.825   0.262  0.1608 -0.4522 -0.2923
  260MOL0     C34970   0.521   7.872   0.359  0.8048 -0.3564 -0.2173
  260MOL0     C34971   0.627   7.936   0.317 -0.9326  0.1835 -1.0565
  260MOL0     C34972   0.665   7.959   0.186  0.3686 -0.1598  0.3674
  260MOL0     O34973   0.785   8.024   0.154  0.1979  0.0278  0.7713
  260MOL0     C34974   0.791   8.110   0.037  0.3475  0.3446 -0.4047
  260MOL0     C34975   0.911   8.212   0.032  1.0255  1.1832  0.5767
  260MOL0     C34976   1.043   8.155   0.014 -0.0505 -0.1684  0.1685
  260MOL0     C34977   1.141   8.264   0.003 -0.0695 -0.2247  0.7393
  260MOL0     C34978   1.280   8.208  -0.029  0.5516 -1.1234 -0.2653
  260MOL0     C34979   1.368   8.322  -0.056 -0.4022  0.4207 -0.1852
  260MOL0     C34980   1.510   8.295  -0.108  0.9879 -0.7945 -0.5155
  260MOL0     C34981   1.619   8.283   0.004 -0.9660  1.0054 -0.3474
  260MOL0     N34982   1.587   8.191   0.104  1.0222 -0.0246 -0.4923
  260MOL0     C34983   1.588   8.061   0.091 -0.9488  0.1370 -0.2329
  260MOL0     C34984   1.579   8.008   0.218  0.2165  0.2272 -0.8765
  260MOL0     C34985   1.579   7.864   0.274  0.6630  0.3190 -0.1249
  260MOL0     C34986   1.437   7.797   0.293 -0.4087  0.5075  0.9857
  260MOL0     C34987   1.382   7.845   0.432  0.3644  0.5096 -0.2943
  260MOL0     C34988   1.311   7.979   0.442  0.7356 -0.6664 -0.2749
  260MOL0     O34989   1.180   7.967   0.385  0.8230  0.9555 -0.2147
  260MOL0     C34990   1.076   7.957   0.470  0.4848 -0.1831 -0.2278
  260MOL0     C34991   0.996   7.847   0.459 -0.6511  0.9640  0.0261
  260MOL0     C34992   0.882   7.835   0.545  0.2680 -1.4822  0.1801
  260MOL0     C34993   0.792   7.719   0.521  0.0620 -1.0466  0.2058
  260MOL0     C34994   0.848   7.937   0.642 -0.0469  0.2349  0.2163
  260MOL0     C34995   0.737   7.934   0.732  0.1916 -0.2347 -0.1291
  260MOL0     O34996   0.685   8.055   0.768 -0.6852 -0.2531  0.1773
  260MOL0     C34997   0.620   8.061   0.884 -0.0225 -0.0286  0.0208
  260MOL0     C34998   0.680   8.125   0.999  0.8310 -0.0843 -0.2527
  260MOL0     C34999   0.607   8.132   1.118 -0.7605  0.1964  0.2170
  260MOL0     C35000   0.478   8.080   1.128 -0.9661  0.4537  0.4504
  260MOL0     O35001   0.408   8.095   1.246  0.8746  0.2745  0.6484
  260MOL0     C35002   0.318   7.994   1.282  0.8154 -1.0062 -0.3203
  260MOL0     C35003   0.277   8.028   1.425  0.7234  0.4827  0.2766
  260MOL0     C35004   0.229   7.896   1.488  0.1243  0.1595  0.6742
  260MOL0     C35005   0.123   7.825   1.423  0.9939 -0.7246 -0.3048
  260MOL0     C35006   0.072   7.692   1.495 -0.1075  0.0119 -1.4207
  260MOL0     C35007  -0.029   7.616   1.414 -0.6441  0.2102  0.4591
  260MOL0     C35008   0.056   7.539   1.297 -0.1387  0.2462  0.5693
  260MOL0     C35009   0.021   7.391   1.294  0.0654 -0.3796 -0.1449
  260MOL0    Cl35010  -0.130   7.362   1.192 -0.7696  0.2518  0.5183
  260MOL0     C35011   0.426   8.011   1.013  0.3036  0.4169  0.4288
  260MOL0     C35012   0.497   8.010   0.894 -1.3567  0.1972  0.8113
  260MOL0     O35013   0.713   7.828   0.795  0.6926  0.7435 -1.0604
  260MOL0     C35014   0.939   8.043   0.645 -0.3582 -0.7210  0.2907
  260MOL0     C35015   1.046   8.058   0.559 -0.1919 -0.4126 -0.0480
  260MOL0     N35016   1.585   8.118   0.307 -0.0601  0.3383  0.3126
  260MOL0     N35017   1.568   8.227   0.235  0.2004  0.1095 -0.7785
  260MOL0     C35018   0.582   7.906   0.088  0.4433 -0.3023 -0.3185
  260MOL0     C35019   0.463   7.844   0.125 -0.2821  0.6434  0.2801
  260MOL0     C35020   0.099   7.687   0.311  0.2067 -0.0611 -0.0852
  260MOL0     C35021   0.129   7.553   0.325 -0.3797 -0.0227 -0.7648
  260MOL0     C35022   0.030   7.460   0.355 -0.3375 -0.8462 -0.0051
  260MOL0     C35023  -0.109   7.500   0.348 -0.4414 -0.6260 -0.2436
  260MOL0     O35024  -0.208   7.409   0.358  1.5585  0.8180  0.5125
  260MOL0     C35025  -0.191   7.267   0.319 -0.3684 -0.2216  0.5382
  260MOL0     C35026  -0.299   7.158   0.334  0.6155  0.6592 -0.2769
  260MOL0     C35027  -0.438   7.191   0.272 -0.0475 -0.5246 -0.3894
  260MOL0     C35028  -0.522   7.063   0.258  0.2298  0.0272 -0.1452
  260MOL0     C35029  -0.659   7.085   0.213  1.3703  1.0161 -0.3060
  260MOL0     C35030  -0.775   7.110   0.170 -0.2259  0.0068 -0.5505
  260MOL0     C35031  -0.134   7.634   0.334  0.0800  0.8261 -0.1256
  260MOL0     C35032  -0.035   7.728   0.313 -0.0327  0.1278 -0.3079
  260MOL0     H35033   0.509   7.850   0.465  1.2062 -3.5200 -0.7369
  260MOL0     H35034   0.706   7.963   0.387 -1.3980  1.0306 -0.8348
  260MOL0     H35035   0.805   8.043  -0.048  1.9167  0.2576 -0.1140
  260MOL0     H35036   0.698   8.164   0.017  1.2452  2.4433  0.7299
  260MOL0     H35037   0.883   8.272  -0.055 -1.1826  1.7842  1.6421
  260MOL0     H35038   0.894   8.276   0.119 -1.0944  2.5690 -0.7554
  260MOL0     H35039   1.069   8.094   0.101 -0.1604 -1.4222 -0.6622
  260MOL0     H35040   1.060   8.099  -0.078  3.4053  0.2062  0.4762
  260MOL0     H35041   1.120   8.334  -0.079 -3.5557  0.4014  1.9887
  260MOL0     H35042   1.153   8.318   0.097  3.9718 -0.7736  0.6987
  260MOL0     H35043   1.302   8.132   0.046 -0.7945 -1.3090 -0.0313
  260MOL0     H35044   1.273   8.151  -0.122 -2.6589 -0.6342 -0.4401
  260MOL0     H35045   1.312   8.392  -0.118 -3.9959 -2.4733 -0.6037
  260MOL0     H35046   1.374   8.365   0.045 -1.4746 -1.5290  0.7839
  260MOL0     H35047   1.511   8.212  -0.180 -1.8491 -2.0105  0.6588
  260MOL0     H35048   1.545   8.380  -0.167 -2.8059  0.3623 -1.3648
  260MOL0     H35049   1.646   8.380   0.048 -0.4547  0.5177  0.4467
  260MOL0     H35050   1.713   8.251  -0.040 -0.7825  0.2915  0.5277
  260MOL0     H35051   1.588   7.997   0.003  2.1546  0.4933 -0.5817
  260MOL0     H35052   1.629   7.814   0.191 -0.0549  0.4639 -0.6468
  260MOL0     H35053   1.646   7.862   0.361  1.8701  0.3389 -1.0307
  260MOL0     H35054   1.453   7.689   0.299 -2.0078  0.3133  2.4811
  260MOL0     H35055   1.373   7.814   0.206 -0.3840 -0.9357  0.6598
  260MOL0     H35056   1.467   7.848   0.502 -1.6038  2.7188  2.2405
  260MOL0     H35057   1.314   7.770   0.473  0.2852  1.6867  1.9229
  260MOL0     H35058   1.363   8.055   0.383 -2.1486  0.0305 -2.1188
  260MOL0     H35059   1.300   8.015   0.545  0.5416 -0.7987 -0.2488
  260MOL0     H35060   1.010   7.769   0.386  2.1550  1.0307  0.3589
  260MOL0     H35061   0.693   7.735   0.565  1.6146  0.8968  3.3243
  260MOL0     H35062   0.770   7.711   0.414  4.0592  0.2096 -0.8766
  260MOL0     H35063   0.850   7.632   0.555  0.0180 -1.0680  0.2254
  260MOL0     H35064   0.783   8.157   0.990  1.0555 -0.0983  1.8462
  260MOL0     H35065   0.646   8.173   1.210 -0.0185  0.0868 -0.0413
  260MOL0     H35066   0.236   7.982   1.211  0.0430 -0.8040  0.5296
  260MOL0     H35067   0.374   7.900   1.285  2.9078  0.1721  2.7819
  260MOL0     H35068   0.350   8.067   1.496  0.5112 -0.9961  1.3385
  260MOL0     H35069   0.202   8.107   1.435  0.3004 -0.1045  2.1779
  260MOL0     H35070   0.182   7.912   1.585  0.7775  1.6358  0.7645
  260MOL0     H35071   0.310   7.822   1.497 -1.3669 -1.2961  3.4758
  260MOL0     H35072   0.039   7.895   1.414  0.1980 -1.7821 -1.3525
  260MOL0     H35073   0.146   7.796   1.320 -0.3200  1.7301 -1.3832
  260MOL0     H35074   0.024   7.727   1.587  1.4274  1.1663 -1.0236
  260MOL0     H35075   0.150   7.621   1.523 -0.4908 -0.0892 -0.5818
  260MOL0     H35076  -0.073   7.536   1.475 -1.3168  0.7363  0.6666
  260MOL0     H35077  -0.113   7.678   1.382  0.0838  2.5867  2.8434
  260MOL0     H35078   0.163   7.536   1.318  0.0447  3.5664  0.6226
  260MOL0     H35079   0.057   7.591   1.201 -3.0135  3.6368  2.1380
  260MOL0     H35080   0.011   7.335   1.388  2.2904  0.6790  0.7883
  260MOL0     H35081   0.101   7.338   1.242 -1.1614 -2.2930 -0.2211
  260MOL0     H35082   0.325   7.972   1.008  0.3343  0.3851 -0.0338
  260MOL0     H35083   0.450   7.955   0.813  0.2303  1.3440 -0.9702
  260MOL0     H35084   0.922   8.121   0.719 -0.6909  1.8262 -2.2887
  260MOL0     H35085   1.115   8.140   0.574 -1.9039  1.1751 -0.4758
  260MOL0     H35086   0.621   7.919  -0.013  2.3829 -1.2819  0.2572
  260MOL0     H35087   0.402   7.795   0.051 -1.5524  2.1186  0.2849
  260MOL0     H35088   0.230   7.514   0.315 -1.2247 -2.7299  0.3712
  260MOL0     H35089   0.063   7.358   0.372 -0.4868 -0.8003  0.5850
  260MOL0     H35090  -0.165   7.271   0.212 -0.2674  0.5115  0.5837
  260MOL0     H35091  -0.109   7.241   0.386  1.1444  1.9104 -0.3726
  260MOL0     H35092  -0.311   7.130   0.439 -0.4786  1.0985 -0.2752
  260MOL0     H35093  -0.263   7.068   0.283 -0.9796 -0.1363 -0.0451
  260MOL0     H35094  -0.423   7.239   0.175  1.8150  0.8215  0.5299
  260MOL0     H35095  -0.496   7.257   0.336 -1.2946 -0.9050 -1.0800
  260MOL0     H35096  -0.524   7.003   0.349 -0.1178 -1.1467 -0.9113
  260MOL0     H35097  -0.474   7.013   0.174  2.4352  0.9447  0.5158
  260MOL0     H35098  -0.867   7.149   0.133 -0.2298 -0.2068 -0.7671
  260MOL0     H35099  -0.236   7.672   0.342 -0.4315 -0.2917 -1.0082
  260MOL0     H35100  -0.068   7.831   0.301  1.6024  1.0190  2.0718
  261MOL0     O35101  11.388  11.268   1.139 -0.6181 -0.4534 -0.2789
  261MOL0     C35102  11.332  11.178   1.208  0.0868 -0.7371 -1.1429
  261MOL0     O35103  11.220  11.196   1.285 -0.0670 -0.3128  0.7023
  261MOL0     C35104  11.140  11.311   1.281 -0.8301  0.7134 -0.4786
  261MOL0     C35105  11.083  11.373   1.399  0.1663  0.7025  0.8387
  261MOL0     C35106  10.980  11.466   1.381 -0.1234 -0.0657 -0.1064
  261MOL0     C35107  10.938  11.505   1.254  0.0627 -0.6801  0.1533
  261MOL0     O35108  10.847  11.602   1.228  0.3511 -0.3511 -0.0955
  261MOL0     C35109  10.853  11.728   1.295 -0.1173 -0.1449  1.1599
  261MOL0     C35110  10.719  11.774   1.342  0.5790  0.1410 -1.0227
  261MOL0     C35111  10.641  11.820   1.225  0.7998 -0.0219 -0.5330
  261MOL0     C35112  10.497  11.873   1.260  0.0072  0.3962  0.7948
  261MOL0     C35113  10.441  11.952   1.132  0.4223  0.2459 -0.4818
  261MOL0     C35114  10.327  12.049   1.158  0.4102  0.0609 -0.9176
  261MOL0     C35115  10.277  12.147   1.056 -0.0579  0.3934  0.7298
  261MOL0     C35116  10.199  12.066   0.951  0.2627  0.6061  0.9471
  261MOL0     N35117  10.191  12.125   0.811  0.4758 -0.4016 -0.3845
  261MOL0     C35118  10.072  12.096   0.748  0.1156  0.2558  0.1280
  261MOL0     C35119  10.112  12.091   0.621  0.4668 -0.4728 -0.4762
  261MOL0     C35120  10.008  12.085   0.516  0.5406 -0.2870 -0.0486
  261MOL0     C35121  10.004  11.940   0.465 -0.3911 -0.7293  0.8034
  261MOL0     C35122   9.871  11.909   0.396  0.5682 -0.1650 -0.5673
  261MOL0     C35123   9.871  11.772   0.337  0.1042  0.1437 -0.2209
  261MOL0     O35124   9.749  11.744   0.257 -0.2369 -0.4209  0.2107
  261MOL0     C35125   9.710  11.827   0.149 -0.2262  0.5180 -0.1262
  261MOL0     C35126   9.571  11.838   0.132 -0.2596 -1.0601  0.4680
  261MOL0     C35127   9.521  11.935   0.047  0.8226  0.3387  0.6336
  261MOL0     C35128   9.370  11.932   0.043 -0.0941  0.4180  0.3429
  261MOL0     C35129   9.611  12.011  -0.026  0.0703 -0.0691  0.3437
  261MOL0     C35130   9.566  12.125  -0.118 -0.0858 -0.3224  0.0977
  261MOL0     O35131   9.666  12.178  -0.195 -0.1565  0.3024  0.3728
  261MOL0     C35132   9.638  12.251  -0.299  0.5636 -0.0608  0.1241
  261MOL0     C35133   9.582  12.377  -0.294 -0.7518 -0.2042 -0.3288
  261MOL0     C35134   9.548  12.441  -0.409  0.2798  0.1719  0.2825
  261MOL0     C35135   9.563  12.381  -0.538 -0.3105 -0.0818 -0.3228
  261MOL0     O35136   9.549  12.473  -0.640  0.0337  0.0715  0.1393
  261MOL0     C35137   9.494  12.409  -0.754 -0.3676  0.1589 -0.1163
  261MOL0     C35138   9.444  12.521  -0.848 -0.6174  0.5095  0.4446
  261MOL0     C35139   9.354  12.482  -0.961  0.4805  0.7066  0.3112
  261MOL0     C35140   9.318  12.598  -1.052  0.4472  0.1534  0.8594
  261MOL0     C35141   9.212  12.562  -1.169 -0.6725  0.0311 -0.8565
  261MOL0     C35142   9.165  12.687  -1.238 -0.9233  0.1767 -0.4287
  261MOL0     C35143   9.047  12.651  -1.326 -0.3329  0.6328  0.3834
  261MOL0     C35144   8.982  12.771  -1.408  0.5095  0.4539  0.4060
  261MOL0    Cl35145   8.931  12.911  -1.319  0.2811 -0.3173 -0.1448
  261MOL0     C35146   9.604  12.244  -0.537  0.1387 -0.2549 -0.1506
  261MOL0     C35147   9.639  12.183  -0.417  0.5413  0.5132 -0.2757
  261MOL0     O35148   9.443  12.133  -0.149 -0.5829  0.4015 -0.8081
  261MOL0     C35149   9.748  11.994  -0.013  0.0542  0.3215 -0.9746
  261MOL0     C35150   9.805  11.903   0.072  0.0064  0.0935  0.2503
  261MOL0     N35151  10.247  12.103   0.618 -0.4459  0.5436  0.1337
  261MOL0     N35152  10.294  12.118   0.736  0.1231 -0.3405  1.0831
  261MOL0     C35153  10.993  11.450   1.146  0.1193  0.8439  0.6503
  261MOL0     C35154  11.088  11.352   1.155  0.5481 -0.9372  0.9361
  261MOL0     C35155  11.409  11.050   1.216 -0.5117  0.3591  0.4062
  261MOL0     C35156  11.366  10.938   1.300 -0.1884 -0.1688 -0.6134
  261MOL0     C35157  11.452  10.833   1.314  1.2325  0.2339 -0.6781
  261MOL0     C35158  11.569  10.813   1.248  0.9724  0.5220 -0.0797
  261MOL0     O35159  11.632  10.692   1.274  0.1984 -0.0341  0.1854
  261MOL0     C35160  11.749  10.664   1.206  0.2330  0.1322  0.1967
  261MOL0     C35161  11.732  10.608   1.063 -0.5123 -0.4041  0.3498
  261MOL0     C35162  11.829  10.657   0.959 -0.4737 -1.1411  0.2337
  261MOL0     C35163  11.819  10.560   0.831  1.0231 -0.5614  0.4780
  261MOL0     C35164  11.684  10.519   0.781 -0.0542  0.6933 -0.3454
  261MOL0     C35165  11.568  10.481   0.746 -0.8504  0.2398 -0.4082
  261MOL0     C35166  11.603  10.910   1.152  0.7704  0.3276  0.6998
  261MOL0     C35167  11.523  11.031   1.133 -0.9915  1.0858 -0.0642
  261MOL0     H35168  11.113  11.341   1.498  2.3177 -1.0272 -0.3028
  261MOL0     H35169  10.930  11.513   1.465  1.4521 -2.1757  2.1583
  261MOL0     H35170  10.922  11.722   1.379  1.8088  0.7211 -0.2862
  261MOL0     H35171  10.884  11.802   1.220 -2.4731 -1.6487 -1.5221
  261MOL0     H35172  10.674  11.690   1.396  3.0722 -2.7388 -3.0338
  261MOL0     H35173  10.746  11.861   1.402 -1.2249  1.5360 -2.1568
  261MOL0     H35174  10.698  11.895   1.170 -3.2843  3.5670 -0.4231
  261MOL0     H35175  10.624  11.731   1.164 -2.5956  0.9106 -1.1442
  261MOL0     H35176  10.424  11.797   1.291  2.3244 -3.5095 -2.3063
  261MOL0     H35177  10.511  11.938   1.347 -2.1435  1.9905  0.0258
  261MOL0     H35178  10.529  12.002   1.091 -1.5029  2.3397 -2.3661
  261MOL0     H35179  10.400  11.882   1.059 -2.5746 -1.1965  2.3412
  261MOL0     H35180  10.251  11.977   1.192 -1.5305  0.4620 -3.9981
  261MOL0     H35181  10.356  12.102   1.249  2.5640 -1.4140 -0.6764
  261MOL0     H35182  10.222  12.218   1.119  1.8178  0.0729  2.9025
  261MOL0     H35183  10.354  12.213   1.014 -1.6718  0.5663 -2.1776
  261MOL0     H35184  10.098  12.044   0.988  0.1056 -0.3832 -0.0141
  261MOL0     H35185  10.241  11.965   0.944 -1.5885 -0.1824  0.5140
  261MOL0     H35186   9.966  12.100   0.769 -0.3517 -2.0023 -1.4270
  261MOL0     H35187   9.908  12.122   0.541  0.1363 -1.0734 -0.4816
  261MOL0     H35188  10.039  12.146   0.430 -0.1060  0.0633 -0.0392
  261MOL0     H35189  10.017  11.873   0.551 -2.4215  0.8558  2.4404
  261MOL0     H35190  10.087  11.923   0.396 -1.1808  1.0353 -0.6539
  261MOL0     H35191   9.831  11.993   0.339  1.8938  0.8993  0.0053
  261MOL0     H35192   9.802  11.906   0.481  1.8432  2.5778  0.7002
  261MOL0     H35193   9.876  11.694   0.413 -0.7118  0.4970  0.2105
  261MOL0     H35194   9.959  11.769   0.272  0.3290 -2.6575  0.0965
  261MOL0     H35195   9.507  11.783   0.200 -2.1002 -0.5080 -0.7632
  261MOL0     H35196   9.331  11.993   0.125  0.9259 -1.1339  2.0439
  261MOL0     H35197   9.333  11.962  -0.056 -0.5795 -0.6414  0.1961
  261MOL0     H35198   9.335  11.830   0.062 -1.8097  0.8945 -0.0794
  261MOL0     H35199   9.582  12.437  -0.204 -0.6534  0.4655 -0.7744
  261MOL0     H35200   9.510  12.542  -0.406 -0.5689 -0.0477 -1.5745
  261MOL0     H35201   9.572  12.350  -0.802  1.1301 -0.1976  2.5516
  261MOL0     H35202   9.416  12.339  -0.721  2.0320 -1.0453  3.7526
  261MOL0     H35203   9.390  12.584  -0.776 -0.1614  2.9339 -1.2120
  261MOL0     H35204   9.527  12.579  -0.889 -0.7524  1.4634  1.4764
  261MOL0     H35205   9.262  12.452  -0.909  1.6453  0.8554  2.5801
  261MOL0     H35206   9.398  12.402  -1.020 -0.0815  1.5585 -1.3264
  261MOL0     H35207   9.279  12.672  -0.982  2.4647  0.2458  1.9498
  261MOL0     H35208   9.409  12.641  -1.093 -1.5912  4.0874 -0.0565
  261MOL0     H35209   9.129  12.516  -1.114 -0.5171  2.0239  1.2341
  261MOL0     H35210   9.248  12.490  -1.242 -1.3059  0.4178 -1.5700
  261MOL0     H35211   9.141  12.773  -1.176  1.8414  2.1219 -1.8288
  261MOL0     H35212   9.252  12.715  -1.298  0.6567 -2.4732  0.4298
  261MOL0     H35213   8.967  12.601  -1.271  0.8863 -1.6788  0.1465
  261MOL0     H35214   9.075  12.573  -1.397 -3.3325 -0.7230  0.5346
  261MOL0     H35215   8.897  12.727  -1.461  0.5678  2.0104 -1.0519
  261MOL0     H35216   9.060  12.808  -1.475 -0.0722 -0.4060 -0.7567
  261MOL0     H35217   9.618  12.196  -0.633  3.6491 -3.2822  1.6281
  261MOL0     H35218   9.672  12.080  -0.427  0.7057  0.6239 -0.9718
  261MOL0     H35219   9.820  12.042  -0.079  1.1014 -3.0423 -2.5680
  261MOL0     H35220   9.911  11.904   0.091 -0.1196  0.4437  0.9652
  261MOL0     H35221  10.970  11.482   1.045  1.1201 -1.5487 -0.4121
  261MOL0     H35222  11.120  11.306   1.062 -0.3970  0.2415 -0.0036
  261MOL0     H35223  11.284  10.955   1.368 -0.5460 -0.1077 -1.0594
  261MOL0     H35224  11.420  10.759   1.387 -0.6037  0.3305 -1.3230
  261MOL0     H35225  11.801  10.761   1.202  0.1595  0.1444 -0.4811
  261MOL0     H35226  11.805  10.590   1.263  0.6196  1.5331  1.7398
  261MOL0     H35227  11.625  10.621   1.046 -1.0778 -1.7891  2.3909
  261MOL0     H35228  11.752  10.500   1.064  2.2135  0.0297  0.7609
  261MOL0     H35229  11.932  10.664   0.994 -0.5784  1.1117  0.2044
  261MOL0     H35230  11.800  10.750   0.910  2.5532 -1.9780 -3.6118
  261MOL0     H35231  11.879  10.473   0.859 -1.6008 -2.4674  0.5249
  261MOL0     H35232  11.872  10.607   0.748 -2.9022 -2.3329 -3.4066
  261MOL0     H35233  11.482  10.434   0.703 -0.1106 -1.2252 -0.3196
  261MOL0     H35234  11.693  10.893   1.093 -0.5784 -0.8784 -1.1493
  261MOL0     H35235  11.558  11.096   1.054  1.1805 -0.2920 -0.3220
  262MOL0     O35236   2.307   6.934   9.887  0.8242  0.6599  0.0077
  262MOL0     C35237   2.213   6.908   9.808  0.3301 -0.1166 -0.6165
  262MOL0     O35238   2.132   7.003   9.752 -0.0680 -0.1844  0.0755
  262MOL0     C35239   2.149   7.142   9.787  0.4456  0.6485 -0.4752
  262MOL0     C35240   2.273   7.209   9.777  1.3268  0.4965 -0.2540
  262MOL0     C35241   2.282   7.341   9.814 -0.3094  0.5365 -1.3662
  262MOL0     C35242   2.171   7.420   9.842 -0.5029 -0.2888 -0.4745
  262MOL0     O35243   2.194   7.561   9.855  0.2906 -0.3804  0.4022
  262MOL0     C35244   2.074   7.637   9.871 -1.0044  0.5114  0.3785
  262MOL0     C35245   2.111   7.796   9.857 -0.7697  1.0401 -0.1200
  262MOL0     C35246   1.997   7.894   9.854 -1.0731 -0.0909  0.5132
  262MOL0     C35247   1.865   7.842   9.905  0.6463  0.2210 -0.2425
  262MOL0     C35248   1.753   7.947   9.902  0.1143 -1.0474  0.8171
  262MOL0     C35249   1.616   7.897   9.952  0.0784 -0.4239  0.1068
  262MOL0     C35250   1.488   7.976   9.928 -0.2486  0.5480 -0.1771
  262MOL0     C35251   1.488   8.101  10.015 -0.0252 -0.0211  0.1457
  262MOL0     N35252   1.377   8.191  10.007  0.5728 -0.3193  0.3620
  262MOL0     C35253   1.243   8.157  10.002 -0.1692 -0.2809 -0.5350
  262MOL0     C35254   1.178   8.270   9.962 -0.2571 -0.5140 -0.2185
  262MOL0     C35255   1.025   8.293   9.965 -0.8375  1.0149  0.4063
  262MOL0     C35256   0.975   8.385  10.073 -0.4678 -0.6730 -0.2556
  262MOL0     C35257   0.968   8.325  10.213 -0.1493  0.4269  1.3659
  262MOL0     C35258   0.899   8.421  10.300  0.6574  0.2475 -0.1411
  262MOL0     O35259   0.829   8.366  10.415 -0.0447 -0.5580 -0.0613
  262MOL0     C35260   0.697   8.341  10.373  0.1452  0.5020 -0.5749
  262MOL0     C35261   0.618   8.442  10.319 -0.9234 -0.9221 -0.3625
  262MOL0     C35262   0.494   8.419  10.259  0.4296  1.2156  0.5970
  262MOL0     C35263   0.431   8.535  10.197 -0.1114 -0.2923  0.4852
  262MOL0     C35264   0.447   8.284  10.260 -0.1205  0.3287  0.4384
  262MOL0     C35265   0.303   8.251  10.207 -0.7626 -0.6801 -0.2845
  262MOL0     O35266   0.281   8.110  10.190 -0.1977  0.0197 -0.9916
  262MOL0     C35267   0.170   8.078  10.119  1.7916  0.0646 -0.0109
  262MOL0     C35268   0.069   8.008  10.186  1.2731 -0.2805  0.0978
  262MOL0     C35269  -0.042   7.967  10.114  0.9853 -0.4549  0.0500
  262MOL0     C35270  -0.060   7.995   9.981  0.5945  0.8258  0.4486
  262MOL0     O35271  -0.177   7.966   9.914 -0.4325  0.0527  0.7498
  262MOL0     C35272  -0.231   7.832   9.918  0.2639 -0.0179 -0.0853
  262MOL0     C35273  -0.170   7.737   9.809  0.7062 -0.4294 -0.0044
  262MOL0     C35274  -0.181   7.770   9.660  0.8522 -0.0356 -0.5463
  262MOL0     C35275  -0.239   7.904   9.609 -0.0273 -0.0538 -0.6339
  262MOL0     C35276  -0.272   7.902   9.463  0.3616  0.7375  0.0923
  262MOL0     C35277  -0.352   8.024   9.407  0.1323  0.2029  0.0048
  262MOL0     C35278  -0.401   8.007   9.259  0.5799  0.4887  0.8485
  262MOL0     C35279  -0.289   8.009   9.147 -0.2626  0.4829 -0.7248
  262MOL0    Cl35280  -0.368   7.983   8.993 -0.2684 -0.2661  0.5427
  262MOL0     C35281   0.037   8.072   9.910 -0.3217  0.5964 -0.2670
  262MOL0     C35282   0.146   8.118   9.984  0.4610  0.4084  1.0136
  262MOL0     O35283   0.212   8.340  10.197  0.1333  0.3767  0.4789
  262MOL0     C35284   0.518   8.178  10.313 -0.1871  0.6713 -0.2991
  262MOL0     C35285   0.644   8.213  10.367 -0.3779 -0.4627 -1.1815
  262MOL0     N35286   1.275   8.375   9.946  1.1153  0.3799 -0.7078
  262MOL0     N35287   1.395   8.320   9.968 -1.6709 -0.6882  0.0652
  262MOL0     C35288   2.046   7.349   9.842  0.1502  1.3007  0.2671
  262MOL0     C35289   2.035   7.212   9.816  0.2597  1.1984  1.0074
  262MOL0     C35290   2.184   6.762   9.774 -0.4326  0.0096 -0.2169
  262MOL0     C35291   2.070   6.713   9.712 -0.7704 -1.3394 -0.2877
  262MOL0     C35292   2.053   6.587   9.673  1.1744  0.1300 -0.1880
  262MOL0     C35293   2.149   6.493   9.698 -1.1666 -0.1889  0.7490
  262MOL0     O35294   2.131   6.367   9.651 -0.1256 -0.3780  0.1821
  262MOL0     C35295   2.232   6.267   9.648  0.8455  0.6010 -0.1742
  262MOL0     C35296   2.188   6.151   9.732 -0.0302  0.9476 -0.0126
  262MOL0     C35297   2.044   6.101   9.705  0.2131 -0.1030  0.1747
  262MOL0     C35298   2.003   5.966   9.760 -0.0028 -1.2771 -0.3866
  262MOL0     C35299   2.021   5.963   9.906  0.6663  0.1598  0.8256
  262MOL0     C35300   2.047   5.951  10.025  0.2637 -1.3139 -0.3983
  262MOL0     C35301   2.269   6.539   9.763  0.5201  0.2776  0.1550
  262MOL0     C35302   2.284   6.670   9.808 -1.0189  0.3261 -0.4896
  262MOL0     H35303   2.365   7.158   9.751  1.2932 -0.2876  1.0847
  262MOL0     H35304   2.373   7.402   9.815 -0.5842  0.9498 -0.2088
  262MOL0     H35305   2.010   7.617   9.785 -1.7999 -0.4185  1.1622
  262MOL0     H35306   2.022   7.609   9.963  0.1370 -3.0522  0.0795
  262MOL0     H35307   2.181   7.829   9.933  0.7194 -3.1888  0.6356
  262MOL0     H35308   2.171   7.807   9.766  1.7276  4.9202  1.7754
  262MOL0     H35309   2.034   7.969   9.925 -2.0647 -0.8150  1.8441
  262MOL0     H35310   1.978   7.940   9.757 -0.0514  1.5358  1.0345
  262MOL0     H35311   1.832   7.767   9.833 -0.1226  2.0654 -1.9108
  262MOL0     H35312   1.878   7.787   9.998 -0.5077 -1.1990 -0.8743
  262MOL0     H35313   1.791   8.025   9.968 -0.0929 -0.8096  0.6567
  262MOL0     H35314   1.733   7.996   9.807  3.2591 -1.7263 -0.3125
  262MOL0     H35315   1.599   7.802   9.900 -0.0845 -0.1060 -0.4271
  262MOL0     H35316   1.630   7.869  10.057  1.3556 -0.2225  0.0065
  262MOL0     H35317   1.493   8.004   9.822  0.6057  0.3588 -0.1937
  262MOL0     H35318   1.404   7.907   9.941 -0.7989  0.9955 -1.2109
  262MOL0     H35319   1.580   8.156   9.993  0.9156 -1.0835  1.2465
  262MOL0     H35320   1.499   8.069  10.119 -1.1543 -0.4487  0.1440
  262MOL0     H35321   1.204   8.063  10.041  0.6978 -0.8984 -1.1056
  262MOL0     H35322   1.008   8.324   9.861  2.6237  1.8449 -0.0290
  262MOL0     H35323   0.980   8.195   9.983 -0.7196  1.1762  1.6878
  262MOL0     H35324   0.875   8.420  10.047 -1.3910 -3.0254 -0.0728
  262MOL0     H35325   1.047   8.468  10.077 -0.8600 -0.3838  1.0186
  262MOL0     H35326   1.071   8.317  10.248  0.2552  0.1384  0.1509
  262MOL0     H35327   0.922   8.225  10.213 -0.6889  0.4764 -3.1201
  262MOL0     H35328   0.840   8.496  10.247  1.3681  2.1396  1.6062
  262MOL0     H35329   0.986   8.473  10.341  2.7322 -3.8356  1.2663
  262MOL0     H35330   0.656   8.543  10.328 -3.9625  0.1794  2.3281
  262MOL0     H35331   0.494   8.625  10.194  0.8453 -0.8904  1.9364
  262MOL0     H35332   0.413   8.507  10.093 -0.3297 -0.2294  0.5047
  262MOL0     H35333   0.330   8.563  10.230  0.0500  0.4713  0.3508
  262MOL0     H35334   0.076   7.988  10.292 -0.4755 -0.1862  0.2612
  262MOL0     H35335  -0.129   7.922  10.163  1.0964 -4.9827 -3.2703
  262MOL0     H35336  -0.196   7.790  10.013 -0.7304  1.5956  1.0633
  262MOL0     H35337  -0.340   7.829   9.912  0.0839  1.4977  1.3439
  262MOL0     H35338  -0.064   7.722   9.832  0.4296 -0.9519  0.9993
  262MOL0     H35339  -0.214   7.638   9.826 -1.9768  0.6101 -0.4005
  262MOL0     H35340  -0.261   7.701   9.631 -1.9649  2.9966 -0.5687
  262MOL0     H35341  -0.095   7.742   9.598  1.6702 -3.8428  1.9565
  262MOL0     H35342  -0.330   7.920   9.667 -0.7528 -5.5464  0.2387
  262MOL0     H35343  -0.161   7.977   9.635  1.3252 -2.3660  2.3603
  262MOL0     H35344  -0.332   7.811   9.460  1.1359  0.1811  0.9904
  262MOL0     H35345  -0.183   7.894   9.399 -1.0078  2.0785 -2.1339
  262MOL0     H35346  -0.430   8.041   9.482  1.7571 -1.2321  2.1333
  262MOL0     H35347  -0.289   8.114   9.406 -1.7190  1.5552 -0.0504
  262MOL0     H35348  -0.463   8.092   9.231  1.6066  1.1596  0.5730
  262MOL0     H35349  -0.464   7.917   9.255  2.1658 -0.6898  1.3720
  262MOL0     H35350  -0.208   7.938   9.162  2.6279  3.8595  1.2096
  262MOL0     H35351  -0.248   8.109   9.165  0.7863 -0.1987  0.9021
  262MOL0     H35352   0.038   8.089   9.803  1.3749  1.2790 -0.1734
  262MOL0     H35353   0.221   8.183   9.940  1.5466 -0.0835  2.1072
  262MOL0     H35354   0.478   8.077  10.317  1.3049  0.0312 -0.7858
  262MOL0     H35355   0.702   8.126  10.396 -0.2082 -0.7441 -2.2918
  262MOL0     H35356   1.954   7.406   9.839  0.3607  1.6117 -1.0320
  262MOL0     H35357   1.937   7.166   9.827  1.0557 -0.4576  1.4684
  262MOL0     H35358   2.007   6.795   9.679  2.3554  2.2054  1.7544
  262MOL0     H35359   1.965   6.556   9.618  0.5455  2.3617 -0.5243
  262MOL0     H35360   2.250   6.232   9.546  2.0808  0.0201  0.2217
  262MOL0     H35361   2.324   6.305   9.693  0.7259 -0.1734  0.7669
  262MOL0     H35362   2.190   6.183   9.837 -0.1975 -1.4887  0.8036
  262MOL0     H35363   2.277   6.086   9.727  2.0912  3.5925  0.8766
  262MOL0     H35364   2.028   6.085   9.598  0.5365 -1.9540  0.3677
  262MOL0     H35365   1.973   6.173   9.746  0.1421 -1.0612  1.8303
  262MOL0     H35366   2.074   5.895   9.715  0.9130 -0.0420 -0.9513
  262MOL0     H35367   1.898   5.949   9.737 -0.4697 -2.4225  2.2500
  262MOL0     H35368   2.062   5.951  10.131 -1.5036 -0.5084 -0.1078
  262MOL0     H35369   2.349   6.469   9.786 -0.2764 -0.0549  2.0342
  262MOL0     H35370   2.368   6.704   9.867  0.0334  0.0230 -1.7527
  263MOL0     O35371  11.189   0.162  10.312 -0.1743  0.1537 -0.1435
  263MOL0     C35372  11.201   0.231  10.411 -0.1320  0.5214 -1.0280
  263MOL0     O35373  11.104   0.255  10.512 -0.1819  0.7180  0.1657
  263MOL0     C35374  10.973   0.229  10.483 -0.2711  0.6338  0.1869
  263MOL0     C35375  10.908   0.225  10.357  0.0134 -0.5238 -1.2983
  263MOL0     C35376  10.775   0.170  10.354 -0.1836 -0.9497  0.9274
  263MOL0     C35377  10.699   0.119  10.455 -0.9186 -0.4720  0.4907
  263MOL0     O35378  10.577   0.050  10.436 -0.4495 -0.2669  0.1184
  263MOL0     C35379  10.485   0.041  10.546 -0.2388  0.4268 -0.3268
  263MOL0     C35380  10.392   0.153  10.577 -0.4284 -0.0161  0.8939
  263MOL0     C35381  10.343   0.219  10.446  0.6143  0.0605  0.2874
  263MOL0     C35382  10.232   0.328  10.468  0.6275  0.2228 -0.1164
  263MOL0     C35383  10.097   0.269  10.523  0.0419  1.1140  1.3132
  263MOL0     C35384  10.057   0.144  10.448  0.7162 -0.2765  0.5295
  263MOL0     C35385   9.908   0.120  10.453  0.8482 -0.7471 -0.6681
  263MOL0     C35386   9.873  -0.019  10.393 -0.3051 -0.2740 -0.5978
  263MOL0     N35387   9.733  -0.045  10.416  0.1924 -0.1498 -0.5727
  263MOL0     C35388   9.670  -0.037  10.529 -0.3010  0.1914 -0.4207
  263MOL0     C35389   9.541  -0.063  10.499  0.3002 -1.1519 -0.3645
  263MOL0     C35390   9.439  -0.087  10.604  0.3334 -1.7781  1.0437
  263MOL0     C35391   9.327  -0.175  10.565  0.2731 -0.1753 -0.0770
  263MOL0     C35392   9.195  -0.151  10.642  0.3251 -0.2958  0.4645
  263MOL0     C35393   9.106  -0.270  10.629 -0.0685 -0.3409 -0.9017
  263MOL0     O35394   9.083  -0.306  10.494  0.0581 -0.0481 -0.2712
  263MOL0     C35395   8.994  -0.408  10.476  0.0826 -0.3461  0.6673
  263MOL0     C35396   8.920  -0.483  10.573 -0.0449 -0.6357  0.6405
  263MOL0     C35397   8.845  -0.597  10.535 -0.4336 -0.4806 -0.5139
  263MOL0     C35398   8.803  -0.682  10.648 -0.2080 -0.0676  0.3993
  263MOL0     C35399   8.823  -0.617  10.403 -0.1987  0.1521 -0.2749
  263MOL0     C35400   8.733  -0.717  10.360  0.2878  0.6382  1.0509
  263MOL0     O35401   8.771  -0.787  10.246  0.4090  0.0936 -0.4897
  263MOL0     C35402   8.683  -0.873  10.180 -0.9213  0.2373 -0.5184
  263MOL0     C35403   8.543  -0.876  10.203 -0.1787 -0.4778 -0.6224
  263MOL0     C35404   8.466  -0.989  10.160 -0.5969  0.4600 -0.1318
  263MOL0     C35405   8.530  -1.088  10.083 -0.1823 -0.0361  0.2840
  263MOL0     O35406   8.477  -1.207  10.037 -0.1238  0.1045 -0.2600
  263MOL0     C35407   8.342  -1.195  10.015 -0.2725 -0.7521  0.2855
  263MOL0     C35408   8.281  -1.303   9.935 -0.3200  0.3287  0.5431
  263MOL0     C35409   8.131  -1.316   9.925 -1.0870  0.0048 -0.5787
  263MOL0     C35410   8.080  -1.425   9.827 -0.0683  1.4648 -0.6623
  263MOL0     C35411   7.925  -1.449   9.825 -0.5703 -0.3740 -0.5869
  263MOL0     C35412   7.880  -1.542   9.932 -0.3997  0.4743  0.7459
  263MOL0     C35413   7.741  -1.591   9.909  0.3686  0.5946  0.1865
  263MOL0     C35414   7.681  -1.695  10.010  0.1222  0.2853 -0.0331
  263MOL0    Cl35415   7.713  -1.652  10.182  0.0601 -0.0338 -0.0151
  263MOL0     C35416   8.670  -1.075  10.044 -0.3754  0.9036  0.2736
  263MOL0     C35417   8.742  -0.971  10.095  0.4264 -0.5204  0.2952
  263MOL0     O35418   8.626  -0.724  10.418 -0.1994 -1.3099  0.2541
  263MOL0     C35419   8.886  -0.535  10.305 -0.2475 -1.1257 -0.3759
  263MOL0     C35420   8.970  -0.431  10.342  0.6493 -1.1144 -0.3412
  263MOL0     N35421   9.538  -0.076  10.357 -1.0232  1.0228 -0.2784
  263MOL0     N35422   9.656  -0.078  10.316 -0.5757  0.5098  0.3008
  263MOL0     C35423  10.762   0.129  10.581 -0.5300  0.8294  0.6302
  263MOL0     C35424  10.901   0.180  10.590 -0.8930  0.3556 -0.0199
  263MOL0     C35425  11.341   0.280  10.454  0.3328  0.2159  0.2741
  263MOL0     C35426  11.381   0.341  10.577  0.0305  0.5684 -0.5178
  263MOL0     C35427  11.508   0.388  10.608 -0.6729 -0.2083 -0.4930
  263MOL0     C35428  11.605   0.370  10.516  0.3764  0.2500  1.3441
  263MOL0     O35429  11.739   0.411  10.538 -0.3258 -0.0053  0.0455
  263MOL0     C35430  11.766   0.504  10.651  0.0697 -0.1133  0.0697
  263MOL0     C35431  11.901   0.577  10.653  0.5500 -0.4096  0.4886
  263MOL0     C35432  11.942   0.643  10.517  0.1289 -0.0440  0.5174
  263MOL0     C35433  12.070   0.729  10.540  0.4051  0.4469 -0.7137
  263MOL0     C35434  12.141   0.758  10.417 -0.0832  0.6685 -0.0115
  263MOL0     C35435  12.208   0.777  10.316  0.2745  0.5203  0.1976
  263MOL0     C35436  11.583   0.315  10.392  0.3508  0.7985 -0.8198
  263MOL0     C35437  11.450   0.278  10.356  1.2333  0.2478 -0.6357
  263MOL0     H35438  10.963   0.246  10.266  0.7205  1.1428 -0.5287
  263MOL0     H35439  10.734   0.161  10.254 -0.8629 -0.8309  1.1923
  263MOL0     H35440  10.425  -0.041  10.505  2.2856 -1.7450  0.0017
  263MOL0     H35441  10.535   0.001  10.635  4.2717  1.2882 -2.2169
  263MOL0     H35442  10.304   0.121  10.634  0.5536 -0.2766  2.3061
  263MOL0     H35443  10.439   0.234  10.632  0.9276  0.4527 -0.8549
  263MOL0     H35444  10.438   0.259  10.408  1.1112  0.0308  1.4706
  263MOL0     H35445  10.310   0.143  10.375  1.8412 -1.1992  1.0174
  263MOL0     H35446  10.267   0.391  10.550 -0.3586  2.2235 -1.1599
  263MOL0     H35447  10.204   0.384  10.378 -0.3396  2.5609  1.5625
  263MOL0     H35448  10.088   0.246  10.629 -0.0038 -2.5097  0.6584
  263MOL0     H35449  10.021   0.346  10.503  2.1005  2.7078 -1.0335
  263MOL0     H35450  10.082   0.154  10.342 -1.9992  0.5043 -0.1178
  263MOL0     H35451  10.110   0.057  10.488 -0.1118 -0.2105  1.8186
  263MOL0     H35452   9.881   0.118  10.559 -1.2115 -0.8440 -1.1573
  263MOL0     H35453   9.848   0.198  10.406 -0.7400 -1.1910  0.5302
  263MOL0     H35454   9.934  -0.100  10.434  3.1830  2.4953  0.2534
  263MOL0     H35455   9.894  -0.020  10.285  3.4205 -3.2591 -0.0728
  263MOL0     H35456   9.708  -0.014  10.628 -2.5117 -1.9268  1.0334
  263MOL0     H35457   9.496  -0.129  10.688  1.2733  1.9843  2.5126
  263MOL0     H35458   9.397   0.007  10.642  0.2318 -2.1980  1.9963
  263MOL0     H35459   9.341  -0.283  10.579 -0.5864 -0.3777 -0.7011
  263MOL0     H35460   9.308  -0.161  10.459  0.2092  3.5121  0.2890
  263MOL0     H35461   9.145  -0.064  10.598  1.3383  0.2973  0.4387
  263MOL0     H35462   9.209  -0.132  10.749 -0.8385 -2.0801  0.9713
  263MOL0     H35463   9.019  -0.238  10.687  2.4252 -0.8631  3.6556
  263MOL0     H35464   9.146  -0.355  10.685  2.3572  0.7150 -0.9210
  263MOL0     H35465   8.928  -0.465  10.680  2.7050 -1.9622  0.7372
  263MOL0     H35466   8.854  -0.670  10.744  0.7512 -0.3482 -0.0630
  263MOL0     H35467   8.697  -0.675  10.676 -0.2523  0.7715  0.0609
  263MOL0     H35468   8.831  -0.783  10.616  1.5464 -0.0722  1.7689
  263MOL0     H35469   8.492  -0.796  10.255 -0.1793 -1.8442  1.6019
  263MOL0     H35470   8.359  -0.998  10.178 -1.3585  0.5782 -3.8219
  263MOL0     H35471   8.301  -1.198  10.116 -0.4665  3.7918  0.5401
  263MOL0     H35472   8.293  -1.108   9.970 -1.6293 -1.9131 -0.5625
  263MOL0     H35473   8.313  -1.291   9.831  1.1887  1.8631  1.1381
  263MOL0     H35474   8.333  -1.395   9.964 -0.0499  0.3519  0.1474
  263MOL0     H35475   8.092  -1.218   9.896  1.6342  1.3531  0.0633
  263MOL0     H35476   8.092  -1.334  10.025 -1.1928 -0.8392 -0.7622
  263MOL0     H35477   8.106  -1.379   9.731  2.3795  0.0952 -0.7292
  263MOL0     H35478   8.140  -1.515   9.836  0.6807  2.0147  0.0527
  263MOL0     H35479   7.888  -1.482   9.727 -3.0592  1.1183 -0.2435
  263MOL0     H35480   7.875  -1.354   9.849 -0.8648 -0.9926  1.4420
  263MOL0     H35481   7.944  -1.630   9.939 -1.1382  0.0131  2.2887
  263MOL0     H35482   7.880  -1.480  10.023  1.9269  1.0404  0.4113
  263MOL0     H35483   7.725  -1.642   9.814  0.0592  1.2100 -0.0908
  263MOL0     H35484   7.678  -1.502   9.909 -0.8397 -0.1323 -3.0920
  263MOL0     H35485   7.725  -1.794   9.996 -1.4051 -0.1894 -1.8188
  263MOL0     H35486   7.575  -1.713   9.990  0.3065  1.6937 -2.6711
  263MOL0     H35487   8.711  -1.145   9.972  0.4978 -0.6777  2.2454
  263MOL0     H35488   8.848  -0.969  10.071  0.3636 -0.4075  0.0296
  263MOL0     H35489   8.884  -0.560  10.199  0.0816  1.8885 -1.1796
  263MOL0     H35490   9.026  -0.380  10.264  1.6418 -2.3548 -0.4790
  263MOL0     H35491  10.714   0.091  10.670  0.7387  1.7093  1.7330
  263MOL0     H35492  10.945   0.175  10.689 -2.4900 -1.5516  0.6479
  263MOL0     H35493  11.320   0.335  10.667  0.0854 -2.2792 -0.5880
  263MOL0     H35494  11.518   0.428  10.708  4.9520 -2.4051  0.1863
  263MOL0     H35495  11.692   0.584  10.655  1.5749  1.2873  1.6394
  263MOL0     H35496  11.765   0.439  10.739  1.1492 -2.7310 -1.7267
  263MOL0     H35497  11.976   0.501  10.677  1.7144  0.8215  0.8278
  263MOL0     H35498  11.902   0.657  10.727  0.6185  1.3447 -1.3162
  263MOL0     H35499  11.862   0.706  10.476  2.5795  2.3562 -0.8590
  263MOL0     H35500  11.953   0.559  10.447 -4.6295 -0.0692 -0.5346
  263MOL0     H35501  12.133   0.669  10.608 -0.5582  0.0911 -0.1181
  263MOL0     H35502  12.042   0.821  10.593 -2.4373  1.0309 -3.0325
  263MOL0     H35503  12.276   0.777  10.233  0.7452  2.8103  0.5096
  263MOL0     H35504  11.666   0.315  10.321  0.3582  3.7527 -0.9483
  263MOL0     H35505  11.417   0.235  10.262  0.8860  0.1268 -0.4606
  264MOL0     O35506   0.698   5.304   4.298  0.0272  0.3673  0.5435
  264MOL0     C35507   0.629   5.362   4.208 -0.1620  0.2024 -0.5553
  264MOL0     O35508   0.544   5.302   4.118 -0.0241 -0.1599 -0.2982
  264MOL0     C35509   0.497   5.174   4.125  0.6565  0.1358  0.0365
  264MOL0     C35510   0.442   5.125   4.006 -0.3979  0.1131  0.9110
  264MOL0     C35511   0.399   4.992   4.002  0.2729 -0.1732  0.2326
  264MOL0     C35512   0.406   4.907   4.113 -0.1717 -0.8557 -0.3021
  264MOL0     O35513   0.362   4.781   4.113 -0.1311  0.5967  0.1956
  264MOL0     C35514   0.456   4.696   4.062 -0.1950 -0.7048 -0.6199
  264MOL0     C35515   0.382   4.573   4.010 -0.2267  0.0201 -0.3608
  264MOL0     C35516   0.497   4.478   3.942 -0.3152 -0.1935  0.8186
  264MOL0     C35517   0.438   4.341   3.898  0.4135  0.5796 -0.8688
  264MOL0     C35518   0.545   4.230   3.871 -0.1555 -0.3341  0.2547
  264MOL0     C35519   0.483   4.103   3.815  0.0306  0.4580 -0.6190
  264MOL0     C35520   0.589   4.014   3.747  0.6469  0.7069 -0.6479
  264MOL0     C35521   0.640   3.913   3.853 -0.2603  0.1961 -0.5437
  264MOL0     N35522   0.726   3.812   3.787  0.2154 -0.3744 -0.6846
  264MOL0     C35523   0.673   3.697   3.722  0.6539 -0.6113 -0.3450
  264MOL0     C35524   0.767   3.663   3.635 -0.2371 -0.3269  0.0914
  264MOL0     C35525   0.750   3.541   3.556 -0.9550  0.1823 -0.6738
  264MOL0     C35526   0.636   3.550   3.457 -0.1113  0.7804  0.0940
  264MOL0     C35527   0.624   3.675   3.371 -0.7733  0.7564 -0.5380
  264MOL0     C35528   0.511   3.651   3.266  0.2054  0.0634  0.5629
  264MOL0     O35529   0.518   3.760   3.167 -0.3452  0.3024  0.5744
  264MOL0     C35530   0.436   3.762   3.060  0.2662 -0.9225  0.0591
  264MOL0     C35531   0.342   3.663   3.009 -0.6096  1.0879  0.4257
  264MOL0     C35532   0.255   3.683   2.898 -1.5547  0.4468 -0.0963
  264MOL0     C35533   0.181   3.564   2.835  0.5161  0.4152 -0.1255
  264MOL0     C35534   0.272   3.809   2.825 -0.4679  0.0761  0.0286
  264MOL0     C35535   0.192   3.848   2.708 -0.0437  0.2542  0.2428
  264MOL0     O35536   0.245   3.934   2.621  0.2764  0.6285 -0.2561
  264MOL0     C35537   0.192   3.953   2.497  0.2753  1.2414  0.7548
  264MOL0     C35538   0.102   3.870   2.427 -0.3028  0.1283 -0.4234
  264MOL0     C35539   0.049   3.892   2.304  0.4528 -0.1655  0.7466
  264MOL0     C35540   0.086   4.008   2.238 -0.1687  0.3745 -0.3502
  264MOL0     O35541   0.020   4.036   2.125 -0.3301 -0.2539 -0.1509
  264MOL0     C35542   0.041   4.159   2.057  0.5334 -0.2530  0.8724
  264MOL0     C35543  -0.050   4.187   1.933 -0.0379  0.3519 -0.4085
  264MOL0     C35544  -0.193   4.132   1.925  0.1377 -0.1170  0.2969
  264MOL0     C35545  -0.302   4.203   2.011 -0.1332  0.4516  0.0029
  264MOL0     C35546  -0.442   4.169   1.957  0.5104 -0.4934  0.9784
  264MOL0     C35547  -0.551   4.254   2.033  0.2814  0.0499 -0.5801
  264MOL0     C35548  -0.657   4.302   1.937 -0.6687  0.3689 -0.1143
  264MOL0     C35549  -0.785   4.336   2.007  0.6443 -0.9766  0.4311
  264MOL0    Cl35550  -0.906   4.399   1.892  0.2840 -0.3911 -0.0777
  264MOL0     C35551   0.188   4.091   2.293  0.0843  0.5270  0.2473
  264MOL0     C35552   0.242   4.060   2.418 -0.8380 -0.3293 -0.0527
  264MOL0     O35553   0.073   3.810   2.702 -0.3548 -0.4684  0.4049
  264MOL0     C35554   0.373   3.900   2.868 -0.5373 -0.0531 -0.9530
  264MOL0     C35555   0.444   3.878   2.981  0.2915  0.0579 -0.5880
  264MOL0     N35556   0.868   3.765   3.635 -0.1981 -1.3021 -0.1287
  264MOL0     N35557   0.844   3.849   3.729 -0.1936 -0.4587  0.7150
  264MOL0     C35558   0.473   4.956   4.230 -0.4370 -0.3171 -0.0140
  264MOL0     C35559   0.512   5.090   4.239  0.5790 -0.3016 -0.3681
  264MOL0     C35560   0.656   5.501   4.186  0.1066 -0.4184  0.4307
  264MOL0     C35561   0.737   5.570   4.275  0.0345 -0.2457 -0.0142
  264MOL0     C35562   0.762   5.713   4.262 -0.0484  0.8753  0.3583
  264MOL0     C35563   0.717   5.778   4.143 -0.4108 -0.3505 -0.7807
  264MOL0     O35564   0.747   5.906   4.114  0.6676 -0.7091 -0.0064
  264MOL0     C35565   0.872   5.960   4.152  0.0105  0.2183 -0.8396
  264MOL0     C35566   0.863   6.111   4.108 -0.1414  0.4362 -0.2729
  264MOL0     C35567   1.002   6.178   4.113 -0.0914 -0.4935 -0.0058
  264MOL0     C35568   1.105   6.154   3.994  1.1272 -0.1269 -1.1210
  264MOL0     C35569   1.065   6.228   3.876 -0.5519  0.2101 -1.0719
  264MOL0     C35570   1.043   6.319   3.797  0.0417  1.6500 -0.5234
  264MOL0     C35571   0.629   5.710   4.062  0.2108  0.8978 -0.3426
  264MOL0     C35572   0.594   5.574   4.077 -0.7083 -1.1650  0.4576
  264MOL0     H35573   0.429   5.190   3.920 -1.5712  1.5411  2.1155
  264MOL0     H35574   0.358   4.957   3.908 -2.1560 -2.4561  2.0098
  264MOL0     H35575   0.505   4.735   3.972 -2.4071 -1.2091 -2.1350
  264MOL0     H35576   0.518   4.671   4.148 -2.3044  1.0417  1.5651
  264MOL0     H35577   0.321   4.520   4.084  0.7113 -0.1689  0.2913
  264MOL0     H35578   0.319   4.599   3.924 -0.3268 -3.3636 -1.4809
  264MOL0     H35579   0.540   4.523   3.852 -2.9544  1.6067  0.3712
  264MOL0     H35580   0.571   4.466   4.022 -0.1735  0.7737  0.8531
  264MOL0     H35581   0.364   4.308   3.972  0.9369  0.8091 -0.2303
  264MOL0     H35582   0.374   4.362   3.812  1.6406 -0.3687 -2.0356
  264MOL0     H35583   0.602   4.289   3.799 -0.6395  0.9849  0.9266
  264MOL0     H35584   0.592   4.201   3.965  0.4422 -4.2677 -1.0732
  264MOL0     H35585   0.426   4.047   3.889  0.7259 -0.2416 -0.6049
  264MOL0     H35586   0.412   4.129   3.737 -0.3918  3.0630  0.5182
  264MOL0     H35587   0.545   3.955   3.665  3.6239 -0.6835 -1.3775
  264MOL0     H35588   0.672   4.065   3.697  0.3349  1.0063 -0.8660
  264MOL0     H35589   0.559   3.857   3.902 -0.7952  2.2493  1.0699
  264MOL0     H35590   0.699   3.962   3.932  0.1435 -0.4318 -0.4481
  264MOL0     H35591   0.580   3.645   3.742  0.4022  0.2417  0.8653
  264MOL0     H35592   0.845   3.538   3.501 -0.3416  1.4211  0.2789
  264MOL0     H35593   0.732   3.459   3.627 -5.1853  0.8925 -0.6623
  264MOL0     H35594   0.546   3.521   3.511  0.9622 -1.8076  0.6330
  264MOL0     H35595   0.654   3.464   3.392 -2.7883  1.1669 -1.3079
  264MOL0     H35596   0.719   3.682   3.318 -0.3848  0.5277  0.1263
  264MOL0     H35597   0.617   3.767   3.429  1.3555  0.4071  0.3352
  264MOL0     H35598   0.410   3.649   3.307 -0.5113  2.6217 -0.8563
  264MOL0     H35599   0.518   3.554   3.216 -1.4502 -0.5053  1.3588
  264MOL0     H35600   0.343   3.561   3.045 -0.7024  0.1715 -1.9731
  264MOL0     H35601   0.227   3.475   2.878 -0.2947  0.5367  1.0434
  264MOL0     H35602   0.078   3.575   2.872  1.0666  0.1584  1.5708
  264MOL0     H35603   0.184   3.569   2.726  0.4248  2.1628 -0.0791
  264MOL0     H35604   0.064   3.777   2.468 -0.0535 -0.5918 -1.8006
  264MOL0     H35605  -0.035   3.834   2.266  1.4008  0.3582 -2.4380
  264MOL0     H35606   0.028   4.242   2.126 -1.6936  0.0496  0.1747
  264MOL0     H35607   0.145   4.149   2.024  0.8694 -2.9859  2.5015
  264MOL0     H35608  -0.056   4.295   1.919 -1.1876  0.4397  0.5064
  264MOL0     H35609  -0.002   4.152   1.842 -2.6600 -0.1471 -1.7034
  264MOL0     H35610  -0.174   4.026   1.945 -0.0418 -0.3346 -0.6194
  264MOL0     H35611  -0.221   4.145   1.820  2.2010  1.6290 -0.1261
  264MOL0     H35612  -0.293   4.164   2.113 -0.2520 -2.6222 -1.0670
  264MOL0     H35613  -0.291   4.312   2.011  0.6016  0.9212  7.5155
  264MOL0     H35614  -0.457   4.061   1.966  0.8484 -0.6635 -0.2755
  264MOL0     H35615  -0.442   4.183   1.849  2.5838 -0.5332  0.9324
  264MOL0     H35616  -0.601   4.194   2.109  0.2082 -1.1171 -1.5078
  264MOL0     H35617  -0.506   4.332   2.094 -2.5894  0.4312  1.2052
  264MOL0     H35618  -0.693   4.219   1.874 -2.5053  0.1632  1.1101
  264MOL0     H35619  -0.620   4.386   1.878  0.5628  2.0380  2.8379
  264MOL0     H35620  -0.769   4.411   2.085 -0.6652  0.3803 -0.5601
  264MOL0     H35621  -0.830   4.246   2.051 -3.0750 -0.8578 -2.6291
  264MOL0     H35622   0.226   4.178   2.240 -1.4496  0.9959 -0.1291
  264MOL0     H35623   0.322   4.126   2.450 -1.9407  0.5209  1.0385
  264MOL0     H35624   0.408   3.979   2.802 -4.3293  2.7038 -0.0339
  264MOL0     H35625   0.527   3.938   3.015 -0.2498 -0.6710  2.3174
  264MOL0     H35626   0.481   4.892   4.316 -1.7209  1.0439  1.1818
  264MOL0     H35627   0.543   5.119   4.338  0.2234 -2.1927  0.3385
  264MOL0     H35628   0.767   5.520   4.366  2.4492 -0.2789 -0.7562
  264MOL0     H35629   0.826   5.764   4.333  3.6465 -2.7823  0.0637
  264MOL0     H35630   0.907   5.949   4.255 -4.3696  1.7549  1.0636
  264MOL0     H35631   0.943   5.904   4.090 -2.4580 -1.1855 -2.5934
  264MOL0     H35632   0.788   6.166   4.166 -2.6405 -0.4674 -2.4371
  264MOL0     H35633   0.820   6.125   4.009 -0.1776 -0.0977 -0.3379
  264MOL0     H35634   1.040   6.160   4.214 -3.2537 -0.7010  1.2980
  264MOL0     H35635   0.973   6.284   4.124  1.1048 -0.0487 -0.9139
  264MOL0     H35636   1.119   6.046   3.978  2.4076 -0.2984  0.8313
  264MOL0     H35637   1.190   6.204   4.040 -0.9489 -0.5187  3.6445
  264MOL0     H35638   1.017   6.389   3.720  0.2884  0.4238 -1.7757
  264MOL0     H35639   0.588   5.759   3.974 -0.1489  0.5608 -0.3673
  264MOL0     H35640   0.517   5.528   4.017 -4.2184  2.5157  1.6578
  265MOL0     O35641   2.763   4.037   3.011 -0.1454  0.6546  0.5685
  265MOL0     C35642   2.803   3.932   3.057 -0.2817  0.1268 -0.0448
  265MOL0     O35643   2.759   3.882   3.181  0.0381 -0.1018 -0.0571
  265MOL0     C35644   2.682   3.954   3.255  0.9850 -0.5825 -0.1330
  265MOL0     C35645   2.713   4.087   3.296 -0.6129  0.6104 -0.5561
  265MOL0     C35646   2.616   4.172   3.358 -0.6751  0.4411  0.5820
  265MOL0     C35647   2.496   4.114   3.382  0.0039 -0.5983 -0.3740
  265MOL0     O35648   2.407   4.179   3.460  0.7130 -0.3345 -0.4547
  265MOL0     C35649   2.294   4.230   3.375 -1.3374  0.2403  0.1931
  265MOL0     C35650   2.201   4.322   3.439 -0.0063 -0.9362 -0.5601
  265MOL0     C35651   2.094   4.377   3.341  0.4590  1.1342  0.2878
  265MOL0     C35652   1.952   4.332   3.401 -0.2965  0.2228  0.6456
  265MOL0     C35653   1.832   4.337   3.307 -0.4637  0.4364  0.0775
  265MOL0     C35654   1.843   4.266   3.171  0.1261 -0.9751 -0.0547
  265MOL0     C35655   1.706   4.242   3.104 -0.0514 -0.0387  0.4224
  265MOL0     C35656   1.714   4.240   2.946  0.3255  0.1446  0.3204
  265MOL0     N35657   1.703   4.379   2.902  0.3915 -0.7604 -0.5641
  265MOL0     C35658   1.584   4.445   2.928  0.5316  0.1432 -0.4086
  265MOL0     C35659   1.605   4.567   2.882  0.1924  0.0644  0.1484
  265MOL0     C35660   1.507   4.678   2.852  1.2688 -0.1263  0.4729
  265MOL0     C35661   1.414   4.651   2.726 -0.1936  0.1777 -1.0894
  265MOL0     C35662   1.493   4.616   2.593 -0.9638 -0.0666 -0.0358
  265MOL0     C35663   1.561   4.747   2.550 -0.4403  0.4833 -0.2332
  265MOL0     O35664   1.673   4.708   2.464  0.5861  0.4382  0.0793
  265MOL0     C35665   1.678   4.759   2.337 -0.3096 -0.0814  0.4457
  265MOL0     C35666   1.802   4.809   2.288  0.0140  0.4452  0.2739
  265MOL0     C35667   1.815   4.889   2.175 -0.5085  0.3017  0.9720
  265MOL0     C35668   1.956   4.921   2.132 -0.2431  0.3687  0.5257
  265MOL0     C35669   1.698   4.920   2.099  0.0571 -0.2142  0.3002
  265MOL0     C35670   1.708   4.972   1.957  0.4017 -0.7650  0.2822
  265MOL0     O35671   1.590   4.952   1.881 -0.7092 -0.2652 -0.1095
  265MOL0     C35672   1.613   4.944   1.748 -0.6067 -0.3284  0.5212
  265MOL0     C35673   1.653   4.824   1.690  1.0437  0.8449 -0.6548
  265MOL0     C35674   1.677   4.805   1.554 -0.7973 -0.0510 -0.4317
  265MOL0     C35675   1.651   4.918   1.472 -1.2527  0.3624  0.0905
  265MOL0     O35676   1.665   4.899   1.343  1.0020  0.2405  0.4502
  265MOL0     C35677   1.777   4.968   1.281  0.6611  0.5775  0.3909
  265MOL0     C35678   1.774   4.940   1.133 -0.2877  0.3445 -0.1611
  265MOL0     C35679   1.885   4.988   1.043 -0.7558 -0.5662  0.4226
  265MOL0     C35680   1.873   4.932   0.911 -0.4633 -0.0252  0.2130
  265MOL0     C35681   1.987   4.972   0.811 -0.0195  1.1095  0.8212
  265MOL0     C35682   1.966   4.918   0.667 -0.8129 -0.7214 -0.7033
  265MOL0     C35683   1.985   4.769   0.657  0.4539  0.5792 -0.1743
  265MOL0     C35684   1.996   4.723   0.513 -0.3492 -0.5586 -0.1184
  265MOL0    Cl35685   2.142   4.787   0.417  0.4624 -0.0439 -0.4322
  265MOL0     C35686   1.609   5.039   1.527 -0.9537 -0.1256  0.0362
  265MOL0     C35687   1.594   5.049   1.661 -0.3653 -0.7370 -0.5810
  265MOL0     O35688   1.806   5.021   1.917 -1.4963 -0.0174  0.4782
  265MOL0     C35689   1.570   4.877   2.151 -0.3585 -0.3963  0.5366
  265MOL0     C35690   1.558   4.800   2.264 -0.3108 -0.3140 -1.0083
  265MOL0     N35691   1.739   4.578   2.846  0.3230  0.3071  0.3924
  265MOL0     N35692   1.796   4.460   2.855 -0.6162 -0.3160 -0.2066
  265MOL0     C35693   2.471   3.983   3.360  0.5530  0.5769  0.4450
  265MOL0     C35694   2.557   3.901   3.282 -0.7415 -0.6927 -0.3242
  265MOL0     C35695   2.913   3.865   2.985  0.4264 -0.3842 -0.3233
  265MOL0     C35696   2.962   3.916   2.861 -0.2449 -0.5738  0.2693
  265MOL0     C35697   3.058   3.846   2.785 -0.0988  0.3713 -0.4250
  265MOL0     C35698   3.095   3.718   2.828  0.9459 -0.4554  0.0187
  265MOL0     O35699   3.169   3.662   2.726  0.0492 -0.5618 -0.7009
  265MOL0     C35700   3.275   3.576   2.762  0.5422  1.1064 -0.7396
  265MOL0     C35701   3.406   3.609   2.704 -0.3242  0.0601  0.7545
  265MOL0     C35702   3.425   3.752   2.676  0.9009 -0.4059 -0.7597
  265MOL0     C35703   3.471   3.836   2.797  0.1350  0.5324  0.5458
  265MOL0     C35704   3.484   3.974   2.766  0.0505 -0.1829  0.1150
  265MOL0     C35705   3.496   4.092   2.753  0.4177  0.4573 -0.2253
  265MOL0     C35706   3.038   3.663   2.947 -0.1396 -0.1008  0.2505
  265MOL0     C35707   2.941   3.730   3.016 -0.3796  0.0983  0.2052
  265MOL0     H35708   2.817   4.119   3.292  0.0169 -0.9647  1.6539
  265MOL0     H35709   2.626   4.274   3.393 -0.3094 -0.2889  2.7342
  265MOL0     H35710   2.347   4.273   3.289  4.6692 -1.2683  2.6327
  265MOL0     H35711   2.236   4.140   3.349 -1.4054 -0.2192  1.8465
  265MOL0     H35712   2.161   4.288   3.535  3.5304  0.9411  1.8030
  265MOL0     H35713   2.266   4.403   3.472 -0.9697 -1.0359  1.8166
  265MOL0     H35714   2.097   4.486   3.336  1.1204  1.2337  2.1567
  265MOL0     H35715   2.123   4.333   3.245  3.0628 -0.2290  1.5945
  265MOL0     H35716   1.973   4.229   3.431 -1.0326 -0.0346  0.2930
  265MOL0     H35717   1.935   4.371   3.502 -0.1254 -1.5823  1.4035
  265MOL0     H35718   1.741   4.304   3.357 -0.6698  0.6082 -0.1801
  265MOL0     H35719   1.810   4.442   3.282  2.7403  0.6128 -2.7107
  265MOL0     H35720   1.911   4.328   3.113 -1.5035 -1.3771 -2.5503
  265MOL0     H35721   1.912   4.181   3.177  1.9077  0.4965  1.3927
  265MOL0     H35722   1.682   4.138   3.128  2.6350 -0.2994  2.3944
  265MOL0     H35723   1.634   4.318   3.134 -0.0299  1.3284 -2.6141
  265MOL0     H35724   1.644   4.176   2.891 -1.3615  2.5138 -0.4582
  265MOL0     H35725   1.813   4.204   2.916  1.1033  1.5609  1.0975
  265MOL0     H35726   1.494   4.398   2.968  0.8835 -0.0840  0.1300
  265MOL0     H35727   1.428   4.691   2.926 -1.6929 -0.9174 -2.3113
  265MOL0     H35728   1.558   4.775   2.842  0.7115  0.0188 -1.4289
  265MOL0     H35729   1.348   4.734   2.702 -1.9818 -0.4220  1.3484
  265MOL0     H35730   1.360   4.562   2.758  1.7717 -1.5785 -2.3446
  265MOL0     H35731   1.418   4.587   2.519 -2.1480  3.7142 -0.5008
  265MOL0     H35732   1.558   4.531   2.617 -3.8051 -2.1081  0.9641
  265MOL0     H35733   1.604   4.797   2.637  1.5190 -0.5718 -0.5369
  265MOL0     H35734   1.475   4.806   2.517 -0.0471  0.6557 -0.9626
  265MOL0     H35735   1.889   4.778   2.345 -1.0992  0.7956  2.2574
  265MOL0     H35736   1.956   5.023   2.092 -0.4486  0.9043  1.8487
  265MOL0     H35737   2.030   4.929   2.211  0.2099  2.0993 -0.0227
  265MOL0     H35738   1.992   4.851   2.056  1.8220  0.4898  1.3289
  265MOL0     H35739   1.654   4.736   1.754 -0.1917  0.4297 -1.1745
  265MOL0     H35740   1.709   4.709   1.514  0.3685 -0.3894  1.1879
  265MOL0     H35741   1.785   5.074   1.304  4.6522  0.5922 -0.4302
  265MOL0     H35742   1.870   4.922   1.316  0.9282  1.4914  0.8993
  265MOL0     H35743   1.760   4.836   1.100  1.7795 -0.1554  0.3496
  265MOL0     H35744   1.685   4.996   1.104  0.4152 -0.1658 -3.7973
  265MOL0     H35745   1.980   4.957   1.088  0.6479  2.8855  0.1298
  265MOL0     H35746   1.883   5.097   1.044 -3.1237 -0.4969 -2.0269
  265MOL0     H35747   1.885   4.823   0.908  2.5358  0.2416 -1.8545
  265MOL0     H35748   1.779   4.964   0.865  1.1548  0.3726 -3.0653
  265MOL0     H35749   2.085   4.963   0.858  0.7336 -0.9480 -0.9951
  265MOL0     H35750   1.981   5.081   0.801 -0.6257  0.9452 -0.9503
  265MOL0     H35751   1.866   4.957   0.647 -1.1794 -0.9058  0.6763
  265MOL0     H35752   2.045   4.966   0.608 -0.3244 -1.8296 -0.9669
  265MOL0     H35753   1.908   4.700   0.695  2.7415 -2.2976 -0.3835
  265MOL0     H35754   2.078   4.755   0.712 -0.6878  2.5962  2.4698
  265MOL0     H35755   1.905   4.754   0.460 -0.1048 -1.5050 -1.1212
  265MOL0     H35756   1.992   4.614   0.499  3.2482 -0.4883 -3.4252
  265MOL0     H35757   1.592   5.121   1.458  1.5106  1.5278  1.2423
  265MOL0     H35758   1.554   5.145   1.694 -0.2947 -0.2675 -1.8030
  265MOL0     H35759   1.478   4.918   2.112 -1.4562 -0.7354  2.6266
  265MOL0     H35760   1.458   4.775   2.299  0.2451 -0.0855  0.8251
  265MOL0     H35761   2.379   3.947   3.405  0.1039  0.4893 -0.5167
  265MOL0     H35762   2.535   3.797   3.261  0.8887 -1.3761  1.0947
  265MOL0     H35763   2.929   4.009   2.816 -1.1148 -0.6259  0.7778
  265MOL0     H35764   3.090   3.878   2.687 -1.1472 -3.7418 -2.3232
  265MOL0     H35765   3.294   3.567   2.869  1.9559 -0.1453 -1.0537
  265MOL0     H35766   3.241   3.481   2.720 -3.5084  1.9069  0.3263
  265MOL0     H35767   3.426   3.555   2.611  2.2708 -0.5934  1.6076
  265MOL0     H35768   3.479   3.576   2.778  3.0796  0.8109 -1.9933
  265MOL0     H35769   3.329   3.795   2.646  0.7910 -0.4868 -0.5230
  265MOL0     H35770   3.497   3.755   2.594 -0.3790  0.7996 -1.9011
  265MOL0     H35771   3.565   3.797   2.837 -0.0704  0.2471  0.7525
  265MOL0     H35772   3.398   3.822   2.877 -1.4459  0.2478 -0.8919
  265MOL0     H35773   3.487   4.199   2.751 -1.7307  0.3367  0.7004
  265MOL0     H35774   3.070   3.560   2.953  1.9354  0.4431 -0.5485
  265MOL0     H35775   2.902   3.681   3.105 -0.5870  0.6681  0.4343
  266MOL0     O35776   7.361  11.395   9.110 -0.1632  1.5195  0.2735
  266MOL0     C35777   7.260  11.352   9.167  0.3951 -0.6572  0.1143
  266MOL0     O35778   7.128  11.335   9.106  0.2139 -0.2050  0.8433
  266MOL0     C35779   7.093  11.365   8.976  0.0169  0.6080  0.2110
  266MOL0     C35780   6.974  11.311   8.923 -0.0996  0.1058  0.0121
  266MOL0     C35781   6.926  11.345   8.795  0.1141  0.5245  0.9805
  266MOL0     C35782   7.004  11.424   8.710 -0.2886 -0.8299  0.6588
  266MOL0     O35783   6.971  11.475   8.586  1.0431  0.0511  0.0891
  266MOL0     C35784   6.837  11.513   8.572 -0.1529  0.8594  0.1042
  266MOL0     C35785   6.811  11.604   8.463  0.2557 -0.3311 -0.2636
  266MOL0     C35786   6.849  11.539   8.330 -0.1566  0.8516  0.4057
  266MOL0     C35787   6.798  11.622   8.204 -0.5589  1.0016 -0.0964
  266MOL0     C35788   6.790  11.529   8.083  0.6972  0.8072 -0.1548
  266MOL0     C35789   6.708  11.589   7.965  1.0130  0.5418 -0.2806
  266MOL0     C35790   6.772  11.705   7.894 -0.5219 -0.0907  0.2821
  266MOL0     C35791   6.688  11.756   7.776  0.4271 -0.1664 -0.3114
  266MOL0     N35792   6.733  11.887   7.723 -0.2096  0.4860  0.0205
  266MOL0     C35793   6.844  11.960   7.757 -0.2518 -0.3379  0.0602
  266MOL0     C35794   6.823  12.085   7.698  0.1617 -0.1456  0.4407
  266MOL0     C35795   6.902  12.204   7.737 -1.0828  0.5301 -0.5495
  266MOL0     C35796   6.847  12.343   7.707 -0.4641 -0.0306 -0.6255
  266MOL0     C35797   6.756  12.419   7.804  0.0813 -0.2305  1.2338
  266MOL0     C35798   6.811  12.419   7.943  0.7592  0.4483 -1.1987
  266MOL0     O35799   6.738  12.514   8.023  0.9530  0.0593 -0.0743
  266MOL0     C35800   6.750  12.648   8.001  0.4835 -0.2499 -0.4074
  266MOL0     C35801   6.637  12.710   7.956  0.1991  0.7480  0.3462
  266MOL0     C35802   6.632  12.834   7.900 -0.4506  0.9844  0.2405
  266MOL0     C35803   6.499  12.885   7.855 -0.0855 -0.7214  0.5461
  266MOL0     C35804   6.751  12.917   7.902  0.0343 -0.8395  1.3677
  266MOL0     C35805   6.762  13.043   7.825 -0.5705  0.0322 -0.7048
  266MOL0     O35806   6.890  13.081   7.794  0.0267  0.3497 -0.4169
  266MOL0     C35807   6.895  13.190   7.717 -0.1884 -0.1006  0.0776
  266MOL0     C35808   6.866  13.182   7.583 -0.2782  0.1877 -0.1730
  266MOL0     C35809   6.874  13.296   7.503 -0.2078 -0.3450  0.2572
  266MOL0     C35810   6.918  13.418   7.561 -0.1285 -0.8965 -0.5725
  266MOL0     O35811   6.930  13.522   7.469 -0.7703 -0.3724 -0.3125
  266MOL0     C35812   6.938  13.653   7.530  0.5345 -0.6592  0.7237
  266MOL0     C35813   6.880  13.762   7.428  0.4768 -0.7302 -0.6529
  266MOL0     C35814   6.727  13.743   7.431 -0.5018  0.1172 -0.1764
  266MOL0     C35815   6.664  13.843   7.334 -0.4080  0.1064 -0.3349
  266MOL0     C35816   6.517  13.849   7.341  0.0767  0.0441 -0.3905
  266MOL0     C35817   6.464  13.886   7.484 -0.9441  0.4309  0.0049
  266MOL0     C35818   6.544  14.006   7.548 -0.1102 -0.1126  0.1934
  266MOL0     C35819   6.481  14.050   7.680  0.1468 -0.4601 -0.9199
  266MOL0    Cl35820   6.333  14.136   7.659  0.4403 -0.3387 -0.0998
  266MOL0     C35821   6.964  13.429   7.693  0.3030  0.5774  0.2945
  266MOL0     C35822   6.944  13.314   7.773  0.2554  0.0457  0.1052
  266MOL0     O35823   6.659  13.108   7.792 -0.5588  0.1458  0.4785
  266MOL0     C35824   6.869  12.860   7.954 -0.4140  1.1286  0.4533
  266MOL0     C35825   6.869  12.729   7.995 -0.3789 -0.0770 -0.1423
  266MOL0     N35826   6.699  12.086   7.634  0.1767 -0.6200 -0.0228
  266MOL0     N35827   6.639  11.976   7.661 -0.2703 -0.6804  1.0114
  266MOL0     C35828   7.133  11.460   8.751  0.0994  0.5009 -0.4213
  266MOL0     C35829   7.167  11.439   8.885 -0.5939 -0.8330 -0.0085
  266MOL0     C35830   7.283  11.311   9.309 -0.8817 -0.6086 -1.1228
  266MOL0     C35831   7.405  11.272   9.362 -0.1663  0.3147 -0.3412
  266MOL0     C35832   7.403  11.214   9.496  0.3028  0.2549 -0.1177
  266MOL0     C35833   7.289  11.200   9.572 -0.5692  0.5619  0.3047
  266MOL0     O35834   7.294  11.184   9.712 -1.2709  0.7722  0.6478
  266MOL0     C35835   7.422  11.175   9.781  0.2294 -0.1367  1.2385
  266MOL0     C35836   7.470  11.035   9.778 -0.7012  0.2486 -0.0039
  266MOL0     C35837   7.608  11.018   9.851  0.3087 -0.6532  0.3514
  266MOL0     C35838   7.646  10.873   9.865  0.4785 -0.1509 -0.7314
  266MOL0     C35839   7.568  10.807   9.971  0.3320 -0.3956 -0.3683
  266MOL0     C35840   7.509  10.748  10.064  0.0388 -0.1047 -1.2788
  266MOL0     C35841   7.175  11.244   9.520 -0.5204  0.5169  0.6829
  266MOL0     C35842   7.165  11.303   9.391  1.3128 -0.3759 -1.0513
  266MOL0     H35843   6.912  11.240   8.977  1.3506 -1.2525 -0.0409
  266MOL0     H35844   6.824  11.320   8.767 -0.8490  3.9621  0.8595
  266MOL0     H35845   6.775  11.424   8.560  0.0080  0.9382 -1.5806
  266MOL0     H35846   6.806  11.563   8.664 -0.2107  1.6176 -0.3139
  266MOL0     H35847   6.708  11.641   8.459 -0.6109 -2.5374  0.2319
  266MOL0     H35848   6.873  11.693   8.470 -0.9356  0.5162 -0.1551
  266MOL0     H35849   6.957  11.547   8.341 -0.2953  2.9254  0.6253
  266MOL0     H35850   6.825  11.433   8.316  3.5265 -0.1252  0.5002
  266MOL0     H35851   6.694  11.654   8.216 -1.2554  1.0589 -4.6938
  266MOL0     H35852   6.862  11.710   8.195 -0.0066  0.6533  0.3323
  266MOL0     H35853   6.892  11.511   8.048  0.9523  3.2356 -0.8115
  266MOL0     H35854   6.741  11.432   8.097  0.3869  0.5750 -2.5112
  266MOL0     H35855   6.683  11.523   7.881  3.2654  0.1096 -0.6570
  266MOL0     H35856   6.609  11.620   8.002 -0.1410  2.0191 -4.0215
  266MOL0     H35857   6.780  11.789   7.964 -1.6624 -0.0444  0.3841
  266MOL0     H35858   6.871  11.683   7.854 -0.1589 -1.6395  1.9045
  266MOL0     H35859   6.584  11.771   7.805  0.1750 -1.1165 -0.6998
  266MOL0     H35860   6.680  11.685   7.693  2.1087  1.9509 -2.4294
  266MOL0     H35861   6.918  11.946   7.836  0.5576  4.5386  0.4751
  266MOL0     H35862   6.940  12.201   7.840 -0.3353  0.0258 -0.8369
  266MOL0     H35863   6.991  12.201   7.674 -0.6295 -1.6103  0.1194
  266MOL0     H35864   6.804  12.333   7.607 -3.7320 -0.4865  0.6967
  266MOL0     H35865   6.934  12.404   7.681  0.0236 -0.6532 -0.4884
  266MOL0     H35866   6.657  12.374   7.805  0.4806 -1.5230 -2.4287
  266MOL0     H35867   6.740  12.522   7.772  0.6822 -1.6697 -4.8368
  266MOL0     H35868   6.916  12.450   7.935  1.3174 -0.4175  1.7391
  266MOL0     H35869   6.806  12.325   7.998  0.1924  1.8644  1.3208
  266MOL0     H35870   6.553  12.644   7.937 -0.3258  1.6103 -0.3763
  266MOL0     H35871   6.409  12.822   7.858 -0.8431  0.0512 -2.2407
  266MOL0     H35872   6.469  12.971   7.916 -2.0456 -0.6632 -0.3972
  266MOL0     H35873   6.506  12.909   7.748 -0.3306 -1.3804  0.3795
  266MOL0     H35874   6.824  13.090   7.543 -2.1717  1.3959 -1.0973
  266MOL0     H35875   6.844  13.293   7.398 -2.1523  1.0578  0.7293
  266MOL0     H35876   6.882  13.667   7.623 -1.2085  2.5845 -0.6746
  266MOL0     H35877   7.047  13.659   7.536  0.6270 -0.2952 -0.9592
  266MOL0     H35878   6.905  13.860   7.468 -0.2567 -0.1481 -1.5724
  266MOL0     H35879   6.914  13.746   7.325 -0.2393 -0.1231 -0.9929
  266MOL0     H35880   6.702  13.763   7.536 -1.6614 -0.3520 -0.3420
  266MOL0     H35881   6.691  13.642   7.409 -2.7382  1.2544 -2.2012
  266MOL0     H35882   6.709  13.940   7.358  1.7046 -0.8665 -0.1612
  266MOL0     H35883   6.693  13.813   7.233  3.8372 -0.5247  0.8538
  266MOL0     H35884   6.488  13.746   7.318 -0.5026 -0.2937  1.5993
  266MOL0     H35885   6.471  13.925   7.277  1.8687  2.7226  1.2678
  266MOL0     H35886   6.359  13.917   7.485 -1.5974 -1.6411 -1.0339
  266MOL0     H35887   6.470  13.804   7.555  0.6718 -0.3478 -0.9677
  266MOL0     H35888   6.565  14.087   7.478  2.9416  0.6764  1.8162
  266MOL0     H35889   6.646  13.975   7.573 -0.6573 -1.4063  0.8798
  266MOL0     H35890   6.541  14.123   7.735  0.0619  1.6378 -3.4444
  266MOL0     H35891   6.478  13.964   7.748 -0.4945  1.0376  1.0204
  266MOL0     H35892   7.003  13.520   7.738  0.5415  0.4006  0.4414
  266MOL0     H35893   6.993  13.302   7.869 -0.6711 -0.7675  0.4934
  266MOL0     H35894   6.959  12.921   7.960  0.4635  0.4498 -3.5299
  266MOL0     H35895   6.957  12.688   8.042 -1.9768 -0.8411  2.4008
  266MOL0     H35896   7.197  11.522   8.690 -1.3674  1.0497 -1.4530
  266MOL0     H35897   7.259  11.480   8.925 -0.7025 -0.9802  0.4004
  266MOL0     H35898   7.498  11.275   9.306 -1.0122  6.0882 -2.1602
  266MOL0     H35899   7.502  11.185   9.533  0.2213 -1.8765 -1.4496
  266MOL0     H35900   7.489  11.247   9.733 -2.2293 -0.2518 -2.7606
  266MOL0     H35901   7.408  11.201   9.886 -1.5594  0.2740  0.9256
  266MOL0     H35902   7.493  11.001   9.676  2.6360 -1.2503  1.1133
  266MOL0     H35903   7.394  10.972   9.825  1.3730 -0.9635  1.9335
  266MOL0     H35904   7.588  11.062   9.949  1.4069  4.5984 -1.4827
  266MOL0     H35905   7.685  11.066   9.789 -1.0958 -1.1811 -1.9557
  266MOL0     H35906   7.752  10.863   9.890  0.4315  1.8765  0.5425
  266MOL0     H35907   7.619  10.829   9.769 -0.0970 -1.4522  0.0094
  266MOL0     H35908   7.440  10.709  10.137  0.3932  3.5055  1.2298
  266MOL0     H35909   7.090  11.232   9.587 -1.1302 -3.1173 -0.5146
  266MOL0     H35910   7.067  11.328   9.351  1.1599  1.8886  0.5158
  267MOL0     O35911   3.450  10.792   5.973 -0.2714 -0.0955 -0.4038
  267MOL0     C35912   3.338  10.768   5.948 -0.3482  0.1430 -0.6132
  267MOL0     O35913   3.246  10.851   5.970 -0.3413  0.3386 -0.1838
  267MOL0     C35914   3.267  10.981   6.008 -0.1492  0.2540  1.2955
  267MOL0     C35915   3.264  11.074   5.908 -0.3034  0.2456  0.3018
  267MOL0     C35916   3.280  11.215   5.935  0.0831  0.5420 -0.8312
  267MOL0     C35917   3.302  11.263   6.065 -0.2839  0.4984  0.5540
  267MOL0     O35918   3.318  11.395   6.078  0.3710 -0.5167  0.8527
  267MOL0     C35919   3.395  11.438   6.185  0.2462 -0.2776 -0.0015
  267MOL0     C35920   3.448  11.575   6.173 -0.2311  0.1451 -0.3477
  267MOL0     C35921   3.548  11.609   6.288 -0.4678 -0.7485  0.2230
  267MOL0     C35922   3.620  11.745   6.262  0.2492 -0.1311  0.2198
  267MOL0     C35923   3.727  11.782   6.365  1.4739  0.6012 -0.1594
  267MOL0     C35924   3.755  11.931   6.371  0.2670 -0.2425  0.2360
  267MOL0     C35925   3.849  11.988   6.474 -0.1565 -0.4260  0.0791
  267MOL0     C35926   3.991  11.949   6.447 -0.0996 -0.6145 -0.0679
  267MOL0     N35927   4.034  11.978   6.310 -0.9121 -0.4166 -0.3618
  267MOL0     C35928   4.035  12.108   6.259 -0.2654 -0.0666 -0.2367
  267MOL0     C35929   4.063  12.085   6.126 -0.2371 -0.0872  0.0572
  267MOL0     C35930   4.113  12.200   6.034 -0.6571 -0.3805  0.9877
  267MOL0     C35931   4.178  12.152   5.902 -0.7706 -0.1086  0.2032
  267MOL0     C35932   4.071  12.115   5.802 -0.8401 -0.2631 -0.0550
  267MOL0     C35933   4.132  12.062   5.677 -0.7672 -0.0244 -0.3487
  267MOL0     O35934   4.036  12.084   5.576 -0.6598 -0.2681 -0.5456
  267MOL0     C35935   3.981  11.971   5.503 -0.2005 -0.9526 -0.0595
  267MOL0     C35936   4.057  11.858   5.470 -0.1210 -0.1236 -0.7299
  267MOL0     C35937   3.997  11.751   5.400 -0.4283  0.4221 -1.3842
  267MOL0     C35938   4.092  11.643   5.366 -1.2319  0.6164  0.0763
  267MOL0     C35939   3.855  11.755   5.356 -0.7305  0.0557 -1.0533
  267MOL0     C35940   3.791  11.650   5.277 -0.4824 -0.0367 -0.3401
  267MOL0     O35941   3.672  11.681   5.227  0.5889 -0.0675  0.5804
  267MOL0     C35942   3.614  11.591   5.147 -0.3326 -0.7249 -0.5064
  267MOL0     C35943   3.619  11.604   5.009  0.1415 -0.2614  0.4929
  267MOL0     C35944   3.557  11.506   4.924 -1.3240  0.0877  0.7199
  267MOL0     C35945   3.497  11.391   4.958 -1.2327  0.1034 -0.7912
  267MOL0     O35946   3.444  11.297   4.868  0.3146 -0.2620 -0.0333
  267MOL0     C35947   3.301  11.295   4.867  0.2854 -0.4890 -0.2502
  267MOL0     C35948   3.246  11.176   4.776  0.2918 -1.3631  0.8080
  267MOL0     C35949   3.093  11.173   4.741  1.1356 -0.1510 -0.8565
  267MOL0     C35950   3.048  11.292   4.652  0.4221 -0.7597 -0.0219
  267MOL0     C35951   2.907  11.269   4.603 -0.5504 -0.0225  0.2797
  267MOL0     C35952   2.870  11.374   4.489 -0.7716 -0.2420 -0.4565
  267MOL0     C35953   2.731  11.370   4.426 -0.7079 -0.1223 -0.9857
  267MOL0     C35954   2.697  11.229   4.368  0.0336 -0.0839  0.4482
  267MOL0    Cl35955   2.769  11.207   4.210  0.4964  0.0362  0.7163
  267MOL0     C35956   3.494  11.374   5.100  0.4750  0.6471  0.0390
  267MOL0     C35957   3.555  11.475   5.187  1.5611 -0.1882 -0.1946
  267MOL0     O35958   3.836  11.539   5.286 -0.3034 -0.5357 -0.1595
  267MOL0     C35959   3.780  11.875   5.389  0.3339  0.4373 -0.1056
  267MOL0     C35960   3.846  11.982   5.455 -0.0654  0.4212 -0.1705
  267MOL0     N35961   4.064  11.953   6.099  0.0808  0.1780  0.4725
  267MOL0     N35962   4.049  11.885   6.210  0.4041 -0.0629 -0.1187
  267MOL0     C35963   3.293  11.167   6.170 -0.4516  0.2564 -0.1904
  267MOL0     C35964   3.275  11.028   6.145 -0.2679  0.0215  0.0469
  267MOL0     C35965   3.301  10.636   5.899  1.5481 -0.7583  0.1981
  267MOL0     C35966   3.169  10.612   5.855  0.9671 -0.3685 -0.5579
  267MOL0     C35967   3.132  10.497   5.792 -0.6046  1.0319  0.0781
  267MOL0     C35968   3.227  10.379   5.798  0.8755 -0.7922  0.7065
  267MOL0     O35969   3.200  10.245   5.766 -0.2241  0.3944  0.3339
  267MOL0     C35970   3.076  10.222   5.706 -0.0045 -0.3268  0.1106
  267MOL0     C35971   3.059  10.079   5.692  0.0418 -0.2792  0.1883
  267MOL0     C35972   2.939  10.037   5.607 -0.7553  1.2004  0.3246
  267MOL0     C35973   2.940   9.888   5.573  0.0825 -0.2587 -0.2497
  267MOL0     C35974   2.796   9.873   5.523  0.2600 -0.4760  0.4316
  267MOL0     C35975   2.682   9.858   5.482  0.2177 -1.1611 -0.1392
  267MOL0     C35976   3.359  10.406   5.840 -0.0112 -0.0520 -0.0805
  267MOL0     C35977   3.396  10.537   5.877 -0.6625 -0.0364  0.3584
  267MOL0     H35978   3.260  11.048   5.802 -1.3031 -2.0379  0.8251
  267MOL0     H35979   3.277  11.279   5.847 -1.5800 -0.9402 -1.9167
  267MOL0     H35980   3.335  11.441   6.277  0.9672  1.3414  0.4535
  267MOL0     H35981   3.478  11.371   6.203 -1.8011 -2.5526  1.6036
  267MOL0     H35982   3.497  11.587   6.076 -0.6336 -2.4333 -0.9561
  267MOL0     H35983   3.359  11.638   6.179 -0.8258 -0.6344 -0.7303
  267MOL0     H35984   3.503  11.606   6.388  0.7972  1.1632  0.8861
  267MOL0     H35985   3.618  11.526   6.299 -1.3046 -1.7237 -1.4291
  267MOL0     H35986   3.665  11.720   6.165  0.2521 -0.3322  0.2712
  267MOL0     H35987   3.549  11.825   6.240 -2.8378 -2.4279  1.0561
  267MOL0     H35988   3.692  11.743   6.462  0.7292  2.6166  0.4287
  267MOL0     H35989   3.823  11.731   6.352  0.9794  0.1987 -2.7495
  267MOL0     H35990   3.783  11.968   6.271  0.2542 -2.8772 -0.8152
  267MOL0     H35991   3.662  11.986   6.390  1.4349  1.7027  0.6570
  267MOL0     H35992   3.850  12.098   6.477  1.6345 -0.4286  0.7896
  267MOL0     H35993   3.818  11.956   6.574 -0.0764 -0.6026  0.0459
  267MOL0     H35994   3.997  11.840   6.451  0.0086 -0.5662  1.9513
  267MOL0     H35995   4.056  11.987   6.526 -1.1239  0.0558  0.4711
  267MOL0     H35996   4.026  12.200   6.317 -0.6375  1.3978 -2.4675
  267MOL0     H35997   4.033  12.269   6.004 -0.7914 -1.2471 -0.7427
  267MOL0     H35998   4.190  12.257   6.087 -1.3007  0.3410  1.1698
  267MOL0     H35999   4.245  12.067   5.918 -0.6753 -0.0111  0.3260
  267MOL0     H36000   4.239  12.225   5.847 -3.0374  0.7530 -1.3011
  267MOL0     H36001   4.012  12.201   5.769 -0.3274  0.3861  0.6791
  267MOL0     H36002   4.000  12.044   5.845 -2.6137  1.4329 -0.0360
  267MOL0     H36003   4.164  11.958   5.692  0.5442  0.4900  0.6539
  267MOL0     H36004   4.223  12.117   5.652 -0.3974  0.4809  1.8787
  267MOL0     H36005   4.162  11.857   5.497 -0.8474  2.5090  2.9466
  267MOL0     H36006   4.199  11.664   5.373 -0.3094 -3.6922  1.7654
  267MOL0     H36007   4.072  11.565   5.440  0.3947 -0.9000 -1.0023
  267MOL0     H36008   4.082  11.599   5.266  3.5782  1.7948 -1.1757
  267MOL0     H36009   3.664  11.687   4.955  1.2441 -0.7141  0.6840
  267MOL0     H36010   3.589  11.514   4.821  1.3313 -2.9910  1.1299
  267MOL0     H36011   3.260  11.293   4.968  0.2693  2.6869 -0.1184
  267MOL0     H36012   3.255  11.384   4.824 -3.1994 -1.1214  1.8068
  267MOL0     H36013   3.310  11.166   4.688  1.1435  0.1807  1.2210
  267MOL0     H36014   3.250  11.089   4.842  1.2983 -1.9257  0.0418
  267MOL0     H36015   3.035  11.165   4.834  2.7763  2.4330  0.5244
  267MOL0     H36016   3.078  11.081   4.684  1.4521  0.3867 -1.8311
  267MOL0     H36017   3.050  11.384   4.711 -4.5468 -0.9518  0.8463
  267MOL0     H36018   3.115  11.304   4.567 -2.9597 -3.0062 -3.3224
  267MOL0     H36019   2.828  11.275   4.679 -0.7592  3.9225 -0.0213
  267MOL0     H36020   2.900  11.165   4.572  1.4343 -0.4506  1.1335
  267MOL0     H36021   2.888  11.477   4.522 -2.5487 -0.2372  0.5763
  267MOL0     H36022   2.948  11.357   4.413  1.6764  0.7222  1.6732
  267MOL0     H36023   2.725  11.449   4.351  2.8443  1.5891  0.3261
  267MOL0     H36024   2.665  11.409   4.505  1.1784  1.0195  0.0925
  267MOL0     H36025   2.590  11.211   4.351  0.3622 -1.4156 -0.3286
  267MOL0     H36026   2.712  11.147   4.439  0.1802 -0.2974  0.1710
  267MOL0     H36027   3.457  11.278   5.136  2.1724  0.2584  0.8288
  267MOL0     H36028   3.564  11.450   5.292 -1.9728 -0.3088  0.2158
  267MOL0     H36029   3.678  11.882   5.352  0.9256 -0.6176 -2.0651
  267MOL0     H36030   3.782  12.066   5.482 -0.0085  0.8022 -1.1740
  267MOL0     H36031   3.294  11.191   6.276 -1.5927 -0.9963  0.1336
  267MOL0     H36032   3.264  10.946   6.215 -2.0265 -0.6091 -0.8976
  267MOL0     H36033   3.089  10.685   5.854  0.5534 -0.7039 -3.8641
  267MOL0     H36034   3.027  10.471   5.779 -1.3226  1.7973  3.2606
  267MOL0     H36035   2.995  10.263   5.766 -0.2117  1.3377 -1.2463
  267MOL0     H36036   3.065  10.279   5.614 -0.8384  1.0572  1.0422
  267MOL0     H36037   3.058  10.045   5.796  1.1376  0.4753  0.4596
  267MOL0     H36038   3.149  10.040   5.645  0.3959  1.6762 -0.8727
  267MOL0     H36039   2.944  10.081   5.507  1.1880 -0.8233 -0.5379
  267MOL0     H36040   2.854  10.075   5.666 -0.9379 -0.7388  1.4036
  267MOL0     H36041   2.950   9.828   5.664  0.4821 -0.5006 -0.4520
  267MOL0     H36042   3.016   9.867   5.498  1.3778  0.4094  0.8259
  267MOL0     H36043   2.585   9.855   5.438 -0.0186 -0.3653  0.2932
  267MOL0     H36044   3.430  10.325   5.835 -0.0275 -0.2639  2.1760
  267MOL0     H36045   3.497  10.568   5.901 -0.6995 -0.8139  1.6671
  268MOL0     O36046   7.720   5.806   3.883  0.0814 -0.3962  0.1163
  268MOL0     C36047   7.675   5.910   3.832 -0.2262 -0.7193 -0.3772
  268MOL0     O36048   7.755   6.014   3.802 -0.3538 -0.6417 -0.2061
  268MOL0     C36049   7.889   6.006   3.835 -0.3644  0.1312  0.1805
  268MOL0     C36050   7.932   5.962   3.968 -0.4169 -0.4748  1.1372
  268MOL0     C36051   8.067   5.965   4.005 -0.0836  0.0429 -0.6109
  268MOL0     C36052   8.166   6.015   3.916  0.3929  0.2081  0.3164
  268MOL0     O36053   8.298   6.012   3.942 -0.6456  0.6082 -0.2643
  268MOL0     C36054   8.358   5.954   4.060  0.3263  0.2963 -0.0632
  268MOL0     C36055   8.505   5.977   4.071  0.0752 -0.3487  0.9934
  268MOL0     C36056   8.525   6.132   4.050 -0.3313  1.0147 -0.1639
  268MOL0     C36057   8.673   6.158   4.077 -0.0441 -0.4515 -1.0793
  268MOL0     C36058   8.703   6.289   4.138  0.0407 -0.0685 -1.1841
  268MOL0     C36059   8.634   6.407   4.073 -0.4263  0.1248 -0.0282
  268MOL0     C36060   8.702   6.534   4.127 -0.3683  0.4030  0.1655
  268MOL0     C36061   8.677   6.560   4.267  0.0678  0.3124  0.4183
  268MOL0     N36062   8.743   6.677   4.310  0.3150 -0.0337 -0.0094
  268MOL0     C36063   8.863   6.679   4.375  0.5194  0.8109 -0.2107
  268MOL0     C36064   8.884   6.809   4.414 -0.0716  1.0001  0.3111
  268MOL0     C36065   8.993   6.861   4.512 -0.2937  0.1938  0.0073
  268MOL0     C36066   9.132   6.804   4.482 -0.5461 -0.2305  0.6043
  268MOL0     C36067   9.187   6.822   4.338  0.1545  0.0044  0.1729
  268MOL0     C36068   9.136   6.961   4.289 -0.2973 -0.5010  0.4141
  268MOL0     O36069   9.213   7.058   4.363 -0.2132  0.8707 -0.7394
  268MOL0     C36070   9.166   7.186   4.348 -0.1178  1.1243  0.3458
  268MOL0     C36071   9.033   7.234   4.351  1.1811 -0.1597  0.1691
  268MOL0     C36072   9.010   7.369   4.327  0.5199  0.2603  0.0886
  268MOL0     C36073   8.865   7.422   4.342 -0.2037 -0.7423  0.1134
  268MOL0     C36074   9.113   7.463   4.297  0.9391 -0.4262 -0.1751
  268MOL0     C36075   9.089   7.607   4.278 -0.5416 -0.3327 -0.3629
  268MOL0     O36076   8.978   7.643   4.207  0.1547  0.0328  0.2009
  268MOL0     C36077   8.938   7.777   4.201  0.0036  0.1904  0.6171
  268MOL0     C36078   8.903   7.851   4.318  0.0371  0.1266  0.1804
  268MOL0     C36079   8.851   7.979   4.301 -0.8338  0.3123 -0.7324
  268MOL0     C36080   8.818   8.027   4.176 -0.2807  1.3852  0.2677
  268MOL0     O36081   8.763   8.136   4.137  0.3145 -0.3115  0.9719
  268MOL0     C36082   8.681   8.205   4.241  0.5207 -0.0753 -0.1802
  268MOL0     C36083   8.600   8.308   4.167  0.9041 -0.3404  0.2526
  268MOL0     C36084   8.574   8.420   4.265  0.0214 -0.2484 -0.0588
  268MOL0     C36085   8.447   8.495   4.226 -0.2971 -0.8142 -0.3043
  268MOL0     C36086   8.443   8.635   4.288 -0.2822 -0.1963  0.2956
  268MOL0     C36087   8.310   8.704   4.247 -0.4288  0.1628 -0.4406
  268MOL0     C36088   8.269   8.708   4.100 -0.0896  0.0769 -0.6678
  268MOL0     C36089   8.378   8.759   4.005 -0.2982  0.9771  0.9320
  268MOL0    Cl36090   8.378   8.923   4.004  0.0216 -0.1322  0.2062
  268MOL0     C36091   8.850   7.949   4.066  0.7295  0.1211  0.9759
  268MOL0     C36092   8.910   7.830   4.070 -0.0092  0.0049 -1.2273
  268MOL0     O36093   9.161   7.685   4.340 -0.2065  0.4462  0.5185
  268MOL0     C36094   9.244   7.412   4.304  0.0722  0.3621  0.8357
  268MOL0     C36095   9.263   7.275   4.330 -0.0486  0.2565 -0.7276
  268MOL0     N36096   8.780   6.890   4.352 -0.0014 -0.1578 -0.2972
  268MOL0     N36097   8.692   6.801   4.306 -0.5007  0.1743 -0.0716
  268MOL0     C36098   8.122   6.058   3.790  0.3927 -0.3475 -0.1851
  268MOL0     C36099   7.992   6.049   3.748 -0.3795  0.4329 -0.0869
  268MOL0     C36100   7.523   5.921   3.815 -0.5397 -1.2260  0.1264
  268MOL0     C36101   7.471   6.046   3.782 -0.2819  0.7873 -0.8684
  268MOL0     C36102   7.335   6.059   3.782 -0.6695  0.0220 -0.3239
  268MOL0     C36103   7.249   5.962   3.813 -0.0504  0.9786 -0.1306
  268MOL0     O36104   7.114   5.984   3.808  0.1041 -0.7209 -0.3331
  268MOL0     C36105   7.046   5.975   3.938  0.2819  1.0905 -1.4290
  268MOL0     C36106   7.007   6.101   3.986  0.7120 -0.7716 -0.2017
  268MOL0     C36107   6.991   6.221   3.887 -0.1297  0.3683  0.0111
  268MOL0     C36108   6.951   6.347   3.949 -0.1195  1.1437  0.1795
  268MOL0     C36109   6.907   6.440   3.847  0.8312  0.3165 -0.2016
  268MOL0     C36110   6.871   6.523   3.768 -0.0022 -0.5692 -0.6654
  268MOL0     C36111   7.299   5.832   3.832  0.0837 -0.5701 -1.1645
  268MOL0     C36112   7.435   5.815   3.829  0.0440 -0.2496 -0.9601
  268MOL0     H36113   7.858   5.944   4.045 -2.8933  2.7146 -0.2682
  268MOL0     H36114   8.090   5.933   4.106 -0.5659  0.0424 -0.5001
  268MOL0     H36115   8.316   5.996   4.152  0.2960  3.9679 -1.6054
  268MOL0     H36116   8.325   5.849   4.066 -1.6884  0.9456  1.4769
  268MOL0     H36117   8.525   5.952   4.176  2.5540  2.2945  1.2652
  268MOL0     H36118   8.550   5.913   3.995 -3.8352 -2.0947 -0.1101
  268MOL0     H36119   8.480   6.169   3.957  1.0607  0.2652 -1.1924
  268MOL0     H36120   8.475   6.177   4.136  0.3580 -4.6777  3.7836
  268MOL0     H36121   8.710   6.084   4.150  1.2219  0.1675 -1.0614
  268MOL0     H36122   8.727   6.137   3.984 -0.5381 -0.4487 -1.3677
  268MOL0     H36123   8.669   6.270   4.240 -1.3099 -2.9962 -2.0627
  268MOL0     H36124   8.810   6.310   4.140 -0.3154  1.9591  0.6859
  268MOL0     H36125   8.657   6.397   3.966 -2.0089  0.3139 -0.4004
  268MOL0     H36126   8.526   6.410   4.082 -0.3506 -1.9327  3.3934
  268MOL0     H36127   8.810   6.531   4.111  0.2077 -2.3530  3.5119
  268MOL0     H36128   8.656   6.622   4.081 -2.6687 -0.3526  0.8834
  268MOL0     H36129   8.707   6.482   4.336 -1.2139  1.1795  2.0279
  268MOL0     H36130   8.568   6.569   4.277 -0.0410 -1.1083  0.6070
  268MOL0     H36131   8.927   6.594   4.397 -1.5555 -0.2956  1.9578
  268MOL0     H36132   9.000   6.969   4.520  1.6630  0.0125  1.6056
  268MOL0     H36133   8.973   6.839   4.618  0.4395 -1.2750 -0.1271
  268MOL0     H36134   9.126   6.696   4.496  0.2823 -0.7300 -2.2851
  268MOL0     H36135   9.194   6.836   4.567 -0.6814  0.7604  0.3465
  268MOL0     H36136   9.141   6.745   4.276 -5.3628  0.5699  2.9493
  268MOL0     H36137   9.295   6.824   4.320 -0.0954  0.3381 -1.4194
  268MOL0     H36138   9.029   6.976   4.309 -0.1674  1.3256 -0.0670
  268MOL0     H36139   9.150   6.959   4.180 -0.7896 -0.8214  0.3558
  268MOL0     H36140   8.948   7.176   4.387  1.1321  0.8349  1.7481
  268MOL0     H36141   8.869   7.516   4.398 -3.2080 -1.0555  1.0255
  268MOL0     H36142   8.805   7.419   4.251 -0.0310 -0.8671  0.0018
  268MOL0     H36143   8.807   7.364   4.415  0.4702  0.4414  1.6316
  268MOL0     H36144   8.917   7.797   4.411 -0.4528 -2.1053 -0.9638
  268MOL0     H36145   8.830   8.042   4.387  2.6619  0.6006  0.0626
  268MOL0     H36146   8.633   8.135   4.310  1.5032 -1.8645 -1.2536
  268MOL0     H36147   8.748   8.260   4.308 -1.7757 -0.1932  2.3994
  268MOL0     H36148   8.644   8.363   4.082 -0.1602 -1.5209 -1.1152
  268MOL0     H36149   8.511   8.255   4.133  0.2485  0.5996  0.4369
  268MOL0     H36150   8.667   8.477   4.262  0.9961 -1.7439  0.2070
  268MOL0     H36151   8.573   8.386   4.369  2.7015 -0.8756 -0.1539
  268MOL0     H36152   8.427   8.498   4.119 -2.3975  2.1826  0.0580
  268MOL0     H36153   8.358   8.448   4.268 -2.0244  1.7450 -0.9062
  268MOL0     H36154   8.528   8.697   4.258 -0.9187  0.1397 -0.8573
  268MOL0     H36155   8.451   8.629   4.397 -0.7871 -2.7716  0.2550
  268MOL0     H36156   8.229   8.649   4.296  0.4280 -0.3672  0.4121
  268MOL0     H36157   8.301   8.805   4.290 -2.3360 -0.1215 -0.0496
  268MOL0     H36158   8.187   8.777   4.079 -0.1754  0.4003  0.6796
  268MOL0     H36159   8.231   8.610   4.069  0.6064 -0.7408  0.9744
  268MOL0     H36160   8.348   8.737   3.902 -2.9814  2.6324  1.2458
  268MOL0     H36161   8.477   8.714   4.019 -0.1930  1.5618  2.2226
  268MOL0     H36162   8.819   7.987   3.969 -1.9770 -0.6124  1.4635
  268MOL0     H36163   8.919   7.760   3.988 -1.5646  1.1851 -2.4679
  268MOL0     H36164   9.331   7.474   4.283  0.6444 -1.1865 -1.9737
  268MOL0     H36165   9.358   7.233   4.361  1.4790  2.5072 -2.0926
  268MOL0     H36166   8.198   6.089   3.719  1.7666  1.0490  1.7744
  268MOL0     H36167   7.962   6.090   3.652  3.5226  0.7496 -1.3524
  268MOL0     H36168   7.541   6.127   3.766 -1.0816  2.0659  1.6294
  268MOL0     H36169   7.290   6.156   3.765 -1.6868  0.1068  2.3074
  268MOL0     H36170   6.963   5.905   3.924  1.2677 -0.4558  0.1313
  268MOL0     H36171   7.114   5.933   4.012 -2.3831 -0.2953  0.4157
  268MOL0     H36172   7.081   6.133   4.060  0.5084  0.3418 -0.4754
  268MOL0     H36173   6.913   6.092   4.041 -0.8383  0.5464 -2.4983
  268MOL0     H36174   6.918   6.197   3.810  0.2356 -1.8468  0.3000
  268MOL0     H36175   7.082   6.239   3.828  0.0161 -2.9405 -0.9662
  268MOL0     H36176   7.040   6.375   4.006 -0.1638 -0.5639  1.1780
  268MOL0     H36177   6.878   6.321   4.026  0.8550 -4.5289 -0.3995
  268MOL0     H36178   6.825   6.601   3.711 -0.2320  0.3857  0.7830
  268MOL0     H36179   7.233   5.747   3.841  1.6212 -1.8514 -1.5483
  268MOL0     H36180   7.479   5.719   3.854  0.8419  0.6823  1.5091
  269MOL0     O36181  11.028   7.780   2.567 -0.4875 -0.3467 -0.2246
  269MOL0     C36182  10.976   7.850   2.647  0.4691 -0.0052 -0.1902
  269MOL0     O36183  10.973   7.822   2.783  0.0551  0.4556  0.1564
  269MOL0     C36184  11.004   7.694   2.824 -0.3689  1.0477  0.2845
  269MOL0     C36185  10.909   7.605   2.793  0.6655 -0.5687 -0.3642
  269MOL0     C36186  10.931   7.476   2.844  0.4647 -0.2975  0.3650
  269MOL0     C36187  11.047   7.437   2.923 -0.1032 -0.7442  0.5132
  269MOL0     O36188  11.058   7.310   2.970 -0.1958  0.4370  0.2095
  269MOL0     C36189  11.182   7.247   2.914  0.4873  0.0621 -0.9128
  269MOL0     C36190  11.168   7.091   2.940  0.2810  0.3882  0.6629
  269MOL0     C36191  11.302   7.015   2.906 -0.3658 -0.0943 -0.1089
  269MOL0     C36192  11.319   7.013   2.761  0.2413 -0.3300  0.1641
  269MOL0     C36193  11.427   6.910   2.712 -0.3479 -0.5071 -0.6911
  269MOL0     C36194  11.450   6.921   2.565  0.2614 -0.5101  0.4849
  269MOL0     C36195  11.516   6.790   2.513  0.6965  0.3431 -1.2966
  269MOL0     C36196  11.651   6.757   2.569 -0.8490  0.7130  0.1847
  269MOL0     N36197  11.699   6.633   2.529 -0.3993 -0.2211  0.7388
  269MOL0     C36198  11.803   6.611   2.447  0.7522 -0.7522  0.3492
  269MOL0     C36199  11.826   6.479   2.448  0.6259  0.0158  0.0419
  269MOL0     C36200  11.922   6.383   2.382 -0.7777 -0.5463  0.6411
  269MOL0     C36201  12.067   6.403   2.439  0.0273  0.2114  0.0199
  269MOL0     C36202  12.082   6.362   2.584 -0.3525  0.2283 -0.6431
  269MOL0     C36203  12.221   6.405   2.627 -0.0458 -0.0045 -0.1127
  269MOL0     O36204  12.241   6.365   2.758 -1.1283 -0.0888 -0.1041
  269MOL0     C36205  12.230   6.237   2.799 -0.7862  0.3399  0.4103
  269MOL0     C36206  12.326   6.141   2.766 -0.4193  0.3608  0.0812
  269MOL0     C36207  12.309   5.999   2.795  0.1525 -0.3335  0.0776
  269MOL0     C36208  12.396   5.894   2.736 -0.1676 -0.1827  0.5741
  269MOL0     C36209  12.210   5.971   2.897  0.2738 -0.5585 -0.1077
  269MOL0     C36210  12.194   5.845   2.972 -0.2014 -0.4832 -0.1191
  269MOL0     O36211  12.306   5.790   3.035 -0.1935 -0.5756  0.0747
  269MOL0     C36212  12.302   5.675   3.105 -0.3638  0.2184  0.3155
  269MOL0     C36213  12.215   5.646   3.207 -0.7390  0.0347  0.5959
  269MOL0     C36214  12.232   5.520   3.275  0.8982  0.9266 -0.2036
  269MOL0     C36215  12.331   5.435   3.257 -0.4347  0.3632 -0.3612
  269MOL0     O36216  12.350   5.321   3.335  0.8088  0.9333  0.1950
  269MOL0     C36217  12.456   5.328   3.425  0.5536 -0.0358 -0.2936
  269MOL0     C36218  12.484   5.179   3.449 -0.6291 -0.4670 -0.5731
  269MOL0     C36219  12.622   5.146   3.501 -0.2555 -0.2328 -0.0077
  269MOL0     C36220  12.633   5.171   3.654 -0.0796  0.0018  0.3904
  269MOL0     C36221  12.763   5.122   3.718 -0.5029  0.7150  0.0496
  269MOL0     C36222  12.752   4.974   3.755  0.7313 -0.0342 -0.8996
  269MOL0     C36223  12.890   4.911   3.798  0.2671  0.7554 -0.1402
  269MOL0     C36224  12.910   4.760   3.775  0.5782  0.3108 -0.6431
  269MOL0    Cl36225  12.795   4.657   3.873  0.0209 -0.3180  0.5156
  269MOL0     C36226  12.421   5.462   3.150 -0.8811  1.3795 -0.9421
  269MOL0     C36227  12.402   5.578   3.079 -1.1235  0.5767  0.0295
  269MOL0     O36228  12.081   5.791   2.969 -0.0743  0.1517  0.7250
  269MOL0     C36229  12.129   6.077   2.945  0.6988  0.0108  0.0640
  269MOL0     C36230  12.137   6.207   2.891  1.2090  0.0300 -0.5018
  269MOL0     N36231  11.731   6.423   2.523 -0.2636 -0.0568 -0.1055
  269MOL0     N36232  11.654   6.519   2.575  0.6612 -0.4672  0.3871
  269MOL0     C36233  11.146   7.541   2.941  1.0856 -0.3011  0.1028
  269MOL0     C36234  11.118   7.676   2.897  0.0462 -0.1021 -0.1957
  269MOL0     C36235  10.914   7.977   2.613 -0.5527 -0.2858  0.0145
  269MOL0     C36236  10.803   8.025   2.688  0.3328  1.0931  0.2869
  269MOL0     C36237  10.748   8.145   2.661  0.4526  0.0510  0.3570
  269MOL0     C36238  10.788   8.224   2.550  0.1313 -0.5412  0.9761
  269MOL0     O36239  10.730   8.340   2.515  0.3448  0.0234  0.7216
  269MOL0     C36240  10.818   8.440   2.547  0.1598 -1.1964  0.8599
  269MOL0     C36241  10.762   8.582   2.534 -0.8166  0.3468  0.8342
  269MOL0     C36242  10.638   8.601   2.622  0.7752 -0.0520 -0.3296
  269MOL0     C36243  10.564   8.740   2.611 -0.1739  0.1206  0.1798
  269MOL0     C36244  10.438   8.734   2.531 -0.6070 -0.0304  0.7761
  269MOL0     C36245  10.333   8.723   2.469  0.1420 -0.0667  0.2316
  269MOL0     C36246  10.899   8.181   2.476 -0.7756  1.0825  0.1522
  269MOL0     C36247  10.964   8.057   2.510 -0.5885  0.2707 -0.5926
  269MOL0     H36248  10.811   7.627   2.751 -1.6529 -1.7951  3.7809
  269MOL0     H36249  10.853   7.406   2.818  0.6454 -1.5183  2.8357
  269MOL0     H36250  11.192   7.269   2.808  3.5718  0.0520 -0.7027
  269MOL0     H36251  11.277   7.282   2.955  3.5265 -2.7734 -4.8038
  269MOL0     H36252  11.137   7.072   3.043 -0.6142 -0.0971  0.3220
  269MOL0     H36253  11.082   7.054   2.883  2.0577 -1.1511 -1.1682
  269MOL0     H36254  11.388   7.064   2.951  0.7020  1.2965 -3.3147
  269MOL0     H36255  11.299   6.917   2.954  0.7899 -0.6073 -1.0476
  269MOL0     H36256  11.223   6.975   2.723  0.3379 -0.9560  0.5291
  269MOL0     H36257  11.346   7.113   2.726  3.2879 -1.2138 -0.2907
  269MOL0     H36258  11.526   6.923   2.756  0.7270 -1.3983 -2.7262
  269MOL0     H36259  11.386   6.816   2.751 -1.0717  0.0696 -0.0132
  269MOL0     H36260  11.351   6.938   2.522 -0.1781 -0.6122  1.4323
  269MOL0     H36261  11.512   7.008   2.541 -0.6231  0.2196  0.7939
  269MOL0     H36262  11.446   6.708   2.532  2.4489 -0.4355  3.0998
  269MOL0     H36263  11.520   6.783   2.404 -2.5914 -1.3560 -1.4156
  269MOL0     H36264  11.645   6.751   2.678  0.7775 -2.0792  0.2079
  269MOL0     H36265  11.722   6.839   2.553 -1.0758  0.8250 -0.2530
  269MOL0     H36266  11.858   6.684   2.389 -3.6896  0.9429 -2.2318
  269MOL0     H36267  11.893   6.278   2.385  0.6660 -1.0398 -0.8657
  269MOL0     H36268  11.927   6.409   2.276  0.7030 -0.7004  0.6475
  269MOL0     H36269  12.082   6.511   2.428  0.1443  0.1643 -0.3164
  269MOL0     H36270  12.133   6.345   2.373 -3.2919 -4.0986  0.0598
  269MOL0     H36271  12.067   6.254   2.578  0.1770  0.2370 -3.2377
  269MOL0     H36272  12.005   6.414   2.642 -0.2823 -0.1272 -0.2288
  269MOL0     H36273  12.223   6.515   2.630 -0.1616 -0.0244  1.5097
  269MOL0     H36274  12.303   6.360   2.571  0.7451 -1.0388  1.7781
  269MOL0     H36275  12.407   6.184   2.708 -1.7734 -0.2688 -2.4133
  269MOL0     H36276  12.344   5.802   2.712  0.1156  0.2926 -2.0800
  269MOL0     H36277  12.439   5.914   2.637  2.6302  1.5855  1.9796
  269MOL0     H36278  12.478   5.870   2.805  1.2049  1.8098 -0.2516
  269MOL0     H36279  12.139   5.720   3.230  0.6997  0.8672  3.1075
  269MOL0     H36280  12.171   5.493   3.360  2.7652 -2.9080  0.0987
  269MOL0     H36281  12.546   5.367   3.377  2.1953 -1.8755  1.1348
  269MOL0     H36282  12.426   5.378   3.518 -0.2443  0.8582 -1.0101
  269MOL0     H36283  12.413   5.147   3.526 -1.0252  3.0069  0.6803
  269MOL0     H36284  12.464   5.125   3.355  1.7813  1.1257 -2.1060
  269MOL0     H36285  12.704   5.205   3.459 -0.8284 -0.3346 -1.3176
  269MOL0     H36286  12.645   5.042   3.475  0.6051 -0.0319 -0.0825
  269MOL0     H36287  12.609   5.277   3.666 -3.1553 -0.2778 -2.0229
  269MOL0     H36288  12.549   5.127   3.709 -1.8063  1.1244 -1.2258
  269MOL0     H36289  12.789   5.177   3.808  0.9481 -0.2621  0.2616
  269MOL0     H36290  12.846   5.133   3.647  0.6504  0.1330  1.2488
  269MOL0     H36291  12.683   4.952   3.837  1.4350 -1.1209 -0.5707
  269MOL0     H36292  12.714   4.923   3.666  0.8787 -1.3911 -0.2210
  269MOL0     H36293  12.916   4.945   3.899 -0.2323  2.6814 -0.6126
  269MOL0     H36294  12.962   4.946   3.723 -2.1454 -0.9003 -3.4439
  269MOL0     H36295  13.012   4.721   3.782 -0.0355 -1.1092  0.7491
  269MOL0     H36296  12.874   4.739   3.673  1.8052 -0.8105 -0.8746
  269MOL0     H36297  12.508   5.398   3.153  0.3704  3.0430  1.7031
  269MOL0     H36298  12.478   5.611   3.009 -0.3775 -0.1558  0.4703
  269MOL0     H36299  12.067   6.063   3.034  1.3769 -2.5745  0.2242
  269MOL0     H36300  12.069   6.286   2.918  1.9669 -0.0142  1.7096
  269MOL0     H36301  11.242   7.524   2.989  0.7686 -2.3639  0.1060
  269MOL0     H36302  11.187   7.757   2.919 -1.2184  0.5527  1.7152
  269MOL0     H36303  10.778   7.985   2.785 -0.3768  4.0366  1.4306
  269MOL0     H36304  10.672   8.198   2.717 -1.5882  2.1311 -3.9619
  269MOL0     H36305  10.847   8.437   2.653 -2.5215  2.1423  1.8754
  269MOL0     H36306  10.902   8.424   2.479 -1.0041  0.0358 -0.9615
  269MOL0     H36307  10.719   8.591   2.434 -0.2913 -2.7530  0.2235
  269MOL0     H36308  10.832   8.663   2.555  0.8152 -0.6117 -0.6301
  269MOL0     H36309  10.670   8.579   2.725  0.6254  0.3891 -0.1836
  269MOL0     H36310  10.554   8.532   2.608 -0.1959  0.8078  0.9714
  269MOL0     H36311  10.633   8.797   2.548 -0.1465  2.0137  1.8234
  269MOL0     H36312  10.565   8.790   2.708  0.4314  4.0308 -1.6502
  269MOL0     H36313  10.255   8.692   2.402  0.9584 -0.6935 -0.4584
  269MOL0     H36314  10.946   8.230   2.391 -0.9999 -1.1623 -1.3353
  269MOL0     H36315  11.059   8.020   2.471 -1.0482 -1.3515 -0.2534
  270MOL0     O36316   5.927   0.737   9.521  0.5888  0.8206  0.0159
  270MOL0     C36317   5.977   0.739   9.631 -1.1191  0.7080 -1.2958
  270MOL0     O36318   5.970   0.841   9.726  0.0854  0.9780 -1.1421
  270MOL0     C36319   5.875   0.939   9.723 -0.4472 -0.8396 -0.6209
  270MOL0     C36320   5.914   1.067   9.774  0.0547 -0.4197 -0.4519
  270MOL0     C36321   5.818   1.175   9.779  0.1412 -0.2518  0.1487
  270MOL0     C36322   5.693   1.152   9.750  0.6037  1.2814  0.5591
  270MOL0     O36323   5.612   1.262   9.747 -0.2087 -0.0628  0.0739
  270MOL0     C36324   5.563   1.293   9.872  0.9511 -1.0213 -1.1133
  270MOL0     C36325   5.448   1.400   9.856 -0.4354 -1.2034  0.1576
  270MOL0     C36326   5.399   1.455   9.990  0.8711 -0.7326 -0.3789
  270MOL0     C36327   5.332   1.352  10.076 -0.0502 -0.5725 -0.3036
  270MOL0     C36328   5.263   1.404  10.189  0.2602 -0.6929  0.7848
  270MOL0     C36329   5.357   1.486  10.277  0.2476 -0.4353  0.4538
  270MOL0     C36330   5.291   1.564  10.379  0.7566  0.4923  0.2484
  270MOL0     C36331   5.380   1.620  10.488  0.6156 -0.2400 -0.2660
  270MOL0     N36332   5.508   1.675  10.442 -0.0557 -0.4741  0.0069
  270MOL0     C36333   5.511   1.791  10.362 -0.9884 -0.4361 -0.9335
  270MOL0     C36334   5.649   1.814  10.340 -0.3684  0.4968  0.0459
  270MOL0     C36335   5.725   1.932  10.272 -0.6562  0.9753  0.2806
  270MOL0     C36336   5.747   1.899  10.135 -0.1298  0.5468 -0.6165
  270MOL0     C36337   5.657   1.988  10.046 -0.4491 -0.4198  0.2459
  270MOL0     C36338   5.667   1.945   9.897 -0.2830 -0.5465  0.3715
  270MOL0     O36339   5.601   2.058   9.828 -0.2727  0.3571 -0.2342
  270MOL0     C36340   5.670   2.163   9.780 -0.1197  0.0642  0.7239
  270MOL0     C36341   5.617   2.244   9.674  0.3167 -0.9168  0.2374
  270MOL0     C36342   5.690   2.360   9.627  0.1499  0.0780 -0.0781
  270MOL0     C36343   5.611   2.453   9.543 -0.0418 -0.0180 -0.6228
  270MOL0     C36344   5.820   2.377   9.668 -0.5122 -0.7157 -0.0672
  270MOL0     C36345   5.910   2.484   9.615  1.0174 -0.0707 -0.0855
  270MOL0     O36346   6.028   2.510   9.676 -0.3792 -0.5207  0.2658
  270MOL0     C36347   6.115   2.608   9.631  0.8483 -0.0021  0.4340
  270MOL0     C36348   6.176   2.686   9.743  0.4022 -0.2284 -0.3202
  270MOL0     C36349   6.255   2.799   9.715  0.0315 -0.7109  0.0599
  270MOL0     C36350   6.291   2.822   9.584 -0.0152  0.3346  0.8045
  270MOL0     O36351   6.364   2.934   9.550 -0.1080 -0.2472 -0.1259
  270MOL0     C36352   6.404   3.025   9.658  0.6001  0.4674  0.3897
  270MOL0     C36353   6.462   3.160   9.597  0.1185  0.5126  0.6035
  270MOL0     C36354   6.358   3.266   9.555  0.4630 -0.0015 -0.6576
  270MOL0     C36355   6.425   3.392   9.496 -0.5459  0.2473 -0.4464
  270MOL0     C36356   6.354   3.514   9.532  0.5072  0.5450 -0.7980
  270MOL0     C36357   6.422   3.636   9.491  0.8474  0.6184 -0.6868
  270MOL0     C36358   6.355   3.760   9.539  0.2160 -0.8856  0.6072
  270MOL0     C36359   6.416   3.885   9.483  0.5673 -0.9080  0.2275
  270MOL0    Cl36360   6.359   3.910   9.310 -0.5284  0.1346 -0.5048
  270MOL0     C36361   6.236   2.755   9.479 -0.5663  0.2017  0.6598
  270MOL0     C36362   6.151   2.649   9.500 -0.2316  0.5715 -0.4425
  270MOL0     O36363   5.868   2.538   9.510 -0.7608 -0.1708  0.3819
  270MOL0     C36364   5.873   2.285   9.764  0.4865  0.6742 -0.4464
  270MOL0     C36365   5.795   2.180   9.817  0.1078 -0.2103  0.6557
  270MOL0     N36366   5.720   1.718  10.413  0.5645 -0.4393 -0.5148
  270MOL0     N36367   5.637   1.629  10.468 -0.0986 -0.2345  0.2893
  270MOL0     C36368   5.650   1.031   9.695 -0.1116 -0.0651  0.6385
  270MOL0     C36369   5.741   0.925   9.682  0.6548  0.1908  0.1448
  270MOL0     C36370   6.063   0.621   9.669 -0.0899  0.5146  0.7544
  270MOL0     C36371   6.154   0.624   9.777  0.3843 -0.0558  0.0183
  270MOL0     C36372   6.250   0.511   9.804  0.5222 -0.3657  0.0266
  270MOL0     C36373   6.253   0.406   9.710  0.4054  0.3934  0.0346
  270MOL0     O36374   6.335   0.302   9.715 -0.5831  0.2025 -0.6392
  270MOL0     C36375   6.281   0.210   9.816 -0.9098  0.0824  0.5345
  270MOL0     C36376   6.321   0.074   9.776 -0.2097  0.1474 -0.7783
  270MOL0     C36377   6.208   0.005   9.705 -0.1978  0.9571 -0.0999
  270MOL0     C36378   6.259  -0.130   9.637  0.5414  0.5916  0.6376
  270MOL0     C36379   6.289  -0.240   9.732  0.3734 -0.1915 -0.9910
  270MOL0     C36380   6.315  -0.324   9.811  0.8235 -0.0591 -0.6569
  270MOL0     C36381   6.171   0.409   9.598  0.4232  0.1217  0.0289
  270MOL0     C36382   6.074   0.509   9.577 -0.1257  0.4429 -0.1957
  270MOL0     H36383   6.013   1.092   9.810 -0.8471  3.6346 -0.3459
  270MOL0     H36384   5.842   1.277   9.809 -0.7361  0.0195 -0.0115
  270MOL0     H36385   5.526   1.206   9.927  3.4773 -0.1517  2.3126
  270MOL0     H36386   5.635   1.341   9.940 -1.7838  0.8064  0.7280
  270MOL0     H36387   5.487   1.483   9.796 -2.2008 -1.9564 -2.1910
  270MOL0     H36388   5.362   1.363   9.799 -0.6315  2.4527 -2.2582
  270MOL0     H36389   5.490   1.499  10.033  2.0937  0.5361 -3.9184
  270MOL0     H36390   5.325   1.533   9.971  0.5980 -0.8270  0.2878
  270MOL0     H36391   5.264   1.284  10.024 -0.7843 -2.0818  2.4221
  270MOL0     H36392   5.407   1.282  10.114 -0.3570 -1.1827 -0.8084
  270MOL0     H36393   5.187   1.471  10.149  3.3405  2.6071  0.0018
  270MOL0     H36394   5.224   1.312  10.235 -1.6264 -0.3581 -0.0598
  270MOL0     H36395   5.423   1.416  10.330  1.9550  0.4988 -0.3401
  270MOL0     H36396   5.425   1.551  10.220  2.9414 -0.5159  3.3134
  270MOL0     H36397   5.233   1.636  10.320  0.4838 -0.8070 -1.1106
  270MOL0     H36398   5.218   1.508  10.437 -0.0544  1.3350  0.0742
  270MOL0     H36399   5.396   1.550  10.571 -2.7016  1.9514  2.4791
  270MOL0     H36400   5.314   1.699  10.522 -1.0783 -0.5391 -2.5853
  270MOL0     H36401   5.434   1.858  10.327 -1.0324  0.7805  1.3297
  270MOL0     H36402   5.667   2.022  10.293 -1.7417  0.6954 -1.3727
  270MOL0     H36403   5.824   1.950  10.315 -0.0246 -1.9321  0.2615
  270MOL0     H36404   5.752   1.792  10.111  2.5728  0.6651 -0.9262
  270MOL0     H36405   5.846   1.934  10.103  0.4590  1.0010  1.5368
  270MOL0     H36406   5.690   2.090  10.065 -1.8809  0.5397 -2.0518
  270MOL0     H36407   5.553   1.979  10.080  0.3974 -0.7675  3.0524
  270MOL0     H36408   5.610   1.852   9.896 -1.1288 -0.4063  5.6240
  270MOL0     H36409   5.771   1.939   9.866 -1.0321  1.9404 -3.2124
  270MOL0     H36410   5.515   2.216   9.649 -0.0222 -1.5114  2.1245
  270MOL0     H36411   5.635   2.451   9.436  0.4652 -2.1565 -0.5212
  270MOL0     H36412   5.508   2.419   9.556 -0.0871 -1.0750 -3.0852
  270MOL0     H36413   5.609   2.558   9.571  1.4915  0.5143 -2.3107
  270MOL0     H36414   6.169   2.656   9.847 -1.2926  0.1956 -0.2913
  270MOL0     H36415   6.291   2.855   9.801  0.4229  2.7007 -2.1473
  270MOL0     H36416   6.328   3.052   9.732  1.1928 -2.5091  2.2518
  270MOL0     H36417   6.481   2.966   9.709 -0.9402 -0.2130  2.0344
  270MOL0     H36418   6.523   3.199   9.678 -0.8600 -1.7828  2.5611
  270MOL0     H36419   6.521   3.146   9.506 -1.1275  0.4319 -0.2131
  270MOL0     H36420   6.318   3.304   9.649 -0.8071 -0.9797 -0.7751
  270MOL0     H36421   6.278   3.227   9.491  0.1848  2.0542 -1.6493
  270MOL0     H36422   6.529   3.394   9.530  0.1948 -1.7366 -2.3528
  270MOL0     H36423   6.433   3.380   9.388  1.0148  0.5759 -0.3771
  270MOL0     H36424   6.349   3.517   9.641  2.6853 -0.7348 -0.6055
  270MOL0     H36425   6.252   3.515   9.491  0.1122  0.3822  0.1559
  270MOL0     H36426   6.526   3.630   9.522 -0.3251 -0.4995  3.6127
  270MOL0     H36427   6.422   3.645   9.381  0.9090 -1.9693 -0.9514
  270MOL0     H36428   6.371   3.758   9.648  0.5964 -1.7085  0.5443
  270MOL0     H36429   6.250   3.760   9.506  0.5481  1.4832 -0.6416
  270MOL0     H36430   6.376   3.971   9.537 -0.7883 -0.5003 -1.3586
  270MOL0     H36431   6.523   3.864   9.492  0.7809 -1.8487 -3.2064
  270MOL0     H36432   6.264   2.793   9.381  0.5083 -1.6465  0.1992
  270MOL0     H36433   6.106   2.604   9.413  0.8908  2.0080 -1.8261
  270MOL0     H36434   5.968   2.306   9.811  0.2595  0.7729 -0.0272
  270MOL0     H36435   5.838   2.134   9.905 -1.2077 -0.8856  0.9751
  270MOL0     H36436   5.549   1.032   9.654  0.7636 -1.4438 -1.7641
  270MOL0     H36437   5.705   0.832   9.638  1.2652 -0.1221  0.2885
  270MOL0     H36438   6.148   0.704   9.850  1.0752  2.3361 -2.3766
  270MOL0     H36439   6.323   0.513   9.884  2.1407 -0.1074 -1.3867
  270MOL0     H36440   6.326   0.228   9.914  1.8521  1.4985 -0.8922
  270MOL0     H36441   6.173   0.206   9.833 -1.2865  4.3159  0.0489
  270MOL0     H36442   6.359   0.014   9.859  0.4481  0.5426 -0.7797
  270MOL0     H36443   6.410   0.081   9.712 -0.0458 -2.6660 -0.9777
  270MOL0     H36444   6.171   0.069   9.624  1.9339 -0.9436 -2.7729
  270MOL0     H36445   6.128  -0.009   9.779  0.0146  0.4195  0.0386
  270MOL0     H36446   6.341  -0.112   9.568  0.6447 -1.9478  0.0198
  270MOL0     H36447   6.175  -0.153   9.570  0.5558  0.2382  0.7407
  270MOL0     H36448   6.320  -0.400   9.886  1.8739 -0.8159 -1.4548
  270MOL0     H36449   6.179   0.326   9.528 -1.8248  0.4324 -0.6534
  270MOL0     H36450   5.997   0.506   9.501  0.4788  2.3908 -0.9440
  271MOL0     O36451   5.475   9.240   4.640 -1.1759 -0.3657  0.2011
  271MOL0     C36452   5.578   9.207   4.579  0.0332  0.0223 -0.4465
  271MOL0     O36453   5.582   9.152   4.458  0.0599 -0.2249 -0.2040
  271MOL0     C36454   5.468   9.087   4.421 -0.3244 -0.7551  0.4212
  271MOL0     C36455   5.430   9.114   4.287  0.3943  0.5602 -1.3200
  271MOL0     C36456   5.331   9.054   4.224 -0.1423  0.6751  0.9166
  271MOL0     C36457   5.236   8.972   4.294  0.8222  0.2484 -0.9570
  271MOL0     O36458   5.122   8.907   4.246 -0.1630 -1.0749  0.1582
  271MOL0     C36459   5.029   8.998   4.170  0.4349  0.3994  0.2648
  271MOL0     C36460   4.898   8.921   4.165  0.3510  0.1365 -0.0575
  271MOL0     C36461   4.914   8.778   4.104  0.0143 -0.5311  0.1268
  271MOL0     C36462   4.907   8.683   4.218  0.5383  0.4734 -1.0003
  271MOL0     C36463   4.928   8.535   4.164 -0.2352  0.2649  0.9723
  271MOL0     C36464   4.942   8.439   4.275  0.3759  0.6276 -1.2485
  271MOL0     C36465   4.967   8.303   4.220 -0.2749 -0.4969  0.8849
  271MOL0     C36466   4.966   8.198   4.335  0.1665  0.5843 -1.0936
  271MOL0     N36467   4.829   8.169   4.384  0.7619  0.1672  0.4210
  271MOL0     C36468   4.726   8.123   4.303 -0.4240  0.6298  1.0071
  271MOL0     C36469   4.624   8.099   4.390  0.5148 -0.1963 -0.7054
  271MOL0     C36470   4.480   8.068   4.364 -0.1726 -0.6434 -0.3902
  271MOL0     C36471   4.460   8.004   4.223 -1.0173  0.4418 -0.2186
  271MOL0     C36472   4.318   7.980   4.214 -0.1361 -0.2518 -0.4162
  271MOL0     C36473   4.263   8.005   4.069 -0.0914  0.5999  0.1678
  271MOL0     O36474   4.286   7.884   4.002 -0.5979  0.2922  0.0740
  271MOL0     C36475   4.236   7.889   3.872 -0.3490  0.2688 -1.1216
  271MOL0     C36476   4.220   7.764   3.810  0.4290 -0.3750  0.9474
  271MOL0     C36477   4.165   7.762   3.674  0.9470  0.2503  0.3881
  271MOL0     C36478   4.145   7.626   3.609  0.5521 -0.6712  0.2693
  271MOL0     C36479   4.125   7.881   3.608  0.0979 -1.2717  0.7274
  271MOL0     C36480   4.062   7.896   3.474 -0.1908 -0.0717 -0.3756
  271MOL0     O36481   4.051   8.021   3.424 -0.5257  0.7386  0.1103
  271MOL0     C36482   4.030   8.028   3.291  0.2772  0.0026 -0.5141
  271MOL0     C36483   3.938   8.133   3.238 -0.1937 -0.7830 -0.4736
  271MOL0     C36484   3.930   8.154   3.096 -0.4693  0.0720  0.1338
  271MOL0     C36485   4.012   8.081   3.011  0.6647 -0.4394  0.1373
  271MOL0     O36486   4.003   8.107   2.872  0.3351 -0.7211 -0.2823
  271MOL0     C36487   3.932   8.000   2.799 -0.4102 -0.6367 -0.4541
  271MOL0     C36488   3.980   8.017   2.656 -0.0757  0.0751 -0.0684
  271MOL0     C36489   4.131   7.984   2.632 -0.4411  0.3663  0.1676
  271MOL0     C36490   4.185   8.020   2.493 -0.0502  0.3112  0.1558
  271MOL0     C36491   4.326   7.970   2.482 -0.7397 -0.1456  0.3125
  271MOL0     C36492   4.369   7.986   2.339  1.4518 -0.1526 -0.2180
  271MOL0     C36493   4.488   7.903   2.306 -0.2763  0.1184 -0.9697
  271MOL0     C36494   4.548   7.900   2.172  0.3217 -0.7480  0.3573
  271MOL0    Cl36495   4.566   7.737   2.106  0.0828 -0.5218  0.1180
  271MOL0     C36496   4.102   7.990   3.060 -0.1055  1.2002  0.0034
  271MOL0     C36497   4.111   7.966   3.192 -0.2145 -0.2269 -0.2459
  271MOL0     O36498   4.001   7.801   3.430  0.5219  0.5694 -0.1801
  271MOL0     C36499   4.148   8.008   3.673 -0.2364  0.1790 -0.4169
  271MOL0     C36500   4.211   8.009   3.799  0.2381 -0.0491  0.8911
  271MOL0     N36501   4.667   8.135   4.516 -0.2047 -0.5186 -0.0027
  271MOL0     N36502   4.790   8.185   4.507  0.7153  1.0777  0.1849
  271MOL0     C36503   5.265   8.951   4.431 -0.4108  0.8606 -0.4760
  271MOL0     C36504   5.393   8.995   4.491 -0.2650 -1.2718  0.4043
  271MOL0     C36505   5.702   9.234   4.644 -0.0726  0.8883 -0.5840
  271MOL0     C36506   5.719   9.273   4.775  0.2032 -0.1582  0.4492
  271MOL0     C36507   5.843   9.284   4.838 -0.2014  0.3678  0.2681
  271MOL0     C36508   5.961   9.276   4.760  0.3910 -0.0305 -0.1635
  271MOL0     O36509   6.087   9.301   4.810  0.5583 -0.6770 -0.3181
  271MOL0     C36510   6.114   9.235   4.929  0.1980 -0.0197  0.2332
  271MOL0     C36511   6.066   9.093   4.944 -0.7195 -0.7277  0.4415
  271MOL0     C36512   6.155   8.996   4.853  1.0240  0.6721  0.1068
  271MOL0     C36513   6.199   8.861   4.920 -0.0505  0.3482 -0.4765
  271MOL0     C36514   6.116   8.751   4.903  0.8204 -0.6987  0.4598
  271MOL0     C36515   6.055   8.652   4.882 -0.7419 -0.5556 -0.4362
  271MOL0     C36516   5.950   9.247   4.628 -0.4562 -0.3166  0.3670
  271MOL0     C36517   5.826   9.218   4.571 -0.1043  1.0934  0.6008
  271MOL0     H36518   5.487   9.187   4.231  1.2071  3.7343  3.0896
  271MOL0     H36519   5.304   9.075   4.121 -0.5450 -0.2946  0.8093
  271MOL0     H36520   5.010   9.096   4.215  0.0205  0.4062  0.0772
  271MOL0     H36521   5.059   9.009   4.066 -0.7015 -3.9757 -0.7294
  271MOL0     H36522   4.858   8.912   4.266  3.0281 -1.6440  0.9400
  271MOL0     H36523   4.827   8.977   4.104  1.1702  0.7926 -0.4264
  271MOL0     H36524   4.826   8.755   4.042 -0.1211  0.3890 -0.0481
  271MOL0     H36525   5.008   8.768   4.050  0.5813  3.3129  0.1251
  271MOL0     H36526   4.978   8.718   4.294 -2.7748  0.9336  2.1795
  271MOL0     H36527   4.809   8.694   4.266  1.0637  4.4829 -0.4458
  271MOL0     H36528   4.850   8.506   4.093  1.1927  0.7737 -0.8788
  271MOL0     H36529   5.016   8.531   4.100  0.6303  1.6005  2.0240
  271MOL0     H36530   5.026   8.453   4.344  0.0492 -0.7289 -0.5326
  271MOL0     H36531   4.852   8.434   4.336  0.8031 -0.5822 -0.6818
  271MOL0     H36532   4.888   8.276   4.150 -0.7196  0.9544  0.7770
  271MOL0     H36533   5.057   8.296   4.159 -3.3635  1.6859 -4.6653
  271MOL0     H36534   5.031   8.230   4.416 -0.6045 -0.7075  0.0793
  271MOL0     H36535   4.997   8.101   4.294 -1.2510  0.7772 -2.7876
  271MOL0     H36536   4.722   8.117   4.195 -2.8894  1.8188  0.9651
  271MOL0     H36537   4.452   7.993   4.439  1.4284 -0.7682  0.1370
  271MOL0     H36538   4.421   8.156   4.387 -2.1981 -2.6558  3.0440
  271MOL0     H36539   4.504   7.906   4.203 -2.4390  0.3458 -3.4260
  271MOL0     H36540   4.504   8.070   4.149  0.3106 -1.1439 -0.9021
  271MOL0     H36541   4.256   8.040   4.281 -1.5409  0.6024 -2.3899
  271MOL0     H36542   4.301   7.876   4.243  0.2401  0.0485  0.9555
  271MOL0     H36543   4.316   8.093   4.033  0.7799 -0.5277 -1.4267
  271MOL0     H36544   4.155   8.023   4.073 -0.3870 -1.0263  0.6700
  271MOL0     H36545   4.244   7.665   3.847  1.1615 -1.9537 -3.2091
  271MOL0     H36546   4.193   7.545   3.665  2.8587 -0.3528 -1.1328
  271MOL0     H36547   4.042   7.594   3.594  0.7186 -0.1898 -2.3473
  271MOL0     H36548   4.197   7.627   3.513  2.3941 -0.6491  1.2243
  271MOL0     H36549   3.888   8.202   3.305  2.4353  0.3665  0.4511
  271MOL0     H36550   3.865   8.232   3.058  2.3976  2.2562 -0.6418
  271MOL0     H36551   3.968   7.906   2.842  1.0630 -0.0384 -0.3319
  271MOL0     H36552   3.823   8.004   2.807 -0.4289 -1.0422 -0.4723
  271MOL0     H36553   3.915   7.955   2.594  0.3823 -1.8049  1.2312
  271MOL0     H36554   3.965   8.120   2.625  1.4216  1.4222  3.1825
  271MOL0     H36555   4.148   7.875   2.632 -1.4478  0.1742 -1.6577
  271MOL0     H36556   4.194   8.030   2.709 -1.8321  2.5176  0.0879
  271MOL0     H36557   4.130   7.980   2.407  0.7827  3.1612 -1.8345
  271MOL0     H36558   4.183   8.129   2.486 -0.7839  0.2842 -0.1408
  271MOL0     H36559   4.337   7.867   2.517 -0.1178 -0.7418 -1.5062
  271MOL0     H36560   4.375   8.035   2.556  0.7704  1.1030 -1.6704
  271MOL0     H36561   4.288   7.962   2.270 -2.6043  0.7730  3.7656
  271MOL0     H36562   4.383   8.094   2.327  0.1250  0.3654  2.2667
  271MOL0     H36563   4.451   7.803   2.330 -1.1511  1.0338  1.9599
  271MOL0     H36564   4.570   7.925   2.375 -2.7894  1.7997  1.7441
  271MOL0     H36565   4.637   7.963   2.172  0.2162 -0.5662 -1.0838
  271MOL0     H36566   4.475   7.957   2.114  0.3721 -0.7626  0.2785
  271MOL0     H36567   4.170   7.936   2.994 -2.5974  0.6022 -2.2770
  271MOL0     H36568   4.182   7.901   3.241 -2.2662 -0.2580  3.0235
  271MOL0     H36569   4.138   8.095   3.608  0.7165 -0.4407 -1.4313
  271MOL0     H36570   4.242   8.103   3.843  4.3894 -1.7170  2.0158
  271MOL0     H36571   5.193   8.884   4.476  0.3561  0.3364 -0.0168
  271MOL0     H36572   5.408   8.987   4.598 -0.1673  3.5866  0.9865
  271MOL0     H36573   5.625   9.291   4.827 -0.1557  1.2022 -0.6153
  271MOL0     H36574   5.855   9.299   4.945  0.4893  0.2730  0.2113
  271MOL0     H36575   6.219   9.250   4.955  0.5473 -0.0542 -1.0837
  271MOL0     H36576   6.052   9.283   5.005 -1.6025  2.0214 -2.3172
  271MOL0     H36577   5.960   9.066   4.942 -1.1107  0.6364  1.3119
  271MOL0     H36578   6.089   9.064   5.047  3.1978 -0.4908 -0.2005
  271MOL0     H36579   6.253   9.043   4.841  1.3210  0.4913  1.6030
  271MOL0     H36580   6.098   8.972   4.763  0.1836  1.1690  0.4938
  271MOL0     H36581   6.234   8.872   5.023 -0.1591 -1.9662 -0.1462
  271MOL0     H36582   6.291   8.815   4.885  1.4241  0.9225  2.3200
  271MOL0     H36583   5.994   8.564   4.881 -1.0343 -0.3640 -1.9163
  271MOL0     H36584   6.041   9.235   4.570 -0.3673  2.3207 -0.1717
  271MOL0     H36585   5.816   9.199   4.464 -0.9210 -0.2069  0.8779
  272MOL0     O36586   3.422  10.368   0.502 -0.0338 -0.5309  0.0833
  272MOL0     C36587   3.490  10.358   0.606 -0.1435 -0.2695 -0.0418
  272MOL0     O36588   3.505  10.241   0.672 -0.0112 -0.6928 -0.1925
  272MOL0     C36589   3.433  10.129   0.639  0.1401  0.3198  0.2706
  272MOL0     C36590   3.492  10.027   0.562 -0.1535 -0.3904 -0.0830
  272MOL0     C36591   3.412   9.918   0.523 -0.2690  0.8204  0.1450
  272MOL0     C36592   3.275   9.913   0.545  0.6378  0.4414 -0.2692
  272MOL0     O36593   3.203   9.811   0.489 -0.5583 -0.3250 -0.4182
  272MOL0     C36594   3.059   9.827   0.459 -0.2064  0.1985 -0.0805
  272MOL0     C36595   3.001   9.685   0.440 -0.6226 -0.7395 -0.1075
  272MOL0     C36596   2.997   9.606   0.569 -0.0265 -0.3621 -0.0827
  272MOL0     C36597   2.871   9.509   0.589 -0.8562  0.8065 -0.2249
  272MOL0     C36598   2.871   9.431   0.722 -0.6477  0.0842 -0.1812
  272MOL0     C36599   2.744   9.351   0.746  0.7178 -0.3028 -0.7647
  272MOL0     C36600   2.678   9.277   0.624 -0.0262  0.5994 -0.3444
  272MOL0     C36601   2.526   9.264   0.643  0.2854 -0.0568 -0.0771
  272MOL0     N36602   2.473   9.119   0.620 -1.5553  0.0421  0.4051
  272MOL0     C36603   2.423   9.072   0.501 -1.0259  0.3557  0.8224
  272MOL0     C36604   2.371   8.957   0.527  1.0916  0.1376 -0.5752
  272MOL0     C36605   2.295   8.863   0.428  0.2212 -1.2441  0.1797
  272MOL0     C36606   2.362   8.720   0.434 -0.1153  0.0576 -0.1030
  272MOL0     C36607   2.263   8.630   0.355 -0.4383 -0.4358  0.2831
  272MOL0     C36608   2.345   8.499   0.313  0.5249  0.3301  0.4198
  272MOL0     O36609   2.447   8.527   0.213  0.3768  0.6140  0.0999
  272MOL0     C36610   2.482   8.440   0.117 -0.9979 -1.2507 -0.2839
  272MOL0     C36611   2.458   8.305   0.131 -0.2860  0.4773  0.2307
  272MOL0     C36612   2.487   8.216   0.027  0.0807 -0.5289  0.2558
  272MOL0     C36613   2.451   8.073   0.050 -0.0455  0.1705 -0.1608
  272MOL0     C36614   2.549   8.264  -0.093 -0.0571 -0.0930 -0.2054
  272MOL0     C36615   2.591   8.168  -0.199  0.5663  0.6759  0.5668
  272MOL0     O36616   2.652   8.227  -0.307 -0.1790 -0.5590  0.1935
  272MOL0     C36617   2.725   8.145  -0.389 -0.5412  0.6034  0.7804
  272MOL0     C36618   2.664   8.068  -0.486  0.3078  0.2374 -0.6462
  272MOL0     C36619   2.740   8.004  -0.572 -0.0962  0.4337  0.5244
  272MOL0     C36620   2.879   7.989  -0.540  1.4273 -1.0163  0.2285
  272MOL0     O36621   2.970   7.930  -0.620 -0.7753 -0.3034 -0.5776
  272MOL0     C36622   2.937   7.804  -0.698 -0.8251  0.8564 -0.3986
  272MOL0     C36623   3.057   7.721  -0.735 -0.8569 -0.2546 -0.3880
  272MOL0     C36624   3.147   7.773  -0.844  0.4792 -0.2445 -0.4884
  272MOL0     C36625   3.281   7.706  -0.857 -1.1014  0.2612  0.8174
  272MOL0     C36626   3.271   7.554  -0.876 -1.0886  0.2775  0.8503
  272MOL0     C36627   3.407   7.502  -0.911 -0.1913 -0.4305 -0.0842
  272MOL0     C36628   3.417   7.354  -0.933  0.1870 -0.1067 -0.0958
  272MOL0     C36629   3.559   7.316  -0.969 -0.2034 -0.3076 -0.7810
  272MOL0    Cl36630   3.609   7.403  -1.121  0.0711 -0.1662  0.2654
  272MOL0     C36631   2.931   8.043  -0.429  0.1358  0.3992  0.5504
  272MOL0     C36632   2.857   8.131  -0.360  0.0747 -0.2238  0.0221
  272MOL0     O36633   2.571   8.048  -0.190  0.3132  0.8406 -0.3268
  272MOL0     C36634   2.565   8.406  -0.109  0.4392 -0.0031  0.4749
  272MOL0     C36635   2.530   8.486   0.002  0.1156 -0.3295  0.1858
  272MOL0     N36636   2.401   8.921   0.657 -0.3301 -0.3053  0.8251
  272MOL0     N36637   2.466   9.015   0.718  0.3004  0.2217  0.0666
  272MOL0     C36638   3.215  10.017   0.618 -0.6896 -0.2462 -0.9608
  272MOL0     C36639   3.295  10.124   0.670  0.8211 -0.0203 -0.3017
  272MOL0     C36640   3.562  10.478   0.658 -0.0730  0.0785 -0.2860
  272MOL0     C36641   3.656  10.481   0.761  0.6824  0.4969 -0.2391
  272MOL0     C36642   3.709  10.596   0.810  0.4179 -0.4412 -0.4585
  272MOL0     C36643   3.679  10.717   0.753  1.3455  0.3048  0.8183
  272MOL0     O36644   3.730  10.828   0.818  0.0310 -0.1845  0.8136
  272MOL0     C36645   3.682  10.959   0.776  0.9862 -0.6174  0.1530
  272MOL0     C36646   3.575  10.991   0.883 -0.4442 -0.2319  0.6267
  272MOL0     C36647   3.497  11.118   0.866  0.1021 -0.5908  0.7646
  272MOL0     C36648   3.403  11.119   0.747 -0.3522 -0.3075  0.0009
  272MOL0     C36649   3.273  11.061   0.774 -0.5757  0.7631  0.5788
  272MOL0     C36650   3.170  10.997   0.793  0.3129  0.2496 -0.4323
  272MOL0     C36651   3.579  10.718   0.644  0.6008 -0.5429 -0.6037
  272MOL0     C36652   3.526  10.599   0.604  0.7571  0.7032 -0.5636
  272MOL0     H36653   3.596  10.033   0.532  0.8512 -2.5677  2.5423
  272MOL0     H36654   3.465   9.847   0.461  2.2537  4.1591 -1.8496
  272MOL0     H36655   2.995   9.872   0.535 -3.3071 -0.4648 -2.0958
  272MOL0     H36656   3.049   9.883   0.365  0.0086 -3.6511 -2.6519
  272MOL0     H36657   2.897   9.708   0.416 -0.2385  0.2523 -0.8964
  272MOL0     H36658   3.054   9.626   0.364  1.1370 -0.2504  0.6825
  272MOL0     H36659   3.080   9.536   0.579 -0.4222 -0.9794 -0.9892
  272MOL0     H36660   3.012   9.678   0.651 -0.4327  0.6677 -0.8856
  272MOL0     H36661   2.771   9.550   0.574 -1.6675 -1.1698 -0.6535
  272MOL0     H36662   2.898   9.439   0.509 -0.6115  2.9082 -2.0510
  272MOL0     H36663   2.954   9.359   0.711 -2.6808 -2.5228  0.4945
  272MOL0     H36664   2.898   9.482   0.815 -2.3308 -2.3453  1.7823
  272MOL0     H36665   2.786   9.280   0.818 -0.9369  0.0199  0.5794
  272MOL0     H36666   2.672   9.416   0.797  2.3009  2.0998 -1.3965
  272MOL0     H36667   2.697   9.324   0.527  1.3848 -0.9004 -0.8479
  272MOL0     H36668   2.713   9.174   0.629 -0.2402  0.5409 -0.0232
  272MOL0     H36669   2.481   9.346   0.585 -0.7346  0.2513  1.0974
  272MOL0     H36670   2.512   9.293   0.747 -2.2342  0.1279 -0.4137
  272MOL0     H36671   2.419   9.126   0.407 -0.1762 -0.7402  0.1358
  272MOL0     H36672   2.186   8.868   0.441  0.4059 -0.1028  1.5123
  272MOL0     H36673   2.313   8.908   0.330 -0.0912  0.0891  0.7089
  272MOL0     H36674   2.376   8.675   0.533 -0.6025  1.3167  0.5750
  272MOL0     H36675   2.461   8.720   0.389 -0.4006  1.4471 -0.8072
  272MOL0     H36676   2.230   8.683   0.265  5.0607  1.1891 -1.1430
  272MOL0     H36677   2.176   8.612   0.419 -0.3610  1.6109  1.0399
  272MOL0     H36678   2.264   8.435   0.276 -0.2543  0.3347  2.0068
  272MOL0     H36679   2.379   8.440   0.398 -1.0799 -0.1878  0.7487
  272MOL0     H36680   2.422   8.261   0.223 -1.1893  0.6351 -0.0453
  272MOL0     H36681   2.533   8.001   0.058 -1.9388 -1.9849  1.1784
  272MOL0     H36682   2.392   8.079   0.143  0.1149  2.8085 -0.1364
  272MOL0     H36683   2.386   8.031  -0.028  1.4470 -0.7376 -0.9476
  272MOL0     H36684   2.558   8.084  -0.501  0.5269  1.3675 -1.1560
  272MOL0     H36685   2.698   7.962  -0.663  2.5800 -0.7139 -0.2813
  272MOL0     H36686   2.867   7.751  -0.633 -2.4019  0.4842 -2.3142
  272MOL0     H36687   2.882   7.822  -0.791  0.0721  0.4460 -1.0283
  272MOL0     H36688   3.112   7.702  -0.642 -2.2940 -3.7281 -0.0638
  272MOL0     H36689   3.018   7.624  -0.768  1.4882 -0.7539 -1.9169
  272MOL0     H36690   3.173   7.879  -0.837  0.1131 -0.0644 -1.6328
  272MOL0     H36691   3.097   7.752  -0.939 -2.0865 -0.3594  0.7941
  272MOL0     H36692   3.324   7.748  -0.948 -1.2670 -1.3894 -0.0463
  272MOL0     H36693   3.350   7.726  -0.775 -1.4202 -0.9010  1.3974
  272MOL0     H36694   3.208   7.532  -0.963  0.5326 -1.4744  0.0566
  272MOL0     H36695   3.234   7.507  -0.784  0.3799  0.2825  1.4670
  272MOL0     H36696   3.432   7.542  -1.010  1.1071  0.1357  0.4552
  272MOL0     H36697   3.483   7.536  -0.840 -0.6920  1.0702 -0.2191
  272MOL0     H36698   3.355   7.328  -1.020  0.6314  1.4755 -0.9286
  272MOL0     H36699   3.406   7.303  -0.837  1.7619 -0.1090  0.1078
  272MOL0     H36700   3.563   7.207  -0.981  3.1003 -0.3967  0.0662
  272MOL0     H36701   3.625   7.343  -0.886  1.3797  1.4099 -2.5017
  272MOL0     H36702   3.038   8.030  -0.416  0.1324 -1.2466 -0.6933
  272MOL0     H36703   2.910   8.188  -0.284  2.2939 -1.2907 -0.6447
  272MOL0     H36704   2.598   8.468  -0.192  1.6654 -1.3599 -0.1036
  272MOL0     H36705   2.543   8.593  -0.011  0.4955 -0.2789  0.9318
  272MOL0     H36706   3.111  10.025   0.648  0.0325 -1.3348  2.2851
  272MOL0     H36707   3.247  10.210   0.714 -2.7917 -1.4118 -1.1748
  272MOL0     H36708   3.669  10.389   0.818 -2.3901  1.2445  1.9100
  272MOL0     H36709   3.774  10.586   0.896 -0.9755 -3.8076  0.3859
  272MOL0     H36710   3.762  11.033   0.787 -0.4318  0.7402  1.8399
  272MOL0     H36711   3.639  10.974   0.677  2.5484  1.9588 -0.2383
  272MOL0     H36712   3.625  10.998   0.980 -0.5915  0.4111  0.6624
  272MOL0     H36713   3.507  10.906   0.890  0.5550 -0.9146  3.1305
  272MOL0     H36714   3.575  11.192   0.845  0.1178 -1.1233 -1.2995
  272MOL0     H36715   3.437  11.139   0.954 -2.6388 -3.5318 -0.2130
  272MOL0     H36716   3.449  11.065   0.664  0.4573 -0.3277  0.4510
  272MOL0     H36717   3.381  11.214   0.698 -3.2509 -1.7265 -1.7747
  272MOL0     H36718   3.077  10.944   0.800 -0.7854  2.3288  2.8965
  272MOL0     H36719   3.545  10.808   0.593 -0.7875 -1.3013 -1.0671
  272MOL0     H36720   3.441  10.594   0.537 -0.3298 -0.1381  0.8056
  273MOL0     O36721   3.900  10.519  10.404  0.1757  0.5028 -0.4978
  273MOL0     C36722   3.881  10.482  10.288  0.3856 -0.2936  0.2494
  273MOL0     O36723   3.966  10.408  10.214  0.1084 -0.6401  0.1698
  273MOL0     C36724   4.101  10.415  10.244 -0.4017 -0.0681  0.6219
  273MOL0     C36725   4.152  10.382  10.368 -0.7472 -0.0055 -0.4109
  273MOL0     C36726   4.289  10.385  10.402 -0.9453 -0.0973 -0.0719
  273MOL0     C36727   4.376  10.424  10.303 -0.4892 -0.2005  0.6876
  273MOL0     O36728   4.503  10.417  10.341  0.3332 -0.3527 -0.6135
  273MOL0     C36729   4.603  10.393  10.238 -0.6216 -0.0652  0.0220
  273MOL0     C36730   4.744  10.350  10.292 -0.7520 -0.2326 -0.3713
  273MOL0     C36731   4.812  10.478  10.342 -0.0847  0.0366 -0.1925
  273MOL0     C36732   4.949  10.450  10.390  0.0989  0.9781  0.2211
  273MOL0     C36733   5.017  10.561  10.458 -0.5233  0.2139 -0.7695
  273MOL0     C36734   4.975  10.599  10.595 -0.7446 -0.3775  0.0525
  273MOL0     C36735   5.026  10.723  10.662  0.3184  0.4252 -0.7917
  273MOL0     C36736   5.002  10.717  10.821  0.1668 -0.7362 -0.3699
  273MOL0     N36737   4.857  10.714  10.861 -0.1414 -0.2759 -0.4156
  273MOL0     C36738   4.774  10.606  10.843 -0.1004  0.1620  0.3140
  273MOL0     C36739   4.655  10.641  10.901 -1.2592  0.3908 -0.0826
  273MOL0     C36740   4.543  10.555  10.918  0.6564 -1.1313  0.8875
  273MOL0     C36741   4.417  10.612  10.831  0.1009  0.6824  0.2885
  273MOL0     C36742   4.429  10.583  10.679  0.3800  0.3743  0.0550
  273MOL0     C36743   4.511  10.674  10.599 -0.2843  0.2341  1.1792
  273MOL0     O36744   4.428  10.789  10.581  0.2780 -0.5211 -0.1802
  273MOL0     C36745   4.492  10.892  10.525  0.0999  0.4718 -1.3516
  273MOL0     C36746   4.616  10.888  10.453  0.1177 -0.3648  0.7361
  273MOL0     C36747   4.679  10.991  10.382  0.7304  0.7171 -0.1883
  273MOL0     C36748   4.815  10.957  10.309 -0.0993 -0.2234  0.0330
  273MOL0     C36749   4.608  11.120  10.380  0.5747  0.7671  0.8100
  273MOL0     C36750   4.647  11.231  10.290 -0.4225  0.9429 -0.0749
  273MOL0     O36751   4.561  11.328  10.281  0.7783 -0.8173 -0.0404
  273MOL0     C36752   4.595  11.436  10.214  0.0801 -0.1306 -0.1093
  273MOL0     C36753   4.593  11.439  10.071  0.0303  0.5892 -0.4406
  273MOL0     C36754   4.620  11.555   9.999  0.8662 -0.3159  0.0996
  273MOL0     C36755   4.637  11.675  10.065  0.3917 -0.2903 -0.1843
  273MOL0     O36756   4.660  11.784   9.985  0.7697  0.2046 -0.0989
  273MOL0     C36757   4.552  11.884   9.987 -0.3849  0.3761 -0.2152
  273MOL0     C36758   4.416  11.837   9.956  1.1914  0.0139 -0.2164
  273MOL0     C36759   4.399  11.775   9.821 -0.0415  0.4771 -0.0297
  273MOL0     C36760   4.272  11.689   9.809  0.8381 -0.3852  0.3488
  273MOL0     C36761   4.144  11.767   9.801  0.7126 -0.1180 -0.6183
  273MOL0     C36762   4.038  11.665   9.770 -0.4282 -0.7072 -0.6506
  273MOL0     C36763   3.900  11.733   9.731 -0.7637  0.1035  0.1967
  273MOL0     C36764   3.821  11.616   9.680 -0.0392  0.1858 -0.7242
  273MOL0    Cl36765   3.648  11.654   9.633  0.0494  0.1941 -0.1723
  273MOL0     C36766   4.633  11.683  10.204 -0.2196  0.6131 -0.9223
  273MOL0     C36767   4.603  11.563  10.275 -0.9542 -0.0195  0.5864
  273MOL0     O36768   4.761  11.235  10.238 -0.1434 -0.5269 -0.4598
  273MOL0     C36769   4.484  11.118  10.442 -0.4381  0.4148 -0.3984
  273MOL0     C36770   4.427  11.017  10.521 -0.7863  0.5645 -0.3452
  273MOL0     N36771   4.670  10.779  10.930  0.4945 -1.1193  0.2358
  273MOL0     N36772   4.799  10.814  10.920  0.4405 -0.2670  0.5069
  273MOL0     C36773   4.330  10.464  10.173 -0.3102 -0.6552  0.1822
  273MOL0     C36774   4.191  10.454  10.139 -0.3554  0.1502 -0.7837
  273MOL0     C36775   3.738  10.494  10.243 -0.0331  0.8288 -0.2728
  273MOL0     C36776   3.632  10.508  10.336 -0.7665  0.0373 -0.2014
  273MOL0     C36777   3.504  10.481  10.299 -0.3937  0.7924 -0.0385
  273MOL0     C36778   3.464  10.445  10.171  0.1979 -0.0640  0.5179
  273MOL0     O36779   3.334  10.423  10.128  0.1862  0.2085  0.0900
  273MOL0     C36780   3.311  10.413   9.992  0.7688 -0.0349  0.5394
  273MOL0     C36781   3.158  10.429   9.977 -0.4957  0.8275  0.6588
  273MOL0     C36782   3.088  10.298  10.033 -0.9738  0.0424 -0.9515
  273MOL0     C36783   2.935  10.310  10.041  0.6089 -0.9605  0.6769
  273MOL0     C36784   2.876  10.388  10.158  1.0467 -1.2493  0.2605
  273MOL0     C36785   2.834  10.464  10.245  0.3049  0.5577 -0.3355
  273MOL0     C36786   3.567  10.435  10.075  0.5198 -0.4526 -0.5841
  273MOL0     C36787   3.697  10.450  10.118  0.7844 -0.9915 -0.0533
  273MOL0     H36788   4.094  10.352  10.456 -0.3463 -0.5559 -0.3261
  273MOL0     H36789   4.329  10.357  10.499  0.1164 -0.2515 -0.5304
  273MOL0     H36790   4.563  10.317  10.171 -1.1913 -0.4786  0.8116
  273MOL0     H36791   4.615  10.485  10.179 -3.6883 -1.1144 -2.5387
  273MOL0     H36792   4.726  10.281  10.375 -0.5076  0.9562  0.7120
  273MOL0     H36793   4.811  10.297  10.224  3.7874  3.3588  0.7338
  273MOL0     H36794   4.812  10.559  10.268 -3.6346  1.5063  1.1534
  273MOL0     H36795   4.751  10.510  10.427 -0.4519  1.8597 -1.0847
  273MOL0     H36796   4.950  10.362  10.455  0.3477 -3.1616 -4.7358
  273MOL0     H36797   5.001  10.410  10.302  1.9187  1.2205  1.1341
  273MOL0     H36798   5.122  10.531  10.463 -0.2874  1.1292  0.1941
  273MOL0     H36799   5.015  10.654  10.399 -2.5046  4.4698  5.0603
  273MOL0     H36800   4.866  10.608  10.594 -0.6280  1.7646 -1.8168
  273MOL0     H36801   5.011  10.513  10.653 -1.3431 -1.5038 -1.1838
  273MOL0     H36802   5.134  10.732  10.647  0.2621  2.1650 -0.4707
  273MOL0     H36803   4.983  10.814  10.619 -0.2015 -0.6373 -2.5909
  273MOL0     H36804   5.046  10.800  10.878 -0.3845 -1.0149  0.4919
  273MOL0     H36805   5.041  10.627  10.870 -0.2416 -1.1672 -0.8293
  273MOL0     H36806   4.799  10.505  10.811 -2.7139 -0.3987 -0.1717
  273MOL0     H36807   4.568  10.459  10.872 -1.7840 -1.7858  0.8149
  273MOL0     H36808   4.519  10.535  11.022  1.0791 -0.3622  1.1396
  273MOL0     H36809   4.408  10.721  10.835  1.4845  0.7969  0.8856
  273MOL0     H36810   4.322  10.572  10.868  0.5073 -2.4021 -1.6641
  273MOL0     H36811   4.326  10.585  10.643 -0.7317  4.9999  2.7366
  273MOL0     H36812   4.468  10.480  10.676 -1.4213 -0.3187 -0.8721
  273MOL0     H36813   4.520  10.621  10.504  1.7195  0.6971  1.0605
  273MOL0     H36814   4.614  10.690  10.633  0.1807  0.1516 -0.1300
  273MOL0     H36815   4.667  10.794  10.440 -0.5265 -0.5064 -1.0430
  273MOL0     H36816   4.824  10.848  10.304 -0.0033 -0.5038  3.7308
  273MOL0     H36817   4.831  11.005  10.212  0.4174  2.8895  1.5154
  273MOL0     H36818   4.899  10.992  10.370  0.5733 -0.8321 -0.5244
  273MOL0     H36819   4.556  11.347  10.027 -2.7824  1.4266  0.0189
  273MOL0     H36820   4.626  11.568   9.891 -0.0149 -1.0133 -0.0481
  273MOL0     H36821   4.557  11.919  10.090 -0.4741  1.1803 -0.4742
  273MOL0     H36822   4.579  11.973   9.929 -0.3295  1.2871  1.1612
  273MOL0     H36823   4.376  11.777  10.038 -4.2294  3.2592 -0.0264
  273MOL0     H36824   4.345  11.920   9.956  0.7843 -0.2381 -2.9108
  273MOL0     H36825   4.491  11.718   9.802  2.4494  4.5760 -1.8063
  273MOL0     H36826   4.399  11.843   9.735  0.5334  1.7761  0.9596
  273MOL0     H36827   4.290  11.638   9.714  0.2010 -2.2145  1.1531
  273MOL0     H36828   4.275  11.618   9.892  0.9456  2.2183  2.6971
  273MOL0     H36829   4.153  11.840   9.719  1.5572 -2.7524 -3.0371
  273MOL0     H36830   4.130  11.821   9.895  0.4259 -1.1379 -0.0629
  273MOL0     H36831   4.077  11.615   9.681  2.2326  0.8541 -0.4451
  273MOL0     H36832   4.022  11.599   9.855  2.5289 -0.7155 -0.0246
  273MOL0     H36833   3.925  11.807   9.654  3.0181 -0.9099  0.2232
  273MOL0     H36834   3.856  11.785   9.817 -0.6261  0.0464  0.3053
  273MOL0     H36835   3.824  11.546   9.764 -0.9136  1.8374  0.7439
  273MOL0     H36836   3.878  11.573   9.597 -0.7876  0.9088 -1.6413
  273MOL0     H36837   4.673  11.771  10.252  0.4838  1.0140 -2.1828
  273MOL0     H36838   4.598  11.560  10.384  1.1696 -0.3489  0.7037
  273MOL0     H36839   4.435  11.214  10.439  0.3476  0.8744  0.6496
  273MOL0     H36840   4.337  11.027  10.580 -0.1970 -1.2416  0.9442
  273MOL0     H36841   4.402  10.492  10.096 -0.0692 -1.7044  0.0080
  273MOL0     H36842   4.142  10.467  10.043 -1.6581  1.2723 -0.0090
  273MOL0     H36843   3.645  10.525  10.443 -0.1548  5.2651 -0.8222
  273MOL0     H36844   3.424  10.478  10.372 -0.1321  0.1160  0.2380
  273MOL0     H36845   3.354  10.499   9.940  1.6472 -0.0714  1.1955
  273MOL0     H36846   3.342  10.314   9.959  1.7402 -0.5451  2.8437
  273MOL0     H36847   3.136  10.426   9.870  1.9821  0.6508  0.0818
  273MOL0     H36848   3.120  10.521  10.022 -0.3165  0.7287  1.0171
  273MOL0     H36849   3.115  10.283  10.138  0.4095  2.4351 -0.8887
  273MOL0     H36850   3.121  10.206   9.985 -1.1800  0.3864 -1.7687
  273MOL0     H36851   2.902  10.207  10.052 -0.2792 -0.8120 -0.4473
  273MOL0     H36852   2.892  10.353   9.950  2.9523  2.9527  1.1385
  273MOL0     H36853   2.789  10.528  10.318 -3.3267 -1.9410 -0.0942
  273MOL0     H36854   3.565  10.411   9.969  0.8056  1.8931 -1.1758
  273MOL0     H36855   3.772  10.433  10.042  0.7157 -0.8008 -0.1649
  274MOL0     O36856   7.166   6.303   8.823  0.2074 -0.9459  0.0923
  274MOL0     C36857   7.122   6.212   8.753 -0.1486  1.1608  0.3718
  274MOL0     O36858   7.172   6.180   8.626  0.9210  0.1772  0.1424
  274MOL0     C36859   7.266   6.253   8.545 -0.0779  0.8013 -0.3508
  274MOL0     C36860   7.287   6.394   8.549 -0.9251  0.3660 -0.3882
  274MOL0     C36861   7.375   6.454   8.464  0.4732 -0.2659  0.1213
  274MOL0     C36862   7.438   6.388   8.367  0.5089 -0.8860 -0.1309
  274MOL0     O36863   7.521   6.459   8.287  0.0546 -0.2489  0.7594
  274MOL0     C36864   7.628   6.396   8.214  0.4547  0.2855 -0.7129
  274MOL0     C36865   7.734   6.498   8.185 -1.2119 -0.5122 -0.2957
  274MOL0     C36866   7.800   6.553   8.313  0.1601  0.1206  0.2972
  274MOL0     C36867   7.904   6.669   8.277  0.8483 -0.2135 -0.6191
  274MOL0     C36868   7.852   6.761   8.168  0.0072  0.2128 -0.3494
  274MOL0     C36869   7.924   6.899   8.177  0.4890  0.0570 -0.0855
  274MOL0     C36870   7.988   6.956   8.050  0.4782  0.4897 -1.1163
  274MOL0     C36871   7.955   7.108   8.031  0.6323  0.2793 -0.0376
  274MOL0     N36872   8.054   7.177   7.958 -0.9345 -0.5727  0.1812
  274MOL0     C36873   8.116   7.156   7.836  0.7827  1.0363  0.4042
  274MOL0     C36874   8.216   7.242   7.831  0.5021 -0.2611 -0.5294
  274MOL0     C36875   8.319   7.259   7.722 -0.4695  1.4486 -0.2900
  274MOL0     C36876   8.457   7.217   7.776  0.8200 -0.4413 -0.2492
  274MOL0     C36877   8.571   7.239   7.673 -0.1775  0.8676 -0.3640
  274MOL0     C36878   8.701   7.178   7.730  0.2713 -0.3622 -0.2862
  274MOL0     O36879   8.682   7.041   7.769 -0.6190 -0.6327 -0.1607
  274MOL0     C36880   8.771   6.992   7.868  0.2239 -0.6848 -0.3568
  274MOL0     C36881   8.795   6.861   7.860  0.5107 -0.1942 -0.6018
  274MOL0     C36882   8.871   6.788   7.953 -0.0597  0.3449  0.5335
  274MOL0     C36883   8.861   6.640   7.951 -0.7233  0.4155  0.0595
  274MOL0     C36884   8.943   6.868   8.047 -0.7199  0.0354  0.4604
  274MOL0     C36885   9.045   6.810   8.153 -0.0594 -0.1134  1.5082
  274MOL0     O36886   9.061   6.886   8.261 -0.0123  0.0557  0.2685
  274MOL0     C36887   9.120   6.845   8.377 -0.0359 -0.3030  0.2081
  274MOL0     C36888   9.250   6.822   8.372  0.1514  0.3888 -0.2088
  274MOL0     C36889   9.317   6.776   8.490  0.5237 -0.2457 -0.2784
  274MOL0     C36890   9.257   6.755   8.613 -0.3516  0.1543  0.3185
  274MOL0     O36891   9.342   6.709   8.712 -0.1717  0.3426  0.1479
  274MOL0     C36892   9.293   6.707   8.848  0.2354  0.1483 -0.2175
  274MOL0     C36893   9.317   6.830   8.926 -0.5537 -0.3914  0.1211
  274MOL0     C36894   9.468   6.836   8.963  0.5699  0.4928  0.1988
  274MOL0     C36895   9.518   6.903   9.090  0.7086  0.5931 -0.1286
  274MOL0     C36896   9.484   6.838   9.226  0.3900  0.0330 -0.2707
  274MOL0     C36897   9.553   6.924   9.342 -0.3428  0.3782 -0.4537
  274MOL0     C36898   9.704   6.891   9.364  0.0110 -0.9617  0.0582
  274MOL0     C36899   9.740   6.751   9.416 -0.0422  0.2779 -0.3512
  274MOL0    Cl36900   9.914   6.709   9.449 -0.0334 -0.1379  0.3000
  274MOL0     C36901   9.116   6.782   8.613  0.0240  0.2477  0.3248
  274MOL0     C36902   9.050   6.811   8.485 -0.1548 -0.2073 -0.7335
  274MOL0     O36903   9.107   6.701   8.135 -0.6804  0.2261 -0.5585
  274MOL0     C36904   8.915   7.012   8.059 -0.1319  0.3863 -0.4396
  274MOL0     C36905   8.832   7.067   7.971  0.0623 -0.7791  0.2941
  274MOL0     N36906   8.207   7.330   7.941  0.0318  0.1084 -0.0578
  274MOL0     N36907   8.109   7.286   8.014  0.4293 -0.2154  0.2657
  274MOL0     C36908   7.422   6.246   8.358 -0.0508 -0.2660 -0.3296
  274MOL0     C36909   7.340   6.181   8.451  0.7192 -0.2395 -0.9338
  274MOL0     C36910   7.027   6.118   8.812 -0.7451 -0.0752 -0.4763
  274MOL0     C36911   6.945   6.037   8.737 -0.0121 -0.2925 -0.5435
  274MOL0     C36912   6.843   5.963   8.805 -0.1499  0.1432  1.2301
  274MOL0     C36913   6.840   5.955   8.941 -0.5614 -1.1413  0.0401
  274MOL0     O36914   6.753   5.887   9.017 -0.2159 -0.6700  0.6699
  274MOL0     C36915   6.667   5.789   8.951  0.1479  0.4425  0.6187
  274MOL0     C36916   6.558   5.711   9.035  0.3864  0.4049  0.7706
  274MOL0     C36917   6.471   5.801   9.123  0.4044  0.7973 -0.7983
  274MOL0     C36918   6.388   5.713   9.221  0.1954 -0.3226  0.0045
  274MOL0     C36919   6.355   5.783   9.348  0.2981  0.3136  0.6510
  274MOL0     C36920   6.341   5.817   9.463  0.4231 -0.1359  0.5219
  274MOL0     C36921   6.923   6.039   9.016  0.2311  1.1086 -0.2703
  274MOL0     C36922   7.021   6.111   8.955  0.6125  0.8555  0.1369
  274MOL0     H36923   7.236   6.458   8.621  0.5315 -0.6783  1.6606
  274MOL0     H36924   7.394   6.561   8.464 -1.5854  0.1719  2.0361
  274MOL0     H36925   7.680   6.323   8.277 -0.7749  1.2209  1.5343
  274MOL0     H36926   7.604   6.345   8.120  1.5240 -2.7495  0.5254
  274MOL0     H36927   7.814   6.460   8.120 -1.5547 -1.0132 -0.4313
  274MOL0     H36928   7.674   6.572   8.132 -1.2462 -1.8427 -2.2170
  274MOL0     H36929   7.717   6.594   8.371  0.8749 -2.6812  3.5736
  274MOL0     H36930   7.850   6.478   8.374  0.1594  1.7269  2.3909
  274MOL0     H36931   7.909   6.717   8.375  1.1378 -3.3728  1.0231
  274MOL0     H36932   8.001   6.626   8.250  0.7380  0.6897 -2.6389
  274MOL0     H36933   7.858   6.717   8.068 -1.1885 -2.6250  0.7453
  274MOL0     H36934   7.746   6.777   8.186 -0.1948  1.2411 -2.1802
  274MOL0     H36935   7.851   6.968   8.221 -1.0439 -1.3791 -0.2514
  274MOL0     H36936   8.003   6.892   8.252  1.6483 -0.4555 -1.3250
  274MOL0     H36937   8.096   6.949   8.064  0.0343 -3.3741  2.3750
  274MOL0     H36938   7.948   6.896   7.967 -0.6459 -1.3710  0.6765
  274MOL0     H36939   7.938   7.165   8.122 -1.2186  0.3059 -0.3591
  274MOL0     H36940   7.861   7.110   7.975 -0.4699  1.2834  1.7848
  274MOL0     H36941   8.090   7.086   7.757 -2.9572  1.1223  1.4025
  274MOL0     H36942   8.299   7.190   7.639  0.7283  0.9814 -0.2061
  274MOL0     H36943   8.323   7.364   7.691  1.0709  0.7940 -2.6250
  274MOL0     H36944   8.445   7.116   7.816  2.1481  0.0986  1.6495
  274MOL0     H36945   8.465   7.274   7.870 -1.1489 -0.6880  0.1154
  274MOL0     H36946   8.584   7.347   7.658 -1.3989  1.1579  0.5431
  274MOL0     H36947   8.540   7.184   7.583 -2.2586  2.5757 -0.7720
  274MOL0     H36948   8.742   7.240   7.811 -1.1777  0.2019  0.0446
  274MOL0     H36949   8.770   7.180   7.646  3.5240  1.9955  2.1588
  274MOL0     H36950   8.721   6.810   7.798 -1.5425 -0.6759  2.0346
  274MOL0     H36951   8.873   6.592   8.049  2.5402 -2.7700 -1.6402
  274MOL0     H36952   8.763   6.609   7.913 -0.6672  1.2062 -0.7656
  274MOL0     H36953   8.943   6.608   7.886  0.6250  0.3282  1.7309
  274MOL0     H36954   9.317   6.835   8.287  2.9293 -1.8523  1.4460
  274MOL0     H36955   9.417   6.741   8.466  0.5300  0.3930 -1.2171
  274MOL0     H36956   9.185   6.688   8.845 -1.0888  5.3128  3.0598
  274MOL0     H36957   9.338   6.620   8.897 -0.5909  0.5384  1.2961
  274MOL0     H36958   9.295   6.922   8.871  1.6393  0.5264  0.7090
  274MOL0     H36959   9.263   6.829   9.021 -3.0679  0.2591 -1.2062
  274MOL0     H36960   9.524   6.892   8.888 -1.5783  0.5280 -1.4619
  274MOL0     H36961   9.505   6.733   8.977  2.7438  1.3992  1.7340
  274MOL0     H36962   9.628   6.898   9.088  0.8193  2.5848 -1.9801
  274MOL0     H36963   9.476   7.004   9.088 -0.1998  0.2347  0.3256
  274MOL0     H36964   9.496   6.729   9.237  0.7664 -0.0518 -1.3980
  274MOL0     H36965   9.376   6.850   9.239  0.5237  0.2664  0.6970
  274MOL0     H36966   9.533   7.028   9.315  0.0551  0.6270  0.2123
  274MOL0     H36967   9.491   6.908   9.431  1.1234  1.3027  0.7755
  274MOL0     H36968   9.747   6.966   9.432  0.6583  0.0673 -1.4236
  274MOL0     H36969   9.765   6.902   9.274 -3.1037  2.6137 -1.9006
  274MOL0     H36970   9.693   6.670   9.358 -2.0950 -0.4644  2.1435
  274MOL0     H36971   9.697   6.739   9.516  0.5590 -0.1454 -0.1365
  274MOL0     H36972   9.056   6.755   8.699 -1.5273  1.5300 -0.2890
  274MOL0     H36973   8.945   6.834   8.477  0.4069  3.9531  1.3324
  274MOL0     H36974   8.961   7.076   8.135 -0.2942  0.2537 -0.2269
  274MOL0     H36975   8.819   7.171   7.997  0.9953 -0.1144 -1.7081
  274MOL0     H36976   7.491   6.194   8.293 -0.5415  1.6021 -2.4608
  274MOL0     H36977   7.350   6.074   8.463  0.9632 -0.0156  1.3678
  274MOL0     H36978   6.955   6.047   8.630  0.8328  1.0520 -0.3615
  274MOL0     H36979   6.770   5.914   8.741  2.6421 -0.2024 -1.9912
  274MOL0     H36980   6.610   5.837   8.870  0.2467 -1.4060 -0.6014
  274MOL0     H36981   6.738   5.731   8.892 -1.0787 -0.5754  0.0900
  274MOL0     H36982   6.600   5.635   9.101  1.8749  1.0821  0.6402
  274MOL0     H36983   6.494   5.661   8.962 -0.1911  2.2293 -0.0342
  274MOL0     H36984   6.402   5.872   9.075 -0.7576 -0.3876 -0.9670
  274MOL0     H36985   6.530   5.852   9.199 -0.9935  2.2482 -0.6219
  274MOL0     H36986   6.444   5.625   9.252 -1.3514 -2.1495 -2.0368
  274MOL0     H36987   6.293   5.673   9.184 -0.0946  1.8277 -1.8083
  274MOL0     H36988   6.327   5.840   9.566 -1.1206  1.6629 -0.0258
  274MOL0     H36989   6.923   6.031   9.125  2.3694 -0.7542 -0.3353
  274MOL0     H36990   7.078   6.168   9.027  3.7108 -0.6866 -0.9367
  275MOL0     O36991   3.980   1.554   6.044  0.3023  0.0443 -0.9288
  275MOL0     C36992   4.094   1.523   6.025 -0.0714 -0.0361 -0.8251
  275MOL0     O36993   4.195   1.605   5.986  0.3304 -0.0746  0.1130
  275MOL0     C36994   4.171   1.741   5.964  0.5252  0.3957 -0.5659
  275MOL0     C36995   4.054   1.801   5.913 -0.6129 -0.9881  0.5647
  275MOL0     C36996   4.029   1.937   5.917  0.4268  0.1694 -0.3566
  275MOL0     C36997   4.133   2.025   5.957  0.4424 -0.5872  0.6595
  275MOL0     O36998   4.118   2.164   5.962  0.0396  0.2921  0.8024
  275MOL0     C36999   3.996   2.231   5.921  0.0647  0.0418  0.2479
  275MOL0     C37000   3.895   2.203   6.035 -1.1537 -0.2478  0.1129
  275MOL0     C37001   3.951   2.244   6.171 -1.1466 -0.6178  0.5061
  275MOL0     C37002   3.827   2.253   6.251 -0.2642  0.0293  0.1070
  275MOL0     C37003   3.866   2.307   6.390  0.0734  0.3658 -1.0757
  275MOL0     C37004   3.746   2.316   6.472  0.3102  0.0579  1.2455
  275MOL0     C37005   3.788   2.352   6.607 -0.1211  0.3499 -1.1758
  275MOL0     C37006   3.821   2.234   6.689  0.2429 -0.3980  0.5842
  275MOL0     N37007   3.868   2.248   6.827 -0.2758  0.0747  0.3533
  275MOL0     C37008   3.909   2.358   6.905 -0.0365  0.5711  0.0388
  275MOL0     C37009   3.927   2.308   7.026 -0.4264 -0.3783 -0.6584
  275MOL0     C37010   4.003   2.373   7.141  0.1677 -0.0568  0.2369
  275MOL0     C37011   4.144   2.311   7.158  0.9558 -0.0694 -0.4174
  275MOL0     C37012   4.182   2.290   7.306 -0.6270 -0.6460 -0.7636
  275MOL0     C37013   4.240   2.417   7.375  0.1930 -0.1281 -0.7117
  275MOL0     O37014   4.126   2.507   7.387 -0.0303 -0.8493  0.7793
  275MOL0     C37015   4.133   2.631   7.444  0.7074  0.2555 -0.1141
  275MOL0     C37016   4.236   2.667   7.530  0.0061  0.0027  0.0741
  275MOL0     C37017   4.221   2.772   7.615 -0.4149  0.9247  0.4099
  275MOL0     C37018   4.341   2.825   7.686 -0.0806 -0.4515 -0.4730
  275MOL0     C37019   4.098   2.841   7.616  0.4360 -1.3413  0.4166
  275MOL0     C37020   4.064   2.958   7.711  0.0340 -0.2063 -0.3611
  275MOL0     O37021   4.109   3.083   7.673 -0.3464  0.3845  0.1098
  275MOL0     C37022   4.059   3.201   7.728 -0.9676 -0.0611  0.7882
  275MOL0     C37023   4.137   3.321   7.700  0.4797 -0.2012  0.1480
  275MOL0     C37024   4.112   3.440   7.764  0.2996 -0.2766  0.2051
  275MOL0     C37025   4.007   3.459   7.848  0.6318  0.4556 -0.2470
  275MOL0     O37026   3.968   3.565   7.921 -0.1229  0.1076  0.2249
  275MOL0     C37027   4.061   3.673   7.909 -1.0454 -0.5965 -0.4689
  275MOL0     C37028   3.999   3.791   7.978  0.0236  0.2253 -0.2894
  275MOL0     C37029   3.871   3.826   7.914  0.4962  0.0543 -1.1685
  275MOL0     C37030   3.822   3.968   7.913  0.0190  1.2340  0.4162
  275MOL0     C37031   3.929   4.077   7.881 -0.1423 -0.0199 -0.6229
  275MOL0     C37032   3.863   4.210   7.826 -0.7159 -0.8513  0.0305
  275MOL0     C37033   3.745   4.250   7.909 -0.5917  0.0422  0.3523
  275MOL0     C37034   3.691   4.375   7.855 -0.0298 -0.1281  0.6679
  275MOL0    Cl37035   3.628   4.348   7.683  0.3776  0.1393 -0.4598
  275MOL0     C37036   3.922   3.348   7.861 -0.1100 -0.3156 -0.3406
  275MOL0     C37037   3.944   3.224   7.805  0.6913  0.4556 -0.2915
  275MOL0     O37038   4.001   2.931   7.821 -0.0168 -0.6023  0.2928
  275MOL0     C37039   4.004   2.820   7.512  0.0040  0.3740  0.2789
  275MOL0     C37040   4.025   2.714   7.417 -0.1690 -0.4721 -0.6435
  275MOL0     N37041   3.901   2.171   7.020 -0.3142 -0.1026 -0.5240
  275MOL0     N37042   3.877   2.135   6.899 -0.0156  0.5327 -0.3515
  275MOL0     C37043   4.258   1.977   5.991  0.3059  0.0954  0.0293
  275MOL0     C37044   4.272   1.834   6.000 -0.4560  0.0032 -0.7148
  275MOL0     C37045   4.136   1.390   6.051  0.0369  0.7633  0.7781
  275MOL0     C37046   4.271   1.351   6.031  0.3161  0.5051  0.8657
  275MOL0     C37047   4.313   1.212   6.055  0.3138 -0.0126  0.0470
  275MOL0     C37048   4.226   1.120   6.101 -0.5745 -0.2604 -1.1195
  275MOL0     O37049   4.280   0.998   6.135  0.4569  0.2265 -0.7694
  275MOL0     C37050   4.237   0.959   6.268 -0.7190 -0.2107 -0.1869
  275MOL0     C37051   4.359   0.880   6.324 -0.2790 -0.5913 -0.1614
  275MOL0     C37052   4.480   0.982   6.362  0.8238 -0.7042  0.5824
  275MOL0     C37053   4.597   0.904   6.417  0.6856  1.0438 -0.3110
  275MOL0     C37054   4.688   0.840   6.320  0.1829 -0.2163  0.1154
  275MOL0     C37055   4.772   0.809   6.240 -0.1809 -0.3387  0.4823
  275MOL0     C37056   4.097   1.152   6.106  0.2172 -0.1624  0.7241
  275MOL0     C37057   4.052   1.283   6.086  0.6419 -0.0849 -0.5761
  275MOL0     H37058   3.980   1.732   5.874 -0.9329  0.9525 -2.5975
  275MOL0     H37059   3.934   1.964   5.872  1.3721 -0.2054 -2.6813
  275MOL0     H37060   4.022   2.336   5.913 -1.8134  0.4282 -1.6916
  275MOL0     H37061   3.948   2.195   5.830  0.3111 -0.2584  0.2330
  275MOL0     H37062   3.812   2.268   6.004  1.3302  1.9483 -2.5689
  275MOL0     H37063   3.859   2.099   6.039  1.5753 -1.2166  1.5277
  275MOL0     H37064   4.026   2.184   6.224  3.4535  4.1635  0.2145
  275MOL0     H37065   3.993   2.345   6.165 -3.2602  0.2141 -2.5955
  275MOL0     H37066   3.759   2.327   6.207  0.6959  1.4855  0.9709
  275MOL0     H37067   3.789   2.151   6.255  2.3635 -1.1240 -1.6557
  275MOL0     H37068   3.936   2.241   6.440 -0.4570  2.8675  3.5438
  275MOL0     H37069   3.918   2.403   6.385  0.5843  0.2996  1.6149
  275MOL0     H37070   3.703   2.405   6.425  1.8295  1.3164  2.1510
  275MOL0     H37071   3.682   2.227   6.463  1.3984 -0.5624 -2.2291
  275MOL0     H37072   3.864   2.430   6.599 -0.7260  0.7453 -4.8922
  275MOL0     H37073   3.707   2.407   6.656 -1.5117 -1.1414 -1.7113
  275MOL0     H37074   3.906   2.178   6.651  1.3191  1.5352  0.0476
  275MOL0     H37075   3.735   2.166   6.690  0.3374 -0.5187  1.0870
  275MOL0     H37076   3.935   2.459   6.877 -1.5903  1.0851  0.3265
  275MOL0     H37077   3.999   2.480   7.117  0.1488 -0.1536 -0.2008
  275MOL0     H37078   3.949   2.349   7.233 -1.8292 -2.1268 -1.3626
  275MOL0     H37079   4.204   2.383   7.102 -3.2780  2.9491 -1.5555
  275MOL0     H37080   4.148   2.215   7.106 -0.5731 -0.1701 -0.3820
  275MOL0     H37081   4.263   2.217   7.313  1.1639  1.3168  0.3679
  275MOL0     H37082   4.100   2.244   7.362  0.2582 -0.2030  0.9767
  275MOL0     H37083   4.312   2.469   7.312 -0.4949  1.9853  0.1475
  275MOL0     H37084   4.281   2.392   7.474 -1.0869 -0.5737 -0.2666
  275MOL0     H37085   4.330   2.618   7.554  0.4749  0.5427 -0.6315
  275MOL0     H37086   4.419   2.839   7.611 -1.3401  0.1280 -1.7429
  275MOL0     H37087   4.323   2.923   7.731  2.3193  0.5552 -1.5511
  275MOL0     H37088   4.382   2.756   7.760  0.0676 -0.5214 -0.6205
  275MOL0     H37089   4.212   3.302   7.624 -2.7736 -1.3410 -3.0488
  275MOL0     H37090   4.169   3.523   7.725 -2.8926  1.4810 -1.1484
  275MOL0     H37091   4.151   3.636   7.958 -1.5259  1.4511  2.2268
  275MOL0     H37092   4.082   3.688   7.803  1.4068 -2.2307 -0.2888
  275MOL0     H37093   3.984   3.758   8.081 -1.0615  0.2278 -0.4394
  275MOL0     H37094   4.070   3.874   7.979 -0.5888  0.8697  3.1905
  275MOL0     H37095   3.793   3.771   7.967  0.7644 -0.9097 -1.7303
  275MOL0     H37096   3.880   3.804   7.807 -0.6497  4.5390 -2.3901
  275MOL0     H37097   3.745   3.971   7.836  1.1272 -0.4124 -0.8278
  275MOL0     H37098   3.784   3.993   8.013  2.1128  0.5764  1.4256
  275MOL0     H37099   3.994   4.040   7.800  1.0139  0.5063  0.0382
  275MOL0     H37100   3.986   4.100   7.971  0.1625 -1.7143 -0.3436
  275MOL0     H37101   3.948   4.279   7.821  1.4441 -3.3767 -0.4881
  275MOL0     H37102   3.837   4.191   7.722 -0.1201  2.6458 -0.8774
  275MOL0     H37103   3.776   4.249   8.014  1.2121 -1.9254 -0.1171
  275MOL0     H37104   3.669   4.172   7.895  2.4071 -3.0332 -0.5085
  275MOL0     H37105   3.762   4.458   7.855 -0.2777  0.0929  0.0047
  275MOL0     H37106   3.603   4.398   7.916  0.6119 -1.3437  2.1137
  275MOL0     H37107   3.832   3.340   7.920  0.1025 -1.5342 -0.1656
  275MOL0     H37108   3.877   3.141   7.825  2.4546 -0.8550  0.4849
  275MOL0     H37109   3.906   2.866   7.512 -2.0698 -3.5698  2.1527
  275MOL0     H37110   3.954   2.696   7.337 -1.2765  1.6809 -0.2189
  275MOL0     H37111   4.337   2.050   5.999  1.4414 -1.0534 -0.4035
  275MOL0     H37112   4.368   1.794   6.034 -0.2137  1.5344  0.5495
  275MOL0     H37113   4.349   1.420   5.998 -0.6363  0.4783 -1.6618
  275MOL0     H37114   4.414   1.176   6.042  0.3632  0.0963  0.1313
  275MOL0     H37115   4.234   1.037   6.345 -0.1596 -1.6249  1.3300
  275MOL0     H37116   4.151   0.892   6.264 -1.2127  0.4117 -0.1179
  275MOL0     H37117   4.389   0.806   6.250 -3.2921 -0.0988 -2.0318
  275MOL0     H37118   4.320   0.842   6.419 -0.7291 -0.3000 -0.2284
  275MOL0     H37119   4.431   1.048   6.435  1.7376  0.2972  0.3021
  275MOL0     H37120   4.517   1.034   6.274  3.2525 -0.2083  1.8123
  275MOL0     H37121   4.563   0.830   6.490  0.2976  1.7944  0.2903
  275MOL0     H37122   4.659   0.967   6.481  2.1731 -0.4975 -0.1681
  275MOL0     H37123   4.842   0.762   6.174 -1.1520 -1.1682  0.0131
  275MOL0     H37124   4.028   1.069   6.123  0.0572  0.1264  1.5387
  275MOL0     H37125   3.946   1.297   6.104  0.4320 -1.9802 -0.1707
  276MOL0     O37126  10.536  10.026   4.482  0.9650 -0.2829 -0.6635
  276MOL0     C37127  10.453  10.017   4.571  0.4503  0.1112  0.1486
  276MOL0     O37128  10.357  10.103   4.611  0.1874  0.1527 -0.4948
  276MOL0     C37129  10.317  10.205   4.530  0.1830  0.2974 -0.6727
  276MOL0     C37130  10.365  10.241   4.403 -0.3989 -0.5765 -0.5398
  276MOL0     C37131  10.314  10.359   4.347 -0.4712  0.2854 -0.3085
  276MOL0     C37132  10.229  10.442   4.416  1.3705 -0.7916  0.8760
  276MOL0     O37133  10.187  10.544   4.339  0.0637  0.1033  0.2212
  276MOL0     C37134  10.252  10.671   4.383  0.3658 -0.6204 -0.3660
  276MOL0     C37135  10.196  10.789   4.304 -0.0579 -0.2341 -0.2247
  276MOL0     C37136  10.264  10.799   4.161 -0.7766  1.0284 -0.6106
  276MOL0     C37137  10.200  10.902   4.074  0.1018  0.1267  0.2202
  276MOL0     C37138  10.238  10.906   3.927 -0.6124  0.6674  0.0468
  276MOL0     C37139  10.145  11.006   3.852 -0.2927  0.5746  0.3466
  276MOL0     C37140  10.189  11.022   3.702 -0.1711  0.6041 -0.9675
  276MOL0     C37141  10.088  11.085   3.612 -0.7860 -0.6708  0.6014
  276MOL0     N37142  10.135  11.096   3.475  0.1799  0.0385 -0.7255
  276MOL0     C37143  10.146  10.991   3.396 -0.7064  0.2773 -0.1384
  276MOL0     C37144  10.171  11.050   3.273 -0.1552  0.6025 -0.6751
  276MOL0     C37145  10.220  10.976   3.150  0.1121 -0.1493  0.0068
  276MOL0     C37146  10.114  10.974   3.043  0.4011  0.0279 -1.1363
  276MOL0     C37147  10.154  10.919   2.901  0.4987  0.3331 -0.1173
  276MOL0     C37148  10.069  10.984   2.788 -0.1581 -0.3597  0.2176
  276MOL0     O37149   9.929  10.992   2.815 -0.0572 -0.1382  0.2128
  276MOL0     C37150   9.846  11.055   2.728 -0.2536 -0.2003  0.4807
  276MOL0     C37151   9.882  11.123   2.611  0.4737 -0.4369  0.2550
  276MOL0     C37152   9.794  11.175   2.512  1.0046 -0.1410 -0.5742
  276MOL0     C37153   9.844  11.263   2.410 -0.9465  0.1172  0.1459
  276MOL0     C37154   9.658  11.150   2.523  0.2055 -0.9221 -1.4822
  276MOL0     C37155   9.549  11.163   2.426 -0.3820  1.1620 -0.0561
  276MOL0     O37156   9.435  11.078   2.441  0.4692  0.5934  0.3518
  276MOL0     C37157   9.388  11.052   2.318  0.3613  0.8609  0.3483
  276MOL0     C37158   9.267  11.101   2.275 -0.4245  0.1103 -0.1454
  276MOL0     C37159   9.219  11.071   2.145 -0.3767  0.1857 -0.9212
  276MOL0     C37160   9.284  10.987   2.060 -0.3272  0.2669  0.0823
  276MOL0     O37161   9.239  10.936   1.941  0.0122 -1.1422  0.2548
  276MOL0     C37162   9.139  11.010   1.865 -0.0601  0.7808 -0.5123
  276MOL0     C37163   9.148  10.974   1.717  0.9690 -1.0848 -0.9843
  276MOL0     C37164   9.263  11.038   1.641  0.0842 -0.3761 -0.3644
  276MOL0     C37165   9.370  10.941   1.600  0.5950 -0.0853 -0.7191
  276MOL0     C37166   9.480  11.012   1.531 -0.3588 -0.1206 -0.4072
  276MOL0     C37167   9.602  10.916   1.494  0.1036 -0.3491 -0.0469
  276MOL0     C37168   9.620  10.814   1.611 -0.0705 -0.1462  0.0600
  276MOL0     C37169   9.752  10.748   1.586  0.2453  0.6980  0.4644
  276MOL0    Cl37170   9.877  10.865   1.629  0.4019  0.5145  0.1964
  276MOL0     C37171   9.397  10.921   2.117  1.7406 -0.2452  0.4292
  276MOL0     C37172   9.449  10.954   2.242  0.2903  0.1394 -0.5130
  276MOL0     O37173   9.565  11.242   2.335 -0.9035 -0.3004 -0.0894
  276MOL0     C37174   9.621  11.098   2.652 -1.0229  0.6858  0.7536
  276MOL0     C37175   9.709  11.036   2.742  0.4408 -0.2819 -0.1979
  276MOL0     N37176  10.175  11.191   3.288 -0.6938  0.1497  0.3717
  276MOL0     N37177  10.152  11.215   3.411 -0.4278  0.0458  0.4577
  276MOL0     C37178  10.175  10.409   4.542 -0.1740  0.1869  0.5477
  276MOL0     C37179  10.227  10.288   4.595 -0.0041  0.0075  0.2408
  276MOL0     C37180  10.453   9.897   4.654  0.0320  0.3752  0.0031
  276MOL0     C37181  10.570   9.839   4.698 -0.1901  0.1849  1.4672
  276MOL0     C37182  10.577   9.732   4.787 -0.5778 -0.6863 -1.0828
  276MOL0     C37183  10.453   9.689   4.840  0.1340  0.0651  0.6130
  276MOL0     O37184  10.464   9.591   4.928 -0.0612  0.6199  0.1597
  276MOL0     C37185  10.476   9.455   4.870  0.0054 -0.5128  0.2078
  276MOL0     C37186  10.340   9.380   4.862  1.2036  0.0231  0.5667
  276MOL0     C37187  10.268   9.356   4.991  0.0408  0.6038  0.4328
  276MOL0     C37188  10.127   9.285   4.972 -0.1268 -0.4390  0.9184
  276MOL0     C37189  10.131   9.157   4.903 -0.5214  0.1913  0.7829
  276MOL0     C37190  10.132   9.047   4.847 -0.6822  0.1521 -0.8102
  276MOL0     C37191  10.330   9.751   4.807 -0.2186  0.1983  0.2521
  276MOL0     C37192  10.333   9.845   4.709 -0.0775  0.3343 -0.1529
  276MOL0     H37193  10.425  10.177   4.340 -2.4548 -2.1715 -0.9911
  276MOL0     H37194  10.343  10.390   4.248  2.3222  1.8573  0.8798
  276MOL0     H37195  10.212  10.685   4.484 -1.7866 -0.3413 -1.1958
  276MOL0     H37196  10.360  10.666   4.395 -0.0007 -3.0641  8.3187
  276MOL0     H37197  10.087  10.778   4.292  0.1255  0.4134 -3.4881
  276MOL0     H37198  10.208  10.885   4.354 -0.4327  0.9718 -2.3219
  276MOL0     H37199  10.371  10.823   4.169 -0.2290 -1.4368  0.0820
  276MOL0     H37200  10.268  10.706   4.104  0.8948  1.6133 -1.5196
  276MOL0     H37201  10.091  10.903   4.087 -0.5091  1.1012 -3.6858
  276MOL0     H37202  10.224  11.003   4.110  1.3848 -0.3357  0.7055
  276MOL0     H37203  10.336  10.953   3.942 -2.1378  3.3284  2.8486
  276MOL0     H37204  10.232  10.806   3.884 -1.6231  1.4124 -1.6240
  276MOL0     H37205  10.043  10.968   3.857  0.1863 -0.8857 -0.4677
  276MOL0     H37206  10.150  11.100   3.907  3.6181 -0.8385  2.8789
  276MOL0     H37207  10.288  11.068   3.704  1.2597 -2.2705  0.8512
  276MOL0     H37208  10.210  10.919   3.671  2.8863 -0.0741  2.6249
  276MOL0     H37209  10.071  11.189   3.641  2.8949 -0.1305  1.2567
  276MOL0     H37210   9.995  11.027   3.612 -0.8398 -0.5921 -0.0632
  276MOL0     H37211  10.124  10.888   3.422  0.1743 -0.1683 -1.0822
  276MOL0     H37212  10.309  11.032   3.118  0.6266  0.9089  2.9446
  276MOL0     H37213  10.243  10.872   3.172 -1.2308  0.0737  2.8991
  276MOL0     H37214  10.072  11.075   3.043  1.7631  0.6209 -1.5835
  276MOL0     H37215  10.039  10.911   3.092 -0.5113  1.5605 -0.5085
  276MOL0     H37216  10.155  10.810   2.900  0.1493  0.2979  1.0904
  276MOL0     H37217  10.259  10.950   2.896 -0.3348  4.6345  2.7997
  276MOL0     H37218  10.091  10.937   2.692  2.9985  0.4768  0.4502
  276MOL0     H37219  10.100  11.087   2.768  0.4195 -0.8077 -1.2937
  276MOL0     H37220   9.984  11.149   2.588 -0.3679  0.2278 -3.3548
  276MOL0     H37221   9.815  11.228   2.311  4.3480  2.0455 -2.5082
  276MOL0     H37222   9.819  11.369   2.417  0.6231  0.7159 -2.0606
  276MOL0     H37223   9.953  11.275   2.420 -0.8973 -0.4908  0.4124
  276MOL0     H37224   9.212  11.168   2.340 -2.3121 -2.8086  1.5016
  276MOL0     H37225   9.121  11.100   2.107 -0.9890  1.2330  1.2967
  276MOL0     H37226   9.037  10.980   1.892  0.4267  0.5068  1.1010
  276MOL0     H37227   9.149  11.115   1.892 -1.9524  0.5617  1.3543
  276MOL0     H37228   9.149  10.865   1.711  1.0397 -1.1044 -0.6476
  276MOL0     H37229   9.060  11.006   1.661  1.7938 -1.6635 -2.6864
  276MOL0     H37230   9.302  11.115   1.708  1.3423 -0.7916 -0.5862
  276MOL0     H37231   9.219  11.078   1.549 -0.1434 -2.1615 -1.0698
  276MOL0     H37232   9.398  10.894   1.695 -2.2885 -2.5925 -0.9534
  276MOL0     H37233   9.329  10.873   1.526 -1.4232 -0.1461  0.3824
  276MOL0     H37234   9.520  11.092   1.595 -0.4265  1.1307 -1.8859
  276MOL0     H37235   9.449  11.059   1.438  1.9037  1.3157 -0.5315
  276MOL0     H37236   9.589  10.855   1.404  1.9857 -0.3837 -0.3387
  276MOL0     H37237   9.697  10.969   1.482 -1.8820  3.1791 -1.8039
  276MOL0     H37238   9.533  10.747   1.617 -0.6167  0.6153  1.0197
  276MOL0     H37239   9.614  10.875   1.702 -1.4754 -1.1841  0.7061
  276MOL0     H37240   9.764  10.698   1.489 -0.8419 -1.2127  1.2484
  276MOL0     H37241   9.771  10.667   1.657  4.0027 -0.5844 -1.6974
  276MOL0     H37242   9.420  10.834   2.058  1.0371 -2.1486  2.8057
  276MOL0     H37243   9.527  10.905   2.299 -0.3980 -0.1673  0.1929
  276MOL0     H37244   9.515  11.090   2.675 -2.2086  2.5295 -3.1371
  276MOL0     H37245   9.672  10.974   2.824 -1.3379 -0.5154 -1.1245
  276MOL0     H37246  10.099  10.471   4.589 -0.2733 -0.0749  0.7317
  276MOL0     H37247  10.183  10.273   4.694  3.1804 -1.0624  1.6020
  276MOL0     H37248  10.662   9.885   4.664  0.2641 -1.2377  0.6927
  276MOL0     H37249  10.664   9.687   4.833 -1.0813  1.3970  2.2698
  276MOL0     H37250  10.528   9.453   4.774 -1.5465  0.0822 -0.6911
  276MOL0     H37251  10.540   9.412   4.948 -1.2783 -1.1906  0.9362
  276MOL0     H37252  10.362   9.282   4.818 -0.4863 -0.5344  0.8941
  276MOL0     H37253  10.284   9.439   4.790  3.0070 -1.0343 -1.8731
  276MOL0     H37254  10.257   9.451   5.044 -1.2359  1.8390 -1.8623
  276MOL0     H37255  10.318   9.288   5.061 -1.4271  2.0410  3.0338
  276MOL0     H37256  10.059   9.356   4.925 -0.5041  0.1373  2.2764
  276MOL0     H37257  10.077   9.268   5.068  0.0469  2.1356  1.5324
  276MOL0     H37258  10.168   8.955   4.807 -1.7499 -1.0369  0.7967
  276MOL0     H37259  10.236   9.726   4.856  0.3091  0.8483  1.6354
  276MOL0     H37260  10.238   9.884   4.675 -0.2185 -1.4945 -2.0675
  277MOL0     O37261   5.151   6.086   5.223 -0.3905  0.2115  0.5191
  277MOL0     C37262   5.204   6.022   5.133  0.6136 -0.1631  0.2281
  277MOL0     O37263   5.200   6.055   5.000 -0.2129  0.1707  0.3369
  277MOL0     C37264   5.126   6.174   4.977  0.2467 -0.3830  0.0169
  277MOL0     C37265   5.177   6.308   4.982  0.1667  0.5068  0.0979
  277MOL0     C37266   5.108   6.428   4.946  0.4382  0.2146 -0.1736
  277MOL0     C37267   4.981   6.423   4.909 -0.4223 -0.2564  0.3236
  277MOL0     O37268   4.912   6.540   4.896 -0.1090  0.0656  0.2164
  277MOL0     C37269   4.770   6.551   4.870  0.3891 -0.3347  0.3350
  277MOL0     C37270   4.744   6.585   4.722  0.1126  0.1367  0.1241
  277MOL0     C37271   4.802   6.721   4.689  0.0427  0.7426  0.5333
  277MOL0     C37272   4.725   6.793   4.574  0.0163  0.0255 -0.0011
  277MOL0     C37273   4.759   6.729   4.438  0.3568  0.2894 -0.0097
  277MOL0     C37274   4.723   6.812   4.313 -0.4015 -0.0449 -0.5204
  277MOL0     C37275   4.587   6.878   4.320 -0.2813  0.5170 -0.6140
  277MOL0     C37276   4.532   6.932   4.186  0.7170  0.1020  1.1173
  277MOL0     N37277   4.629   7.015   4.104  0.7180 -0.0620  0.2361
  277MOL0     C37278   4.660   7.143   4.127  0.0700 -0.3293  0.3814
  277MOL0     C37279   4.735   7.172   4.019 -0.2693 -0.5192  0.7136
  277MOL0     C37280   4.781   7.316   3.982  0.4602 -0.4696 -0.1392
  277MOL0     C37281   4.657   7.395   3.927  0.4593  0.0995 -0.1037
  277MOL0     C37282   4.590   7.321   3.811  0.6290  0.0280 -0.8369
  277MOL0     C37283   4.679   7.313   3.690 -0.5091  1.0537  0.6726
  277MOL0     O37284   4.752   7.421   3.648  0.1071 -0.3463  0.6286
  277MOL0     C37285   4.678   7.527   3.591 -0.0677 -0.3644 -0.6685
  277MOL0     C37286   4.737   7.654   3.612 -0.3654 -0.0309  0.4390
  277MOL0     C37287   4.685   7.773   3.564 -0.8462 -0.5240 -0.5040
  277MOL0     C37288   4.743   7.908   3.601  0.0569  0.7981 -1.1568
  277MOL0     C37289   4.575   7.762   3.478 -0.0819  0.5499  0.4453
  277MOL0     C37290   4.521   7.881   3.399  0.3419  0.1068  1.3505
  277MOL0     O37291   4.570   8.012   3.413 -0.1368  0.9030  0.0423
  277MOL0     C37292   4.524   8.101   3.323  0.3387  0.0674  0.0004
  277MOL0     C37293   4.600   8.129   3.213  0.0845 -0.1263  0.5719
  277MOL0     C37294   4.557   8.225   3.123  0.2408 -0.0036  0.2608
  277MOL0     C37295   4.430   8.295   3.142 -0.0074 -1.0736  0.3239
  277MOL0     O37296   4.397   8.381   3.047 -0.0517 -0.8188  0.9510
  277MOL0     C37297   4.263   8.440   3.050  0.6319 -0.6753  0.4771
  277MOL0     C37298   4.207   8.492   2.912 -0.8920  0.4473 -0.0401
  277MOL0     C37299   4.222   8.394   2.783 -0.8081  0.2922  0.0577
  277MOL0     C37300   4.216   8.463   2.649  0.2631  0.2602 -0.1738
  277MOL0     C37301   4.088   8.540   2.614  0.5378 -0.8701  0.2814
  277MOL0     C37302   3.957   8.463   2.598 -0.5815 -0.1953 -0.2477
  277MOL0     C37303   3.839   8.547   2.540  0.1864 -0.1869  1.1924
  277MOL0     C37304   3.704   8.500   2.587  0.4442 -0.2110  0.5975
  277MOL0    Cl37305   3.685   8.470   2.756  0.4087  0.0776 -0.2027
  277MOL0     C37306   4.343   8.243   3.239 -0.4627 -0.3786 -0.1575
  277MOL0     C37307   4.399   8.157   3.331  0.4279  0.8721 -0.6276
  277MOL0     O37308   4.439   7.851   3.310  0.7960  0.8873 -0.3453
  277MOL0     C37309   4.509   7.638   3.468 -0.3629  0.3842  0.0837
  277MOL0     C37310   4.554   7.519   3.521  0.2167  0.5687 -0.7849
  277MOL0     N37311   4.751   7.072   3.930 -0.2447  0.1689 -0.7802
  277MOL0     N37312   4.687   6.971   3.987 -0.2061  0.5624 -0.6687
  277MOL0     C37313   4.922   6.292   4.893  0.0446  0.1362  0.4945
  277MOL0     C37314   5.001   6.170   4.924  0.8446 -0.2267 -0.5859
  277MOL0     C37315   5.298   5.900   5.173 -0.7572  0.8770  0.7039
  277MOL0     C37316   5.361   5.815   5.073 -0.6357  0.4712  0.5062
  277MOL0     C37317   5.427   5.703   5.119 -1.1645  0.5036  0.1047
  277MOL0     C37318   5.448   5.668   5.255 -0.3364 -0.5938  0.3127
  277MOL0     O37319   5.509   5.550   5.303  0.4232 -0.1337 -0.1543
  277MOL0     C37320   5.534   5.435   5.223 -1.5001  0.3652 -0.0510
  277MOL0     C37321   5.568   5.334   5.324 -0.8950  0.0789 -0.5728
  277MOL0     C37322   5.433   5.271   5.370 -0.3546  0.3358  0.4223
  277MOL0     C37323   5.456   5.124   5.415  0.3798  0.1895 -0.7104
  277MOL0     C37324   5.561   5.084   5.518 -0.2624  0.6707  0.4613
  277MOL0     C37325   5.634   5.055   5.618  1.5957 -0.0236 -1.2413
  277MOL0     C37326   5.388   5.755   5.340  0.1942  0.7101  0.1595
  277MOL0     C37327   5.305   5.862   5.307 -0.7645 -1.2002 -0.1354
  277MOL0     H37328   5.278   6.318   5.021 -0.5425  0.6904  1.9603
  277MOL0     H37329   5.160   6.523   4.957  0.8492 -0.1213  0.9883
  277MOL0     H37330   4.721   6.456   4.893 -1.7135  1.1976  2.6512
  277MOL0     H37331   4.728   6.608   4.953  2.0117 -1.6001  2.1244
  277MOL0     H37332   4.792   6.509   4.659 -0.8070  0.3295 -0.8404
  277MOL0     H37333   4.636   6.591   4.706  0.1625  2.9895  0.1897
  277MOL0     H37334   4.789   6.779   4.781 -3.7236 -1.9884  1.9698
  277MOL0     H37335   4.910   6.721   4.673  0.7653  0.8039  4.4305
  277MOL0     H37336   4.616   6.796   4.585 -0.1244 -2.7768 -0.0517
  277MOL0     H37337   4.768   6.894   4.577  2.1868 -0.8561  0.0226
  277MOL0     H37338   4.861   6.691   4.429  0.8119  1.6300 -0.7467
  277MOL0     H37339   4.696   6.640   4.426  2.9634 -1.9874  1.7750
  277MOL0     H37340   4.796   6.889   4.285 -1.1529  0.2208 -1.8342
  277MOL0     H37341   4.711   6.741   4.231  0.7181  1.2053 -1.8021
  277MOL0     H37342   4.512   6.802   4.345  0.6347 -0.2494 -0.1239
  277MOL0     H37343   4.577   6.945   4.406 -4.6523 -2.2509  1.4427
  277MOL0     H37344   4.435   6.982   4.192 -1.7207 -3.9454 -0.4772
  277MOL0     H37345   4.511   6.839   4.133 -0.1833 -0.2791  2.1097
  277MOL0     H37346   4.639   7.205   4.214  0.6919  0.9194 -0.3247
  277MOL0     H37347   4.825   7.359   4.073 -2.0037  0.4254  0.7077
  277MOL0     H37348   4.858   7.321   3.905  1.1005 -0.1640  0.5054
  277MOL0     H37349   4.698   7.493   3.901  1.0628  0.5669  2.2978
  277MOL0     H37350   4.579   7.408   4.003  0.0320  2.0621 -0.8195
  277MOL0     H37351   4.501   7.373   3.773 -0.2942 -1.3209 -0.6153
  277MOL0     H37352   4.544   7.226   3.840 -0.8645  1.3547  1.4586
  277MOL0     H37353   4.626   7.262   3.608  2.2973 -1.0022 -0.0454
  277MOL0     H37354   4.745   7.226   3.704 -3.7353 -2.1697 -2.1354
  277MOL0     H37355   4.831   7.644   3.666 -0.6572  1.7593  1.3653
  277MOL0     H37356   4.814   7.890   3.683 -1.1722  0.2193 -0.1911
  277MOL0     H37357   4.793   7.960   3.519  0.5930  0.9420 -0.7493
  277MOL0     H37358   4.673   7.974   3.654 -0.3808 -2.3312  2.6198
  277MOL0     H37359   4.695   8.076   3.206 -1.0973 -2.2461 -0.4976
  277MOL0     H37360   4.630   8.254   3.049  1.7713 -0.0061  1.7140
  277MOL0     H37361   4.191   8.360   3.069  0.4435  0.0292  2.9890
  277MOL0     H37362   4.272   8.514   3.129  2.4810  0.0527 -0.3572
  277MOL0     H37363   4.101   8.516   2.928 -0.6118  1.3327  0.6125
  277MOL0     H37364   4.267   8.582   2.893  1.2199 -1.3169 -2.3303
  277MOL0     H37365   4.146   8.317   2.795  1.0822 -1.2706  3.0174
  277MOL0     H37366   4.306   8.325   2.791 -4.5181 -4.5916  1.5095
  277MOL0     H37367   4.304   8.527   2.656 -0.5334  1.2412  1.8121
  277MOL0     H37368   4.225   8.388   2.570 -0.5550  0.7208 -0.7193
  277MOL0     H37369   4.106   8.574   2.511 -0.5591 -1.1531 -0.0239
  277MOL0     H37370   4.069   8.613   2.693 -0.3856 -1.4244  0.5850
  277MOL0     H37371   3.974   8.367   2.549  3.0431 -0.9437  2.0029
  277MOL0     H37372   3.930   8.438   2.701 -3.0661  0.7512 -0.6122
  277MOL0     H37373   3.842   8.548   2.431  0.6564 -0.5253  1.2008
  277MOL0     H37374   3.846   8.653   2.567  0.9530 -0.2928  1.4337
  277MOL0     H37375   3.693   8.406   2.532  0.7937  0.6791 -1.0443
  277MOL0     H37376   3.629   8.573   2.556  1.1165 -0.4587 -1.8266
  277MOL0     H37377   4.240   8.275   3.249 -0.2424 -0.2812  2.9514
  277MOL0     H37378   4.339   8.110   3.408  0.4952 -0.9110 -1.6280
  277MOL0     H37379   4.415   7.633   3.413 -0.3563 -0.1549  0.1143
  277MOL0     H37380   4.504   7.423   3.509  1.8393 -0.4219  0.1369
  277MOL0     H37381   4.824   6.281   4.849  1.4009  0.2754 -2.8437
  277MOL0     H37382   4.951   6.076   4.907  1.0220 -0.0347 -2.3725
  277MOL0     H37383   5.369   5.833   4.966 -0.6431  0.1955  0.4576
  277MOL0     H37384   5.491   5.653   5.048  1.2386  1.4365  1.5060
  277MOL0     H37385   5.454   5.405   5.154  2.1958 -1.5390 -3.9889
  277MOL0     H37386   5.625   5.443   5.162 -0.9000  0.2232  0.8188
  277MOL0     H37387   5.618   5.391   5.403 -1.5018  1.5842 -1.2394
  277MOL0     H37388   5.640   5.262   5.283  0.3933  0.4147  0.9727
  277MOL0     H37389   5.364   5.253   5.288 -0.0414 -3.1776  0.7792
  277MOL0     H37390   5.393   5.336   5.448  2.3409  1.8621  0.6457
  277MOL0     H37391   5.485   5.068   5.326  1.0219 -1.3571  0.4257
  277MOL0     H37392   5.360   5.082   5.448  0.8799 -0.1126  0.3985
  277MOL0     H37393   5.682   5.041   5.712 -0.9075  1.7893  0.4316
  277MOL0     H37394   5.417   5.736   5.443  0.7131 -0.1700 -0.1407
  277MOL0     H37395   5.254   5.920   5.383  2.3654 -1.3412  2.3028
  278MOL0     O37396   8.650   3.340   3.889 -0.4199 -0.4154  0.7694
  278MOL0     C37397   8.729   3.413   3.944 -0.3972 -0.2637 -0.3308
  278MOL0     O37398   8.811   3.364   4.038  0.3668  0.0347  0.2222
  278MOL0     C37399   8.842   3.238   4.076  0.0129  1.6084  0.1079
  278MOL0     C37400   8.830   3.121   3.990 -0.0205  0.0045  0.0606
  278MOL0     C37401   8.845   2.994   4.036  0.0204  1.0408 -0.1818
  278MOL0     C37402   8.886   2.968   4.164  0.0470 -0.4125 -0.2686
  278MOL0     O37403   8.921   2.842   4.192 -0.8396  0.6079 -0.1182
  278MOL0     C37404   8.967   2.803   4.326  0.4125 -0.6576  0.3210
  278MOL0     C37405   8.952   2.651   4.338 -0.2060  0.5234 -0.2434
  278MOL0     C37406   8.987   2.591   4.474 -0.1693 -0.1402 -0.5351
  278MOL0     C37407   8.998   2.444   4.466  0.6564  0.4012 -0.1718
  278MOL0     C37408   8.985   2.368   4.592  0.0454  0.3204  0.4373
  278MOL0     C37409   9.027   2.225   4.578  0.2252 -0.1886  0.2864
  278MOL0     C37410   8.997   2.145   4.705 -0.1699  0.4250  0.2911
  278MOL0     C37411   9.073   2.014   4.716  0.3706  0.2168 -1.0953
  278MOL0     N37412   9.019   1.890   4.652 -0.1125 -0.2276  0.0811
  278MOL0     C37413   8.890   1.845   4.664 -0.5904  0.1034 -0.1359
  278MOL0     C37414   8.877   1.744   4.583 -0.0917 -0.1810 -1.0702
  278MOL0     C37415   8.748   1.687   4.553  0.3436  0.6675 -0.2790
  278MOL0     C37416   8.759   1.531   4.538  0.4332  0.3538  0.3280
  278MOL0     C37417   8.624   1.455   4.506 -0.5390 -0.4780 -0.2644
  278MOL0     C37418   8.515   1.520   4.414  1.2728  0.9820 -0.2487
  278MOL0     O37419   8.416   1.422   4.392  0.3522 -0.1142 -0.8069
  278MOL0     C37420   8.310   1.395   4.474 -0.1676 -0.6466 -1.0881
  278MOL0     C37421   8.222   1.491   4.529 -0.0341  0.2801  0.8503
  278MOL0     C37422   8.122   1.453   4.616 -0.5026 -0.0241  0.4537
  278MOL0     C37423   8.039   1.568   4.652  0.5959  0.5250  0.0085
  278MOL0     C37424   8.107   1.321   4.662  0.1524  0.0401 -0.3369
  278MOL0     C37425   8.010   1.281   4.771  0.1082  0.6993  1.0768
  278MOL0     O37426   8.009   1.144   4.795  0.8836  0.4880 -0.0214
  278MOL0     C37427   7.891   1.087   4.846  0.2600 -0.9494  0.6170
  278MOL0     C37428   7.804   1.140   4.941  0.3057  0.4361 -0.6244
  278MOL0     C37429   7.686   1.071   4.969 -0.3444  0.8680  0.7311
  278MOL0     C37430   7.652   0.942   4.915 -0.0596 -1.2742  0.5597
  278MOL0     O37431   7.537   0.882   4.955  0.5964 -0.0330  0.1284
  278MOL0     C37432   7.524   0.737   4.928 -1.3924 -0.6264  0.4971
  278MOL0     C37433   7.380   0.701   4.960  1.7286 -0.1850  0.4673
  278MOL0     C37434   7.346   0.721   5.111  1.0291 -0.5279  0.1453
  278MOL0     C37435   7.193   0.723   5.133  0.5094  0.0859 -0.3905
  278MOL0     C37436   7.141   0.845   5.201  0.2074 -0.6007 -0.3771
  278MOL0     C37437   6.990   0.843   5.190  0.1779  0.7153 -0.1789
  278MOL0     C37438   6.932   0.931   5.307  0.8302  0.9476 -0.2417
  278MOL0     C37439   6.779   0.909   5.312 -0.6121  0.6943  0.3389
  278MOL0    Cl37440   6.727   0.747   5.377 -0.7079 -0.1409 -0.0904
  278MOL0     C37441   7.742   0.887   4.826  0.2675  1.3219 -0.4899
  278MOL0     C37442   7.855   0.958   4.790  0.7433  0.3517  0.6018
  278MOL0     O37443   7.944   1.369   4.831 -0.9047 -0.1608  0.4140
  278MOL0     C37444   8.175   1.214   4.595 -0.5897  0.3471 -0.0959
  278MOL0     C37445   8.273   1.255   4.503 -0.0598 -0.0337  1.3732
  278MOL0     N37446   9.007   1.725   4.520  0.3057  0.6203  0.8435
  278MOL0     N37447   9.086   1.813   4.564 -0.0705 -0.3034 -0.2150
  278MOL0     C37448   8.897   3.084   4.244  0.3546 -0.4193 -0.1881
  278MOL0     C37449   8.880   3.219   4.207 -1.3744  0.7044 -0.0380
  278MOL0     C37450   8.749   3.555   3.899 -0.6685  0.2337 -0.8370
  278MOL0     C37451   8.653   3.629   3.825 -0.2192 -0.4131  0.3689
  278MOL0     C37452   8.678   3.748   3.776  0.3419 -0.2637  0.2637
  278MOL0     C37453   8.791   3.820   3.806 -0.1840  0.1600 -0.2109
  278MOL0     O37454   8.816   3.938   3.742  0.6169 -0.0806 -1.0675
  278MOL0     C37455   8.942   3.963   3.683 -0.2405  0.0942 -0.7409
  278MOL0     C37456   8.950   4.103   3.629 -0.5916 -0.1770  0.1420
  278MOL0     C37457   9.090   4.163   3.597  0.2241 -0.1224 -0.9523
  278MOL0     C37458   9.183   4.062   3.531  0.4900 -1.3624 -0.1426
  278MOL0     C37459   9.313   4.122   3.521 -0.0517  0.0323 -0.5498
  278MOL0     C37460   9.421   4.162   3.512 -0.6529 -0.3829  1.1170
  278MOL0     C37461   8.882   3.763   3.900 -0.4203  0.1608  0.7819
  278MOL0     C37462   8.859   3.632   3.947 -0.5430 -0.5705  0.0014
  278MOL0     H37463   8.801   3.126   3.886  1.4492 -4.2570 -0.7313
  278MOL0     H37464   8.825   2.910   3.970  0.7165  0.4851  0.3020
  278MOL0     H37465   9.063   2.848   4.353 -1.8930  4.2759  1.4748
  278MOL0     H37466   8.896   2.857   4.389 -0.0011  0.2347 -0.8759
  278MOL0     H37467   8.849   2.628   4.310 -0.1177  0.1505 -0.2581
  278MOL0     H37468   9.025   2.617   4.264 -0.3886  0.9596 -0.6251
  278MOL0     H37469   9.080   2.631   4.516  0.6092 -2.8757  0.6209
  278MOL0     H37470   8.907   2.620   4.542  1.8270  2.9462  0.7590
  278MOL0     H37471   8.919   2.404   4.401 -0.5712  1.5558  0.5733
  278MOL0     H37472   9.090   2.410   4.416  1.1310 -0.0239  0.9526
  278MOL0     H37473   9.055   2.425   4.655  2.0828 -0.5479 -0.9520
  278MOL0     H37474   8.884   2.378   4.633  0.8293 -0.2496  2.6944
  278MOL0     H37475   8.977   2.181   4.491  1.5800  0.4657 -0.8641
  278MOL0     H37476   9.131   2.225   4.545 -1.1246 -2.1018 -5.0388
  278MOL0     H37477   9.021   2.211   4.789 -1.1389 -0.1406  1.0279
  278MOL0     H37478   8.890   2.125   4.714 -0.3894  0.6387 -1.4180
  278MOL0     H37479   9.066   1.975   4.818  2.3014  2.2703 -0.1056
  278MOL0     H37480   9.178   2.030   4.689  0.4800  0.3293 -0.6011
  278MOL0     H37481   8.811   1.880   4.730 -0.8609  0.1303 -0.4747
  278MOL0     H37482   8.684   1.703   4.640  1.3928 -1.1030  0.8568
  278MOL0     H37483   8.707   1.735   4.463 -0.4673  0.5376  0.0119
  278MOL0     H37484   8.798   1.493   4.634  0.2036 -0.5985  0.0593
  278MOL0     H37485   8.836   1.501   4.467 -0.1396 -0.6804  0.1100
  278MOL0     H37486   8.584   1.448   4.608  0.7339 -1.8023  0.1789
  278MOL0     H37487   8.653   1.355   4.472  0.4020  0.8720 -3.8670
  278MOL0     H37488   8.563   1.543   4.318  0.6736  1.2893 -0.4826
  278MOL0     H37489   8.466   1.600   4.469 -0.6794 -0.7590  0.7155
  278MOL0     H37490   8.223   1.596   4.502 -5.4957  0.0587 -1.5209
  278MOL0     H37491   7.932   1.557   4.634 -0.1054  0.4120  3.5337
  278MOL0     H37492   8.056   1.588   4.758 -0.3598 -3.0199  0.9594
  278MOL0     H37493   8.059   1.660   4.595 -2.5746  1.9420  0.9470
  278MOL0     H37494   7.836   1.236   4.981  0.6124 -0.5816  1.7051
  278MOL0     H37495   7.612   1.124   5.028 -4.5941 -1.0556 -2.4379
  278MOL0     H37496   7.542   0.714   4.823  1.1331 -1.3210  1.0008
  278MOL0     H37497   7.606   0.686   4.980  1.5622  1.9460 -1.2896
  278MOL0     H37498   7.310   0.753   4.895  3.8253  0.4209 -1.4166
  278MOL0     H37499   7.379   0.593   4.941  1.4389 -0.0902 -0.0535
  278MOL0     H37500   7.385   0.816   5.150 -1.2222  0.7474 -0.5022
  278MOL0     H37501   7.383   0.639   5.172  2.4335  0.6505  0.9473
  278MOL0     H37502   7.140   0.704   5.039  0.3397 -2.6263  0.1510
  278MOL0     H37503   7.170   0.643   5.205  1.0660 -2.2411 -2.6406
  278MOL0     H37504   7.166   0.943   5.158 -3.6717  0.7342  0.0017
  278MOL0     H37505   7.180   0.851   5.303  0.2326  0.2757 -0.4306
  278MOL0     H37506   6.956   0.886   5.095  0.4618  2.8769  0.6585
  278MOL0     H37507   6.960   0.738   5.189  0.0328  0.5799  3.6083
  278MOL0     H37508   6.946   1.037   5.282  0.0101  0.8361 -1.2077
  278MOL0     H37509   6.976   0.903   5.404 -1.7435 -0.6301  0.5788
  278MOL0     H37510   6.735   0.920   5.213  1.9586 -1.1146 -1.1137
  278MOL0     H37511   6.742   0.988   5.378  0.7318  2.2250 -0.6498
  278MOL0     H37512   7.732   0.788   4.783  4.4217  2.4116 -4.9499
  278MOL0     H37513   7.918   0.916   4.711 -1.2923 -2.6647  0.4040
  278MOL0     H37514   8.160   1.107   4.610  1.1672 -0.2099 -1.9281
  278MOL0     H37515   8.330   1.176   4.454 -1.2088 -1.9419  2.9642
  278MOL0     H37516   8.927   3.060   4.346  0.4228 -2.6390 -0.6768
  278MOL0     H37517   8.903   3.299   4.277  1.4358 -1.5083  1.7926
  278MOL0     H37518   8.556   3.591   3.797  0.5749 -0.4843 -2.6789
  278MOL0     H37519   8.615   3.777   3.693 -1.2824 -1.6804  0.9410
  278MOL0     H37520   9.017   3.961   3.762 -1.2873  1.0024  0.2968
  278MOL0     H37521   8.959   3.894   3.599 -1.7514  0.2762 -1.2240
  278MOL0     H37522   8.899   4.169   3.701  1.5618 -0.3373  1.8948
  278MOL0     H37523   8.890   4.108   3.537 -3.1604  0.5663  1.7246
  278MOL0     H37524   9.140   4.190   3.690 -0.2222 -0.3053 -0.6576
  278MOL0     H37525   9.082   4.256   3.540 -0.2766  1.1686  1.1108
  278MOL0     H37526   9.142   4.029   3.435 -1.3853 -4.0681  1.4525
  278MOL0     H37527   9.204   3.971   3.589  1.6229 -1.6034 -0.8911
  278MOL0     H37528   9.521   4.199   3.502  0.2319 -3.1971 -2.7751
  278MOL0     H37529   8.961   3.827   3.939 -0.9876  0.4729  1.4464
  278MOL0     H37530   8.927   3.595   4.023 -1.7443 -1.5602  0.6344
  279MOL0     O37531   5.597   7.167   1.651  0.4321 -0.3869 -0.5530
  279MOL0     C37532   5.571   7.145   1.771  0.4884 -0.0353 -0.1072
  279MOL0     O37533   5.588   7.231   1.867 -0.0469  0.0438 -0.7581
  279MOL0     C37534   5.668   7.344   1.845  0.3056 -0.5276  0.3676
  279MOL0     C37535   5.794   7.351   1.788 -0.5139  0.0243  0.2188
  279MOL0     C37536   5.884   7.462   1.799 -0.1482 -0.1683 -0.9543
  279MOL0     C37537   5.826   7.579   1.865 -0.6320  0.6841  0.2830
  279MOL0     O37538   5.910   7.687   1.878 -0.4179  0.1328 -0.6448
  279MOL0     C37539   5.858   7.820   1.855 -0.2791 -0.0386 -0.3866
  279MOL0     C37540   5.860   7.888   1.991  1.1032  0.4064 -0.0981
  279MOL0     C37541   5.795   8.028   1.972 -0.3443 -0.0004  0.7815
  279MOL0     C37542   5.830   8.124   2.089 -0.0781  0.0271  0.8785
  279MOL0     C37543   5.785   8.275   2.064  0.6674  0.0237 -0.4653
  279MOL0     C37544   5.792   8.350   2.195  0.2186 -0.1498 -0.0488
  279MOL0     C37545   5.743   8.488   2.177 -0.0526 -0.1973 -0.7359
  279MOL0     C37546   5.855   8.576   2.114 -0.2029 -0.4488  0.7565
  279MOL0     N37547   5.811   8.708   2.080 -0.2675 -0.4110  0.3585
  279MOL0     C37548   5.683   8.759   2.055 -0.0803 -0.1326  0.3370
  279MOL0     C37549   5.695   8.877   2.026  1.7060 -0.3417  0.8403
  279MOL0     C37550   5.589   8.984   2.012 -0.0864  0.3190 -0.3185
  279MOL0     C37551   5.486   8.960   1.904  0.6435 -0.3681 -0.0027
  279MOL0     C37552   5.530   8.983   1.755  0.0344 -0.1526 -0.3767
  279MOL0     C37553   5.611   9.104   1.739  1.1619  0.1685 -0.1636
  279MOL0     O37554   5.541   9.226   1.767 -0.1057 -0.1936  0.0434
  279MOL0     C37555   5.456   9.275   1.665  0.5098 -0.1709  0.6617
  279MOL0     C37556   5.365   9.376   1.700  0.1488 -0.2311  0.6413
  279MOL0     C37557   5.281   9.434   1.610 -1.1516 -1.1021  0.7645
  279MOL0     C37558   5.216   9.552   1.669 -0.7841 -0.8036 -0.6205
  279MOL0     C37559   5.286   9.397   1.473 -0.2402 -0.5105  0.4112
  279MOL0     C37560   5.232   9.480   1.361  0.8157  0.2060  0.0691
  279MOL0     O37561   5.273   9.444   1.233  0.2221  0.5595 -0.0731
  279MOL0     C37562   5.220   9.516   1.129  0.1479  0.7273  0.0661
  279MOL0     C37563   5.301   9.610   1.070  0.1948  0.1196  0.6562
  279MOL0     C37564   5.253   9.689   0.970 -1.1506 -0.6575 -0.3447
  279MOL0     C37565   5.132   9.659   0.912 -0.0005  0.1562 -0.5112
  279MOL0     O37566   5.091   9.742   0.814  0.5745 -0.3249 -0.3913
  279MOL0     C37567   4.966   9.725   0.740 -0.6645 -0.3733 -0.0838
  279MOL0     C37568   4.937   9.840   0.642 -0.0656 -0.2616  0.5225
  279MOL0     C37569   4.797   9.847   0.584 -0.1547  0.5479 -0.3155
  279MOL0     C37570   4.811   9.918   0.445 -0.3012  0.7721  0.2078
  279MOL0     C37571   4.677   9.997   0.416 -0.0046 -0.5870  0.1200
  279MOL0     C37572   4.678  10.105   0.307  0.1325 -0.3374 -0.1875
  279MOL0     C37573   4.696  10.027   0.175  0.1994 -0.3287 -0.3326
  279MOL0     C37574   4.621  10.088   0.058  0.2497  1.3551 -0.1250
  279MOL0    Cl37575   4.681  10.028  -0.102 -0.0878  0.1873  0.0975
  279MOL0     C37576   5.051   9.559   0.966  0.0592 -0.5384 -0.6918
  279MOL0     C37577   5.094   9.493   1.082 -0.0733  0.6214  0.3860
  279MOL0     O37578   5.139   9.566   1.381 -0.9388  0.1665  0.6165
  279MOL0     C37579   5.368   9.292   1.431  0.4914 -0.0723  0.5981
  279MOL0     C37580   5.446   9.231   1.530 -0.1713  0.2182 -0.6939
  279MOL0     N37581   5.832   8.911   2.032  0.4068  0.4978 -0.2559
  279MOL0     N37582   5.897   8.807   2.069 -0.4620 -0.7572  0.4338
  279MOL0     C37583   5.689   7.579   1.904  0.0604 -0.8745  0.0406
  279MOL0     C37584   5.611   7.462   1.891 -0.0219 -0.0110 -0.2803
  279MOL0     C37585   5.487   7.029   1.803 -0.9440  0.2867  0.1707
  279MOL0     C37586   5.406   6.969   1.703  0.5618 -0.0447 -0.7394
  279MOL0     C37587   5.319   6.863   1.727  0.0907 -0.0606 -0.8122
  279MOL0     C37588   5.321   6.807   1.852 -0.5993 -0.3079  0.8630
  279MOL0     O37589   5.249   6.688   1.864 -0.6418 -0.6048  1.0628
  279MOL0     C37590   5.104   6.715   1.869 -0.0496  0.6917 -0.5011
  279MOL0     C37591   5.037   6.621   1.774 -0.0447 -0.0183  0.5650
  279MOL0     C37592   5.090   6.488   1.791  0.3647  0.5849  0.1072
  279MOL0     C37593   5.015   6.390   1.703  0.4974  0.4595 -0.0910
  279MOL0     C37594   4.878   6.376   1.746  1.1256  0.0670  0.0837
  279MOL0     C37595   4.769   6.365   1.800 -0.0566  0.0591 -0.2305
  279MOL0     C37596   5.401   6.865   1.956  0.0388  0.0381  0.5641
  279MOL0     C37597   5.488   6.978   1.929  0.3826  0.7297  0.0584
  279MOL0     H37598   5.813   7.256   1.738 -1.1934  0.4331 -0.8681
  279MOL0     H37599   5.988   7.461   1.768  0.0476  0.9322 -0.3959
  279MOL0     H37600   5.924   7.875   1.786 -0.2051 -0.1978 -0.4452
  279MOL0     H37601   5.759   7.820   1.809  0.0975  0.8468 -1.2210
  279MOL0     H37602   5.797   7.848   2.071 -0.8335  2.0956 -0.7259
  279MOL0     H37603   5.963   7.905   2.025  1.3794 -2.3798  0.7797
  279MOL0     H37604   5.828   8.081   1.882  2.0560 -0.5639  1.2582
  279MOL0     H37605   5.687   8.028   1.958 -0.0833 -1.3587 -1.6883
  279MOL0     H37606   5.783   8.098   2.185  3.4985 -2.1244  2.2263
  279MOL0     H37607   5.939   8.130   2.094  0.5117 -0.6935 -4.9651
  279MOL0     H37608   5.847   8.318   1.984  0.2903  0.5879 -0.4616
  279MOL0     H37609   5.684   8.286   2.025  1.8322  0.7539 -3.5351
  279MOL0     H37610   5.723   8.303   2.265 -2.4194 -2.2370 -3.6953
  279MOL0     H37611   5.894   8.347   2.235  0.8379  0.3751 -1.5114
  279MOL0     H37612   5.651   8.487   2.119 -0.1463 -2.0078 -0.6015
  279MOL0     H37613   5.728   8.531   2.277  2.9549 -1.5625  0.4160
  279MOL0     H37614   5.888   8.529   2.021 -1.9634 -1.1344  0.4285
  279MOL0     H37615   5.935   8.596   2.185  0.7052  1.1035 -0.6443
  279MOL0     H37616   5.590   8.704   2.051  0.5692 -1.2721 -3.9315
  279MOL0     H37617   5.529   8.983   2.104 -2.4097 -1.2609 -1.7413
  279MOL0     H37618   5.639   9.080   2.001  0.8257 -0.4550 -5.0112
  279MOL0     H37619   5.406   9.031   1.925 -0.3163 -0.8466 -1.8169
  279MOL0     H37620   5.442   8.861   1.914 -1.3490  0.6926  3.3808
  279MOL0     H37621   5.440   8.989   1.694  0.2968  0.8559 -0.6948
  279MOL0     H37622   5.579   8.892   1.720  0.3868 -0.2681  0.4054
  279MOL0     H37623   5.650   9.097   1.637  0.6664 -3.7694 -0.2717
  279MOL0     H37624   5.692   9.109   1.812 -0.8861 -2.2786  2.5371
  279MOL0     H37625   5.378   9.418   1.799  2.1021  1.2453 -0.1684
  279MOL0     H37626   5.211   9.643   1.608  0.3157 -0.0438  0.3738
  279MOL0     H37627   5.111   9.525   1.678 -0.7385 -1.4828 -1.9224
  279MOL0     H37628   5.253   9.584   1.767  0.0331 -2.0896 -0.4790
  279MOL0     H37629   5.400   9.619   1.114 -0.1323  0.5248  1.3283
  279MOL0     H37630   5.310   9.774   0.934 -1.4921 -0.9256 -1.5298
  279MOL0     H37631   4.975   9.634   0.681 -3.0272  1.1295 -3.0374
  279MOL0     H37632   4.885   9.718   0.814  1.3953 -0.3694  2.3107
  279MOL0     H37633   4.953   9.939   0.684 -0.4203 -0.2996  0.7574
  279MOL0     H37634   5.009   9.824   0.561 -1.4403  0.0754 -0.8118
  279MOL0     H37635   4.736   9.910   0.648 -0.8755  0.6546 -1.0906
  279MOL0     H37636   4.755   9.746   0.588  2.5425 -0.7240 -1.2643
  279MOL0     H37637   4.896   9.987   0.445 -0.9189  1.5553  0.7936
  279MOL0     H37638   4.823   9.841   0.368 -2.1952  2.4619 -1.9113
  279MOL0     H37639   4.647  10.044   0.510  0.5670  5.2231 -2.2288
  279MOL0     H37640   4.601   9.922   0.392  1.2192 -0.9982 -3.0815
  279MOL0     H37641   4.576  10.140   0.289 -0.0079 -2.0788 -3.4845
  279MOL0     H37642   4.746  10.190   0.317  0.6313 -0.5746 -1.3941
  279MOL0     H37643   4.668   9.923   0.189 -1.9602  0.2347 -0.1218
  279MOL0     H37644   4.803  10.028   0.151  0.8792  1.2230  2.3492
  279MOL0     H37645   4.647  10.194   0.053 -1.0213  1.7968  1.8682
  279MOL0     H37646   4.512  10.082   0.060  0.2799  0.9249  0.6656
  279MOL0     H37647   4.954   9.537   0.921 -1.8118 -1.3811  3.3172
  279MOL0     H37648   5.035   9.411   1.121 -0.9063 -0.5361 -2.9106
  279MOL0     H37649   5.388   9.258   1.330  0.6943 -0.0394  0.6261
  279MOL0     H37650   5.512   9.153   1.496  1.2830  0.0620  2.1683
  279MOL0     H37651   5.642   7.652   1.969 -0.3232  0.9471 -2.1599
  279MOL0     H37652   5.515   7.481   1.940  1.0247  1.6820  1.2232
  279MOL0     H37653   5.415   7.009   1.602  1.4708  4.6061  0.9689
  279MOL0     H37654   5.258   6.823   1.646  1.8271 -3.3159 -0.7024
  279MOL0     H37655   5.076   6.681   1.970 -2.0789 -1.1916 -1.6069
  279MOL0     H37656   5.073   6.818   1.851  1.5293  1.4462  0.7892
  279MOL0     H37657   5.054   6.649   1.669 -0.9162  3.6962  1.2827
  279MOL0     H37658   4.931   6.622   1.800 -0.5599  2.6797 -1.2371
  279MOL0     H37659   5.076   6.446   1.891 -0.9536 -0.4985 -0.4967
  279MOL0     H37660   5.196   6.491   1.766  0.3278 -1.3318 -0.4888
  279MOL0     H37661   5.061   6.292   1.718  2.2002  1.2740  0.2314
  279MOL0     H37662   5.016   6.408   1.595 -1.8811 -0.6175 -0.3486
  279MOL0     H37663   4.674   6.350   1.847 -1.7709 -0.6751 -3.6341
  279MOL0     H37664   5.410   6.822   2.056  0.7728 -2.3329 -0.4659
  279MOL0     H37665   5.543   7.025   2.010  2.4145 -2.7660  0.9389
  280MOL0     O37666   7.783   5.923   6.878 -0.5390  0.5944 -0.2307
  280MOL0     C37667   7.832   6.004   6.961 -0.1788 -1.4044 -0.4732
  280MOL0     O37668   7.757   6.096   7.037 -0.4279 -0.5011 -0.4202
  280MOL0     C37669   7.617   6.102   7.017 -0.1750  0.7059  0.1912
  280MOL0     C37670   7.556   6.098   6.889 -0.5419  0.0883  0.6532
  280MOL0     C37671   7.419   6.099   6.873  0.8265 -0.8583 -0.3701
  280MOL0     C37672   7.330   6.110   6.973  0.1836  0.0145 -0.1933
  280MOL0     O37673   7.193   6.093   6.942 -0.5364 -0.1537 -0.4516
  280MOL0     C37674   7.098   6.143   7.033 -0.1833  0.1401  0.0811
  280MOL0     C37675   7.091   6.294   7.061  0.5117  0.1564  0.2376
  280MOL0     C37676   6.978   6.331   7.145  0.9916  0.1788  0.1513
  280MOL0     C37677   6.986   6.288   7.292 -0.6563  0.0507 -0.4390
  280MOL0     C37678   7.116   6.333   7.358  0.1556 -0.5322  0.0575
  280MOL0     C37679   7.122   6.485   7.378  0.1736 -0.5090 -0.9074
  280MOL0     C37680   7.247   6.547   7.454 -0.0472 -0.5577  0.0249
  280MOL0     C37681   7.388   6.513   7.396  0.5606  0.4985  0.0937
  280MOL0     N37682   7.431   6.572   7.265 -0.2787  0.4202 -0.2155
  280MOL0     C37683   7.451   6.492   7.144  0.2775  0.3190  0.0198
  280MOL0     C37684   7.512   6.582   7.065 -1.1725 -0.1743  0.4983
  280MOL0     C37685   7.573   6.559   6.929 -0.8359 -0.2243 -0.0456
  280MOL0     C37686   7.504   6.452   6.848  0.1903  0.2818  1.0776
  280MOL0     C37687   7.358   6.464   6.829  0.0375 -0.2021  0.4880
  280MOL0     C37688   7.317   6.587   6.750  0.0298 -0.6870 -1.7390
  280MOL0     O37689   7.173   6.587   6.747  0.1995 -0.9143  0.4047
  280MOL0     C37690   7.091   6.628   6.854  0.6264  0.0163 -0.5526
  280MOL0     C37691   7.128   6.679   6.979 -0.2306  0.9278 -0.7016
  280MOL0     C37692   7.040   6.743   7.066  0.2047 -0.1708  1.3654
  280MOL0     C37693   7.098   6.790   7.190 -0.3717 -0.9960  0.3726
  280MOL0     C37694   6.899   6.753   7.032  1.1483  0.0423 -1.1516
  280MOL0     C37695   6.796   6.806   7.112  0.4371 -0.1131 -1.1012
  280MOL0     O37696   6.669   6.803   7.057 -0.5821 -0.2555 -0.4134
  280MOL0     C37697   6.560   6.827   7.143 -0.4727 -0.3153  0.1969
  280MOL0     C37698   6.468   6.934   7.115 -0.3021 -0.0475  0.0470
  280MOL0     C37699   6.348   6.953   7.188  0.1039 -0.4931  0.2048
  280MOL0     C37700   6.319   6.865   7.291 -0.6830  0.0617 -1.1851
  280MOL0     O37701   6.200   6.887   7.356  0.4721  0.7142  0.0066
  280MOL0     C37702   6.185   6.836   7.489  0.5048 -0.6525 -0.0283
  280MOL0     C37703   6.105   6.934   7.570  0.0202 -0.1778  0.8166
  280MOL0     C37704   6.097   7.074   7.521 -0.3325  0.2259  0.0538
  280MOL0     C37705   6.233   7.159   7.534  0.5652 -0.6027 -0.3463
  280MOL0     C37706   6.213   7.316   7.518 -0.6154 -0.1257 -0.0972
  280MOL0     C37707   6.136   7.361   7.393  1.3171 -0.8198  0.5008
  280MOL0     C37708   6.217   7.344   7.259 -0.4289 -0.3566 -0.6364
  280MOL0     C37709   6.342   7.436   7.248  1.0871  0.3347 -0.1305
  280MOL0    Cl37710   6.272   7.610   7.237 -0.0904  0.3778  0.2785
  280MOL0     C37711   6.412   6.763   7.325 -0.2872 -0.1756 -0.7304
  280MOL0     C37712   6.525   6.743   7.251 -0.9393 -0.3997 -1.5433
  280MOL0     O37713   6.822   6.840   7.223 -0.5347 -0.4861 -0.1228
  280MOL0     C37714   6.861   6.686   6.914 -0.1768 -0.1045  0.7288
  280MOL0     C37715   6.951   6.634   6.830  0.3705  0.1049  0.7590
  280MOL0     N37716   7.527   6.704   7.134  0.2062 -0.6861 -0.0102
  280MOL0     N37717   7.478   6.701   7.249 -0.4754  0.3272 -1.7331
  280MOL0     C37718   7.385   6.119   7.103  0.1229 -0.0446 -0.3702
  280MOL0     C37719   7.526   6.116   7.125  0.8933 -0.3274  0.3342
  280MOL0     C37720   7.979   6.009   6.982  0.4652 -1.8029 -0.1613
  280MOL0     C37721   8.030   6.114   7.065  1.6479  0.0809  0.0198
  280MOL0     C37722   8.161   6.124   7.097 -0.3750 -0.3430 -0.7038
  280MOL0     C37723   8.251   6.028   7.057  0.3215  0.1478  0.7788
  280MOL0     O37724   8.385   6.027   7.086  0.2048 -0.9912 -0.1839
  280MOL0     C37725   8.432   6.136   7.162 -0.5554  0.2880  0.4411
  280MOL0     C37726   8.579   6.116   7.179 -0.3464 -0.3084 -0.3047
  280MOL0     C37727   8.661   6.154   7.057 -0.9565 -0.1157  0.1812
  280MOL0     C37728   8.809   6.176   7.094 -0.9764 -0.1540 -0.1611
  280MOL0     C37729   8.830   6.274   7.204  0.4186 -0.0768  0.0082
  280MOL0     C37730   8.856   6.333   7.304 -0.2840 -0.2225  0.0264
  280MOL0     C37731   8.210   5.929   6.965  0.6819 -0.2634 -1.6667
  280MOL0     C37732   8.074   5.913   6.931 -0.3686 -0.0949  0.6815
  280MOL0     H37733   7.605   6.100   6.792 -1.6459  2.3537  0.0741
  280MOL0     H37734   7.387   6.115   6.771  2.1287 -1.3001 -0.8762
  280MOL0     H37735   7.001   6.107   6.999 -0.4448  0.7142  0.2100
  280MOL0     H37736   7.104   6.096   7.132  1.6693 -1.7631 -0.8574
  280MOL0     H37737   7.183   6.332   7.107 -0.8630  1.1867  2.2294
  280MOL0     H37738   7.082   6.345   6.964  2.5025 -0.2769 -0.2287
  280MOL0     H37739   6.976   6.440   7.141  2.9521  0.2097 -1.7113
  280MOL0     H37740   6.884   6.283   7.117 -0.1597  0.5170  3.0582
  280MOL0     H37741   6.900   6.328   7.347 -0.0727 -0.5895  0.9836
  280MOL0     H37742   6.986   6.179   7.299 -0.3670  0.1565  1.7531
  280MOL0     H37743   7.128   6.285   7.455  1.4316  1.9867  1.2511
  280MOL0     H37744   7.198   6.309   7.290 -0.9179 -0.9304 -1.1499
  280MOL0     H37745   7.124   6.537   7.282 -2.6270  2.4898  0.4806
  280MOL0     H37746   7.040   6.513   7.444 -0.0389  1.6763 -2.0172
  280MOL0     H37747   7.231   6.654   7.436 -2.2115 -1.1068 -1.8225
  280MOL0     H37748   7.250   6.518   7.559  1.4749  1.3261  0.5577
  280MOL0     H37749   7.399   6.404   7.384 -1.2536  0.1909  0.8627
  280MOL0     H37750   7.461   6.553   7.466  0.1866 -2.0493  2.0916
  280MOL0     H37751   7.428   6.386   7.142 -3.3350  0.9990 -0.7362
  280MOL0     H37752   7.575   6.651   6.870 -0.7134  0.9818  1.7530
  280MOL0     H37753   7.675   6.524   6.952 -1.3372 -1.8714 -0.2095
  280MOL0     H37754   7.515   6.354   6.895 -1.5779 -1.4166 -1.7454
  280MOL0     H37755   7.549   6.442   6.748 -0.8712 -2.1715  0.7796
  280MOL0     H37756   7.295   6.454   6.918  0.2929  3.3307  1.2313
  280MOL0     H37757   7.318   6.387   6.763 -3.2666  2.6147 -1.1274
  280MOL0     H37758   7.367   6.582   6.653  0.4429 -2.0453 -1.4711
  280MOL0     H37759   7.348   6.674   6.809  1.9486 -3.6087  2.0317
  280MOL0     H37760   7.235   6.666   6.997 -0.6288 -0.1918  1.1162
  280MOL0     H37761   7.056   6.748   7.282  0.9314 -0.8300  1.0607
  280MOL0     H37762   7.204   6.764   7.189 -0.3731 -1.0236  0.7028
  280MOL0     H37763   7.076   6.896   7.201 -2.3996 -1.3968  0.6939
  280MOL0     H37764   6.501   6.997   7.033  0.1884  0.5649  0.7031
  280MOL0     H37765   6.265   7.015   7.154 -1.1340 -2.7585 -1.1357
  280MOL0     H37766   6.124   6.747   7.471  1.0270 -1.5601  2.3369
  280MOL0     H37767   6.277   6.814   7.545 -1.6659 -2.8555  3.0416
  280MOL0     H37768   6.001   6.898   7.576  0.2407 -0.9773  0.0222
  280MOL0     H37769   6.155   6.935   7.667  3.9628 -1.0592 -1.0055
  280MOL0     H37770   6.023   7.133   7.575  1.3542  0.1810  2.5402
  280MOL0     H37771   6.045   7.076   7.424 -1.0387 -2.2706  0.3214
  280MOL0     H37772   6.280   7.128   7.628  0.3689  0.7647  0.2296
  280MOL0     H37773   6.292   7.124   7.449  2.1218 -0.6131  0.6940
  280MOL0     H37774   6.301   7.378   7.538 -0.1346 -0.0655 -2.1409
  280MOL0     H37775   6.162   7.331   7.613  1.7253  2.6395  0.8816
  280MOL0     H37776   6.046   7.301   7.380  1.3650 -1.6727  3.4070
  280MOL0     H37777   6.096   7.463   7.402  2.0951 -0.3844 -0.6494
  280MOL0     H37778   6.150   7.366   7.175  1.2446  0.9595 -1.6925
  280MOL0     H37779   6.259   7.244   7.249  0.4289  0.1292 -2.2351
  280MOL0     H37780   6.393   7.413   7.154 -1.2150 -2.1852 -0.9104
  280MOL0     H37781   6.411   7.419   7.331  1.6631 -1.1065 -0.8639
  280MOL0     H37782   6.386   6.693   7.404 -1.9179  0.5147 -0.6231
  280MOL0     H37783   6.586   6.654   7.262  0.8568  0.7176 -2.1156
  280MOL0     H37784   6.759   6.693   6.880  0.1009 -0.9020 -0.3086
  280MOL0     H37785   6.901   6.591   6.743  3.5883  0.3931 -1.3974
  280MOL0     H37786   7.318   6.100   7.186 -0.8733 -0.0929 -1.1610
  280MOL0     H37787   7.549   6.118   7.231  3.2930  0.2176 -0.1296
  280MOL0     H37788   7.971   6.185   7.121 -0.8202 -2.4307  0.7920
  280MOL0     H37789   8.189   6.199   7.170  0.2865 -1.6394  0.4290
  280MOL0     H37790   8.400   6.230   7.116  1.8965  1.4015  0.8402
  280MOL0     H37791   8.397   6.134   7.266 -1.0434  1.4349  0.3183
  280MOL0     H37792   8.602   6.010   7.194 -0.0673 -0.0045  1.6382
  280MOL0     H37793   8.616   6.168   7.268  0.2985 -0.1449 -0.6584
  280MOL0     H37794   8.613   6.241   7.011  0.3017  0.4260 -0.1784
  280MOL0     H37795   8.674   6.079   6.978  2.3511 -1.2623  1.6136
  280MOL0     H37796   8.861   6.225   7.010 -0.4752 -0.8442 -0.2622
  280MOL0     H37797   8.852   6.078   7.115 -1.1339 -0.3254 -0.6262
  280MOL0     H37798   8.878   6.389   7.393 -2.7599  0.7447  0.1180
  280MOL0     H37799   8.287   5.873   6.914 -0.1114 -1.9162 -1.1015
  280MOL0     H37800   8.028   5.838   6.867 -0.6140  2.1355 -1.9733
  281MOL0     O37801   8.944   7.114   7.379  0.6509  0.4243  0.2586
  281MOL0     C37802   9.027   7.030   7.350 -0.5689 -0.2408 -0.0188
  281MOL0     O37803   9.141   7.000   7.429 -0.2626  0.5266 -0.0314
  281MOL0     C37804   9.190   7.096   7.514  0.3550  0.6994 -0.3362
  281MOL0     C37805   9.137   7.125   7.646 -0.6873  0.1829  0.3766
  281MOL0     C37806   9.209   7.210   7.726 -0.3441 -0.1259  0.0290
  281MOL0     C37807   9.333   7.271   7.687  0.8348 -0.1028 -0.4825
  281MOL0     O37808   9.394   7.364   7.765  0.2653  0.5409  0.1466
  281MOL0     C37809   9.316   7.451   7.861  0.0140 -0.3477  1.0686
  281MOL0     C37810   9.381   7.564   7.933  0.0680  0.2242 -0.4146
  281MOL0     C37811   9.471   7.504   8.035 -0.5082 -0.8876  0.3599
  281MOL0     C37812   9.541   7.601   8.116 -0.1549  0.0643 -0.2430
  281MOL0     C37813   9.628   7.546   8.221 -0.1445  0.4458 -0.6560
  281MOL0     C37814   9.553   7.481   8.344  0.8867  0.4565  0.7253
  281MOL0     C37815   9.452   7.584   8.419 -0.4398 -0.6397 -0.0780
  281MOL0     C37816   9.304   7.562   8.371 -0.5217  1.0168  0.2462
  281MOL0     N37817   9.204   7.642   8.443 -0.2209 -0.4287 -0.3326
  281MOL0     C37818   9.087   7.596   8.505  0.2582  0.5722  0.4489
  281MOL0     C37819   9.020   7.705   8.535  0.4019  1.0449  0.3717
  281MOL0     C37820   8.880   7.722   8.601 -0.0709  0.5035  0.4317
  281MOL0     C37821   8.896   7.818   8.718  0.9061  0.2226 -0.6453
  281MOL0     C37822   8.764   7.851   8.772  0.6548  0.0455 -0.5722
  281MOL0     C37823   8.710   7.731   8.856 -0.2304 -0.0404  0.0315
  281MOL0     O37824   8.682   7.788   8.984 -0.5831  0.7342 -1.1369
  281MOL0     C37825   8.558   7.841   9.005 -0.3098  0.2559 -0.0369
  281MOL0     C37826   8.535   7.955   9.088 -0.5555  0.4894  0.1554
  281MOL0     C37827   8.411   7.989   9.119 -1.0013 -0.3956  0.2107
  281MOL0     C37828   8.391   8.122   9.191 -0.9079  0.2940  0.1057
  281MOL0     C37829   8.305   7.913   9.070 -0.0042  0.3381 -0.3581
  281MOL0     C37830   8.170   7.955   9.092  0.1651 -0.6648 -0.2448
  281MOL0     O37831   8.132   8.083   9.065  0.3401 -0.2586  0.1474
  281MOL0     C37832   8.003   8.128   9.070 -0.0588 -0.2552 -0.1167
  281MOL0     C37833   7.901   8.075   8.983  0.3397  0.5486 -0.3105
  281MOL0     C37834   7.774   8.136   8.991 -0.6027 -0.3116 -0.1786
  281MOL0     C37835   7.750   8.242   9.086  0.3856  0.8278 -0.6413
  281MOL0     O37836   7.621   8.296   9.076 -0.1939 -0.5323  0.8822
  281MOL0     C37837   7.541   8.309   9.203  0.7769  0.4808  0.8057
  281MOL0     C37838   7.430   8.417   9.170 -0.0660  0.1490 -0.5075
  281MOL0     C37839   7.317   8.405   9.277 -0.2029  0.1089  0.4126
  281MOL0     C37840   7.352   8.460   9.418 -0.3379 -0.6341  0.2183
  281MOL0     C37841   7.336   8.352   9.528 -0.1110  1.1079 -0.5301
  281MOL0     C37842   7.380   8.402   9.661  0.5364  1.1999  0.6091
  281MOL0     C37843   7.255   8.474   9.729 -0.6495  0.2143 -0.1824
  281MOL0     C37844   7.284   8.479   9.885  0.3393  0.2538  0.2785
  281MOL0    Cl37845   7.446   8.535   9.933  0.0253  0.1062  0.4937
  281MOL0     C37846   7.854   8.281   9.172  0.3220  0.4962 -0.3553
  281MOL0     C37847   7.975   8.226   9.165 -0.1298  0.4331 -0.2624
  281MOL0     O37848   8.090   7.865   9.117  0.6037  0.2993 -0.5226
  281MOL0     C37849   8.315   7.802   8.990  0.5318  0.0819 -0.6787
  281MOL0     C37850   8.446   7.762   8.962 -0.1560 -0.6066 -0.2947
  281MOL0     N37851   9.098   7.810   8.501 -0.1836 -0.6136  0.5260
  281MOL0     N37852   9.208   7.781   8.456 -0.2697 -0.0678 -0.0732
  281MOL0     C37853   9.375   7.250   7.547  0.7291  0.2113  0.7212
  281MOL0     C37854   9.297   7.164   7.462 -0.5285 -1.0833 -0.3631
  281MOL0     C37855   8.995   6.940   7.238  0.5595  0.3932 -1.2859
  281MOL0     C37856   9.070   6.823   7.216  0.5109 -0.3017  0.1503
  281MOL0     C37857   9.037   6.734   7.111  0.0099 -0.1226 -0.5351
  281MOL0     C37858   8.931   6.761   7.022 -0.6161 -0.3261  1.0938
  281MOL0     O37859   8.883   6.676   6.919  0.5791 -0.1672 -0.6278
  281MOL0     C37860   8.770   6.715   6.841  0.4427 -0.3640  0.4521
  281MOL0     C37861   8.722   6.615   6.741 -0.2921  1.2832  1.2116
  281MOL0     C37862   8.731   6.476   6.794  0.6194  0.4039 -0.0109
  281MOL0     C37863   8.668   6.372   6.686 -0.9168  0.0079 -0.5408
  281MOL0     C37864   8.519   6.385   6.692  1.3042 -1.1297 -0.6800
  281MOL0     C37865   8.398   6.404   6.703 -0.6213  0.3610  0.0124
  281MOL0     C37866   8.860   6.881   7.044  0.5900  0.3962 -0.3560
  281MOL0     C37867   8.895   6.968   7.153  0.0623 -0.0362 -0.2068
  281MOL0     H37868   9.041   7.080   7.669 -2.1990  2.7651 -0.5306
  281MOL0     H37869   9.165   7.218   7.825 -1.1054 -1.4096 -0.1799
  281MOL0     H37870   9.229   7.492   7.809  0.3801 -0.3669  0.4202
  281MOL0     H37871   9.266   7.385   7.933 -3.1711 -3.1913 -3.2482
  281MOL0     H37872   9.437   7.616   7.856  1.3092 -2.9242 -1.8194
  281MOL0     H37873   9.314   7.635   7.982  0.9277 -0.0298  1.1841
  281MOL0     H37874   9.420   7.424   8.090 -0.0542 -0.4502  1.4444
  281MOL0     H37875   9.546   7.451   7.975 -0.8539  0.6321 -1.5209
  281MOL0     H37876   9.608   7.664   8.056  1.1524  0.0723  1.1769
  281MOL0     H37877   9.471   7.675   8.156 -0.9350 -1.5446  1.4836
  281MOL0     H37878   9.702   7.475   8.184  1.6367  0.9197  1.6945
  281MOL0     H37879   9.691   7.626   8.261  0.6313 -0.9630  1.0728
  281MOL0     H37880   9.502   7.390   8.313  2.6892 -0.0357 -0.9728
  281MOL0     H37881   9.627   7.446   8.417  1.3391 -2.4870 -1.0059
  281MOL0     H37882   9.456   7.571   8.528  2.1697 -0.8245 -0.1207
  281MOL0     H37883   9.505   7.674   8.387 -1.9974 -0.5148 -2.5823
  281MOL0     H37884   9.286   7.454   8.377 -0.3885  1.0415  1.3310
  281MOL0     H37885   9.299   7.588   8.265  1.9737  0.0102 -0.1948
  281MOL0     H37886   9.060   7.498   8.543 -1.6808  1.9094  2.8041
  281MOL0     H37887   8.811   7.762   8.525  1.7224  0.3448 -1.3574
  281MOL0     H37888   8.845   7.625   8.636 -0.6451  0.5134 -0.0899
  281MOL0     H37889   8.933   7.914   8.680  1.6947  0.2306  0.1257
  281MOL0     H37890   8.964   7.770   8.788  1.8256 -2.4645 -3.1830
  281MOL0     H37891   8.684   7.868   8.699 -1.7711 -0.5870  1.7566
  281MOL0     H37892   8.781   7.941   8.831  2.2771 -1.4222  1.3092
  281MOL0     H37893   8.786   7.656   8.881 -1.2305 -0.8632  0.7146
  281MOL0     H37894   8.626   7.674   8.815 -3.1026  1.5843  3.1682
  281MOL0     H37895   8.620   8.015   9.120  0.1674 -1.4842  2.1556
  281MOL0     H37896   8.402   8.210   9.128 -3.3122 -0.0988 -0.9538
  281MOL0     H37897   8.295   8.126   9.243 -1.6553 -1.7675 -0.9899
  281MOL0     H37898   8.470   8.146   9.263 -1.1680  2.8096 -0.3646
  281MOL0     H37899   7.907   8.000   8.905 -2.0432  2.6816 -2.7673
  281MOL0     H37900   7.700   8.099   8.920  0.9672  0.4875 -2.3286
  281MOL0     H37901   7.484   8.223   9.240  1.2138 -0.0152  0.3269
  281MOL0     H37902   7.602   8.337   9.290  0.7485 -1.1515  1.3768
  281MOL0     H37903   7.472   8.513   9.201 -1.4207  1.1977 -1.7690
  281MOL0     H37904   7.410   8.401   9.063  1.9709  0.6256 -0.9955
  281MOL0     H37905   7.270   8.308   9.295 -3.9271  1.7779  0.5064
  281MOL0     H37906   7.233   8.460   9.234  1.1841  0.1120 -2.5673
  281MOL0     H37907   7.453   8.501   9.414  0.6215 -2.8224  0.8972
  281MOL0     H37908   7.284   8.543   9.440  0.2603 -0.3363  0.9961
  281MOL0     H37909   7.396   8.267   9.494 -2.1581 -2.1773  3.2223
  281MOL0     H37910   7.231   8.320   9.523 -0.5772  2.1544  1.3888
  281MOL0     H37911   7.418   8.319   9.720 -3.0524  0.0698  1.6059
  281MOL0     H37912   7.466   8.468   9.650  2.7646 -1.4782  0.9761
  281MOL0     H37913   7.162   8.417   9.723  0.3771 -1.3478 -3.5647
  281MOL0     H37914   7.245   8.574   9.687  0.7064  0.8066  0.8294
  281MOL0     H37915   7.268   8.379   9.925  3.0914 -0.9052 -1.2549
  281MOL0     H37916   7.211   8.548   9.929  0.7647  1.2284 -0.5010
  281MOL0     H37917   7.845   8.369   9.235  1.5648  1.9306 -2.0804
  281MOL0     H37918   8.048   8.250   9.241 -2.8565  2.3158  1.9882
  281MOL0     H37919   8.225   7.760   8.948 -2.0122  3.9331  0.3959
  281MOL0     H37920   8.451   7.668   8.909 -3.1898  0.0085 -1.9421
  281MOL0     H37921   9.463   7.305   7.514  0.9782  0.4936  1.8051
  281MOL0     H37922   9.343   7.152   7.364 -2.3781 -0.1494 -1.4019
  281MOL0     H37923   9.157   6.807   7.279  0.0402  0.3129  0.9717
  281MOL0     H37924   9.089   6.639   7.113 -0.4571 -0.3965 -1.3091
  281MOL0     H37925   8.685   6.718   6.910 -1.9063 -0.5037 -2.2860
  281MOL0     H37926   8.780   6.809   6.787 -2.2439 -1.1793 -1.6788
  281MOL0     H37927   8.791   6.617   6.657  0.5746  1.3437  1.9113
  281MOL0     H37928   8.624   6.637   6.698 -0.1634  0.2160  0.3528
  281MOL0     H37929   8.682   6.470   6.892  4.0282 -0.4044  1.7787
  281MOL0     H37930   8.836   6.451   6.808  0.0906 -1.6659  0.5765
  281MOL0     H37931   8.698   6.272   6.718 -0.7611  0.9242  2.4751
  281MOL0     H37932   8.712   6.389   6.587  0.1365 -4.0917 -0.9317
  281MOL0     H37933   8.297   6.433   6.720 -1.1088 -1.4800  0.4435
  281MOL0     H37934   8.788   6.916   6.970  3.0825  0.1373 -3.1043
  281MOL0     H37935   8.830   7.054   7.152  0.6103  0.4123 -2.6502
  282MOL0     O37936   6.221   1.662   0.933  0.0182 -0.3098  0.1701
  282MOL0     C37937   6.214   1.647   0.813 -0.0143 -0.0602  0.0202
  282MOL0     O37938   6.181   1.745   0.720 -0.1159  0.4211 -0.0869
  282MOL0     C37939   6.149   1.864   0.764  0.4931  2.0289 -0.6343
  282MOL0     C37940   6.033   1.918   0.724  0.1315  0.9584 -0.1494
  282MOL0     C37941   5.993   2.051   0.767  0.0239  0.3494 -0.2477
  282MOL0     C37942   6.077   2.121   0.859 -0.5645 -0.1291  0.2467
  282MOL0     O37943   6.025   2.242   0.905  0.5042  0.1525 -0.0663
  282MOL0     C37944   6.100   2.344   0.842  0.7516  0.6955 -0.8567
  282MOL0     C37945   6.252   2.368   0.887  0.2940  0.0295 -0.0600
  282MOL0     C37946   6.301   2.501   0.831  0.1314  0.1623 -0.5760
  282MOL0     C37947   6.455   2.514   0.864  0.3219  0.1679  0.4332
  282MOL0     C37948   6.497   2.642   0.790 -0.1085  0.5183 -0.1110
  282MOL0     C37949   6.646   2.675   0.808  0.4123  0.4190  0.9649
  282MOL0     C37950   6.658   2.822   0.766 -0.5443 -0.4053 -0.2739
  282MOL0     C37951   6.808   2.862   0.762  1.0852 -1.3873 -0.2484
  282MOL0     N37952   6.838   3.000   0.734  0.0813  0.6836 -0.4328
  282MOL0     C37953   6.812   3.069   0.619 -0.0856 -0.7524  0.4706
  282MOL0     C37954   6.861   3.191   0.647  0.0266 -0.6538 -0.1841
  282MOL0     C37955   6.880   3.299   0.542 -0.5935  0.6857 -0.6040
  282MOL0     C37956   6.936   3.238   0.416  0.5317  0.3419  0.4145
  282MOL0     C37957   7.021   3.345   0.344  0.2023  1.0412 -0.1501
  282MOL0     C37958   7.069   3.284   0.212  0.1513  0.4786  0.2208
  282MOL0     O37959   7.177   3.363   0.153 -0.3588  0.4052  0.8557
  282MOL0     C37960   7.205   3.355   0.019 -0.2505 -0.5774 -0.9524
  282MOL0     C37961   7.131   3.291  -0.081  0.0055  0.8815 -0.4996
  282MOL0     C37962   7.170   3.290  -0.215 -0.2710  0.8112  0.6289
  282MOL0     C37963   7.097   3.206  -0.314  1.3548  0.2478 -0.1552
  282MOL0     C37964   7.292   3.359  -0.253  0.7083 -0.2413 -0.3866
  282MOL0     C37965   7.346   3.371  -0.389  0.2860  0.7339  1.0391
  282MOL0     O37966   7.448   3.459  -0.407  0.2465  0.0504  0.1443
  282MOL0     C37967   7.522   3.445  -0.528  0.7597 -0.6591  0.2406
  282MOL0     C37968   7.660   3.425  -0.510 -0.0167  0.2283 -0.8051
  282MOL0     C37969   7.741   3.432  -0.624  0.1535 -0.6387  1.2433
  282MOL0     C37970   7.689   3.460  -0.751 -0.7865  0.6738 -0.8765
  282MOL0     O37971   7.773   3.477  -0.861 -0.2963  0.1331 -0.1587
  282MOL0     C37972   7.744   3.576  -0.966 -0.5843  0.3143  0.8938
  282MOL0     C37973   7.882   3.610  -1.022  0.0775 -0.6649  0.6613
  282MOL0     C37974   7.843   3.703  -1.146 -0.6599 -0.9764  0.5184
  282MOL0     C37975   7.953   3.759  -1.238  0.0117 -0.2605 -0.2931
  282MOL0     C37976   8.050   3.838  -1.134  0.3176  0.3220 -0.5023
  282MOL0     C37977   8.173   3.905  -1.209 -0.3966  0.5063  0.2421
  282MOL0     C37978   8.234   4.019  -1.137  0.4915 -0.2846  0.4619
  282MOL0     C37979   8.359   3.980  -1.052  0.4655  0.5265  0.4231
  282MOL0    Cl37980   8.496   3.936  -1.163 -0.1648 -0.1089 -0.1383
  282MOL0     C37981   7.548   3.469  -0.769  0.6585  0.4307  0.1924
  282MOL0     C37982   7.468   3.466  -0.656 -0.0115 -0.6371 -0.0731
  282MOL0     O37983   7.298   3.299  -0.479 -0.9312 -0.8504 -0.3631
  282MOL0     C37984   7.363   3.422  -0.152  0.0760 -0.4121 -0.1163
  282MOL0     C37985   7.325   3.418  -0.019  0.0180 -1.1018  0.0671
  282MOL0     N37986   6.914   3.200   0.773 -0.5404 -0.2253 -0.2741
  282MOL0     N37987   6.902   3.085   0.822  0.4567 -0.1898  0.2282
  282MOL0     C37988   6.197   2.060   0.899 -0.3281  0.1146 -0.0817
  282MOL0     C37989   6.237   1.933   0.855 -0.1022  0.3354  0.4212
  282MOL0     C37990   6.223   1.509   0.760 -0.8363 -0.5092  0.0576
  282MOL0     C37991   6.185   1.402   0.839  0.0540 -0.3448  0.1139
  282MOL0     C37992   6.194   1.276   0.791 -0.3551 -0.0563 -0.5446
  282MOL0     C37993   6.255   1.251   0.670 -0.1406  0.1456  0.0255
  282MOL0     O37994   6.264   1.119   0.639  0.5620 -0.2214  0.3082
  282MOL0     C37995   6.271   1.074   0.496 -0.0516  0.0708  0.3399
  282MOL0     C37996   6.157   1.126   0.404  0.4458 -0.0446  0.2174
  282MOL0     C37997   6.017   1.109   0.467 -0.6669 -0.6783 -0.5825
  282MOL0     C37998   5.916   1.002   0.421 -0.4173  0.8258  0.6401
  282MOL0     C37999   5.964   0.872   0.470 -0.4435 -0.0120 -0.0924
  282MOL0     C38000   5.979   0.760   0.510 -0.0675  0.4566 -0.1208
  282MOL0     C38001   6.309   1.348   0.593  0.5467 -0.7440 -0.5791
  282MOL0     C38002   6.285   1.480   0.637 -0.5921 -0.2812  0.0897
  282MOL0     H38003   5.967   1.858   0.662  0.8643  0.6129 -0.6020
  282MOL0     H38004   5.894   2.088   0.744  0.7821  0.1976 -4.4981
  282MOL0     H38005   6.097   2.323   0.735 -0.7191  0.8128 -0.8662
  282MOL0     H38006   6.053   2.438   0.872  1.6401  0.7008  0.5773
  282MOL0     H38007   6.254   2.373   0.996  0.6418  1.2809 -0.0998
  282MOL0     H38008   6.318   2.289   0.851  0.1697 -0.4879  0.8378
  282MOL0     H38009   6.271   2.508   0.726 -1.0853 -0.4674 -0.2876
  282MOL0     H38010   6.239   2.580   0.874 -3.6636 -1.0873 -3.1796
  282MOL0     H38011   6.469   2.527   0.972 -1.5891  0.5244  0.6695
  282MOL0     H38012   6.515   2.429   0.829 -0.6668 -0.8144  1.0456
  282MOL0     H38013   6.473   2.619   0.686 -1.2108  3.2428 -0.5357
  282MOL0     H38014   6.433   2.725   0.821 -1.1525 -0.0349 -0.7374
  282MOL0     H38015   6.666   2.681   0.916 -0.0529  1.3997  1.0111
  282MOL0     H38016   6.706   2.597   0.761  0.6430 -0.0645  2.0214
  282MOL0     H38017   6.612   2.849   0.671 -1.3221  1.4649  0.5944
  282MOL0     H38018   6.601   2.879   0.839  3.1345  0.0236  2.5945
  282MOL0     H38019   6.844   2.800   0.680  1.7512 -0.4358 -0.6996
  282MOL0     H38020   6.856   2.828   0.855 -2.4802 -2.6536  1.3154
  282MOL0     H38021   6.769   3.036   0.525  3.8399  0.8097 -2.1464
  282MOL0     H38022   6.793   3.360   0.518 -2.9432 -3.2750 -3.0890
  282MOL0     H38023   6.957   3.364   0.586  0.6020 -0.0910 -1.4924
  282MOL0     H38024   6.853   3.210   0.351 -1.2509 -1.7055  3.3365
  282MOL0     H38025   6.989   3.148   0.446 -2.2924 -1.4245  0.4429
  282MOL0     H38026   7.108   3.373   0.405 -0.2363  1.8071  0.1453
  282MOL0     H38027   6.971   3.441   0.324  1.7422  2.2089  1.2928
  282MOL0     H38028   6.977   3.279   0.152  1.0900  0.8339 -1.3033
  282MOL0     H38029   7.112   3.187   0.237  1.6061  1.1075  0.2332
  282MOL0     H38030   7.046   3.231  -0.050  0.8177 -0.4027 -0.7302
  282MOL0     H38031   7.058   3.256  -0.403  2.7181 -2.1659 -2.2328
  282MOL0     H38032   7.155   3.120  -0.350  0.5172 -0.3718 -0.0788
  282MOL0     H38033   7.010   3.175  -0.255 -0.4240  2.4489 -1.4749
  282MOL0     H38034   7.704   3.404  -0.413 -0.7225 -1.0670 -0.7440
  282MOL0     H38035   7.846   3.406  -0.628  0.7018  1.4650 -2.2077
  282MOL0     H38036   7.678   3.532  -1.042  2.1508  0.7098 -1.8942
  282MOL0     H38037   7.702   3.666  -0.918  1.3288  1.4822  0.4799
  282MOL0     H38038   7.944   3.666  -0.951  0.3481  0.5285 -0.4807
  282MOL0     H38039   7.928   3.527  -1.075 -0.3147  1.6741 -3.8039
  282MOL0     H38040   7.789   3.779  -1.090 -1.8320 -2.4611  1.4781
  282MOL0     H38041   7.767   3.660  -1.211 -0.9492  0.0104  0.1882
  282MOL0     H38042   7.995   3.672  -1.290  0.8353 -0.4875  0.7086
  282MOL0     H38043   7.916   3.834  -1.309 -1.9924  0.4224  1.3484
  282MOL0     H38044   8.090   3.765  -1.063  4.1527 -1.9060 -4.4034
  282MOL0     H38045   7.996   3.914  -1.079 -2.1828 -0.2873 -1.9408
  282MOL0     H38046   8.251   3.832  -1.231  0.6873  1.4972  0.7288
  282MOL0     H38047   8.134   3.941  -1.304  2.1622  0.3175 -0.9569
  282MOL0     H38048   8.163   4.072  -1.073 -0.2726 -0.6232 -0.0987
  282MOL0     H38049   8.269   4.099  -1.203  1.3943  0.6025  1.9612
  282MOL0     H38050   8.344   3.892  -0.989  1.3154  1.9259  2.6926
  282MOL0     H38051   8.386   4.062  -0.985  0.5576  0.3799  0.5669
  282MOL0     H38052   7.499   3.498  -0.862  1.4441 -0.3033 -0.4639
  282MOL0     H38053   7.363   3.493  -0.666 -1.1458 -4.0513  1.1250
  282MOL0     H38054   7.464   3.461  -0.159  0.8410 -2.4109 -0.9065
  282MOL0     H38055   7.382   3.456   0.065 -2.7999  1.4684  0.9693
  282MOL0     H38056   6.254   2.119   0.970 -2.8443  1.0269  1.3033
  282MOL0     H38057   6.332   1.888   0.884 -0.8973  0.5975  3.9269
  282MOL0     H38058   6.142   1.412   0.938 -0.6088  2.2337 -0.3369
  282MOL0     H38059   6.148   1.190   0.838 -0.5106  0.5312  0.4022
  282MOL0     H38060   6.369   1.088   0.448  0.2625 -0.7807  0.7185
  282MOL0     H38061   6.264   0.966   0.504  4.3342 -0.3282  1.7864
  282MOL0     H38062   6.154   1.083   0.303  2.8022  3.5039 -1.5692
  282MOL0     H38063   6.171   1.232   0.382  0.9720 -0.0127  0.6722
  282MOL0     H38064   5.969   1.199   0.427 -0.7715 -0.9701 -1.1150
  282MOL0     H38065   6.014   1.106   0.577 -1.5008  2.6819 -0.3766
  282MOL0     H38066   5.905   1.012   0.313  2.2334  2.4865  0.4242
  282MOL0     H38067   5.824   1.015   0.478 -1.5937 -2.6199 -0.2467
  282MOL0     H38068   5.979   0.659   0.547 -0.1578  0.2382 -0.7104
  282MOL0     H38069   6.364   1.332   0.501 -0.6441 -5.3875 -0.7289
  282MOL0     H38070   6.320   1.562   0.574  0.3541  0.1905  1.1781
  283MOL0     O38071   5.262  11.350   1.200 -0.1209  0.7569  0.0773
  283MOL0     C38072   5.172  11.322   1.128  0.0252  0.3000  0.6460
  283MOL0     O38073   5.036  11.317   1.164 -0.3454 -0.4021  0.2912
  283MOL0     C38074   5.011  11.326   1.296  1.0232 -0.2123 -0.8682
  283MOL0     C38075   4.954  11.442   1.351  0.6116  0.0479 -0.3472
  283MOL0     C38076   4.913  11.449   1.489  0.4096  0.7569  0.6116
  283MOL0     C38077   4.925  11.336   1.569 -0.0764  0.5570  0.1432
  283MOL0     O38078   4.875  11.326   1.696  0.0943 -0.4799  0.1772
  283MOL0     C38079   4.950  11.395   1.797  1.0783  0.2793 -0.7939
  283MOL0     C38080   4.899  11.355   1.938 -0.5225 -0.7023 -0.8615
  283MOL0     C38081   4.749  11.382   1.958  0.6024 -0.0560  0.0328
  283MOL0     C38082   4.658  11.266   1.920 -0.0231  0.2214 -0.0679
  283MOL0     C38083   4.513  11.281   1.969 -1.1193 -0.0016 -0.1248
  283MOL0     C38084   4.438  11.368   1.865 -0.1214 -0.3221 -0.5092
  283MOL0     C38085   4.312  11.424   1.936  0.3355 -0.3019  0.7185
  283MOL0     C38086   4.343  11.539   2.037 -0.8591  0.5675  0.3034
  283MOL0     N38087   4.228  11.569   2.116 -0.1782 -0.1291 -0.6126
  283MOL0     C38088   4.102  11.533   2.083 -0.2492 -0.0703 -0.4929
  283MOL0     C38089   4.024  11.577   2.184 -0.0966 -0.2337  0.4640
  283MOL0     C38090   3.870  11.571   2.191  0.5667 -0.3106 -0.1602
  283MOL0     C38091   3.798  11.681   2.113 -0.3847  0.3595 -0.2141
  283MOL0     C38092   3.652  11.723   2.138  0.7441  1.0562 -0.3926
  283MOL0     C38093   3.604  11.692   2.277 -0.8088  0.2421 -0.8031
  283MOL0     O38094   3.678  11.753   2.380 -0.3423 -0.3950  0.1256
  283MOL0     C38095   3.652  11.712   2.507  0.0937 -0.6227  0.3348
  283MOL0     C38096   3.535  11.670   2.561  0.2109 -0.4656  0.9310
  283MOL0     C38097   3.514  11.646   2.697  0.0004  0.1199  0.0110
  283MOL0     C38098   3.380  11.606   2.753 -0.4037 -0.5178  0.0430
  283MOL0     C38099   3.625  11.663   2.781  0.0040  0.7414 -0.4772
  283MOL0     C38100   3.599  11.634   2.933 -0.6304 -0.5722  0.0652
  283MOL0     O38101   3.551  11.517   2.986  0.5561 -0.2082  0.4070
  283MOL0     C38102   3.558  11.493   3.121  0.9808 -0.9014  0.3728
  283MOL0     C38103   3.442  11.447   3.185 -0.5115 -0.7029  0.3555
  283MOL0     C38104   3.441  11.405   3.314  0.2355  0.5334 -1.1271
  283MOL0     C38105   3.555  11.409   3.393  0.1182 -0.4391 -0.9593
  283MOL0     O38106   3.559  11.373   3.524 -0.0317  0.8739  0.1439
  283MOL0     C38107   3.461  11.296   3.590  0.2253  0.9334 -0.4737
  283MOL0     C38108   3.523  11.225   3.719 -0.4079 -0.4956  0.7003
  283MOL0     C38109   3.627  11.117   3.673  0.1322  0.5812  0.2961
  283MOL0     C38110   3.766  11.160   3.724  0.6957 -0.1875 -0.0949
  283MOL0     C38111   3.878  11.114   3.632  0.7133  0.4056 -0.2084
  283MOL0     C38112   4.007  11.156   3.690 -0.3846  0.1052 -0.5928
  283MOL0     C38113   4.126  11.116   3.602 -0.4492  0.0870  0.1434
  283MOL0     C38114   4.253  11.148   3.667 -0.8511 -0.6456 -0.4090
  283MOL0    Cl38115   4.267  11.321   3.709 -0.3377 -0.0784 -0.5576
  283MOL0     C38116   3.674  11.450   3.335  0.5213  0.1977  0.0000
  283MOL0     C38117   3.672  11.495   3.202 -0.9570  0.6662 -0.1775
  283MOL0     O38118   3.640  11.727   3.002 -0.3871  0.0065  0.2533
  283MOL0     C38119   3.749  11.710   2.731 -0.1178 -1.4702 -0.0489
  283MOL0     C38120   3.758  11.736   2.590 -1.0984 -0.8770 -0.1351
  283MOL0     N38121   4.102  11.644   2.274 -0.1132 -0.0552  0.3617
  283MOL0     N38122   4.220  11.644   2.233  0.4014  0.0487  0.1618
  283MOL0     C38123   4.974  11.214   1.508 -0.6673  0.3144  0.2382
  283MOL0     C38124   5.013  11.206   1.373  1.1276  0.1354  1.1268
  283MOL0     C38125   5.196  11.320   0.984 -0.0390 -0.7586 -0.2185
  283MOL0     C38126   5.102  11.283   0.885 -0.7077  0.6189  0.3262
  283MOL0     C38127   5.131  11.288   0.744 -0.5630 -0.0541  0.0601
  283MOL0     C38128   5.249  11.359   0.697  0.4903 -0.4046 -0.1111
  283MOL0     O38129   5.250  11.367   0.556  0.9708  0.8471 -0.4891
  283MOL0     C38130   5.381  11.394   0.497 -0.5695 -0.2468  0.2715
  283MOL0     C38131   5.417  11.542   0.512  1.0919 -0.9841  1.3275
  283MOL0     C38132   5.560  11.584   0.459  0.2154  0.4615 -0.1928
  283MOL0     C38133   5.571  11.736   0.473 -0.9445 -0.1913  0.0506
  283MOL0     C38134   5.705  11.800   0.479  0.4840  0.5116  0.4567
  283MOL0     C38135   5.816  11.851   0.465 -0.1570  0.1047  0.0953
  283MOL0     C38136   5.347  11.385   0.794  0.3225  0.9492 -0.4270
  283MOL0     C38137   5.320  11.374   0.931  0.0574 -0.4127 -0.6736
  283MOL0     H38138   4.947  11.535   1.296 -0.6029  1.8569  2.6648
  283MOL0     H38139   4.877  11.544   1.526  0.8545  1.2161 -0.1183
  283MOL0     H38140   5.057  11.391   1.779  1.0252  1.0938 -1.3655
  283MOL0     H38141   4.921  11.500   1.783 -5.1674 -0.8988  0.3936
  283MOL0     H38142   4.914  11.253   1.977  0.3054  0.5118  2.3103
  283MOL0     H38143   4.949  11.413   2.016 -2.1957 -2.3823  1.6429
  283MOL0     H38144   4.730  11.398   2.064  4.8347  2.4700  0.6407
  283MOL0     H38145   4.713  11.477   1.918  2.4649  0.8178  0.3613
  283MOL0     H38146   4.648  11.254   1.812 -4.5306 -0.4426  0.2297
  283MOL0     H38147   4.706  11.176   1.958 -1.9282 -1.9866 -2.5072
  283MOL0     H38148   4.477  11.178   1.980  1.2863 -0.6955  2.1569
  283MOL0     H38149   4.515  11.322   2.070  4.1567 -1.7444  0.7769
  283MOL0     H38150   4.497  11.455   1.834 -1.3995  2.2653  3.4649
  283MOL0     H38151   4.408  11.318   1.773  1.1818 -0.8656 -0.6687
  283MOL0     H38152   4.247  11.464   1.858  1.3384  0.3340  0.1900
  283MOL0     H38153   4.266  11.338   1.986 -0.4227 -0.3379 -0.0093
  283MOL0     H38154   4.370  11.626   1.977 -1.5480  1.8189  1.7352
  283MOL0     H38155   4.421  11.509   2.107 -0.0534  1.8422 -0.0204
  283MOL0     H38156   4.066  11.467   2.006 -1.7797  0.9999 -0.7273
  283MOL0     H38157   3.826  11.477   2.159 -1.2273 -0.2463  1.9061
  283MOL0     H38158   3.844  11.584   2.296 -0.2928  0.5287 -0.4660
  283MOL0     H38159   3.801  11.665   2.005  2.0091  3.9232 -0.8307
  283MOL0     H38160   3.857  11.767   2.146  0.7331 -0.3860 -0.2139
  283MOL0     H38161   3.591  11.653   2.079  0.7093  1.1774 -0.5016
  283MOL0     H38162   3.631  11.827   2.111  2.5904  1.8554  1.0664
  283MOL0     H38163   3.616  11.585   2.295  3.0326  0.5141 -1.0323
  283MOL0     H38164   3.499  11.723   2.279 -0.9863 -0.3726  1.2718
  283MOL0     H38165   3.454  11.654   2.491  1.8978 -2.3525 -0.7275
  283MOL0     H38166   3.312  11.585   2.670  0.4433 -2.7152 -0.1619
  283MOL0     H38167   3.380  11.525   2.827 -1.1606  3.0331  4.4446
  283MOL0     H38168   3.335  11.688   2.812  1.2893 -0.1860  0.9374
  283MOL0     H38169   3.347  11.447   3.131 -0.0686 -1.1445 -0.4400
  283MOL0     H38170   3.348  11.375   3.362  0.1074  3.6896  0.8285
  283MOL0     H38171   3.374  11.357   3.616 -2.2027 -1.7987 -1.5431
  283MOL0     H38172   3.425  11.218   3.522 -1.6100  0.2613  1.1470
  283MOL0     H38173   3.566  11.309   3.774 -2.6326 -0.3441  2.3555
  283MOL0     H38174   3.451  11.172   3.783 -2.2202 -0.3675 -1.1204
  283MOL0     H38175   3.627  11.101   3.565  2.1168 -0.8683  0.4542
  283MOL0     H38176   3.598  11.023   3.720  2.8417  0.8950  2.9022
  283MOL0     H38177   3.772  11.265   3.754 -0.3069 -1.2590  4.5992
  283MOL0     H38178   3.770  11.107   3.819 -0.6573 -1.1174 -0.5250
  283MOL0     H38179   3.857  11.160   3.536 -0.1839 -2.0066 -1.2354
  283MOL0     H38180   3.866  11.006   3.620 -0.3636  0.3864  0.8004
  283MOL0     H38181   4.007  11.263   3.712 -2.7361 -0.2390  1.6388
  283MOL0     H38182   4.014  11.096   3.782  0.6754 -1.0331 -1.3904
  283MOL0     H38183   4.125  11.158   3.501 -3.5984  2.2356  0.9050
  283MOL0     H38184   4.127  11.006   3.598  0.7696  0.0226  1.4277
  283MOL0     H38185   4.340  11.123   3.606 -2.1356 -1.0514 -2.1861
  283MOL0     H38186   4.264  11.093   3.761 -0.0908  1.6134  0.9005
  283MOL0     H38187   3.769  11.454   3.388  3.2909  3.6334 -4.4213
  283MOL0     H38188   3.763  11.529   3.152 -0.7116  1.3467  0.7155
  283MOL0     H38189   3.834  11.725   2.797  0.2865 -0.5082 -0.7655
  283MOL0     H38190   3.857  11.759   2.551 -1.1123  0.0819  0.3668
  283MOL0     H38191   4.951  11.123   1.561  3.8522 -0.6773  0.9143
  283MOL0     H38192   5.046  11.111   1.331  1.7374 -0.0167  1.9296
  283MOL0     H38193   5.000  11.261   0.912 -0.6418 -0.3127 -0.1543
  283MOL0     H38194   5.059  11.255   0.669 -4.0972  1.8754  2.3324
  283MOL0     H38195   5.452  11.331   0.551 -1.9875 -1.1954  1.0671
  283MOL0     H38196   5.382  11.376   0.389 -0.8215  2.6828 -0.3144
  283MOL0     H38197   5.413  11.557   0.621 -1.1279  0.2898  1.1093
  283MOL0     H38198   5.342  11.616   0.483  1.8555  0.0152  1.8031
  283MOL0     H38199   5.577  11.555   0.355 -0.8020  3.9035 -1.4580
  283MOL0     H38200   5.630  11.543   0.533 -3.2216 -1.9144  2.0251
  283MOL0     H38201   5.514  11.780   0.555 -0.0991 -1.8143  1.5606
  283MOL0     H38202   5.515  11.773   0.386 -1.8578  2.0617  1.5100
  283MOL0     H38203   5.918  11.876   0.444 -0.6531  0.2298 -2.4311
  283MOL0     H38204   5.450  11.406   0.766 -0.0639  1.3715 -1.6229
  283MOL0     H38205   5.390  11.415   1.003 -1.5489  2.9152 -0.8261
  284MOL0     O38206   0.353   7.326   3.603 -0.6288 -0.9936  0.3584
  284MOL0     C38207   0.264   7.246   3.614 -0.4582  0.0909  0.1386
  284MOL0     O38208   0.133   7.271   3.665  0.2448 -0.0103  0.3968
  284MOL0     C38209   0.096   7.379   3.732 -1.4789 -0.2230  0.5611
  284MOL0     C38210  -0.033   7.390   3.759  0.5921 -1.0149  0.6342
  284MOL0     C38211  -0.084   7.496   3.823 -0.4884 -1.2034 -0.7257
  284MOL0     C38212  -0.009   7.615   3.854 -0.3201 -0.2720  0.5282
  284MOL0     O38213  -0.078   7.721   3.903 -0.5265 -1.1023 -0.4728
  284MOL0     C38214   0.005   7.827   3.946  0.2000 -0.1489  0.5335
  284MOL0     C38215  -0.101   7.934   3.988  0.1910  0.2250  0.5711
  284MOL0     C38216  -0.045   8.042   4.078 -0.0028 -0.0686  0.6806
  284MOL0     C38217  -0.167   8.132   4.120 -0.1893  0.3145 -0.1480
  284MOL0     C38218  -0.141   8.251   4.212  0.0600  0.1670  0.5753
  284MOL0     C38219  -0.037   8.350   4.146 -0.1819  0.9539  1.0488
  284MOL0     C38220  -0.011   8.478   4.234  0.0596 -0.0726  0.1085
  284MOL0     C38221   0.121   8.477   4.299 -0.3013  0.7752 -0.1807
  284MOL0     N38222   0.142   8.372   4.398  0.2266  0.1822  0.1477
  284MOL0     C38223   0.091   8.371   4.527  0.8385  0.0238  0.6551
  284MOL0     C38224   0.112   8.252   4.571 -0.0287  0.1435 -0.6064
  284MOL0     C38225   0.052   8.200   4.696 -0.1436  0.1931  0.3542
  284MOL0     C38226  -0.101   8.223   4.685  0.2934  0.3842  0.9109
  284MOL0     C38227  -0.176   8.133   4.582  0.5108 -0.4049  0.0811
  284MOL0     C38228  -0.115   7.993   4.561  0.1482 -0.1623 -0.5337
  284MOL0     O38229  -0.201   7.897   4.510  0.0122  0.0216  0.4418
  284MOL0     C38230  -0.157   7.775   4.464  0.4887  0.1284 -0.8920
  284MOL0     C38231  -0.216   7.727   4.344 -0.4242  0.6922  0.4947
  284MOL0     C38232  -0.175   7.599   4.292 -0.5238 -0.6181 -0.2309
  284MOL0     C38233  -0.242   7.561   4.166 -0.6499 -0.2783  0.3925
  284MOL0     C38234  -0.072   7.520   4.355  0.2966 -0.5182 -0.1359
  284MOL0     C38235  -0.029   7.385   4.328  0.2304 -0.8022  0.8875
  284MOL0     O38236  -0.075   7.330   4.215 -0.9890 -0.0137  0.4643
  284MOL0     C38237  -0.017   7.213   4.186  0.0692 -0.2688 -0.8399
  284MOL0     C38238  -0.058   7.091   4.249  0.5831 -0.3130 -0.7737
  284MOL0     C38239   0.007   6.971   4.207  0.5337  0.0264  0.7891
  284MOL0     C38240   0.110   6.971   4.119 -1.1727 -0.1485 -0.3984
  284MOL0     O38241   0.152   6.853   4.065  0.3393  0.3555 -0.3640
  284MOL0     C38242   0.242   6.844   3.959  0.9100  0.7396 -0.7293
  284MOL0     C38243   0.388   6.871   3.983 -0.0222  0.7245 -0.4819
  284MOL0     C38244   0.481   6.795   3.900 -0.0856  0.3824 -0.2156
  284MOL0     C38245   0.453   6.641   3.878  0.3179 -0.9979 -0.8752
  284MOL0     C38246   0.459   6.553   3.999 -0.0955  1.0841 -0.3011
  284MOL0     C38247   0.600   6.549   4.061  0.3036 -0.5273  0.6006
  284MOL0     C38248   0.594   6.499   4.203 -0.4903 -0.0209 -0.4659
  284MOL0     C38249   0.554   6.351   4.203  1.5332  0.2300  0.0615
  284MOL0    Cl38250   0.516   6.280   4.357  0.1951 -0.2960 -0.4414
  284MOL0     C38251   0.156   7.093   4.077 -0.6312 -0.7648 -0.4829
  284MOL0     C38252   0.093   7.216   4.101  0.7684 -0.4480  0.3624
  284MOL0     O38253   0.015   7.319   4.418  0.0719 -0.5394 -0.0972
  284MOL0     C38254  -0.031   7.572   4.484 -0.1712 -1.0957  1.1344
  284MOL0     C38255  -0.054   7.706   4.524  0.5616 -0.3310 -1.3078
  284MOL0     N38256   0.169   8.176   4.481 -0.3906  0.0106 -0.2401
  284MOL0     N38257   0.179   8.246   4.376 -0.3275  0.0808  0.9686
  284MOL0     C38258   0.127   7.599   3.839 -0.0169 -0.4904 -0.4766
  284MOL0     C38259   0.181   7.480   3.775  0.6271 -0.2190 -0.3309
  284MOL0     C38260   0.291   7.112   3.572 -0.1560 -0.2153 -0.0959
  284MOL0     C38261   0.402   7.081   3.487 -0.0700 -0.6894  0.0700
  284MOL0     C38262   0.426   6.943   3.458  0.2018 -0.3622 -0.7708
  284MOL0     C38263   0.344   6.840   3.494  0.2004  0.2936  0.5138
  284MOL0     O38264   0.370   6.713   3.446  0.4169 -0.5047  0.4570
  284MOL0     C38265   0.285   6.604   3.474 -0.5566 -1.0475 -0.2531
  284MOL0     C38266   0.300   6.491   3.378 -0.3441  0.4173 -1.1139
  284MOL0     C38267   0.252   6.535   3.239  0.1872 -0.3004 -0.9567
  284MOL0     C38268   0.281   6.420   3.149  0.1497 -0.6965  0.7483
  284MOL0     C38269   0.313   6.464   3.018 -0.3244 -0.0704  0.6241
  284MOL0     C38270   0.336   6.475   2.896  0.6717 -0.4451 -0.1828
  284MOL0     C38271   0.244   6.875   3.589  0.1853  0.4420  0.1053
  284MOL0     C38272   0.209   7.009   3.614 -0.4542  0.5237 -0.9360
  284MOL0     H38273  -0.104   7.311   3.734  0.8230 -1.1223  0.3114
  284MOL0     H38274  -0.190   7.503   3.844 -0.4328 -0.7814 -0.5921
  284MOL0     H38275   0.052   7.802   4.042  0.5623  1.9854  0.9698
  284MOL0     H38276   0.075   7.865   3.871 -0.7522  0.8739  0.1272
  284MOL0     H38277  -0.171   7.973   3.914  1.8314  0.5432 -0.8729
  284MOL0     H38278  -0.144   7.878   4.072 -0.0658  0.5380  0.6520
  284MOL0     H38279   0.013   8.002   4.161 -0.8466 -1.5251  0.6060
  284MOL0     H38280   0.020   8.104   4.016  0.0222  2.4566  3.0864
  284MOL0     H38281  -0.205   8.175   4.027  2.5865  0.7930 -1.1531
  284MOL0     H38282  -0.249   8.075   4.166 -0.0836  0.0187 -0.3228
  284MOL0     H38283  -0.224   8.313   4.247  0.7951  2.6306 -1.6715
  284MOL0     H38284  -0.100   8.206   4.302  2.1897  0.2382 -0.2985
  284MOL0     H38285   0.057   8.297   4.126 -0.0880  1.4064  0.2252
  284MOL0     H38286  -0.088   8.372   4.051  1.5861  1.9025  0.2688
  284MOL0     H38287  -0.021   8.555   4.157  1.0683 -0.7204 -0.7030
  284MOL0     H38288  -0.083   8.501   4.312 -0.0596  3.2706 -0.8217
  284MOL0     H38289   0.134   8.565   4.363 -0.4730  0.5029  0.2359
  284MOL0     H38290   0.199   8.474   4.223 -1.3708 -1.6411 -1.3093
  284MOL0     H38291   0.034   8.447   4.580 -0.8862  0.0639 -1.1612
  284MOL0     H38292   0.079   8.094   4.702  1.0707  0.4658 -0.1587
  284MOL0     H38293   0.094   8.251   4.783  3.9509 -2.4514  0.1702
  284MOL0     H38294  -0.121   8.329   4.669 -3.0021 -0.0297  1.6102
  284MOL0     H38295  -0.145   8.192   4.780 -0.2534  1.3543  0.9925
  284MOL0     H38296  -0.165   8.178   4.483  0.6393  1.3273  0.8596
  284MOL0     H38297  -0.280   8.134   4.614  1.4013 -0.6059  3.3015
  284MOL0     H38298  -0.095   7.952   4.660 -0.7889 -1.4784 -0.8494
  284MOL0     H38299  -0.024   7.982   4.500  0.9069 -3.0197  0.9057
  284MOL0     H38300  -0.284   7.786   4.283  1.0480 -1.0253 -3.1271
  284MOL0     H38301  -0.331   7.501   4.186 -1.4802  0.6891 -0.3062
  284MOL0     H38302  -0.293   7.642   4.114  0.1592  0.6506  1.0211
  284MOL0     H38303  -0.166   7.511   4.105 -0.9281 -1.7673  1.2153
  284MOL0     H38304  -0.141   7.102   4.318  1.6514  1.0281  0.3709
  284MOL0     H38305  -0.012   6.866   4.224 -0.7727 -0.5141 -3.0441
  284MOL0     H38306   0.230   6.739   3.928 -1.1366  0.3747  1.0635
  284MOL0     H38307   0.195   6.895   3.875 -2.6942  0.2186  0.8167
  284MOL0     H38308   0.410   6.978   3.972  1.0006  0.6021  0.2379
  284MOL0     H38309   0.401   6.861   4.091  0.1244  0.0064 -0.5599
  284MOL0     H38310   0.578   6.813   3.947  0.1893  0.2758 -0.7395
  284MOL0     H38311   0.492   6.842   3.802  0.9126 -2.6224 -1.6864
  284MOL0     H38312   0.363   6.633   3.817 -1.2512  2.1734  0.8032
  284MOL0     H38313   0.526   6.594   3.810  1.1157 -0.1534 -0.6264
  284MOL0     H38314   0.431   6.454   3.960  2.1584  0.2352  0.1002
  284MOL0     H38315   0.383   6.587   4.069 -0.4402 -0.8775  0.3322
  284MOL0     H38316   0.640   6.473   3.993 -2.7555 -0.3398 -1.5861
  284MOL0     H38317   0.643   6.649   4.057  1.0414 -0.8683 -0.5793
  284MOL0     H38318   0.514   6.550   4.257 -2.6651 -3.3771 -0.2624
  284MOL0     H38319   0.689   6.521   4.253 -2.0093  2.5224  1.5499
  284MOL0     H38320   0.636   6.295   4.154  1.6298  1.8402 -1.7464
  284MOL0     H38321   0.468   6.340   4.137  0.7719  4.4102  0.0940
  284MOL0     H38322   0.245   7.110   4.016 -0.5779  1.3816  0.0944
  284MOL0     H38323   0.126   7.302   4.043  0.0589  0.4212  1.2327
  284MOL0     H38324   0.041   7.523   4.550  2.2074 -0.1567 -0.6129
  284MOL0     H38325  -0.001   7.740   4.613  0.7999  1.6036 -2.1413
  284MOL0     H38326   0.210   7.662   3.869  0.2799 -0.6851 -0.8764
  284MOL0     H38327   0.289   7.470   3.775  0.5024 -2.4093 -1.9475
  284MOL0     H38328   0.466   7.155   3.440 -1.1367  0.8535  0.9499
  284MOL0     H38329   0.507   6.919   3.390  0.6721  0.3725 -0.4840
  284MOL0     H38330   0.290   6.569   3.578 -0.5118  1.4409  0.6519
  284MOL0     H38331   0.188   6.646   3.449  0.3417  0.9839 -0.5129
  284MOL0     H38332   0.232   6.409   3.401 -0.1590 -0.1107 -2.3901
  284MOL0     H38333   0.407   6.472   3.367  0.5484  3.2448  1.2469
  284MOL0     H38334   0.314   6.622   3.212  1.5244 -0.3285  1.6875
  284MOL0     H38335   0.149   6.571   3.229  0.3370 -0.0601 -1.6985
  284MOL0     H38336   0.189   6.363   3.136 -0.5047  0.9033 -3.1438
  284MOL0     H38337   0.362   6.360   3.191 -2.5603 -2.2924  4.1691
  284MOL0     H38338   0.357   6.491   2.792 -0.3381 -0.0213 -0.3306
  284MOL0     H38339   0.185   6.799   3.639  1.2626 -0.1598  0.4858
  284MOL0     H38340   0.133   7.018   3.691 -0.7085 -2.0287 -0.8159
  285MOL0     O38341   0.568   7.840   9.962 -0.0169  0.0326 -0.3277
  285MOL0     C38342   0.608   7.896  10.057 -0.1078  0.1182 -0.0574
  285MOL0     O38343   0.602   8.032  10.074 -0.5245 -0.3446 -0.3387
  285MOL0     C38344   0.569   8.127   9.978 -0.4480  0.2617  0.0577
  285MOL0     C38345   0.632   8.255   9.988 -0.6447 -0.0388 -0.2073
  285MOL0     C38346   0.591   8.357   9.904  0.3987  0.8921 -0.7863
  285MOL0     C38347   0.490   8.338   9.806  0.9242 -1.8270 -0.3544
  285MOL0     O38348   0.454   8.448   9.733  0.2102  0.7738  0.2535
  285MOL0     C38349   0.318   8.490   9.740  0.8678  0.2487 -0.8400
  285MOL0     C38350   0.298   8.630   9.677  0.6412 -0.1195 -0.9030
  285MOL0     C38351   0.294   8.644   9.524  0.0897  0.1458  0.0132
  285MOL0     C38352   0.440   8.636   9.463 -0.7990  0.1491  0.2806
  285MOL0     C38353   0.442   8.636   9.309  0.5401  0.5744  0.0918
  285MOL0     C38354   0.586   8.656   9.255 -0.3805  0.5432  0.4848
  285MOL0     C38355   0.593   8.651   9.106  0.0252 -0.1966  0.0699
  285MOL0     C38356   0.731   8.692   9.039  0.7460  0.9206 -0.4502
  285MOL0     N38357   0.703   8.751   8.907 -0.4467 -0.1474 -0.8736
  285MOL0     C38358   0.636   8.679   8.805 -0.1685  0.0834  0.1021
  285MOL0     C38359   0.616   8.752   8.698  0.3670 -1.2890 -0.7650
  285MOL0     C38360   0.533   8.723   8.576  0.4532 -0.1059 -0.2721
  285MOL0     C38361   0.595   8.596   8.513 -0.6029 -0.5359 -0.1578
  285MOL0     C38362   0.535   8.568   8.375 -0.6577 -0.2764  0.6819
  285MOL0     C38363   0.616   8.629   8.256  0.0266  0.0102 -0.6832
  285MOL0     O38364   0.747   8.570   8.246 -0.8619  0.5177  0.1473
  285MOL0     C38365   0.797   8.577   8.124 -0.2175 -0.6789 -0.1161
  285MOL0     C38366   0.740   8.619   8.001 -0.1296  0.0663 -0.0644
  285MOL0     C38367   0.831   8.627   7.898  0.7349 -0.1977 -0.3551
  285MOL0     C38368   0.762   8.681   7.772 -0.1251  0.3492  0.0038
  285MOL0     C38369   0.963   8.592   7.906  0.0830 -0.3922 -0.5608
  285MOL0     C38370   1.062   8.586   7.798 -0.0099  0.4828  0.3509
  285MOL0     O38371   1.184   8.528   7.824 -0.3833 -0.1035  1.0019
  285MOL0     C38372   1.296   8.554   7.748 -0.6852 -0.2343  0.5431
  285MOL0     C38373   1.310   8.674   7.672 -0.1747 -0.6122 -0.0671
  285MOL0     C38374   1.411   8.682   7.574 -0.4594 -0.6291 -0.3809
  285MOL0     C38375   1.500   8.572   7.567 -0.3869 -0.3606 -0.8077
  285MOL0     O38376   1.584   8.577   7.455 -0.2454  0.4199  0.5144
  285MOL0     C38377   1.712   8.517   7.462  0.8596  0.0202 -0.2397
  285MOL0     C38378   1.773   8.544   7.329 -0.6198 -0.0055  0.0300
  285MOL0     C38379   1.927   8.539   7.322  1.4091 -0.0698 -0.2773
  285MOL0     C38380   1.960   8.584   7.179  0.7929 -0.1883  0.0445
  285MOL0     C38381   2.107   8.628   7.178  0.0610  0.1906  0.4235
  285MOL0     C38382   2.148   8.671   7.034 -0.3148 -0.5778 -0.6294
  285MOL0     C38383   2.253   8.778   7.027 -1.1731  0.0222 -0.5491
  285MOL0     C38384   2.387   8.729   7.087 -0.3793 -0.7747 -0.1997
  285MOL0    Cl38385   2.474   8.595   6.990  0.1063 -0.3207  0.0503
  285MOL0     C38386   1.492   8.460   7.652  0.4897  0.3636 -1.2342
  285MOL0     C38387   1.392   8.458   7.749  0.1986  0.7237 -0.8159
  285MOL0     O38388   1.036   8.629   7.690  0.5361 -0.5081 -0.4044
  285MOL0     C38389   1.013   8.554   8.027  0.3551  0.8220  0.5786
  285MOL0     C38390   0.935   8.547   8.140  0.2868  1.0307  0.0959
  285MOL0     N38391   0.663   8.884   8.734 -0.3179 -0.3679  0.0169
  285MOL0     N38392   0.716   8.874   8.857  0.8750 -0.5878  0.8665
  285MOL0     C38393   0.435   8.212   9.784  0.5806 -0.3050 -0.9525
  285MOL0     C38394   0.466   8.114   9.878 -0.4983 -0.4130 -0.0064
  285MOL0     C38395   0.678   7.823  10.166  0.2788 -0.9175 -0.5284
  285MOL0     C38396   0.776   7.889  10.246  0.7874  0.0301  0.1915
  285MOL0     C38397   0.848   7.810  10.344  0.2888 -0.4645 -0.3204
  285MOL0     C38398   0.810   7.680  10.374  0.0037 -0.1161 -0.2741
  285MOL0     O38399   0.868   7.606  10.480 -0.2416 -0.4286 -0.0906
  285MOL0     C38400   0.993   7.661  10.536  1.1790  1.7041 -0.4648
  285MOL0     C38401   1.053   7.564  10.644  0.0008  0.6712 -0.2673
  285MOL0     C38402   1.128   7.456  10.575  0.1519 -0.4490  0.2476
  285MOL0     C38403   1.221   7.371  10.662  0.2126 -0.7363  0.1881
  285MOL0     C38404   1.359   7.419  10.664  0.8460  0.2145  0.4839
  285MOL0     C38405   1.477   7.447  10.656  0.0478 -0.2195 -0.4675
  285MOL0     C38406   0.714   7.620  10.302 -0.2106  0.4048 -0.7059
  285MOL0     C38407   0.647   7.692  10.201 -0.2604  0.1340 -0.7386
  285MOL0     H38408   0.712   8.270  10.059  2.4990 -1.3222 -3.1789
  285MOL0     H38409   0.625   8.458   9.926 -1.2288  1.9747 -2.8358
  285MOL0     H38410   0.263   8.424   9.671  2.8052 -0.0788 -2.1744
  285MOL0     H38411   0.267   8.483   9.836  0.0759 -0.1370 -1.2743
  285MOL0     H38412   0.199   8.656   9.714  1.5029 -0.5242  1.9019
  285MOL0     H38413   0.373   8.703   9.708  0.8811 -0.1279 -1.4431
  285MOL0     H38414   0.224   8.570   9.487 -0.7266  0.2129  1.3869
  285MOL0     H38415   0.250   8.742   9.503 -0.5213  0.1413  1.2116
  285MOL0     H38416   0.505   8.719   9.492 -0.5540  1.3410 -3.2041
  285MOL0     H38417   0.477   8.537   9.492  0.2640  0.2418 -0.6934
  285MOL0     H38418   0.399   8.541   9.277 -1.7356  1.4280  0.4806
  285MOL0     H38419   0.374   8.716   9.278 -1.2263 -1.5472 -1.8846
  285MOL0     H38420   0.619   8.755   9.289  1.5940 -0.3186  1.2427
  285MOL0     H38421   0.652   8.587   9.309 -1.7103  2.1091  4.5548
  285MOL0     H38422   0.567   8.555   9.061  0.6010  0.1736 -1.0907
  285MOL0     H38423   0.517   8.716   9.060  0.1661 -0.6367 -0.8118
  285MOL0     H38424   0.798   8.607   9.023 -0.0725 -0.0497  1.0474
  285MOL0     H38425   0.784   8.755   9.112  1.5515 -1.6580  1.3398
  285MOL0     H38426   0.597   8.578   8.800 -0.9450  0.3650  0.3553
  285MOL0     H38427   0.433   8.699   8.613  0.1839  0.7647 -0.4280
  285MOL0     H38428   0.545   8.814   8.516  5.1337  0.3604  0.9708
  285MOL0     H38429   0.580   8.507   8.575 -0.3176 -0.5771 -0.1435
  285MOL0     H38430   0.702   8.612   8.494 -1.0417  0.9065 -1.6451
  285MOL0     H38431   0.427   8.584   8.376 -0.8551 -1.5133  1.7519
  285MOL0     H38432   0.552   8.461   8.360 -1.2078 -0.2784  0.0211
  285MOL0     H38433   0.629   8.737   8.267 -1.7543  0.0896  1.1005
  285MOL0     H38434   0.551   8.589   8.178 -2.6436  0.8969  0.9690
  285MOL0     H38435   0.635   8.645   7.994  0.5931  3.1852 -1.4200
  285MOL0     H38436   0.796   8.784   7.755 -0.4277  0.5983  0.8866
  285MOL0     H38437   0.799   8.624   7.686  1.4820  0.3945  0.6273
  285MOL0     H38438   0.653   8.684   7.767 -0.1175 -0.7208 -2.4491
  285MOL0     H38439   1.234   8.751   7.684 -2.6337 -2.7992 -0.6751
  285MOL0     H38440   1.408   8.771   7.512 -2.9652 -0.5354 -0.2122
  285MOL0     H38441   1.774   8.559   7.542  0.4367  2.0553 -0.9236
  285MOL0     H38442   1.701   8.409   7.476 -4.6248  0.2450 -0.6189
  285MOL0     H38443   1.728   8.476   7.257  0.2869 -0.4652 -0.1176
  285MOL0     H38444   1.739   8.639   7.286 -2.1588 -0.3566  0.4158
  285MOL0     H38445   1.964   8.438   7.343  1.7016 -0.0674 -0.7737
  285MOL0     H38446   1.970   8.607   7.397 -0.4795  0.5210  0.3077
  285MOL0     H38447   1.944   8.497   7.114 -0.0507  0.4726 -0.6672
  285MOL0     H38448   1.892   8.656   7.132 -2.5932 -2.6687  0.7334
  285MOL0     H38449   2.166   8.545   7.217 -2.4183 -1.7706  0.2293
  285MOL0     H38450   2.124   8.706   7.252  2.2310 -2.9800  3.5933
  285MOL0     H38451   2.169   8.580   6.978  0.8936 -1.6724  1.4828
  285MOL0     H38452   2.068   8.728   6.987  2.0064  2.2808 -1.4607
  285MOL0     H38453   2.228   8.869   7.081 -0.5426  1.2066 -2.1726
  285MOL0     H38454   2.251   8.821   6.927 -2.3631  0.9476 -0.1584
  285MOL0     H38455   2.369   8.693   7.189  1.2964  1.7091  1.0880
  285MOL0     H38456   2.452   8.817   7.097 -1.0521 -0.4238  1.5409
  285MOL0     H38457   1.536   8.365   7.624 -0.0136 -0.0036 -0.7789
  285MOL0     H38458   1.377   8.369   7.809  1.8485  0.7380 -0.3296
  285MOL0     H38459   1.115   8.526   8.049  1.0995  0.2620 -3.0938
  285MOL0     H38460   0.974   8.515   8.236  0.7744 -2.0726 -1.0173
  285MOL0     H38461   0.361   8.200   9.705 -0.0189 -0.3341 -0.3873
  285MOL0     H38462   0.402   8.026   9.877 -2.2638  0.7236  2.2463
  285MOL0     H38463   0.800   7.994  10.240 -0.6531  0.3094 -2.0680
  285MOL0     H38464   0.920   7.856  10.411 -0.9804 -1.8349  2.1026
  285MOL0     H38465   1.062   7.676  10.452  1.0680  1.1096 -0.6690
  285MOL0     H38466   0.977   7.756  10.588 -0.8489  0.9987  0.3089
  285MOL0     H38467   0.992   7.502  10.710  0.3117  0.6116 -0.0284
  285MOL0     H38468   1.120   7.622  10.709 -1.1424 -1.8205  3.4096
  285MOL0     H38469   1.183   7.488  10.486 -0.0364  0.9191  0.5921
  285MOL0     H38470   1.047   7.392  10.540 -1.0263  0.7439  0.6936
  285MOL0     H38471   1.210   7.271  10.618  0.8090  0.8752 -4.1682
  285MOL0     H38472   1.186   7.367  10.765 -0.2579  2.6748  0.2770
  285MOL0     H38473   1.581   7.473  10.652  0.6500 -2.2672  0.2831
  285MOL0     H38474   0.675   7.521  10.322 -5.3586  1.9713 -1.7189
  285MOL0     H38475   0.578   7.634  10.141  1.5239  0.0424 -2.8238
  286MOL0     O38476   4.742   7.008   7.066  0.1468 -0.8224 -0.0714
  286MOL0     C38477   4.670   7.039   7.162  0.6760  0.0877  1.4040
  286MOL0     O38478   4.548   6.981   7.189 -0.2130 -0.6432 -0.4731
  286MOL0     C38479   4.529   6.858   7.121  0.1183 -0.6425 -0.0701
  286MOL0     C38480   4.580   6.733   7.176  0.8126 -0.1582 -0.1310
  286MOL0     C38481   4.548   6.613   7.099 -0.5770  0.1781 -0.3547
  286MOL0     C38482   4.475   6.624   6.974 -0.2994 -0.3602  0.1948
  286MOL0     O38483   4.444   6.519   6.882 -0.1069 -0.6801 -1.7540
  286MOL0     C38484   4.432   6.390   6.950  1.2312 -1.1323 -0.5338
  286MOL0     C38485   4.335   6.305   6.871  0.2485 -0.8028  0.4783
  286MOL0     C38486   4.376   6.296   6.719  0.4439  0.0553 -0.5007
  286MOL0     C38487   4.246   6.279   6.634  0.5455 -0.0995 -0.7032
  286MOL0     C38488   4.287   6.245   6.483  0.8027  0.7119  0.1686
  286MOL0     C38489   4.150   6.237   6.404  0.6966  1.1751  0.6513
  286MOL0     C38490   4.159   6.174   6.261  0.0945 -1.3045  0.5056
  286MOL0     C38491   4.234   6.049   6.261  0.6522  0.7070  0.0196
  286MOL0     N38492   4.219   5.985   6.136  0.7676 -0.0090  1.1560
  286MOL0     C38493   4.117   5.908   6.085  0.9279  0.0147 -0.6307
  286MOL0     C38494   4.138   5.881   5.958  0.4673 -1.1163 -0.7841
  286MOL0     C38495   4.033   5.820   5.868  0.1725  1.0785  0.0412
  286MOL0     C38496   3.915   5.905   5.830  0.8617  0.5328 -0.0453
  286MOL0     C38497   3.934   6.027   5.739  0.5604 -0.5121  0.2426
  286MOL0     C38498   4.005   6.006   5.602 -1.0105  0.6259  0.2211
  286MOL0     O38499   3.961   5.878   5.544  0.0832 -0.5633  0.7133
  286MOL0     C38500   4.031   5.831   5.437 -0.4943 -0.4171 -0.6061
  286MOL0     C38501   4.142   5.896   5.384 -0.0209 -0.4397 -0.3397
  286MOL0     C38502   4.208   5.860   5.264  1.1622  0.1076 -0.5331
  286MOL0     C38503   4.302   5.971   5.224 -0.1708  0.0298  0.1317
  286MOL0     C38504   4.160   5.749   5.182 -1.2690  0.5761 -1.0696
  286MOL0     C38505   4.209   5.708   5.047  1.1984 -0.2389 -0.0256
  286MOL0     O38506   4.171   5.593   4.987 -0.5446 -0.2858 -0.0386
  286MOL0     C38507   4.220   5.552   4.866  0.1438 -0.1039  0.7407
  286MOL0     C38508   4.133   5.510   4.763 -1.1056  0.6729 -0.5231
  286MOL0     C38509   4.195   5.472   4.641 -0.1799  0.0612  1.0461
  286MOL0     C38510   4.334   5.464   4.616  0.3383  0.2219 -0.1850
  286MOL0     O38511   4.397   5.448   4.497  0.2326 -0.0301 -0.0758
  286MOL0     C38512   4.323   5.437   4.373  1.1698  0.5282  0.0340
  286MOL0     C38513   4.416   5.412   4.254 -0.0189  0.6133  0.1545
  286MOL0     C38514   4.331   5.374   4.135 -0.2591  0.5285 -0.6726
  286MOL0     C38515   4.407   5.353   4.003 -0.2024  0.1263  0.2119
  286MOL0     C38516   4.316   5.373   3.876 -0.2692 -0.7057 -0.1886
  286MOL0     C38517   4.177   5.299   3.905 -0.8500  0.2566  0.5807
  286MOL0     C38518   4.143   5.237   3.763 -0.2346 -0.4226  0.4930
  286MOL0     C38519   4.100   5.340   3.658 -0.6312 -0.3513  0.3275
  286MOL0    Cl38520   4.008   5.258   3.511 -0.0111 -0.3682 -0.1774
  286MOL0     C38521   4.412   5.514   4.719  0.3232  0.7496 -0.3295
  286MOL0     C38522   4.356   5.546   4.847  0.6065  0.4165  0.1994
  286MOL0     O38523   4.297   5.784   5.009  0.2839 -0.3795  0.4486
  286MOL0     C38524   4.070   5.665   5.245  0.3179 -0.9090  0.0841
  286MOL0     C38525   4.009   5.702   5.370  0.3635  0.0016  0.0713
  286MOL0     N38526   4.254   5.952   5.927 -0.5362 -0.0463 -0.6377
  286MOL0     N38527   4.292   6.023   6.030  0.3948 -0.4061  0.3903
  286MOL0     C38528   4.423   6.742   6.936 -0.4066 -0.0610  0.1928
  286MOL0     C38529   4.438   6.855   7.019 -0.0937  0.0690  0.1451
  286MOL0     C38530   4.723   7.127   7.264 -0.2559  0.7616  0.1942
  286MOL0     C38531   4.652   7.154   7.378  0.6306 -0.1546  0.0872
  286MOL0     C38532   4.689   7.255   7.469  0.8117 -0.1514  0.7967
  286MOL0     C38533   4.798   7.333   7.437 -0.2701 -1.1631 -0.4011
  286MOL0     O38534   4.837   7.436   7.523 -1.1126  0.2398  0.1479
  286MOL0     C38535   4.940   7.533   7.486 -0.1857 -0.2045  1.4854
  286MOL0     C38536   5.027   7.559   7.611 -0.1154 -0.1271 -0.6874
  286MOL0     C38537   5.095   7.699   7.600  0.5669 -0.6066  0.1934
  286MOL0     C38538   5.214   7.715   7.500 -0.2325  0.6967 -0.6563
  286MOL0     C38539   5.285   7.844   7.513  0.5098  0.0623 -0.9304
  286MOL0     C38540   5.327   7.952   7.551  0.1849 -0.2999 -0.0140
  286MOL0     C38541   4.878   7.299   7.325 -1.0521 -0.5291  0.6660
  286MOL0     C38542   4.839   7.201   7.236 -0.1317  0.6761 -0.1328
  286MOL0     H38543   4.645   6.726   7.263  1.3205 -1.9119 -0.6015
  286MOL0     H38544   4.590   6.520   7.136  0.9894  0.8395 -0.4116
  286MOL0     H38545   4.530   6.344   6.970  0.5329 -2.1850  0.6208
  286MOL0     H38546   4.385   6.396   7.049  0.9926 -1.0472 -0.6535
  286MOL0     H38547   4.330   6.200   6.904 -0.7044 -0.9506 -0.1107
  286MOL0     H38548   4.243   6.356   6.900  2.4238  2.1312  2.8713
  286MOL0     H38549   4.430   6.383   6.682  2.9093 -1.2889 -0.2911
  286MOL0     H38550   4.454   6.219   6.713 -0.8610 -1.1947 -2.6260
  286MOL0     H38551   4.176   6.203   6.670 -0.2501  0.6020 -0.7209
  286MOL0     H38552   4.183   6.368   6.633 -1.6439 -1.5245  0.5645
  286MOL0     H38553   4.356   6.322   6.448  0.9924  0.2305 -0.5375
  286MOL0     H38554   4.344   6.152   6.487  0.7863  0.6931 -0.0325
  286MOL0     H38555   4.087   6.167   6.460  0.4374  0.6543 -0.2720
  286MOL0     H38556   4.104   6.335   6.389  0.9691  1.1854 -0.1530
  286MOL0     H38557   4.058   6.159   6.221  0.6566 -2.4450 -0.5606
  286MOL0     H38558   4.200   6.247   6.191 -2.4415 -2.1414 -2.0428
  286MOL0     H38559   4.200   5.985   6.343  0.5652  1.1845  0.3535
  286MOL0     H38560   4.340   6.071   6.276  1.0679 -1.3987  0.6003
  286MOL0     H38561   4.046   5.871   6.159  3.2949 -0.8296  1.3610
  286MOL0     H38562   4.078   5.776   5.779 -2.1177  0.2309 -0.7758
  286MOL0     H38563   3.999   5.732   5.923 -0.2712  0.2920 -1.4301
  286MOL0     H38564   3.869   5.942   5.922 -0.5475 -1.8426  0.2798
  286MOL0     H38565   3.839   5.838   5.788  1.6740 -0.5205  0.1346
  286MOL0     H38566   3.969   6.112   5.797 -2.4295  0.5041  0.7099
  286MOL0     H38567   3.828   6.049   5.722  0.8020  2.1639  1.6874
  286MOL0     H38568   4.112   6.005   5.624 -1.1357  1.3438  0.9178
  286MOL0     H38569   3.987   6.087   5.531  1.4078 -0.2135 -1.4551
  286MOL0     H38570   4.178   5.992   5.417  1.4226 -1.0203 -0.1690
  286MOL0     H38571   4.255   6.003   5.130  1.3363  2.7511  0.2183
  286MOL0     H38572   4.313   6.061   5.285  0.8190  1.1048 -1.5509
  286MOL0     H38573   4.398   5.922   5.208  1.4278  2.0355  2.8695
  286MOL0     H38574   4.028   5.523   4.787 -0.0458  2.2118  4.5456
  286MOL0     H38575   4.136   5.443   4.554  2.2609  2.6844 -1.7094
  286MOL0     H38576   4.251   5.355   4.383  0.2624  0.4118 -4.7978
  286MOL0     H38577   4.265   5.530   4.363 -0.1206 -0.1845  0.5755
  286MOL0     H38578   4.486   5.493   4.232 -1.2945  2.1271  1.4545
  286MOL0     H38579   4.479   5.326   4.282 -0.2323  0.1713 -0.6779
  286MOL0     H38580   4.249   5.446   4.125 -0.8002  0.0800  0.4198
  286MOL0     H38581   4.295   5.272   4.149 -0.4791  0.2518 -2.9765
  286MOL0     H38582   4.499   5.413   3.997  0.3626 -0.8418 -1.8741
  286MOL0     H38583   4.444   5.250   3.998  1.0429  0.6074 -1.5821
  286MOL0     H38584   4.375   5.331   3.794 -1.9254 -2.7352 -0.4428
  286MOL0     H38585   4.302   5.481   3.861  1.7683 -0.0201  2.2050
  286MOL0     H38586   4.189   5.222   3.982 -1.1773 -0.6138 -0.2215
  286MOL0     H38587   4.107   5.379   3.933 -0.9521  2.1231 -4.2076
  286MOL0     H38588   4.059   5.168   3.775 -0.5641  0.0929  1.2658
  286MOL0     H38589   4.212   5.162   3.722 -2.7072 -1.9531 -1.1713
  286MOL0     H38590   4.181   5.406   3.626 -0.8986 -0.0935  0.1716
  286MOL0     H38591   4.026   5.406   3.705  1.7640  1.5475  1.6769
  286MOL0     H38592   4.515   5.545   4.703 -0.3611  1.3110 -5.0749
  286MOL0     H38593   4.428   5.576   4.923  1.3856  1.0605 -0.7797
  286MOL0     H38594   4.040   5.572   5.199  0.5426  0.3910 -2.9416
  286MOL0     H38595   3.928   5.653   5.423  0.9404 -1.4498 -0.3441
  286MOL0     H38596   4.368   6.731   6.844  0.8194 -3.4786 -0.2502
  286MOL0     H38597   4.393   6.953   7.001  2.1338  1.0281 -0.5938
  286MOL0     H38598   4.553   7.111   7.389  0.0420  1.3944  1.0729
  286MOL0     H38599   4.638   7.290   7.559  1.4838  4.7623 -0.4345
  286MOL0     H38600   5.011   7.503   7.409 -1.1467  1.0818  0.0648
  286MOL0     H38601   4.889   7.618   7.441 -0.6959 -2.3350 -2.3217
  286MOL0     H38602   5.097   7.478   7.630  1.3625  0.8423 -1.7704
  286MOL0     H38603   4.965   7.564   7.701  4.4307 -0.6252  2.8336
  286MOL0     H38604   5.137   7.714   7.699 -0.3555  0.1030  0.4995
  286MOL0     H38605   5.017   7.775   7.584  1.0989  0.1362  1.0476
  286MOL0     H38606   5.182   7.693   7.398  3.3033  1.1802 -2.0041
  286MOL0     H38607   5.287   7.637   7.525 -0.6332 -0.5046 -2.9910
  286MOL0     H38608   5.355   8.049   7.586  0.6046 -0.2534 -0.4631
  286MOL0     H38609   4.968   7.355   7.302 -1.7879  1.1779  1.7241
  286MOL0     H38610   4.906   7.187   7.152 -1.9355  0.7030 -1.6612
  287MOL0     O38611   1.896   2.116   5.555  0.4355 -0.5187  1.3243
  287MOL0     C38612   1.925   2.103   5.439 -0.9239  0.2136 -0.1082
  287MOL0     O38613   1.859   2.166   5.341  0.5492  0.4096  0.3619
  287MOL0     C38614   1.752   2.245   5.349 -0.9639  0.3946 -0.4549
  287MOL0     C38615   1.753   2.352   5.261  0.7045  0.1378 -0.7722
  287MOL0     C38616   1.651   2.446   5.264  0.8786 -0.0133  0.9082
  287MOL0     C38617   1.539   2.420   5.344 -0.2419  0.7131 -0.3164
  287MOL0     O38618   1.432   2.505   5.318  0.0922 -0.1751  0.0378
  287MOL0     C38619   1.301   2.482   5.381 -0.1571  0.3256  0.1611
  287MOL0     C38620   1.239   2.621   5.432 -0.7554  0.6892  0.0934
  287MOL0     C38621   1.172   2.711   5.327  0.4475 -0.7892  0.6887
  287MOL0     C38622   1.093   2.828   5.399  0.0171  0.6607 -0.2569
  287MOL0     C38623   1.049   2.921   5.291  0.8327 -0.1898  0.2648
  287MOL0     C38624   0.925   3.002   5.322  0.0314 -0.2367 -0.2694
  287MOL0     C38625   0.816   2.981   5.219 -0.0349 -0.3391  0.6463
  287MOL0     C38626   0.705   3.084   5.229 -0.0570  0.4517 -0.1969
  287MOL0     N38627   0.610   3.072   5.124 -0.3685  0.1781  0.1206
  287MOL0     C38628   0.487   3.014   5.137  0.2711 -0.9092 -0.0062
  287MOL0     C38629   0.426   3.037   5.017 -0.1813  0.5050  0.0230
  287MOL0     C38630   0.283   3.011   4.988 -0.0050 -0.6587  0.1137
  287MOL0     C38631   0.199   3.132   5.028 -0.0777 -0.2365 -0.7301
  287MOL0     C38632   0.048   3.110   5.010 -0.2727  0.0097 -0.4868
  287MOL0     C38633  -0.011   2.966   5.043 -0.1075 -0.8031  0.2005
  287MOL0     O38634   0.017   2.948   5.181 -0.3056  0.0019  0.3810
  287MOL0     C38635   0.028   2.820   5.216  0.4474  0.4981  0.2198
  287MOL0     C38636  -0.078   2.734   5.193  0.4178 -0.1766  0.2397
  287MOL0     C38637  -0.071   2.596   5.247  0.3613 -0.8682  0.7017
  287MOL0     C38638  -0.187   2.505   5.222  0.0202 -0.5799  0.0260
  287MOL0     C38639   0.049   2.551   5.308 -0.4823  0.1563  0.1259
  287MOL0     C38640   0.065   2.413   5.367  0.8870 -0.2373  0.7182
  287MOL0     O38641   0.011   2.303   5.302 -0.5318 -0.1950 -0.0439
  287MOL0     C38642  -0.003   2.190   5.377  0.2216 -0.1040 -0.5459
  287MOL0     C38643  -0.124   2.163   5.446 -0.6241 -0.4225 -0.5028
  287MOL0     C38644  -0.150   2.036   5.506  0.0151 -0.5943  0.1187
  287MOL0     C38645  -0.052   1.943   5.523 -0.1341 -0.3490 -0.2937
  287MOL0     O38646  -0.069   1.828   5.599  0.7041 -0.1140 -0.2586
  287MOL0     C38647  -0.206   1.798   5.624 -0.0990  0.6211  0.7883
  287MOL0     C38648  -0.235   1.675   5.720  0.4790 -0.9967 -0.3734
  287MOL0     C38649  -0.384   1.653   5.712 -0.5326  0.4410  0.2912
  287MOL0     C38650  -0.424   1.508   5.753  0.0958 -0.1705 -0.9721
  287MOL0     C38651  -0.574   1.488   5.747 -0.6925  0.5311  0.1036
  287MOL0     C38652  -0.660   1.574   5.846  0.2627  0.7942  0.2694
  287MOL0     C38653  -0.802   1.517   5.840 -0.3411 -0.1682  0.3757
  287MOL0     C38654  -0.896   1.547   5.722  0.0044  0.2425 -0.0593
  287MOL0    Cl38655  -1.055   1.473   5.746  0.2490  0.1125  0.3771
  287MOL0     C38656   0.067   1.971   5.451 -0.1636 -0.2838 -0.7692
  287MOL0     C38657   0.094   2.083   5.376 -0.1725  0.1740  0.5146
  287MOL0     O38658   0.133   2.408   5.466 -0.1437 -0.3710  1.0703
  287MOL0     C38659   0.158   2.644   5.327  0.0610 -0.8786  0.3192
  287MOL0     C38660   0.143   2.779   5.288  0.4050 -0.4901 -0.3925
  287MOL0     N38661   0.521   3.105   4.934 -1.1076 -0.3085 -0.3390
  287MOL0     N38662   0.629   3.120   5.002  0.1011 -0.4501 -0.8921
  287MOL0     C38663   1.544   2.317   5.442 -0.7416 -0.3722  0.5166
  287MOL0     C38664   1.657   2.234   5.444 -1.0682  0.9232 -0.2755
  287MOL0     C38665   2.047   2.018   5.410  1.5331  0.7268 -0.3516
  287MOL0     C38666   2.102   1.958   5.522 -0.2094 -0.5934  0.7967
  287MOL0     C38667   2.204   1.857   5.508 -0.5823  0.1891  0.7152
  287MOL0     C38668   2.233   1.810   5.376 -1.2569 -0.1623 -1.0269
  287MOL0     O38669   2.335   1.707   5.354 -1.2492 -0.9120  0.2040
  287MOL0     C38670   2.417   1.664   5.468  0.3053  0.0573  0.6208
  287MOL0     C38671   2.530   1.572   5.426  0.0676 -0.3421  0.7655
  287MOL0     C38672   2.494   1.421   5.427 -0.3719  0.8022  0.0264
  287MOL0     C38673   2.626   1.335   5.398  0.8272 -0.4757 -1.0707
  287MOL0     C38674   2.654   1.341   5.259  0.7496  0.4693 -0.9716
  287MOL0     C38675   2.669   1.356   5.138 -0.4796  0.1675  0.5996
  287MOL0     C38676   2.178   1.869   5.270  0.8810 -0.6228 -0.1676
  287MOL0     C38677   2.092   1.979   5.285  0.6070  0.1249  0.8015
  287MOL0     H38678   1.830   2.372   5.187  1.1789 -2.9327 -1.2352
  287MOL0     H38679   1.658   2.526   5.192  1.1878 -1.3670 -0.6089
  287MOL0     H38680   1.239   2.435   5.304 -0.9804  3.6472 -1.3824
  287MOL0     H38681   1.305   2.410   5.463 -2.2836  0.7171  0.6523
  287MOL0     H38682   1.168   2.607   5.514  1.3625 -1.0208  1.7469
  287MOL0     H38683   1.324   2.681   5.463 -0.1907  0.4183 -0.8825
  287MOL0     H38684   1.243   2.744   5.251 -0.0023  0.5024  0.7985
  287MOL0     H38685   1.089   2.652   5.287  2.5124 -5.0799  2.2280
  287MOL0     H38686   1.004   2.783   5.445  1.9167 -0.5624  2.4955
  287MOL0     H38687   1.148   2.875   5.481  1.1614 -1.7449  0.4435
  287MOL0     H38688   1.128   2.992   5.263 -1.4260  2.1749 -0.4523
  287MOL0     H38689   1.026   2.866   5.199 -1.3945  0.2485  0.5117
  287MOL0     H38690   0.874   2.973   5.415  0.1400  2.5839  0.7683
  287MOL0     H38691   0.956   3.106   5.310 -3.5296  0.9893 -0.1768
  287MOL0     H38692   0.868   2.995   5.124  0.1382 -0.7641  0.6762
  287MOL0     H38693   0.786   2.876   5.224 -0.9163 -0.0494  1.7136
  287MOL0     H38694   0.743   3.186   5.224 -1.9005  1.3821  2.4309
  287MOL0     H38695   0.652   3.076   5.325 -1.3209 -0.9816 -0.9699
  287MOL0     H38696   0.439   2.973   5.225 -0.2854  1.9180  1.1169
  287MOL0     H38697   0.265   2.996   4.881  0.7836  0.3047 -0.1760
  287MOL0     H38698   0.252   2.924   5.046 -0.3482 -1.0608 -0.6630
  287MOL0     H38699   0.237   3.222   4.979  2.6590 -1.1165 -0.4109
  287MOL0     H38700   0.212   3.150   5.136 -0.8214 -2.7594 -0.1567
  287MOL0     H38701   0.021   3.139   4.908  4.6786 -0.6777 -2.2759
  287MOL0     H38702  -0.001   3.177   5.081 -1.3357  0.0646 -1.2575
  287MOL0     H38703   0.035   2.885   4.985  0.7701  0.5586 -1.0706
  287MOL0     H38704  -0.118   2.976   5.025 -0.8630 -1.0375  3.7976
  287MOL0     H38705  -0.171   2.775   5.155 -0.0670 -0.8490  0.6758
  287MOL0     H38706  -0.277   2.566   5.209 -1.4182 -2.6641 -0.4687
  287MOL0     H38707  -0.175   2.444   5.132 -0.5875  0.4042 -0.7398
  287MOL0     H38708  -0.194   2.438   5.308 -2.7722  0.6609  0.9019
  287MOL0     H38709  -0.204   2.237   5.443  0.0700  0.3495 -0.4547
  287MOL0     H38710  -0.254   2.032   5.536 -0.6158  1.4951 -1.5888
  287MOL0     H38711  -0.253   1.882   5.676  0.4165  2.6043 -1.7500
  287MOL0     H38712  -0.261   1.789   5.530 -0.4834  4.1348  0.5677
  287MOL0     H38713  -0.197   1.582   5.678  0.9531 -0.1640 -1.8511
  287MOL0     H38714  -0.184   1.694   5.815  2.5132  3.6807 -2.0928
  287MOL0     H38715  -0.424   1.652   5.611  2.0731 -3.3277 -0.9232
  287MOL0     H38716  -0.443   1.733   5.758  1.0068  2.3617 -0.9096
  287MOL0     H38717  -0.369   1.434   5.694 -0.0593 -1.5224  0.5018
  287MOL0     H38718  -0.399   1.482   5.856 -0.6035 -2.9617 -1.4339
  287MOL0     H38719  -0.576   1.387   5.788 -0.6295  1.0552  1.4657
  287MOL0     H38720  -0.613   1.483   5.645  0.8308  1.7906 -0.5684
  287MOL0     H38721  -0.628   1.571   5.951  1.2709 -2.3796 -0.0201
  287MOL0     H38722  -0.663   1.681   5.827  2.7567  2.3705  6.3477
  287MOL0     H38723  -0.851   1.549   5.932 -1.7506 -4.3987  1.3498
  287MOL0     H38724  -0.787   1.410   5.857  2.0216 -0.2306 -1.5317
  287MOL0     H38725  -0.851   1.501   5.634  4.3127  1.5773  1.2061
  287MOL0     H38726  -0.920   1.653   5.706  1.4643  0.9519  1.9703
  287MOL0     H38727   0.144   1.895   5.466  0.1093 -0.0614 -1.0278
  287MOL0     H38728   0.187   2.106   5.325 -0.1392 -0.5617  0.2302
  287MOL0     H38729   0.252   2.610   5.371  0.4543 -0.3274 -0.0848
  287MOL0     H38730   0.225   2.850   5.294  1.4347 -1.6495 -0.4015
  287MOL0     H38731   1.472   2.286   5.518  1.3954 -2.7912  1.7036
  287MOL0     H38732   1.650   2.155   5.519 -1.5252 -1.0614 -2.3039
  287MOL0     H38733   2.078   1.987   5.623  0.8778  0.7399  0.7039
  287MOL0     H38734   2.240   1.814   5.601  0.2486 -1.2969 -0.2515
  287MOL0     H38735   2.475   1.751   5.502 -0.1166  0.0368  1.4311
  287MOL0     H38736   2.369   1.631   5.561  2.9478 -1.8457  1.4058
  287MOL0     H38737   2.619   1.575   5.489  1.9557  0.8813 -1.7801
  287MOL0     H38738   2.561   1.612   5.328 -1.2137 -0.8130  0.1414
  287MOL0     H38739   2.425   1.398   5.345  0.3315  0.7661 -0.5596
  287MOL0     H38740   2.446   1.390   5.521 -0.0452  0.6063  0.1305
  287MOL0     H38741   2.606   1.230   5.423 -2.3209  0.7755  2.5039
  287MOL0     H38742   2.712   1.375   5.452 -0.0588 -0.1970  0.1805
  287MOL0     H38743   2.704   1.374   5.038 -1.3833  2.0556  0.5870
  287MOL0     H38744   2.198   1.829   5.171  0.2868 -0.9713 -0.1539
  287MOL0     H38745   2.043   2.022   5.198 -1.6844 -1.7296  1.0635
  288MOL0     O38746   6.265   3.864   7.559 -0.1639 -0.6027 -0.3820
  288MOL0     C38747   6.373   3.824   7.520 -0.4330 -0.0923  0.0745
  288MOL0     O38748   6.490   3.826   7.591 -0.5255  0.2645  0.4177
  288MOL0     C38749   6.515   3.891   7.701 -0.4780 -0.1047  0.1496
  288MOL0     C38750   6.419   3.950   7.787  0.1514  0.0019 -0.2072
  288MOL0     C38751   6.468   4.009   7.914 -0.9940 -0.0755  0.3281
  288MOL0     C38752   6.600   4.024   7.942  0.0136 -0.3662 -0.6624
  288MOL0     O38753   6.628   4.070   8.065 -0.1083 -0.7633 -0.2794
  288MOL0     C38754   6.745   4.015   8.131  0.3535 -0.1462  0.3970
  288MOL0     C38755   6.762   4.085   8.261  0.1041  0.7546  0.1964
  288MOL0     C38756   6.897   4.068   8.327  0.6103  0.8855  0.1343
  288MOL0     C38757   6.924   3.926   8.377  0.0098 -0.0397 -0.0984
  288MOL0     C38758   7.058   3.900   8.438 -0.1007 -0.1106 -0.3850
  288MOL0     C38759   7.059   3.769   8.525 -0.4952 -0.0557  0.1280
  288MOL0     C38760   7.208   3.728   8.545 -0.0780 -0.3108  0.3643
  288MOL0     C38761   7.285   3.827   8.630 -0.1454 -0.1777 -0.1812
  288MOL0     N38762   7.356   3.924   8.556 -0.9248  0.2674  0.4417
  288MOL0     C38763   7.326   4.053   8.537  0.1293 -0.1776 -0.2913
  288MOL0     C38764   7.426   4.107   8.476  0.2215  0.4827  0.4013
  288MOL0     C38765   7.432   4.245   8.399  0.5791 -0.1671 -0.2936
  288MOL0     C38766   7.549   4.337   8.438  0.3453  0.0900 -0.3231
  288MOL0     C38767   7.681   4.307   8.379  0.0455  0.2008 -0.4153
  288MOL0     C38768   7.685   4.271   8.228  0.2154 -0.5547 -0.3634
  288MOL0     O38769   7.616   4.378   8.153  0.2139  0.7213 -0.2773
  288MOL0     C38770   7.590   4.357   8.020 -0.2616 -0.3339  0.1421
  288MOL0     C38771   7.541   4.458   7.944  0.1740  1.6167  0.6807
  288MOL0     C38772   7.534   4.442   7.802  0.8384 -0.5639 -0.1564
  288MOL0     C38773   7.475   4.553   7.723  0.2784 -0.7441  0.9526
  288MOL0     C38774   7.576   4.319   7.740  0.8363  0.3194  0.5459
  288MOL0     C38775   7.582   4.283   7.598 -1.0929  0.1136 -0.5351
  288MOL0     O38776   7.549   4.390   7.516 -0.3296  0.3179 -0.4554
  288MOL0     C38777   7.535   4.365   7.381  0.7139 -0.7084 -1.0862
  288MOL0     C38778   7.419   4.418   7.338  0.1561 -0.8487 -0.3840
  288MOL0     C38779   7.384   4.405   7.202  0.1441 -0.1958  0.3611
  288MOL0     C38780   7.476   4.346   7.108 -0.1452  0.1657  0.6332
  288MOL0     O38781   7.452   4.340   6.971 -1.4685  0.0918  0.1736
  288MOL0     C38782   7.312   4.349   6.933 -0.4817 -0.3188  0.9402
  288MOL0     C38783   7.302   4.308   6.780  0.5700  0.1428  0.2558
  288MOL0     C38784   7.167   4.344   6.718 -0.0486  0.3967  0.6661
  288MOL0     C38785   7.170   4.329   6.558  0.1543  0.5417  0.5027
  288MOL0     C38786   7.078   4.437   6.504  0.7213  0.2952  0.2258
  288MOL0     C38787   7.056   4.411   6.359 -0.0511  0.0354 -0.4517
  288MOL0     C38788   6.969   4.288   6.316 -0.8180  0.5535  0.2166
  288MOL0     C38789   6.963   4.262   6.165  0.1228 -0.7765 -0.1141
  288MOL0    Cl38790   7.137   4.216   6.114 -0.3429 -0.0630  0.5030
  288MOL0     C38791   7.597   4.300   7.166  0.2032 -0.1509  0.1871
  288MOL0     C38792   7.634   4.311   7.301  0.2935  0.1900 -0.8630
  288MOL0     O38793   7.636   4.180   7.562  0.4158  0.6042 -0.4055
  288MOL0     C38794   7.600   4.206   7.830 -0.2215 -0.4696 -0.2011
  288MOL0     C38795   7.610   4.229   7.962  0.0783  1.0366 -0.0217
  288MOL0     N38796   7.526   4.011   8.451  0.0482 -0.1701  0.1404
  288MOL0     N38797   7.482   3.900   8.503 -0.2362  0.0722  0.5198
  288MOL0     C38798   6.692   3.951   7.861  0.4098 -0.2065  0.0617
  288MOL0     C38799   6.646   3.896   7.739  0.3895  0.2146 -0.4110
  288MOL0     C38800   6.374   3.761   7.384  1.0882 -1.6800 -0.4542
  288MOL0     C38801   6.257   3.734   7.311  0.8172  0.3966  0.5104
  288MOL0     C38802   6.249   3.680   7.182 -0.5207  0.4258 -0.7062
  288MOL0     C38803   6.365   3.638   7.120  0.1488 -0.3649  0.5118
  288MOL0     O38804   6.362   3.607   6.989 -0.3471  0.4074 -0.4176
  288MOL0     C38805   6.306   3.704   6.907  0.2457  0.0783 -0.6033
  288MOL0     C38806   6.342   3.664   6.771  0.1248  0.5587 -0.3098
  288MOL0     C38807   6.360   3.779   6.681  0.3164 -0.4068  0.0777
  288MOL0     C38808   6.236   3.860   6.659  0.1891 -0.9409  1.0749
  288MOL0     C38809   6.228   3.927   6.523 -0.1077  0.3181 -0.8786
  288MOL0     C38810   6.222   4.003   6.428  0.0700  0.1259 -0.3424
  288MOL0     C38811   6.487   3.654   7.190 -0.0740  0.4500 -0.1791
  288MOL0     C38812   6.497   3.716   7.315 -0.0606  0.0546  0.8621
  288MOL0     H38813   6.312   3.950   7.772  0.2406  1.1391 -0.9132
  288MOL0     H38814   6.395   4.047   7.985  1.1094  1.7785  1.6219
  288MOL0     H38815   6.730   3.909   8.152  0.0459 -0.2134 -0.1315
  288MOL0     H38816   6.838   4.044   8.082  1.9962 -2.6820  1.8069
  288MOL0     H38817   6.736   4.191   8.257  0.5229  0.9811  2.2723
  288MOL0     H38818   6.680   4.049   8.324 -0.4238 -0.0748 -0.9111
  288MOL0     H38819   6.987   4.099   8.273  1.7980 -0.9913  0.9092
  288MOL0     H38820   6.891   4.129   8.418 -0.3083 -0.9028  1.3254
  288MOL0     H38821   6.859   3.910   8.464  0.7517  2.9615  1.1454
  288MOL0     H38822   6.912   3.846   8.303 -1.0891 -1.9127  1.9912
  288MOL0     H38823   7.127   3.912   8.354 -0.3957 -1.0290 -0.7843
  288MOL0     H38824   7.078   3.976   8.514  2.9864  2.1702 -3.1873
  288MOL0     H38825   7.014   3.781   8.624  1.5363 -0.1688  1.1167
  288MOL0     H38826   7.004   3.691   8.473 -2.9918  0.1471  2.2878
  288MOL0     H38827   7.204   3.627   8.587  1.8456 -1.0584 -1.0679
  288MOL0     H38828   7.251   3.707   8.446  0.2771 -0.5894  0.5757
  288MOL0     H38829   7.362   3.773   8.686 -0.9364  0.8163  1.9891
  288MOL0     H38830   7.228   3.890   8.699  0.7398 -0.7955  1.1615
  288MOL0     H38831   7.233   4.106   8.556  0.9876  1.7050 -1.0515
  288MOL0     H38832   7.412   4.224   8.294 -3.1376 -0.5381  0.3327
  288MOL0     H38833   7.349   4.312   8.427  0.1189 -1.4979  1.7969
  288MOL0     H38834   7.553   4.343   8.547 -1.4197 -1.0119 -0.1524
  288MOL0     H38835   7.515   4.431   8.394 -1.5584 -1.1192 -1.6125
  288MOL0     H38836   7.721   4.225   8.440 -0.2602 -0.3660 -0.9637
  288MOL0     H38837   7.745   4.396   8.385  0.7740 -0.3807  0.8140
  288MOL0     H38838   7.630   4.177   8.222 -0.7145 -0.1292  0.9729
  288MOL0     H38839   7.789   4.253   8.198 -0.4081 -1.8975 -1.8087
  288MOL0     H38840   7.510   4.550   7.993  2.4205  2.7456  0.1457
  288MOL0     H38841   7.426   4.631   7.782  0.4620 -0.3544  0.5971
  288MOL0     H38842   7.546   4.598   7.653 -1.7124  0.0281 -0.6604
  288MOL0     H38843   7.397   4.507   7.661  0.7256  2.0778 -1.9698
  288MOL0     H38844   7.344   4.460   7.405 -1.7845  0.1452 -2.9964
  288MOL0     H38845   7.294   4.447   7.157 -1.4092 -2.0770  1.5386
  288MOL0     H38846   7.253   4.283   6.997 -1.5793 -0.0061  0.2881
  288MOL0     H38847   7.278   4.453   6.941 -1.1601 -0.2221 -1.8942
  288MOL0     H38848   7.382   4.359   6.726  2.0484 -0.5338  1.6963
  288MOL0     H38849   7.319   4.200   6.778 -2.5052 -0.4213 -0.2555
  288MOL0     H38850   7.137   4.447   6.737 -0.3298  0.5424 -0.4738
  288MOL0     H38851   7.087   4.283   6.760 -0.5401  0.5920  0.0346
  288MOL0     H38852   7.271   4.331   6.514 -0.4147 -0.2452 -0.9292
  288MOL0     H38853   7.139   4.225   6.541  2.8471 -0.7833  2.8695
  288MOL0     H38854   7.110   4.539   6.529 -1.8264  0.5833  2.8353
  288MOL0     H38855   6.980   4.427   6.551  0.1431  0.7525 -0.8522
  288MOL0     H38856   7.008   4.495   6.309  0.0263  0.5657  0.3435
  288MOL0     H38857   7.153   4.402   6.310 -0.7048  0.5570 -1.8836
  288MOL0     H38858   6.867   4.297   6.355  0.4327  2.2762  3.4905
  288MOL0     H38859   7.019   4.210   6.375  1.6945  2.2872  0.5377
  288MOL0     H38860   6.928   4.359   6.127  0.7989 -0.2305  0.6105
  288MOL0     H38861   6.894   4.181   6.142 -0.8266 -0.7259  2.2340
  288MOL0     H38862   7.662   4.243   7.101 -0.9516 -0.2445 -0.9226
  288MOL0     H38863   7.724   4.266   7.341 -0.3219  0.0745  0.4515
  288MOL0     H38864   7.610   4.106   7.790  3.6292  0.0992 -1.0523
  288MOL0     H38865   7.627   4.137   8.018 -2.5469  0.4506 -0.0486
  288MOL0     H38866   6.799   3.951   7.873  0.8256  2.2185 -2.4262
  288MOL0     H38867   6.726   3.863   7.674  1.7320  4.2834 -1.1086
  288MOL0     H38868   6.159   3.749   7.355  1.2464 -0.7081  1.9325
  288MOL0     H38869   6.156   3.672   7.126 -0.1424 -1.3444 -1.1553
  288MOL0     H38870   6.201   3.736   6.913 -0.8777 -3.3721  0.5327
  288MOL0     H38871   6.355   3.799   6.928 -3.3789  1.7886  1.0715
  288MOL0     H38872   6.264   3.602   6.725 -1.3714 -0.3169  3.0818
  288MOL0     H38873   6.437   3.611   6.758 -0.1265  0.6536 -3.2476
  288MOL0     H38874   6.396   3.735   6.587  0.6400  1.5213 -0.7600
  288MOL0     H38875   6.439   3.849   6.712 -0.4897  0.8280 -0.5599
  288MOL0     H38876   6.232   3.943   6.730  0.3408 -0.6208  0.7069
  288MOL0     H38877   6.146   3.797   6.658  1.4496 -2.8393 -0.7236
  288MOL0     H38878   6.233   4.065   6.341  1.9775  1.2295  0.6099
  288MOL0     H38879   6.577   3.634   7.133 -0.5338  0.2734 -0.8584
  288MOL0     H38880   6.592   3.736   7.363 -1.2944 -0.0116  3.5701
  289MOL0     O38881   5.938   7.717   6.880  0.1977  0.2074  0.0148
  289MOL0     C38882   6.023   7.724   6.793  0.1962 -0.3483 -0.6332
  289MOL0     O38883   6.040   7.828   6.709  0.3407 -0.0870 -0.4606
  289MOL0     C38884   5.958   7.941   6.700  0.6115  0.1634 -0.7636
  289MOL0     C38885   5.977   8.023   6.595 -0.0277 -0.0593 -0.1063
  289MOL0     C38886   5.903   8.137   6.559 -0.4623  1.1578  0.9135
  289MOL0     C38887   5.796   8.170   6.639 -1.3352  0.7617  0.2400
  289MOL0     O38888   5.701   8.260   6.595 -1.0836  0.2733 -0.8014
  289MOL0     C38889   5.654   8.363   6.691  0.6657  0.1225 -0.4112
  289MOL0     C38890   5.509   8.339   6.741  0.2428 -0.5406 -0.0630
  289MOL0     C38891   5.463   8.452   6.838  0.4733  0.2647 -0.5337
  289MOL0     C38892   5.439   8.580   6.765  0.8121  0.5433 -0.4010
  289MOL0     C38893   5.356   8.684   6.860  0.6600 -0.4280  0.3276
  289MOL0     C38894   5.340   8.802   6.769  0.6841  0.1937  0.0653
  289MOL0     C38895   5.243   8.901   6.841 -0.6532 -1.1178  0.4450
  289MOL0     C38896   5.196   9.024   6.759 -0.3316 -0.2426 -0.5918
  289MOL0     N38897   5.060   9.056   6.782  0.3095 -0.3528  1.3639
  289MOL0     C38898   4.951   8.987   6.734 -0.1684 -0.4053 -0.5950
  289MOL0     C38899   4.838   9.056   6.771  0.3692  0.1972  0.3855
  289MOL0     C38900   4.693   9.030   6.724  0.4307  0.1872 -0.8691
  289MOL0     C38901   4.599   9.151   6.753  0.6840 -0.8233  0.2235
  289MOL0     C38902   4.460   9.111   6.718 -0.3221  0.5704  0.4444
  289MOL0     C38903   4.428   9.059   6.578  0.0315 -0.4220  0.2800
  289MOL0     O38904   4.283   9.043   6.580 -0.6106 -0.5744 -0.5299
  289MOL0     C38905   4.229   9.026   6.451  0.4214  0.0999  0.2962
  289MOL0     C38906   4.084   8.991   6.446 -0.3386  0.3547 -0.1292
  289MOL0     C38907   4.020   8.966   6.323  0.8778  0.0354  0.7080
  289MOL0     C38908   3.875   8.907   6.335 -1.1357  0.9516 -0.0047
  289MOL0     C38909   4.092   8.984   6.201  0.9518  0.8420 -0.4201
  289MOL0     C38910   4.038   8.979   6.064  0.0632  0.3260  0.0101
  289MOL0     O38911   4.123   8.986   5.962  0.1916 -0.8782  0.0201
  289MOL0     C38912   4.080   9.053   5.841  0.9168  0.5874  0.0200
  289MOL0     C38913   4.160   9.006   5.730  0.2417 -1.0457 -0.3547
  289MOL0     C38914   4.149   9.064   5.604 -0.0098 -0.0733  0.6850
  289MOL0     C38915   4.049   9.158   5.572  0.2835  0.6426 -0.5994
  289MOL0     O38916   4.009   9.193   5.446 -0.5854  0.0929 -0.9047
  289MOL0     C38917   4.085   9.153   5.326  0.4367  1.0185  0.8280
  289MOL0     C38918   3.989   9.202   5.204  0.3465 -1.2268 -0.0012
  289MOL0     C38919   3.990   9.357   5.222 -0.9585  1.1779  0.4751
  289MOL0     C38920   3.889   9.410   5.129  0.1253  0.5022 -0.1889
  289MOL0     C38921   3.915   9.565   5.113 -0.0746 -0.0526  0.1329
  289MOL0     C38922   3.817   9.646   5.038  0.3036  0.2628  0.2091
  289MOL0     C38923   3.849   9.793   5.023  0.1720  0.7161  0.1512
  289MOL0     C38924   3.730   9.876   5.049  0.2181  0.2578 -1.2356
  289MOL0    Cl38925   3.628   9.863   4.905 -0.3335  0.4353  0.0970
  289MOL0     C38926   3.962   9.195   5.682 -0.3871 -0.0739  0.0674
  289MOL0     C38927   3.986   9.153   5.813  0.1917 -0.6280 -0.5264
  289MOL0     O38928   3.925   8.937   6.048  0.2951 -0.1373 -0.1670
  289MOL0     C38929   4.228   9.020   6.216 -0.1053  1.1544  0.2643
  289MOL0     C38930   4.293   9.042   6.332 -0.1767 -0.5882  0.1620
  289MOL0     N38931   4.884   9.151   6.866 -0.4694  0.0321  0.1215
  289MOL0     N38932   5.015   9.154   6.860  0.1714  0.3569 -0.1790
  289MOL0     C38933   5.773   8.092   6.757 -0.0130 -0.1045 -0.4201
  289MOL0     C38934   5.858   7.983   6.787  0.0786  0.5337 -1.7828
  289MOL0     C38935   6.120   7.618   6.778 -0.3207  0.2232 -1.0057
  289MOL0     C38936   6.217   7.616   6.678 -1.6127 -0.6984 -0.0651
  289MOL0     C38937   6.307   7.509   6.672  0.2260  0.0131  0.3429
  289MOL0     C38938   6.313   7.415   6.779 -0.2934  0.4432  0.4073
  289MOL0     O38939   6.411   7.322   6.797 -0.3299 -0.1218  0.2314
  289MOL0     C38940   6.519   7.323   6.699 -0.3651  0.4896  0.6187
  289MOL0     C38941   6.623   7.218   6.717  0.4050  0.1267 -0.4272
  289MOL0     C38942   6.581   7.080   6.708 -0.7292  0.5317  0.6194
  289MOL0     C38943   6.689   6.976   6.763 -0.5810 -0.0878 -0.0719
  289MOL0     C38944   6.797   6.953   6.667  0.2704  0.0694  0.8201
  289MOL0     C38945   6.903   6.942   6.599  0.6023  0.1096 -0.1703
  289MOL0     C38946   6.210   7.409   6.876  0.1395  0.9275 -0.0290
  289MOL0     C38947   6.117   7.513   6.872  0.1340 -0.0008 -0.9612
  289MOL0     H38948   6.065   7.997   6.537 -1.4506 -1.3183 -1.7973
  289MOL0     H38949   5.908   8.190   6.464 -2.7242  1.3626  0.8457
  289MOL0     H38950   5.727   8.374   6.773  0.1319 -2.8530  0.5822
  289MOL0     H38951   5.659   8.453   6.628  0.1186 -0.0702 -0.7326
  289MOL0     H38952   5.448   8.344   6.651  0.7021 -0.7737 -0.3877
  289MOL0     H38953   5.497   8.240   6.786 -1.7335 -1.3792 -2.2409
  289MOL0     H38954   5.371   8.417   6.886  1.3456  2.0177  2.8280
  289MOL0     H38955   5.530   8.478   6.921  0.3480  0.4116 -0.4755
  289MOL0     H38956   5.534   8.628   6.743  0.0669  2.3955  0.2212
  289MOL0     H38957   5.387   8.559   6.671 -1.1742 -1.1350  0.9551
  289MOL0     H38958   5.258   8.651   6.895  1.7663 -0.6840  3.5328
  289MOL0     H38959   5.414   8.727   6.942  1.6568  0.9741 -1.0511
  289MOL0     H38960   5.435   8.853   6.754  1.4430 -1.4126 -0.9553
  289MOL0     H38961   5.301   8.781   6.669  5.1748  0.8543 -2.0597
  289MOL0     H38962   5.148   8.858   6.874 -1.5903  1.0416  0.7999
  289MOL0     H38963   5.300   8.938   6.926 -0.3952  0.6680 -0.4345
  289MOL0     H38964   5.199   9.012   6.650 -2.7196  3.2519 -1.2113
  289MOL0     H38965   5.258   9.108   6.792 -1.5109  0.5339 -0.2843
  289MOL0     H38966   4.944   8.898   6.672 -2.2862 -1.0774  0.4795
  289MOL0     H38967   4.695   9.020   6.615 -0.5960 -1.5632 -0.7735
  289MOL0     H38968   4.645   8.941   6.767 -0.9454  1.6040  0.6507
  289MOL0     H38969   4.610   9.242   6.693 -3.9118  0.0704  0.4226
  289MOL0     H38970   4.618   9.181   6.856 -1.4507  1.3625  0.0596
  289MOL0     H38971   4.392   9.194   6.741  0.4222  1.2696  0.1808
  289MOL0     H38972   4.422   9.033   6.783  0.2294 -1.9741 -2.0982
  289MOL0     H38973   4.491   8.977   6.541  0.9634 -0.0862  1.0818
  289MOL0     H38974   4.451   9.144   6.512  2.7391  0.3116  2.0207
  289MOL0     H38975   4.031   8.978   6.540 -0.9500 -0.0776 -0.5249
  289MOL0     H38976   3.879   8.854   6.430 -0.1523  1.6926  0.3906
  289MOL0     H38977   3.796   8.980   6.352  0.1427  1.9973  1.8434
  289MOL0     H38978   3.839   8.843   6.254 -1.4074  3.0226 -1.5945
  289MOL0     H38979   4.246   8.941   5.744  0.4576 -0.6845  0.0198
  289MOL0     H38980   4.200   9.028   5.515 -1.5213 -0.3355 -0.1029
  289MOL0     H38981   4.181   9.206   5.327  2.0617 -1.2861 -3.8123
  289MOL0     H38982   4.099   9.046   5.306 -0.6334  1.3945 -2.4951
  289MOL0     H38983   4.015   9.186   5.099  0.7427  0.3106 -0.1720
  289MOL0     H38984   3.885   9.167   5.207  0.0864 -0.4181  1.4109
  289MOL0     H38985   4.089   9.389   5.188 -1.5130  0.7387 -1.7069
  289MOL0     H38986   3.967   9.394   5.322 -0.2181  1.2190  0.6372
  289MOL0     H38987   3.896   9.365   5.029 -0.1717  0.9222 -0.4026
  289MOL0     H38988   3.800   9.375   5.182 -0.8679 -0.0748 -2.1359
  289MOL0     H38989   4.011   9.587   5.066  1.1865 -3.0703  1.0292
  289MOL0     H38990   3.911   9.610   5.213 -1.4578  1.8929 -0.7415
  289MOL0     H38991   3.802   9.602   4.940  1.4181 -3.7494  1.6412
  289MOL0     H38992   3.719   9.629   5.084  1.3141 -3.1943  1.4003
  289MOL0     H38993   3.915   9.815   4.937 -0.0928  0.8691 -0.0152
  289MOL0     H38994   3.916   9.805   5.109 -1.3058  0.2894  1.3977
  289MOL0     H38995   3.772   9.977   5.052  1.8169 -0.3041  3.0904
  289MOL0     H38996   3.677   9.860   5.143 -0.7930  0.9911 -1.6656
  289MOL0     H38997   3.875   9.258   5.673 -2.4333 -2.6591  0.6297
  289MOL0     H38998   3.928   9.199   5.892  4.5050  0.7903  2.1512
  289MOL0     H38999   4.286   9.042   6.127  0.7737 -1.9898 -0.0649
  289MOL0     H39000   4.396   9.073   6.316 -0.9748  2.3230  0.1526
  289MOL0     H39001   5.695   8.125   6.824  0.8089 -1.5754  1.3562
  289MOL0     H39002   5.838   7.940   6.885  0.5239  1.9534 -1.0469
  289MOL0     H39003   6.216   7.686   6.595  2.4255  1.0988  1.1268
  289MOL0     H39004   6.366   7.494   6.582 -0.7566 -3.3928  0.1215
  289MOL0     H39005   6.481   7.309   6.597  0.4192  1.0477  0.2416
  289MOL0     H39006   6.560   7.424   6.696 -0.8020  0.6803  0.8738
  289MOL0     H39007   6.675   7.234   6.812 -1.6675 -0.7821  0.9235
  289MOL0     H39008   6.692   7.229   6.633 -0.8057 -2.6628 -1.9037
  289MOL0     H39009   6.555   7.059   6.604 -1.3535  2.6405  0.2902
  289MOL0     H39010   6.498   7.058   6.776 -2.4918 -3.9362 -2.5617
  289MOL0     H39011   6.653   6.884   6.810 -0.4288  1.0493  2.4792
  289MOL0     H39012   6.727   7.027   6.853 -3.1338  2.2791 -0.1985
  289MOL0     H39013   6.987   6.951   6.534  1.2255  1.7860  0.8165
  289MOL0     H39014   6.219   7.337   6.957  0.2856 -0.1664 -0.9941
  289MOL0     H39015   6.032   7.519   6.940  0.3046 -1.3085 -0.6015
  290MOL0     O39016  10.646   8.057   8.709  0.3307 -0.2924  0.5317
  290MOL0     C39017  10.729   8.118   8.640  0.6414 -0.9741  0.7257
  290MOL0     O39018  10.801   8.230   8.685 -0.2114  0.4087 -0.4308
  290MOL0     C39019  10.768   8.263   8.814 -0.2483  1.0023 -0.0547
  290MOL0     C39020  10.696   8.378   8.854  0.0089  1.2668  0.2604
  290MOL0     C39021  10.662   8.396   8.989  0.1230  0.6439  1.7114
  290MOL0     C39022  10.702   8.300   9.087  0.5360 -0.4781 -1.0756
  290MOL0     O39023  10.679   8.340   9.221  0.2523 -0.3167  0.1491
  290MOL0     C39024  10.587   8.243   9.287 -1.5874 -0.3032 -0.7775
  290MOL0     C39025  10.674   8.159   9.383  0.1321  0.9533 -0.5609
  290MOL0     C39026  10.588   8.129   9.513 -0.3500  0.7781 -0.3586
  290MOL0     C39027  10.489   8.015   9.484  0.4079  0.2609 -0.2974
  290MOL0     C39028  10.378   8.016   9.591 -0.6678 -0.1909  0.6503
  290MOL0     C39029  10.262   7.935   9.542 -0.2832 -0.4670  0.4274
  290MOL0     C39030  10.301   7.782   9.528 -0.4910  0.5298  0.5751
  290MOL0     C39031  10.185   7.679   9.503 -0.3470  0.3062 -0.6509
  290MOL0     N39032  10.130   7.685   9.369 -1.1726 -0.0894  0.3901
  290MOL0     C39033  10.175   7.628   9.249 -0.4148  1.0045  0.9408
  290MOL0     C39034  10.117   7.695   9.148  0.6900 -0.4494 -0.3061
  290MOL0     C39035  10.127   7.663   8.998  0.0439  0.5852  0.2732
  290MOL0     C39036  10.011   7.569   8.960  0.9616 -0.6228  0.4617
  290MOL0     C39037  10.034   7.492   8.827  0.5011 -0.6281  0.1827
  290MOL0     C39038   9.914   7.411   8.794 -0.4864 -1.4307  0.1077
  290MOL0     O39039   9.885   7.295   8.877 -0.8627 -0.5439 -0.7284
  290MOL0     C39040   9.972   7.187   8.867 -0.8952  0.3185  0.0212
  290MOL0     C39041   9.960   7.081   8.957 -0.8961 -0.3010 -0.1152
  290MOL0     C39042  10.051   6.975   8.968  0.5074 -0.6563  0.1297
  290MOL0     C39043  10.044   6.882   9.082  0.6637 -0.3870  0.1702
  290MOL0     C39044  10.155   6.969   8.871  0.1489 -0.7263  0.3674
  290MOL0     C39045  10.260   6.867   8.860 -0.9633  0.0578  0.5873
  290MOL0     O39046  10.366   6.907   8.789  0.0071  0.0734  0.5639
  290MOL0     C39047  10.448   6.813   8.736  1.1286  0.2461 -0.8211
  290MOL0     C39048  10.402   6.775   8.610  0.7407 -0.0118  0.1057
  290MOL0     C39049  10.483   6.695   8.528  0.4263 -0.0405  0.0394
  290MOL0     C39050  10.599   6.631   8.581  0.0977  0.2857 -0.7869
  290MOL0     O39051  10.680   6.566   8.486  0.3273  0.6047 -0.8131
  290MOL0     C39052  10.800   6.503   8.534  0.9504  0.2595  0.4347
  290MOL0     C39053  10.787   6.371   8.600  0.0417 -0.3175 -0.5528
  290MOL0     C39054  10.919   6.292   8.596  0.3570 -0.1112 -0.0784
  290MOL0     C39055  10.923   6.180   8.712 -0.4302 -0.1383 -0.4592
  290MOL0     C39056  10.890   6.234   8.853 -0.4026 -0.1134  0.2056
  290MOL0     C39057  10.979   6.356   8.896 -0.1394 -0.0557 -0.5908
  290MOL0     C39058  10.931   6.432   9.013 -0.3888 -0.2040  0.8913
  290MOL0     C39059  10.930   6.350   9.140 -0.7282 -0.4551 -0.0839
  290MOL0    Cl39060  10.764   6.329   9.194 -0.2025  0.3258  0.0442
  290MOL0     C39061  10.638   6.657   8.715  0.3986 -0.2142 -0.6749
  290MOL0     C39062  10.565   6.750   8.794  0.8488 -0.0211  0.4215
  290MOL0     O39063  10.250   6.759   8.917 -0.3991  0.2721  0.5303
  290MOL0     C39064  10.157   7.072   8.771 -0.2448  0.6996 -0.7416
  290MOL0     C39065  10.068   7.174   8.765  0.5917 -0.2843  0.6797
  290MOL0     N39066  10.039   7.792   9.201 -0.0430 -0.8016  0.4654
  290MOL0     N39067  10.058   7.784   9.323  0.8031 -0.3505  0.2406
  290MOL0     C39068  10.762   8.178   9.049 -0.3134 -0.2430  0.8600
  290MOL0     C39069  10.803   8.163   8.915  0.1402 -0.8253 -0.4767
  290MOL0     C39070  10.770   8.067   8.506  1.4219  0.8381 -1.0356
  290MOL0     C39071  10.692   7.972   8.446 -0.0550  0.7897  0.0917
  290MOL0     C39072  10.746   7.923   8.322  0.4879 -0.1945 -0.1756
  290MOL0     C39073  10.869   7.957   8.273 -0.6180 -1.8541  0.2018
  290MOL0     O39074  10.929   7.887   8.167 -0.4597 -0.9575  0.6238
  290MOL0     C39075  11.063   7.926   8.114 -0.0381 -0.2542  0.5220
  290MOL0     C39076  11.123   7.820   8.018 -0.8007 -0.4990  0.4865
  290MOL0     C39077  11.269   7.855   7.957 -0.0416  0.6664 -0.0245
  290MOL0     C39078  11.335   7.742   7.876  0.5036 -0.0243  0.0284
  290MOL0     C39079  11.303   7.613   7.937  0.7978  0.4144 -0.0992
  290MOL0     C39080  11.277   7.509   7.992 -0.2637 -1.0448  0.5947
  290MOL0     C39081  10.949   8.046   8.345  0.3117  0.2340 -1.0642
  290MOL0     C39082  10.894   8.109   8.458 -0.2081  0.1320 -0.2013
  290MOL0     H39083  10.655   8.438   8.774 -1.7467 -1.6730 -1.1845
  290MOL0     H39084  10.594   8.478   9.009 -0.7474  0.2399  0.5757
  290MOL0     H39085  10.514   8.301   9.344 -1.4055 -0.6869 -0.1531
  290MOL0     H39086  10.548   8.183   9.204 -0.1332 -1.7280 -0.4977
  290MOL0     H39087  10.712   8.074   9.326 -1.8869 -0.8437  0.6323
  290MOL0     H39088  10.761   8.215   9.418  1.0959 -0.9688  0.2885
  290MOL0     H39089  10.651   8.087   9.592  0.0483 -1.6291 -1.8508
  290MOL0     H39090  10.538   8.223   9.537  0.6457  1.1423  0.3599
  290MOL0     H39091  10.438   8.030   9.389 -1.5228  1.9438  0.9260
  290MOL0     H39092  10.542   7.920   9.471 -0.3436 -0.0727 -0.9642
  290MOL0     H39093  10.423   7.983   9.685  1.6697  1.3753  0.1803
  290MOL0     H39094  10.340   8.119   9.591  1.2916  0.6194 -1.1792
  290MOL0     H39095  10.183   7.952   9.615 -0.2380  2.6579 -0.1071
  290MOL0     H39096  10.234   7.981   9.447  1.4943 -0.0333  0.0707
  290MOL0     H39097  10.369   7.768   9.443 -0.3875 -0.4621  0.8003
  290MOL0     H39098  10.354   7.750   9.618 -0.0960  0.9320  0.4861
  290MOL0     H39099  10.108   7.698   9.578  0.3282 -4.6051  1.6617
  290MOL0     H39100  10.213   7.574   9.520  0.3950  0.6978  0.6993
  290MOL0     H39101  10.236   7.538   9.244 -1.2806  0.3876  1.2722
  290MOL0     H39102  10.129   7.756   8.941 -2.7978  0.2358 -0.5685
  290MOL0     H39103  10.225   7.626   8.967 -0.3523  0.4600 -0.9124
  290MOL0     H39104   9.930   7.639   8.939  0.1874 -1.5921  0.1148
  290MOL0     H39105   9.980   7.505   9.043 -0.3644 -2.1521 -1.1311
  290MOL0     H39106  10.117   7.422   8.814 -1.6998 -3.0194 -2.4386
  290MOL0     H39107  10.053   7.568   8.751  1.6702  0.4703  1.5288
  290MOL0     H39108   9.915   7.392   8.686 -2.3085  0.3590 -0.2800
  290MOL0     H39109   9.827   7.475   8.806 -1.6004 -2.7369 -0.7060
  290MOL0     H39110   9.874   7.075   9.022 -0.8205  2.3169  0.3190
  290MOL0     H39111   9.971   6.914   9.157  0.8329 -2.4867  1.2893
  290MOL0     H39112  10.019   6.782   9.048  1.6745 -0.7436  0.4213
  290MOL0     H39113  10.139   6.896   9.136  2.3456  2.2767 -3.0756
  290MOL0     H39114  10.314   6.822   8.567  1.6302  0.1134 -1.6889
  290MOL0     H39115  10.452   6.678   8.425  1.4510  1.2620 -0.5196
  290MOL0     H39116  10.865   6.487   8.447  1.3106 -1.5153  0.9876
  290MOL0     H39117  10.848   6.569   8.606  0.7823  0.5773  0.2584
  290MOL0     H39118  10.743   6.391   8.698  0.4059  1.2961 -0.6826
  290MOL0     H39119  10.713   6.317   8.541  1.1130 -1.8609 -0.5570
  290MOL0     H39120  11.004   6.358   8.614 -1.6160  1.8434  3.1400
  290MOL0     H39121  10.928   6.246   8.497 -0.4150  4.9289 -2.8607
  290MOL0     H39122  10.844   6.108   8.688 -0.4646 -0.9093  1.7317
  290MOL0     H39123  11.026   6.143   8.711  0.4756  2.0418  1.8158
  290MOL0     H39124  10.896   6.155   8.929  2.9418  1.6453  2.0383
  290MOL0     H39125  10.789   6.276   8.860 -0.2092  0.4233 -0.1528
  290MOL0     H39126  11.082   6.323   8.917 -0.1039 -0.2497 -1.0645
  290MOL0     H39127  10.978   6.427   8.814  0.0840 -0.8311 -1.2787
  290MOL0     H39128  10.833   6.468   8.981 -0.4704 -1.9300 -1.0830
  290MOL0     H39129  10.997   6.517   9.032  1.5180 -1.4867  0.2687
  290MOL0     H39130  10.988   6.399   9.220 -0.1597  0.5288 -1.0698
  290MOL0     H39131  10.988   6.258   9.130 -0.8056 -0.5574  0.3665
  290MOL0     H39132  10.718   6.612   8.772 -1.6598  1.7162  4.3580
  290MOL0     H39133  10.585   6.759   8.900 -1.5626 -2.2601  1.1858
  290MOL0     H39134  10.239   7.053   8.703 -0.1401 -3.4852  0.3154
  290MOL0     H39135  10.085   7.256   8.697  0.0947 -1.6057 -1.1164
  290MOL0     H39136  10.800   8.111   9.126  3.0493  0.9997  0.4366
  290MOL0     H39137  10.847   8.066   8.892  0.1521 -0.5193 -1.8181
  290MOL0     H39138  10.601   7.931   8.486  2.2354 -3.7591  1.3530
  290MOL0     H39139  10.691   7.841   8.276 -1.1474  0.1354  1.0814
  290MOL0     H39140  11.052   8.027   8.075 -0.1492 -0.4565  0.0226
  290MOL0     H39141  11.136   7.934   8.196  1.2827  0.1796 -0.6647
  290MOL0     H39142  11.055   7.813   7.932 -1.0999 -0.1944  0.6981
  290MOL0     H39143  11.122   7.729   8.078 -0.8994 -0.5031  0.4786
  290MOL0     H39144  11.337   7.877   8.040  0.1057 -1.8391  0.5890
  290MOL0     H39145  11.239   7.944   7.901 -1.9586 -0.6180 -1.1400
  290MOL0     H39146  11.443   7.752   7.858  0.7965 -1.0581  1.1160
  290MOL0     H39147  11.273   7.748   7.787  1.1471  1.1958 -0.3638
  290MOL0     H39148  11.251   7.419   8.043  0.3948 -1.4218  0.2791
  290MOL0     H39149  11.052   8.072   8.323  1.3456 -0.3687  2.3528
  290MOL0     H39150  10.957   8.173   8.520 -0.5698 -0.5954  0.9485
  291MOL0     O39151   4.158  10.493   6.519  0.0732 -0.0572 -0.1244
  291MOL0     C39152   4.218  10.450   6.619 -0.2499  0.4961  0.1157
  291MOL0     O39153   4.211  10.315   6.656 -1.0441 -0.0199 -0.0572
  291MOL0     C39154   4.131  10.233   6.594 -0.5006  1.2906 -0.3523
  291MOL0     C39155   4.190  10.109   6.552 -0.2101 -0.7384  0.1186
  291MOL0     C39156   4.118  10.003   6.492 -0.8769 -0.8219 -0.1328
  291MOL0     C39157   3.981  10.032   6.457  0.5302  0.2231  0.4810
  291MOL0     O39158   3.888   9.950   6.386  0.2811 -0.0358 -0.8718
  291MOL0     C39159   3.935   9.818   6.353 -0.1407 -0.8546 -0.2157
  291MOL0     C39160   3.807   9.724   6.327 -0.2719 -0.1831 -0.1273
  291MOL0     C39161   3.732   9.708   6.468  0.1540  0.0788 -0.0750
  291MOL0     C39162   3.628   9.603   6.475  0.0074  0.2733  0.4371
  291MOL0     C39163   3.499   9.627   6.402  1.0421 -0.4536  0.9509
  291MOL0     C39164   3.425   9.740   6.484  0.6432 -1.0082 -0.2960
  291MOL0     C39165   3.311   9.794   6.396  0.9429 -0.7546 -0.1539
  291MOL0     C39166   3.197   9.696   6.389 -0.2120  0.0997  0.0048
  291MOL0     N39167   3.155   9.644   6.520 -0.4584 -0.2073  0.3725
  291MOL0     C39168   3.155   9.514   6.562 -0.9337 -0.5132 -0.0731
  291MOL0     C39169   3.075   9.508   6.676 -0.2001 -0.1364  0.6055
  291MOL0     C39170   3.048   9.392   6.769 -0.6560 -0.7256  0.1855
  291MOL0     C39171   3.077   9.432   6.914  0.9748 -0.0493  0.6284
  291MOL0     C39172   2.968   9.503   7.000  0.3150  0.3520 -0.3254
  291MOL0     C39173   2.886   9.417   7.094  1.1718 -0.2502 -0.5873
  291MOL0     O39174   2.805   9.312   7.034 -0.6710  0.0371  0.9397
  291MOL0     C39175   2.721   9.241   7.110  0.0971  0.9039 -0.2205
  291MOL0     C39176   2.604   9.216   7.044 -0.5119 -0.0932 -0.3336
  291MOL0     C39177   2.487   9.174   7.113  1.0360 -0.6761 -0.0585
  291MOL0     C39178   2.371   9.145   7.036  0.0724  0.7358 -0.7847
  291MOL0     C39179   2.485   9.163   7.256 -0.4641  0.0997  0.3508
  291MOL0     C39180   2.364   9.127   7.341 -0.2162  0.8464  0.4051
  291MOL0     O39181   2.391   9.093   7.474  0.1557  0.0302  0.3901
  291MOL0     C39182   2.294   9.029   7.547 -0.0119 -0.5255 -0.4269
  291MOL0     C39183   2.263   8.893   7.529  0.0087 -0.3052 -0.5789
  291MOL0     C39184   2.181   8.828   7.624  0.2242  0.9676 -0.7818
  291MOL0     C39185   2.104   8.895   7.721 -0.2410  0.0380 -1.0431
  291MOL0     O39186   2.021   8.821   7.802  0.4491  0.1174 -0.0005
  291MOL0     C39187   1.971   8.882   7.921 -0.7663 -0.8063 -0.4370
  291MOL0     C39188   1.895   8.789   8.003  1.3180 -0.0360 -0.5157
  291MOL0     C39189   1.769   8.720   7.933 -0.0187 -1.1018 -0.4453
  291MOL0     C39190   1.705   8.619   8.034 -1.0785  0.8189  0.1680
  291MOL0     C39191   1.570   8.589   7.973 -0.0322  0.6347  0.2926
  291MOL0     C39192   1.453   8.594   8.074  0.5214 -0.5663  0.1351
  291MOL0     C39193   1.443   8.734   8.132  0.7779 -0.3941 -0.0667
  291MOL0     C39194   1.447   8.723   8.285 -0.1059 -0.5568 -0.7883
  291MOL0    Cl39195   1.322   8.605   8.358 -0.0739  0.3256 -0.2591
  291MOL0     C39196   2.140   9.030   7.746 -0.0321  1.2616 -0.0884
  291MOL0     C39197   2.227   9.092   7.653 -0.1435 -0.1809  0.2968
  291MOL0     O39198   2.254   9.113   7.288 -0.8125  0.0339  0.5581
  291MOL0     C39199   2.614   9.189   7.322 -0.4872 -0.1657  0.7175
  291MOL0     C39200   2.731   9.227   7.248 -0.4587 -0.2662 -0.8132
  291MOL0     N39201   3.027   9.636   6.692 -0.4944  0.5933  0.1239
  291MOL0     N39202   3.079   9.716   6.604  0.2990 -0.8720  0.1868
  291MOL0     C39203   3.925  10.164   6.498 -0.1158  0.2235 -0.9236
  291MOL0     C39204   3.995  10.252   6.577 -0.7746  0.1290  0.7646
  291MOL0     C39205   4.293  10.538   6.703 -0.3054  0.1585  0.1253
  291MOL0     C39206   4.312  10.678   6.667  0.5832  0.2011 -0.0366
  291MOL0     C39207   4.401  10.757   6.736  0.5318 -0.6122 -0.0562
  291MOL0     C39208   4.463  10.708   6.855  0.5588  0.4450  0.8563
  291MOL0     O39209   4.535  10.800   6.933  0.3761 -0.1538 -0.7865
  291MOL0     C39210   4.559  10.762   7.073  0.3427 -0.7088  0.6188
  291MOL0     C39211   4.651  10.870   7.132 -0.0353  0.7186  0.3053
  291MOL0     C39212   4.798  10.843   7.100 -0.0653  0.1666 -0.4196
  291MOL0     C39213   4.891  10.929   7.195 -0.3652 -0.2379  1.3573
  291MOL0     C39214   5.013  10.960   7.115 -0.5384 -0.9255  0.0009
  291MOL0     C39215   5.119  10.982   7.060 -0.2426  0.2949 -0.1474
  291MOL0     C39216   4.432  10.567   6.896  0.3544 -0.6651 -1.1839
  291MOL0     C39217   4.351  10.493   6.826 -0.4017  0.0193 -0.2824
  291MOL0     H39218   4.296  10.099   6.574  0.6760  1.8113 -2.3869
  291MOL0     H39219   4.174   9.910   6.484  1.8577  0.6767  0.4180
  291MOL0     H39220   4.000   9.833   6.266  1.1691  2.9384  1.1902
  291MOL0     H39221   3.990   9.780   6.439 -1.4338 -0.6850  0.7086
  291MOL0     H39222   3.737   9.753   6.248 -1.1423  0.1326  0.7404
  291MOL0     H39223   3.839   9.627   6.290  0.7852  0.0192  0.2301
  291MOL0     H39224   3.819   9.683   6.530  1.4866  0.2692 -1.8245
  291MOL0     H39225   3.694   9.806   6.496  3.0243  1.2158  0.1981
  291MOL0     H39226   3.665   9.510   6.430 -0.3401  0.4335 -0.1941
  291MOL0     H39227   3.622   9.585   6.582  0.6387  3.1367  1.0516
  291MOL0     H39228   3.519   9.665   6.302 -1.8501  0.1351  0.5164
  291MOL0     H39229   3.443   9.534   6.394  3.9089 -2.1111 -1.7839
  291MOL0     H39230   3.396   9.698   6.581  0.6985  1.8137  1.0169
  291MOL0     H39231   3.490   9.824   6.511  0.5041 -0.4632 -1.6016
  291MOL0     H39232   3.270   9.884   6.442 -1.6032 -2.7527  1.8362
  291MOL0     H39233   3.345   9.822   6.296 -1.7584 -0.4375 -1.0884
  291MOL0     H39234   3.236   9.622   6.319  3.8010  0.9719  1.0741
  291MOL0     H39235   3.104   9.726   6.340 -1.7214 -1.2357  1.8866
  291MOL0     H39236   3.212   9.436   6.511 -0.4264 -0.2214  0.0530
  291MOL0     H39237   2.943   9.362   6.775 -1.3516  1.7905  4.2965
  291MOL0     H39238   3.109   9.307   6.737  0.4737  0.5733 -1.3287
  291MOL0     H39239   3.167   9.494   6.917 -0.7519  2.8048 -0.9333
  291MOL0     H39240   3.089   9.340   6.971 -1.8360 -0.4102  0.7795
  291MOL0     H39241   2.896   9.561   6.942  1.4987  1.9370 -0.2666
  291MOL0     H39242   3.015   9.573   7.070  0.7797 -0.3123  0.0448
  291MOL0     H39243   2.829   9.489   7.153  1.4399 -1.6966  1.5413
  291MOL0     H39244   2.951   9.376   7.172 -0.6666 -0.6475  0.7980
  291MOL0     H39245   2.608   9.223   6.936 -1.6556 -2.0214 -0.5509
  291MOL0     H39246   2.384   9.162   6.929 -2.0472  1.1595 -1.0235
  291MOL0     H39247   2.346   9.039   7.044 -0.0123  0.8147  0.0134
  291MOL0     H39248   2.288   9.211   7.061 -0.4918  0.1851 -1.1825
  291MOL0     H39249   2.295   8.840   7.440  2.1192  1.0715 -0.7278
  291MOL0     H39250   2.157   8.723   7.624 -1.5787  1.3284 -2.0783
  291MOL0     H39251   2.047   8.934   7.980  1.4240 -0.9386 -2.9427
  291MOL0     H39252   1.907   8.966   7.894  1.4038  0.1697 -2.9386
  291MOL0     H39253   1.964   8.708   8.029 -0.0272 -0.3346  2.5314
  291MOL0     H39254   1.868   8.833   8.100  1.9812 -0.2483 -0.2257
  291MOL0     H39255   1.800   8.658   7.849 -1.8291 -0.9736 -1.2509
  291MOL0     H39256   1.702   8.805   7.914  1.6233 -0.0578 -1.9034
  291MOL0     H39257   1.759   8.525   8.045 -1.3273  0.6402 -0.1328
  291MOL0     H39258   1.699   8.673   8.130  1.6237 -0.2802  1.0403
  291MOL0     H39259   1.582   8.484   7.943  0.0593  0.7294 -0.0087
  291MOL0     H39260   1.546   8.633   7.876 -0.7003  1.0948  0.6583
  291MOL0     H39261   1.358   8.566   8.027  0.9962 -0.7041 -0.7634
  291MOL0     H39262   1.466   8.517   8.151  0.5250  1.2785  2.0694
  291MOL0     H39263   1.340   8.762   8.104  0.9226 -2.4352 -3.0790
  291MOL0     H39264   1.505   8.812   8.088 -1.0663  1.5299  0.5424
  291MOL0     H39265   1.427   8.824   8.324 -0.3055 -0.1931 -1.8015
  291MOL0     H39266   1.545   8.679   8.305 -0.1985 -0.9660 -1.2467
  291MOL0     H39267   2.114   9.087   7.835 -2.3105  3.8567 -2.2110
  291MOL0     H39268   2.249   9.196   7.674 -1.7331  0.5004 -1.1521
  291MOL0     H39269   2.625   9.188   7.430  2.5945 -1.6405  0.5037
  291MOL0     H39270   2.819   9.256   7.305  0.0630 -0.2765 -1.5969
  291MOL0     H39271   3.819  10.174   6.475  0.2357  0.8590 -2.3897
  291MOL0     H39272   3.951  10.349   6.597  0.7006  1.1340 -0.6427
  291MOL0     H39273   4.268  10.734   6.586  1.2826 -0.0200 -0.5774
  291MOL0     H39274   4.417  10.864   6.724 -1.1630 -0.3351 -0.0569
  291MOL0     H39275   4.463  10.749   7.124  1.1981  2.7471  3.5442
  291MOL0     H39276   4.613  10.668   7.083 -1.3544 -2.0772 -2.1247
  291MOL0     H39277   4.647  10.867   7.241 -2.7999 -1.1763  0.2462
  291MOL0     H39278   4.622  10.972   7.106  0.7957  1.2866  1.5042
  291MOL0     H39279   4.828  10.842   6.995  0.6421 -0.1333 -0.2168
  291MOL0     H39280   4.816  10.739   7.128 -2.4190 -0.3195 -0.4539
  291MOL0     H39281   4.917  10.885   7.291  1.4127  0.0772  1.0590
  291MOL0     H39282   4.841  11.024   7.220  0.6783  0.5203  0.6730
  291MOL0     H39283   5.203  11.006   6.997  0.9010 -0.1466  1.1641
  291MOL0     H39284   4.467  10.517   6.985 -3.6322 -2.6294 -0.4727
  291MOL0     H39285   4.330  10.391   6.856  1.4962  0.3948  2.7216
  292MOL0     O39286  11.356   6.426   1.987  0.2537 -0.2215  0.0460
  292MOL0     C39287  11.423   6.430   2.092  0.5415  0.5445 -0.3697
  292MOL0     O39288  11.451   6.547   2.155 -0.0480 -0.0177  0.6822
  292MOL0     C39289  11.384   6.653   2.116 -1.0693  0.0973 -0.3415
  292MOL0     C39290  11.254   6.687   2.158  0.3482 -0.0791 -0.3333
  292MOL0     C39291  11.206   6.817   2.122  0.5506 -0.3092  0.1834
  292MOL0     C39292  11.270   6.909   2.029 -0.4068 -1.1601 -0.3921
  292MOL0     O39293  11.220   7.018   1.962 -0.0024  0.5576 -0.4523
  292MOL0     C39294  11.087   7.057   2.002  0.0894  0.1154 -0.1389
  292MOL0     C39295  11.061   7.207   1.956 -0.3535 -0.1840 -0.6871
  292MOL0     C39296  11.171   7.301   2.001  0.3807  0.5649  0.4070
  292MOL0     C39297  11.122   7.446   1.973  0.7296 -0.3064 -0.0698
  292MOL0     C39298  11.192   7.559   2.044  0.5535 -0.6115  0.4419
  292MOL0     C39299  11.345   7.561   2.017  0.0083  0.5512  0.1333
  292MOL0     C39300  11.415   7.692   2.046 -0.5868  0.0903 -0.1295
  292MOL0     C39301  11.566   7.703   2.006 -0.8277  0.0132 -0.0323
  292MOL0     N39302  11.655   7.611   2.074  0.2517  0.3655  1.0040
  292MOL0     C39303  11.695   7.625   2.202  0.2589 -0.0146  0.7563
  292MOL0     C39304  11.757   7.511   2.246  0.7084  0.6597  0.4717
  292MOL0     C39305  11.789   7.474   2.390 -0.1160 -0.1252 -0.9635
  292MOL0     C39306  11.925   7.531   2.444  0.8794  0.6317  0.7295
  292MOL0     C39307  11.917   7.673   2.481 -0.1305  0.7149 -0.9310
  292MOL0     C39308  12.055   7.745   2.520  0.1133 -0.2911 -0.7762
  292MOL0     O39309  12.164   7.704   2.437 -0.5322 -0.6668 -0.6504
  292MOL0     C39310  12.282   7.665   2.504  1.0078 -0.8536 -0.1066
  292MOL0     C39311  12.350   7.741   2.599 -1.3103  0.7909  0.0623
  292MOL0     C39312  12.467   7.699   2.664  0.1620  0.4084 -0.0079
  292MOL0     C39313  12.537   7.813   2.735 -0.2703 -0.1997 -1.1016
  292MOL0     C39314  12.523   7.571   2.644 -0.8858  0.6100 -1.0277
  292MOL0     C39315  12.641   7.508   2.715 -0.4416 -0.3671  0.0186
  292MOL0     O39316  12.684   7.381   2.683  0.0334 -0.0303 -0.4412
  292MOL0     C39317  12.804   7.332   2.724 -0.5475  0.3085 -0.7285
  292MOL0     C39318  12.812   7.230   2.815  0.1500 -0.1665 -1.1736
  292MOL0     C39319  12.932   7.167   2.855  0.2763  0.2199  0.2894
  292MOL0     C39320  13.054   7.220   2.805 -0.0503  0.3284 -0.6730
  292MOL0     O39321  13.169   7.142   2.835 -0.1542 -0.4829  0.0559
  292MOL0     C39322  13.294   7.169   2.769  0.0483 -1.0119 -0.0785
  292MOL0     C39323  13.308   7.142   2.621  1.6241 -0.0422  0.0419
  292MOL0     C39324  13.441   7.165   2.561 -0.2038  0.9988 -0.0823
  292MOL0     C39325  13.487   7.307   2.560  0.0643 -0.5148  0.2602
  292MOL0     C39326  13.637   7.317   2.520  0.0755  0.0517 -0.8656
  292MOL0     C39327  13.663   7.256   2.378  0.0934  0.2061  1.2683
  292MOL0     C39328  13.790   7.320   2.310 -0.2428  0.2367 -0.4601
  292MOL0     C39329  13.841   7.264   2.173  0.0375 -0.0106  0.5499
  292MOL0    Cl39330  13.995   7.341   2.123 -0.1364 -0.0274 -0.4504
  292MOL0     C39331  13.051   7.336   2.722 -0.3935 -0.0707 -0.1116
  292MOL0     C39332  12.931   7.383   2.685  1.0700  0.1398  1.3314
  292MOL0     O39333  12.714   7.575   2.783 -0.1854 -0.1125  1.3658
  292MOL0     C39334  12.463   7.495   2.546 -0.0010  0.5017 -0.1278
  292MOL0     C39335  12.344   7.545   2.480 -0.0225 -0.6261 -0.9903
  292MOL0     N39336  11.762   7.436   2.124 -0.1203 -0.1190 -0.2696
  292MOL0     N39337  11.700   7.495   2.024 -0.1326 -0.1468  1.2644
  292MOL0     C39338  11.390   6.860   1.988 -0.1270 -1.0159 -0.1489
  292MOL0     C39339  11.454   6.745   2.040  0.4094  0.1922  0.0188
  292MOL0     C39340  11.490   6.308   2.138 -0.4226 -0.0239  0.2898
  292MOL0     C39341  11.495   6.190   2.059  0.9386 -0.5335 -0.6106
  292MOL0     C39342  11.551   6.068   2.098  0.4876 -1.3882 -0.1735
  292MOL0     C39343  11.591   6.055   2.230 -0.0271  0.1475  0.3391
  292MOL0     O39344  11.634   5.927   2.282  0.1210 -0.0650  0.1376
  292MOL0     C39345  11.663   5.916   2.423 -0.0701  0.3857 -0.2502
  292MOL0     C39346  11.806   5.948   2.451 -0.0506 -0.4909  0.7583
  292MOL0     C39347  11.840   6.009   2.596 -0.5439 -0.1734 -0.3891
  292MOL0     C39348  11.839   5.906   2.704  0.1290  0.0700  0.3176
  292MOL0     C39349  11.917   5.786   2.669 -0.0495 -0.0902  0.0865
  292MOL0     C39350  11.991   5.697   2.636  0.0042  0.3544 -0.5095
  292MOL0     C39351  11.611   6.177   2.309  0.2682  0.7261 -0.9239
  292MOL0     C39352  11.559   6.300   2.264 -0.4907 -0.5383  0.3546
  292MOL0     H39353  11.185   6.631   2.220  0.3396  1.0834  0.7471
  292MOL0     H39354  11.108   6.844   2.159  0.4961 -1.5546  1.0288
  292MOL0     H39355  11.009   6.987   1.972 -2.0689  2.0675  0.6181
  292MOL0     H39356  11.081   7.062   2.111  1.6286 -2.2468  0.1261
  292MOL0     H39357  11.057   7.208   1.846 -4.0648  0.2329 -0.6615
  292MOL0     H39358  10.965   7.245   1.991  1.8547  2.3824  3.2523
  292MOL0     H39359  11.184   7.288   2.109  0.0177 -1.0020  0.2844
  292MOL0     H39360  11.264   7.280   1.948 -1.4691 -1.5642 -2.2476
  292MOL0     H39361  11.138   7.468   1.867  3.7148 -2.6271 -0.2111
  292MOL0     H39362  11.019   7.465   2.003  1.2951  3.2187  0.0495
  292MOL0     H39363  11.147   7.656   2.022 -2.1074 -1.7530  0.4534
  292MOL0     H39364  11.179   7.541   2.151  0.1447 -4.6636 -0.1286
  292MOL0     H39365  11.404   7.486   2.070 -0.0841  0.2997 -0.1220
  292MOL0     H39366  11.352   7.538   1.911  0.1065  1.3296 -0.0313
  292MOL0     H39367  11.353   7.772   2.005  0.9004  1.1677 -0.3592
  292MOL0     H39368  11.416   7.706   2.155  2.8890 -0.1413 -0.0182
  292MOL0     H39369  11.589   7.808   2.026  0.9296 -0.8872  3.4486
  292MOL0     H39370  11.559   7.678   1.900 -3.6995  0.9373 -0.1487
  292MOL0     H39371  11.663   7.710   2.262  0.6000  0.8770 -0.2884
  292MOL0     H39372  11.704   7.517   2.445 -0.0150  0.0371 -0.9338
  292MOL0     H39373  11.783   7.365   2.399  0.1052 -0.1050 -0.5074
  292MOL0     H39374  12.001   7.529   2.365 -2.0713 -1.1787 -2.2970
  292MOL0     H39375  11.957   7.464   2.525  0.3799  0.7342  1.0140
  292MOL0     H39376  11.854   7.691   2.569  1.9844  1.0317  0.6195
  292MOL0     H39377  11.871   7.729   2.400  0.9451  0.4554 -1.7505
  292MOL0     H39378  12.080   7.719   2.624 -0.2102 -1.5425 -0.9978
  292MOL0     H39379  12.044   7.853   2.515 -0.1446 -0.2518  0.3708
  292MOL0     H39380  12.314   7.842   2.616  2.3850  2.7518 -2.3516
  292MOL0     H39381  12.613   7.849   2.665 -1.3755 -0.5321 -2.5291
  292MOL0     H39382  12.466   7.894   2.752 -3.1768 -3.3348  6.1331
  292MOL0     H39383  12.564   7.804   2.841 -1.2732  2.5046 -0.5436
  292MOL0     H39384  12.719   7.206   2.867 -0.0131 -0.2205 -1.4905
  292MOL0     H39385  12.926   7.079   2.917 -0.5037 -2.1654 -2.9065
  292MOL0     H39386  13.316   7.275   2.786 -1.5957 -0.6205 -0.1959
  292MOL0     H39387  13.369   7.109   2.821  0.7304 -0.8352 -0.8491
  292MOL0     H39388  13.290   7.035   2.606 -3.2460  0.3258  1.6120
  292MOL0     H39389  13.233   7.206   2.572  1.8611  0.6348  0.5512
  292MOL0     H39390  13.432   7.119   2.463 -1.4081  1.0644 -0.0254
  292MOL0     H39391  13.505   7.114   2.634 -0.3271  2.1645  0.8761
  292MOL0     H39392  13.430   7.369   2.490  1.2236  1.6962  1.1844
  292MOL0     H39393  13.469   7.349   2.659  1.6458 -1.6031  1.0561
  292MOL0     H39394  13.695   7.261   2.594  1.6912  1.7402 -0.7767
  292MOL0     H39395  13.689   7.413   2.526 -0.4244  0.2816 -0.0170
  292MOL0     H39396  13.668   7.147   2.380 -2.6719 -0.0786 -1.0327
  292MOL0     H39397  13.580   7.283   2.312 -0.7130 -2.0088  1.2997
  292MOL0     H39398  13.868   7.323   2.386 -1.2527 -1.7114  0.7388
  292MOL0     H39399  13.764   7.424   2.287 -1.2582 -0.1779 -1.2991
  292MOL0     H39400  13.758   7.278   2.103 -0.0191  2.4154  1.0036
  292MOL0     H39401  13.855   7.158   2.195 -2.3524 -0.7677 -1.2259
  292MOL0     H39402  13.138   7.385   2.677 -1.4601  1.1258 -0.9387
  292MOL0     H39403  12.935   7.465   2.614 -3.1152  1.5804  2.4650
  292MOL0     H39404  12.494   7.394   2.520 -1.6815 -0.7231  2.2248
  292MOL0     H39405  12.277   7.494   2.411 -3.5568  1.2362  0.7494
  292MOL0     H39406  11.447   6.923   1.919  4.1134  2.3074  5.4747
  292MOL0     H39407  11.548   6.727   1.987 -0.9319 -2.7105 -1.6140
  292MOL0     H39408  11.456   6.200   1.958 -0.9749  0.0733  0.1549
  292MOL0     H39409  11.555   5.978   2.038 -2.3603 -1.6269 -0.1125
  292MOL0     H39410  11.604   5.980   2.489  0.3693  1.5320 -0.9258
  292MOL0     H39411  11.634   5.820   2.466  0.6394  1.4496  2.9224
  292MOL0     H39412  11.846   6.027   2.386 -0.9858  0.2021  0.9990
  292MOL0     H39413  11.872   5.864   2.428 -0.2943 -0.3814 -0.3998
  292MOL0     H39414  11.779   6.096   2.623 -0.4585  0.4911 -2.1945
  292MOL0     H39415  11.944   6.043   2.592 -1.6654  3.6724 -0.7411
  292MOL0     H39416  11.745   5.854   2.723  1.8372 -2.3797  2.9601
  292MOL0     H39417  11.880   5.948   2.796  0.0928 -0.5704  0.6339
  292MOL0     H39418  12.053   5.618   2.599  1.4539  0.4646  1.4883
  292MOL0     H39419  11.665   6.195   2.401 -1.4982 -1.3164  0.6050
  292MOL0     H39420  11.566   6.384   2.332  1.0216 -0.4492  0.1343
  293MOL0     O39421   6.262   1.482   2.259  0.7468  0.0873 -0.0347
  293MOL0     C39422   6.269   1.450   2.140 -0.3393  0.2507  0.3402
  293MOL0     O39423   6.374   1.384   2.080 -0.0382 -0.2083  0.2093
  293MOL0     C39424   6.505   1.371   2.134 -0.2317 -0.9379 -0.2577
  293MOL0     C39425   6.586   1.262   2.108  0.5427  0.4824  0.5289
  293MOL0     C39426   6.716   1.254   2.152 -0.4414  0.2052 -0.1109
  293MOL0     C39427   6.761   1.346   2.245 -0.6258 -0.3870  0.2293
  293MOL0     O39428   6.874   1.340   2.322 -0.4505  0.4616  0.9374
  293MOL0     C39429   6.984   1.255   2.281 -0.7514 -0.2684 -0.3423
  293MOL0     C39430   7.057   1.296   2.155  0.2481 -0.0813 -0.0951
  293MOL0     C39431   7.135   1.184   2.094  0.3006 -0.2137 -0.5824
  293MOL0     C39432   7.241   1.117   2.172 -0.2255  0.2184 -0.8535
  293MOL0     C39433   7.386   1.186   2.163  0.4996  0.0152  0.7492
  293MOL0     C39434   7.492   1.074   2.182  1.5032  1.0903  0.2417
  293MOL0     C39435   7.631   1.135   2.195  0.8069  0.2114 -0.0228
  293MOL0     C39436   7.685   1.198   2.066  0.6573  0.0662 -0.2548
  293MOL0     N39437   7.709   1.097   1.975  0.7118  1.2473  0.7640
  293MOL0     C39438   7.800   0.999   1.988 -0.5053  0.0768  0.2837
  293MOL0     C39439   7.816   0.937   1.866  0.2413 -0.6165 -0.8827
  293MOL0     C39440   7.915   0.834   1.832  0.2045 -0.0288  0.5440
  293MOL0     C39441   7.865   0.724   1.733 -0.2055  0.6840  0.2023
  293MOL0     C39442   7.755   0.640   1.794  0.6576  0.3004 -0.9036
  293MOL0     C39443   7.715   0.521   1.705  1.0628  0.0852  0.6452
  293MOL0     O39444   7.659   0.411   1.777 -0.5237 -0.0524  0.0242
  293MOL0     C39445   7.528   0.423   1.822 -0.3920  0.0461 -0.3109
  293MOL0     C39446   7.436   0.527   1.806 -0.3548 -0.0551 -0.1286
  293MOL0     C39447   7.312   0.535   1.864 -0.2814 -0.7525  0.2211
  293MOL0     C39448   7.230   0.663   1.830  0.7936  0.0100 -0.4574
  293MOL0     C39449   7.277   0.427   1.942  0.4048  0.5068 -0.3795
  293MOL0     C39450   7.144   0.423   2.005 -1.0402  0.4349  0.4733
  293MOL0     O39451   7.110   0.293   2.036  0.4925 -0.3457 -0.4168
  293MOL0     C39452   6.981   0.267   2.065  1.3086  0.4694  0.1235
  293MOL0     C39453   6.927   0.324   2.177  0.2619 -0.0923  0.1528
  293MOL0     C39454   6.783   0.323   2.192 -0.6597 -0.0150  0.5922
  293MOL0     C39455   6.702   0.256   2.091  1.0359 -0.3666 -0.5385
  293MOL0     O39456   6.570   0.256   2.100  0.5559  1.1794 -0.4483
  293MOL0     C39457   6.493   0.319   2.201 -0.3506  0.1962 -0.3085
  293MOL0     C39458   6.344   0.311   2.170  0.5783 -0.3656  0.6377
  293MOL0     C39459   6.262   0.409   2.252  0.9008  0.2790 -0.8877
  293MOL0     C39460   6.112   0.411   2.229 -0.1006  1.0930 -0.4683
  293MOL0     C39461   6.018   0.310   2.300 -0.1768 -0.7870  0.1379
  293MOL0     C39462   5.883   0.295   2.236  0.3324  0.3724  1.1062
  293MOL0     C39463   5.805   0.422   2.216  0.8751 -0.9459  0.4854
  293MOL0     C39464   5.778   0.508   2.343  0.1389  0.9824 -0.0110
  293MOL0    Cl39465   5.694   0.662   2.290 -0.4327 -0.1442  0.1726
  293MOL0     C39466   6.763   0.186   1.992 -1.2429  0.3905  0.2108
  293MOL0     C39467   6.903   0.192   1.981 -0.3577  1.0065  0.0047
  293MOL0     O39468   7.078   0.525   2.012  0.7350  0.7277  0.9112
  293MOL0     C39469   7.371   0.317   1.965  0.1786 -0.1174 -0.4975
  293MOL0     C39470   7.490   0.324   1.901 -0.0884 -0.3220 -0.0602
  293MOL0     N39471   7.712   0.990   1.789 -0.1274 -0.0084 -0.1240
  293MOL0     N39472   7.656   1.090   1.846 -0.5077  0.8531 -0.8629
  293MOL0     C39473   6.678   1.455   2.271  0.1487  0.2112 -0.5314
  293MOL0     C39474   6.555   1.473   2.210  0.3383  0.2367 -0.5673
  293MOL0     C39475   6.153   1.481   2.059 -0.5744  0.4964  0.6316
  293MOL0     C39476   6.046   1.558   2.090 -0.4647  0.2654  0.0995
  293MOL0     C39477   5.937   1.584   2.010 -0.5089  0.5282  0.4560
  293MOL0     C39478   5.941   1.532   1.881 -0.0097 -0.0964  0.5017
  293MOL0     O39479   5.840   1.533   1.785  0.1535 -0.4679  1.0597
  293MOL0     C39480   5.713   1.568   1.818  0.4746 -0.7692 -0.1810
  293MOL0     C39481   5.672   1.688   1.729  0.1210  0.2161 -0.1532
  293MOL0     C39482   5.523   1.727   1.747  1.2803  0.2537 -0.4669
  293MOL0     C39483   5.491   1.840   1.847  0.4677  0.8100  0.7538
  293MOL0     C39484   5.357   1.896   1.828 -0.2644 -0.1022  0.2064
  293MOL0     C39485   5.241   1.934   1.810 -0.0695  0.5383 -0.5843
  293MOL0     C39486   6.054   1.457   1.842 -0.4980 -0.4662  0.4884
  293MOL0     C39487   6.157   1.427   1.934 -0.1817  0.4498 -0.7912
  293MOL0     H39488   6.544   1.177   2.055 -2.2401  0.1883  2.9501
  293MOL0     H39489   6.779   1.167   2.135  1.0442  0.3130  3.7708
  293MOL0     H39490   7.060   1.273   2.357 -2.7292  2.6878  1.1290
  293MOL0     H39491   6.959   1.150   2.296 -0.2688 -0.6684 -2.0522
  293MOL0     H39492   6.981   1.325   2.082 -1.5970 -2.8551  0.5761
  293MOL0     H39493   7.120   1.385   2.169 -1.7068  2.1778 -4.0765
  293MOL0     H39494   7.070   1.112   2.043  0.9795 -0.7179 -0.7433
  293MOL0     H39495   7.177   1.229   2.003 -2.1782  2.6506 -0.4881
  293MOL0     H39496   7.220   1.112   2.279  1.8014 -1.3062 -0.4755
  293MOL0     H39497   7.257   1.015   2.134 -0.7645 -0.7403  1.3487
  293MOL0     H39498   7.395   1.243   2.070 -1.6380 -1.6857 -0.5973
  293MOL0     H39499   7.390   1.254   2.248 -2.8598 -1.0859  1.9379
  293MOL0     H39500   7.471   1.020   2.275  0.0142 -1.1408 -1.2854
  293MOL0     H39501   7.500   0.999   2.103  3.2889  1.7466 -0.2423
  293MOL0     H39502   7.632   1.214   2.270 -0.2855 -0.2064  0.4558
  293MOL0     H39503   7.697   1.062   2.242 -1.6008 -2.1420 -0.0049
  293MOL0     H39504   7.782   1.245   2.087  2.4220 -2.6451 -1.7158
  293MOL0     H39505   7.622   1.279   2.028 -0.1178  0.2226  1.2946
  293MOL0     H39506   7.863   0.989   2.075 -1.5873 -0.5890  1.0184
  293MOL0     H39507   8.002   0.880   1.784  1.7271 -3.1232  0.0706
  293MOL0     H39508   7.942   0.776   1.921 -0.3098 -1.0835  0.0371
  293MOL0     H39509   7.951   0.661   1.709  0.7163  1.0614  2.3090
  293MOL0     H39510   7.834   0.791   1.652 -2.1828  0.2928  0.5989
  293MOL0     H39511   7.669   0.692   1.837 -0.4230 -3.1973  1.6547
  293MOL0     H39512   7.809   0.599   1.880  2.2698  1.9911 -1.0591
  293MOL0     H39513   7.795   0.493   1.635 -0.1506  1.7138 -1.5146
  293MOL0     H39514   7.637   0.557   1.637 -0.7780 -0.0734  2.5548
  293MOL0     H39515   7.461   0.611   1.742 -3.0346  0.4039 -0.6913
  293MOL0     H39516   7.131   0.635   1.794 -0.5805  2.7634  0.9571
  293MOL0     H39517   7.229   0.727   1.919  1.1257 -1.5596  0.7301
  293MOL0     H39518   7.276   0.715   1.745 -2.4826  1.2395 -1.6367
  293MOL0     H39519   6.996   0.368   2.248  0.5344  0.7653 -0.6321
  293MOL0     H39520   6.730   0.391   2.259  0.3699 -0.0564  1.4665
  293MOL0     H39521   6.518   0.265   2.293 -0.6811 -0.3830 -0.5535
  293MOL0     H39522   6.527   0.423   2.209  3.6355 -0.9343 -0.4635
  293MOL0     H39523   6.334   0.331   2.063  1.4613 -1.8959  0.2349
  293MOL0     H39524   6.302   0.211   2.182 -0.5670  0.0999  0.6044
  293MOL0     H39525   6.293   0.513   2.238 -2.9907  1.7328  0.0876
  293MOL0     H39526   6.279   0.381   2.356  1.3149 -1.6745 -1.4366
  293MOL0     H39527   6.075   0.513   2.244  0.8464  1.4535 -0.5600
  293MOL0     H39528   6.096   0.396   2.121 -1.3721  4.5805 -0.8798
  293MOL0     H39529   5.990   0.354   2.396 -4.6093  1.1162 -1.7581
  293MOL0     H39530   6.058   0.208   2.302 -0.3177 -0.8787 -1.0125
  293MOL0     H39531   5.903   0.253   2.137  3.8260 -2.1690  2.6843
  293MOL0     H39532   5.825   0.223   2.295  1.7421 -0.8978  0.9978
  293MOL0     H39533   5.704   0.399   2.180  0.5797  1.7500 -0.6651
  293MOL0     H39534   5.854   0.493   2.149  0.2076 -1.8800 -1.0328
  293MOL0     H39535   5.869   0.535   2.398 -0.0890  2.2840 -0.2405
  293MOL0     H39536   5.707   0.449   2.402  1.1697 -2.3597 -1.8262
  293MOL0     H39537   6.707   0.118   1.929 -2.2469 -0.1348  1.6098
  293MOL0     H39538   6.963   0.150   1.901 -0.8636  1.0601 -0.4064
  293MOL0     H39539   7.352   0.235   2.034 -0.4619 -1.6504 -2.4234
  293MOL0     H39540   7.568   0.249   1.913  1.1597  1.0734  0.7887
  293MOL0     H39541   6.726   1.527   2.336  0.0828  2.0424 -2.4008
  293MOL0     H39542   6.491   1.559   2.229 -1.8408 -1.6351  1.0681
  293MOL0     H39543   6.050   1.599   2.191 -0.1728  0.5257 -0.0171
  293MOL0     H39544   5.851   1.633   2.054 -0.3901  0.2080  1.0451
  293MOL0     H39545   5.650   1.479   1.813 -1.0044 -0.3783  5.1889
  293MOL0     H39546   5.692   1.591   1.923 -2.8891 -0.6462 -0.7851
  293MOL0     H39547   5.682   1.657   1.624 -0.6758 -1.8713  0.3354
  293MOL0     H39548   5.730   1.778   1.751 -0.3503  0.4696  0.0676
  293MOL0     H39549   5.466   1.638   1.774  0.0599  1.7981  2.5441
  293MOL0     H39550   5.476   1.759   1.653 -0.4144  1.2980  0.6945
  293MOL0     H39551   5.572   1.914   1.839  1.3048 -0.1682 -0.1454
  293MOL0     H39552   5.492   1.801   1.949  0.5089 -0.0053  0.4471
  293MOL0     H39553   5.142   1.974   1.795 -0.0050 -0.0536 -2.9924
  293MOL0     H39554   6.072   1.428   1.740  1.4110 -1.2674  1.0121
  293MOL0     H39555   6.253   1.383   1.910  1.2962  1.1505  3.1413
  294MOL0     O39556   6.178   1.613   4.412 -0.1015 -0.2716  0.1015
  294MOL0     C39557   6.098   1.546   4.466  0.0570  0.0585  0.3373
  294MOL0     O39558   6.128   1.472   4.579 -0.3462 -0.5557 -0.4305
  294MOL0     C39559   6.259   1.436   4.618 -0.6187  0.5593 -0.0415
  294MOL0     C39560   6.380   1.449   4.536  0.3466 -0.1709 -0.4359
  294MOL0     C39561   6.511   1.413   4.577  0.1534 -0.1499 -0.5388
  294MOL0     C39562   6.517   1.367   4.710 -1.2807  1.1171 -0.2310
  294MOL0     O39563   6.635   1.327   4.763  0.2724 -0.2003  0.8545
  294MOL0     C39564   6.640   1.276   4.895  0.1771  0.2431  0.2249
  294MOL0     C39565   6.774   1.233   4.944 -0.1955 -0.5915 -0.7503
  294MOL0     C39566   6.865   1.357   4.922 -0.0373  0.2017 -0.7185
  294MOL0     C39567   7.002   1.354   4.990 -0.4271 -0.0030 -0.6668
  294MOL0     C39568   7.001   1.347   5.141  0.0270 -0.0643  0.0108
  294MOL0     C39569   7.133   1.368   5.196  0.0144  0.2333  0.8444
  294MOL0     C39570   7.133   1.380   5.349  0.0156  0.1206 -0.1313
  294MOL0     C39571   7.263   1.333   5.405  0.4051 -0.5513  0.3240
  294MOL0     N39572   7.281   1.400   5.538 -0.0730  1.4529  0.9663
  294MOL0     C39573   7.342   1.515   5.563 -0.1359 -0.5759 -0.0373
  294MOL0     C39574   7.325   1.545   5.697 -0.0097  0.1601  0.4565
  294MOL0     C39575   7.370   1.668   5.784 -0.2762 -0.0093 -0.4371
  294MOL0     C39576   7.289   1.793   5.747  0.9956  0.7629 -0.3970
  294MOL0     C39577   7.138   1.784   5.790  0.3199 -0.6136  0.2871
  294MOL0     C39578   7.046   1.826   5.674 -0.0199 -0.2452 -0.0816
  294MOL0     O39579   7.068   1.731   5.559 -0.0258 -0.7780 -0.2089
  294MOL0     C39580   6.955   1.681   5.505 -0.1069 -0.3131 -0.4155
  294MOL0     C39581   6.904   1.559   5.543  0.2986  0.1274  0.9483
  294MOL0     C39582   6.790   1.503   5.471  0.5853 -0.8496  0.7974
  294MOL0     C39583   6.743   1.376   5.535 -0.1048  0.8051  0.1240
  294MOL0     C39584   6.734   1.574   5.367  1.1799 -0.4571  0.2515
  294MOL0     C39585   6.616   1.524   5.292  0.0273  0.2679 -0.3280
  294MOL0     O39586   6.504   1.597   5.324  0.4385  0.4413  0.3642
  294MOL0     C39587   6.392   1.590   5.245  0.8689 -0.7584 -0.7292
  294MOL0     C39588   6.382   1.606   5.102 -0.4685  0.4919 -0.5696
  294MOL0     C39589   6.255   1.605   5.032  0.1880 -1.0774 -0.1962
  294MOL0     C39590   6.136   1.587   5.112 -0.6916  0.5130  1.2324
  294MOL0     O39591   6.005   1.596   5.059  0.2692  1.1319  0.7129
  294MOL0     C39592   5.977   1.659   4.938  0.8107 -0.9194  0.5038
  294MOL0     C39593   5.827   1.677   4.908  0.5513 -0.2203  0.4355
  294MOL0     C39594   5.752   1.543   4.895 -0.5014  0.2565 -0.2590
  294MOL0     C39595   5.611   1.556   4.840 -0.1074 -1.2016 -0.6778
  294MOL0     C39596   5.523   1.671   4.903 -0.0082 -0.3198  0.2449
  294MOL0     C39597   5.378   1.653   4.857 -0.3262  0.3017  0.0938
  294MOL0     C39598   5.296   1.772   4.901 -0.8080  0.9090 -0.0692
  294MOL0     C39599   5.149   1.730   4.912 -0.1588 -0.2146  0.0520
  294MOL0    Cl39600   5.080   1.620   4.790 -0.3240 -0.1631 -0.1131
  294MOL0     C39601   6.145   1.571   5.246 -0.4952 -0.2332  0.8441
  294MOL0     C39602   6.268   1.566   5.312 -0.3117  0.4373 -0.1309
  294MOL0     O39603   6.612   1.415   5.226  1.1477  0.2043  0.0877
  294MOL0     C39604   6.786   1.697   5.343 -0.3780 -0.7005  0.1477
  294MOL0     C39605   6.896   1.749   5.403  0.4435  0.4974 -0.2976
  294MOL0     N39606   7.262   1.427   5.751  0.7038 -0.0929  0.6003
  294MOL0     N39607   7.236   1.344   5.652  0.2512  0.5360  0.0693
  294MOL0     C39608   6.405   1.367   4.794  0.0973  0.2264  0.8394
  294MOL0     C39609   6.274   1.383   4.745 -0.1623 -0.2840 -0.1106
  294MOL0     C39610   5.959   1.562   4.429  0.3844 -0.0906  0.0938
  294MOL0     C39611   5.871   1.455   4.433  0.1044  0.5238 -0.6419
  294MOL0     C39612   5.740   1.465   4.403  0.7015  0.2230  0.2871
  294MOL0     C39613   5.685   1.589   4.370 -0.2249  0.3443  1.2589
  294MOL0     O39614   5.544   1.608   4.357 -0.2142 -0.6875  0.7467
  294MOL0     C39615   5.457   1.512   4.405  0.0740  0.0328 -0.6484
  294MOL0     C39616   5.311   1.573   4.419  0.2041  0.3463  0.6400
  294MOL0     C39617   5.193   1.477   4.471  0.3156 -0.0090 -0.5077
  294MOL0     C39618   5.156   1.359   4.374  0.4918 -0.1414 -0.0198
  294MOL0     C39619   5.250   1.246   4.385 -0.5913  0.8843 -0.2270
  294MOL0     C39620   5.342   1.161   4.412  0.5773 -0.1196  0.4263
  294MOL0     C39621   5.774   1.700   4.364 -0.1908 -0.0353  1.1309
  294MOL0     C39622   5.905   1.688   4.389 -0.4018 -0.3006  0.3933
  294MOL0     H39623   6.359   1.489   4.437 -2.1547  0.7859  0.4021
  294MOL0     H39624   6.597   1.393   4.515  0.6880 -0.5815  0.3273
  294MOL0     H39625   6.609   1.352   4.967  0.3159  1.0024 -0.5025
  294MOL0     H39626   6.566   1.196   4.905 -3.0970  2.8753 -1.0842
  294MOL0     H39627   6.751   1.215   5.049 -3.8891 -1.2232 -1.5287
  294MOL0     H39628   6.806   1.146   4.886  0.8830  0.7783 -2.2867
  294MOL0     H39629   6.884   1.382   4.818 -0.3391 -0.2959 -0.8959
  294MOL0     H39630   6.820   1.444   4.971  0.4168  1.1507 -1.9436
  294MOL0     H39631   7.064   1.270   4.958 -0.3828 -1.3801  2.6543
  294MOL0     H39632   7.050   1.447   4.957  2.0960 -1.1780 -0.5346
  294MOL0     H39633   6.934   1.423   5.183 -3.2085 -2.2876 -0.7332
  294MOL0     H39634   6.959   1.251   5.173  0.5292 -0.9123 -1.7833
  294MOL0     H39635   7.188   1.282   5.158 -1.6978 -0.0240 -1.2734
  294MOL0     H39636   7.185   1.451   5.147  0.4747  0.6451  1.9851
  294MOL0     H39637   7.121   1.486   5.372  0.3753  0.4906 -1.5774
  294MOL0     H39638   7.045   1.329   5.390  1.5764 -0.6355  2.5485
  294MOL0     H39639   7.350   1.359   5.344  0.2331  3.2698  1.4121
  294MOL0     H39640   7.259   1.225   5.417 -0.9833 -0.4898  0.6251
  294MOL0     H39641   7.386   1.578   5.486  0.2723 -0.6902  0.0984
  294MOL0     H39642   7.360   1.641   5.889  3.3316  3.8579  1.1966
  294MOL0     H39643   7.475   1.690   5.761  0.3550 -1.4290  0.8889
  294MOL0     H39644   7.298   1.799   5.639 -0.1893  1.8526 -0.4577
  294MOL0     H39645   7.330   1.883   5.795 -0.0663  1.7865 -1.3699
  294MOL0     H39646   7.122   1.864   5.863 -2.6697 -0.3792 -0.5187
  294MOL0     H39647   7.120   1.688   5.838 -1.5172 -0.6341 -0.3549
  294MOL0     H39648   7.074   1.926   5.641  2.7610 -0.3583  1.5973
  294MOL0     H39649   6.943   1.819   5.709 -0.0058 -4.2932 -0.4226
  294MOL0     H39650   6.954   1.497   5.617 -0.3605 -3.3747 -1.3274
  294MOL0     H39651   6.832   1.315   5.518 -0.5091 -0.2620  1.6066
  294MOL0     H39652   6.719   1.380   5.641  1.5551  0.3432  0.5437
  294MOL0     H39653   6.663   1.320   5.484  0.6190 -0.9818  0.8710
  294MOL0     H39654   6.482   1.620   5.062  1.6571 -1.1735  3.5567
  294MOL0     H39655   6.262   1.625   4.926  0.5530 -0.1928 -0.0147
  294MOL0     H39656   6.017   1.761   4.947 -1.5756 -0.0723  3.1628
  294MOL0     H39657   6.027   1.611   4.853  0.0216  1.1303 -1.2216
  294MOL0     H39658   5.794   1.745   4.987  0.3888 -0.7606  0.8364
  294MOL0     H39659   5.825   1.733   4.814  1.5327 -4.8955 -2.7014
  294MOL0     H39660   5.738   1.493   4.991  2.3675 -0.1925  0.0109
  294MOL0     H39661   5.799   1.484   4.816 -0.1146  0.4279 -0.1624
  294MOL0     H39662   5.614   1.585   4.735 -3.2541 -3.2005 -1.4812
  294MOL0     H39663   5.557   1.461   4.847  0.2600 -1.3097  1.5516
  294MOL0     H39664   5.568   1.768   4.881  0.9972 -0.4206  1.6973
  294MOL0     H39665   5.516   1.663   5.012  2.0320 -1.8136  0.3261
  294MOL0     H39666   5.384   1.655   4.748  1.0039  2.2154  0.1593
  294MOL0     H39667   5.338   1.559   4.896 -1.4850  0.3452 -0.9271
  294MOL0     H39668   5.303   1.856   4.831 -0.6465  1.9138  1.0993
  294MOL0     H39669   5.340   1.809   4.994 -0.4868  1.7883 -0.5527
  294MOL0     H39670   5.096   1.826   4.913  2.1865  1.1592  1.4593
  294MOL0     H39671   5.132   1.685   5.010  1.6806  2.5806  1.8135
  294MOL0     H39672   6.049   1.555   5.295 -1.0309 -1.8389 -0.6262
  294MOL0     H39673   6.281   1.536   5.415 -1.7731 -1.7265 -0.5166
  294MOL0     H39674   6.728   1.758   5.275 -0.7647  1.5222  2.3284
  294MOL0     H39675   6.938   1.847   5.385 -0.9155  1.0083 -0.8399
  294MOL0     H39676   6.412   1.361   4.902 -0.6605  5.2948  1.3757
  294MOL0     H39677   6.188   1.380   4.812 -1.8961  1.7231 -2.0651
  294MOL0     H39678   5.905   1.358   4.466  3.3869  1.5242 -0.6952
  294MOL0     H39679   5.669   1.383   4.407  0.1539  0.6986  0.4366
  294MOL0     H39680   5.441   1.424   4.342 -0.8584 -1.1072  1.0903
  294MOL0     H39681   5.493   1.470   4.499  1.7140 -1.1742 -1.7697
  294MOL0     H39682   5.288   1.617   4.322  2.8296 -1.4750 -0.9279
  294MOL0     H39683   5.302   1.664   4.479 -1.0003 -0.3016  1.4630
  294MOL0     H39684   5.103   1.532   4.501 -1.3192 -3.0383  0.6026
  294MOL0     H39685   5.234   1.437   4.565 -2.1886 -0.7217  0.3653
  294MOL0     H39686   5.165   1.403   4.274 -2.2154  0.6049 -0.0085
  294MOL0     H39687   5.057   1.314   4.382  0.9458 -0.9875  1.0841
  294MOL0     H39688   5.425   1.094   4.409 -0.1839 -1.0714  0.0511
  294MOL0     H39689   5.727   1.794   4.337 -1.1913  0.0610  3.0213
  294MOL0     H39690   5.964   1.779   4.392 -0.0254 -0.5033 -0.5225
  295MOL0     O39691   7.328   9.493   5.587 -0.4623 -0.5035  0.1627
  295MOL0     C39692   7.306   9.372   5.568 -0.5988 -0.6484 -1.0179
  295MOL0     O39693   7.226   9.294   5.651  0.4829 -0.4813  0.6843
  295MOL0     C39694   7.184   9.314   5.780  0.9898 -0.1829  0.3502
  295MOL0     C39695   7.248   9.409   5.871 -0.7838  0.2693 -0.9722
  295MOL0     C39696   7.227   9.409   6.012 -0.8847 -0.1895 -0.3918
  295MOL0     C39697   7.139   9.312   6.057 -0.4281  0.4103  0.1082
  295MOL0     O39698   7.114   9.297   6.193 -0.6301 -0.0908  0.1486
  295MOL0     C39699   7.159   9.397   6.287 -0.8850  0.4208  0.5538
  295MOL0     C39700   7.125   9.358   6.423 -0.1119 -0.5750  0.0379
  295MOL0     C39701   7.187   9.232   6.473 -0.5615  0.6600  1.0549
  295MOL0     C39702   7.127   9.191   6.602  0.3962 -0.7072  0.0678
  295MOL0     C39703   7.212   9.068   6.646  1.7202  0.0924 -0.6654
  295MOL0     C39704   7.133   8.990   6.759  0.1750  0.0917  0.1705
  295MOL0     C39705   6.982   8.974   6.735 -1.1697 -0.1141  0.8860
  295MOL0     C39706   6.898   8.886   6.824  1.0501 -0.2832 -0.0311
  295MOL0     N39707   6.923   8.746   6.799 -0.0484 -0.0678  0.7492
  295MOL0     C39708   6.850   8.677   6.702 -1.2199 -0.2993 -0.0398
  295MOL0     C39709   6.922   8.561   6.701 -0.3984  0.3305  0.6183
  295MOL0     C39710   6.899   8.445   6.604 -0.3335 -0.0936 -0.9796
  295MOL0     C39711   6.757   8.396   6.591  0.7195  0.1485 -0.4859
  295MOL0     C39712   6.755   8.286   6.483  0.2952 -0.7786 -0.5054
  295MOL0     C39713   6.616   8.272   6.423 -0.9531  0.3511 -0.1770
  295MOL0     O39714   6.648   8.161   6.334 -0.2872  0.3887  0.0211
  295MOL0     C39715   6.546   8.098   6.261  0.6647 -0.2169  0.5253
  295MOL0     C39716   6.412   8.121   6.293 -0.0223  0.6920  0.8602
  295MOL0     C39717   6.304   8.058   6.226 -0.6079 -0.7295 -0.5922
  295MOL0     C39718   6.176   8.064   6.302 -0.6706  0.2859  0.3196
  295MOL0     C39719   6.332   7.980   6.108 -0.6978  1.0408  0.1567
  295MOL0     C39720   6.231   7.913   6.016  0.8013  0.5869  0.1678
  295MOL0     O39721   6.279   7.829   5.909 -0.6722 -0.2278  0.4178
  295MOL0     C39722   6.189   7.759   5.827 -0.8741  0.0226 -0.3605
  295MOL0     C39723   6.088   7.827   5.762 -1.0207 -1.2429  0.1769
  295MOL0     C39724   5.999   7.756   5.678 -0.1284  0.8016  0.4671
  295MOL0     C39725   6.001   7.614   5.675  0.2541 -0.8940  0.9697
  295MOL0     O39726   5.907   7.543   5.608  0.1482  0.0972 -0.0409
  295MOL0     C39727   5.931   7.533   5.468 -0.4675 -0.0478 -0.3576
  295MOL0     C39728   5.791   7.580   5.405 -0.4760  0.2875  0.7286
  295MOL0     C39729   5.745   7.721   5.448  0.0793  0.7432 -0.4613
  295MOL0     C39730   5.618   7.748   5.359 -0.6224  0.2758 -0.1537
  295MOL0     C39731   5.530   7.861   5.406  0.0414 -0.5559 -0.7200
  295MOL0     C39732   5.598   8.001   5.413 -1.0365  0.4313  0.6683
  295MOL0     C39733   5.491   8.114   5.417 -0.9106 -0.3241 -0.2517
  295MOL0     C39734   5.541   8.257   5.381 -0.2054  0.8736  1.1359
  295MOL0    Cl39735   5.695   8.294   5.455 -0.5794 -0.3172 -0.0510
  295MOL0     C39736   6.106   7.549   5.727 -0.8074 -0.3937  1.1720
  295MOL0     C39737   6.204   7.617   5.805  0.4112 -0.6823 -0.7469
  295MOL0     O39738   6.111   7.928   6.042 -0.0329  0.3586  0.2179
  295MOL0     C39739   6.467   7.967   6.063 -0.3501 -0.5430 -0.3410
  295MOL0     C39740   6.572   8.023   6.144  0.2377 -1.0171 -0.3824
  295MOL0     N39741   7.024   8.564   6.790  0.2069 -0.5538 -0.6401
  295MOL0     N39742   7.015   8.671   6.853 -0.2117 -0.0695 -0.8252
  295MOL0     C39743   7.077   9.216   5.970 -0.1924 -0.4262 -1.0737
  295MOL0     C39744   7.106   9.206   5.834  0.4426 -1.1037  0.3920
  295MOL0     C39745   7.377   9.309   5.461  0.3819 -0.4390 -0.8865
  295MOL0     C39746   7.463   9.380   5.380 -0.3197  0.7129 -0.0504
  295MOL0     C39747   7.523   9.329   5.268  0.4957 -0.4108 -0.4642
  295MOL0     C39748   7.494   9.198   5.232 -0.1994  0.0116 -0.3211
  295MOL0     O39749   7.530   9.143   5.114 -0.4460  0.5069 -0.1905
  295MOL0     C39750   7.495   9.014   5.068  0.3477  0.3195 -0.6805
  295MOL0     C39751   7.594   8.976   4.952  1.3698 -0.1616  1.0035
  295MOL0     C39752   7.732   8.944   5.010 -0.6002  0.4162 -0.3846
  295MOL0     C39753   7.843   8.893   4.909 -0.4173 -0.7200 -0.2714
  295MOL0     C39754   7.786   8.799   4.801 -0.4663 -0.1235 -0.2008
  295MOL0     C39755   7.759   8.727   4.715  0.2641 -0.1946 -0.5222
  295MOL0     C39756   7.419   9.115   5.317 -0.0728 -0.0766 -0.4175
  295MOL0     C39757   7.362   9.172   5.431 -0.0517 -1.1640  0.4159
  295MOL0     H39758   7.326   9.477   5.837  0.8560 -0.1579  1.6875
  295MOL0     H39759   7.275   9.484   6.074  1.9627 -3.6704  1.9716
  295MOL0     H39760   7.266   9.410   6.271 -1.3154  2.9083 -0.7427
  295MOL0     H39761   7.115   9.495   6.266  1.0300  1.5736  1.6335
  295MOL0     H39762   7.157   9.432   6.496 -0.9740  0.2528 -0.4021
  295MOL0     H39763   7.016   9.365   6.428 -0.1263  3.4874 -2.1168
  295MOL0     H39764   7.177   9.155   6.397 -1.6599  0.2216  1.6104
  295MOL0     H39765   7.292   9.256   6.488 -0.5217  2.0732 -1.0163
  295MOL0     H39766   7.141   9.269   6.677  1.0972 -1.9403  1.2819
  295MOL0     H39767   7.020   9.182   6.583  0.5730 -0.7465 -0.9435
  295MOL0     H39768   7.223   9.010   6.554 -0.9574  0.8325 -1.5413
  295MOL0     H39769   7.312   9.099   6.677  1.7257 -0.1965 -0.3912
  295MOL0     H39770   7.180   8.891   6.757 -0.6172 -0.4384  2.9817
  295MOL0     H39771   7.152   9.033   6.858  0.2893 -0.7666  0.5303
  295MOL0     H39772   6.939   9.074   6.721  0.6338  0.3036 -2.8989
  295MOL0     H39773   6.984   8.925   6.638  0.9884 -1.7016  1.6520
  295MOL0     H39774   6.791   8.900   6.810  1.1028 -0.4739 -0.6388
  295MOL0     H39775   6.926   8.905   6.928  2.6439 -0.4035 -0.4139
  295MOL0     H39776   6.766   8.700   6.637 -1.5460 -1.5075 -0.0718
  295MOL0     H39777   6.941   8.478   6.509  2.1505 -3.0540 -1.0654
  295MOL0     H39778   6.956   8.356   6.633  2.1713  1.9104  0.6836
  295MOL0     H39779   6.694   8.482   6.564  0.4641  0.7538  1.8414
  295MOL0     H39780   6.726   8.365   6.691 -3.2280  2.2536 -0.8727
  295MOL0     H39781   6.786   8.189   6.523  0.4576 -1.8465 -3.0804
  295MOL0     H39782   6.816   8.311   6.396  2.7198  1.6370  1.6808
  295MOL0     H39783   6.585   8.365   6.375  1.3287 -0.3815 -3.4217
  295MOL0     H39784   6.539   8.230   6.488 -2.2984 -1.8407 -2.9633
  295MOL0     H39785   6.388   8.195   6.368 -0.9534 -1.8869  3.2746
  295MOL0     H39786   6.187   8.126   6.392  0.6864 -3.2709  2.8363
  295MOL0     H39787   6.095   8.104   6.241  0.4441 -0.3219 -1.6499
  295MOL0     H39788   6.153   7.963   6.339  1.1466 -0.8008 -1.3019
  295MOL0     H39789   6.069   7.934   5.756 -2.9061 -1.6093 -1.8032
  295MOL0     H39790   5.912   7.814   5.650 -2.1405 -0.2149  3.9707
  295MOL0     H39791   6.013   7.589   5.424  0.2843 -0.8520 -0.0148
  295MOL0     H39792   5.955   7.430   5.439  2.2792  0.4227 -0.0106
  295MOL0     H39793   5.799   7.584   5.296  1.8886  3.1132  0.8671
  295MOL0     H39794   5.717   7.508   5.440 -2.8677  1.4459 -1.5798
  295MOL0     H39795   5.819   7.796   5.419 -0.2738  1.2966  0.0361
  295MOL0     H39796   5.729   7.720   5.556  1.3834  1.2024 -0.2524
  295MOL0     H39797   5.665   7.770   5.263  1.6665 -1.7199  0.3993
  295MOL0     H39798   5.556   7.660   5.374 -0.4299  0.1300 -0.2177
  295MOL0     H39799   5.490   7.838   5.505 -1.5155 -1.6219 -1.5645
  295MOL0     H39800   5.439   7.864   5.345 -0.6644  5.2861  0.0832
  295MOL0     H39801   5.656   8.016   5.505 -1.2347 -0.3572  0.9305
  295MOL0     H39802   5.667   8.020   5.330 -2.7675  0.4958 -0.8066
  295MOL0     H39803   5.453   8.101   5.519  0.3495 -2.9094 -0.0211
  295MOL0     H39804   5.419   8.095   5.337  1.8121  2.4365 -3.6388
  295MOL0     H39805   5.459   8.324   5.406 -3.6559 -1.9359 -1.5090
  295MOL0     H39806   5.565   8.258   5.274 -0.6256 -0.2967  1.0154
  295MOL0     H39807   6.130   7.446   5.701 -2.1474 -0.8504  1.6723
  295MOL0     H39808   6.286   7.562   5.848  2.1689  0.0224 -2.9936
  295MOL0     H39809   6.507   7.921   5.973 -1.3363 -2.7371  0.2890
  295MOL0     H39810   6.670   8.000   6.104 -0.6510 -2.3311 -1.9820
  295MOL0     H39811   7.007   9.142   6.007 -2.2808  0.7317 -2.5136
  295MOL0     H39812   7.073   9.130   5.764 -1.2628 -0.9265  0.9375
  295MOL0     H39813   7.496   9.479   5.413  0.8492 -0.1564  1.5497
  295MOL0     H39814   7.589   9.396   5.214 -0.5180  0.9160 -0.1102
  295MOL0     H39815   7.513   8.932   5.139  1.5931 -0.1448 -1.5073
  295MOL0     H39816   7.386   9.017   5.056 -0.0042 -0.1279  1.9001
  295MOL0     H39817   7.608   9.058   4.881  0.1039 -1.1550 -0.4767
  295MOL0     H39818   7.543   8.898   4.894  1.9765 -0.4716  0.8810
  295MOL0     H39819   7.731   8.877   5.096  0.0041  1.6718  0.6340
  295MOL0     H39820   7.763   9.042   5.047 -0.4020  0.6236 -1.0837
  295MOL0     H39821   7.930   8.846   4.954  0.5483  2.9391  2.1538
  295MOL0     H39822   7.883   8.979   4.855  1.1770 -0.7624  0.7828
  295MOL0     H39823   7.723   8.668   4.633 -1.1015  0.6379 -0.5470
  295MOL0     H39824   7.394   9.014   5.289 -0.9086  0.7815 -3.1368
  295MOL0     H39825   7.293   9.115   5.493 -1.0755  3.6881  4.4350
  296MOL0     O39826   0.729   4.791   9.931 -0.1203  0.1342 -0.6437
  296MOL0     C39827   0.820   4.860   9.881  0.2596  0.3206  0.6339
  296MOL0     O39828   0.811   4.997   9.856  0.0223 -0.6892 -0.3219
  296MOL0     C39829   0.702   5.065   9.892 -0.1525  0.5426 -0.2569
  296MOL0     C39830   0.706   5.142  10.007 -0.2019  0.3625  0.4533
  296MOL0     C39831   0.594   5.219  10.050  0.0890 -0.5772 -0.4282
  296MOL0     C39832   0.468   5.209   9.973  0.5304 -0.3521 -0.6805
  296MOL0     O39833   0.359   5.284   9.991 -0.1384  0.0089  0.1183
  296MOL0     C39834   0.311   5.302  10.127  0.3078 -0.1621 -0.8248
  296MOL0     C39835   0.199   5.401  10.120  0.5816 -0.5156 -0.1679
  296MOL0     C39836   0.071   5.350  10.057 -1.9842  0.8918 -0.3468
  296MOL0     C39837  -0.051   5.431  10.097 -0.8385  0.4520  0.0752
  296MOL0     C39838  -0.181   5.392  10.025 -0.7975 -1.1022 -0.1308
  296MOL0     C39839  -0.303   5.466  10.083 -0.0520 -0.3714 -0.0469
  296MOL0     C39840  -0.285   5.620  10.064 -0.1234 -0.2254 -0.6578
  296MOL0     C39841  -0.389   5.708  10.139  0.6772 -0.1710  0.4217
  296MOL0     N39842  -0.508   5.733  10.060 -0.5061 -0.9220 -0.4625
  296MOL0     C39843  -0.532   5.826   9.968 -0.5254 -0.7553  0.5984
  296MOL0     C39844  -0.633   5.771   9.900  0.6855  0.4143 -0.3376
  296MOL0     C39845  -0.692   5.839   9.786 -0.9153  1.3892  0.8890
  296MOL0     C39846  -0.709   5.748   9.658 -0.8867 -0.3488  0.4440
  296MOL0     C39847  -0.789   5.618   9.676  0.6372  0.4846  0.1339
  296MOL0     C39848  -0.837   5.567   9.547  0.2114 -0.4059 -0.7243
  296MOL0     O39849  -0.902   5.448   9.589  0.9562  0.3210 -0.3171
  296MOL0     C39850  -0.944   5.359   9.493 -0.5615 -1.4013  0.1495
  296MOL0     C39851  -1.001   5.402   9.369 -0.3844 -0.8535  0.0036
  296MOL0     C39852  -1.054   5.317   9.278  0.1870 -0.2213 -0.1515
  296MOL0     C39853  -1.102   5.386   9.158 -0.0865 -0.0674  0.5494
  296MOL0     C39854  -1.051   5.179   9.301  0.9301  0.1201  0.0224
  296MOL0     C39855  -1.107   5.079   9.203  0.0299 -0.4274 -0.2114
  296MOL0     O39856  -1.072   4.950   9.236 -0.0034 -0.3443 -0.9318
  296MOL0     C39857  -1.085   4.835   9.162  0.5052  0.2034 -0.1530
  296MOL0     C39858  -1.155   4.819   9.042  0.2052 -0.6492 -0.4793
  296MOL0     C39859  -1.163   4.692   8.989  0.5233  0.6676 -0.9986
  296MOL0     C39860  -1.099   4.581   9.047  0.9146  1.2130  0.7252
  296MOL0     O39861  -1.108   4.448   9.014  0.0410  0.2496  0.1867
  296MOL0     C39862  -1.174   4.411   8.891  0.0663  0.4062  0.0981
  296MOL0     C39863  -1.330   4.410   8.928  0.1668 -0.4549 -0.7240
  296MOL0     C39864  -1.418   4.450   8.811  0.2345  0.3442  0.1241
  296MOL0     C39865  -1.559   4.485   8.857  1.2863 -0.4752  1.1793
  296MOL0     C39866  -1.628   4.374   8.932 -0.1477  0.0333 -0.1474
  296MOL0     C39867  -1.747   4.418   9.017  0.4965  0.4728 -0.3652
  296MOL0     C39868  -1.848   4.525   8.963  0.2399 -0.1795 -1.0938
  296MOL0     C39869  -1.987   4.503   9.019  0.2679 -0.2359  0.7085
  296MOL0    Cl39870  -2.098   4.614   8.951  0.2259 -0.2254  0.1889
  296MOL0     C39871  -1.019   4.608   9.152 -0.1276 -0.3169 -1.4136
  296MOL0     C39872  -1.014   4.731   9.218  0.7096  0.3861 -0.0200
  296MOL0     O39873  -1.190   5.111   9.113 -0.4054  0.5240  0.3828
  296MOL0     C39874  -0.998   5.139   9.426 -0.0637 -0.2184 -0.9731
  296MOL0     C39875  -0.956   5.234   9.530  1.1997  1.2514 -0.0722
  296MOL0     N39876  -0.685   5.657   9.943  0.0772 -0.5227 -0.3416
  296MOL0     N39877  -0.604   5.635  10.043  0.1787 -0.4598 -0.1506
  296MOL0     C39878   0.469   5.147   9.842 -0.7881  1.1516  0.0661
  296MOL0     C39879   0.585   5.079   9.800 -0.9857  0.6589  0.0463
  296MOL0     C39880   0.946   4.792   9.834 -0.3826  0.6296  0.4676
  296MOL0     C39881   1.014   4.688   9.911  0.9212 -0.5976 -0.1747
  296MOL0     C39882   1.138   4.625   9.882  0.5106 -0.6075 -0.6939
  296MOL0     C39883   1.198   4.671   9.769 -0.6470 -0.2281  0.4213
  296MOL0     O39884   1.324   4.628   9.727 -0.1487  0.1052 -0.4590
  296MOL0     C39885   1.414   4.610   9.836 -0.6954 -0.6395  0.5642
  296MOL0     C39886   1.556   4.583   9.780  0.1529 -0.0309  0.2170
  296MOL0     C39887   1.572   4.444   9.719 -0.5148  0.5592 -0.2577
  296MOL0     C39888   1.701   4.419   9.644  1.0441 -0.3476 -0.5598
  296MOL0     C39889   1.782   4.330   9.721  0.0980 -0.1899 -0.7362
  296MOL0     C39890   1.854   4.258   9.790 -0.3321 -0.1699  0.3315
  296MOL0     C39891   1.139   4.772   9.690  0.2353 -0.1640  0.5197
  296MOL0     C39892   1.016   4.834   9.717 -0.5192  0.0091 -0.4297
  296MOL0     H39893   0.799   5.142  10.064 -0.4548  2.1464  0.9092
  296MOL0     H39894   0.608   5.294  10.126  0.2092 -0.7287 -0.3013
  296MOL0     H39895   0.280   5.216  10.187 -0.9248  0.7080 -0.1610
  296MOL0     H39896   0.382   5.349  10.195 -1.9908  0.4947  1.2949
  296MOL0     H39897   0.185   5.438  10.222  2.6156  1.1256 -0.4171
  296MOL0     H39898   0.237   5.483  10.058 -0.4532  0.0556 -0.0711
  296MOL0     H39899   0.092   5.350   9.950  2.1607  0.3759  0.3201
  296MOL0     H39900   0.047   5.250  10.094  2.4459  0.2437  1.3744
  296MOL0     H39901  -0.077   5.424  10.203 -3.1041 -3.1182 -0.5510
  296MOL0     H39902  -0.032   5.536  10.074  0.6640  0.4929  1.2942
  296MOL0     H39903  -0.168   5.428   9.923  1.8256  0.3900  0.6301
  296MOL0     H39904  -0.207   5.287  10.038  0.0374 -1.3179 -0.1636
  296MOL0     H39905  -0.391   5.430  10.029 -0.6960 -0.8101  1.2490
  296MOL0     H39906  -0.313   5.435  10.187  3.1952 -0.3495  0.3996
  296MOL0     H39907  -0.185   5.645  10.101 -0.5498 -0.6300  0.8437
  296MOL0     H39908  -0.276   5.642   9.957  1.1495 -0.1159 -0.5384
  296MOL0     H39909  -0.350   5.808  10.158 -0.7553  0.3175  0.9151
  296MOL0     H39910  -0.409   5.655  10.233 -0.1603 -3.9080 -1.6515
  296MOL0     H39911  -0.471   5.912   9.944 -0.9593 -0.2094  1.4042
  296MOL0     H39912  -0.793   5.875   9.811 -1.7696  0.9470 -1.6232
  296MOL0     H39913  -0.637   5.928   9.756 -0.2227  1.2111  1.6207
  296MOL0     H39914  -0.610   5.724   9.618 -0.2241  0.2579  1.6711
  296MOL0     H39915  -0.759   5.809   9.581 -1.6777 -0.3238  0.9686
  296MOL0     H39916  -0.874   5.635   9.742  0.4179  0.8381 -0.2343
  296MOL0     H39917  -0.716   5.545   9.714 -0.9502 -1.1705  0.1114
  296MOL0     H39918  -0.761   5.551   9.470 -2.6003 -0.0022 -3.8135
  296MOL0     H39919  -0.911   5.638   9.511  2.0611  1.5297 -0.8560
  296MOL0     H39920  -0.995   5.505   9.334  1.5002 -0.8168  0.3337
  296MOL0     H39921  -1.022   5.396   9.084 -0.6729 -1.5286 -0.3249
  296MOL0     H39922  -1.185   5.342   9.101 -0.6518  1.3054  0.2710
  296MOL0     H39923  -1.137   5.489   9.171 -3.2030 -0.4748 -2.8037
  296MOL0     H39924  -1.210   4.904   9.003  1.4042  2.2903  3.5848
  296MOL0     H39925  -1.226   4.675   8.902  0.4305  0.7828 -0.9541
  296MOL0     H39926  -1.144   4.489   8.819 -2.2367 -0.6602 -2.1586
  296MOL0     H39927  -1.138   4.317   8.848 -0.9215  1.0671 -2.3567
  296MOL0     H39928  -1.341   4.307   8.962 -1.4512 -0.1502 -0.2696
  296MOL0     H39929  -1.346   4.485   9.006  0.2513  0.9535 -2.0057
  296MOL0     H39930  -1.408   4.372   8.735  0.0552 -3.3567  3.6014
  296MOL0     H39931  -1.384   4.543   8.763  1.2108 -0.8809 -1.6841
  296MOL0     H39932  -1.549   4.575   8.919  1.3842 -0.7537  1.5710
  296MOL0     H39933  -1.624   4.511   8.773 -0.3843  0.5735  2.6984
  296MOL0     H39934  -1.552   4.330   8.997 -0.1697 -2.4914 -1.6798
  296MOL0     H39935  -1.668   4.297   8.865 -2.0072  1.8745 -1.2460
  296MOL0     H39936  -1.799   4.332   9.058  1.9283  0.2634  1.1200
  296MOL0     H39937  -1.710   4.456   9.113  1.4350 -0.5113 -0.3170
  296MOL0     H39938  -1.853   4.540   8.855  1.1276  0.3952 -1.0602
  296MOL0     H39939  -1.809   4.617   9.008  0.8007  0.1678 -2.2689
  296MOL0     H39940  -1.979   4.532   9.124 -0.0499  2.5220  0.0568
  296MOL0     H39941  -2.028   4.403   9.005  2.7973 -0.9398 -2.8170
  296MOL0     H39942  -0.948   4.530   9.177 -0.9081 -1.5645 -2.8771
  296MOL0     H39943  -0.953   4.750   9.306  1.0652  0.9526 -0.3783
  296MOL0     H39944  -0.983   5.032   9.441 -2.7811 -0.6358 -0.7589
  296MOL0     H39945  -0.912   5.192   9.619  0.3180  2.0464  0.7711
  296MOL0     H39946   0.385   5.136   9.774  0.2708 -1.0564 -0.9669
  296MOL0     H39947   0.599   5.025   9.707  2.8681 -1.2200  1.5138
  296MOL0     H39948   0.946   4.655   9.989  2.8822  1.9949  2.8669
  296MOL0     H39949   1.178   4.537   9.932  2.7744  0.4895 -0.4657
  296MOL0     H39950   1.422   4.704   9.892 -1.4791  0.0760 -0.4810
  296MOL0     H39951   1.393   4.519   9.894  1.4683 -4.7449 -4.3416
  296MOL0     H39952   1.635   4.610   9.850  1.2033  1.2735 -1.4067
  296MOL0     H39953   1.563   4.655   9.698  0.2056 -2.2005 -1.7749
  296MOL0     H39954   1.482   4.420   9.661 -0.0949 -2.4602  0.1427
  296MOL0     H39955   1.571   4.371   9.800  2.0375 -2.0256 -2.3377
  296MOL0     H39956   1.757   4.511   9.624 -0.2858 -0.0455 -3.3302
  296MOL0     H39957   1.668   4.362   9.557 -3.1177 -2.1177  1.8871
  296MOL0     H39958   1.918   4.205   9.856  0.7775  0.9140  0.1662
  296MOL0     H39959   1.183   4.813   9.600 -1.8125  0.2192 -0.3485
  296MOL0     H39960   0.981   4.912   9.650 -0.4682 -0.6352 -1.2195
  297MOL0     O39961   9.176   3.831   3.228 -0.0184 -0.3711  0.0327
  297MOL0     C39962   9.293   3.874   3.252  0.8978 -0.4528 -0.0008
  297MOL0     O39963   9.355   3.854   3.370 -0.3868  0.3989  0.1459
  297MOL0     C39964   9.318   3.744   3.453 -0.9685  0.8137  0.4420
  297MOL0     C39965   9.340   3.744   3.593 -0.2026 -0.3555  0.3607
  297MOL0     C39966   9.295   3.637   3.672 -0.0127  0.2378  0.1241
  297MOL0     C39967   9.251   3.515   3.615 -0.2824 -0.3852  0.2206
  297MOL0     O39968   9.229   3.398   3.684  0.6423  0.5487  0.4751
  297MOL0     C39969   9.312   3.341   3.784 -0.0232 -0.1453  0.4418
  297MOL0     C39970   9.221   3.273   3.888 -0.8508 -0.1863 -0.0421
  297MOL0     C39971   9.305   3.240   4.010 -0.2707 -0.3280 -0.6038
  297MOL0     C39972   9.219   3.216   4.128  0.2418 -0.6002  0.8976
  297MOL0     C39973   9.299   3.219   4.255  0.2922 -0.9928 -0.5008
  297MOL0     C39974   9.231   3.148   4.368 -0.7033  0.3231 -0.1270
  297MOL0     C39975   9.295   3.181   4.501 -0.4532 -0.7815 -0.0373
  297MOL0     C39976   9.268   3.063   4.606  0.4909 -0.3761  0.3892
  297MOL0     N39977   9.123   3.030   4.623  0.7183  0.1640  0.2962
  297MOL0     C39978   9.020   3.124   4.648 -0.0095 -0.0300 -0.4857
  297MOL0     C39979   8.913   3.048   4.673 -0.1158 -1.1420  0.5958
  297MOL0     C39980   8.785   3.102   4.719 -0.2374  0.3155 -0.5373
  297MOL0     C39981   8.678   3.140   4.612  0.2215  0.2789  0.0080
  297MOL0     C39982   8.719   3.261   4.534 -1.3834  0.4047 -1.3766
  297MOL0     C39983   8.628   3.303   4.421  0.1825 -0.1869  0.0913
  297MOL0     O39984   8.676   3.438   4.389 -0.0453 -0.1762  0.4419
  297MOL0     C39985   8.605   3.513   4.304  1.1740 -0.2774  0.1747
  297MOL0     C39986   8.501   3.471   4.214 -0.6682 -0.3939  0.3642
  297MOL0     C39987   8.436   3.564   4.133 -0.6073 -0.4385 -0.3011
  297MOL0     C39988   8.338   3.506   4.037  0.6629  0.3688  0.4026
  297MOL0     C39989   8.467   3.709   4.141 -0.9742  0.0501  0.8757
  297MOL0     C39990   8.389   3.813   4.075  0.0561  0.3289 -0.4396
  297MOL0     O39991   8.446   3.932   4.078 -0.4049  0.5264 -0.4691
  297MOL0     C39992   8.389   4.037   4.006  0.3840 -0.0055  0.1621
  297MOL0     C39993   8.276   4.100   4.068  0.1212  0.0125  0.0235
  297MOL0     C39994   8.234   4.220   4.008 -0.3217 -0.0499 -0.2145
  297MOL0     C39995   8.290   4.268   3.891  0.0913 -0.4356 -0.4493
  297MOL0     O39996   8.251   4.368   3.807  0.5058  0.1349  0.0261
  297MOL0     C39997   8.123   4.426   3.813 -0.2752 -0.0201 -0.1663
  297MOL0     C39998   8.094   4.506   3.689  0.2821  0.5227  0.6090
  297MOL0     C39999   7.961   4.584   3.694 -0.5603 -0.2812 -0.6071
  297MOL0     C40000   7.939   4.667   3.563  0.2869  0.4051 -0.6030
  297MOL0     C40001   7.811   4.745   3.553  0.1179  0.3486 -0.7115
  297MOL0     C40002   7.799   4.787   3.411 -0.4137 -0.7958  0.4697
  297MOL0     C40003   7.661   4.861   3.399  0.1655 -0.4362 -0.8652
  297MOL0     C40004   7.626   4.899   3.256  0.3765 -0.3008 -0.1618
  297MOL0    Cl40005   7.622   4.771   3.132  0.1482  0.2509 -0.4199
  297MOL0     C40006   8.398   4.204   3.840 -0.6261 -0.1326  0.6437
  297MOL0     C40007   8.444   4.083   3.889 -0.3369  0.4062 -0.3602
  297MOL0     O40008   8.276   3.794   4.042  1.3013  0.0413  0.3767
  297MOL0     C40009   8.577   3.746   4.223 -0.0386 -0.2690 -0.2561
  297MOL0     C40010   8.643   3.651   4.305  0.0022 -0.4702  0.1270
  297MOL0     N40011   8.945   2.918   4.648 -0.4095  0.2006  0.0106
  297MOL0     N40012   9.065   2.906   4.629  0.1396  0.8827  0.3436
  297MOL0     C40013   9.244   3.515   3.473  0.7031 -0.4110 -0.8877
  297MOL0     C40014   9.274   3.621   3.394 -0.1404 -0.0184  1.0362
  297MOL0     C40015   9.338   3.978   3.155  0.8285  0.0342 -0.6973
  297MOL0     C40016   9.281   4.009   3.033  0.0218  0.0688 -0.7832
  297MOL0     C40017   9.323   4.105   2.948 -1.1302  0.2312  0.3772
  297MOL0     C40018   9.437   4.175   2.986  0.3283 -0.0862 -0.7604
  297MOL0     O40019   9.473   4.283   2.904  0.5609 -0.2902 -0.3734
  297MOL0     C40020   9.614   4.307   2.898  0.1198 -1.2595 -0.1350
  297MOL0     C40021   9.633   4.429   2.806  0.2762  0.2040 -0.3587
  297MOL0     C40022   9.570   4.563   2.862  0.8227 -0.1771 -0.2420
  297MOL0     C40023   9.547   4.575   3.011 -0.6101  0.4571 -0.6946
  297MOL0     C40024   9.680   4.583   3.082 -1.0191 -0.5429 -0.5383
  297MOL0     C40025   9.790   4.604   3.132  0.3223 -0.6983  1.4290
  297MOL0     C40026   9.506   4.144   3.104 -0.2046 -0.3221  0.7743
  297MOL0     C40027   9.457   4.044   3.195 -0.6450  0.0445  0.7277
  297MOL0     H40028   9.383   3.836   3.632 -1.2875  0.9289 -1.3295
  297MOL0     H40029   9.317   3.643   3.778  2.9285 -1.3041 -0.3027
  297MOL0     H40030   9.381   3.265   3.745  0.1599 -1.8343  3.7300
  297MOL0     H40031   9.367   3.422   3.835  3.3211 -1.2729 -1.0906
  297MOL0     H40032   9.134   3.339   3.895 -0.6663 -0.0311  1.0088
  297MOL0     H40033   9.178   3.177   3.859 -1.5180  0.3343 -0.8230
  297MOL0     H40034   9.368   3.152   3.997  1.0259  0.7137 -1.6597
  297MOL0     H40035   9.368   3.328   4.027 -1.4294  0.1495  1.6766
  297MOL0     H40036   9.148   3.300   4.127  1.6477  0.8445 -3.9481
  297MOL0     H40037   9.164   3.122   4.122  1.5887 -1.5342  2.4342
  297MOL0     H40038   9.395   3.170   4.237 -0.1727 -1.5178 -1.6618
  297MOL0     H40039   9.308   3.324   4.283  0.4163 -1.2728  0.5755
  297MOL0     H40040   9.125   3.177   4.375 -0.1823  2.1327  0.6465
  297MOL0     H40041   9.237   3.042   4.341 -1.4867 -0.8715  3.7406
  297MOL0     H40042   9.403   3.197   4.495 -0.4129  0.2298  2.1593
  297MOL0     H40043   9.251   3.276   4.533 -2.5467 -1.8021  0.3010
  297MOL0     H40044   9.289   3.101   4.706 -1.9462 -0.2806  0.9381
  297MOL0     H40045   9.334   2.976   4.596  0.5515 -0.6600  2.7876
  297MOL0     H40046   9.027   3.232   4.659  2.6255 -0.1988  0.0961
  297MOL0     H40047   8.742   3.033   4.791 -0.1357 -1.2501 -1.9025
  297MOL0     H40048   8.809   3.195   4.771 -2.2934  1.1381 -0.9586
  297MOL0     H40049   8.581   3.154   4.662  0.2442 -0.2867  0.2147
  297MOL0     H40050   8.644   3.062   4.543  3.5242 -0.2943 -1.1358
  297MOL0     H40051   8.825   3.257   4.506 -0.2323  2.9798  1.9035
  297MOL0     H40052   8.719   3.341   4.609  0.0259  0.3061 -1.2463
  297MOL0     H40053   8.528   3.312   4.464  0.4425 -0.2260  0.7147
  297MOL0     H40054   8.627   3.234   4.336 -3.5083  0.5849 -0.6888
  297MOL0     H40055   8.462   3.371   4.222 -1.5553  0.0548  1.9391
  297MOL0     H40056   8.373   3.526   3.935  2.2339  1.6249  1.1547
  297MOL0     H40057   8.335   3.399   4.060  0.0660  0.4803  0.8695
  297MOL0     H40058   8.236   3.541   4.059  1.1451 -0.1941  4.1072
  297MOL0     H40059   8.234   4.082   4.166  1.3830 -1.5570  0.3268
  297MOL0     H40060   8.145   4.263   4.052  0.1247 -0.6854  1.3851
  297MOL0     H40061   8.048   4.346   3.807 -1.8907  1.4993 -1.5963
  297MOL0     H40062   8.113   4.494   3.899  0.5515  0.0591 -0.1251
  297MOL0     H40063   8.177   4.576   3.677 -0.4762  1.0572 -2.2782
  297MOL0     H40064   8.091   4.434   3.607 -1.2765 -1.1638  2.0487
  297MOL0     H40065   7.949   4.656   3.776  0.4132 -1.1700  0.3473
  297MOL0     H40066   7.881   4.511   3.705 -0.0313 -0.5145  3.6780
  297MOL0     H40067   8.024   4.736   3.559  1.7420 -0.6913  4.4304
  297MOL0     H40068   7.948   4.599   3.478  0.0731 -0.1238 -0.2100
  297MOL0     H40069   7.805   4.821   3.632  0.4902 -1.0014  0.6662
  297MOL0     H40070   7.724   4.681   3.568  0.2740  0.1908 -0.4605
  297MOL0     H40071   7.876   4.856   3.376 -0.0180 -1.3391  0.2378
  297MOL0     H40072   7.794   4.699   3.345 -0.3886  0.9674 -2.0135
  297MOL0     H40073   7.645   4.950   3.460 -3.7431 -0.6394 -1.3120
  297MOL0     H40074   7.585   4.789   3.432  0.7333 -1.0815 -0.9475
  297MOL0     H40075   7.706   4.969   3.231 -1.1442  2.5281  2.3005
  297MOL0     H40076   7.530   4.948   3.271  0.2657 -0.9323  1.4747
  297MOL0     H40077   8.437   4.229   3.742  2.1438 -2.3446  1.0489
  297MOL0     H40078   8.530   4.036   3.844 -0.0410  1.2687 -0.7151
  297MOL0     H40079   8.593   3.853   4.236 -1.9945  0.1597 -0.9247
  297MOL0     H40080   8.729   3.670   4.368  1.2816 -0.3664 -1.5564
  297MOL0     H40081   9.204   3.423   3.433 -1.6948  0.7509 -1.2873
  297MOL0     H40082   9.279   3.603   3.287 -1.0761 -4.2913  1.5470
  297MOL0     H40083   9.195   3.948   3.005 -0.3315  0.2264 -0.0509
  297MOL0     H40084   9.268   4.142   2.862 -1.7862  1.0958  1.1532
  297MOL0     H40085   9.645   4.335   2.999  2.8484  3.3249 -1.9203
  297MOL0     H40086   9.666   4.216   2.864  0.5751 -0.4305 -1.7567
  297MOL0     H40087   9.582   4.408   2.711 -0.2073  1.1388 -0.3129
  297MOL0     H40088   9.740   4.421   2.787 -0.2037 -1.5300 -2.7560
  297MOL0     H40089   9.474   4.567   2.810  1.5074 -1.0914 -1.6297
  297MOL0     H40090   9.632   4.642   2.820  1.5140 -0.7006 -0.2122
  297MOL0     H40091   9.488   4.493   3.052 -2.0885  2.7347  2.1688
  297MOL0     H40092   9.490   4.668   3.014  2.1705  2.3118 -0.7766
  297MOL0     H40093   9.891   4.630   3.157  0.6093  2.2320 -1.9031
  297MOL0     H40094   9.596   4.197   3.135  2.6737 -4.1463 -0.1945
  297MOL0     H40095   9.510   4.023   3.288 -0.2407 -0.6164  0.3503
  298MOL0     O40096   9.016   9.235   9.852  0.5253 -0.4339 -0.1632
  298MOL0     C40097   8.995   9.317   9.765  1.5269 -0.1212 -0.0692
  298MOL0     O40098   9.027   9.294   9.630 -0.1312  0.6996  0.6142
  298MOL0     C40099   9.038   9.166   9.580  0.0655 -0.6595 -0.0374
  298MOL0     C40100   9.127   9.138   9.481 -0.3367 -0.3212  0.8262
  298MOL0     C40101   9.142   9.007   9.428  0.2437  0.4581  0.7618
  298MOL0     C40102   9.061   8.898   9.474 -0.0077  0.2718  0.4008
  298MOL0     O40103   9.067   8.778   9.411 -0.6558  0.3238  0.2083
  298MOL0     C40104   9.000   8.668   9.469 -0.1620 -0.1293  0.2617
  298MOL0     C40105   9.034   8.550   9.380 -0.1018  0.0912 -0.5350
  298MOL0     C40106   8.985   8.417   9.447 -0.5579 -0.0291  0.1479
  298MOL0     C40107   9.032   8.292   9.365  0.8375  0.0667  0.0790
  298MOL0     C40108   9.034   8.151   9.428  0.2286  0.1735  0.4570
  298MOL0     C40109   8.891   8.097   9.424  0.5102 -0.0149 -0.0068
  298MOL0     C40110   8.877   7.944   9.433  0.1610 -0.1514  0.9069
  298MOL0     C40111   8.738   7.892   9.401  0.2384  0.3605 -0.4619
  298MOL0     N40112   8.639   7.927   9.507 -0.5368 -0.1593  0.2865
  298MOL0     C40113   8.619   7.851   9.626 -0.8156  0.2223 -0.3495
  298MOL0     C40114   8.496   7.896   9.683  0.0606 -0.1478 -0.8077
  298MOL0     C40115   8.437   7.857   9.818 -0.0198 -0.0668 -0.0637
  298MOL0     C40116   8.377   7.984   9.894  0.3129  0.2132  0.5038
  298MOL0     C40117   8.231   8.018   9.845  0.0359 -0.3807 -0.3888
  298MOL0     C40118   8.127   7.903   9.861 -0.0185  0.8327 -0.7593
  298MOL0     O40119   8.133   7.841   9.994 -0.7109  0.2864  0.2092
  298MOL0     C40120   8.020   7.782  10.047  0.1117 -0.3820  0.0592
  298MOL0     C40121   7.921   7.730   9.960  0.5033 -0.1313  0.3710
  298MOL0     C40122   7.805   7.678  10.019  0.4089  0.5246 -0.5280
  298MOL0     C40123   7.703   7.625   9.917 -0.0744 -0.1037  0.4122
  298MOL0     C40124   7.770   7.693  10.153 -0.8142  0.7623  0.3510
  298MOL0     C40125   7.650   7.650  10.226 -0.0352  0.1874  0.2694
  298MOL0     O40126   7.680   7.610  10.354  0.2627 -0.1513 -0.7005
  298MOL0     C40127   7.578   7.557  10.433 -0.7881  0.3196  0.7551
  298MOL0     C40128   7.499   7.642  10.493  0.0050  0.1009 -0.5495
  298MOL0     C40129   7.409   7.595  10.586 -0.2336 -0.9556  0.6055
  298MOL0     C40130   7.398   7.460  10.613  0.4602 -0.0493  0.0126
  298MOL0     O40131   7.309   7.430  10.705  0.9575  0.8878  0.5376
  298MOL0     C40132   7.334   7.324  10.798 -0.1989  0.1901 -0.0533
  298MOL0     C40133   7.208   7.313  10.879  0.6267 -0.7957 -0.1886
  298MOL0     C40134   7.174   7.421  10.980  0.4778 -0.5583 -0.0196
  298MOL0     C40135   7.042   7.500  10.938  0.6337  0.1088  0.4893
  298MOL0     C40136   7.022   7.623  11.037 -0.6821  0.2720 -0.5323
  298MOL0     C40137   6.895   7.695  11.008 -0.2411 -1.0129 -0.3520
  298MOL0     C40138   6.908   7.766  10.869  0.0780  0.8926 -1.1488
  298MOL0     C40139   6.808   7.875  10.854  0.3404  0.9067  0.1740
  298MOL0    Cl40140   6.819   7.965  10.696 -0.1247 -0.0952  0.2634
  298MOL0     C40141   7.480   7.371  10.541 -0.3395 -0.2375 -0.3030
  298MOL0     C40142   7.567   7.421  10.451  1.0488  0.8695 -1.5326
  298MOL0     O40143   7.540   7.659  10.177 -0.1452  0.0523 -0.2966
  298MOL0     C40144   7.874   7.746  10.235 -0.1697  0.0529  0.2577
  298MOL0     C40145   7.990   7.796  10.180  0.3789 -0.0823  0.7205
  298MOL0     N40146   8.464   8.010   9.606  0.2701  0.0239  0.8134
  298MOL0     N40147   8.536   8.016   9.499 -0.5169  0.3434  0.2224
  298MOL0     C40148   8.966   8.925   9.571 -0.4753 -0.3053  0.2261
  298MOL0     C40149   8.950   9.058   9.616  0.3202 -0.5687 -0.1992
  298MOL0     C40150   8.912   9.439   9.800 -0.2182 -0.3121  0.3098
  298MOL0     C40151   8.817   9.507   9.715 -0.4839 -0.7687 -1.0489
  298MOL0     C40152   8.731   9.617   9.754 -0.1611 -0.4436 -0.2037
  298MOL0     C40153   8.745   9.660   9.894 -0.3780  0.1007  1.2108
  298MOL0     O40154   8.667   9.765   9.921 -0.6070  0.2825 -0.6959
  298MOL0     C40155   8.639   9.794  10.059  0.0446  0.0677  0.0110
  298MOL0     C40156   8.569   9.930  10.062 -1.3040 -0.2112  0.1814
  298MOL0     C40157   8.519   9.952  10.205  0.0373  0.4768  0.2719
  298MOL0     C40158   8.432   9.849  10.280  0.1238 -0.2968 -0.8067
  298MOL0     C40159   8.302   9.860  10.204  0.2161  0.4732 -1.6568
  298MOL0     C40160   8.199   9.871  10.143  0.1697  0.4477 -0.3265
  298MOL0     C40161   8.836   9.587   9.980 -0.0640 -0.5979  0.1634
  298MOL0     C40162   8.907   9.482   9.935  0.8160 -0.1989 -0.9139
  298MOL0     H40163   9.194   9.213   9.441 -0.2720 -0.7549  0.0934
  298MOL0     H40164   9.210   8.992   9.345  0.7221  1.1705  1.0205
  298MOL0     H40165   9.022   8.656   9.576 -0.1952  0.0193  0.2842
  298MOL0     H40166   8.893   8.689   9.453  0.1427 -0.0487 -1.9786
  298MOL0     H40167   8.989   8.554   9.280  1.6191  3.3847 -1.3214
  298MOL0     H40168   9.140   8.542   9.353 -0.6996  0.3921 -3.2233
  298MOL0     H40169   9.021   8.411   9.550 -1.7122  0.4132  0.5967
  298MOL0     H40170   8.876   8.422   9.453 -0.6422  0.5664 -1.4658
  298MOL0     H40171   8.991   8.285   9.264  0.3911 -1.4305  0.3426
  298MOL0     H40172   9.141   8.305   9.356  0.9914  1.6125  3.0438
  298MOL0     H40173   9.105   8.090   9.371  2.3297  1.9508  1.0356
  298MOL0     H40174   9.075   8.152   9.529  1.5731  1.3096 -0.0668
  298MOL0     H40175   8.852   8.149   9.512  1.7697  2.1161 -0.6015
  298MOL0     H40176   8.838   8.135   9.336 -0.4330 -0.1061  0.5188
  298MOL0     H40177   8.933   7.897   9.352 -0.8094 -2.4575  1.4903
  298MOL0     H40178   8.917   7.898   9.524  2.6365 -3.1500 -1.5035
  298MOL0     H40179   8.759   7.787   9.379  1.1296  0.5853 -0.6920
  298MOL0     H40180   8.715   7.927   9.300  3.5899  1.3041 -0.9941
  298MOL0     H40181   8.680   7.768   9.659 -0.4886  0.1508 -1.1016
  298MOL0     H40182   8.370   7.772   9.801 -0.4805  0.5645 -1.5808
  298MOL0     H40183   8.524   7.825   9.876  1.0408  2.2479 -0.2796
  298MOL0     H40184   8.433   8.074   9.867 -0.8386  0.3020 -1.9071
  298MOL0     H40185   8.377   7.962  10.001  1.2035 -2.4388  0.0334
  298MOL0     H40186   8.219   8.060   9.745 -0.3723  0.7543  0.1156
  298MOL0     H40187   8.214   8.106   9.908  3.1170  0.7544 -0.9685
  298MOL0     H40188   8.160   7.836   9.782 -4.0694 -1.3298 -0.8488
  298MOL0     H40189   8.026   7.940   9.842  0.2173  1.7851 -0.2587
  298MOL0     H40190   7.917   7.743   9.852 -1.8447 -0.6152  0.3276
  298MOL0     H40191   7.607   7.678   9.910  1.0749  1.8292 -2.1577
  298MOL0     H40192   7.757   7.633   9.823 -0.1337  6.0743  0.4876
  298MOL0     H40193   7.679   7.520   9.940 -1.0887 -1.3924 -5.1455
  298MOL0     H40194   7.522   7.747  10.479  1.8464 -0.2945 -0.8634
  298MOL0     H40195   7.347   7.673  10.629 -0.2609 -1.6191  1.7958
  298MOL0     H40196   7.341   7.234  10.737  1.7083  0.2617 -0.0148
  298MOL0     H40197   7.424   7.341  10.859  1.0665  0.7104 -1.9759
  298MOL0     H40198   7.123   7.307  10.810 -4.3099 -2.3310  5.2717
  298MOL0     H40199   7.203   7.222  10.940 -1.6461  0.6117  1.9239
  298MOL0     H40200   7.250   7.500  10.988 -1.3295  1.4148 -1.1756
  298MOL0     H40201   7.150   7.375  11.076  0.4715 -1.3570 -0.3957
  298MOL0     H40202   7.045   7.547  10.839  0.9147  0.3747  0.6236
  298MOL0     H40203   6.960   7.428  10.934 -0.1715  1.0081 -3.8241
  298MOL0     H40204   7.097   7.701  11.021 -0.1348 -0.1893 -0.2407
  298MOL0     H40205   7.016   7.588  11.141  0.7302 -0.7177 -0.7562
  298MOL0     H40206   6.809   7.627  11.011 -1.9315  0.9847  2.3720
  298MOL0     H40207   6.869   7.774  11.080 -0.9225 -0.6239 -1.0091
  298MOL0     H40208   6.884   7.698  10.788  1.0647 -2.5375  1.2033
  298MOL0     H40209   7.008   7.807  10.855  0.9404 -0.4731  0.5367
  298MOL0     H40210   6.823   7.940  10.940 -2.3289 -2.0186  3.1461
  298MOL0     H40211   6.707   7.836  10.869  1.2934 -2.4100 -1.0342
  298MOL0     H40212   7.449   7.267  10.547  1.3994 -0.8514 -1.4766
  298MOL0     H40213   7.639   7.359  10.399  0.0171 -1.5143 -0.2414
  298MOL0     H40214   7.864   7.764  10.342 -1.0275 -1.3386  0.4280
  298MOL0     H40215   8.064   7.851  10.238  1.4188  0.8702 -1.3589
  298MOL0     H40216   8.913   8.846   9.624 -0.1002 -1.1722 -0.6701
  298MOL0     H40217   8.867   9.080   9.683  0.5713 -1.7276  0.5226
  298MOL0     H40218   8.834   9.479   9.611  1.4815 -4.8931  0.1641
  298MOL0     H40219   8.673   9.683   9.690 -0.3447  0.0678  0.4742
  298MOL0     H40220   8.583   9.705  10.088 -3.3411  0.3140 -4.6378
  298MOL0     H40221   8.738   9.794  10.106  0.7402  2.8685 -1.2441
  298MOL0     H40222   8.479   9.928  10.000 -1.1007 -2.3405 -0.1271
  298MOL0     H40223   8.645  10.003  10.033  0.5749 -2.2361 -0.2677
  298MOL0     H40224   8.464  10.047  10.203  1.3745  1.2828 -0.2497
  298MOL0     H40225   8.610   9.965  10.265 -0.1826 -0.1735  0.7540
  298MOL0     H40226   8.420   9.873  10.386 -1.6917 -1.5967 -0.6712
  298MOL0     H40227   8.461   9.744  10.276 -0.3097 -0.5214  0.9085
  298MOL0     H40228   8.099   9.899  10.114  0.4084  1.5165 -0.1569
  298MOL0     H40229   8.860   9.617  10.082  3.7086  3.3709 -1.5940
  298MOL0     H40230   8.977   9.442  10.008  0.1725  0.9745  0.3857
  299MOL0     O40231   9.598  11.332   3.682  0.8076 -0.4195  0.5629
  299MOL0     C40232   9.508  11.320   3.598 -0.4407  0.7505 -0.0151
  299MOL0     O40233   9.509  11.378   3.473  0.5022  0.1260 -0.1759
  299MOL0     C40234   9.621  11.442   3.430  0.2899 -1.5164 -0.9874
  299MOL0     C40235   9.750  11.384   3.426 -0.6723 -0.2770 -0.2547
  299MOL0     C40236   9.860  11.462   3.379  0.1911  0.4555 -0.3420
  299MOL0     C40237   9.843  11.603   3.341  0.1981  0.5245  0.2096
  299MOL0     O40238   9.938  11.696   3.319  0.4235 -0.1353  0.2159
  299MOL0     C40239  10.056  11.657   3.257  0.3228  0.1685  0.5314
  299MOL0     C40240  10.141  11.789   3.262 -0.1479  0.5182 -0.3449
  299MOL0     C40241  10.275  11.781   3.194 -0.1544 -0.9151 -0.1020
  299MOL0     C40242  10.246  11.801   3.043  0.0362  0.7942  0.2694
  299MOL0     C40243  10.374  11.859   2.978 -0.2917  1.1237  0.1342
  299MOL0     C40244  10.402  11.775   2.845  0.1620 -0.7459 -0.1596
  299MOL0     C40245  10.542  11.780   2.800 -0.9293 -0.7500  0.5652
  299MOL0     C40246  10.557  11.689   2.681  0.2512  0.1252  1.3609
  299MOL0     N40247  10.452  11.676   2.571 -0.0228 -0.1903 -0.4946
  299MOL0     C40248  10.377  11.781   2.518  1.0947 -0.1868 -0.5465
  299MOL0     C40249  10.310  11.729   2.419 -0.1407 -0.0554  0.1498
  299MOL0     C40250  10.212  11.802   2.330  0.7208 -0.4894  0.5792
  299MOL0     C40251  10.079  11.828   2.409 -0.1502  0.5919 -0.3230
  299MOL0     C40252   9.972  11.719   2.385 -0.0550  0.2880 -0.4895
  299MOL0     C40253   9.849  11.746   2.484 -0.8266 -1.6080  0.4889
  299MOL0     O40254   9.807  11.881   2.475  0.0693 -0.5057 -0.3868
  299MOL0     C40255   9.686  11.918   2.529  0.2951  0.4222  1.5398
  299MOL0     C40256   9.604  11.843   2.609 -0.4998  0.6435 -0.1994
  299MOL0     C40257   9.483  11.893   2.650  0.0239  0.1500  0.1684
  299MOL0     C40258   9.392  11.799   2.717 -0.1009 -0.4566 -0.1025
  299MOL0     C40259   9.450  12.028   2.638  0.6115  0.2873  0.3896
  299MOL0     C40260   9.315  12.092   2.666  0.7408 -0.3324 -0.9743
  299MOL0     O40261   9.322  12.228   2.689 -0.0223  0.1214  0.3815
  299MOL0     C40262   9.205  12.296   2.700 -0.5814 -0.4008 -0.1148
  299MOL0     C40263   9.096  12.268   2.777 -0.4848 -0.3557 -0.3998
  299MOL0     C40264   8.976  12.345   2.768 -0.3146 -0.2952  0.2846
  299MOL0     C40265   8.976  12.458   2.688 -0.9099 -0.3264  0.3349
  299MOL0     O40266   8.874  12.555   2.691  0.0214  0.0076 -0.2282
  299MOL0     C40267   8.759  12.541   2.780 -0.4272  0.7228  0.0144
  299MOL0     C40268   8.653  12.645   2.753  0.1362  0.0337  0.1817
  299MOL0     C40269   8.602  12.645   2.609 -0.1365  0.8143 -0.7115
  299MOL0     C40270   8.487  12.550   2.584  0.1565  0.5957  0.1916
  299MOL0     C40271   8.438  12.550   2.437  0.4949 -0.2407  1.1760
  299MOL0     C40272   8.312  12.468   2.404 -0.0233 -0.6412 -0.1638
  299MOL0     C40273   8.305  12.412   2.255 -0.1970 -0.5156 -1.2807
  299MOL0     C40274   8.254  12.515   2.157  0.2905 -0.0220  0.0249
  299MOL0    Cl40275   8.092  12.581   2.208  0.3938 -0.1473  0.0260
  299MOL0     C40276   9.089  12.490   2.617  0.6530  0.3305  0.1909
  299MOL0     C40277   9.202  12.407   2.614  0.7714 -0.1343 -0.5550
  299MOL0     O40278   9.211  12.031   2.664 -0.0898 -0.5378  0.7846
  299MOL0     C40279   9.542  12.111   2.576 -0.4840 -0.6213 -0.0080
  299MOL0     C40280   9.647  12.050   2.514  0.3122  0.2500 -0.2320
  299MOL0     N40281  10.348  11.600   2.406 -0.0304 -0.5167  0.2985
  299MOL0     N40282  10.439  11.572   2.490 -0.2181  0.6238 -0.4025
  299MOL0     C40283   9.712  11.656   3.333  0.4059 -0.6689 -0.6063
  299MOL0     C40284   9.606  11.575   3.383 -1.2993 -0.3054 -0.1217
  299MOL0     C40285   9.380  11.254   3.642  0.2878 -0.5774 -0.0157
  299MOL0     C40286   9.384  11.160   3.749 -0.7548  0.0177  0.8200
  299MOL0     C40287   9.273  11.096   3.793  0.3959  0.0893  0.1217
  299MOL0     C40288   9.150  11.126   3.726  0.2270 -0.1751 -0.6964
  299MOL0     O40289   9.028  11.060   3.759  0.1095  0.4601  0.0672
  299MOL0     C40290   8.993  11.063   3.907  0.3262  0.0331  0.3947
  299MOL0     C40291   8.852  11.105   3.946 -0.4253  0.5831  0.2028
  299MOL0     C40292   8.797  11.228   3.868  0.8248  0.1788 -1.1043
  299MOL0     C40293   8.653  11.261   3.928  0.1467  0.1112  0.4017
  299MOL0     C40294   8.563  11.149   3.886  0.3080  0.2799  0.7235
  299MOL0     C40295   8.471  11.072   3.859 -0.6893 -0.4564 -0.3717
  299MOL0     C40296   9.141  11.217   3.616 -0.2682 -0.0421  0.0411
  299MOL0     C40297   9.258  11.280   3.580  0.8076  0.8172 -0.3144
  299MOL0     H40298   9.761  11.283   3.464  0.2367  0.1395  0.6254
  299MOL0     H40299   9.962  11.428   3.391 -0.8131 -2.7868 -0.1731
  299MOL0     H40300  10.105  11.569   3.300  0.4433  0.2881  0.6388
  299MOL0     H40301  10.025  11.636   3.154 -3.5294 -0.3074  1.6333
  299MOL0     H40302  10.080  11.872   3.226  1.0493  0.7589 -1.9308
  299MOL0     H40303  10.161  11.816   3.366 -0.4308  4.2399 -1.1301
  299MOL0     H40304  10.336  11.869   3.217 -1.4334  0.7623 -2.7171
  299MOL0     H40305  10.331  11.692   3.224 -1.5591 -1.4479  1.0887
  299MOL0     H40306  10.192  11.718   2.997 -0.9878  1.1088  0.8749
  299MOL0     H40307  10.182  11.889   3.033  0.4734  1.3015  1.6187
  299MOL0     H40308  10.379  11.967   2.962 -0.0405  1.0903 -0.0258
  299MOL0     H40309  10.453  11.841   3.051 -2.1517 -0.6898  1.8025
  299MOL0     H40310  10.368  11.671   2.851  1.6763 -1.1913  1.3320
  299MOL0     H40311  10.328  11.828   2.783  1.0797 -1.2724 -1.7663
  299MOL0     H40312  10.564  11.885   2.780 -0.3067 -1.1904 -1.2467
  299MOL0     H40313  10.616  11.740   2.870 -0.9079 -0.9369  0.4367
  299MOL0     H40314  10.585  11.588   2.712  0.1405 -0.6267 -0.7821
  299MOL0     H40315  10.643  11.740   2.637 -0.2523  2.6424  3.0575
  299MOL0     H40316  10.352  11.881   2.551 -1.6706 -0.9575 -0.1044
  299MOL0     H40317  10.259  11.899   2.312  1.2401 -1.0483 -1.3570
  299MOL0     H40318  10.185  11.746   2.240 -1.2337  2.9387 -1.1587
  299MOL0     H40319  10.035  11.922   2.378  1.3569  1.3974 -0.1368
  299MOL0     H40320  10.089  11.840   2.517  1.9390  2.7196 -0.6747
  299MOL0     H40321  10.013  11.618   2.394 -1.3185 -0.0312  4.6037
  299MOL0     H40322   9.943  11.722   2.279 -1.3465  0.5743 -0.1530
  299MOL0     H40323   9.858  11.724   2.591  1.9895  1.5095  1.0541
  299MOL0     H40324   9.769  11.682   2.445  0.3409 -0.7236 -3.8319
  299MOL0     H40325   9.639  11.742   2.630  2.9881  1.1747 -2.5221
  299MOL0     H40326   9.370  11.853   2.810  1.5917  5.5622 -2.7329
  299MOL0     H40327   9.314  11.783   2.641  0.9682  0.8571 -1.5310
  299MOL0     H40328   9.439  11.700   2.722  1.5139  0.3009  0.1196
  299MOL0     H40329   9.099  12.178   2.838  0.4013  1.2655  2.1196
  299MOL0     H40330   8.893  12.311   2.829  0.3211 -1.9678  0.2810
  299MOL0     H40331   8.716  12.441   2.786  0.5717  0.2006 -0.9848
  299MOL0     H40332   8.789  12.554   2.884  0.1121 -1.0632  0.1080
  299MOL0     H40333   8.569  12.652   2.822  1.7840  2.4054  2.1153
  299MOL0     H40334   8.697  12.745   2.749 -1.9180  0.9923  0.7494
  299MOL0     H40335   8.690  12.627   2.547  3.7690  0.7536  4.2371
  299MOL0     H40336   8.575  12.750   2.596 -1.5512  0.6202  0.3955
  299MOL0     H40337   8.519  12.449   2.610  2.1212  0.8944 -0.8758
  299MOL0     H40338   8.407  12.582   2.651 -0.9798 -2.0360  0.2261
  299MOL0     H40339   8.524  12.522   2.376 -0.0469 -0.8803  0.6860
  299MOL0     H40340   8.411  12.655   2.422 -0.1383 -0.1177  2.9135
  299MOL0     H40341   8.329  12.386   2.474  1.8393 -1.4881 -1.5495
  299MOL0     H40342   8.224  12.528   2.430 -0.2560 -2.3998  3.7232
  299MOL0     H40343   8.243  12.323   2.248  2.5965 -2.5379 -1.6711
  299MOL0     H40344   8.406  12.380   2.225 -0.3459 -0.6117 -1.6826
  299MOL0     H40345   8.237  12.476   2.057 -0.5611  1.6915 -0.5448
  299MOL0     H40346   8.316  12.602   2.134 -1.9572  1.1467 -2.0279
  299MOL0     H40347   9.090  12.587   2.568 -1.0767  0.2533 -0.0385
  299MOL0     H40348   9.288  12.431   2.553  2.2367 -0.5977  1.2139
  299MOL0     H40349   9.529  12.217   2.553 -2.0994 -1.0767 -1.3267
  299MOL0     H40350   9.728  12.105   2.466  3.9483 -1.9445  2.8294
  299MOL0     H40351   9.698  11.754   3.289  1.2079 -0.0380  0.4777
  299MOL0     H40352   9.509  11.622   3.377 -0.3782  1.4738 -2.9835
  299MOL0     H40353   9.482  11.135   3.789 -0.4373 -0.9995 -0.5217
  299MOL0     H40354   9.273  11.022   3.871  0.0349 -2.8226 -2.4628
  299MOL0     H40355   9.009  10.965   3.953 -1.9695 -0.0868  1.0367
  299MOL0     H40356   9.065  11.127   3.960  2.5194 -0.5610 -1.6911
  299MOL0     H40357   8.840  11.120   4.054  1.2930  1.8967  0.2491
  299MOL0     H40358   8.784  11.022   3.922 -0.1981  0.4109  0.1472
  299MOL0     H40359   8.793  11.201   3.762 -0.6590 -1.4428 -0.6739
  299MOL0     H40360   8.871  11.306   3.888 -0.1080  1.4518 -2.4036
  299MOL0     H40361   8.607  11.356   3.896  2.2065  0.5668 -1.4349
  299MOL0     H40362   8.661  11.267   4.037  4.3390  1.9498  0.1827
  299MOL0     H40363   8.388  11.007   3.845 -3.3114  1.5360  3.8692
  299MOL0     H40364   9.048  11.245   3.568 -1.9490 -1.2906  2.3728
  299MOL0     H40365   9.236  11.362   3.513 -1.9501 -0.4709 -1.1271
  300MOL0     O40366   5.980   0.461  10.393  0.0045  0.1903 -0.7047
  300MOL0     C40367   5.896   0.506  10.475  0.3581 -0.3567 -1.5070
  300MOL0     O40368   5.888   0.632  10.518 -0.1718  0.5655  0.5215
  300MOL0     C40369   6.011   0.705  10.520 -0.0707  0.2028  0.7276
  300MOL0     C40370   6.001   0.838  10.477  0.4860  0.2834  0.4297
  300MOL0     C40371   6.108   0.923  10.467 -1.4218  0.6510  0.2129
  300MOL0     C40372   6.238   0.873  10.495  0.0620  0.3825  0.9524
  300MOL0     O40373   6.351   0.944  10.488 -0.2187 -0.5606  0.0686
  300MOL0     C40374   6.375   1.051  10.395 -0.0205 -0.3666 -0.1516
  300MOL0     C40375   6.524   1.079  10.406  0.6300 -0.3870 -0.5747
  300MOL0     C40376   6.602   0.964  10.347  0.8286  0.7148  0.0684
  300MOL0     C40377   6.753   0.958  10.387  0.0602  0.3697  0.6973
  300MOL0     C40378   6.835   0.831  10.334 -0.0982  0.6988  0.4996
  300MOL0     C40379   6.960   0.837  10.425 -0.3132 -0.0522  0.5138
  300MOL0     C40380   7.043   0.721  10.351 -0.0365 -0.1703 -0.4813
  300MOL0     C40381   7.150   0.777  10.242 -0.4151  0.2350  0.3622
  300MOL0     N40382   7.260   0.833  10.323  0.7019  0.2044 -0.2379
  300MOL0     C40383   7.369   0.764  10.353 -0.7095 -0.0442  0.3956
  300MOL0     C40384   7.457   0.860  10.398 -0.3593 -0.4294  0.7119
  300MOL0     C40385   7.586   0.816  10.456 -0.0811 -0.0365 -0.3033
  300MOL0     C40386   7.719   0.890  10.409 -0.5476  0.9930  0.8165
  300MOL0     C40387   7.849   0.818  10.464 -0.3720  0.2823 -0.0680
  300MOL0     C40388   7.877   0.873  10.610  0.3256 -0.1978  0.8326
  300MOL0     O40389   8.011   0.848  10.646  0.1223 -0.6048 -0.0001
  300MOL0     C40390   8.036   0.830  10.772  0.2686 -0.1271  0.0912
  300MOL0     C40391   8.161   0.767  10.784  0.2331  0.0855  0.1950
  300MOL0     C40392   8.216   0.743  10.914  0.2458 -0.5726 -0.0841
  300MOL0     C40393   8.348   0.662  10.914  0.6814 -0.5515 -0.7488
  300MOL0     C40394   8.134   0.777  11.031  0.1781 -0.1379  0.2804
  300MOL0     C40395   8.182   0.737  11.171 -0.6854  0.3767 -0.1088
  300MOL0     O40396   8.098   0.713  11.272 -0.6204 -0.7214  0.2101
  300MOL0     C40397   8.000   0.618  11.278  0.9492  0.1628  0.8684
  300MOL0     C40398   8.007   0.494  11.208 -0.2240 -0.2353  0.0887
  300MOL0     C40399   7.911   0.393  11.197  0.0723  0.0253  0.0185
  300MOL0     C40400   7.801   0.407  11.272 -0.7710  0.8966  1.0293
  300MOL0     O40401   7.707   0.309  11.253 -0.2981 -0.2515  0.5034
  300MOL0     C40402   7.569   0.316  11.316 -0.2830  0.3154 -0.0883
  300MOL0     C40403   7.474   0.223  11.230  0.0115 -0.2418 -0.1871
  300MOL0     C40404   7.460   0.284  11.087 -1.8375 -1.5365 -0.3446
  300MOL0     C40405   7.322   0.351  11.067  0.2607  0.1266 -0.6173
  300MOL0     C40406   7.319   0.426  10.934 -0.1255  0.4487  1.4742
  300MOL0     C40407   7.194   0.526  10.917 -0.6675 -0.0474 -0.2851
  300MOL0     C40408   7.060   0.444  10.940  0.4481 -0.7873  0.1518
  300MOL0     C40409   6.941   0.527  10.897  0.1006 -0.6500 -0.2284
  300MOL0    Cl40410   6.948   0.537  10.719  0.1628  0.3551  0.3740
  300MOL0     C40411   7.787   0.511  11.369  0.0993  1.0827  1.1068
  300MOL0     C40412   7.887   0.620  11.365  0.8608  0.7015 -0.3941
  300MOL0     O40413   8.299   0.766  11.178  0.3697  0.1447 -0.1917
  300MOL0     C40414   8.008   0.833  11.011  1.0632  0.2075  0.0913
  300MOL0     C40415   7.953   0.866  10.884  0.4959  0.6302 -0.2147
  300MOL0     N40416   7.400   0.987  10.391 -1.0756  0.4287 -0.9886
  300MOL0     N40417   7.279   0.970  10.347  0.1799  0.4596  1.2738
  300MOL0     C40418   6.255   0.740  10.554  0.3394  0.1838  0.9153
  300MOL0     C40419   6.138   0.656  10.558 -0.0910  0.6173  0.3214
  300MOL0     C40420   5.780   0.431  10.535 -0.2944  0.6311  0.2560
  300MOL0     C40421   5.698   0.484  10.630  0.3288 -0.7656 -0.4245
  300MOL0     C40422   5.587   0.408  10.684  0.1602 -0.1484  0.2249
  300MOL0     C40423   5.561   0.276  10.648 -0.7037 -0.6915  0.5581
  300MOL0     O40424   5.455   0.201  10.691  0.0069  0.5358  1.4416
  300MOL0     C40425   5.328   0.260  10.635 -0.4386  0.7346  0.7090
  300MOL0     C40426   5.207   0.180  10.696 -0.5003  0.4889  0.6129
  300MOL0     C40427   5.167   0.234  10.835 -0.6348  0.6198  0.5833
  300MOL0     C40428   5.070   0.156  10.916  0.8145  0.0008 -0.1353
  300MOL0     C40429   4.928   0.182  10.897  0.1138  0.0194 -0.3999
  300MOL0     C40430   4.812   0.202  10.893 -0.5446 -0.1586 -0.3659
  300MOL0     C40431   5.647   0.225  10.545  0.7276 -0.6045 -0.0905
  300MOL0     C40432   5.754   0.301  10.496 -0.1855 -0.2715  0.3108
  300MOL0     H40433   5.902   0.869  10.447 -0.3320 -1.5557  1.0913
  300MOL0     H40434   6.088   1.026  10.442 -0.0976  1.7723  3.2370
  300MOL0     H40435   6.362   1.020  10.291 -0.7129  1.0525 -0.5185
  300MOL0     H40436   6.321   1.141  10.428 -1.0070 -1.4921  1.4746
  300MOL0     H40437   6.542   1.175  10.356 -0.9532  1.5388  2.2984
  300MOL0     H40438   6.555   1.089  10.510  0.4526  0.5645 -0.6009
  300MOL0     H40439   6.561   0.867  10.376  0.7097  0.4926 -0.8123
  300MOL0     H40440   6.588   0.977  10.239  2.8755 -3.2565 -0.8457
  300MOL0     H40441   6.804   1.045  10.344 -1.8660  1.3584  0.3167
  300MOL0     H40442   6.757   0.954  10.497  1.1726 -2.2086  0.6336
  300MOL0     H40443   6.772   0.743  10.349 -0.0738  0.9431  2.2698
  300MOL0     H40444   6.860   0.845  10.228  2.5553  1.7304  1.1808
  300MOL0     H40445   7.012   0.933  10.427  1.6441 -1.0634  0.1527
  300MOL0     H40446   6.952   0.818  10.533  0.4944 -3.7943  0.0462
  300MOL0     H40447   7.093   0.655  10.423 -0.0127 -1.8873 -1.9970
  300MOL0     H40448   6.979   0.647  10.304  2.7153 -1.2574 -2.7882
  300MOL0     H40449   7.099   0.859  10.191 -0.3265  0.4450  0.6094
  300MOL0     H40450   7.195   0.710  10.168  1.2950 -0.1607  1.6892
  300MOL0     H40451   7.394   0.659  10.345 -3.3927 -0.7653  0.2056
  300MOL0     H40452   7.567   0.839  10.561 -2.2915  2.4515 -1.1506
  300MOL0     H40453   7.605   0.711  10.433 -0.8594 -0.2933  0.2026
  300MOL0     H40454   7.715   0.996  10.436 -1.4559  0.9161  1.0197
  300MOL0     H40455   7.726   0.887  10.300 -0.7501  3.1690  0.6975
  300MOL0     H40456   7.920   0.866  10.396  0.1515  1.4352  1.2502
  300MOL0     H40457   7.850   0.710  10.450 -0.2222  0.2843 -0.0747
  300MOL0     H40458   7.800   0.828  10.673 -0.5497 -0.0371 -0.0873
  300MOL0     H40459   7.858   0.981  10.607  0.4339 -0.1638  1.3155
  300MOL0     H40460   8.222   0.732  10.701  1.3181 -1.9596  1.7634
  300MOL0     H40461   8.372   0.633  10.812  1.8526 -2.9956  0.1402
  300MOL0     H40462   8.422   0.721  10.970 -0.3436 -0.1876  0.2711
  300MOL0     H40463   8.325   0.565  10.960  0.4283 -0.4649 -0.6917
  300MOL0     H40464   8.098   0.470  11.155  0.5572  0.1806  1.2069
  300MOL0     H40465   7.923   0.300  11.142 -1.2377 -0.6431  0.8042
  300MOL0     H40466   7.583   0.278  11.417  0.6879  0.0171 -0.3198
  300MOL0     H40467   7.531   0.418  11.325 -0.4674  0.0363  4.2864
  300MOL0     H40468   7.533   0.131  11.227  2.5211  1.1972  1.2749
  300MOL0     H40469   7.375   0.209  11.275 -0.5647  2.6300 -0.3657
  300MOL0     H40470   7.471   0.195  11.024  0.9422 -2.7313  1.6417
  300MOL0     H40471   7.531   0.364  11.062 -0.6033 -2.3407  0.4703
  300MOL0     H40472   7.234   0.286  11.074 -0.2421  0.8412 -0.0218
  300MOL0     H40473   7.300   0.420  11.149  1.5946 -0.6048  0.3839
  300MOL0     H40474   7.316   0.361  10.847 -2.3831  2.2799  0.0917
  300MOL0     H40475   7.416   0.476  10.926  0.4438 -0.6305  1.3951
  300MOL0     H40476   7.198   0.595  11.002 -3.8381  1.7206 -1.4267
  300MOL0     H40477   7.191   0.587  10.827  0.1335  3.1574  1.6727
  300MOL0     H40478   7.062   0.423  11.047  1.0429 -1.2947  0.0488
  300MOL0     H40479   7.056   0.354  10.878  0.6450 -0.2576 -0.6488
  300MOL0     H40480   6.921   0.626  10.938  2.2216  0.7835 -2.4152
  300MOL0     H40481   6.848   0.470  10.910 -1.9143  1.8259 -2.6588
  300MOL0     H40482   7.696   0.521  11.428 -1.3434  1.2168 -1.0537
  300MOL0     H40483   7.892   0.718  11.412 -0.9130  0.2425  0.8476
  300MOL0     H40484   7.942   0.852  11.095  1.8742  2.9720  0.2001
  300MOL0     H40485   7.863   0.924  10.866 -1.4927 -2.1355  0.1867
  300MOL0     H40486   6.348   0.696  10.590 -0.8071 -2.9296  0.3791
  300MOL0     H40487   6.139   0.560  10.608  0.9667  1.9604  3.1372
  300MOL0     H40488   5.703   0.578  10.684 -2.5238 -1.8651  2.0845
  300MOL0     H40489   5.528   0.448  10.765 -1.0876 -3.4277  1.0854
  300MOL0     H40490   5.327   0.363  10.674 -0.5285  0.8302  0.4506
  300MOL0     H40491   5.331   0.266  10.526 -0.7599  0.8402  0.7059
  300MOL0     H40492   5.234   0.075  10.711  3.2196  1.2691  0.3900
  300MOL0     H40493   5.127   0.196  10.624  1.4583  5.9244 -0.8193
  300MOL0     H40494   5.126   0.332  10.813  0.8341  1.0991 -0.1434
  300MOL0     H40495   5.253   0.247  10.902 -0.6971  1.3911  0.5136
  300MOL0     H40496   5.096   0.157  11.022  1.8504 -2.0996 -0.3182
  300MOL0     H40497   5.095   0.058  10.875  1.5891  0.9133 -1.9750
  300MOL0     H40498   4.707   0.222  10.893 -0.8506 -0.8409  3.6764
  300MOL0     H40499   5.640   0.123  10.509 -0.0018 -1.0236  1.1689
  300MOL0     H40500   5.818   0.262  10.418 -2.1260 -1.5424 -0.7279
  301MOL0     O40501   4.803   5.817   1.066 -0.4995  0.1880 -0.3156
  301MOL0     C40502   4.684   5.851   1.055 -0.2275 -0.1968  0.1463
  301MOL0     O40503   4.636   5.908   0.944  0.3788  0.4488 -0.6629
  301MOL0     C40504   4.739   5.941   0.850 -0.1354 -0.1818 -0.2342
  301MOL0     C40505   4.847   6.024   0.870 -0.9239  0.8056 -0.1748
  301MOL0     C40506   4.923   6.072   0.773 -0.4575 -0.4598 -0.4393
  301MOL0     C40507   4.892   6.038   0.640 -0.7554  0.0406  0.5249
  301MOL0     O40508   4.952   6.086   0.525 -0.1769  0.3226 -0.2023
  301MOL0     C40509   5.098   6.108   0.537  0.2174  0.6493  0.2161
  301MOL0     C40510   5.168   5.975   0.519 -0.1480  0.3637  0.2532
  301MOL0     C40511   5.172   5.919   0.373 -0.0024 -0.0042 -0.2652
  301MOL0     C40512   5.233   5.782   0.362 -0.1930  0.7235  0.6464
  301MOL0     C40513   5.361   5.747   0.434  0.1191 -0.2229 -0.5323
  301MOL0     C40514   5.477   5.836   0.387  0.1462 -0.0306  0.2351
  301MOL0     C40515   5.628   5.788   0.431  0.0195  0.0605  0.0009
  301MOL0     C40516   5.754   5.843   0.344 -0.1826  0.3232 -0.2517
  301MOL0     N40517   5.738   5.793   0.213  0.4155  0.1214 -0.7905
  301MOL0     C40518   5.679   5.676   0.174  0.6901  0.3991 -0.5114
  301MOL0     C40519   5.644   5.691   0.043  0.0260 -0.3225 -0.1296
  301MOL0     C40520   5.554   5.591  -0.031  0.3515  1.0853 -0.4447
  301MOL0     C40521   5.400   5.600  -0.014  0.5692 -0.1266  0.2338
  301MOL0     C40522   5.343   5.747  -0.040 -0.4200 -0.0460 -0.1989
  301MOL0     C40523   5.192   5.738  -0.026  0.2718  0.2771  0.9834
  301MOL0     O40524   5.139   5.863  -0.071 -1.0815  0.2551 -0.8120
  301MOL0     C40525   5.006   5.865  -0.088  0.2219 -0.2056  0.3884
  301MOL0     C40526   4.919   5.755  -0.056 -0.3508 -0.5366  0.9693
  301MOL0     C40527   4.781   5.771  -0.067 -0.2306 -0.2376 -0.0258
  301MOL0     C40528   4.695   5.645  -0.051 -0.5220 -0.1777 -0.5764
  301MOL0     C40529   4.719   5.891  -0.107  0.0365 -0.0692  0.3502
  301MOL0     C40530   4.577   5.912  -0.099  0.6198 -0.5136  0.8366
  301MOL0     O40531   4.523   5.956  -0.217 -0.5624 -0.5197 -0.5657
  301MOL0     C40532   4.403   5.999  -0.220  0.4125 -0.7390  0.1472
  301MOL0     C40533   4.375   6.129  -0.167  0.3182  0.4822 -0.4669
  301MOL0     C40534   4.247   6.182  -0.192  0.4063  1.0594  0.8999
  301MOL0     C40535   4.150   6.113  -0.264  0.0061 -1.1573 -0.7747
  301MOL0     O40536   4.027   6.158  -0.302  0.2703  0.4239  0.1727
  301MOL0     C40537   4.013   6.297  -0.321  0.7712  0.0160 -1.0637
  301MOL0     C40538   4.099   6.332  -0.443 -0.2472  0.2705  1.1126
  301MOL0     C40539   4.083   6.481  -0.495 -1.0840  0.5783 -0.0793
  301MOL0     C40540   4.154   6.597  -0.415  0.5623  0.5375 -0.9966
  301MOL0     C40541   4.111   6.733  -0.466  0.6053  0.3249  0.0938
  301MOL0     C40542   4.173   6.857  -0.391  0.0719  0.6349 -0.3872
  301MOL0     C40543   4.325   6.872  -0.409 -0.3022 -0.0974  0.8972
  301MOL0     C40544   4.368   7.004  -0.341  0.9214  0.8784  0.1019
  301MOL0    Cl40545   4.316   7.143  -0.443 -0.3552  0.0645 -0.1625
  301MOL0     C40546   4.174   5.984  -0.300  0.5654 -0.2386 -0.0920
  301MOL0     C40547   4.297   5.926  -0.286 -0.0914  0.3385 -1.1653
  301MOL0     O40548   4.515   5.899   0.008 -0.8232  0.4075  0.1479
  301MOL0     C40549   4.807   5.994  -0.143 -0.4005  0.9509  0.1740
  301MOL0     C40550   4.949   5.984  -0.134 -0.0455 -0.7990 -0.7898
  301MOL0     N40551   5.681   5.818   0.005 -0.5900  0.0154  1.0780
  301MOL0     N40552   5.720   5.880   0.110  0.5980 -0.6934 -0.3718
  301MOL0     C40553   4.797   5.945   0.621 -0.2946  0.0408  0.8016
  301MOL0     C40554   4.723   5.890   0.720  0.7500 -0.4117  0.1761
  301MOL0     C40555   4.597   5.812   1.165  0.9745  0.3720  0.2455
  301MOL0     C40556   4.456   5.852   1.153 -0.2877 -0.7566 -0.4660
  301MOL0     C40557   4.363   5.801   1.242  0.1948 -0.5960 -0.3262
  301MOL0     C40558   4.402   5.719   1.352  0.0685 -0.2501  0.6272
  301MOL0     O40559   4.305   5.689   1.437  0.6143 -0.1749 -0.3033
  301MOL0     C40560   4.346   5.632   1.562 -0.3794 -0.0139 -0.8563
  301MOL0     C40561   4.230   5.628   1.664  0.1866 -0.1979  0.2554
  301MOL0     C40562   4.114   5.545   1.620 -0.2391 -0.2021  0.0757
  301MOL0     C40563   4.023   5.516   1.731  0.8377 -0.1890 -0.1989
  301MOL0     C40564   3.903   5.453   1.670 -1.5080  0.1031  0.4968
  301MOL0     C40565   3.816   5.391   1.611 -0.7217 -0.0206 -1.1307
  301MOL0     C40566   4.539   5.685   1.362  0.0291 -0.0809 -0.3468
  301MOL0     C40567   4.631   5.722   1.269  1.1698  0.2151 -0.6564
  301MOL0     H40568   4.873   6.070   0.964 -2.0833 -0.4047  0.7774
  301MOL0     H40569   5.000   6.145   0.798 -0.1419 -1.7198  2.6962
  301MOL0     H40570   5.129   6.182   0.463  0.6208  0.5158  0.2474
  301MOL0     H40571   5.122   6.158   0.632  1.3150 -1.1375  0.9379
  301MOL0     H40572   5.268   6.011   0.545 -0.3568  1.6394 -0.6388
  301MOL0     H40573   5.138   5.903   0.596  0.6796  0.4535  0.6661
  301MOL0     H40574   5.073   5.929   0.326  0.7187  1.6012 -1.5504
  301MOL0     H40575   5.235   5.983   0.311  3.2296 -3.5690 -1.1257
  301MOL0     H40576   5.148   5.718   0.388 -0.8548  1.2327 -0.2175
  301MOL0     H40577   5.260   5.751   0.260 -0.8483 -0.2201  0.7412
  301MOL0     H40578   5.341   5.757   0.541  1.8554 -2.2299  0.0653
  301MOL0     H40579   5.390   5.642   0.418  1.3597 -0.2245  1.3997
  301MOL0     H40580   5.481   5.848   0.278  1.8861  0.3686  0.3090
  301MOL0     H40581   5.460   5.934   0.432  1.8046 -0.1300  1.1440
  301MOL0     H40582   5.628   5.824   0.534 -0.6373 -1.4492  0.5566
  301MOL0     H40583   5.647   5.680   0.432  0.5192  0.1460  0.1821
  301MOL0     H40584   5.849   5.803   0.384 -0.3450 -3.5288 -3.1209
  301MOL0     H40585   5.752   5.952   0.347 -0.5760  0.3024  2.0082
  301MOL0     H40586   5.661   5.590   0.237 -0.2872  0.7476 -0.2922
  301MOL0     H40587   5.574   5.598  -0.139  1.2500  0.0029 -0.3650
  301MOL0     H40588   5.562   5.490   0.010  1.2580  2.0444  1.8727
  301MOL0     H40589   5.366   5.571   0.086  1.3975 -1.0199  0.2748
  301MOL0     H40590   5.361   5.531  -0.088 -1.4479 -0.8001  1.8422
  301MOL0     H40591   5.366   5.780  -0.141 -2.9144  1.5813 -0.3272
  301MOL0     H40592   5.374   5.825   0.031  0.1861 -1.7649  1.5225
  301MOL0     H40593   5.154   5.720   0.075  0.4270  0.5037  1.0835
  301MOL0     H40594   5.173   5.647  -0.085 -0.1156 -0.1728  1.7899
  301MOL0     H40595   4.955   5.656  -0.030  1.5679 -0.2950 -0.5075
  301MOL0     H40596   4.759   5.563  -0.083  0.7373  1.2402 -1.8400
  301MOL0     H40597   4.661   5.641   0.053  2.9901  2.6548  0.9095
  301MOL0     H40598   4.607   5.667  -0.113  0.8400  1.4271 -2.0616
  301MOL0     H40599   4.459   6.186  -0.130  0.0804 -0.0584  0.9672
  301MOL0     H40600   4.234   6.286  -0.165  1.6691  1.2989  0.6520
  301MOL0     H40601   3.909   6.324  -0.343  0.8105  1.0457 -0.0541
  301MOL0     H40602   4.046   6.359  -0.237 -2.9704  0.4993  0.2689
  301MOL0     H40603   4.206   6.316  -0.425  0.1150  0.3902 -0.7341
  301MOL0     H40604   4.076   6.264  -0.525  1.4194 -0.1160  0.9250
  301MOL0     H40605   3.976   6.502  -0.506 -0.7243  2.3096 -0.7270
  301MOL0     H40606   4.133   6.474  -0.593  2.8067 -0.1858  1.7595
  301MOL0     H40607   4.131   6.585  -0.309 -0.9590 -1.7757 -1.5135
  301MOL0     H40608   4.263   6.593  -0.403  0.4405 -0.5997 -0.0210
  301MOL0     H40609   4.002   6.741  -0.470  0.0477 -4.4052 -1.3959
  301MOL0     H40610   4.150   6.750  -0.566 -2.7822  0.3832 -1.3533
  301MOL0     H40611   4.135   6.953  -0.428  0.4545  0.9135 -0.0721
  301MOL0     H40612   4.150   6.857  -0.284  0.2997  0.0201 -0.3335
  301MOL0     H40613   4.344   6.876  -0.516  2.5439 -0.4531  1.2984
  301MOL0     H40614   4.389   6.789  -0.375 -0.2309 -1.0159 -1.3452
  301MOL0     H40615   4.477   7.010  -0.333  1.0511  2.3995 -2.1135
  301MOL0     H40616   4.340   7.000  -0.235  2.0137  0.1292  0.3762
  301MOL0     H40617   4.102   5.918  -0.348 -0.9017 -0.2398  1.9843
  301MOL0     H40618   4.321   5.831  -0.332  0.2673 -0.7638  1.1626
  301MOL0     H40619   4.777   6.092  -0.180  0.8245  0.9038 -1.0670
  301MOL0     H40620   5.002   6.068  -0.178 -1.0553  0.8584  1.0118
  301MOL0     H40621   4.790   5.916   0.517 -0.6606  0.6280  0.6519
  301MOL0     H40622   4.644   5.823   0.689  1.4675 -0.8429 -0.7547
  301MOL0     H40623   4.426   5.914   1.068 -4.4498 -1.4557  0.3186
  301MOL0     H40624   4.255   5.810   1.232 -0.2580 -3.6874  0.6303
  301MOL0     H40625   4.400   5.537   1.564  0.4342  0.4431 -0.5558
  301MOL0     H40626   4.414   5.705   1.607  0.6236 -1.5924  0.2552
  301MOL0     H40627   4.206   5.734   1.680 -0.9607 -0.4189  0.1095
  301MOL0     H40628   4.265   5.587   1.759  2.2625  0.2865 -0.2656
  301MOL0     H40629   4.148   5.462   1.557 -1.6895 -1.6202  1.0709
  301MOL0     H40630   4.061   5.614   1.554  0.4956 -0.2035 -0.5359
  301MOL0     H40631   3.998   5.602   1.793  1.3911  0.1299 -0.4098
  301MOL0     H40632   4.065   5.436   1.793 -1.4243 -0.9962  0.3985
  301MOL0     H40633   3.744   5.333   1.557 -2.1386 -0.4290  1.0725
  301MOL0     H40634   4.563   5.628   1.451 -0.7227  2.7720  1.8042
  301MOL0     H40635   4.728   5.680   1.292  0.3663 -1.5144 -0.3016
  302MOL0     O40636   2.723   5.940   4.172  0.1070 -0.1618 -0.0878
  302MOL0     C40637   2.682   6.021   4.085 -0.7183 -1.1326 -0.1085
  302MOL0     O40638   2.560   6.026   4.024  0.2898 -0.2690 -0.2705
  302MOL0     C40639   2.454   5.947   4.071 -1.3036  0.0165  0.2127
  302MOL0     C40640   2.377   5.864   3.983 -0.1763 -0.1968 -0.1038
  302MOL0     C40641   2.288   5.770   4.027 -0.7543  0.8438  0.0734
  302MOL0     C40642   2.265   5.758   4.164 -0.1100 -0.5421 -0.5833
  302MOL0     O40643   2.165   5.667   4.193  0.1472  0.4907  0.4188
  302MOL0     C40644   2.144   5.637   4.329 -0.2490 -0.6543  0.4041
  302MOL0     C40645   2.077   5.501   4.328 -0.2527 -0.7160 -0.4857
  302MOL0     C40646   2.169   5.378   4.302  0.3171 -0.0678 -0.5155
  302MOL0     C40647   2.212   5.313   4.436 -0.1909 -0.4027  0.2705
  302MOL0     C40648   2.313   5.197   4.438  0.7642 -0.0287  0.3675
  302MOL0     C40649   2.311   5.109   4.559  0.4880 -0.1226 -0.1462
  302MOL0     C40650   2.399   4.982   4.536 -0.4060 -0.2693  0.5516
  302MOL0     C40651   2.402   4.906   4.669 -0.6589  0.0909  0.2038
  302MOL0     N40652   2.456   4.767   4.635  0.0226  0.1710 -0.6243
  302MOL0     C40653   2.377   4.647   4.627  0.0957 -0.2770  0.2538
  302MOL0     C40654   2.461   4.550   4.576  0.2956  1.2330 -0.6644
  302MOL0     C40655   2.419   4.424   4.516  0.2858 -0.6346 -0.0280
  302MOL0     C40656   2.366   4.324   4.630  0.3406 -0.5211 -0.5120
  302MOL0     C40657   2.342   4.177   4.588 -0.5965 -0.4949 -0.3612
  302MOL0     C40658   2.247   4.149   4.468  0.9679 -0.6407  0.3929
  302MOL0     O40659   2.244   4.007   4.442 -0.0925  0.5089  0.4880
  302MOL0     C40660   2.297   3.965   4.324  0.3526 -0.3654 -0.3305
  302MOL0     C40661   2.251   3.845   4.271 -0.2359 -0.3684  0.4902
  302MOL0     C40662   2.324   3.793   4.163 -0.4323 -0.4155  0.6235
  302MOL0     C40663   2.248   3.678   4.095 -0.2076 -0.4452 -0.0041
  302MOL0     C40664   2.425   3.864   4.099 -0.8453  0.0346  0.0590
  302MOL0     C40665   2.496   3.814   3.975 -0.3839 -0.5052 -0.0783
  302MOL0     O40666   2.625   3.878   3.957 -0.1047 -0.3214 -0.6362
  302MOL0     C40667   2.706   3.831   3.851  0.3283  0.3058  0.3322
  302MOL0     C40668   2.665   3.839   3.719 -0.0152  0.9887 -0.1269
  302MOL0     C40669   2.752   3.814   3.614  0.0916  1.3302 -0.2882
  302MOL0     C40670   2.887   3.778   3.639  0.2628  0.2011  0.1099
  302MOL0     O40671   2.991   3.745   3.546  0.0336 -0.2739 -0.3604
  302MOL0     C40672   2.982   3.801   3.408  1.1659 -0.4552 -0.7431
  302MOL0     C40673   3.126   3.851   3.364  0.4154 -0.3580 -0.4417
  302MOL0     C40674   3.229   3.732   3.367 -0.4890 -0.1697 -0.1152
  302MOL0     C40675   3.214   3.638   3.254 -0.0350  0.0042 -0.0188
  302MOL0     C40676   3.325   3.538   3.254 -0.0574  0.7849 -1.1210
  302MOL0     C40677   3.303   3.409   3.174  0.6401  0.4445  0.6265
  302MOL0     C40678   3.423   3.320   3.178  0.4400 -0.5792  0.1670
  302MOL0     C40679   3.394   3.189   3.117  0.0351 -0.0592  0.3895
  302MOL0    Cl40680   3.323   3.208   2.945  0.7914 -0.4983  0.1116
  302MOL0     C40681   2.932   3.767   3.769  0.7022 -0.6663 -0.2164
  302MOL0     C40682   2.845   3.805   3.868 -1.1553 -0.0309 -0.5118
  302MOL0     O40683   2.442   3.742   3.884  0.0282 -0.7235  0.2644
  302MOL0     C40684   2.469   3.986   4.159  0.7304  0.5612  0.1543
  302MOL0     C40685   2.402   4.038   4.263  1.4246  0.1760  1.0551
  302MOL0     N40686   2.584   4.609   4.566  0.3892  0.4700 -0.4124
  302MOL0     N40687   2.580   4.734   4.593 -0.1276 -0.2303 -0.4305
  302MOL0     C40688   2.330   5.848   4.250 -0.9706  0.3061 -0.0882
  302MOL0     C40689   2.432   5.934   4.210  0.3114  0.8690  0.2140
  302MOL0     C40690   2.771   6.139   4.050  0.0998  0.6457  0.1937
  302MOL0     C40691   2.740   6.211   3.933  0.3474  0.3990 -0.2711
  302MOL0     C40692   2.834   6.306   3.886  0.0051 -0.2342 -0.2964
  302MOL0     C40693   2.959   6.335   3.959  0.5308  0.0982  0.1218
  302MOL0     O40694   3.045   6.430   3.909  0.3593 -1.1442 -0.0963
  302MOL0     C40695   3.178   6.436   3.953 -0.3824 -0.2324 -0.1139
  302MOL0     C40696   3.250   6.514   3.849  0.5821 -0.4854 -0.0045
  302MOL0     C40697   3.305   6.440   3.729 -0.8009  0.3344 -1.0119
  302MOL0     C40698   3.336   6.529   3.611 -0.1961  0.0951 -0.0495
  302MOL0     C40699   3.218   6.560   3.540  0.5264  0.1379 -0.5890
  302MOL0     C40700   3.117   6.608   3.484 -0.1541  0.5105 -0.3445
  302MOL0     C40701   2.983   6.269   4.080 -0.5421 -0.4153  0.1060
  302MOL0     C40702   2.897   6.170   4.114  0.2438 -0.4790  0.5594
  302MOL0     H40703   2.378   5.870   3.875 -1.4204 -2.2913 -0.2808
  302MOL0     H40704   2.243   5.713   3.946 -0.6055 -0.7299  1.0516
  302MOL0     H40705   2.233   5.643   4.393 -0.0347  1.3429 -0.0324
  302MOL0     H40706   2.082   5.710   4.382  2.5207  1.0609  1.4898
  302MOL0     H40707   2.029   5.489   4.425 -3.0356  3.0870 -1.1470
  302MOL0     H40708   1.994   5.513   4.257  0.4329  4.0720 -0.8383
  302MOL0     H40709   2.113   5.315   4.231 -2.1550  1.1546  0.2228
  302MOL0     H40710   2.260   5.402   4.245 -0.5627  0.2897 -1.8375
  302MOL0     H40711   2.249   5.400   4.490 -1.1643  2.0659 -2.7765
  302MOL0     H40712   2.115   5.297   4.485  0.4304  3.9475  3.4999
  302MOL0     H40713   2.274   5.131   4.359  0.9470 -1.4351  1.4208
  302MOL0     H40714   2.411   5.228   4.402 -0.4801  3.4419 -0.4695
  302MOL0     H40715   2.340   5.174   4.642 -4.2685  1.5966  0.4812
  302MOL0     H40716   2.206   5.083   4.580  0.3548  0.6787  0.2190
  302MOL0     H40717   2.366   4.922   4.451  3.6054  0.7355 -1.9944
  302MOL0     H40718   2.501   5.012   4.511 -1.3744  1.5778 -1.5179
  302MOL0     H40719   2.318   4.909   4.738 -0.3891 -1.4107  0.6273
  302MOL0     H40720   2.486   4.943   4.729 -1.9252 -3.6661  4.8711
  302MOL0     H40721   2.271   4.628   4.639 -0.1897  0.5773 -0.7443
  302MOL0     H40722   2.340   4.433   4.441  0.2483 -1.5474 -0.1087
  302MOL0     H40723   2.503   4.368   4.473  0.1039 -1.7922  1.0550
  302MOL0     H40724   2.269   4.354   4.671  0.6116  2.6560 -1.9471
  302MOL0     H40725   2.438   4.323   4.713 -0.9617  4.2563  1.0129
  302MOL0     H40726   2.298   4.124   4.673 -1.4336 -1.3354 -1.2924
  302MOL0     H40727   2.440   4.138   4.559 -1.1087 -0.0059 -3.0833
  302MOL0     H40728   2.254   4.209   4.377 -0.1616 -1.4767 -0.2699
  302MOL0     H40729   2.150   4.186   4.503  1.7314  0.9558  0.8993
  302MOL0     H40730   2.169   3.796   4.322  0.7238 -2.1989  0.3453
  302MOL0     H40731   2.314   3.605   4.047  1.1063  0.1620  0.8251
  302MOL0     H40732   2.182   3.623   4.163 -1.2490  1.0431  0.2416
  302MOL0     H40733   2.187   3.725   4.018  1.8654  0.8752 -0.9235
  302MOL0     H40734   2.561   3.862   3.697  0.0272 -0.1006 -1.6017
  302MOL0     H40735   2.735   3.811   3.506 -0.4843 -0.4412 -0.1896
  302MOL0     H40736   2.946   3.730   3.333 -0.8396 -0.3792  0.0861
  302MOL0     H40737   2.916   3.888   3.414  0.8388 -0.8051  1.8137
  302MOL0     H40738   3.115   3.900   3.267  2.2212 -0.4390 -0.7262
  302MOL0     H40739   3.171   3.929   3.426 -0.0004  0.0704 -0.6687
  302MOL0     H40740   3.229   3.681   3.464 -1.1275  0.2364  0.1058
  302MOL0     H40741   3.325   3.784   3.365 -0.0474 -0.7420  2.6558
  302MOL0     H40742   3.118   3.585   3.254  1.4176 -2.8127 -0.6181
  302MOL0     H40743   3.222   3.702   3.166  1.3869  0.2915  0.2891
  302MOL0     H40744   3.331   3.500   3.357 -0.5766  1.1605 -0.9490
  302MOL0     H40745   3.421   3.586   3.231 -1.4185  5.4678  1.5032
  302MOL0     H40746   3.228   3.354   3.231  1.3314  0.3380  1.4361
  302MOL0     H40747   3.273   3.445   3.075  0.1260  0.6395  0.8488
  302MOL0     H40748   3.465   3.293   3.276 -3.1316  0.2388  2.0990
  302MOL0     H40749   3.506   3.368   3.125  1.4120 -0.6226  1.5747
  302MOL0     H40750   3.331   3.121   3.175  1.1565 -2.6307 -1.1709
  302MOL0     H40751   3.492   3.142   3.099 -0.0770  0.5605 -2.3140
  302MOL0     H40752   3.032   3.736   3.794  1.2027  0.8495 -0.2363
  302MOL0     H40753   2.887   3.809   3.968  0.6668  2.8219 -1.2642
  302MOL0     H40754   2.547   4.046   4.114  2.6930 -0.5803  1.8571
  302MOL0     H40755   2.445   4.125   4.312 -1.3899  2.7850 -0.7269
  302MOL0     H40756   2.312   5.827   4.355 -1.3081 -0.5004 -0.3012
  302MOL0     H40757   2.493   5.984   4.285  1.5593 -2.4816  1.6093
  302MOL0     H40758   2.648   6.204   3.876 -0.5420 -0.4681  1.2164
  302MOL0     H40759   2.798   6.368   3.805 -0.3790 -0.2891 -0.1660
  302MOL0     H40760   3.168   6.482   4.052 -1.9823 -1.0610  0.1455
  302MOL0     H40761   3.234   6.343   3.965  2.9333  1.8490  2.3048
  302MOL0     H40762   3.342   6.548   3.899  0.2735 -3.1202  2.6269
  302MOL0     H40763   3.186   6.593   3.809 -0.8098 -0.4171  2.2096
  302MOL0     H40764   3.240   6.355   3.703  0.4976 -1.9640  2.4800
  302MOL0     H40765   3.398   6.396   3.765  0.5012  2.6116 -1.4187
  302MOL0     H40766   3.394   6.464   3.544  0.8876  1.6155 -0.6437
  302MOL0     H40767   3.403   6.612   3.634  0.8880 -0.7336 -0.1599
  302MOL0     H40768   3.026   6.643   3.440 -0.1228  1.5756  0.4112
  302MOL0     H40769   3.074   6.288   4.137 -1.2691 -1.2241  1.5914
  302MOL0     H40770   2.925   6.112   4.201  3.1232 -0.0533  0.0077
  303MOL0     O40771   2.652   1.998   7.710 -1.1545 -0.2501  0.1089
  303MOL0     C40772   2.576   2.053   7.788 -0.3208 -0.3012 -0.1640
  303MOL0     O40773   2.442   2.081   7.752  0.2403  0.4077 -0.0743
  303MOL0     C40774   2.374   2.031   7.645 -0.0500 -1.0283  0.3693
  303MOL0     C40775   2.396   1.905   7.583 -0.5307 -0.7575 -0.6985
  303MOL0     C40776   2.314   1.877   7.473  0.2350 -0.2708 -0.1137
  303MOL0     C40777   2.203   1.959   7.427 -0.7518 -1.1534 -0.9873
  303MOL0     O40778   2.133   1.939   7.316  0.7282  0.3482  0.8444
  303MOL0     C40779   2.203   1.899   7.202 -0.2242 -0.2249  0.2189
  303MOL0     C40780   2.106   1.914   7.086  0.0207  0.8159 -0.1979
  303MOL0     C40781   2.164   1.865   6.951 -0.6684 -0.6480  0.4176
  303MOL0     C40782   2.077   1.929   6.839  0.4612  0.1768  0.9909
  303MOL0     C40783   2.116   1.875   6.702  0.6371  0.6963  0.3184
  303MOL0     C40784   2.254   1.923   6.648  0.2837  0.4360 -1.4223
  303MOL0     C40785   2.296   1.840   6.530 -0.1763 -0.7421 -0.9713
  303MOL0     C40786   2.197   1.863   6.414  0.0358 -1.2107 -0.3370
  303MOL0     N40787   2.173   2.004   6.380  0.1833 -0.3680  0.4445
  303MOL0     C40788   2.274   2.102   6.347  0.8538  0.1588  0.4103
  303MOL0     C40789   2.215   2.215   6.381 -0.4508 -0.5544 -0.0321
  303MOL0     C40790   2.279   2.356   6.370 -0.5431 -0.5933 -0.8625
  303MOL0     C40791   2.337   2.377   6.513 -0.1627 -0.2984 -0.2967
  303MOL0     C40792   2.331   2.516   6.579  0.2711  0.0518  0.6743
  303MOL0     C40793   2.191   2.536   6.626  1.1914 -0.5114 -0.3885
  303MOL0     O40794   2.155   2.456   6.740 -0.1282 -0.1055  0.2160
  303MOL0     C40795   2.231   2.469   6.854  0.3265 -0.8114  0.2786
  303MOL0     C40796   2.248   2.356   6.938  0.3659 -0.1640 -0.0276
  303MOL0     C40797   2.321   2.359   7.058  0.8644  0.4358 -0.2813
  303MOL0     C40798   2.335   2.228   7.132  0.5177  0.1762 -1.2266
  303MOL0     C40799   2.361   2.489   7.107 -0.3430  0.6275 -0.6879
  303MOL0     C40800   2.427   2.524   7.239  0.1280  0.5089 -0.3732
  303MOL0     O40801   2.390   2.442   7.341 -0.5944 -0.1115  0.2414
  303MOL0     C40802   2.457   2.463   7.462 -0.3436  0.2527 -0.0149
  303MOL0     C40803   2.558   2.370   7.505 -1.2222 -0.3601  0.3216
  303MOL0     C40804   2.636   2.394   7.622  0.1182 -0.2472 -0.4079
  303MOL0     C40805   2.615   2.508   7.705  0.5218  0.5185 -0.5684
  303MOL0     O40806   2.683   2.545   7.818  0.1071 -0.1239  0.8268
  303MOL0     C40807   2.829   2.520   7.820 -0.1380  0.1363 -0.5397
  303MOL0     C40808   2.889   2.564   7.959 -0.2772 -0.0381  0.0966
  303MOL0     C40809   3.014   2.473   7.984 -0.3753  0.7150 -0.1055
  303MOL0     C40810   3.079   2.510   8.120 -0.1821  0.0627  0.6507
  303MOL0     C40811   3.178   2.398   8.150  0.3491  0.1096  0.0766
  303MOL0     C40812   3.247   2.435   8.281 -0.7120 -0.2131 -0.4066
  303MOL0     C40813   3.371   2.357   8.305 -0.7099  0.3159  0.3548
  303MOL0     C40814   3.421   2.362   8.460  0.1688  0.4073 -0.9209
  303MOL0    Cl40815   3.302   2.302   8.588 -0.1159 -0.0183  0.2923
  303MOL0     C40816   2.508   2.588   7.667 -0.4103 -0.3826  0.8421
  303MOL0     C40817   2.427   2.562   7.549  1.2033  0.0284  0.0644
  303MOL0     O40818   2.479   2.634   7.254 -0.3989 -0.9812 -0.1095
  303MOL0     C40819   2.344   2.599   7.018 -0.6664  0.2155  0.1783
  303MOL0     C40820   2.283   2.593   6.894  1.0624  0.4008 -1.1487
  303MOL0     N40821   2.084   2.198   6.424  0.4327  0.2652  0.5891
  303MOL0     N40822   2.063   2.070   6.419  0.4597 -0.2166  0.7364
  303MOL0     C40823   2.197   2.090   7.489  0.4517  0.2053 -0.5077
  303MOL0     C40824   2.263   2.110   7.609  0.1348 -1.1023  0.1439
  303MOL0     C40825   2.633   2.124   7.899 -0.8085  0.4928  0.3931
  303MOL0     C40826   2.569   2.218   7.982  0.0175  0.3541 -0.4979
  303MOL0     C40827   2.632   2.284   8.094  0.7854 -0.0259  0.0382
  303MOL0     C40828   2.759   2.240   8.142  0.5613 -0.0199  0.3137
  303MOL0     O40829   2.815   2.293   8.261 -0.5689 -0.1486  0.2243
  303MOL0     C40830   2.723   2.298   8.370  0.1974 -0.0951 -0.0228
  303MOL0     C40831   2.793   2.306   8.507  0.0020 -0.0801 -0.0688
  303MOL0     C40832   2.921   2.222   8.514 -0.3990  0.5029  0.3690
  303MOL0     C40833   2.916   2.069   8.502 -0.2395 -0.1883  0.4175
  303MOL0     C40834   2.813   2.018   8.593  0.6081  0.6201  0.1702
  303MOL0     C40835   2.731   1.956   8.662  0.1278 -0.3233  0.8322
  303MOL0     C40836   2.822   2.153   8.054 -0.8888  0.4409  0.1713
  303MOL0     C40837   2.765   2.097   7.937 -0.2415 -0.3483  0.1428
  303MOL0     H40838   2.475   1.837   7.614 -1.8582 -1.8018  0.5458
  303MOL0     H40839   2.327   1.779   7.428  1.4542 -0.6743  1.0442
  303MOL0     H40840   2.298   1.952   7.189  0.1499 -1.1560 -0.9337
  303MOL0     H40841   2.231   1.794   7.208  0.3936 -0.3155 -2.8728
  303MOL0     H40842   2.022   1.854   7.123  1.2965 -0.8343  0.1394
  303MOL0     H40843   2.078   2.017   7.065  0.5066  0.8454 -0.7135
  303MOL0     H40844   2.270   1.891   6.950 -0.3677 -1.8021  0.8117
  303MOL0     H40845   2.180   1.757   6.939  3.9082 -0.0385 -0.9335
  303MOL0     H40846   1.971   1.924   6.865 -0.4260  3.8321 -1.2863
  303MOL0     H40847   2.101   2.035   6.840  0.9224  0.0996 -0.2983
  303MOL0     H40848   2.110   1.766   6.695 -2.0573  0.7213  1.0272
  303MOL0     H40849   2.037   1.901   6.630  1.0475  2.0465  0.3152
  303MOL0     H40850   2.253   2.032   6.638  0.7477  0.7451  1.1812
  303MOL0     H40851   2.323   1.898   6.729 -0.1366 -2.2583 -1.8046
  303MOL0     H40852   2.399   1.856   6.496 -0.3046  1.7377 -0.4450
  303MOL0     H40853   2.299   1.734   6.557  0.4753 -0.8848 -1.5715
  303MOL0     H40854   2.104   1.812   6.442 -0.1093 -0.4839  0.5486
  303MOL0     H40855   2.246   1.808   6.333 -0.8581  2.0303 -3.3136
  303MOL0     H40856   2.375   2.087   6.313  0.8594 -1.6575  1.1148
  303MOL0     H40857   2.364   2.367   6.303  2.9414  0.1507  3.2666
  303MOL0     H40858   2.208   2.434   6.339  0.5646 -0.2523 -2.6457
  303MOL0     H40859   2.443   2.353   6.502  0.9670  3.6863  0.3216
  303MOL0     H40860   2.296   2.304   6.584  1.3456  0.2358  1.1773
  303MOL0     H40861   2.352   2.588   6.499 -0.7328  0.1042  0.4366
  303MOL0     H40862   2.407   2.527   6.656  0.9321  0.9581 -0.0819
  303MOL0     H40863   2.127   2.508   6.541 -3.7512  0.4744  2.6076
  303MOL0     H40864   2.176   2.641   6.649  0.8597 -0.6480  0.0369
  303MOL0     H40865   2.214   2.267   6.885 -0.9715 -0.0262  0.5717
  303MOL0     H40866   2.305   2.143   7.071 -2.8949 -1.8860  2.8288
  303MOL0     H40867   2.438   2.200   7.155  0.3375  0.3268 -0.2032
  303MOL0     H40868   2.270   2.223   7.219  1.9328  0.7794 -0.0872
  303MOL0     H40869   2.572   2.284   7.440  0.4599  0.0451  0.1005
  303MOL0     H40870   2.696   2.310   7.653 -1.3445 -0.4786  2.0619
  303MOL0     H40871   2.847   2.415   7.794 -1.6413 -0.0696 -0.8810
  303MOL0     H40872   2.862   2.587   7.740 -0.9784  0.3511 -0.7260
  303MOL0     H40873   2.917   2.669   7.958 -0.9612  0.1646  0.6351
  303MOL0     H40874   2.804   2.557   8.028 -3.3601 -0.4156 -3.4269
  303MOL0     H40875   3.077   2.467   7.895 -1.8674 -0.6812 -1.1286
  303MOL0     H40876   2.982   2.369   7.981  1.0895  0.2409 -3.3982
  303MOL0     H40877   3.133   2.605   8.109  3.6153 -2.1256 -2.4888
  303MOL0     H40878   3.008   2.514   8.203 -1.2162 -1.6095 -0.1074
  303MOL0     H40879   3.256   2.397   8.074  1.3765  1.7547  1.0434
  303MOL0     H40880   3.138   2.296   8.147 -0.3662  0.3892 -0.0612
  303MOL0     H40881   3.271   2.542   8.285  1.4124 -0.4361 -3.9249
  303MOL0     H40882   3.186   2.397   8.364 -0.8354 -1.3522 -1.0058
  303MOL0     H40883   3.452   2.386   8.237  3.9762  0.3847  5.2379
  303MOL0     H40884   3.357   2.249   8.290  3.2039 -0.1835 -0.9200
  303MOL0     H40885   3.447   2.464   8.489 -0.1804  0.1206  0.4623
  303MOL0     H40886   3.504   2.293   8.477 -0.9508 -0.6862  0.3439
  303MOL0     H40887   2.498   2.678   7.727  1.6754  0.3090  0.2121
  303MOL0     H40888   2.355   2.637   7.517  1.9730  1.2126  1.0291
  303MOL0     H40889   2.390   2.694   7.043  2.2858 -0.4590 -2.1020
  303MOL0     H40890   2.277   2.684   6.835 -0.1075 -0.5652 -2.5875
  303MOL0     H40891   2.119   2.159   7.457  0.4544  0.0857 -0.7732
  303MOL0     H40892   2.247   2.202   7.663 -1.0822  0.8098 -3.1777
  303MOL0     H40893   2.474   2.253   7.945 -0.3556  0.2500  0.3407
  303MOL0     H40894   2.580   2.364   8.145 -0.2015  1.2929 -2.8282
  303MOL0     H40895   2.648   2.377   8.360 -0.3617 -0.3557  1.7270
  303MOL0     H40896   2.666   2.205   8.367 -2.1145  1.2315  0.3667
  303MOL0     H40897   2.714   2.294   8.581 -1.8067 -0.6851 -1.9981
  303MOL0     H40898   2.827   2.410   8.507  1.3983 -0.5082 -0.4825
  303MOL0     H40899   2.952   2.244   8.617  3.9325  0.0079 -0.6190
  303MOL0     H40900   2.990   2.261   8.438  0.0198 -2.9155 -1.1838
  303MOL0     H40901   3.012   2.018   8.514 -1.7682 -3.1365  1.0975
  303MOL0     H40902   2.873   2.044   8.404  0.1697  1.9140 -0.3662
  303MOL0     H40903   2.662   1.902   8.725 -1.5183 -2.2991 -2.4216
  303MOL0     H40904   2.923   2.133   8.089  0.0064  2.0099 -1.3089
  303MOL0     H40905   2.828   2.020   7.894  1.6211  0.7398  0.8136
  304MOL0     O40906   4.516   1.972   8.536  0.3506  0.2247  0.2654
  304MOL0     C40907   4.582   1.871   8.544 -0.2424 -0.7201 -0.1831
  304MOL0     O40908   4.694   1.862   8.622 -0.4081  0.5078 -0.6452
  304MOL0     C40909   4.727   1.964   8.711 -0.0297  0.4718  0.0355
  304MOL0     C40910   4.644   2.015   8.812  0.7245 -0.2340 -0.2275
  304MOL0     C40911   4.686   2.120   8.893 -0.3119 -0.3526  0.3128
  304MOL0     C40912   4.823   2.167   8.890 -0.3071  0.1765  0.7926
  304MOL0     O40913   4.887   2.234   8.985 -0.4864  0.0109 -0.7183
  304MOL0     C40914   4.856   2.204   9.119 -0.8365  0.0169  0.2733
  304MOL0     C40915   4.991   2.215   9.202  0.5181  0.9181 -0.3645
  304MOL0     C40916   5.025   2.364   9.205 -0.0818 -0.0743 -0.9768
  304MOL0     C40917   5.130   2.406   9.314  0.9670 -0.6101  0.3768
  304MOL0     C40918   5.275   2.374   9.283  0.2244  0.9772  0.3994
  304MOL0     C40919   5.322   2.240   9.344 -0.1905 -0.6289  0.1736
  304MOL0     C40920   5.467   2.185   9.309 -0.2687 -0.3664  0.2289
  304MOL0     C40921   5.489   2.041   9.372  0.0363 -0.5686  0.0809
  304MOL0     N40922   5.625   2.000   9.349 -0.3093 -0.1512 -0.1588
  304MOL0     C40923   5.723   1.992   9.445  0.6615  0.1790 -0.9784
  304MOL0     C40924   5.818   1.912   9.392 -1.1157  0.0433  0.3316
  304MOL0     C40925   5.951   1.883   9.437 -0.4456  0.3958 -0.1103
  304MOL0     C40926   5.976   1.730   9.454 -0.1460  0.2430  0.2398
  304MOL0     C40927   6.078   1.714   9.562  0.0018 -0.4244 -0.0140
  304MOL0     C40928   6.142   1.576   9.555 -0.7307  1.1699  0.1441
  304MOL0     O40929   6.245   1.584   9.653  0.0196  0.0139 -0.5516
  304MOL0     C40930   6.282   1.478   9.726  1.3528 -0.2941 -0.4636
  304MOL0     C40931   6.361   1.498   9.839  0.1999 -0.5420 -0.6138
  304MOL0     C40932   6.394   1.387   9.925  0.4907 -0.7144  0.9035
  304MOL0     C40933   6.463   1.430  10.055 -0.4327 -0.2183  0.3614
  304MOL0     C40934   6.361   1.256   9.887 -0.0151 -0.4274  0.1319
  304MOL0     C40935   6.393   1.141   9.972 -0.1726 -0.1594 -0.9291
  304MOL0     O40936   6.380   1.022   9.909  0.6139  0.2669 -0.8315
  304MOL0     C40937   6.416   0.904   9.972  0.6539 -0.3982 -0.6279
  304MOL0     C40938   6.536   0.842   9.943  0.0867  0.0887  1.1129
  304MOL0     C40939   6.576   0.724   9.993  0.0677 -0.3507  0.5815
  304MOL0     C40940   6.506   0.656  10.082 -0.8242 -0.5301 -0.1424
  304MOL0     O40941   6.554   0.541  10.144 -0.0479 -0.6279 -1.0550
  304MOL0     C40942   6.610   0.441  10.067 -0.0333 -0.1982  0.3975
  304MOL0     C40943   6.673   0.325  10.153 -0.5200  0.2663  0.3014
  304MOL0     C40944   6.790   0.365  10.249 -0.1881  0.5635  0.4407
  304MOL0     C40945   6.833   0.244  10.318 -0.1721  0.2110  0.3252
  304MOL0     C40946   6.960   0.268  10.405 -0.1953  0.2138 -0.2858
  304MOL0     C40947   7.012   0.140  10.470 -0.1077  0.1148  0.0922
  304MOL0     C40948   7.146   0.165  10.549 -0.4110  0.4110 -0.6711
  304MOL0     C40949   7.158   0.054  10.657  1.0637  0.4454 -0.2596
  304MOL0    Cl40950   7.266   0.102  10.803  0.3923  0.4019 -0.3000
  304MOL0     C40951   6.387   0.712  10.133  0.3629 -0.3416 -0.3280
  304MOL0     C40952   6.346   0.839  10.079 -0.9118 -0.5149 -0.5163
  304MOL0     O40953   6.457   1.155  10.079 -1.0033 -0.0397  0.1437
  304MOL0     C40954   6.280   1.240   9.773 -0.1315  0.2413  0.1865
  304MOL0     C40955   6.238   1.350   9.699 -0.7945  0.4673  0.0712
  304MOL0     N40956   5.768   1.869   9.268 -0.6895  0.2944  0.1043
  304MOL0     N40957   5.656   1.918   9.245  0.0583 -0.1151 -0.1086
  304MOL0     C40958   4.907   2.108   8.790  0.1983 -0.0274 -0.4488
  304MOL0     C40959   4.862   2.008   8.707 -0.8060  0.2908  0.0734
  304MOL0     C40960   4.533   1.758   8.468  0.5761  0.7741  0.0612
  304MOL0     C40961   4.561   1.623   8.501 -0.5706 -0.1007  0.0171
  304MOL0     C40962   4.522   1.516   8.422  0.7754  0.2837  0.1343
  304MOL0     C40963   4.444   1.540   8.307  0.3288 -0.7773 -0.7184
  304MOL0     O40964   4.407   1.445   8.226  0.5670  0.1467  0.4314
  304MOL0     C40965   4.417   1.303   8.235  0.4757 -0.9086 -1.0755
  304MOL0     C40966   4.341   1.244   8.356 -0.8317 -0.4151  0.0590
  304MOL0     C40967   4.191   1.245   8.319  0.5005 -0.1336  0.0424
  304MOL0     C40968   4.106   1.181   8.426 -0.2754  0.4371 -0.4032
  304MOL0     C40969   3.962   1.185   8.385 -0.3257  0.6180  0.8513
  304MOL0     C40970   3.850   1.180   8.343  0.7766 -0.5442  0.0075
  304MOL0     C40971   4.406   1.673   8.275  0.3671 -0.5748  0.7225
  304MOL0     C40972   4.452   1.777   8.357 -0.1523 -0.9109  0.3689
  304MOL0     H40973   4.539   1.988   8.818  0.3437  0.9403 -1.3016
  304MOL0     H40974   4.626   2.176   8.964  1.7186  4.2032 -1.1780
  304MOL0     H40975   4.796   2.279   9.171 -0.1424 -1.1602  2.9586
  304MOL0     H40976   4.812   2.105   9.129  0.3690 -0.6242 -0.4730
  304MOL0     H40977   4.978   2.179   9.304  1.2252 -1.9858 -1.1815
  304MOL0     H40978   5.078   2.176   9.147 -0.1535  1.0584 -1.5655
  304MOL0     H40979   5.053   2.397   9.104 -0.5283 -0.6571 -1.3002
  304MOL0     H40980   4.944   2.431   9.235  0.9490  1.5911 -1.7534
  304MOL0     H40981   5.131   2.515   9.327 -2.3747 -0.2074 -1.5263
  304MOL0     H40982   5.105   2.374   9.415  0.5487  1.6893  1.0547
  304MOL0     H40983   5.291   2.365   9.175  1.5254 -4.0165  0.7831
  304MOL0     H40984   5.338   2.455   9.321  0.0366  1.4468 -0.2675
  304MOL0     H40985   5.336   2.250   9.452  1.8758 -1.8148  0.0634
  304MOL0     H40986   5.243   2.168   9.321 -0.5723 -0.0158 -0.4615
  304MOL0     H40987   5.474   2.175   9.200 -0.3952 -3.3342  0.4077
  304MOL0     H40988   5.550   2.248   9.340 -1.0093  0.4850  0.5101
  304MOL0     H40989   5.418   1.976   9.321 -2.1829  2.0127 -0.3025
  304MOL0     H40990   5.446   2.041   9.472 -2.7797  0.2231 -1.0418
  304MOL0     H40991   5.728   2.034   9.545  0.9811 -2.3789  0.1580
  304MOL0     H40992   6.021   1.920   9.363 -0.1642 -0.8756 -0.5061
  304MOL0     H40993   5.968   1.941   9.528 -2.4513  0.7398  0.0980
  304MOL0     H40994   6.019   1.691   9.361  0.9540 -1.8516  1.5551
  304MOL0     H40995   5.883   1.680   9.481 -0.7389  1.1724 -0.0260
  304MOL0     H40996   6.021   1.735   9.653 -1.9939  0.8879 -1.4809
  304MOL0     H40997   6.165   1.780   9.552 -0.9989  0.8764 -0.4431
  304MOL0     H40998   6.176   1.551   9.454 -3.3551  1.8822 -0.9908
  304MOL0     H40999   6.064   1.505   9.583 -1.2053  1.6684  0.0846
  304MOL0     H41000   6.412   1.593   9.849  5.1819 -2.8371 -1.1242
  304MOL0     H41001   6.560   1.380  10.057 -1.1782 -1.6996  0.4066
  304MOL0     H41002   6.470   1.540  10.060 -3.4682  0.1595 -1.4072
  304MOL0     H41003   6.408   1.394  10.143  0.8380 -2.6366  0.2419
  304MOL0     H41004   6.591   0.893   9.865 -1.8147 -1.2537 -1.2435
  304MOL0     H41005   6.672   0.683   9.962 -0.2509 -2.4050  2.0709
  304MOL0     H41006   6.527   0.410  10.002 -0.2706  1.1815  0.0101
  304MOL0     H41007   6.689   0.469   9.995  0.6433 -0.1861  1.1313
  304MOL0     H41008   6.600   0.265  10.207  0.6411 -0.1763  1.4340
  304MOL0     H41009   6.714   0.251  10.084 -3.7800 -1.3013 -0.1449
  304MOL0     H41010   6.760   0.446  10.316  1.6029  1.6366  0.0073
  304MOL0     H41011   6.881   0.393  10.196  1.0177 -1.9225  1.0239
  304MOL0     H41012   6.750   0.227  10.387 -0.5435  0.7371  0.0127
  304MOL0     H41013   6.836   0.153  10.257  0.2644  0.7680 -0.4976
  304MOL0     H41014   6.931   0.325  10.494  1.1699  0.3218  0.1046
  304MOL0     H41015   7.030   0.338  10.359 -0.3979 -1.0478 -2.6437
  304MOL0     H41016   6.935   0.117  10.545 -0.1470 -5.4299 -1.2126
  304MOL0     H41017   7.008   0.050  10.408 -0.3922  0.8946 -1.0524
  304MOL0     H41018   7.164   0.269  10.578 -0.8976  0.5302 -0.7935
  304MOL0     H41019   7.238   0.157  10.489  0.2903  0.1073  0.4107
  304MOL0     H41020   7.196  -0.036  10.608 -1.0939  0.5630 -2.2851
  304MOL0     H41021   7.060   0.030  10.698  1.0557  0.9355  0.0293
  304MOL0     H41022   6.340   0.666  10.219  2.2274 -1.7202  0.0283
  304MOL0     H41023   6.261   0.891  10.123  0.4261  2.1255 -0.8812
  304MOL0     H41024   6.240   1.144   9.742 -3.1395  1.6000 -0.4967
  304MOL0     H41025   6.170   1.336   9.616  1.0988  1.9229 -1.8493
  304MOL0     H41026   5.011   2.140   8.791  0.5206 -0.9719 -1.5467
  304MOL0     H41027   4.928   1.964   8.634 -2.0229 -1.7259  0.1028
  304MOL0     H41028   4.622   1.601   8.589  0.5889 -1.1438 -1.0093
  304MOL0     H41029   4.562   1.421   8.456  1.3922  0.6569  0.4768
  304MOL0     H41030   4.381   1.251   8.146  1.3982 -3.1316 -0.2144
  304MOL0     H41031   4.523   1.281   8.250  0.9803  1.2631 -1.1022
  304MOL0     H41032   4.351   1.301   8.449  1.6279  0.8478 -0.8892
  304MOL0     H41033   4.386   1.145   8.365 -0.2547  0.0399  3.8208
  304MOL0     H41034   4.163   1.195   8.226  0.2624 -0.0233  0.0550
  304MOL0     H41035   4.162   1.349   8.300 -0.5301 -0.5148 -0.5707
  304MOL0     H41036   4.116   1.232   8.522 -0.6140 -0.0705 -0.0931
  304MOL0     H41037   4.138   1.077   8.438  0.5071  0.6240 -0.7879
  304MOL0     H41038   3.752   1.192   8.301  2.0291  1.2958 -2.6188
  304MOL0     H41039   4.349   1.699   8.186 -1.7499 -1.8299  1.6403
  304MOL0     H41040   4.422   1.878   8.334 -1.3225 -1.6364 -1.5902
  305MOL0     O41041   7.500  10.099   0.253 -0.2662  0.4196 -0.2074
  305MOL0     C41042   7.461  10.122   0.370 -0.6928 -0.5496  0.1998
  305MOL0     O41043   7.351  10.077   0.432  0.2312  0.6078  0.0108
  305MOL0     C41044   7.284   9.965   0.383 -0.5657 -0.3906 -0.1218
  305MOL0     C41045   7.295   9.900   0.254  0.4258 -0.5250 -0.5481
  305MOL0     C41046   7.233   9.771   0.242  0.6266  1.1136 -0.5517
  305MOL0     C41047   7.153   9.716   0.348  0.2604  0.4009  0.5233
  305MOL0     O41048   7.087   9.597   0.332 -0.1157 -0.6237  0.1467
  305MOL0     C41049   7.159   9.480   0.292  0.2664 -0.7759  0.1267
  305MOL0     C41050   7.262   9.443   0.406  0.2278 -0.7633  1.0033
  305MOL0     C41051   7.323   9.304   0.373  0.1273 -0.2854  0.5389
  305MOL0     C41052   7.414   9.293   0.256  0.3609 -0.6481 -0.8106
  305MOL0     C41053   7.442   9.150   0.219 -0.7157 -0.2149  0.2958
  305MOL0     C41054   7.564   9.139   0.126  0.1842 -0.4218 -0.3230
  305MOL0     C41055   7.537   9.208  -0.011 -0.0365 -1.1135  0.4614
  305MOL0     C41056   7.668   9.237  -0.090  0.3015  1.0689 -0.6770
  305MOL0     N41057   7.630   9.276  -0.224 -0.0197  0.8906  1.3220
  305MOL0     C41058   7.590   9.402  -0.266  0.6499 -0.2205 -0.2856
  305MOL0     C41059   7.535   9.387  -0.387  0.4968  0.2368 -0.3890
  305MOL0     C41060   7.480   9.501  -0.457 -0.1674  0.7892  0.4362
  305MOL0     C41061   7.416   9.477  -0.597  0.6755 -0.5171  0.0676
  305MOL0     C41062   7.370   9.602  -0.651  0.1778 -0.1129 -0.0459
  305MOL0     C41063   7.294   9.583  -0.781 -1.0115  0.3978  0.4458
  305MOL0     O41064   7.265   9.715  -0.837  0.1539 -0.2146  0.4178
  305MOL0     C41065   7.145   9.746  -0.875 -0.1353  0.1329 -0.2144
  305MOL0     C41066   7.071   9.664  -0.964 -0.9267 -0.2358  0.0634
  305MOL0     C41067   6.937   9.691  -1.007 -0.2630 -0.1675 -0.7989
  305MOL0     C41068   6.881   9.614  -1.127  0.0413  0.1603  0.1750
  305MOL0     C41069   6.886   9.813  -0.965  0.1585  0.3185  0.1736
  305MOL0     C41070   6.753   9.855  -1.022  0.1185  0.1913  0.5966
  305MOL0     O41071   6.750   9.983  -1.067  0.3089 -0.1337  0.0535
  305MOL0     C41072   6.642  10.018  -1.136  1.2701 -1.0417  0.4495
  305MOL0     C41073   6.614   9.963  -1.259  0.1861  0.5748  0.9842
  305MOL0     C41074   6.519  10.009  -1.346  0.1231 -0.1698 -0.0476
  305MOL0     C41075   6.425  10.099  -1.298 -0.0315  0.4318 -0.0370
  305MOL0     O41076   6.315  10.133  -1.381 -0.0278 -0.0716  0.3639
  305MOL0     C41077   6.194  10.169  -1.319  0.6075 -0.7302  0.1752
  305MOL0     C41078   6.094  10.206  -1.426  0.3256 -0.3899  0.4038
  305MOL0     C41079   6.144  10.322  -1.516 -0.1281 -0.4307 -0.2335
  305MOL0     C41080   6.038  10.339  -1.629 -0.2447  0.4254  0.3702
  305MOL0     C41081   5.929  10.445  -1.595 -0.3275 -0.6429 -0.3359
  305MOL0     C41082   5.815  10.448  -1.696  1.0280  0.0096 -0.2713
  305MOL0     C41083   5.716  10.568  -1.696  0.1944 -0.1288  0.3078
  305MOL0     C41084   5.587  10.542  -1.781 -0.1601  0.7783  0.0034
  305MOL0    Cl41085   5.639  10.512  -1.959  0.0242  0.1007 -0.0270
  305MOL0     C41086   6.438  10.144  -1.160 -0.6230 -0.5966  0.1027
  305MOL0     C41087   6.555  10.114  -1.086 -0.0617  0.1109  0.1020
  305MOL0     O41088   6.661   9.775  -0.998 -0.4917 -0.3897  0.7842
  305MOL0     C41089   6.954   9.902  -0.872  0.2265  0.2902  0.2008
  305MOL0     C41090   7.085   9.866  -0.837  0.6186 -0.5275 -0.8347
  305MOL0     N41091   7.542   9.250  -0.422  0.6166 -0.0076 -0.0321
  305MOL0     N41092   7.595   9.187  -0.326 -0.2726  0.4254  0.0842
  305MOL0     C41093   7.132   9.780   0.466 -0.3871 -0.2637  0.0231
  305MOL0     C41094   7.210   9.897   0.486 -0.3372  0.7510 -0.0980
  305MOL0     C41095   7.541  10.213   0.450 -0.4263 -0.3493  0.3886
  305MOL0     C41096   7.678  10.243   0.429 -0.4389 -0.1943  0.0604
  305MOL0     C41097   7.750  10.341   0.504 -0.3810  0.7027  0.3349
  305MOL0     C41098   7.687  10.414   0.606  0.0883 -0.5841  0.0133
  305MOL0     O41099   7.753  10.512   0.684 -0.0713  0.5184 -0.9253
  305MOL0     C41100   7.788  10.465   0.815  0.2196 -0.2382 -0.5706
  305MOL0     C41101   7.829  10.591   0.903 -0.4671  0.2905  0.0952
  305MOL0     C41102   7.735  10.667   0.984 -0.2731 -0.1650 -0.5842
  305MOL0     C41103   7.638  10.763   0.918  0.5404 -0.4557  0.1108
  305MOL0     C41104   7.704  10.875   0.865 -0.5052 -0.0616  0.1500
  305MOL0     C41105   7.767  10.974   0.823 -0.2863  0.8525  0.8094
  305MOL0     C41106   7.547  10.381   0.637  0.3947  0.4262 -0.2677
  305MOL0     C41107   7.477  10.288   0.556  0.2255  0.7415 -0.1813
  305MOL0     H41108   7.350   9.950   0.175  1.2365  3.0747  2.0459
  305MOL0     H41109   7.226   9.715   0.149 -3.3884 -1.9495  1.2989
  305MOL0     H41110   7.083   9.401   0.292 -0.8680  0.2635 -1.4031
  305MOL0     H41111   7.205   9.490   0.193 -0.1592  0.5041  0.0406
  305MOL0     H41112   7.332   9.527   0.416  0.1558 -0.0814 -2.8056
  305MOL0     H41113   7.213   9.448   0.503 -0.0609  3.4873  0.8409
  305MOL0     H41114   7.382   9.278   0.461  0.3377  2.3847  1.2796
  305MOL0     H41115   7.245   9.228   0.361  0.5548 -0.3612 -2.4928
  305MOL0     H41116   7.375   9.352   0.173 -0.0632  0.5194  0.1931
  305MOL0     H41117   7.506   9.345   0.285  0.9278 -1.7239 -0.6462
  305MOL0     H41118   7.472   9.105   0.315 -0.5191 -1.3768 -0.2935
  305MOL0     H41119   7.346   9.103   0.193 -0.2141  0.1726 -2.4803
  305MOL0     H41120   7.654   9.188   0.167  1.2890 -0.3227 -2.7314
  305MOL0     H41121   7.588   9.033   0.126 -3.0935 -1.2883  1.3293
  305MOL0     H41122   7.473   9.144  -0.073 -0.1718  1.4040 -2.2198
  305MOL0     H41123   7.471   9.296  -0.011 -1.2731 -2.0092  0.6705
  305MOL0     H41124   7.732   9.149  -0.085  1.5002  1.9770  1.4895
  305MOL0     H41125   7.724   9.318  -0.041 -0.9162  0.1892  2.4322
  305MOL0     H41126   7.593   9.496  -0.213 -0.1375  0.4334 -1.3719
  305MOL0     H41127   7.399   9.551  -0.404  0.4379  3.2109 -0.7728
  305MOL0     H41128   7.557   9.577  -0.473  0.2368 -0.3018 -4.1418
  305MOL0     H41129   7.325   9.419  -0.579 -2.7778  3.6621 -1.9927
  305MOL0     H41130   7.478   9.429  -0.673 -1.9280 -0.6650 -2.1138
  305MOL0     H41131   7.450   9.670  -0.681  1.8314 -2.6540 -1.8040
  305MOL0     H41132   7.298   9.648  -0.582 -1.1109  0.3388 -1.6151
  305MOL0     H41133   7.207   9.518  -0.769  1.2381 -2.6034  2.2100
  305MOL0     H41134   7.353   9.517  -0.847  1.2372  2.1227  0.6123
  305MOL0     H41135   7.111   9.569  -0.999 -1.2231 -0.5880  0.6823
  305MOL0     H41136   6.906   9.508  -1.138  0.0123 -0.3271  3.5677
  305MOL0     H41137   6.775   9.590  -1.111  0.3242  0.1270  2.4173
  305MOL0     H41138   6.895   9.669  -1.220 -3.3023 -1.2145 -1.2818
  305MOL0     H41139   6.682   9.887  -1.298  0.8392  0.7321  1.7714
  305MOL0     H41140   6.511   9.985  -1.451 -1.8506 -1.0290  0.2634
  305MOL0     H41141   6.145  10.097  -1.252 -2.7825  2.2498  1.1943
  305MOL0     H41142   6.210  10.256  -1.254 -1.8676 -0.6287  0.7573
  305MOL0     H41143   6.069  10.117  -1.484 -1.2348  0.8869 -0.9698
  305MOL0     H41144   6.001  10.234  -1.375  0.2827 -0.0444  0.1341
  305MOL0     H41145   6.237  10.288  -1.564 -1.5115 -1.8006 -2.0889
  305MOL0     H41146   6.175  10.412  -1.462 -2.5295 -1.6009  3.4082
  305MOL0     H41147   6.090  10.379  -1.716 -2.8627  1.6647 -0.7355
  305MOL0     H41148   6.000  10.242  -1.660  0.0244 -0.6006  2.9889
  305MOL0     H41149   5.988  10.537  -1.607 -0.7972 -0.5543 -2.2558
  305MOL0     H41150   5.903  10.441  -1.489  3.2031 -3.8790  0.6147
  305MOL0     H41151   5.853  10.427  -1.796  0.4171 -2.8378 -0.0094
  305MOL0     H41152   5.743  10.366  -1.680  0.2029  1.0347  1.7606
  305MOL0     H41153   5.755  10.664  -1.730 -2.7150  1.4512  1.1105
  305MOL0     H41154   5.681  10.581  -1.593  0.1576 -1.6093  0.5031
  305MOL0     H41155   5.511  10.617  -1.802 -0.6979  0.8275  1.9436
  305MOL0     H41156   5.548  10.442  -1.756 -1.8457 -0.1312 -5.0843
  305MOL0     H41157   6.377  10.227  -1.128  1.1022  0.2667  1.3025
  305MOL0     H41158   6.582  10.153  -0.989  2.8206 -0.0352 -0.5489
  305MOL0     H41159   6.925  10.005  -0.853  1.7621  1.6352 -3.6664
  305MOL0     H41160   7.137   9.950  -0.791  1.7668 -0.8595 -1.5056
  305MOL0     H41161   7.084   9.738   0.554 -2.1026  4.2502  1.4812
  305MOL0     H41162   7.208   9.935   0.587 -1.4818 -1.4816  0.8078
  305MOL0     H41163   7.720  10.183   0.349 -1.7914 -3.8842  1.9138
  305MOL0     H41164   7.854  10.366   0.486  0.7082 -2.1562  1.9672
  305MOL0     H41165   7.706  10.406   0.858 -0.0726  1.5883  1.5023
  305MOL0     H41166   7.871  10.396   0.800  0.3776 -0.0239 -0.6797
  305MOL0     H41167   7.895  10.657   0.846  1.2620  0.2301  1.8921
  305MOL0     H41168   7.900  10.539   0.968 -0.3833 -0.4103 -0.5383
  305MOL0     H41169   7.799  10.722   1.052 -1.0468  1.2464 -0.9501
  305MOL0     H41170   7.678  10.603   1.053  0.3225  0.3433  0.3966
  305MOL0     H41171   7.572  10.804   0.995 -0.8660 -1.5513 -0.4753
  305MOL0     H41172   7.569  10.712   0.850 -2.2979  0.4527  2.1146
  305MOL0     H41173   7.808  11.067   0.788 -1.9071  1.0939 -0.5733
  305MOL0     H41174   7.494  10.424   0.722 -0.7355  0.8440 -1.1546
  305MOL0     H41175   7.371  10.273   0.573  0.3323 -2.8812 -1.7259
  306MOL0     O41176   1.519   7.719   2.517 -0.0868  0.6695 -0.7498
  306MOL0     C41177   1.482   7.838   2.523 -1.2023 -0.0925 -0.0612
  306MOL0     O41178   1.561   7.934   2.576  0.4769 -1.0444  0.2445
  306MOL0     C41179   1.645   7.920   2.681 -0.0045  0.2071  1.5992
  306MOL0     C41180   1.627   7.819   2.779  0.1353 -0.1627 -1.1229
  306MOL0     C41181   1.713   7.837   2.892  1.2151 -0.0651 -0.7261
  306MOL0     C41182   1.809   7.931   2.909 -0.4487 -0.1063 -0.8970
  306MOL0     O41183   1.895   7.936   3.015 -0.3641 -0.1037  0.1313
  306MOL0     C41184   1.857   7.899   3.151 -0.2243 -0.0275 -0.2826
  306MOL0     C41185   1.941   7.977   3.240 -0.6639 -0.1554 -0.2908
  306MOL0     C41186   1.889   7.965   3.384 -0.4120  0.1689 -0.1412
  306MOL0     C41187   1.940   8.091   3.465  0.3956  0.8884  0.1435
  306MOL0     C41188   1.863   8.113   3.598 -0.5753  0.5575 -0.2924
  306MOL0     C41189   1.828   8.263   3.632 -0.1406 -0.1622 -0.5652
  306MOL0     C41190   1.839   8.287   3.779  0.1529 -0.1332 -0.9048
  306MOL0     C41191   1.747   8.180   3.851  0.1144  0.1113  0.0451
  306MOL0     N41192   1.756   8.187   3.994  1.3629  0.0379 -0.7234
  306MOL0     C41193   1.694   8.093   4.084  0.0704 -0.2023  0.1636
  306MOL0     C41194   1.745   8.132   4.201  0.6894  0.3381 -1.3198
  306MOL0     C41195   1.703   8.055   4.330  0.5519  0.2127  0.3857
  306MOL0     C41196   1.832   7.992   4.390  0.2408 -0.1882 -0.0106
  306MOL0     C41197   1.838   7.854   4.333 -0.2053  0.7351 -0.7889
  306MOL0     C41198   1.959   7.772   4.369  0.1782 -0.2788  0.0135
  306MOL0     O41199   1.991   7.780   4.511 -0.2181  0.1679  0.3969
  306MOL0     C41200   2.089   7.691   4.542  0.3034 -0.6554 -0.1099
  306MOL0     C41201   2.224   7.730   4.544  1.6928 -1.4643  0.4005
  306MOL0     C41202   2.319   7.633   4.556  0.2864 -0.7754  0.1095
  306MOL0     C41203   2.464   7.681   4.534 -0.1665  0.9177  0.0238
  306MOL0     C41204   2.279   7.500   4.583 -0.3569 -0.8350 -0.4768
  306MOL0     C41205   2.390   7.401   4.608  0.0586  0.1804  0.1461
  306MOL0     O41206   2.385   7.333   4.729 -0.1644 -0.1579 -0.1745
  306MOL0     C41207   2.467   7.227   4.745  0.0453 -0.3926  0.4441
  306MOL0     C41208   2.547   7.240   4.848  0.6094  0.3876  0.2123
  306MOL0     C41209   2.630   7.130   4.884 -0.3800  0.1620 -0.6182
  306MOL0     C41210   2.631   7.013   4.807  0.8134  0.2395 -0.2714
  306MOL0     O41211   2.706   6.909   4.847  0.0123 -0.4795  0.1873
  306MOL0     C41212   2.744   6.805   4.758 -0.0112 -0.6560  0.0532
  306MOL0     C41213   2.850   6.732   4.834 -0.7303 -0.8978  0.2429
  306MOL0     C41214   2.941   6.654   4.746  0.3745  0.0882 -0.0734
  306MOL0     C41215   3.069   6.597   4.807 -0.0473 -0.0713 -0.6997
  306MOL0     C41216   3.042   6.464   4.877  0.8605 -0.0544  0.2727
  306MOL0     C41217   3.152   6.403   4.967  0.8080  0.0142 -0.0646
  306MOL0     C41218   3.079   6.295   5.045  0.8261 -0.6389  0.1921
  306MOL0     C41219   3.165   6.175   5.080  0.1423 -0.5654 -0.6472
  306MOL0    Cl41220   3.158   6.032   4.971  0.3917 -0.2453 -0.6055
  306MOL0     C41221   2.533   6.996   4.707 -0.4286 -0.0227  0.0447
  306MOL0     C41222   2.452   7.104   4.682 -0.6033 -1.0025  0.7739
  306MOL0     O41223   2.474   7.387   4.523 -0.1556  0.4318 -0.6549
  306MOL0     C41224   2.152   7.466   4.601 -0.0855 -0.3971  1.5469
  306MOL0     C41225   2.052   7.562   4.582  0.0676 -0.0935 -0.2488
  306MOL0     N41226   1.831   8.240   4.188 -0.4057  0.5214 -0.1583
  306MOL0     N41227   1.838   8.269   4.066 -0.3887  0.3372  0.3232
  306MOL0     C41228   1.824   8.026   2.804 -0.5851  0.3604  0.4643
  306MOL0     C41229   1.743   8.023   2.697  0.7771 -0.5351  0.3657
  306MOL0     C41230   1.357   7.880   2.452 -0.8067  0.5446 -0.0623
  306MOL0     C41231   1.254   7.788   2.414 -0.8333  0.1383  0.4143
  306MOL0     C41232   1.134   7.842   2.375  0.2269  0.3774 -0.7124
  306MOL0     C41233   1.112   7.979   2.365 -0.1284  0.2938 -0.0629
  306MOL0     O41234   0.989   8.011   2.321  0.2885 -0.2072 -0.2674
  306MOL0     C41235   0.955   8.144   2.266 -0.8494 -0.7084 -0.3231
  306MOL0     C41236   0.820   8.127   2.195 -0.7232 -0.9523 -0.7367
  306MOL0     C41237   0.709   8.086   2.295 -0.8426  0.7551  0.0242
  306MOL0     C41238   0.693   8.177   2.419  0.6056  0.9530 -0.1347
  306MOL0     C41239   0.570   8.126   2.475  0.7543 -1.0048  0.5262
  306MOL0     C41240   0.477   8.092   2.537 -0.1771  0.1828 -0.6961
  306MOL0     C41241   1.216   8.066   2.390  0.4002  0.4682 -0.2562
  306MOL0     C41242   1.332   8.022   2.439  0.6212  0.4333  1.2706
  306MOL0     H41243   1.553   7.742   2.762  0.0352 -0.1359 -0.8204
  306MOL0     H41244   1.710   7.769   2.977 -1.7148  1.7713  0.7933
  306MOL0     H41245   1.756   7.935   3.176  0.2387  0.6947  0.6283
  306MOL0     H41246   1.870   7.790   3.157  0.5942  0.1260  1.1422
  306MOL0     H41247   2.044   7.945   3.224 -0.9043 -0.9002 -0.3445
  306MOL0     H41248   1.932   8.080   3.205 -3.3575 -0.7971 -1.7201
  306MOL0     H41249   1.780   7.975   3.388 -0.7000  2.6547 -5.5570
  306MOL0     H41250   1.920   7.872   3.433 -1.6911 -0.2860 -0.1531
  306MOL0     H41251   2.047   8.075   3.477  0.4787  0.4002 -1.0812
  306MOL0     H41252   1.924   8.186   3.413  1.3060  2.7718  3.0442
  306MOL0     H41253   1.779   8.043   3.605  0.5796 -1.1267 -2.2968
  306MOL0     H41254   1.936   8.077   3.671 -1.4022  3.0220  1.8909
  306MOL0     H41255   1.898   8.335   3.588 -0.5706 -0.2562 -1.4426
  306MOL0     H41256   1.723   8.283   3.609 -0.7917 -1.1716  1.3459
  306MOL0     H41257   1.944   8.272   3.803 -0.1276  0.7990  1.0473
  306MOL0     H41258   1.808   8.390   3.797  2.2765  0.4074 -0.0391
  306MOL0     H41259   1.767   8.077   3.819  1.7452  0.5244 -0.4014
  306MOL0     H41260   1.643   8.202   3.825  0.1428  0.1903 -0.0030
  306MOL0     H41261   1.635   8.008   4.052  0.3651  0.8237 -3.5080
  306MOL0     H41262   1.658   8.123   4.403 -1.4084  0.0237 -0.5883
  306MOL0     H41263   1.635   7.972   4.308  1.8571 -0.0833 -3.1339
  306MOL0     H41264   1.815   7.985   4.498 -2.5252  0.4969 -0.3045
  306MOL0     H41265   1.922   8.053   4.379  0.9255 -1.2208 -0.2268
  306MOL0     H41266   1.829   7.863   4.224 -1.8447 -0.4169 -0.7830
  306MOL0     H41267   1.759   7.793   4.377  0.1841  1.6232  1.2594
  306MOL0     H41268   2.041   7.817   4.312 -0.5956  1.2807  0.0971
  306MOL0     H41269   1.947   7.670   4.330 -1.0051  0.0915 -0.6162
  306MOL0     H41270   2.255   7.832   4.524 -0.6895 -0.7792 -0.0573
  306MOL0     H41271   2.482   7.789   4.537  0.5775  0.8166 -0.4291
  306MOL0     H41272   2.524   7.643   4.617  0.9396  2.3180 -0.0939
  306MOL0     H41273   2.495   7.631   4.441 -2.6156 -1.2840  0.2712
  306MOL0     H41274   2.523   7.326   4.910 -2.4611  1.2591 -1.9712
  306MOL0     H41275   2.691   7.141   4.973 -3.6810 -0.3385  1.8887
  306MOL0     H41276   2.662   6.740   4.726  2.4831 -3.4203 -1.1955
  306MOL0     H41277   2.778   6.858   4.668  1.2029  4.3209  3.0286
  306MOL0     H41278   2.908   6.805   4.891 -0.9611  0.0606 -0.7045
  306MOL0     H41279   2.802   6.666   4.906  1.7468 -1.6648  1.2899
  306MOL0     H41280   2.965   6.732   4.674 -2.6309  1.7100  0.5232
  306MOL0     H41281   2.886   6.585   4.681 -0.4618 -0.3399  1.0461
  306MOL0     H41282   3.153   6.594   4.737  1.1365 -0.1377  0.6941
  306MOL0     H41283   3.100   6.671   4.882 -0.7129 -1.0985  0.6243
  306MOL0     H41284   3.005   6.392   4.803 -2.9989  1.8235  0.1181
  306MOL0     H41285   2.952   6.490   4.933  1.3357  2.0597  0.1384
  306MOL0     H41286   3.240   6.364   4.915  0.9592 -0.1862  0.3426
  306MOL0     H41287   3.190   6.479   5.036  1.3211 -0.1304 -0.1856
  306MOL0     H41288   2.994   6.260   4.987  0.1947  0.0399  0.6980
  306MOL0     H41289   3.045   6.339   5.139  1.6717 -0.8460  0.6087
  306MOL0     H41290   3.117   6.134   5.170 -1.1896 -0.4162 -1.2810
  306MOL0     H41291   3.269   6.200   5.103 -0.8902  1.6170  2.3368
  306MOL0     H41292   2.512   6.904   4.655  1.5447 -0.2589 -0.4029
  306MOL0     H41293   2.372   7.098   4.608 -1.6292  4.2924  1.0732
  306MOL0     H41294   2.124   7.362   4.612  2.0242 -2.0683 -4.7411
  306MOL0     H41295   1.950   7.527   4.576 -1.3204  2.7543  2.9918
  306MOL0     H41296   1.904   8.100   2.798  1.1110 -1.4532 -0.4878
  306MOL0     H41297   1.765   8.097   2.620 -2.2704  2.8098  2.3846
  306MOL0     H41298   1.257   7.680   2.428  1.3619 -0.0873 -1.1589
  306MOL0     H41299   1.045   7.783   2.356 -0.0158  0.6198 -0.3523
  306MOL0     H41300   0.953   8.225   2.339  0.6177  1.5229 -2.5913
  306MOL0     H41301   1.034   8.182   2.199 -0.5336  0.9332  0.9072
  306MOL0     H41302   0.831   8.053   2.115  0.1407 -0.2840 -1.2497
  306MOL0     H41303   0.794   8.228   2.161 -2.3135 -1.4988 -1.2459
  306MOL0     H41304   0.735   7.987   2.334 -0.4057 -0.0095 -2.0798
  306MOL0     H41305   0.613   8.075   2.244 -0.4121 -0.7399 -0.5273
  306MOL0     H41306   0.671   8.280   2.390 -1.8879  1.3942  2.7808
  306MOL0     H41307   0.773   8.180   2.493  1.0571 -2.2276 -0.3621
  306MOL0     H41308   0.397   8.057   2.599  0.5934  0.8168  0.7029
  306MOL0     H41309   1.198   8.168   2.358 -3.3212 -0.3310 -1.1963
  306MOL0     H41310   1.408   8.089   2.477  1.1556  1.1015 -0.8685
  307MOL0     O41311   8.320   9.550   1.926  0.6793 -0.2761  0.7988
  307MOL0     C41312   8.310   9.616   1.823  0.2921 -0.2790  0.8275
  307MOL0     O41313   8.364   9.738   1.804  0.1857  0.1957  0.3561
  307MOL0     C41314   8.455   9.769   1.912  0.2622 -0.0099  0.4413
  307MOL0     C41315   8.567   9.690   1.947  0.0170  0.1712  0.5885
  307MOL0     C41316   8.636   9.723   2.062  0.3471 -0.4512 -0.8625
  307MOL0     C41317   8.603   9.832   2.141 -1.2843 -0.1309 -0.6266
  307MOL0     O41318   8.659   9.848   2.273  0.7723  0.0745  0.0443
  307MOL0     C41319   8.587   9.760   2.358 -0.7562  0.2741 -0.5506
  307MOL0     C41320   8.472   9.833   2.419  0.1592  0.5464  0.4003
  307MOL0     C41321   8.381   9.724   2.493  0.7846 -0.4332  0.2933
  307MOL0     C41322   8.232   9.757   2.530 -0.3614  0.1524 -0.7140
  307MOL0     C41323   8.185   9.669   2.651  0.6020 -0.0776  0.6877
  307MOL0     C41324   8.031   9.667   2.671 -0.6041 -0.2602 -0.0903
  307MOL0     C41325   7.985   9.805   2.716  0.3886 -0.4335 -0.8874
  307MOL0     C41326   8.007   9.835   2.870  0.3288  0.6225  0.0730
  307MOL0     N41327   7.954   9.965   2.908 -0.1341 -0.2652  0.9139
  307MOL0     C41328   7.825   9.990   2.938  0.1861  0.4817  0.9980
  307MOL0     C41329   7.811  10.125   2.929 -0.6167  0.9186 -0.3167
  307MOL0     C41330   7.686  10.208   2.942  0.3945 -0.3023  0.3171
  307MOL0     C41331   7.575  10.155   2.853 -0.4867 -0.0117  0.6282
  307MOL0     C41332   7.617  10.173   2.707  0.5239 -0.2765 -0.7493
  307MOL0     C41333   7.501  10.161   2.608 -0.0052  0.4938 -0.0930
  307MOL0     O41334   7.430  10.036   2.638 -0.7665 -0.4197 -0.0898
  307MOL0     C41335   7.493   9.921   2.587 -0.4322 -0.1652 -0.9287
  307MOL0     C41336   7.525   9.813   2.673  0.3788  0.1155 -0.3326
  307MOL0     C41337   7.598   9.703   2.626  0.2844 -0.8811 -0.0105
  307MOL0     C41338   7.630   9.609   2.734 -0.2536 -0.2714 -0.0344
  307MOL0     C41339   7.634   9.690   2.486  0.1402  0.1522 -0.4377
  307MOL0     C41340   7.691   9.559   2.439  0.5335  0.0935 -0.2979
  307MOL0     O41341   7.814   9.568   2.372 -0.2018 -0.2610 -1.1393
  307MOL0     C41342   7.917   9.481   2.381 -0.8979  0.0596 -0.4279
  307MOL0     C41343   8.035   9.511   2.310 -0.7028  0.0325 -0.2555
  307MOL0     C41344   8.142   9.416   2.313  0.7375 -0.0606 -0.6591
  307MOL0     C41345   8.132   9.301   2.392  0.6309 -0.5816  0.2953
  307MOL0     O41346   8.222   9.208   2.429  0.7773  0.5090  0.4936
  307MOL0     C41347   8.353   9.205   2.377  0.7199  0.4787  0.0870
  307MOL0     C41348   8.475   9.275   2.435  0.3185  0.3723  0.2428
  307MOL0     C41349   8.465   9.293   2.588  0.3092  0.5918  0.1421
  307MOL0     C41350   8.587   9.370   2.638  1.1102  0.2984 -0.1119
  307MOL0     C41351   8.639   9.319   2.772  0.1147 -0.3051  0.0411
  307MOL0     C41352   8.529   9.321   2.886 -0.8773  0.3314  1.9283
  307MOL0     C41353   8.593   9.296   3.023  0.5861 -0.9582  0.2978
  307MOL0     C41354   8.558   9.403   3.123  0.2382 -0.8232  0.0656
  307MOL0    Cl41355   8.608   9.334   3.272  0.5868  0.0188  0.3677
  307MOL0     C41356   8.018   9.273   2.464  0.5891  0.3153  0.3209
  307MOL0     C41357   7.903   9.362   2.466 -0.5733 -0.9229  0.9357
  307MOL0     O41358   7.633   9.453   2.478  0.6323  0.2192 -0.0680
  307MOL0     C41359   7.594   9.793   2.396  0.0452  0.0874 -0.2975
  307MOL0     C41360   7.536   9.915   2.449  0.2701  0.6524 -0.0101
  307MOL0     N41361   7.927  10.184   2.900 -0.2605 -0.9620 -0.0165
  307MOL0     N41362   8.016  10.079   2.877 -0.3576 -0.3324 -0.3667
  307MOL0     C41363   8.501   9.916   2.098 -0.1426 -0.0567 -0.2922
  307MOL0     C41364   8.422   9.885   1.988 -0.2048 -0.2159  0.2031
  307MOL0     C41365   8.223   9.572   1.712 -0.2177 -0.0002 -0.5881
  307MOL0     C41366   8.126   9.472   1.732 -0.5136 -0.7573  0.4798
  307MOL0     C41367   8.039   9.439   1.631  0.2533  0.1356  0.8413
  307MOL0     C41368   8.037   9.515   1.518  0.8684  0.6097 -0.0318
  307MOL0     O41369   7.941   9.494   1.416 -0.6404 -0.1463 -0.6804
  307MOL0     C41370   7.812   9.447   1.455 -0.1597 -0.4818  0.5714
  307MOL0     C41371   7.696   9.481   1.358 -0.3158  0.1481 -0.8532
  307MOL0     C41372   7.566   9.444   1.434 -0.2577  0.3113  0.0512
  307MOL0     C41373   7.442   9.544   1.409  0.9885 -0.3020 -0.1233
  307MOL0     C41374   7.435   9.608   1.280  0.5226  0.1806 -0.3302
  307MOL0     C41375   7.432   9.667   1.168 -0.1296  0.0315 -0.3657
  307MOL0     C41376   8.121   9.607   1.499 -1.1319 -0.6301 -0.4128
  307MOL0     C41377   8.228   9.635   1.585 -0.2133 -0.2183 -0.0476
  307MOL0     H41378   8.594   9.602   1.890 -3.3472 -0.2327 -0.6057
  307MOL0     H41379   8.713   9.660   2.106 -2.2028 -1.7259  2.0998
  307MOL0     H41380   8.559   9.664   2.313  1.7519 -0.9941  0.4077
  307MOL0     H41381   8.652   9.720   2.437  0.1262  1.9285 -0.3937
  307MOL0     H41382   8.502   9.907   2.494  1.2926  0.5228 -0.0220
  307MOL0     H41383   8.412   9.872   2.336  1.4414 -0.3571 -1.0111
  307MOL0     H41384   8.377   9.637   2.426 -0.8433  0.1408 -0.4222
  307MOL0     H41385   8.426   9.709   2.591  2.2819  1.3634 -0.0686
  307MOL0     H41386   8.230   9.860   2.567 -0.3150 -1.2558  3.6971
  307MOL0     H41387   8.164   9.742   2.445 -0.3873 -0.3558 -0.6057
  307MOL0     H41388   8.219   9.566   2.639 -0.1452 -0.1324 -1.1694
  307MOL0     H41389   8.240   9.701   2.740  0.7670  0.9521  0.2296
  307MOL0     H41390   7.981   9.648   2.575  0.2498  4.0043 -1.6233
  307MOL0     H41391   7.985   9.598   2.742 -1.3831  0.8375  0.5197
  307MOL0     H41392   8.040   9.882   2.660 -1.9326  1.3136 -0.8873
  307MOL0     H41393   7.878   9.810   2.697  0.0665  0.4017  0.9198
  307MOL0     H41394   8.113   9.832   2.898  0.2496 -1.2282  0.3063
  307MOL0     H41395   7.950   9.765   2.933  1.2887  2.1820  2.8877
  307MOL0     H41396   7.747   9.918   2.961 -0.5794  1.0507  0.2570
  307MOL0     H41397   7.644  10.212   3.043 -0.2341  0.0593  0.0546
  307MOL0     H41398   7.700  10.312   2.912 -0.5816 -0.0778  0.6012
  307MOL0     H41399   7.482  10.212   2.863 -1.3858 -1.0486 -1.2464
  307MOL0     H41400   7.558  10.048   2.869 -0.4436 -0.1591 -0.2882
  307MOL0     H41401   7.689  10.092   2.690  0.8769  0.1385 -1.2714
  307MOL0     H41402   7.654  10.275   2.691 -0.0887 -0.3204 -2.5931
  307MOL0     H41403   7.536  10.155   2.505  1.2348 -0.0526  0.3414
  307MOL0     H41404   7.434  10.247   2.619 -0.2315  0.2388  0.6168
  307MOL0     H41405   7.496   9.804   2.778 -1.0548 -2.4839 -0.8755
  307MOL0     H41406   7.538   9.567   2.773 -0.1423  0.6692  1.3087
  307MOL0     H41407   7.702   9.533   2.701  2.4901  2.6102 -1.3147
  307MOL0     H41408   7.680   9.668   2.812 -3.3124 -0.3497  2.1357
  307MOL0     H41409   8.051   9.596   2.244 -3.1310 -1.3618 -2.8421
  307MOL0     H41410   8.237   9.432   2.262  1.4906 -3.3944 -0.5204
  307MOL0     H41411   8.391   9.103   2.385  2.0597  1.0962  2.7190
  307MOL0     H41412   8.355   9.226   2.270  2.4403  1.7983  0.3346
  307MOL0     H41413   8.573   9.231   2.414  1.0793  2.6843 -1.3620
  307MOL0     H41414   8.471   9.375   2.392 -2.2820  0.0373 -0.4715
  307MOL0     H41415   8.447   9.191   2.623 -3.3481  1.2025  0.4494
  307MOL0     H41416   8.371   9.337   2.622  0.7789 -0.3657  2.9521
  307MOL0     H41417   8.670   9.357   2.568  0.2816  0.3974 -1.1425
  307MOL0     H41418   8.570   9.478   2.635  1.4942  0.3475 -0.5947
  307MOL0     H41419   8.724   9.382   2.800  0.3714 -0.2219 -0.8799
  307MOL0     H41420   8.672   9.216   2.761 -0.9427 -0.8628  1.6951
  307MOL0     H41421   8.484   9.420   2.883  0.9363  1.1555  0.6969
  307MOL0     H41422   8.461   9.237   2.867 -1.2944  1.0771 -0.1154
  307MOL0     H41423   8.700   9.283   3.008  0.5919  1.4940 -3.1221
  307MOL0     H41424   8.556   9.200   3.060 -1.5992  0.6414  2.6805
  307MOL0     H41425   8.451   9.426   3.130  1.3295  6.0481  1.1668
  307MOL0     H41426   8.612   9.495   3.100 -0.2700 -0.1812  1.3437
  307MOL0     H41427   8.001   9.186   2.525 -0.0621  0.8323  0.8913
  307MOL0     H41428   7.815   9.324   2.517  0.5914 -1.3411  2.7170
  307MOL0     H41429   7.581   9.789   2.289 -0.7284  0.7778 -0.2408
  307MOL0     H41430   7.506   9.998   2.386 -0.2868  1.1661  0.9201
  307MOL0     H41431   8.480  10.001   2.161 -2.9551  2.2801 -3.9706
  307MOL0     H41432   8.341   9.946   1.950  3.1925  3.1324 -2.5068
  307MOL0     H41433   8.123   9.415   1.824  1.1893 -2.0149 -0.1806
  307MOL0     H41434   7.960   9.371   1.658 -0.1895  0.9605  1.6982
  307MOL0     H41435   7.811   9.340   1.479  1.5036  0.1632  4.1289
  307MOL0     H41436   7.782   9.494   1.549  0.3970 -0.8756  0.9524
  307MOL0     H41437   7.699   9.439   1.258 -0.1720  3.3170 -2.3026
  307MOL0     H41438   7.700   9.588   1.336 -0.1522  0.2126 -0.5195
  307MOL0     H41439   7.584   9.437   1.542  0.2308 -0.1128 -0.0533
  307MOL0     H41440   7.521   9.350   1.401  0.7302  0.8174 -3.0885
  307MOL0     H41441   7.445   9.627   1.482  1.3437 -0.0507 -0.4205
  307MOL0     H41442   7.358   9.475   1.416  2.9926 -2.7467  1.3812
  307MOL0     H41443   7.413   9.725   1.079 -1.4228  1.1581  0.6085
  307MOL0     H41444   8.126   9.649   1.399  1.1627 -1.4616 -0.7138
  307MOL0     H41445   8.296   9.712   1.552  0.8636 -1.9505 -2.1578
  308MOL0     O41446  10.163  11.275   5.868  0.4939 -0.1829 -1.1927
  308MOL0     C41447  10.175  11.355   5.781 -0.0280 -0.5902  0.4376
  308MOL0     O41448  10.072  11.416   5.716 -0.4485  0.2421  1.0150
  308MOL0     C41449   9.947  11.356   5.736  0.3970 -1.1204  0.4412
  308MOL0     C41450   9.872  11.312   5.620 -1.2273  0.1582 -0.7639
  308MOL0     C41451   9.748  11.248   5.635  0.2633  0.0277 -0.1879
  308MOL0     C41452   9.682  11.256   5.759 -0.0138  0.3579 -0.4841
  308MOL0     O41453   9.557  11.187   5.776  0.0283  0.4396 -0.0463
  308MOL0     C41454   9.528  11.147   5.910  0.3984  0.0739  0.5883
  308MOL0     C41455   9.413  11.050   5.909 -0.0364  0.9601 -0.5515
  308MOL0     C41456   9.280  11.089   5.849  0.6513 -0.4287  0.3785
  308MOL0     C41457   9.203  11.164   5.951 -0.4045 -0.2032  0.3770
  308MOL0     C41458   9.065  11.201   5.901  0.6606  0.1681  0.1020
  308MOL0     C41459   8.985  11.074   5.885 -0.5290 -0.3664 -0.5832
  308MOL0     C41460   8.835  11.113   5.854  0.0770  0.2463  0.2076
  308MOL0     C41461   8.756  10.988   5.849  0.1850  0.0432 -0.1857
  308MOL0     N41462   8.721  10.938   5.985  0.7723 -0.2010 -0.6029
  308MOL0     C41463   8.747  10.816   6.043  0.3271  0.5271  0.7390
  308MOL0     C41464   8.683  10.813   6.167  1.0655  0.4085  0.0949
  308MOL0     C41465   8.682  10.703   6.260  0.1121  0.1158 -0.1204
  308MOL0     C41466   8.801  10.706   6.356 -0.5042  0.2695  0.0850
  308MOL0     C41467   8.797  10.822   6.454 -0.7798 -0.6914 -0.1109
  308MOL0     C41468   8.914  10.800   6.559  0.4796  0.8497  0.7363
  308MOL0     O41469   8.861  10.749   6.681 -0.2089 -0.3861  0.4393
  308MOL0     C41470   8.812  10.841   6.775 -0.2434 -0.9258  0.0772
  308MOL0     C41471   8.788  10.980   6.754  0.4776 -0.6796 -0.0947
  308MOL0     C41472   8.746  11.071   6.854  0.1301 -1.1693  1.2188
  308MOL0     C41473   8.738  11.213   6.804 -1.3059  0.5837 -0.8221
  308MOL0     C41474   8.736  11.030   6.985  0.1020  0.2006 -0.9895
  308MOL0     C41475   8.703  11.108   7.103  0.2044  0.3639 -0.4524
  308MOL0     O41476   8.746  11.061   7.228  0.0409  0.1103 -0.0037
  308MOL0     C41477   8.696  11.125   7.334 -0.3088 -0.8011 -0.7947
  308MOL0     C41478   8.590  11.071   7.407 -0.4214 -0.1899 -0.6961
  308MOL0     C41479   8.542  11.137   7.523 -0.5479  1.5977  0.1981
  308MOL0     C41480   8.607  11.244   7.581 -0.6690  1.2712 -0.1429
  308MOL0     O41481   8.572  11.310   7.693 -0.0987  0.0543  0.5870
  308MOL0     C41482   8.485  11.246   7.788 -0.0747  0.4285 -0.0590
  308MOL0     C41483   8.553  11.154   7.887  0.2688 -0.0249 -0.3386
  308MOL0     C41484   8.606  11.238   8.013 -0.6687 -0.4947  0.7074
  308MOL0     C41485   8.697  11.355   7.982  0.3091  0.6502 -0.3343
  308MOL0     C41486   8.769  11.405   8.106  0.4293  0.1518 -0.3950
  308MOL0     C41487   8.814  11.549   8.071 -0.8859 -0.0118 -0.1868
  308MOL0     C41488   8.902  11.610   8.189  1.0084  0.5159  0.2574
  308MOL0     C41489   9.032  11.535   8.229 -0.7036 -0.2998  0.9528
  308MOL0    Cl41490   9.153  11.504   8.092  0.2849  0.2809 -0.0545
  308MOL0     C41491   8.713  11.304   7.510 -0.6063 -0.2490 -0.7229
  308MOL0     C41492   8.755  11.243   7.382  0.6000 -0.2780 -0.8972
  308MOL0     O41493   8.637  11.210   7.088  0.0954  0.9917  0.3875
  308MOL0     C41494   8.776  10.889   7.005  0.1115 -0.8885  0.1644
  308MOL0     C41495   8.805  10.793   6.905  0.7706  0.2053  0.4698
  308MOL0     N41496   8.610  10.933   6.183 -0.8966 -0.6106 -0.1425
  308MOL0     N41497   8.643  11.004   6.074  0.3999  0.5681 -0.0131
  308MOL0     C41498   9.753  11.317   5.872 -0.7188 -0.1884  0.3986
  308MOL0     C41499   9.883  11.366   5.861 -0.7538 -0.0537 -0.7574
  308MOL0     C41500  10.313  11.401   5.767  0.0048 -1.5410 -1.6925
  308MOL0     C41501  10.340  11.532   5.712 -0.6077  0.3562  0.2243
  308MOL0     C41502  10.462  11.587   5.698  0.2461  0.2307 -0.1112
  308MOL0     C41503  10.571  11.511   5.741  0.3204  0.1925  0.0021
  308MOL0     O41504  10.698  11.555   5.736  0.0439  0.1491  1.2590
  308MOL0     C41505  10.743  11.561   5.601 -0.3278  0.5089 -0.3098
  308MOL0     C41506  10.862  11.659   5.588 -0.2772  0.1572 -0.7205
  308MOL0     C41507  10.829  11.809   5.636  0.4139 -0.3160 -0.4040
  308MOL0     C41508  10.757  11.893   5.524 -0.0498  0.2532 -0.7258
  308MOL0     C41509  10.714  12.021   5.578 -0.7742  0.4286  0.2704
  308MOL0     C41510  10.662  12.131   5.595 -0.3186 -0.1647  0.5330
  308MOL0     C41511  10.547  11.391   5.804 -0.3973 -0.1824  0.0657
  308MOL0     C41512  10.427  11.332   5.822 -0.2603 -0.6991  0.7116
  308MOL0     H41513   9.922  11.323   5.525  2.6249 -0.2303  1.0129
  308MOL0     H41514   9.688  11.203   5.556  0.1664 -1.6448  0.7953
  308MOL0     H41515   9.604  11.098   5.971 -0.4053 -0.7734  0.9363
  308MOL0     H41516   9.486  11.237   5.956 -3.0831 -0.5073 -1.0813
  308MOL0     H41517   9.452  10.965   5.853  2.3976  0.5955  1.5015
  308MOL0     H41518   9.399  11.017   6.013 -1.6753  1.2311 -0.6536
  308MOL0     H41519   9.293  11.150   5.760 -0.7475 -3.1278 -1.8509
  308MOL0     H41520   9.224  10.998   5.822 -0.9440  0.8651 -0.8984
  308MOL0     H41521   9.208  11.102   6.041  2.8527  0.5005  0.7852
  308MOL0     H41522   9.253  11.259   5.973 -1.9819  0.4248  1.4795
  308MOL0     H41523   9.022  11.270   5.975  2.3403  1.6400 -0.2226
  308MOL0     H41524   9.076  11.259   5.809  3.4677 -0.8089 -0.2808
  308MOL0     H41525   9.016  11.003   5.808  3.1629 -0.5884  0.9060
  308MOL0     H41526   8.979  11.029   5.984 -2.5647 -0.7446 -0.8266
  308MOL0     H41527   8.789  11.177   5.930 -1.2930 -0.8379  0.3205
  308MOL0     H41528   8.826  11.152   5.752  0.0958  0.5231  0.3096
  308MOL0     H41529   8.813  10.917   5.789 -0.5482 -1.9143  1.3148
  308MOL0     H41530   8.656  10.999   5.805  0.3800 -0.7134 -0.8339
  308MOL0     H41531   8.820  10.741   6.013  0.2041 -0.0777  1.8915
  308MOL0     H41532   8.586  10.707   6.312  0.3078 -1.5900  0.4371
  308MOL0     H41533   8.677  10.612   6.199  1.9535 -0.8897  1.1335
  308MOL0     H41534   8.889  10.703   6.290  0.8016 -1.8835  1.8122
  308MOL0     H41535   8.802  10.611   6.409  0.0280  0.6124  0.6978
  308MOL0     H41536   8.702  10.846   6.504  1.9187 -0.6118  5.7751
  308MOL0     H41537   8.834  10.904   6.392 -0.5541 -1.4142 -0.9568
  308MOL0     H41538   8.967  10.894   6.579  0.6880  0.3272  2.9232
  308MOL0     H41539   8.987  10.728   6.521 -2.1190 -3.0275  2.4689
  308MOL0     H41540   8.809  11.012   6.652  3.7769 -0.4174  0.5573
  308MOL0     H41541   8.680  11.219   6.711  0.8490  3.5542 -2.1527
  308MOL0     H41542   8.690  11.278   6.877 -0.5279 -0.1741  0.3913
  308MOL0     H41543   8.842  11.243   6.792 -1.2198 -0.0912 -1.9570
  308MOL0     H41544   8.523  10.990   7.381  0.1734 -1.3140  1.0805
  308MOL0     H41545   8.447  11.113   7.569 -0.0278  0.9958  0.9831
  308MOL0     H41546   8.445  11.326   7.852 -1.3064  0.6197 -1.0286
  308MOL0     H41547   8.398  11.197   7.744  1.0357 -0.5168 -1.2874
  308MOL0     H41548   8.483  11.085   7.934 -1.4699  0.6452 -1.8395
  308MOL0     H41549   8.629  11.088   7.844  0.8960  1.6848 -2.0174
  308MOL0     H41550   8.667  11.172   8.076  3.5633  0.9640 -1.4744
  308MOL0     H41551   8.524  11.287   8.067 -3.5924 -3.6481 -0.5079
  308MOL0     H41552   8.774  11.308   7.920  1.7207  2.0434  0.2987
  308MOL0     H41553   8.647  11.432   7.923 -1.5278  1.9366  2.6826
  308MOL0     H41554   8.848  11.333   8.130 -1.5607 -2.6429 -1.6930
  308MOL0     H41555   8.704  11.416   8.194  0.8193  0.6549 -0.1651
  308MOL0     H41556   8.873  11.552   7.979 -1.0724  3.4120 -0.3138
  308MOL0     H41557   8.730  11.619   8.061 -0.4527  0.7389  1.2465
  308MOL0     H41558   8.835  11.621   8.275 -0.4532  3.1290 -1.1118
  308MOL0     H41559   8.932  11.710   8.158 -1.4498  1.0937 -0.4386
  308MOL0     H41560   8.994  11.437   8.259 -2.4881 -0.8979 -2.6790
  308MOL0     H41561   9.085  11.584   8.311  0.9191  1.5290 -1.0541
  308MOL0     H41562   8.748  11.398   7.553 -4.1876  0.4428  1.0540
  308MOL0     H41563   8.837  11.295   7.333  0.9148  1.5498  1.4096
  308MOL0     H41564   8.791  10.860   7.109  2.7286 -0.7632 -0.1180
  308MOL0     H41565   8.831  10.689   6.923  1.4941  0.4189  0.7207
  308MOL0     H41566   9.711  11.305   5.971  0.6444 -1.7825  0.8405
  308MOL0     H41567   9.940  11.398   5.948 -0.3867 -1.4956 -0.4492
  308MOL0     H41568  10.246  11.581   5.689 -1.2643 -0.5510  0.9110
  308MOL0     H41569  10.470  11.691   5.668 -2.0853  1.2959  2.4631
  308MOL0     H41570  10.784  11.462   5.580  2.6943  1.5708  0.1832
  308MOL0     H41571  10.667  11.576   5.524  0.6518  2.2066 -1.0051
  308MOL0     H41572  10.903  11.670   5.487  1.0716  2.3184  0.0004
  308MOL0     H41573  10.939  11.618   5.653 -2.0048 -0.1376  1.2520
  308MOL0     H41574  10.926  11.856   5.656 -0.2217  0.5058  0.8119
  308MOL0     H41575  10.774  11.812   5.730 -0.9602  2.3256 -1.1989
  308MOL0     H41576  10.661  11.844   5.507  0.4063 -1.4933  1.2400
  308MOL0     H41577  10.796  11.919   5.426 -2.1478  1.9175 -1.2033
  308MOL0     H41578  10.621  12.227   5.620  2.2488  0.2670  3.8293
  308MOL0     H41579  10.633  11.339   5.846  0.0489  0.9878  0.6669
  308MOL0     H41580  10.418  11.238   5.876  3.0600 -1.1799  0.6349
  309MOL0     O41581  10.491   8.714   4.778  0.3424  0.2498 -0.0507
  309MOL0     C41582  10.526   8.602   4.806 -0.1035 -0.1794  0.9390
  309MOL0     O41583  10.549   8.504   4.707 -0.1686  0.4119  0.4728
  309MOL0     C41584  10.539   8.542   4.580 -0.1378  0.1617  0.2755
  309MOL0     C41585  10.424   8.597   4.517  0.5819  0.5917 -0.7236
  309MOL0     C41586  10.423   8.620   4.380 -0.0697  0.1998 -0.3357
  309MOL0     C41587  10.533   8.581   4.305  0.9343  0.1914  0.1828
  309MOL0     O41588  10.524   8.604   4.175 -0.3294  0.5810 -0.2724
  309MOL0     C41589  10.550   8.740   4.138 -1.0665 -0.0638 -0.2279
  309MOL0     C41590  10.584   8.743   3.989 -0.7203 -0.3454  0.4760
  309MOL0     C41591  10.647   8.874   3.933  0.1052 -0.1917  0.9507
  309MOL0     C41592  10.578   8.990   4.002  0.6022  0.7827  0.1834
  309MOL0     C41593  10.668   9.110   3.979  0.2752 -0.5494  0.2286
  309MOL0     C41594  10.611   9.241   4.040 -0.7406  0.5652 -0.4247
  309MOL0     C41595  10.525   9.307   3.939  0.1003  0.2568  0.4785
  309MOL0     C41596  10.495   9.454   3.987 -0.1681 -0.6718 -0.5294
  309MOL0     N41597  10.397   9.529   3.900 -0.0717 -0.8765  0.5260
  309MOL0     C41598  10.421   9.594   3.791  0.3125  0.3039  1.7197
  309MOL0     C41599  10.321   9.681   3.766  0.3042  0.5404  0.3716
  309MOL0     C41600  10.318   9.749   3.631 -0.6571 -0.0703 -0.2386
  309MOL0     C41601  10.243   9.662   3.523  0.4164 -0.0288  0.5206
  309MOL0     C41602  10.090   9.668   3.531  0.1525 -0.0767 -0.5360
  309MOL0     C41603  10.009   9.538   3.509 -0.9655  0.5052 -0.4502
  309MOL0     O41604   9.976   9.504   3.373  0.8403 -0.1370  0.6570
  309MOL0     C41605   9.938   9.375   3.338 -0.3712 -0.2894 -0.0682
  309MOL0     C41606   9.972   9.326   3.213 -0.0835  0.2466  0.5875
  309MOL0     C41607   9.940   9.198   3.169 -0.7096  0.0921  0.4234
  309MOL0     C41608   9.972   9.167   3.025 -0.3790  0.1727  0.4016
  309MOL0     C41609   9.877   9.102   3.254  0.0552 -0.0738  0.2453
  309MOL0     C41610   9.855   8.951   3.216 -0.1171  0.0552  0.4274
  309MOL0     O41611   9.935   8.885   3.126  0.3160  0.3103 -0.0246
  309MOL0     C41612   9.895   8.754   3.085 -0.2794 -0.3955  1.0916
  309MOL0     C41613   9.857   8.732   2.948 -0.2387 -0.4278 -0.7914
  309MOL0     C41614   9.839   8.601   2.911 -0.2349  1.2078  0.4671
  309MOL0     C41615   9.845   8.493   3.002 -0.1320  0.1321 -0.5946
  309MOL0     O41616   9.845   8.354   2.983  0.9971  0.3445 -0.5999
  309MOL0     C41617   9.910   8.308   2.856  0.2058  1.2981  0.0528
  309MOL0     C41618   9.936   8.163   2.853 -0.6560  0.2477 -0.2826
  309MOL0     C41619   9.799   8.087   2.844  0.1772  0.5603  1.0838
  309MOL0     C41620   9.829   7.946   2.846 -0.0386  1.0052 -0.6628
  309MOL0     C41621   9.699   7.872   2.813  0.2618 -0.0122  0.6815
  309MOL0     C41622   9.716   7.724   2.818 -0.3715  0.9632 -0.0034
  309MOL0     C41623   9.583   7.645   2.787  0.0589 -0.5620 -0.9853
  309MOL0     C41624   9.510   7.615   2.913  0.5711 -0.2787 -0.2947
  309MOL0    Cl41625   9.340   7.553   2.873 -0.0078  0.0561  0.4478
  309MOL0     C41626   9.864   8.522   3.139 -0.0738  0.5109  0.4284
  309MOL0     C41627   9.895   8.648   3.180  0.0773 -0.9344  0.6183
  309MOL0     O41628   9.756   8.899   3.259 -0.2313 -0.7530 -0.2861
  309MOL0     C41629   9.843   9.154   3.383 -0.7428 -0.4409 -0.3280
  309MOL0     C41630   9.870   9.289   3.419 -0.0636  0.3518  0.0061
  309MOL0     N41631  10.229   9.654   3.868  0.0733 -0.9484 -0.0681
  309MOL0     N41632  10.279   9.567   3.949 -0.0602 -0.8933 -0.6304
  309MOL0     C41633  10.647   8.532   4.365 -0.5026  0.0947  0.1673
  309MOL0     C41634  10.650   8.508   4.496  0.4007 -0.8096 -0.6264
  309MOL0     C41635  10.526   8.538   4.947 -0.2239 -0.7701  0.7914
  309MOL0     C41636  10.518   8.400   4.979  0.4933  0.4670  0.8095
  309MOL0     C41637  10.525   8.360   5.109  0.8504  0.1282  0.4410
  309MOL0     C41638  10.536   8.450   5.218  0.4394  0.2298  0.5721
  309MOL0     O41639  10.530   8.395   5.342  0.4473  0.4941 -0.0436
  309MOL0     C41640  10.558   8.466   5.458  0.6068 -1.1264  0.4833
  309MOL0     C41641  10.647   8.391   5.564  1.1209  0.4255 -0.2520
  309MOL0     C41642  10.770   8.320   5.505 -0.3337 -0.4050  0.1946
  309MOL0     C41643  10.750   8.177   5.452  0.4839  0.4731  0.2279
  309MOL0     C41644  10.825   8.159   5.331 -0.0104  0.9251  0.0243
  309MOL0     C41645  10.886   8.112   5.233 -0.4179 -0.0858 -0.7380
  309MOL0     C41646  10.539   8.589   5.182  0.3961 -0.8205 -0.7311
  309MOL0     C41647  10.538   8.630   5.045  0.7287  0.1530 -0.4778
  309MOL0     H41648  10.337   8.617   4.579  2.1965 -2.2632  2.8278
  309MOL0     H41649  10.331   8.663   4.344 -0.6547 -0.9873 -0.3178
  309MOL0     H41650  10.465   8.805   4.162 -2.1260 -1.2176 -0.7007
  309MOL0     H41651  10.634   8.778   4.196 -2.7237  2.2059  0.8399
  309MOL0     H41652  10.658   8.664   3.974 -1.2130 -0.5240 -1.2112
  309MOL0     H41653  10.492   8.722   3.934 -0.6599 -0.8809  0.5738
  309MOL0     H41654  10.752   8.883   3.965 -0.2503  1.0824  1.8243
  309MOL0     H41655  10.643   8.884   3.825 -1.0608 -1.1496  0.8891
  309MOL0     H41656  10.474   8.995   3.967  0.0662  1.5065  1.7851
  309MOL0     H41657  10.558   8.975   4.108  0.0317 -0.9166 -0.1350
  309MOL0     H41658  10.752   9.101   4.049  0.6311  3.4146  0.5887
  309MOL0     H41659  10.714   9.123   3.881 -0.6748  0.4280 -0.1051
  309MOL0     H41660  10.559   9.208   4.130  0.4708 -3.3795 -0.9971
  309MOL0     H41661  10.704   9.295   4.058 -0.7153  1.2898 -2.4285
  309MOL0     H41662  10.581   9.319   3.845 -0.2308 -3.0520 -0.2529
  309MOL0     H41663  10.430   9.254   3.929 -0.3402  1.3574 -1.8671
  309MOL0     H41664  10.588   9.511   3.989 -0.2044 -0.6044 -0.6933
  309MOL0     H41665  10.451   9.440   4.086  1.9261 -0.2807  0.5047
  309MOL0     H41666  10.510   9.594   3.728 -1.0109  0.8454 -0.2541
  309MOL0     H41667  10.257   9.838   3.647 -2.5545 -1.3105 -0.2334
  309MOL0     H41668  10.420   9.768   3.596  0.1790 -0.1353  1.9669
  309MOL0     H41669  10.276   9.560   3.545  4.1439  0.7282 -0.8019
  309MOL0     H41670  10.269   9.681   3.418 -2.7491 -0.8374 -0.5148
  309MOL0     H41671  10.063   9.746   3.459  1.6398 -1.9985 -3.3543
  309MOL0     H41672  10.068   9.707   3.630 -1.4214 -1.6441 -0.2086
  309MOL0     H41673   9.906   9.537   3.547 -0.8647 -0.4074 -0.1722
  309MOL0     H41674  10.067   9.448   3.531 -0.8001  0.7009 -0.0668
  309MOL0     H41675  10.019   9.389   3.138 -1.3313 -0.9257 -1.2634
  309MOL0     H41676   9.977   9.260   2.968  0.1597  0.0773  0.2834
  309MOL0     H41677  10.073   9.124   3.022 -1.2749 -1.9829 -0.8588
  309MOL0     H41678   9.897   9.105   2.975  0.1752  0.0857 -0.3278
  309MOL0     H41679   9.852   8.808   2.871  1.4075  0.6282  0.0794
  309MOL0     H41680   9.815   8.590   2.806  0.0568  1.9247  0.3147
  309MOL0     H41681   9.838   8.322   2.775 -2.1310  0.7153  1.9016
  309MOL0     H41682   9.998   8.371   2.837 -0.2770  2.4768  1.5476
  309MOL0     H41683  10.015   8.145   2.780 -0.3186  3.1138 -0.7490
  309MOL0     H41684   9.981   8.136   2.948 -0.9634 -2.3337 -0.8087
  309MOL0     H41685   9.755   8.110   2.747  0.3807 -2.3618  0.1971
  309MOL0     H41686   9.731   8.099   2.929  0.0427 -2.9674  1.6462
  309MOL0     H41687   9.912   7.924   2.778 -0.8783  0.8079 -1.6560
  309MOL0     H41688   9.858   7.909   2.945  2.5429 -1.1136 -2.0908
  309MOL0     H41689   9.670   7.897   2.711 -0.0930  0.7487  0.9635
  309MOL0     H41690   9.620   7.900   2.883  1.5231 -0.1076  2.2071
  309MOL0     H41691   9.792   7.698   2.744  2.4981  1.2216  2.6584
  309MOL0     H41692   9.749   7.693   2.918 -1.0529 -0.9968 -0.3335
  309MOL0     H41693   9.599   7.546   2.744  0.3813 -1.1889  0.5511
  309MOL0     H41694   9.511   7.700   2.726 -0.3844  1.2582  1.0637
  309MOL0     H41695   9.489   7.703   2.974  0.3387 -1.8927  2.1063
  309MOL0     H41696   9.567   7.543   2.973  1.4907 -0.3139 -1.1939
  309MOL0     H41697   9.850   8.437   3.205  3.1378 -1.3569 -1.0607
  309MOL0     H41698   9.898   8.662   3.287 -0.0334  0.6878  0.4226
  309MOL0     H41699   9.791   9.098   3.460 -0.1971 -1.0795 -0.4119
  309MOL0     H41700   9.843   9.325   3.518  0.2682  1.5466 -0.3249
  309MOL0     H41701  10.730   8.505   4.300 -1.2320  2.0349 -1.7146
  309MOL0     H41702  10.735   8.453   4.535  0.6599  0.6148  0.9210
  309MOL0     H41703  10.509   8.331   4.895 -0.0616 -0.1487  1.3598
  309MOL0     H41704  10.526   8.253   5.127  1.1191  0.2441  1.1549
  309MOL0     H41705  10.592   8.568   5.440 -3.4790  0.0314 -1.9813
  309MOL0     H41706  10.455   8.479   5.491  0.0359 -1.1109 -1.1933
  309MOL0     H41707  10.596   8.315   5.624  0.4773 -1.1596 -2.6364
  309MOL0     H41708  10.683   8.465   5.636  1.2106  1.3681 -1.2485
  309MOL0     H41709  10.845   8.308   5.584  1.5326  1.3108 -1.2204
  309MOL0     H41710  10.830   8.380   5.436  1.7713  1.3240  3.2932
  309MOL0     H41711  10.645   8.154   5.433  0.2320 -0.5582  2.5406
  309MOL0     H41712  10.806   8.115   5.523  0.6753 -1.8222 -1.8180
  309MOL0     H41713  10.934   8.061   5.151 -1.0231 -0.0557 -1.1208
  309MOL0     H41714  10.543   8.660   5.263  2.8063 -1.5688 -0.0938
  309MOL0     H41715  10.524   8.731   5.008 -2.0019 -0.2514 -0.7879
  310MOL0     O41716   0.763  11.227   6.874  0.5426  0.4742 -0.5358
  310MOL0     C41717   0.717  11.240   6.984  0.9583  0.1689  0.5687
  310MOL0     O41718   0.747  11.354   7.062 -0.6877  0.1983  0.8756
  310MOL0     C41719   0.838  11.454   7.028  0.0572 -0.2111  0.7744
  310MOL0     C41720   0.944  11.439   6.934 -0.1288 -0.3324 -0.2461
  310MOL0     C41721   1.032  11.543   6.917  0.2374  0.2127 -0.7088
  310MOL0     C41722   1.030  11.658   6.984  0.2712  1.0763 -1.0003
  310MOL0     O41723   1.116  11.758   6.948  1.2824 -0.4912 -0.1771
  310MOL0     C41724   1.198  11.818   7.046 -0.4679 -0.2346 -0.1907
  310MOL0     C41725   1.139  11.952   7.097 -0.1433 -0.1519 -0.0559
  310MOL0     C41726   1.241  12.028   7.196  1.1543  0.0950  0.1892
  310MOL0     C41727   1.376  12.059   7.121 -0.6702 -0.2834 -1.2861
  310MOL0     C41728   1.480  12.133   7.200  0.1855  0.6106 -0.7893
  310MOL0     C41729   1.625  12.132   7.145  0.0188  0.0587  0.7144
  310MOL0     C41730   1.691  11.997   7.136  0.0819  0.3583  0.3124
  310MOL0     C41731   1.817  12.017   7.060  0.5111 -0.0132  0.4766
  310MOL0     N41732   1.902  11.898   7.062  0.6172 -1.0308  0.2916
  310MOL0     C41733   1.995  11.885   7.161 -0.2971  0.2048  0.5341
  310MOL0     C41734   2.064  11.773   7.125 -0.3500  0.5297 -0.7221
  310MOL0     C41735   2.174  11.716   7.203  0.1719  0.2631 -0.2766
  310MOL0     C41736   2.146  11.568   7.257  1.1741  0.8616 -0.0526
  310MOL0     C41737   2.279  11.483   7.272 -0.4229  0.3092  0.4984
  310MOL0     C41738   2.346  11.531   7.394 -0.1497  0.5828 -0.4659
  310MOL0     O41739   2.465  11.598   7.362 -0.2288 -0.7144  0.1493
  310MOL0     C41740   2.536  11.664   7.453 -0.4112  0.6746 -0.4637
  310MOL0     C41741   2.635  11.764   7.416 -0.0941 -0.0615  0.9093
  310MOL0     C41742   2.706  11.828   7.519  0.7814  0.7815 -0.5156
  310MOL0     C41743   2.818  11.921   7.481 -0.0680 -0.1553  0.7800
  310MOL0     C41744   2.672  11.804   7.658 -1.3078 -0.6214 -0.2408
  310MOL0     C41745   2.734  11.871   7.767  0.5308  0.5116  0.0979
  310MOL0     O41746   2.802  11.986   7.746 -0.0945 -0.9203 -0.0451
  310MOL0     C41747   2.874  12.052   7.844  0.1398 -0.6216 -0.3549
  310MOL0     C41748   2.864  12.192   7.851  0.5051  0.0655 -0.3347
  310MOL0     C41749   2.948  12.257   7.935  0.8189  0.2982 -0.2954
  310MOL0     C41750   3.052  12.196   8.009 -0.5470  0.5970 -0.6974
  310MOL0     O41751   3.148  12.282   8.057 -0.1204  0.0418 -0.0962
  310MOL0     C41752   3.223  12.235   8.175 -0.5629 -0.5745  0.0867
  310MOL0     C41753   3.305  12.354   8.232  0.1842  0.2160  0.1357
  310MOL0     C41754   3.394  12.308   8.351  0.4394 -0.2797  0.4967
  310MOL0     C41755   3.504  12.414   8.378  0.1989 -0.3143  0.4243
  310MOL0     C41756   3.629  12.365   8.453  0.1950  0.0648  0.3262
  310MOL0     C41757   3.611  12.322   8.594  0.5827 -0.2761 -0.0777
  310MOL0     C41758   3.749  12.288   8.659 -1.0236 -0.7587 -0.0891
  310MOL0     C41759   3.835  12.405   8.710 -1.6745 -0.5565  0.1713
  310MOL0    Cl41760   3.981  12.340   8.785 -0.3472  0.4321 -0.0951
  310MOL0     C41761   3.049  12.054   8.012 -0.5447  0.3468  0.8250
  310MOL0     C41762   2.953  11.986   7.942  0.7287 -0.1330 -0.0412
  310MOL0     O41763   2.740  11.802   7.871 -0.1350 -0.6239 -0.0475
  310MOL0     C41764   2.566  11.716   7.690 -0.5848  1.2317 -0.5099
  310MOL0     C41765   2.506  11.636   7.589  0.8978 -0.4128 -0.3997
  310MOL0     N41766   2.011  11.718   7.014  0.1652 -0.5560  0.1129
  310MOL0     N41767   1.915  11.795   6.971 -0.8770 -0.7588 -0.5404
  310MOL0     C41768   0.932  11.675   7.077  0.8266 -0.3249 -0.8299
  310MOL0     C41769   0.832  11.577   7.098  0.0883  0.6665  0.1991
  310MOL0     C41770   0.636  11.132   7.041  0.0325  0.2358  1.1039
  310MOL0     C41771   0.637  11.105   7.179 -0.9044  0.7561  0.0302
  310MOL0     C41772   0.558  10.997   7.224  0.7642  0.9349 -0.1345
  310MOL0     C41773   0.481  10.912   7.141  0.1812  1.0135  0.5259
  310MOL0     O41774   0.423  10.800   7.191 -0.6596 -0.7104 -0.0172
  310MOL0     C41775   0.329  10.710   7.123  0.8054  0.1386 -0.3796
  310MOL0     C41776   0.359  10.570   7.167 -0.2291  0.5685  0.2974
  310MOL0     C41777   0.336  10.554   7.316 -0.5202  0.6391  1.2379
  310MOL0     C41778   0.351  10.409   7.360  0.9448  0.0996 -0.2897
  310MOL0     C41779   0.282  10.389   7.487  0.8306 -0.2907  0.4334
  310MOL0     C41780   0.220  10.390   7.593  0.5072  0.6345 -0.0100
  310MOL0     C41781   0.474  10.950   7.005  0.1434  0.3182 -0.5600
  310MOL0     C41782   0.552  11.056   6.959  0.0250  0.8043 -0.3027
  310MOL0     H41783   0.963  11.350   6.876  1.9287 -0.1496  0.0787
  310MOL0     H41784   1.112  11.522   6.847 -0.2631  2.5395 -2.0894
  310MOL0     H41785   1.202  11.755   7.135 -0.2327 -1.8331 -1.2738
  310MOL0     H41786   1.300  11.836   7.009 -0.5084  2.7436  0.8647
  310MOL0     H41787   1.116  12.012   7.009  1.8656  1.0855  0.1934
  310MOL0     H41788   1.041  11.934   7.144 -0.3976  1.3744  0.0525
  310MOL0     H41789   1.185  12.117   7.224 -0.2380 -0.6288 -0.1827
  310MOL0     H41790   1.251  11.975   7.291 -0.6764  1.3627  1.1358
  310MOL0     H41791   1.431  11.967   7.101  2.2881  0.5194  2.1104
  310MOL0     H41792   1.358  12.103   7.022  0.7610 -2.2892 -2.5134
  310MOL0     H41793   1.435  12.231   7.214  1.7575  1.2400  0.1450
  310MOL0     H41794   1.486  12.088   7.300  0.7451 -0.4788 -1.2930
  310MOL0     H41795   1.618  12.167   7.041  0.4905  0.5691  0.8463
  310MOL0     H41796   1.680  12.204   7.206 -1.8126 -1.0995  3.9262
  310MOL0     H41797   1.705  11.950   7.234 -1.2298  1.0019  0.8400
  310MOL0     H41798   1.625  11.929   7.081  0.7041 -1.5811  1.8215
  310MOL0     H41799   1.865  12.106   7.102 -0.9707 -0.4735  3.3768
  310MOL0     H41800   1.790  12.037   6.956  1.2624  1.7870  0.5967
  310MOL0     H41801   2.018  11.948   7.246  0.8135 -0.8903  1.0947
  310MOL0     H41802   2.269  11.709   7.148  0.5840 -2.3303  0.6207
  310MOL0     H41803   2.195  11.789   7.281 -0.1719  0.1387 -0.0670
  310MOL0     H41804   2.100  11.523   7.169  0.0938  1.8288 -0.0065
  310MOL0     H41805   2.085  11.570   7.348  1.4089 -2.9417  0.3488
  310MOL0     H41806   2.348  11.496   7.189 -0.2281  0.7231  0.7213
  310MOL0     H41807   2.260  11.375   7.264  3.5564 -0.3950 -4.5967
  310MOL0     H41808   2.378  11.448   7.458 -2.1606  1.3144  1.6213
  310MOL0     H41809   2.280  11.595   7.453  0.6037  0.3909  0.6330
  310MOL0     H41810   2.654  11.782   7.311 -2.6680  3.4801  0.8943
  310MOL0     H41811   2.779  12.022   7.470  0.4097  0.1193  1.5445
  310MOL0     H41812   2.903  11.910   7.550  0.4001 -1.9656 -0.0290
  310MOL0     H41813   2.851  11.882   7.384 -2.5672 -0.8101  0.1173
  310MOL0     H41814   2.801  12.243   7.779  1.5339  2.0301  0.1039
  310MOL0     H41815   2.940  12.365   7.943 -0.1477  0.5641 -3.2813
  310MOL0     H41816   3.149  12.198   8.246 -2.0047 -0.6908 -1.4010
  310MOL0     H41817   3.308  12.168   8.161 -0.9659 -1.2306  0.7117
  310MOL0     H41818   3.367  12.384   8.148 -0.4341  1.7251  0.1959
  310MOL0     H41819   3.241  12.439   8.256 -0.3844  0.2202 -1.2924
  310MOL0     H41820   3.447  12.215   8.332 -2.9512 -2.2545 -0.2017
  310MOL0     H41821   3.335  12.290   8.442 -1.5011 -4.7897 -1.3480
  310MOL0     H41822   3.543  12.439   8.279  0.1355 -1.4985  0.0781
  310MOL0     H41823   3.462  12.497   8.436 -4.1466 -1.1799 -1.0807
  310MOL0     H41824   3.694  12.453   8.462 -3.0727  2.4470  4.0651
  310MOL0     H41825   3.668  12.273   8.408 -3.9376 -1.3575 -0.7580
  310MOL0     H41826   3.550  12.397   8.645  0.4148 -0.4089 -0.0828
  310MOL0     H41827   3.560  12.226   8.593 -0.1914  0.1283 -0.4050
  310MOL0     H41828   3.817  12.245   8.585 -0.7955 -0.4746 -0.0483
  310MOL0     H41829   3.733  12.215   8.738  1.0588 -0.2460  0.8650
  310MOL0     H41830   3.773  12.468   8.775 -3.8234 -0.8586 -1.4800
  310MOL0     H41831   3.880  12.463   8.628  2.9689 -3.0886  0.5342
  310MOL0     H41832   3.126  11.986   8.048  1.4459  1.5190 -0.9764
  310MOL0     H41833   2.955  11.878   7.927 -0.2402 -0.2467  0.5645
  310MOL0     H41834   2.542  11.699   7.795 -0.2799 -0.7490 -0.7301
  310MOL0     H41835   2.441  11.559   7.628  2.1783 -0.1212  2.6046
  310MOL0     H41836   0.931  11.756   7.149 -2.3532 -2.5056  1.8795
  310MOL0     H41837   0.763  11.611   7.176 -0.7768  2.8807 -1.4166
  310MOL0     H41838   0.698  11.162   7.249 -1.4494 -0.1821  1.2893
  310MOL0     H41839   0.545  10.977   7.329  0.8657 -2.1347 -0.6206
  310MOL0     H41840   0.228  10.736   7.156  0.7986 -1.3552  0.8294
  310MOL0     H41841   0.337  10.720   7.014  2.8901 -1.8961 -0.4786
  310MOL0     H41842   0.465  10.548   7.149 -0.1036 -0.3467  1.9393
  310MOL0     H41843   0.297  10.501   7.109  1.1914 -1.7988  1.4660
  310MOL0     H41844   0.236  10.592   7.339  0.4857  3.6500  1.0151
  310MOL0     H41845   0.402  10.621   7.372  1.5521  1.3731 -1.8162
  310MOL0     H41846   0.456  10.381   7.367  0.8574  0.0260  0.8881
  310MOL0     H41847   0.304  10.344   7.285 -3.0439 -1.6293  3.2995
  310MOL0     H41848   0.175  10.415   7.687 -1.7906  0.2340 -0.9105
  310MOL0     H41849   0.415  10.897   6.931 -1.5919  1.1896  0.1364
  310MOL0     H41850   0.546  11.080   6.853  1.6813 -0.0566 -0.6189
  311MOL0     O41851  10.967   8.834   7.644 -1.1258  0.1715  0.4351
  311MOL0     C41852  10.909   8.726   7.628  1.0657  0.3516  0.4766
  311MOL0     O41853  10.947   8.619   7.547 -0.0145 -0.2814  0.1099
  311MOL0     C41854  11.037   8.631   7.451 -0.0978  0.1160  0.7825
  311MOL0     C41855  11.016   8.728   7.349 -0.5065  0.2028  0.8508
  311MOL0     C41856  11.115   8.739   7.245  0.7944  0.1319 -0.7648
  311MOL0     C41857  11.221   8.651   7.241 -0.6072 -0.4802  0.6705
  311MOL0     O41858  11.288   8.657   7.120  0.6569 -0.5918  0.0785
  311MOL0     C41859  11.425   8.605   7.103 -0.7437 -0.3192 -0.5643
  311MOL0     C41860  11.471   8.647   6.962  0.4323 -0.1977  0.6864
  311MOL0     C41861  11.475   8.795   6.938 -0.3113  0.3919 -0.1707
  311MOL0     C41862  11.489   8.832   6.794  0.3475  1.1587  0.6550
  311MOL0     C41863  11.625   8.788   6.749  0.4864 -0.2619 -0.0166
  311MOL0     C41864  11.650   8.842   6.618 -0.3786 -0.6314  0.1536
  311MOL0     C41865  11.794   8.812   6.565 -0.2663  0.4900  0.2273
  311MOL0     C41866  11.813   8.847   6.417  0.1460  0.2165 -0.3300
  311MOL0     N41867  11.742   8.751   6.327 -0.7938 -1.0031 -0.1336
  311MOL0     C41868  11.791   8.631   6.278 -0.1164  0.3460  0.8814
  311MOL0     C41869  11.687   8.596   6.196  0.0360  0.1797 -0.6522
  311MOL0     C41870  11.683   8.466   6.125  0.4346 -0.2879 -0.3776
  311MOL0     C41871  11.555   8.389   6.160 -0.9864  0.5563 -0.1798
  311MOL0     C41872  11.429   8.442   6.096  0.2249 -0.3869  0.1858
  311MOL0     C41873  11.329   8.462   6.207 -0.3910 -0.3767  0.5691
  311MOL0     O41874  11.221   8.536   6.143 -0.1780 -0.7883  0.3151
  311MOL0     C41875  11.136   8.600   6.227 -0.8576  0.0235  0.6085
  311MOL0     C41876  11.179   8.695   6.320 -0.0032  1.0446 -0.2336
  311MOL0     C41877  11.105   8.762   6.411 -0.3747 -0.1364  0.2698
  311MOL0     C41878  11.179   8.851   6.506 -0.0012  0.1510 -0.3726
  311MOL0     C41879  10.973   8.719   6.428  0.3217 -0.7178  0.1997
  311MOL0     C41880  10.874   8.797   6.517  0.1877  0.3700  0.1299
  311MOL0     O41881  10.906   8.835   6.650 -0.0814  0.1659 -0.1841
  311MOL0     C41882  10.818   8.921   6.710 -0.5142  0.3830 -0.4003
  311MOL0     C41883  10.718   9.006   6.659  0.5173 -0.4204 -0.5183
  311MOL0     C41884  10.628   9.085   6.730 -0.3073  0.5667  0.6303
  311MOL0     C41885  10.626   9.067   6.866  0.3091 -0.1896  0.2678
  311MOL0     O41886  10.539   9.133   6.946  0.9470  0.4203 -0.4326
  311MOL0     C41887  10.413   9.070   6.953  0.0740  0.2249 -0.3987
  311MOL0     C41888  10.314   9.139   7.041  0.1689  0.6667  0.0882
  311MOL0     C41889  10.359   9.128   7.184 -0.2271 -0.7729 -0.9756
  311MOL0     C41890  10.244   9.169   7.279 -0.3990  0.4081 -0.0418
  311MOL0     C41891  10.290   9.174   7.423  0.3609 -0.1093  0.3228
  311MOL0     C41892  10.180   9.233   7.517 -0.6021 -0.1850 -0.7220
  311MOL0     C41893  10.054   9.156   7.515 -0.1020 -0.6208  0.0730
  311MOL0     C41894   9.955   9.220   7.613  0.2407  0.0719 -0.0720
  311MOL0    Cl41895   9.903   9.388   7.561 -0.4982 -0.3724 -0.2242
  311MOL0     C41896  10.728   8.985   6.928 -0.5986 -0.2902  0.5598
  311MOL0     C41897  10.815   8.920   6.845  0.9241 -0.6304  0.8471
  311MOL0     O41898  10.766   8.794   6.461  0.4572 -0.6720 -0.2412
  311MOL0     C41899  10.916   8.639   6.321  0.4532  0.4435  0.2760
  311MOL0     C41900  11.001   8.581   6.228 -0.1425  0.2097  0.4777
  311MOL0     N41901  11.592   8.702   6.188 -0.9053 -0.5873  0.0214
  311MOL0     N41902  11.618   8.788   6.275 -0.2965  0.0880 -0.8894
  311MOL0     C41903  11.249   8.561   7.338  0.8179  0.6447  0.1768
  311MOL0     C41904  11.154   8.544   7.443 -0.3870 -0.0553 -0.1992
  311MOL0     C41905  10.776   8.713   7.703  0.0103  0.1068 -0.3211
  311MOL0     C41906  10.708   8.587   7.705  1.0245  0.6534  0.2636
  311MOL0     C41907  10.585   8.578   7.778 -0.4832 -0.3032  0.0686
  311MOL0     C41908  10.528   8.685   7.845 -0.7981  0.5330 -0.1603
  311MOL0     O41909  10.409   8.681   7.913  0.1074  0.4061 -0.9478
  311MOL0     C41910  10.327   8.566   7.909  0.1499  0.5504 -0.1149
  311MOL0     C41911  10.206   8.592   7.999 -0.3410  0.3025  0.5268
  311MOL0     C41912  10.239   8.622   8.147  0.3963 -0.8418 -0.9128
  311MOL0     C41913  10.231   8.772   8.190  0.3692  0.3444 -0.1060
  311MOL0     C41914  10.198   8.780   8.336 -0.5852 -1.1648  0.9976
  311MOL0     C41915  10.163   8.808   8.444  0.5698  0.7759  0.9784
  311MOL0     C41916  10.597   8.807   7.841  0.0227 -0.2618  0.1980
  311MOL0     C41917  10.725   8.817   7.778  0.0692 -0.6137  0.5621
  311MOL0     H41918  10.932   8.797   7.342 -0.6886 -0.1977 -1.7349
  311MOL0     H41919  11.097   8.814   7.168  3.2716  1.5033 -0.1091
  311MOL0     H41920  11.492   8.654   7.174  0.0964 -1.2037 -0.7280
  311MOL0     H41921  11.435   8.498   7.123 -0.3518  0.0135  1.1377
  311MOL0     H41922  11.564   8.597   6.932 -1.4704 -2.4182 -2.0625
  311MOL0     H41923  11.398   8.603   6.894  0.4513  0.4163  0.2645
  311MOL0     H41924  11.390   8.844   6.986  0.0808 -0.8667  1.9438
  311MOL0     H41925  11.569   8.826   6.985 -0.7448 -2.0788  2.6351
  311MOL0     H41926  11.424   8.781   6.722  1.0639  0.4981  0.4674
  311MOL0     H41927  11.490   8.941   6.796 -2.9198  1.3416 -1.0428
  311MOL0     H41928  11.707   8.829   6.809  5.1059 -0.9293 -4.9980
  311MOL0     H41929  11.634   8.679   6.744 -0.9754 -0.4776  1.4562
  311MOL0     H41930  11.579   8.821   6.538  1.6398 -0.2804 -1.8400
  311MOL0     H41931  11.636   8.951   6.620 -0.6472 -0.6585  2.6580
  311MOL0     H41932  11.875   8.864   6.616 -0.8956  1.5579  0.1846
  311MOL0     H41933  11.824   8.708   6.573 -2.2425 -0.2547 -1.1680
  311MOL0     H41934  11.920   8.852   6.396 -0.0450  2.4299 -0.9610
  311MOL0     H41935  11.775   8.947   6.396 -1.1884 -0.7353 -2.8813
  311MOL0     H41936  11.869   8.562   6.307 -1.5004 -0.8295  1.9733
  311MOL0     H41937  11.674   8.489   6.018  2.1404  4.7534  0.2743
  311MOL0     H41938  11.774   8.411   6.149  0.7117  0.9261  1.5716
  311MOL0     H41939  11.547   8.374   6.268 -0.2307 -0.5735 -0.2623
  311MOL0     H41940  11.572   8.291   6.114 -1.9504  0.2992 -0.0050
  311MOL0     H41941  11.385   8.371   6.026 -0.1067 -0.6323  0.6376
  311MOL0     H41942  11.448   8.534   6.041 -2.1915  0.4689  0.6459
  311MOL0     H41943  11.384   8.532   6.271 -1.9336  0.6909  0.7732
  311MOL0     H41944  11.304   8.372   6.264 -0.0439 -1.7071 -1.2654
  311MOL0     H41945  11.280   8.733   6.310 -0.2560  1.6850 -0.4613
  311MOL0     H41946  11.282   8.860   6.473 -0.6263  2.0626 -1.9731
  311MOL0     H41947  11.131   8.947   6.527 -1.7864 -0.8430  0.3379
  311MOL0     H41948  11.174   8.792   6.598  0.7909  0.5556 -0.0684
  311MOL0     H41949  10.705   9.019   6.552  1.1565 -0.5509 -0.6174
  311MOL0     H41950  10.557   9.153   6.684  0.5768  1.4601  0.5350
  311MOL0     H41951  10.373   9.065   6.851  0.1534  0.7653 -0.4598
  311MOL0     H41952  10.424   8.970   6.995 -0.4545  0.8715  1.3911
  311MOL0     H41953  10.300   9.243   7.008  2.2394  0.2921 -2.2811
  311MOL0     H41954  10.226   9.079   7.021 -0.7677  0.8861  3.1175
  311MOL0     H41955  10.443   9.196   7.203 -0.0366 -1.3827  0.5304
  311MOL0     H41956  10.392   9.027   7.208 -0.9965 -0.8187 -0.0364
  311MOL0     H41957  10.211   9.271   7.256 -0.6946  0.7463  1.7627
  311MOL0     H41958  10.165   9.096   7.257  1.5185 -1.4668 -1.1247
  311MOL0     H41959  10.377   9.240   7.430  1.0409 -1.0361  0.8055
  311MOL0     H41960  10.319   9.076   7.462  0.0495 -0.1332  0.4979
  311MOL0     H41961  10.218   9.229   7.620 -3.7916 -0.7422  0.5490
  311MOL0     H41962  10.162   9.338   7.492 -0.4173  0.0800  0.1890
  311MOL0     H41963  10.068   9.052   7.545 -0.7222 -0.8137 -0.2832
  311MOL0     H41964  10.009   9.150   7.415  1.3405  1.7525 -0.8158
  311MOL0     H41965   9.989   9.218   7.717  1.1790 -1.5725 -0.3815
  311MOL0     H41966   9.863   9.161   7.617 -1.0728  2.0668  1.9876
  311MOL0     H41967  10.734   8.990   7.037  2.6227 -0.7920  0.4977
  311MOL0     H41968  10.876   8.841   6.886  1.0716 -1.8751 -1.5919
  311MOL0     H41969  10.814   8.600   6.324  0.5721 -0.0489 -1.3450
  311MOL0     H41970  10.958   8.509   6.158 -2.6354  0.9462  1.1490
  311MOL0     H41971  11.330   8.491   7.317 -0.9425 -1.2189 -0.7979
  311MOL0     H41972  11.157   8.464   7.515  1.8016  0.5437  0.4565
  311MOL0     H41973  10.751   8.504   7.650  2.0460 -1.8409  4.3211
  311MOL0     H41974  10.523   8.489   7.783 -1.7192  0.5967  2.3772
  311MOL0     H41975  10.291   8.538   7.810 -0.1200  3.4680 -0.9534
  311MOL0     H41976  10.371   8.477   7.955  0.8750  1.1092  0.2960
  311MOL0     H41977  10.134   8.510   7.992 -1.1028  1.0784 -1.6643
  311MOL0     H41978  10.155   8.683   7.965 -3.1016 -0.6024  1.8782
  311MOL0     H41979  10.339   8.581   8.163 -0.0083 -1.0097  1.5915
  311MOL0     H41980  10.171   8.566   8.212 -0.9455  1.9183  0.2189
  311MOL0     H41981  10.150   8.827   8.140  2.4304  0.4259 -3.6926
  311MOL0     H41982  10.316   8.829   8.152 -0.6727  2.3901  0.4665
  311MOL0     H41983  10.134   8.834   8.544  2.1903 -1.6856  2.1644
  311MOL0     H41984  10.551   8.885   7.902 -0.8701 -2.2869  2.2618
  311MOL0     H41985  10.777   8.912   7.773  0.7013 -0.7688  3.0162
  312MOL0     O41986   5.877   0.066   2.001 -0.2301 -0.7847 -0.0448
  312MOL0     C41987   5.851   0.046   1.884 -0.1163 -0.6192  0.2817
  312MOL0     O41988   5.737  -0.008   1.835  0.5314 -0.1670  0.1003
  312MOL0     C41989   5.643  -0.068   1.921 -0.5656  0.8817  1.0311
  312MOL0     C41990   5.681  -0.143   2.039  0.7322 -0.5661 -0.7654
  312MOL0     C41991   5.584  -0.227   2.106  0.3325  0.2087 -0.3290
  312MOL0     C41992   5.449  -0.231   2.064 -0.1266 -0.2183 -0.0111
  312MOL0     O41993   5.360  -0.289   2.155  0.1279 -0.3785  0.7075
  312MOL0     C41994   5.252  -0.359   2.101 -0.7268  0.4651  0.1254
  312MOL0     C41995   5.302  -0.478   2.015 -1.1466 -0.4269 -0.3655
  312MOL0     C41996   5.178  -0.535   1.938  0.3751  0.1379 -0.0146
  312MOL0     C41997   5.061  -0.599   2.012 -0.2205  0.3470  0.2721
  312MOL0     C41998   4.969  -0.678   1.927 -0.2819 -1.0900 -1.0534
  312MOL0     C41999   4.856  -0.738   2.014 -1.2754  0.5751 -0.1859
  312MOL0     C42000   4.899  -0.831   2.126  0.5626 -0.2653 -0.1670
  312MOL0     C42001   4.779  -0.871   2.206 -0.9873  0.1320  1.1745
  312MOL0     N42002   4.652  -0.877   2.136 -0.5385  1.3338 -0.8427
  312MOL0     C42003   4.598  -0.985   2.067  0.6542 -0.0345 -0.5449
  312MOL0     C42004   4.462  -0.966   2.065 -0.2054 -1.5699 -1.0800
  312MOL0     C42005   4.339  -1.042   2.036  0.7303 -0.3338 -0.0517
  312MOL0     C42006   4.266  -1.078   2.165  0.6693  1.5561  0.7339
  312MOL0     C42007   4.169  -1.190   2.147 -0.9061  0.8031 -0.3727
  312MOL0     C42008   4.083  -1.202   2.260 -0.1517 -0.0031  0.0478
  312MOL0     O42009   4.147  -1.230   2.387  0.1270  0.1918 -0.1289
  312MOL0     C42010   4.173  -1.353   2.441  0.1219 -0.1872 -0.3245
  312MOL0     C42011   4.143  -1.471   2.372 -0.4262  0.1242 -0.2722
  312MOL0     C42012   4.147  -1.605   2.435  0.1028 -0.0728  0.1011
  312MOL0     C42013   4.119  -1.726   2.335 -0.4399 -0.3411  0.5240
  312MOL0     C42014   4.167  -1.606   2.577  0.4966  0.4780 -0.2126
  312MOL0     C42015   4.164  -1.734   2.657  0.7862  0.7205  0.5217
  312MOL0     O42016   4.206  -1.724   2.785 -0.3722  0.0544  0.5400
  312MOL0     C42017   4.188  -1.843   2.856 -0.1250 -0.2130  0.8517
  312MOL0     C42018   4.073  -1.871   2.930 -0.0756 -0.8410  0.4482
  312MOL0     C42019   4.051  -1.991   2.993  0.0388  1.2709 -0.0495
  312MOL0     C42020   4.150  -2.092   2.980 -0.1193 -0.6149 -0.5891
  312MOL0     O42021   4.158  -2.214   3.052 -0.1837  0.1903  0.5391
  312MOL0     C42022   4.043  -2.300   3.072 -0.2554 -0.1361 -0.2150
  312MOL0     C42023   4.092  -2.446   3.072 -0.1648  0.5653 -0.7958
  312MOL0     C42024   4.206  -2.466   3.180  0.2356 -0.1205 -0.6434
  312MOL0     C42025   4.242  -2.613   3.201  0.4279  0.2628  0.3119
  312MOL0     C42026   4.381  -2.623   3.273 -0.4940 -0.6290  0.9945
  312MOL0     C42027   4.408  -2.768   3.320  0.5345  0.0583  0.0953
  312MOL0     C42028   4.556  -2.806   3.359 -0.6747 -0.0454  0.3027
  312MOL0     C42029   4.575  -2.741   3.501  0.0295 -0.7616  0.1944
  312MOL0    Cl42030   4.719  -2.815   3.578 -0.0718 -0.1017  0.1504
  312MOL0     C42031   4.272  -2.053   2.923 -0.4258 -0.2859  0.4781
  312MOL0     C42032   4.297  -1.934   2.861  0.0328 -0.8850 -0.5527
  312MOL0     O42033   4.136  -1.843   2.597  0.7323  0.2047  0.2081
  312MOL0     C42034   4.195  -1.485   2.641 -0.2678  1.0604 -0.0065
  312MOL0     C42035   4.196  -1.362   2.574 -0.0644  0.0351 -0.0239
  312MOL0     N42036   4.438  -0.845   2.119 -0.4203 -0.0041 -0.4848
  312MOL0     N42037   4.552  -0.788   2.162  0.0120  0.1106 -0.1313
  312MOL0     C42038   5.411  -0.161   1.949  0.0041  0.9568  0.3349
  312MOL0     C42039   5.508  -0.081   1.876 -0.3980  0.2680 -0.6778
  312MOL0     C42040   5.953   0.079   1.778  0.2586 -1.1718 -0.5727
  312MOL0     C42041   6.081   0.106   1.818  0.0897  0.7726  0.2977
  312MOL0     C42042   6.180   0.138   1.724 -0.6512 -0.3014 -0.0122
  312MOL0     C42043   6.153   0.141   1.590  0.8389 -1.1722  0.8253
  312MOL0     O42044   6.251   0.186   1.504 -0.1502 -0.0714 -0.1531
  312MOL0     C42045   6.212   0.220   1.362 -0.2067  0.7093 -0.0880
  312MOL0     C42046   6.123   0.346   1.363  0.3021  1.1670 -0.1088
  312MOL0     C42047   6.193   0.467   1.431  0.2770 -0.3472 -0.1096
  312MOL0     C42048   6.232   0.586   1.329  0.0085 -0.1666  0.2825
  312MOL0     C42049   6.295   0.694   1.405 -0.0555 -0.5202 -0.0361
  312MOL0     C42050   6.319   0.798   1.461 -0.0335 -0.2670 -0.0884
  312MOL0     C42051   6.018   0.098   1.551 -0.4304 -0.7530  0.6779
  312MOL0     C42052   5.920   0.070   1.643  0.1875  0.3058  0.3284
  312MOL0     H42053   5.784  -0.150   2.070  0.8449  0.4213 -0.8675
  312MOL0     H42054   5.610  -0.277   2.199 -0.0026  2.6573  1.1650
  312MOL0     H42055   5.175  -0.393   2.170 -0.8089  0.3019 -0.0437
  312MOL0     H42056   5.193  -0.287   2.043  1.7658  1.7496 -0.9801
  312MOL0     H42057   5.391  -0.452   1.958  0.9209 -1.6092  2.1390
  312MOL0     H42058   5.353  -0.553   2.077  3.2872  1.3243 -1.5132
  312MOL0     H42059   5.140  -0.459   1.870  0.9967  1.2075  0.7963
  312MOL0     H42060   5.218  -0.616   1.878  0.0021  0.7332 -1.0865
  312MOL0     H42061   5.111  -0.669   2.080  1.4973  1.5153  0.2904
  312MOL0     H42062   4.996  -0.532   2.069 -3.5097 -2.7009  0.3995
  312MOL0     H42063   4.916  -0.609   1.860 -4.3683 -1.0083  1.9112
  312MOL0     H42064   5.015  -0.757   1.866 -1.5067 -0.8632 -2.3234
  312MOL0     H42065   4.799  -0.659   2.064  0.3054  0.2316  2.3023
  312MOL0     H42066   4.803  -0.800   1.941  0.0148 -0.3228 -0.3991
  312MOL0     H42067   4.956  -0.916   2.087  1.3682  0.6576 -1.0639
  312MOL0     H42068   4.958  -0.778   2.201  1.1370 -0.3902 -0.5219
  312MOL0     H42069   4.772  -0.791   2.281  0.7437  2.1747 -0.6852
  312MOL0     H42070   4.792  -0.969   2.252  2.1549  0.1949  0.6470
  312MOL0     H42071   4.647  -1.076   2.033  1.0997 -0.4842  1.1982
  312MOL0     H42072   4.278  -0.982   1.967  0.6068 -2.3344 -1.7648
  312MOL0     H42073   4.360  -1.135   1.983 -3.8453 -1.0264 -1.0698
  312MOL0     H42074   4.217  -0.986   2.199 -1.7420  0.2645  0.8706
  312MOL0     H42075   4.339  -1.107   2.241  2.4218 -0.2228 -1.5051
  312MOL0     H42076   4.212  -1.290   2.137 -1.2313 -0.0364  4.3104
  312MOL0     H42077   4.115  -1.171   2.054 -0.1480 -0.5681 -1.1275
  312MOL0     H42078   4.015  -1.287   2.250  3.9527 -3.5757 -0.6796
  312MOL0     H42079   4.023  -1.111   2.257 -1.3819 -0.6803  2.1142
  312MOL0     H42080   4.120  -1.462   2.266 -0.3083 -2.4454 -0.5741
  312MOL0     H42081   4.106  -1.698   2.230 -3.4180  0.1067  0.9162
  312MOL0     H42082   4.208  -1.789   2.336 -0.9589 -1.1831 -1.1289
  312MOL0     H42083   4.027  -1.779   2.361 -1.4566  0.9523 -0.3211
  312MOL0     H42084   3.995  -1.796   2.915  0.7024 -0.3775 -1.7853
  312MOL0     H42085   3.964  -2.015   3.053  0.9088 -3.3903 -0.2661
  312MOL0     H42086   4.008  -2.277   3.173  2.4380 -0.3138  0.8578
  312MOL0     H42087   3.970  -2.295   2.990  2.3352 -0.1592 -2.6838
  312MOL0     H42088   4.006  -2.512   3.087  1.0696 -1.6924 -2.8117
  312MOL0     H42089   4.120  -2.484   2.973 -4.3503 -0.5292 -1.7356
  312MOL0     H42090   4.168  -2.408   3.266  0.7650 -0.0364 -0.4656
  312MOL0     H42091   4.298  -2.412   3.156 -0.1591  1.9903  2.0505
  312MOL0     H42092   4.162  -2.669   3.253 -0.7074 -0.4523 -2.0757
  312MOL0     H42093   4.252  -2.653   3.100 -0.2969  1.9629 -0.4658
  312MOL0     H42094   4.375  -2.552   3.356  0.1096 -2.1023  2.3594
  312MOL0     H42095   4.459  -2.599   3.200 -1.4351  0.4402  0.3190
  312MOL0     H42096   4.338  -2.790   3.401 -1.3780 -0.2670 -1.5790
  312MOL0     H42097   4.382  -2.846   3.248 -0.7799  0.9097 -0.3853
  312MOL0     H42098   4.634  -2.768   3.293 -0.0490 -2.4027 -0.3809
  312MOL0     H42099   4.568  -2.914   3.361 -0.0155 -0.0133 -0.8211
  312MOL0     H42100   4.486  -2.766   3.559  0.5778 -0.6136  1.1206
  312MOL0     H42101   4.588  -2.633   3.490  0.3932 -0.8039  0.1919
  312MOL0     H42102   4.345  -2.132   2.937  0.1126  0.6516  3.7613
  312MOL0     H42103   4.388  -1.907   2.809 -1.1805  1.5434 -1.5832
  312MOL0     H42104   4.209  -1.485   2.749  0.4603 -2.6820  0.0330
  312MOL0     H42105   4.210  -1.267   2.624 -1.5099 -0.0783  0.6499
  312MOL0     H42106   5.313  -0.174   1.904  0.8228 -1.2813 -0.9962
  312MOL0     H42107   5.473  -0.023   1.791 -2.2915  0.6342  0.2861
  312MOL0     H42108   6.105   0.103   1.924  1.6901 -0.9664 -0.0606
  312MOL0     H42109   6.274   0.178   1.761 -0.6609 -1.1652  1.0053
  312MOL0     H42110   6.297   0.248   1.300  0.9366  0.2948  1.2499
  312MOL0     H42111   6.159   0.138   1.313 -2.4738  0.5497  2.4011
  312MOL0     H42112   6.032   0.317   1.417  1.8963 -2.2348  0.9876
  312MOL0     H42113   6.112   0.376   1.258  2.8179  0.5595 -0.6107
  312MOL0     H42114   6.281   0.444   1.491  1.7832  4.2044 -0.1701
  312MOL0     H42115   6.114   0.504   1.498 -0.1733  0.7141 -1.1842
  312MOL0     H42116   6.145   0.625   1.275 -0.8567 -0.5099  1.3795
  312MOL0     H42117   6.302   0.546   1.255  1.3886  1.4082  0.6738
  312MOL0     H42118   6.363   0.887   1.501 -0.9356  0.5700 -0.9030
  312MOL0     H42119   6.005   0.077   1.445  2.9352 -0.6059  0.1152
  312MOL0     H42120   5.827   0.037   1.599  0.3362 -0.5724  0.6621
  313MOL0     O42121   7.538   1.981   9.569 -0.6962  0.0120  0.6318
  313MOL0     C42122   7.508   1.928   9.460 -0.7240 -0.2557 -0.5677
  313MOL0     O42123   7.514   1.798   9.427 -0.2544 -0.4334  0.0074
  313MOL0     C42124   7.530   1.697   9.517  0.7217 -0.7416 -0.8825
  313MOL0     C42125   7.447   1.678   9.631 -0.4608 -0.3630  0.2983
  313MOL0     C42126   7.456   1.562   9.707 -0.3396 -0.4286  0.1420
  313MOL0     C42127   7.541   1.456   9.678 -0.0696 -0.3139  0.5878
  313MOL0     O42128   7.564   1.346   9.759  0.6430 -0.5321 -0.2250
  313MOL0     C42129   7.516   1.335   9.896 -0.1135  0.0184  0.3356
  313MOL0     C42130   7.599   1.232   9.962 -0.6304  0.7000  0.5551
  313MOL0     C42131   7.555   1.190  10.101  0.1330 -0.8032 -0.3595
  313MOL0     C42132   7.600   1.305  10.196  0.4337 -0.4010 -0.6356
  313MOL0     C42133   7.566   1.269  10.339  0.1040  0.1224  0.2986
  313MOL0     C42134   7.597   1.387  10.436 -0.3295 -0.3102  0.4933
  313MOL0     C42135   7.633   1.331  10.577 -0.1116 -1.5590  0.5377
  313MOL0     C42136   7.500   1.292  10.631 -0.0282  0.2047  0.2701
  313MOL0     N42137   7.495   1.280  10.780 -0.0579 -0.8770 -0.7598
  313MOL0     C42138   7.553   1.187  10.867  0.2908  0.3953  0.2006
  313MOL0     C42139   7.525   1.227  10.994 -0.2867  1.0996  0.1801
  313MOL0     C42140   7.546   1.113  11.098 -0.3518  0.1686 -0.3041
  313MOL0     C42141   7.701   1.083  11.126  0.0084  0.2544 -0.0131
  313MOL0     C42142   7.785   1.201  11.175  0.1927 -0.5273 -0.6516
  313MOL0     C42143   7.841   1.295  11.063  0.3613 -0.3097 -0.7946
  313MOL0     O42144   7.927   1.217  10.977 -0.6999 -0.8360  0.5703
  313MOL0     C42145   7.966   1.262  10.852 -0.7453  0.4107  0.7805
  313MOL0     C42146   7.949   1.387  10.796  0.5535 -0.1002 -0.2624
  313MOL0     C42147   7.984   1.415  10.659 -0.6532  0.7710 -1.0318
  313MOL0     C42148   7.954   1.548  10.606  0.0878 -0.0766  0.4005
  313MOL0     C42149   8.044   1.312  10.581  0.3631 -0.3866 -0.2952
  313MOL0     C42150   8.100   1.328  10.451  0.0039  0.3187 -0.5997
  313MOL0     O42151   8.015   1.371  10.360 -0.4965  0.4733 -0.0736
  313MOL0     C42152   8.066   1.402  10.233 -0.1514  1.2966 -0.1379
  313MOL0     C42153   8.167   1.491  10.204 -0.0457  0.2977 -0.0318
  313MOL0     C42154   8.203   1.519  10.073 -0.3071 -0.4109 -1.1757
  313MOL0     C42155   8.141   1.462   9.967  0.8221 -0.8302  0.5753
  313MOL0     O42156   8.164   1.491   9.829 -0.9815 -0.5354 -0.1478
  313MOL0     C42157   8.290   1.545   9.792 -0.0187 -0.7801  0.1985
  313MOL0     C42158   8.299   1.576   9.646  0.1772 -0.8762  0.7321
  313MOL0     C42159   8.282   1.452   9.549 -0.4472 -0.2072  0.1399
  313MOL0     C42160   8.132   1.418   9.527 -0.9197  0.6417  0.3871
  313MOL0     C42161   8.100   1.395   9.376  0.6630  0.4879  0.0356
  313MOL0     C42162   7.942   1.371   9.349  0.9461 -0.0574  0.0548
  313MOL0     C42163   7.906   1.354   9.204 -0.4382  0.6462  0.0601
  313MOL0     C42164   7.763   1.331   9.185  1.1691  1.5290  0.1508
  313MOL0    Cl42165   7.700   1.326   9.016  0.4042  0.2281  0.2100
  313MOL0     C42166   8.050   1.367   9.984  0.0574 -0.1809 -0.5446
  313MOL0     C42167   8.013   1.337  10.122 -0.5484  0.8976  0.3938
  313MOL0     O42168   8.213   1.282  10.426 -0.0904 -0.4262 -0.7237
  313MOL0     C42169   8.079   1.193  10.643  1.3259  0.5773  0.1816
  313MOL0     C42170   8.034   1.169  10.776 -0.4902 -0.6383  0.0541
  313MOL0     N42171   7.458   1.348  10.984 -0.0220  0.5067  0.1383
  313MOL0     N42172   7.443   1.374  10.858  1.4397 -1.3191 -0.2281
  313MOL0     C42173   7.623   1.465   9.565  0.8170  0.1722  0.4206
  313MOL0     C42174   7.607   1.579   9.488 -0.2423  0.2292 -0.9804
  313MOL0     C42175   7.477   2.018   9.349  0.0303  0.2521 -0.0942
  313MOL0     C42176   7.490   2.161   9.361 -0.1275 -0.0981 -0.0124
  313MOL0     C42177   7.460   2.242   9.244  0.5991  0.8367  0.2213
  313MOL0     C42178   7.419   2.187   9.128 -0.0842 -0.9615  0.0316
  313MOL0     O42179   7.396   2.270   9.020 -0.1058  0.2727  0.4501
  313MOL0     C42180   7.279   2.243   8.944 -0.2968 -0.1769 -0.1054
  313MOL0     C42181   7.250   2.360   8.844 -0.1069 -0.2362 -0.7292
  313MOL0     C42182   7.103   2.352   8.813 -0.1168  0.0118  1.0701
  313MOL0     C42183   7.068   2.456   8.706 -0.0498 -0.3043  0.3302
  313MOL0     C42184   7.092   2.428   8.566  0.6932 -0.5247  0.9420
  313MOL0     C42185   7.106   2.407   8.446 -0.7620 -0.8839  0.0618
  313MOL0     C42186   7.417   2.047   9.109 -0.1314 -0.1165 -0.5935
  313MOL0     C42187   7.439   1.964   9.218  0.1582 -0.5159 -0.0184
  313MOL0     H42188   7.366   1.745   9.658 -2.4940 -2.8281  0.7322
  313MOL0     H42189   7.380   1.548   9.783 -0.6055  0.5135  0.0570
  313MOL0     H42190   7.531   1.425   9.957  0.0727 -0.4519  0.9944
  313MOL0     H42191   7.407   1.322   9.897 -0.3797  1.7718 -0.8278
  313MOL0     H42192   7.601   1.139   9.904 -2.5839  0.4756  0.7816
  313MOL0     H42193   7.697   1.279   9.950 -1.1784  1.5685 -0.7113
  313MOL0     H42194   7.446   1.184  10.101 -0.0683  1.7049 -1.6809
  313MOL0     H42195   7.590   1.091  10.133 -2.9645 -1.5062  1.1850
  313MOL0     H42196   7.707   1.324  10.184  0.2755  1.3709  0.4040
  313MOL0     H42197   7.557   1.401  10.166 -2.0050 -0.5842  1.8821
  313MOL0     H42198   7.459   1.252  10.351  0.0351  0.0552 -0.3835
  313MOL0     H42199   7.620   1.176  10.355  1.5750  0.4175 -2.3533
  313MOL0     H42200   7.676   1.451  10.396 -0.6617  0.6935  1.4102
  313MOL0     H42201   7.509   1.452  10.429  0.5497  0.7443 -3.1154
  313MOL0     H42202   7.714   1.257  10.584  1.7779  0.3081 -0.6477
  313MOL0     H42203   7.674   1.415  10.632  1.5504 -1.3865 -0.8696
  313MOL0     H42204   7.480   1.195  10.587 -2.2319  2.0546 -3.2735
  313MOL0     H42205   7.423   1.346  10.576 -0.4712 -1.3219 -0.6623
  313MOL0     H42206   7.597   1.096  10.827 -1.8260 -0.1048 -1.2113
  313MOL0     H42207   7.499   1.148  11.190 -1.3020 -0.0851 -0.6903
  313MOL0     H42208   7.502   1.018  11.066 -0.0319 -0.7291  1.7789
  313MOL0     H42209   7.755   1.035  11.044  0.0264  1.0316 -0.4659
  313MOL0     H42210   7.690   1.012  11.209 -1.5075 -0.8429 -1.1073
  313MOL0     H42211   7.865   1.175  11.246 -1.6862 -2.0223  1.0443
  313MOL0     H42212   7.727   1.277  11.229  1.3925  2.7104 -3.5063
  313MOL0     H42213   7.913   1.368  11.101 -1.3854  0.7248  0.6668
  313MOL0     H42214   7.759   1.340  11.005  0.0585 -1.2680 -1.1394
  313MOL0     H42215   7.900   1.460  10.861  2.8219 -1.0365  2.7197
  313MOL0     H42216   8.047   1.593  10.569 -0.2240 -0.5960 -1.0472
  313MOL0     H42217   7.877   1.538  10.530 -1.5929  0.2477  1.9781
  313MOL0     H42218   7.909   1.616  10.680 -1.5861  0.7178 -1.2795
  313MOL0     H42219   8.214   1.543  10.288  2.2523 -3.5247  1.2842
  313MOL0     H42220   8.282   1.591  10.056 -0.7021  0.0419 -1.1200
  313MOL0     H42221   8.310   1.636   9.850 -1.8153 -0.5271  0.4629
  313MOL0     H42222   8.379   1.489   9.823 -0.2188 -0.6461  1.0497
  313MOL0     H42223   8.227   1.653   9.619 -0.3717 -0.9980  1.7908
  313MOL0     H42224   8.397   1.620   9.624 -1.4524  1.1484 -3.5322
  313MOL0     H42225   8.304   1.369   9.617 -2.5710 -0.2951  0.7951
  313MOL0     H42226   8.334   1.463   9.454 -1.4820  1.9106 -0.2447
  313MOL0     H42227   8.101   1.337   9.594  2.7020  1.1672  3.0310
  313MOL0     H42228   8.069   1.506   9.544 -0.2088  1.1886  0.2467
  313MOL0     H42229   8.158   1.314   9.331  2.5894  0.0382  3.0604
  313MOL0     H42230   8.117   1.486   9.317  0.3667  1.5577  1.5415
  313MOL0     H42231   7.911   1.279   9.400 -0.7918  1.7879  2.5888
  313MOL0     H42232   7.890   1.448   9.406  0.5673  0.0547 -0.4335
  313MOL0     H42233   7.970   1.276   9.162  0.3002 -0.6799  3.3803
  313MOL0     H42234   7.924   1.449   9.151  1.1119 -0.1210 -0.8667
  313MOL0     H42235   7.704   1.402   9.244 -1.1231  0.8960 -1.2684
  313MOL0     H42236   7.742   1.236   9.235  4.1448  0.9709  0.5399
  313MOL0     H42237   8.001   1.321   9.899 -1.1070  1.7635 -0.9741
  313MOL0     H42238   7.934   1.263  10.129  0.5162 -0.8256 -3.3861
  313MOL0     H42239   8.148   1.120  10.602  1.6555  0.6704  0.5597
  313MOL0     H42240   8.065   1.073  10.818  1.4982 -0.5737 -1.1187
  313MOL0     H42241   7.680   1.381   9.529  0.7495  0.8565 -1.4035
  313MOL0     H42242   7.663   1.576   9.395  2.8876 -1.2662  0.7866
  313MOL0     H42243   7.537   2.198   9.451  2.0577 -4.3981  0.9002
  313MOL0     H42244   7.460   2.348   9.269 -1.6815  0.5369  1.8558
  313MOL0     H42245   7.302   2.155   8.883  2.0252  0.4859 -0.2909
  313MOL0     H42246   7.184   2.221   8.994 -1.6894 -0.0351 -2.4907
  313MOL0     H42247   7.306   2.336   8.753  0.8824 -1.0398  0.0630
  313MOL0     H42248   7.284   2.458   8.880  0.3895 -1.0319  1.0880
  313MOL0     H42249   7.042   2.378   8.900 -3.1107 -1.0306 -0.5976
  313MOL0     H42250   7.083   2.251   8.778  0.6034 -0.4677  1.9933
  313MOL0     H42251   7.117   2.551   8.732 -2.1945  0.2267  2.9669
  313MOL0     H42252   6.961   2.476   8.709  0.2449  2.0455 -1.6470
  313MOL0     H42253   7.115   2.381   8.343  0.6221  1.6809 -0.5298
  313MOL0     H42254   7.402   2.002   9.012  2.3599 -0.5693 -0.8446
  313MOL0     H42255   7.417   1.858   9.209  0.5860 -0.7540  1.4350
  314MOL0     O42256  11.070  10.774   4.826 -0.2805 -0.5478 -0.4181
  314MOL0     C42257  10.951  10.727   4.824 -0.2737  0.3623  0.2242
  314MOL0     O42258  10.916  10.606   4.878 -0.7917 -0.2756  0.4105
  314MOL0     C42259  10.981  10.561   4.993  0.4729  0.0350  0.4561
  314MOL0     C42260  11.025  10.652   5.097 -0.0122  0.1457  0.1753
  314MOL0     C42261  11.086  10.603   5.212 -0.4347 -0.4730  0.1231
  314MOL0     C42262  11.126  10.471   5.232  0.9962 -0.9530  0.5084
  314MOL0     O42263  11.182  10.452   5.349  0.1220  0.5142  0.7252
  314MOL0     C42264  11.272  10.343   5.349 -0.5978 -0.3175  0.8820
  314MOL0     C42265  11.421  10.405   5.341 -0.5956  0.6725  0.6970
  314MOL0     C42266  11.516  10.333   5.435  0.1276 -0.2795 -0.5413
  314MOL0     C42267  11.651  10.405   5.423  0.0612 -0.0247 -0.0529
  314MOL0     C42268  11.763  10.339   5.520  0.3270  0.6141  0.4469
  314MOL0     C42269  11.729  10.345   5.673 -0.6992  0.3891  0.5862
  314MOL0     C42270  11.796  10.233   5.748  0.0137  0.1323 -0.2689
  314MOL0     C42271  11.778  10.245   5.900 -0.8795  1.2123  0.1061
  314MOL0     N42272  11.857  10.124   5.952  0.1527  0.2964  0.0748
  314MOL0     C42273  11.989  10.125   5.985  1.0573  0.0684  0.4520
  314MOL0     C42274  12.005   9.989   6.015  0.1350 -0.1261  0.3307
  314MOL0     C42275  12.130   9.925   6.054  0.0260  0.3173 -0.9778
  314MOL0     C42276  12.196   9.875   5.928  0.2680 -0.0320  0.3708
  314MOL0     C42277  12.347   9.852   5.950 -1.0956  0.3036 -0.2686
  314MOL0     C42278  12.433   9.983   5.966  0.8139  0.8718 -0.0196
  314MOL0     O42279  12.575   9.966   5.960  0.5528 -0.0587 -0.3846
  314MOL0     C42280  12.665  10.065   6.008  0.5697  0.8678 -0.1869
  314MOL0     C42281  12.799  10.045   5.990 -0.6454 -0.0370 -0.9263
  314MOL0     C42282  12.893  10.138   6.044  0.2170 -0.3743 -0.7368
  314MOL0     C42283  13.040  10.081   6.033  0.0569 -1.2256 -0.0379
  314MOL0     C42284  12.853  10.262   6.095  0.1408 -1.2033 -0.4758
  314MOL0     C42285  12.942  10.378   6.117  1.2067 -0.4658  0.3216
  314MOL0     O42286  12.875  10.500   6.117  0.7217  0.0619 -0.3602
  314MOL0     C42287  12.912  10.606   6.204 -0.3229 -0.1390 -1.1233
  314MOL0     C42288  13.021  10.603   6.293 -0.3522 -0.1336  0.4664
  314MOL0     C42289  13.030  10.703   6.395 -1.0556  0.3797  0.6164
  314MOL0     C42290  12.946  10.814   6.403 -0.4819  0.2851  1.2299
  314MOL0     O42291  12.964  10.902   6.506 -0.0506  0.5678 -0.3531
  314MOL0     C42292  12.886  11.024   6.488  0.4209  0.6214  0.4690
  314MOL0     C42293  12.916  11.138   6.585  0.1796 -0.1178  0.1909
  314MOL0     C42294  12.882  11.091   6.722 -0.0074  0.0296 -0.1818
  314MOL0     C42295  12.729  11.080   6.758  0.5229  1.4264  0.4577
  314MOL0     C42296  12.690  11.024   6.900  0.3476  0.1938 -0.1402
  314MOL0     C42297  12.532  11.010   6.910 -0.3045 -0.5249  0.2331
  314MOL0     C42298  12.484  10.999   7.057 -0.0009 -1.0507  0.1509
  314MOL0     C42299  12.440  10.857   7.088 -0.2681 -0.0107 -0.3720
  314MOL0    Cl42300  12.358  10.838   7.247  0.6550  0.0617 -0.1072
  314MOL0     C42301  12.860  10.825   6.292 -0.6757 -0.8931  0.2961
  314MOL0     C42302  12.836  10.729   6.197  0.1662 -0.1882  0.3112
  314MOL0     O42303  13.063  10.371   6.139  0.8595 -0.3082 -0.4283
  314MOL0     C42304  12.718  10.281   6.103 -0.1928  0.6286  0.8167
  314MOL0     C42305  12.627  10.191   6.057  0.6561  0.7078 -0.7554
  314MOL0     N42306  11.888   9.920   5.990  0.2095  0.4185  0.3653
  314MOL0     N42307  11.799  10.007   5.962 -0.0283 -0.3654  0.0344
  314MOL0     C42308  11.074  10.384   5.132 -0.2244 -0.3820 -0.7820
  314MOL0     C42309  11.006  10.428   5.014  0.1983 -0.5619  0.7254
  314MOL0     C42310  10.875  10.770   4.701  0.9157  0.4622 -0.6760
  314MOL0     C42311  10.910  10.888   4.628 -0.5012  0.2145 -0.6460
  314MOL0     C42312  10.858  10.909   4.508 -0.8135  0.1768  0.2272
  314MOL0     C42313  10.745  10.841   4.466  0.8674 -0.8337  0.5090
  314MOL0     O42314  10.662  10.877   4.370 -0.1431 -0.1586 -0.0245
  314MOL0     C42315  10.685  10.987   4.273 -0.3129  0.0201 -0.2408
  314MOL0     C42316  10.789  10.965   4.162  0.3900 -0.3078  0.3625
  314MOL0     C42317  10.767  11.070   4.061 -0.0563 -0.2492 -0.1031
  314MOL0     C42318  10.643  11.063   3.972  0.3854  0.1937  0.2421
  314MOL0     C42319  10.589  11.184   3.922 -0.4783 -0.7395  0.7058
  314MOL0     C42320  10.556  11.278   3.849  0.7303 -0.3607  0.8613
  314MOL0     C42321  10.704  10.734   4.541  0.9934  1.2183 -0.3776
  314MOL0     C42322  10.774  10.684   4.655 -1.3127 -0.4613 -0.3425
  314MOL0     H42323  11.027  10.760   5.092 -0.9163  0.1205 -1.3979
  314MOL0     H42324  11.112  10.667   5.296  4.3363 -1.4182 -0.3711
  314MOL0     H42325  11.259  10.273   5.432  2.0547  0.1358  1.7737
  314MOL0     H42326  11.257  10.276   5.264  0.1619 -1.1314  1.3651
  314MOL0     H42327  11.465  10.395   5.241 -0.3222 -0.4646  0.9210
  314MOL0     H42328  11.410  10.511   5.366 -1.2833  0.3287  1.9304
  314MOL0     H42329  11.479  10.343   5.537 -1.1813 -0.3571 -0.9866
  314MOL0     H42330  11.521  10.227   5.408  2.7053  0.2451 -2.6197
  314MOL0     H42331  11.704  10.398   5.328  1.6334  4.2782  0.2886
  314MOL0     H42332  11.643  10.512   5.443  0.1645  0.8573 -4.0795
  314MOL0     H42333  11.769  10.233   5.492  0.6721  0.5212  0.8741
  314MOL0     H42334  11.857  10.391   5.499  1.1829 -1.2637 -0.5896
  314MOL0     H42335  11.756  10.446   5.704 -1.8716  1.1204 -0.6630
  314MOL0     H42336  11.622  10.334   5.691 -0.4348 -0.0955  1.9760
  314MOL0     H42337  11.746  10.137   5.735 -0.8673  0.5308  0.0683
  314MOL0     H42338  11.899  10.217   5.717 -0.4255 -0.6108 -1.3916
  314MOL0     H42339  11.671  10.255   5.921 -1.3053  0.4278 -1.5138
  314MOL0     H42340  11.824  10.338   5.934 -0.4178  1.1295 -0.2736
  314MOL0     H42341  12.046  10.216   6.000 -2.4163  2.6783 -1.0528
  314MOL0     H42342  12.189   9.998   6.109  0.5505  0.0518 -1.1858
  314MOL0     H42343  12.118   9.843   6.126  2.3873 -0.2549 -1.1782
  314MOL0     H42344  12.167   9.937   5.843 -2.4478  0.7367  1.7333
  314MOL0     H42345  12.156   9.780   5.894  1.7982  0.4743 -3.2380
  314MOL0     H42346  12.378   9.806   5.856 -2.0297 -1.3354  0.1860
  314MOL0     H42347  12.374   9.774   6.022  2.0997  1.4529 -0.0726
  314MOL0     H42348  12.406  10.014   6.068  0.7554  1.5586 -0.2444
  314MOL0     H42349  12.398  10.058   5.895  0.3115  1.3222  0.6870
  314MOL0     H42350  12.836   9.953   5.946  1.7780 -1.5956  3.6695
  314MOL0     H42351  13.105  10.096   6.120  1.4160  1.3799 -1.3962
  314MOL0     H42352  13.052   9.974   6.012  0.8669 -1.8095  2.8875
  314MOL0     H42353  13.083  10.130   5.945 -0.8490 -2.0943 -0.9918
  314MOL0     H42354  13.082  10.514   6.305 -0.3653 -0.8665 -3.5530
  314MOL0     H42355  13.097  10.701   6.480 -3.3877  1.8467  2.6342
  314MOL0     H42356  12.903  11.064   6.388  1.5873 -0.3239  0.2542
  314MOL0     H42357  12.783  10.989   6.501 -0.6533  3.0277 -1.0664
  314MOL0     H42358  13.024  11.155   6.579 -0.2199  2.3964 -1.2443
  314MOL0     H42359  12.876  11.237   6.562  0.9688  0.3711  0.8755
  314MOL0     H42360  12.913  11.181   6.776 -0.1011  0.6104 -1.0824
  314MOL0     H42361  12.938  11.001   6.749  1.2238  0.4136 -1.3725
  314MOL0     H42362  12.689  11.180   6.743  0.5604  1.6390  1.7170
  314MOL0     H42363  12.679  11.016   6.684  2.3868 -1.2885  1.3769
  314MOL0     H42364  12.724  11.087   6.983 -0.5721 -1.0847  1.2747
  314MOL0     H42365  12.736  10.927   6.922  0.7136 -0.1250 -2.1366
  314MOL0     H42366  12.473  11.087   6.858 -0.7701  0.0299  1.5317
  314MOL0     H42367  12.511  10.912   6.865  1.0977 -0.7336  0.0079
  314MOL0     H42368  12.407  11.074   7.079  1.5706  0.4037  0.8979
  314MOL0     H42369  12.563  11.020   7.130 -0.9398  0.4673  0.7896
  314MOL0     H42370  12.527  10.791   7.091 -1.2939 -1.4007 -0.2359
  314MOL0     H42371  12.385  10.806   7.008  2.0426 -0.8222 -1.5364
  314MOL0     H42372  12.797  10.913   6.285  1.1219  0.5071  0.9658
  314MOL0     H42373  12.747  10.739   6.136  0.3041  1.5053  0.3500
  314MOL0     H42374  12.674  10.367   6.152  1.3088  1.8780  0.0630
  314MOL0     H42375  12.521  10.210   6.071  0.5312  0.2028 -1.0044
  314MOL0     H42376  11.096  10.278   5.141  0.6287 -0.4567 -3.0841
  314MOL0     H42377  10.958  10.359   4.945 -1.5397 -0.0234  1.3275
  314MOL0     H42378  10.985  10.957   4.667 -0.5349  0.8850 -1.7318
  314MOL0     H42379  10.886  10.994   4.445  3.4122 -3.1554 -3.0299
  314MOL0     H42380  10.589  10.999   4.222  1.4481 -0.5400 -3.9947
  314MOL0     H42381  10.717  11.073   4.333  1.4273 -0.9621  0.3169
  314MOL0     H42382  10.777  10.871   4.108 -0.5512  0.1946 -0.3287
  314MOL0     H42383  10.894  10.976   4.190  0.5264 -0.1589 -0.1894
  314MOL0     H42384  10.856  11.068   3.997  2.9744 -1.2474  3.7622
  314MOL0     H42385  10.777  11.169   4.106  3.3213 -0.8318  0.6807
  314MOL0     H42386  10.564  11.018   4.032 -0.5199 -1.3027 -1.9476
  314MOL0     H42387  10.663  11.001   3.884 -0.7790  3.1926 -2.3454
  314MOL0     H42388  10.509  11.349   3.783  1.4460 -2.2416 -1.8786
  314MOL0     H42389  10.620  10.675   4.506 -0.2589  3.3044 -1.0781
  314MOL0     H42390  10.728  10.598   4.703 -1.4917  0.2563  0.7985
  315MOL0     O42391  10.396   0.761   3.769  0.0890 -0.0408  0.0438
  315MOL0     C42392  10.444   0.833   3.855 -0.1328 -0.0302  0.4463
  315MOL0     O42393  10.404   0.844   3.983  0.6664  0.1186 -0.5408
  315MOL0     C42394  10.295   0.776   4.044 -0.3025  0.1341  0.2109
  315MOL0     C42395  10.223   0.664   3.996 -0.1285  0.2668 -0.9502
  315MOL0     C42396  10.115   0.603   4.063  0.2651 -1.0024 -0.7807
  315MOL0     C42397  10.085   0.651   4.191  0.5251  0.0747 -0.7263
  315MOL0     O42398  10.001   0.574   4.274  0.5121 -0.0291 -0.6658
  315MOL0     C42399   9.890   0.639   4.332 -0.8859  1.3160  0.5922
  315MOL0     C42400   9.758   0.556   4.294 -0.7799  0.0712 -1.0222
  315MOL0     C42401   9.782   0.401   4.281 -0.4418 -0.4280 -0.4613
  315MOL0     C42402   9.813   0.330   4.415  0.0121 -0.1338  0.7226
  315MOL0     C42403   9.805   0.175   4.408  0.4138  0.1474  0.8648
  315MOL0     C42404   9.817   0.096   4.537 -0.3214 -1.0823 -0.6890
  315MOL0     C42405   9.708   0.140   4.635 -0.7226  0.2435  0.8795
  315MOL0     C42406   9.672   0.033   4.732 -0.4596  0.0879  0.4637
  315MOL0     N42407   9.588  -0.074   4.668 -0.6611 -0.0356  0.6001
  315MOL0     C42408   9.608  -0.207   4.673  0.5364  0.5976  0.0088
  315MOL0     C42409   9.495  -0.263   4.616 -0.3375 -0.4458  0.2188
  315MOL0     C42410   9.483  -0.412   4.582 -0.1829 -0.0188 -0.1935
  315MOL0     C42411   9.359  -0.482   4.636 -0.6543 -0.4950 -0.2756
  315MOL0     C42412   9.349  -0.458   4.793  0.9817  0.4547 -0.4249
  315MOL0     C42413   9.229  -0.545   4.845 -0.5228 -0.1954 -0.0242
  315MOL0     O42414   9.112  -0.488   4.794  0.0852 -0.5647 -0.0591
  315MOL0     C42415   8.986  -0.538   4.829  0.4662 -0.1531 -0.1992
  315MOL0     C42416   8.970  -0.626   4.935 -0.5453  0.7133 -0.5787
  315MOL0     C42417   8.843  -0.682   4.964  0.7238 -0.3586  0.5455
  315MOL0     C42418   8.837  -0.802   5.052 -0.3917 -0.4354  1.0268
  315MOL0     C42419   8.724  -0.636   4.905  0.3786 -0.6641 -0.7378
  315MOL0     C42420   8.586  -0.659   4.955 -0.6481  0.0519  0.6903
  315MOL0     O42421   8.479  -0.626   4.861  0.6269 -0.1211 -0.3987
  315MOL0     C42422   8.347  -0.666   4.880 -0.1722  0.0871 -0.3963
  315MOL0     C42423   8.281  -0.661   5.007 -0.1585 -1.2618 -0.3122
  315MOL0     C42424   8.147  -0.692   5.015  0.4020  0.2116  1.3430
  315MOL0     C42425   8.071  -0.754   4.913 -0.3205 -0.3037  0.6924
  315MOL0     O42426   7.954  -0.809   4.915  0.0424 -0.5736  0.4040
  315MOL0     C42427   7.863  -0.767   5.018  0.7376  0.4341 -0.4658
  315MOL0     C42428   7.724  -0.824   4.979  0.3052  0.5428 -1.1451
  315MOL0     C42429   7.696  -0.975   5.018 -0.2233 -0.6037 -0.2951
  315MOL0     C42430   7.760  -1.080   4.928 -0.7026  0.0008  0.4417
  315MOL0     C42431   7.892  -1.105   5.001 -0.3332 -0.6902  0.8830
  315MOL0     C42432   7.978  -1.198   4.908  1.4528 -0.2294  0.4459
  315MOL0     C42433   8.026  -1.323   4.976  0.7420 -0.1013  0.9645
  315MOL0     C42434   8.086  -1.422   4.874  0.8500 -0.0867 -0.6806
  315MOL0    Cl42435   8.157  -1.548   4.971  0.2761  0.2541  0.1668
  315MOL0     C42436   8.140  -0.770   4.793 -1.1362  0.2604  0.0335
  315MOL0     C42437   8.273  -0.720   4.777 -0.7767  0.0218  0.6724
  315MOL0     O42438   8.565  -0.703   5.065 -0.6645 -0.2953  0.2591
  315MOL0     C42439   8.744  -0.547   4.804  0.7154  0.2889  0.1746
  315MOL0     C42440   8.874  -0.496   4.764 -0.4464 -0.9621 -0.4939
  315MOL0     N42441   9.409  -0.164   4.575  0.0387  0.2679 -0.2466
  315MOL0     N42442   9.463  -0.050   4.610  0.6525  0.7443 -1.3076
  315MOL0     C42443  10.164   0.750   4.245 -0.7774 -0.3095  0.1998
  315MOL0     C42444  10.268   0.824   4.174  0.1458  0.4849 -0.2529
  315MOL0     C42445  10.585   0.876   3.822  0.6909 -0.0379 -0.0444
  315MOL0     C42446  10.624   0.924   3.697  0.0925  0.4065  0.2088
  315MOL0     C42447  10.753   0.974   3.673 -0.0693  0.6751 -0.0077
  315MOL0     C42448  10.847   0.969   3.775 -0.8174  0.0790 -1.6159
  315MOL0     O42449  10.979   1.007   3.764 -0.5085  0.5190 -0.5202
  315MOL0     C42450  11.019   1.108   3.665 -0.0785  0.5195 -0.5543
  315MOL0     C42451  11.174   1.124   3.637 -0.4284  0.1462  0.4367
  315MOL0     C42452  11.224   1.262   3.684 -1.0539 -0.1727  0.4926
  315MOL0     C42453  11.365   1.291   3.624 -0.8250 -0.0952  0.4822
  315MOL0     C42454  11.434   1.403   3.679 -0.4855 -1.2289 -1.2549
  315MOL0     C42455  11.502   1.497   3.712 -0.0417 -0.1627 -0.5529
  315MOL0     C42456  10.812   0.912   3.901  0.3250 -0.9260  0.3340
  315MOL0     C42457  10.678   0.873   3.925  0.2285  0.0297 -0.4094
  315MOL0     H42458  10.244   0.608   3.905  0.5521 -0.7719 -0.1861
  315MOL0     H42459  10.048   0.523   4.036 -2.6020  0.0212  2.5203
  315MOL0     H42460   9.883   0.640   4.441  0.9155 -4.8191  1.0915
  315MOL0     H42461   9.878   0.739   4.287 -0.6415  1.8660  1.7196
  315MOL0     H42462   9.690   0.582   4.376  0.1301  0.6089 -0.4052
  315MOL0     H42463   9.718   0.596   4.201 -1.1236  1.9438 -0.1260
  315MOL0     H42464   9.687   0.353   4.255  0.2277 -3.0258  1.4965
  315MOL0     H42465   9.858   0.368   4.209  1.3075  0.0406  1.1039
  315MOL0     H42466   9.913   0.338   4.458 -1.1965 -0.8768  3.9249
  315MOL0     H42467   9.742   0.366   4.489  1.0968 -0.5562  2.0115
  315MOL0     H42468   9.705   0.153   4.369 -0.4502  2.4623  1.5796
  315MOL0     H42469   9.878   0.138   4.336 -0.5692  1.4248 -0.8690
  315MOL0     H42470   9.796  -0.010   4.518 -0.3031 -1.0595 -0.8370
  315MOL0     H42471   9.921   0.113   4.567 -0.7008  1.8301 -0.7296
  315MOL0     H42472   9.735   0.230   4.692  2.6365  0.6388 -1.0861
  315MOL0     H42473   9.615   0.168   4.584  0.3924  4.0150  0.6562
  315MOL0     H42474   9.602   0.084   4.798 -0.7948 -1.0386  1.0044
  315MOL0     H42475   9.764  -0.005   4.779 -0.7866  1.4589  2.2723
  315MOL0     H42476   9.692  -0.268   4.704  0.0848 -0.0893 -0.1020
  315MOL0     H42477   9.488  -0.413   4.473 -2.1563 -2.6844 -0.3506
  315MOL0     H42478   9.572  -0.465   4.616 -2.1536 -2.4879  1.4275
  315MOL0     H42479   9.379  -0.589   4.622  0.2801 -1.0716  4.0550
  315MOL0     H42480   9.271  -0.439   4.587 -1.1478  0.4797  1.3953
  315MOL0     H42481   9.344  -0.349   4.806  2.1344  0.7211 -1.8555
  315MOL0     H42482   9.441  -0.486   4.845  0.9341  0.9502 -0.0585
  315MOL0     H42483   9.227  -0.559   4.954  0.3987 -2.6054 -0.2590
  315MOL0     H42484   9.239  -0.644   4.801 -0.6636  1.1132 -3.2411
  315MOL0     H42485   9.056  -0.658   4.994  1.1723  2.3038 -2.1065
  315MOL0     H42486   8.761  -0.864   5.004  0.3108 -2.2638  2.1517
  315MOL0     H42487   8.934  -0.853   5.047  0.5896  1.3272 -4.5020
  315MOL0     H42488   8.800  -0.752   5.142 -1.6729  1.2258 -0.3674
  315MOL0     H42489   8.326  -0.621   5.098 -1.5449 -0.4717  0.0519
  315MOL0     H42490   8.102  -0.688   5.114 -0.0344 -0.9718  1.2055
  315MOL0     H42491   7.889  -0.819   5.111 -0.4496 -2.2617 -1.5338
  315MOL0     H42492   7.858  -0.659   5.033 -3.5818  0.4319 -0.5820
  315MOL0     H42493   7.654  -0.758   5.033  0.3948  0.4775 -0.9491
  315MOL0     H42494   7.710  -0.814   4.871  4.8776 -1.7797 -2.2042
  315MOL0     H42495   7.589  -1.000   5.025 -0.7332  1.7000  1.4863
  315MOL0     H42496   7.731  -0.983   5.122 -2.2126  1.2955  0.6090
  315MOL0     H42497   7.701  -1.172   4.932 -3.6833  1.7249 -0.7562
  315MOL0     H42498   7.774  -1.040   4.827  2.3254 -0.0933  0.7349
  315MOL0     H42499   7.865  -1.153   5.095  1.6420 -0.6000  1.5432
  315MOL0     H42500   7.949  -1.013   5.018 -0.4431 -0.4126 -0.1658
  315MOL0     H42501   7.919  -1.233   4.823  0.4000 -1.3009  1.5757
  315MOL0     H42502   8.060  -1.141   4.864  1.3457  0.5693  1.2704
  315MOL0     H42503   7.946  -1.357   5.042 -2.5693  2.2276 -1.4816
  315MOL0     H42504   8.104  -1.281   5.040 -1.2694  5.4312  0.3737
  315MOL0     H42505   8.168  -1.378   4.817  1.1938  0.5264  0.2605
  315MOL0     H42506   8.005  -1.467   4.816 -2.1601  0.7902  2.4562
  315MOL0     H42507   8.076  -0.812   4.715 -0.6672 -0.3067 -0.0531
  315MOL0     H42508   8.326  -0.739   4.684 -0.7905  0.5618  0.5523
  315MOL0     H42509   8.661  -0.507   4.746  2.1472  2.7649 -0.2902
  315MOL0     H42510   8.893  -0.426   4.682  0.4825  1.3479  1.5667
  315MOL0     H42511  10.144   0.762   4.351  1.9066 -1.1727  0.8701
  315MOL0     H42512  10.322   0.902   4.227 -0.2269 -0.3718  1.4777
  315MOL0     H42513  10.552   0.925   3.615 -0.0934  4.2859  0.2386
  315MOL0     H42514  10.769   1.000   3.569 -1.1319 -1.3372 -0.7244
  315MOL0     H42515  10.971   1.081   3.570 -1.4156 -0.1865  0.2781
  315MOL0     H42516  10.984   1.207   3.692  0.3853  0.6711 -0.5000
  315MOL0     H42517  11.181   1.119   3.528 -4.1499 -0.1066  0.0637
  315MOL0     H42518  11.226   1.043   3.689  2.7518  2.0303  0.4133
  315MOL0     H42519  11.219   1.274   3.793  2.4107  0.8179  0.6564
  315MOL0     H42520  11.159   1.338   3.640 -2.0631 -1.1888  0.1892
  315MOL0     H42521  11.362   1.308   3.516 -0.2758 -1.6559  0.1901
  315MOL0     H42522  11.432   1.205   3.632 -0.4177  0.0465 -1.0775
  315MOL0     H42523  11.560   1.578   3.751  1.3781 -2.0923  1.6128
  315MOL0     H42524  10.895   0.892   3.968  2.4101 -0.6856 -2.0190
  315MOL0     H42525  10.661   0.837   4.026  2.4540  0.9118  0.3416
  316MOL0     O42526  11.465  11.052   2.931 -0.1043  0.4245 -0.1701
  316MOL0     C42527  11.365  11.029   2.995  0.1459 -0.0120 -1.0450
  316MOL0     O42528  11.341  11.058   3.123 -0.4037 -0.0715 -0.6096
  316MOL0     C42529  11.441  11.106   3.207  0.0136 -0.5100 -0.3683
  316MOL0     C42530  11.383  11.157   3.325 -0.3464  0.3128  0.1110
  316MOL0     C42531  11.472  11.216   3.416 -0.3737 -0.1768  0.4832
  316MOL0     C42532  11.611  11.208   3.406  0.4580  1.0550  0.0392
  316MOL0     O42533  11.701  11.229   3.511 -0.1187 -0.8694 -0.2233
  316MOL0     C42534  11.660  11.178   3.637  0.4110 -0.6233 -0.4087
  316MOL0     C42535  11.777  11.155   3.719  0.3539  0.2174  0.0542
  316MOL0     C42536  11.745  11.065   3.839  0.5296  0.1990  0.6740
  316MOL0     C42537  11.863  11.020   3.916 -0.6936 -0.2727  0.4831
  316MOL0     C42538  11.979  10.965   3.827  0.0783  0.0729  0.0627
  316MOL0     C42539  11.961  10.846   3.735 -0.4039 -0.4555 -0.5828
  316MOL0     C42540  11.904  10.717   3.795  0.2959 -0.0870  0.8278
  316MOL0     C42541  11.913  10.608   3.688 -0.1865  0.6847  0.0514
  316MOL0     N42542  11.833  10.637   3.566 -0.3018 -0.3401  0.3474
  316MOL0     C42543  11.706  10.694   3.557 -0.7988 -0.0208  0.7304
  316MOL0     C42544  11.674  10.695   3.427 -0.3952 -0.6536 -0.6958
  316MOL0     C42545  11.551  10.757   3.369  0.6963 -0.0917 -0.6350
  316MOL0     C42546  11.432  10.659   3.373 -0.7655  0.1661  1.5349
  316MOL0     C42547  11.324  10.707   3.280  0.9342 -0.0640  0.4296
  316MOL0     C42548  11.197  10.625   3.302 -0.1711  1.3113 -0.1904
  316MOL0     O42549  11.103  10.678   3.209 -0.2557  0.0270  0.0182
  316MOL0     C42550  11.010  10.587   3.164 -1.0249  0.6091 -0.8926
  316MOL0     C42551  10.917  10.525   3.249  0.6524  0.0030 -0.1547
  316MOL0     C42552  10.807  10.445   3.193  0.8124 -0.2525 -0.0983
  316MOL0     C42553  10.694  10.412   3.292  0.4323  0.3228 -1.3447
  316MOL0     C42554  10.798  10.431   3.053 -0.6704 -0.5636 -0.5187
  316MOL0     C42555  10.693  10.358   2.975 -0.1971 -0.1424 -0.8150
  316MOL0     O42556  10.721  10.332   2.837 -0.0766  0.1687 -0.2601
  316MOL0     C42557  10.616  10.299   2.752  0.2577  0.2973  0.2611
  316MOL0     C42558  10.479  10.305   2.778 -0.1902 -0.2489  0.5613
  316MOL0     C42559  10.391  10.265   2.683 -0.5230  0.5520  0.5609
  316MOL0     C42560  10.432  10.200   2.566 -0.3198 -0.1020  0.1362
  316MOL0     O42561  10.345  10.181   2.454 -0.7592  0.1299  0.4496
  316MOL0     C42562  10.275  10.299   2.403 -0.7859 -0.1287  0.3968
  316MOL0     C42563  10.204  10.269   2.266  0.4390 -0.0213 -0.2820
  316MOL0     C42564  10.309  10.224   2.169 -0.5001  0.1716  0.1357
  316MOL0     C42565  10.256  10.211   2.029 -0.3007  0.6092 -0.7533
  316MOL0     C42566  10.166  10.090   2.025  0.5104  0.6210 -0.0305
  316MOL0     C42567  10.088  10.074   1.893 -0.6648 -0.0126 -0.7314
  316MOL0     C42568  10.010   9.949   1.867 -0.8369 -0.2300  0.9055
  316MOL0     C42569  10.105   9.836   1.820 -0.0691 -0.1479 -0.7042
  316MOL0    Cl42570   9.993   9.703   1.823  0.2522  0.1603  0.1061
  316MOL0     C42571  10.570  10.188   2.540 -0.2556 -0.2348 -0.0006
  316MOL0     C42572  10.659  10.239   2.639 -0.8396  0.0676  0.3909
  316MOL0     O42573  10.592  10.328   3.035  0.2878  0.3750  0.4445
  316MOL0     C42574  10.900  10.495   2.978 -0.9174  0.4137  1.2202
  316MOL0     C42575  11.011  10.557   3.029 -0.2309 -0.3999 -0.0344
  316MOL0     N42576  11.784  10.627   3.363  0.2838 -0.4634 -0.1736
  316MOL0     N42577  11.883  10.604   3.448  0.0960  0.0291 -0.4058
  316MOL0     C42578  11.659  11.174   3.284 -0.3336 -0.9027  0.1323
  316MOL0     C42579  11.580  11.117   3.188  0.0000  0.2179  0.3934
  316MOL0     C42580  11.250  10.969   2.920  0.6968 -0.1152  0.7377
  316MOL0     C42581  11.270  10.898   2.799 -1.4798  0.4980  1.0488
  316MOL0     C42582  11.168  10.822   2.735  0.1872  0.3895 -0.0169
  316MOL0     C42583  11.035  10.835   2.789  0.3002  0.0127  0.4219
  316MOL0     O42584  10.918  10.765   2.755 -0.1089 -0.3880  0.7048
  316MOL0     C42585  10.942  10.656   2.663 -0.1834  0.3447 -1.2524
  316MOL0     C42586  10.812  10.599   2.617 -0.0879 -0.4026 -0.0735
  316MOL0     C42587  10.824  10.539   2.471  1.0905  0.2055 -0.2859
  316MOL0     C42588  10.679  10.521   2.420 -0.8029 -0.2771  0.3932
  316MOL0     C42589  10.681  10.427   2.308 -0.4950 -0.4784  1.1086
  316MOL0     C42590  10.683  10.343   2.222  0.2530  0.2179  0.4564
  316MOL0     C42591  11.009  10.925   2.895 -0.6575  0.2218  0.3969
  316MOL0     C42592  11.114  10.975   2.971 -0.3360  0.4353 -0.3252
  316MOL0     H42593  11.277  11.150   3.343 -0.8482 -0.1614 -2.6313
  316MOL0     H42594  11.417  11.243   3.505  0.2476  1.9663  0.2559
  316MOL0     H42595  11.583  11.237   3.688 -1.8604 -3.9480  0.3372
  316MOL0     H42596  11.601  11.089   3.615  0.1691 -1.0169  1.6022
  316MOL0     H42597  11.865  11.115   3.667 -1.6130 -0.4007 -3.0133
  316MOL0     H42598  11.794  11.252   3.766 -0.4935  0.5698 -0.3483
  316MOL0     H42599  11.682  11.118   3.911  1.6032 -2.5176  3.8718
  316MOL0     H42600  11.670  10.990   3.812 -4.1279  3.7929  2.2541
  316MOL0     H42601  11.906  11.107   3.966 -0.6635 -0.7787  1.3754
  316MOL0     H42602  11.844  10.940   3.989  1.6823 -1.1253  0.2466
  316MOL0     H42603  12.020  11.054   3.778  0.8576  1.0338  2.3158
  316MOL0     H42604  12.065  10.953   3.894  1.2873  3.3488 -0.7394
  316MOL0     H42605  11.892  10.876   3.655 -1.0431 -2.3030 -0.7614
  316MOL0     H42606  12.061  10.825   3.696  0.0421  3.8296 -2.3893
  316MOL0     H42607  11.948  10.698   3.894  1.4744 -1.1787  0.1166
  316MOL0     H42608  11.797  10.725   3.817 -0.3036  1.9455 -2.2570
  316MOL0     H42609  11.891  10.508   3.725 -0.1642  1.0979  1.2028
  316MOL0     H42610  12.018  10.611   3.659 -0.3201  1.7563 -0.3629
  316MOL0     H42611  11.652  10.746   3.636 -0.9326 -1.1654  1.4229
  316MOL0     H42612  11.525  10.848   3.424  0.2089 -2.0460  2.6615
  316MOL0     H42613  11.562  10.793   3.267 -0.0582 -0.8409 -0.9870
  316MOL0     H42614  11.393  10.643   3.474 -2.7539 -1.4149  0.5683
  316MOL0     H42615  11.469  10.559   3.349 -2.0374  0.4477 -2.1011
  316MOL0     H42616  11.347  10.694   3.174  3.7241  2.2909  0.6281
  316MOL0     H42617  11.315  10.815   3.296 -2.3965  1.1027 -5.9539
  316MOL0     H42618  11.164  10.643   3.405 -0.9601  4.0849 -0.8488
  316MOL0     H42619  11.214  10.518   3.287 -0.8079  1.1516  0.1865
  316MOL0     H42620  10.898  10.551   3.353 -3.3398 -1.3639 -0.3923
  316MOL0     H42621  10.671  10.307   3.314  2.9545  0.4340  2.9997
  316MOL0     H42622  10.712  10.463   3.387 -1.2649 -1.8991  0.2817
  316MOL0     H42623  10.603  10.466   3.266  0.6525  1.3126 -0.1602
  316MOL0     H42624  10.426  10.344   2.865  4.0248  0.5434  3.0355
  316MOL0     H42625  10.285  10.276   2.706 -0.1739  3.3866  1.3039
  316MOL0     H42626  10.198  10.327   2.476  0.0760 -2.7004  2.4591
  316MOL0     H42627  10.346  10.382   2.399 -0.0998 -0.7218  0.0018
  316MOL0     H42628  10.128  10.192   2.283  2.8976 -2.3323  1.1373
  316MOL0     H42629  10.162  10.363   2.229  1.8033  1.4293  1.6410
  316MOL0     H42630  10.339  10.127   2.208 -0.0751 -0.6350 -2.0525
  316MOL0     H42631  10.392  10.295   2.162  0.1835 -0.2249  3.0320
  316MOL0     H42632  10.198  10.300   2.004 -2.6486 -0.2957  1.0463
  316MOL0     H42633  10.334  10.190   1.955 -0.3288 -1.6925 -0.2168
  316MOL0     H42634  10.094  10.091   2.107  0.3105 -1.6006 -0.1016
  316MOL0     H42635  10.235  10.008   2.047  1.8230  1.4234 -1.0091
  316MOL0     H42636  10.013  10.152   1.907 -0.3776 -0.0795  1.5326
  316MOL0     H42637  10.153  10.097   1.808  1.4859 -2.3793  0.1480
  316MOL0     H42638   9.933   9.966   1.791 -1.7021 -4.4700  0.6044
  316MOL0     H42639   9.975   9.927   1.968 -0.6659  0.9049  1.2324
  316MOL0     H42640  10.195   9.818   1.879  0.4404 -1.7577 -1.8787
  316MOL0     H42641  10.137   9.845   1.716 -1.3254  3.2057 -0.9354
  316MOL0     H42642  10.612  10.140   2.452  0.0012 -0.8376  0.4439
  316MOL0     H42643  10.767  10.236   2.641 -0.8715 -1.4065  1.5543
  316MOL0     H42644  10.910  10.478   2.872 -0.0261  2.1913  0.9919
  316MOL0     H42645  11.073  10.601   2.952 -0.6291 -2.5472 -1.6771
  316MOL0     H42646  11.760  11.208   3.268 -0.9338  1.3911  0.7961
  316MOL0     H42647  11.628  11.094   3.093 -0.9564  2.0039 -0.5519
  316MOL0     H42648  11.370  10.906   2.758 -1.6351 -1.1611  0.2888
  316MOL0     H42649  11.199  10.772   2.645  2.5622 -0.8862  1.4202
  316MOL0     H42650  11.005  10.684   2.578 -1.0610 -3.4182 -3.3588
  316MOL0     H42651  11.008  10.578   2.701  2.2092  2.2830 -1.1922
  316MOL0     H42652  10.729  10.671   2.621 -0.1012 -0.2697 -1.7583
  316MOL0     H42653  10.788  10.520   2.688 -1.9497  0.5861  0.4647
  316MOL0     H42654  10.862  10.438   2.490 -2.0266 -0.3766  4.4476
  316MOL0     H42655  10.887  10.595   2.401  1.6589 -0.6991 -0.5207
  316MOL0     H42656  10.628  10.614   2.392  1.3328  1.5936  2.3985
  316MOL0     H42657  10.620  10.472   2.498  1.3278 -0.7932  1.7581
  316MOL0     H42658  10.676  10.261   2.153  0.4100 -1.0194  1.8506
  316MOL0     H42659  10.910  10.921   2.939 -1.4402 -2.5081 -1.3554
  316MOL0     H42660  11.102  11.011   3.072 -4.0648 -1.1822 -0.0299
  317MOL0     O42661   9.846  11.317   6.676 -0.4193  0.3305 -0.4149
  317MOL0     C42662   9.894  11.298   6.787 -0.1717  0.0198  0.7154
  317MOL0     O42663   9.907  11.400   6.882  0.6183 -0.0778  0.6771
  317MOL0     C42664   9.907  11.528   6.835  0.1705  0.5209  0.8486
  317MOL0     C42665  10.030  11.594   6.815 -0.2846  0.3297  0.2446
  317MOL0     C42666  10.040  11.729   6.765  0.1565  0.4701 -0.3651
  317MOL0     C42667   9.917  11.802   6.756 -0.3577  0.3238  0.6689
  317MOL0     O42668   9.937  11.931   6.726  0.5491 -0.3193 -0.3093
  317MOL0     C42669   9.843  11.990   6.637 -0.1021 -0.8211  0.3912
  317MOL0     C42670   9.901  12.120   6.583 -0.2365  0.0120  0.0453
  317MOL0     C42671   9.810  12.185   6.481 -0.4571 -0.2002  0.6034
  317MOL0     C42672   9.875  12.308   6.410  0.0845 -0.4561  0.4053
  317MOL0     C42673   9.985  12.283   6.310 -0.6468 -0.6269  0.0060
  317MOL0     C42674   9.967  12.174   6.205  0.3410  0.3841  1.2397
  317MOL0     C42675  10.063  12.177   6.078 -0.7435  0.2670 -0.2628
  317MOL0     C42676  10.047  12.287   5.977 -0.8397 -0.3272 -0.2159
  317MOL0     N42677   9.906  12.273   5.925  0.2456 -0.3101  0.8345
  317MOL0     C42678   9.849  12.197   5.821  0.0926 -0.5510 -0.0235
  317MOL0     C42679   9.715  12.232   5.815  0.1540 -0.1273 -0.8902
  317MOL0     C42680   9.608  12.180   5.726  0.0730 -0.4006  0.4129
  317MOL0     C42681   9.564  12.046   5.773 -0.5486 -0.8942 -0.6583
  317MOL0     C42682   9.518  12.040   5.925  0.4866  0.7735 -0.1279
  317MOL0     C42683   9.630  12.006   6.024  0.2097 -0.3490 -0.6364
  317MOL0     O42684   9.640  11.865   6.019 -0.2556  0.0533 -1.2214
  317MOL0     C42685   9.756  11.815   6.081  0.1209 -0.5426  0.0550
  317MOL0     C42686   9.869  11.793   6.003 -0.1382  1.2105 -0.7813
  317MOL0     C42687   9.982  11.728   6.059 -0.1856 -0.4313 -0.1370
  317MOL0     C42688  10.097  11.695   5.964 -0.1867  1.3701 -0.0297
  317MOL0     C42689   9.981  11.695   6.201  0.6516  0.1106 -0.0622
  317MOL0     C42690  10.100  11.635   6.267 -0.0223 -0.1672  0.8320
  317MOL0     O42691  10.066  11.586   6.389  0.3568 -0.6851 -0.6680
  317MOL0     C42692  10.165  11.524   6.458  0.3546  0.3949  0.5429
  317MOL0     C42693  10.279  11.581   6.515  1.5220  0.3138 -0.6864
  317MOL0     C42694  10.365  11.514   6.595  0.6305  0.2415 -0.5303
  317MOL0     C42695  10.322  11.380   6.643 -0.0431  0.2762 -0.0083
  317MOL0     O42696  10.394  11.299   6.730  0.5941 -0.3011 -0.0297
  317MOL0     C42697  10.497  11.339   6.821  0.4522 -0.3177  0.3921
  317MOL0     C42698  10.517  11.230   6.921 -0.5151  0.6692  0.1073
  317MOL0     C42699  10.390  11.225   7.009  0.0582  0.0574  0.1952
  317MOL0     C42700  10.416  11.141   7.139 -0.0691  0.2300  1.1089
  317MOL0     C42701  10.459  10.998   7.106 -0.0937  0.4832 -0.0757
  317MOL0     C42702  10.439  10.897   7.219 -0.3268 -0.0044 -1.2223
  317MOL0     C42703  10.498  10.754   7.185  0.2755  0.2000 -1.2469
  317MOL0     C42704  10.385  10.655   7.155  0.2905  0.3336  0.3021
  317MOL0    Cl42705  10.443  10.493   7.168  0.1990  0.6040  0.3331
  317MOL0     C42706  10.202  11.328   6.588  0.6451 -0.0598  0.6292
  317MOL0     C42707  10.130  11.397   6.489 -0.0675 -0.3938  0.7092
  317MOL0     O42708  10.218  11.649   6.229  0.8750 -0.2584  0.4561
  317MOL0     C42709   9.865  11.732   6.281 -0.8037 -0.5543 -0.0801
  317MOL0     C42710   9.754  11.786   6.215 -0.3749  0.2009  0.2203
  317MOL0     N42711   9.696  12.321   5.914  0.6772  0.1979  1.0411
  317MOL0     N42712   9.803  12.343   5.979  0.2737 -1.5581 -0.9610
  317MOL0     C42713   9.793  11.736   6.774  0.3214  0.0972 -1.3449
  317MOL0     C42714   9.787  11.603   6.811  0.2557  0.5131  0.2456
  317MOL0     C42715   9.935  11.160   6.826  0.1961  0.7454  0.6792
  317MOL0     C42716   9.988  11.129   6.943  0.1507 -0.4193 -0.4720
  317MOL0     C42717  10.022  10.994   6.977  1.0592 -0.5013 -0.6604
  317MOL0     C42718  10.011  10.899   6.874 -0.4181  0.4303 -0.8993
  317MOL0     O42719  10.050  10.766   6.895 -0.0647 -0.2991 -0.3275
  317MOL0     C42720  10.038  10.710   7.037 -1.1548 -0.3398 -0.2708
  317MOL0     C42721  10.071  10.555   7.033  0.1077  0.4080  0.2057
  317MOL0     C42722   9.950  10.473   6.980 -0.1773 -0.6002 -0.2650
  317MOL0     C42723   9.983  10.322   6.995  0.2368  0.2242 -0.3631
  317MOL0     C42724   9.978  10.288   7.135 -0.2142  0.5081 -0.3077
  317MOL0     C42725   9.955  10.262   7.251  0.1417  0.4707 -1.0044
  317MOL0     C42726   9.953  10.938   6.749  0.5067 -0.3939 -0.5269
  317MOL0     C42727   9.929  11.067   6.727 -0.4153  0.3124 -0.6830
  317MOL0     H42728  10.120  11.538   6.836  1.1136  1.8964 -1.2231
  317MOL0     H42729  10.136  11.778   6.771  0.2306  0.1717  3.8784
  317MOL0     H42730   9.811  11.937   6.546 -1.9612  2.2496 -0.8985
  317MOL0     H42731   9.755  12.027   6.690 -2.1983 -2.6531 -1.6024
  317MOL0     H42732   9.921  12.186   6.667 -0.5935 -0.2376  0.3322
  317MOL0     H42733  10.001  12.113   6.539  1.2562 -3.1482  3.4339
  317MOL0     H42734   9.783  12.115   6.402  0.5090  1.5717 -1.3932
  317MOL0     H42735   9.731  12.225   6.546 -0.5658 -1.5813  1.3506
  317MOL0     H42736   9.802  12.356   6.345  2.5494  2.8797 -0.1966
  317MOL0     H42737   9.902  12.382   6.486 -2.3273  0.7256  0.2067
  317MOL0     H42738   9.996  12.372   6.247 -0.5802 -1.4785 -1.2326
  317MOL0     H42739  10.074  12.270   6.373  0.6462  3.4174 -0.7184
  317MOL0     H42740   9.985  12.072   6.242 -0.6094 -0.6281 -0.9045
  317MOL0     H42741   9.863  12.173   6.170  1.0809 -0.6822 -1.1851
  317MOL0     H42742  10.167  12.177   6.110 -1.5301 -1.3266  2.5805
  317MOL0     H42743  10.038  12.080   6.035 -2.0735 -0.5097  2.0836
  317MOL0     H42744  10.115  12.277   5.892 -0.0829 -2.1083  0.5532
  317MOL0     H42745  10.069  12.383   6.025  0.1210  0.1958 -1.6427
  317MOL0     H42746   9.893  12.127   5.750 -2.7296  0.1117 -2.6525
  317MOL0     H42747   9.521  12.245   5.715  0.4621  0.3714  1.7456
  317MOL0     H42748   9.660  12.168   5.630  1.5291 -0.5955  1.1918
  317MOL0     H42749   9.636  11.969   5.743  1.4762  0.6985 -0.1099
  317MOL0     H42750   9.469  12.025   5.724  0.3291 -0.0328 -2.8509
  317MOL0     H42751   9.435  11.972   5.942  1.3895 -0.2296  0.4007
  317MOL0     H42752   9.486  12.142   5.947  0.3444  1.2152 -2.1848
  317MOL0     H42753   9.615  12.041   6.127  3.7959  2.9415 -1.0303
  317MOL0     H42754   9.729  12.045   6.001  1.0495  0.9388  4.0754
  317MOL0     H42755   9.855  11.798   5.896  1.1244  0.5888 -0.9859
  317MOL0     H42756  10.195  11.688   6.013  0.5616  0.4487 -1.5882
  317MOL0     H42757  10.081  11.599   5.915  2.8317  0.7885 -0.0921
  317MOL0     H42758  10.099  11.772   5.886  0.8667 -0.4007 -1.8458
  317MOL0     H42759  10.288  11.688   6.499 -2.8187  1.1768  1.0583
  317MOL0     H42760  10.446  11.569   6.644  0.2992 -0.7881  1.2824
  317MOL0     H42761  10.588  11.338   6.759  0.2016 -2.1797  0.0259
  317MOL0     H42762  10.474  11.433   6.873  2.0307  0.5310 -0.3423
  317MOL0     H42763  10.517  11.128   6.882  1.1462  0.6428  0.1112
  317MOL0     H42764  10.608  11.251   6.978 -1.8840 -0.9962  3.1385
  317MOL0     H42765  10.310  11.178   6.952 -1.1218 -0.3594  2.1089
  317MOL0     H42766  10.360  11.327   7.034  0.0932  0.6868 -2.1366
  317MOL0     H42767  10.496  11.188   7.197  1.1851 -0.2441 -0.1734
  317MOL0     H42768  10.330  11.150   7.206  2.1524  2.9249  3.8798
  317MOL0     H42769  10.564  11.004   7.075  0.3606  1.9354  1.5453
  317MOL0     H42770  10.402  10.962   7.020 -0.8343 -3.3304  1.7898
  317MOL0     H42771  10.498  10.933   7.304 -3.7987  2.0516  0.5349
  317MOL0     H42772  10.334  10.900   7.248 -1.1018  3.3168 -3.7527
  317MOL0     H42773  10.548  10.707   7.270 -2.4833  1.3390  1.1949
  317MOL0     H42774  10.561  10.765   7.097 -1.9769  0.1955 -2.9469
  317MOL0     H42775  10.349  10.688   7.057  0.2039  2.2205  0.9298
  317MOL0     H42776  10.298  10.663   7.221  1.0520  0.7603  1.2883
  317MOL0     H42777  10.168  11.227   6.610 -0.2973  0.7346  3.2868
  317MOL0     H42778  10.032  11.376   6.449  0.4272  1.1726 -1.5037
  317MOL0     H42779   9.847  11.709   6.386 -1.8628 -0.8559 -0.3097
  317MOL0     H42780   9.658  11.800   6.263 -1.5900 -1.8313 -1.4611
  317MOL0     H42781   9.704  11.797   6.766  0.0797 -0.2602 -1.4036
  317MOL0     H42782   9.686  11.564   6.813  0.7561 -1.1440 -2.3025
  317MOL0     H42783  10.008  11.210   7.012 -3.4495 -0.4761  0.8677
  317MOL0     H42784  10.057  10.979   7.078 -0.4196  0.5089  0.0432
  317MOL0     H42785  10.105  10.764   7.105 -2.6153  1.0470  0.1242
  317MOL0     H42786   9.933  10.720   7.068 -1.8481 -0.8505 -2.3085
  317MOL0     H42787  10.100  10.516   7.131 -0.5871 -0.3477  0.1164
  317MOL0     H42788  10.156  10.546   6.965  0.5810  1.5280  0.6123
  317MOL0     H42789   9.916  10.494   6.878 -0.7979  2.3144  0.4506
  317MOL0     H42790   9.862  10.498   7.041  0.9220  1.3215  0.6298
  317MOL0     H42791  10.079  10.295   6.949  0.8522  1.7168  0.0169
  317MOL0     H42792   9.911  10.260   6.941  2.4482 -3.0779  0.1269
  317MOL0     H42793   9.958  10.252   7.357  4.3403 -2.9436 -1.1657
  317MOL0     H42794   9.940  10.863   6.672 -1.7029  0.1825 -0.7896
  317MOL0     H42795   9.926  11.092   6.621  0.1880  0.2654 -0.7150
  318MOL0     O42796   6.877   7.828   6.124  0.7366 -0.0406  0.1624
  318MOL0     C42797   6.980   7.857   6.070  0.3049  0.1494 -0.4398
  318MOL0     O42798   7.005   7.965   5.987 -1.3021 -0.2125  0.1570
  318MOL0     C42799   6.912   8.042   5.921 -0.4301  0.7836 -0.4840
  318MOL0     C42800   6.886   8.031   5.779 -0.1785  0.4703 -0.5708
  318MOL0     C42801   6.804   8.127   5.712  0.1191  0.6405 -0.2384
  318MOL0     C42802   6.736   8.221   5.789  1.0230  0.3206 -0.0790
  318MOL0     O42803   6.660   8.308   5.721 -0.0103 -0.0682 -0.7601
  318MOL0     C42804   6.554   8.380   5.779  1.1193  0.2281 -0.0155
  318MOL0     C42805   6.537   8.513   5.718 -0.2907  0.0565 -0.2121
  318MOL0     C42806   6.499   8.514   5.568 -0.3352 -0.9284  0.6273
  318MOL0     C42807   6.613   8.490   5.465 -0.6290 -0.3654 -0.6731
  318MOL0     C42808   6.585   8.535   5.314 -0.5095  0.2199 -0.0965
  318MOL0     C42809   6.509   8.428   5.236  0.1891  0.0089 -0.4753
  318MOL0     C42810   6.484   8.474   5.091  1.4401  0.2790 -0.5402
  318MOL0     C42811   6.371   8.575   5.086 -0.7459 -0.3149  0.0082
  318MOL0     N42812   6.252   8.542   5.155 -0.4149  0.4835  0.1018
  318MOL0     C42813   6.184   8.636   5.232  1.0024 -0.7877 -0.6085
  318MOL0     C42814   6.051   8.597   5.228  0.4297  0.0920  0.0241
  318MOL0     C42815   5.939   8.654   5.295  0.5329 -0.4115  0.2655
  318MOL0     C42816   5.818   8.706   5.215  0.1566 -0.2660  0.2899
  318MOL0     C42817   5.727   8.777   5.326 -0.8528 -1.1650 -0.1323
  318MOL0     C42818   5.662   8.678   5.423 -0.0148  0.4486  0.0826
  318MOL0     O42819   5.582   8.750   5.517 -1.1538  0.5835 -0.0447
  318MOL0     C42820   5.519   8.686   5.612  0.1608 -0.0932  0.1364
  318MOL0     C42821   5.553   8.571   5.667 -0.0706 -0.3622 -0.1451
  318MOL0     C42822   5.478   8.521   5.774  0.3298  0.3869 -0.4509
  318MOL0     C42823   5.535   8.399   5.845  0.3862 -0.0222 -0.2510
  318MOL0     C42824   5.354   8.583   5.811 -0.2012  0.6350 -0.1975
  318MOL0     C42825   5.268   8.519   5.917  0.2691 -0.1588  0.4323
  318MOL0     O42826   5.196   8.611   5.993 -0.2602  0.1402  0.1280
  318MOL0     C42827   5.124   8.577   6.108  0.3394  0.5130 -0.1874
  318MOL0     C42828   5.176   8.479   6.194  0.3393 -0.8792  0.1322
  318MOL0     C42829   5.129   8.472   6.322 -0.2350 -0.2754 -0.1292
  318MOL0     C42830   5.007   8.535   6.366 -0.2608  0.9140  0.8021
  318MOL0     O42831   4.959   8.502   6.490 -0.9834 -0.0744 -0.2870
  318MOL0     C42832   4.900   8.610   6.570 -0.9135 -0.1270 -0.5616
  318MOL0     C42833   4.887   8.569   6.718 -0.4306 -0.7955 -0.2817
  318MOL0     C42834   4.849   8.689   6.805  0.2791  0.2613 -0.1122
  318MOL0     C42835   4.783   8.647   6.941  1.1153 -0.1802 -0.5073
  318MOL0     C42836   4.742   8.768   7.021 -0.1206 -0.0932 -0.8231
  318MOL0     C42837   4.632   8.727   7.125  0.9144  0.6930  0.0170
  318MOL0     C42838   4.565   8.845   7.199  0.9803  0.3092  0.3109
  318MOL0     C42839   4.504   8.945   7.099  0.2132  0.1573 -0.0469
  318MOL0    Cl42840   4.432   9.075   7.201  0.2898  0.5860 -0.0459
  318MOL0     C42841   4.948   8.623   6.277 -0.1065 -1.5884 -0.4866
  318MOL0     C42842   5.020   8.659   6.152  0.7448  0.6309 -0.0338
  318MOL0     O42843   5.240   8.404   5.899  0.1157 -0.4139  0.6466
  318MOL0     C42844   5.316   8.707   5.758  0.1822 -0.1335  0.5291
  318MOL0     C42845   5.401   8.750   5.655  1.0458  0.2627 -0.0082
  318MOL0     N42846   6.045   8.472   5.168  0.1377  0.2134 -0.0474
  318MOL0     N42847   6.163   8.438   5.128  0.2947 -0.1847 -0.2898
  318MOL0     C42848   6.764   8.226   5.927  0.4065 -0.0864  0.2149
  318MOL0     C42849   6.849   8.139   5.993  0.1604 -0.4481  0.1901
  318MOL0     C42850   7.099   7.765   6.091 -0.5668  0.2725 -1.0088
  318MOL0     C42851   7.218   7.768   6.013  0.8672 -0.0585 -0.4380
  318MOL0     C42852   7.326   7.704   6.058  0.0559  0.5384 -0.3619
  318MOL0     C42853   7.319   7.599   6.154  0.5683 -0.1858 -0.1054
  318MOL0     O42854   7.425   7.522   6.176 -0.1895 -0.2956 -0.4116
  318MOL0     C42855   7.430   7.389   6.112 -0.4706 -0.4167 -0.0799
  318MOL0     C42856   7.329   7.284   6.166 -0.1455 -0.4394 -0.1892
  318MOL0     C42857   7.343   7.145   6.107  0.6980  0.4250 -0.9736
  318MOL0     C42858   7.275   7.032   6.173 -0.8113  0.2168  1.1583
  318MOL0     C42859   7.128   7.050   6.181 -0.0965 -0.1574  0.5598
  318MOL0     C42860   7.004   7.038   6.181 -0.3532  0.5903 -0.2840
  318MOL0     C42861   7.199   7.584   6.214  0.3677  0.8514 -0.5816
  318MOL0     C42862   7.088   7.664   6.190  0.3104  1.2415  0.3795
  318MOL0     H42863   6.941   7.955   5.724  0.4389  2.0039 -2.1564
  318MOL0     H42864   6.785   8.126   5.605  0.8661  1.4188 -0.3899
  318MOL0     H42865   6.458   8.328   5.777  1.4687 -0.6441  2.2962
  318MOL0     H42866   6.566   8.381   5.888 -0.3012 -1.0716  0.1874
  318MOL0     H42867   6.458   8.562   5.777 -2.0002 -2.0103 -0.6659
  318MOL0     H42868   6.632   8.566   5.727 -0.9877  1.5557 -1.1148
  318MOL0     H42869   6.417   8.444   5.548 -1.2598  0.1020  0.7017
  318MOL0     H42870   6.443   8.606   5.551 -0.0306 -1.2320 -2.5628
  318MOL0     H42871   6.696   8.553   5.499  0.2307 -2.8534  2.2513
  318MOL0     H42872   6.646   8.388   5.484  0.2060 -0.0554 -0.4092
  318MOL0     H42873   6.525   8.627   5.309  0.3742  0.8720  0.9407
  318MOL0     H42874   6.678   8.544   5.257 -0.7712  0.1856 -0.5412
  318MOL0     H42875   6.575   8.341   5.227  2.1453  1.4632 -1.0197
  318MOL0     H42876   6.418   8.393   5.285  0.4787 -0.7533 -0.4819
  318MOL0     H42877   6.573   8.516   5.043 -0.6178  2.5545 -2.6971
  318MOL0     H42878   6.457   8.382   5.038  1.1217  0.1165 -0.0986
  318MOL0     H42879   6.352   8.586   4.978  0.8176 -2.7439 -0.5740
  318MOL0     H42880   6.389   8.677   5.122 -2.4541  0.3182 -0.8026
  318MOL0     H42881   6.204   8.730   5.284 -2.5198 -1.2351  1.9180
  318MOL0     H42882   5.919   8.576   5.369 -0.4336 -1.2350 -0.8389
  318MOL0     H42883   5.974   8.741   5.353 -1.4626  2.4145 -2.4261
  318MOL0     H42884   5.767   8.618   5.172  0.0498 -1.1789  2.1812
  318MOL0     H42885   5.843   8.782   5.141 -2.4431  1.8691  1.4197
  318MOL0     H42886   5.657   8.849   5.283  1.1250  0.8956 -0.0625
  318MOL0     H42887   5.784   8.852   5.381 -2.5229 -0.4104  0.6471
  318MOL0     H42888   5.737   8.622   5.480 -0.4623  2.4582  2.8680
  318MOL0     H42889   5.604   8.611   5.360 -0.5825  2.0782 -1.2179
  318MOL0     H42890   5.647   8.520   5.646 -0.7673 -1.5340 -0.5486
  318MOL0     H42891   5.503   8.403   5.949 -1.3426 -2.2422 -0.6010
  318MOL0     H42892   5.513   8.304   5.794 -1.4664  0.7239 -0.8941
  318MOL0     H42893   5.644   8.394   5.835  0.3087  0.9928 -1.9458
  318MOL0     H42894   5.260   8.421   6.158 -0.9262 -2.3839 -0.5112
  318MOL0     H42895   5.192   8.425   6.397 -0.2133  0.4006  0.2896
  318MOL0     H42896   4.959   8.702   6.563  0.0122 -0.7304 -0.9921
  318MOL0     H42897   4.801   8.633   6.531 -0.5054 -0.2642 -1.7268
  318MOL0     H42898   4.812   8.494   6.743  0.6340 -1.6410  0.4244
  318MOL0     H42899   4.982   8.529   6.754 -0.1729  0.3304  0.3527
  318MOL0     H42900   4.778   8.743   6.742  1.3597  1.1239 -0.6464
  318MOL0     H42901   4.931   8.748   6.848 -1.5230  2.6998  0.2016
  318MOL0     H42902   4.694   8.587   6.918  1.0821 -1.0383  1.6431
  318MOL0     H42903   4.856   8.587   6.996  1.8133  0.5880 -0.5746
  318MOL0     H42904   4.702   8.837   6.946  1.4962  0.9021 -0.8358
  318MOL0     H42905   4.828   8.822   7.062 -1.1446 -0.9393  2.7801
  318MOL0     H42906   4.560   8.656   7.082 -0.0068  0.7385  1.4113
  318MOL0     H42907   4.673   8.657   7.198 -0.7482 -3.0480 -2.3736
  318MOL0     H42908   4.643   8.908   7.244 -1.2512  5.4143 -2.0636
  318MOL0     H42909   4.492   8.811   7.273  1.1082  0.7613  0.6493
  318MOL0     H42910   4.426   8.890   7.045  0.3019 -0.7065  0.6894
  318MOL0     H42911   4.578   8.967   7.022  3.3287 -3.4854  1.5742
  318MOL0     H42912   4.846   8.652   6.302 -0.0430  1.7847 -3.3557
  318MOL0     H42913   4.954   8.728   6.100 -2.9889 -1.6330  1.3202
  318MOL0     H42914   5.224   8.757   5.785  1.1357  2.1497 -0.1923
  318MOL0     H42915   5.382   8.845   5.606 -1.4023 -0.3900 -0.4474
  318MOL0     H42916   6.720   8.304   5.988 -1.8917 -1.0710 -0.0791
  318MOL0     H42917   6.873   8.173   6.094 -0.8912 -0.0573  0.3226
  318MOL0     H42918   7.224   7.846   5.938  2.7324 -0.3237 -0.6338
  318MOL0     H42919   7.416   7.727   6.002 -0.3709  2.2822 -0.3878
  318MOL0     H42920   7.425   7.399   6.003 -2.3480  2.8325  0.1607
  318MOL0     H42921   7.529   7.357   6.146 -1.9449 -4.2908  1.0705
  318MOL0     H42922   7.229   7.315   6.134  0.6829 -0.3965 -2.9788
  318MOL0     H42923   7.337   7.271   6.275 -0.2667 -2.1275 -0.3513
  318MOL0     H42924   7.448   7.116   6.115 -0.0894 -2.4674 -0.1842
  318MOL0     H42925   7.310   7.135   6.003  1.7267  0.8315 -1.3518
  318MOL0     H42926   7.300   7.020   6.279  1.1454 -0.8800  0.6021
  318MOL0     H42927   7.315   6.948   6.117 -1.3617  0.5795  0.1981
  318MOL0     H42928   6.898   7.026   6.176 -0.4562  1.2521 -5.4435
  318MOL0     H42929   7.194   7.514   6.296  4.0604  1.2814  0.2035
  318MOL0     H42930   7.002   7.658   6.254 -2.3867  0.6300 -2.9968
  319MOL0     O42931   0.794   7.235   4.861 -0.0963  0.4292 -0.1115
  319MOL0     C42932   0.838   7.337   4.814  0.5267  0.1388  0.5187
  319MOL0     O42933   0.973   7.364   4.800  0.0082  0.4756 -0.7095
  319MOL0     C42934   1.058   7.277   4.862 -0.6016 -0.2779  0.2857
  319MOL0     C42935   1.111   7.304   4.983 -0.1484  0.7494  0.5628
  319MOL0     C42936   1.192   7.221   5.060  0.4984  0.3801  0.6196
  319MOL0     C42937   1.230   7.103   5.003  0.6740 -0.3261 -0.3584
  319MOL0     O42938   1.324   7.027   5.069 -0.0466  0.4022 -0.5282
  319MOL0     C42939   1.417   6.948   4.994 -0.5568  0.5036  0.0500
  319MOL0     C42940   1.519   6.875   5.083  0.8624  1.0281 -0.7970
  319MOL0     C42941   1.620   6.973   5.145 -0.4702 -0.8913  0.2576
  319MOL0     C42942   1.711   6.902   5.249  0.1241  0.1660 -0.5088
  319MOL0     C42943   1.828   6.979   5.284 -1.0115  0.8910 -0.1076
  319MOL0     C42944   1.920   6.919   5.404 -0.2553 -0.5206 -0.4451
  319MOL0     C42945   2.056   6.975   5.378  0.3730  0.3585 -0.0115
  319MOL0     C42946   2.170   6.936   5.475  0.3698 -0.0645 -0.5139
  319MOL0     N42947   2.247   6.815   5.443  0.2214  0.3660 -0.2855
  319MOL0     C42948   2.194   6.693   5.397  0.6088 -0.3502 -0.0712
  319MOL0     C42949   2.294   6.605   5.415 -0.4750 -0.5348 -0.1242
  319MOL0     C42950   2.274   6.464   5.380 -0.9990  0.7360 -0.3720
  319MOL0     C42951   2.342   6.416   5.248  0.4069  0.7296  0.0161
  319MOL0     C42952   2.336   6.266   5.229  0.4829 -0.1343 -0.5602
  319MOL0     C42953   2.187   6.205   5.206  0.0134 -0.4718 -0.4649
  319MOL0     O42954   2.153   6.214   5.064 -0.7237  0.6179  0.0871
  319MOL0     C42955   2.211   6.129   4.970 -0.1227  0.1477  0.2179
  319MOL0     C42956   2.149   6.139   4.845 -0.2112  0.2301  0.3645
  319MOL0     C42957   2.191   6.066   4.737 -0.3481  1.3091 -0.3010
  319MOL0     C42958   2.107   6.089   4.618 -0.6173 -0.1470  0.1213
  319MOL0     C42959   2.300   5.972   4.750 -0.3210 -0.2636  0.1676
  319MOL0     C42960   2.346   5.892   4.644 -0.0932  0.3122 -0.7392
  319MOL0     O42961   2.481   5.855   4.646  0.2332  0.2458  0.6453
  319MOL0     C42962   2.532   5.749   4.569  0.5148  0.0349 -0.6842
  319MOL0     C42963   2.512   5.613   4.618  0.3878 -0.6787  0.8445
  319MOL0     C42964   2.551   5.501   4.545 -0.2806  0.3673 -0.5339
  319MOL0     C42965   2.614   5.511   4.427 -0.6545 -0.1472  0.4591
  319MOL0     O42966   2.648   5.389   4.374  0.2412  0.2728 -0.1109
  319MOL0     C42967   2.640   5.367   4.228 -0.9054 -0.1400 -0.2131
  319MOL0     C42968   2.756   5.268   4.209 -0.3901  0.3166 -0.9836
  319MOL0     C42969   2.734   5.135   4.277  0.2218  0.0052 -0.2746
  319MOL0     C42970   2.857   5.056   4.264 -0.2785  0.1409 -0.1323
  319MOL0     C42971   2.854   4.920   4.350 -0.6589 -0.3578  0.4508
  319MOL0     C42972   2.997   4.860   4.352 -0.1129 -0.5784 -0.1731
  319MOL0     C42973   3.008   4.741   4.448  0.1261  0.3369  0.3828
  319MOL0     C42974   2.954   4.609   4.381  0.4611 -1.1219  1.0951
  319MOL0    Cl42975   2.942   4.483   4.511 -0.1424 -0.4288 -0.0980
  319MOL0     C42976   2.630   5.642   4.366  0.0439 -0.1705 -0.6841
  319MOL0     C42977   2.589   5.759   4.444 -0.2181 -0.7472  0.6021
  319MOL0     O42978   2.262   5.846   4.570 -0.2407  0.1180 -0.9558
  319MOL0     C42979   2.362   5.968   4.878  0.2866 -0.2748  0.5171
  319MOL0     C42980   2.310   6.039   4.989  0.4426 -0.5833 -0.6942
  319MOL0     N42981   2.400   6.663   5.483  0.2065 -0.4323  0.1800
  319MOL0     N42982   2.372   6.795   5.482  0.1314 -0.3137 -0.1814
  319MOL0     C42983   1.183   7.068   4.873  0.1744 -0.2798 -0.6459
  319MOL0     C42984   1.100   7.158   4.803  0.5107  0.9450 -0.6188
  319MOL0     C42985   0.740   7.437   4.766 -0.0114 -1.1665  0.0757
  319MOL0     C42986   0.788   7.557   4.707  0.2107  0.2358  0.3322
  319MOL0     C42987   0.705   7.664   4.688 -0.1485 -0.5913 -0.7256
  319MOL0     C42988   0.573   7.660   4.723  0.9102 -0.1185 -0.2082
  319MOL0     O42989   0.483   7.754   4.677 -0.1536 -0.2146 -0.7230
  319MOL0     C42990   0.511   7.881   4.607 -1.2583  0.0413 -0.2603
  319MOL0     C42991   0.393   7.936   4.523  0.2084  0.5333  0.3650
  319MOL0     C42992   0.362   7.854   4.404  0.1710 -0.0946 -0.3932
  319MOL0     C42993   0.292   7.731   4.431 -0.0675  0.4178 -0.6257
  319MOL0     C42994   0.255   7.661   4.309  0.3938 -0.0649 -0.8032
  319MOL0     C42995   0.216   7.590   4.226 -1.3856 -0.1731  0.5715
  319MOL0     C42996   0.518   7.544   4.785 -1.0689  0.1228  0.4920
  319MOL0     C42997   0.603   7.431   4.807  1.0908 -0.0499 -0.8154
  319MOL0     H42998   1.094   7.405   5.021  2.1573  0.5746  2.3165
  319MOL0     H42999   1.224   7.245   5.161  1.2213  0.4028  0.3857
  319MOL0     H43000   1.372   6.864   4.941  0.2952 -0.5242  0.8826
  319MOL0     H43001   1.461   7.020   4.925  0.6989  3.0709  3.2537
  319MOL0     H43002   1.477   6.817   5.165  0.4387  2.1788 -0.1750
  319MOL0     H43003   1.586   6.805   5.032 -0.5388 -0.4470 -0.6765
  319MOL0     H43004   1.676   7.017   5.062  1.2034 -0.3707  1.5822
  319MOL0     H43005   1.570   7.058   5.193 -0.6235 -0.6416 -0.3346
  319MOL0     H43006   1.649   6.899   5.339  0.3970  0.5664 -0.3044
  319MOL0     H43007   1.746   6.805   5.214  2.1978  1.1201 -1.2206
  319MOL0     H43008   1.898   6.999   5.202  1.6353 -0.8128  1.5786
  319MOL0     H43009   1.788   7.068   5.333 -0.1107  0.1681  2.0966
  319MOL0     H43010   1.878   6.957   5.497  2.6361 -1.8428  1.5313
  319MOL0     H43011   1.895   6.813   5.397  0.3503 -0.8208  1.4954
  319MOL0     H43012   2.089   6.949   5.277  0.8746 -0.2703  0.3091
  319MOL0     H43013   2.043   7.084   5.380 -0.3368  0.4171 -2.9335
  319MOL0     H43014   2.125   6.921   5.574  0.1138 -1.0825 -0.7659
  319MOL0     H43015   2.240   7.020   5.479  2.3276 -1.6043  4.0231
  319MOL0     H43016   2.091   6.684   5.363  0.4686 -1.1219  0.5305
  319MOL0     H43017   2.312   6.404   5.464 -1.3761  0.7277 -0.2002
  319MOL0     H43018   2.167   6.446   5.366 -0.8454  1.7511 -3.6542
  319MOL0     H43019   2.442   6.455   5.229 -0.7022  2.5914 -2.6096
  319MOL0     H43020   2.282   6.459   5.167  0.7842 -0.0388 -0.6793
  319MOL0     H43021   2.384   6.223   5.317 -1.5955  2.0612  1.8286
  319MOL0     H43022   2.407   6.250   5.147  0.1061 -1.9333 -0.5712
  319MOL0     H43023   2.112   6.263   5.259  1.8015 -1.2105  3.1725
  319MOL0     H43024   2.176   6.102   5.242  1.8494  0.7844  4.4383
  319MOL0     H43025   2.057   6.195   4.836  1.4350  2.7922 -3.0559
  319MOL0     H43026   2.072   6.192   4.624 -1.8504 -0.4798 -0.8992
  319MOL0     H43027   2.156   6.096   4.520 -0.4871  1.0367  0.2588
  319MOL0     H43028   2.020   6.025   4.596  0.4948 -1.8603  0.4721
  319MOL0     H43029   2.452   5.607   4.708  1.4482  0.5357  1.6672
  319MOL0     H43030   2.547   5.404   4.593  0.2903  0.2222 -0.7706
  319MOL0     H43031   2.543   5.320   4.209 -0.8132 -0.4319  0.0361
  319MOL0     H43032   2.643   5.460   4.170  1.0058  0.2717  0.4857
  319MOL0     H43033   2.788   5.244   4.107  1.1191 -2.8011  0.0911
  319MOL0     H43034   2.843   5.318   4.254 -2.6733  0.8604  3.2937
  319MOL0     H43035   2.641   5.097   4.231 -0.8869  2.1624  0.0553
  319MOL0     H43036   2.706   5.153   4.381 -0.4051  2.2252 -0.7801
  319MOL0     H43037   2.886   5.030   4.161 -2.5931 -0.8360 -0.5986
  319MOL0     H43038   2.931   5.126   4.304 -1.2177  0.3508  1.2850
  319MOL0     H43039   2.787   4.845   4.307 -2.0710 -0.3867  2.5088
  319MOL0     H43040   2.811   4.943   4.448 -0.6500  1.9789 -0.0402
  319MOL0     H43041   3.013   4.829   4.249 -4.5909 -2.0746 -0.5965
  319MOL0     H43042   3.054   4.949   4.381 -0.2907  0.1818 -2.0387
  319MOL0     H43043   2.937   4.768   4.527  0.8278  2.8639  0.2339
  319MOL0     H43044   3.108   4.740   4.492  1.6392 -0.3254 -2.8017
  319MOL0     H43045   3.016   4.575   4.298 -1.7725 -1.2103 -0.6309
  319MOL0     H43046   2.851   4.621   4.346 -0.1230  1.2428  3.3080
  319MOL0     H43047   2.671   5.652   4.266  3.6802 -1.5191  0.5038
  319MOL0     H43048   2.611   5.861   4.414 -1.2410 -0.2942  1.3337
  319MOL0     H43049   2.450   5.909   4.902 -0.3139 -1.3722  0.0934
  319MOL0     H43050   2.362   6.031   5.084  0.6111 -0.2691 -0.7589
  319MOL0     H43051   1.210   6.974   4.826  2.0892  0.0252 -0.2210
  319MOL0     H43052   1.056   7.130   4.708 -0.7911  0.3077  0.1397
  319MOL0     H43053   0.894   7.572   4.691  1.1506 -2.7297  2.7416
  319MOL0     H43054   0.755   7.744   4.634  1.4988 -1.0588  0.0569
  319MOL0     H43055   0.538   7.957   4.681  0.2043  0.9414 -1.6382
  319MOL0     H43056   0.601   7.884   4.545 -1.4556  1.5924 -0.5300
  319MOL0     H43057   0.426   8.030   4.479  2.0131  0.5729  1.6866
  319MOL0     H43058   0.304   7.944   4.586  1.7629  1.8225  2.5281
  319MOL0     H43059   0.448   7.825   4.342  0.1099 -1.5312  0.1660
  319MOL0     H43060   0.298   7.923   4.348 -2.4404 -1.2702  0.9644
  319MOL0     H43061   0.206   7.754   4.496  0.2424 -0.4060  0.0901
  319MOL0     H43062   0.348   7.661   4.493 -2.6167 -0.6816  0.5709
  319MOL0     H43063   0.194   7.521   4.147 -1.1525  2.0580 -1.5692
  319MOL0     H43064   0.414   7.548   4.815 -1.1756  2.2790  0.0317
  319MOL0     H43065   0.564   7.355   4.874  0.5678  0.5758 -0.4031
  320MOL0     O43066   9.826   9.505   7.247  0.1672 -0.3586 -0.3774
  320MOL0     C43067   9.755   9.406   7.262 -0.1057  0.1572  0.0545
  320MOL0     O43068   9.629   9.402   7.302  0.6291 -0.3854 -0.2888
  320MOL0     C43069   9.575   9.519   7.356 -0.1280 -0.5788 -0.5568
  320MOL0     C43070   9.636   9.587   7.461  0.9146 -0.2342  0.5394
  320MOL0     C43071   9.566   9.684   7.529  0.2396 -0.3612 -0.3280
  320MOL0     C43072   9.441   9.728   7.483  0.8124  0.0658  0.3562
  320MOL0     O43073   9.372   9.834   7.537  1.1645 -0.7321 -1.0020
  320MOL0     C43074   9.394   9.884   7.671  0.0038 -1.2086 -0.3105
  320MOL0     C43075   9.320  10.014   7.682 -0.4352  0.0658 -0.2600
  320MOL0     C43076   9.163   9.991   7.671  0.5882 -0.6605  0.7321
  320MOL0     C43077   9.099  10.124   7.674  0.6687 -1.1162  0.7724
  320MOL0     C43078   8.955  10.116   7.626 -0.4454  0.0826  0.1811
  320MOL0     C43079   8.865  10.043   7.728  0.0076  1.2673 -0.8882
  320MOL0     C43080   8.712  10.042   7.693  0.1203  0.1230 -0.2040
  320MOL0     C43081   8.630   9.950   7.791  1.0721 -0.6104  0.1134
  320MOL0     N43082   8.485   9.959   7.785  0.1735 -0.0289 -0.2440
  320MOL0     C43083   8.414  10.030   7.689 -0.6282  0.0613 -0.5689
  320MOL0     C43084   8.287  10.000   7.718 -0.2546 -0.3767 -0.4327
  320MOL0     C43085   8.163  10.052   7.653 -0.6347 -0.9493  0.6342
  320MOL0     C43086   8.106  10.162   7.746  0.1484 -0.0757 -0.2214
  320MOL0     C43087   7.995  10.245   7.679  0.0845 -0.3486 -0.2259
  320MOL0     C43088   7.963  10.364   7.772 -0.2352  0.6850  0.8897
  320MOL0     O43089   8.063  10.459   7.767  0.1651  0.2727  0.5683
  320MOL0     C43090   8.119  10.516   7.878  0.0733  1.1304  0.5317
  320MOL0     C43091   8.065  10.529   8.002  0.0931  0.0942  0.7657
  320MOL0     C43092   8.130  10.590   8.107  0.8725 -0.0764  0.6259
  320MOL0     C43093   8.045  10.585   8.230 -0.7571  0.0464 -0.3395
  320MOL0     C43094   8.262  10.640   8.087  0.1328  0.8503  0.0461
  320MOL0     C43095   8.316  10.734   8.188 -0.0677 -0.0753  0.7563
  320MOL0     O43096   8.452  10.760   8.178  0.8430 -0.1690 -0.4000
  320MOL0     C43097   8.501  10.853   8.262 -1.3011  0.7257  0.2812
  320MOL0     C43098   8.588  10.799   8.370 -0.1562  0.5467  0.8790
  320MOL0     C43099   8.666  10.886   8.444  0.4297 -0.0297  0.4023
  320MOL0     C43100   8.650  11.030   8.423  0.5925  0.3034 -1.0402
  320MOL0     O43101   8.710  11.124   8.507 -0.8103 -0.3325 -0.8539
  320MOL0     C43102   8.854  11.123   8.510 -0.4170  0.1091  0.2636
  320MOL0     C43103   8.914  11.267   8.541 -0.4437  0.3330 -0.3118
  320MOL0     C43104   8.828  11.336   8.642  0.3826 -0.1252 -0.3854
  320MOL0     C43105   8.878  11.478   8.690  0.2464 -0.5905 -0.3171
  320MOL0     C43106   8.779  11.552   8.792 -0.1800  0.3499 -0.2743
  320MOL0     C43107   8.639  11.579   8.728  0.2459  0.3583 -0.5554
  320MOL0     C43108   8.546  11.671   8.807  0.3908  0.1719 -0.2725
  320MOL0     C43109   8.428  11.730   8.729  0.5389  0.0365  0.1423
  320MOL0    Cl43110   8.315  11.606   8.688 -0.1857  0.4011  0.0227
  320MOL0     C43111   8.555  11.083   8.340  0.7262  0.7679  0.5921
  320MOL0     C43112   8.478  10.993   8.254  0.5222 -1.0535 -0.3858
  320MOL0     O43113   8.234  10.773   8.270 -0.5852 -0.0686 -0.5328
  320MOL0     C43114   8.324  10.614   7.963 -0.1596  0.3876  0.2869
  320MOL0     C43115   8.253  10.543   7.864  1.2293  0.6025  0.4370
  320MOL0     N43116   8.278   9.930   7.838  0.7735  0.5199 -0.3821
  320MOL0     N43117   8.399   9.907   7.873 -0.4151 -0.2210 -0.2405
  320MOL0     C43118   9.381   9.662   7.369 -1.4719  0.3586 -0.7434
  320MOL0     C43119   9.448   9.546   7.321  1.1097 -0.6306 -0.0787
  320MOL0     C43120   9.807   9.282   7.210  0.2151 -0.5510  0.5001
  320MOL0     C43121   9.915   9.288   7.112 -0.7821  0.4680 -0.7947
  320MOL0     C43122   9.955   9.176   7.045 -1.1885  0.5237  0.1113
  320MOL0     C43123   9.902   9.055   7.063  0.2624 -0.5694  0.2672
  320MOL0     O43124   9.947   8.954   6.987 -0.0716 -0.9788  0.0947
  320MOL0     C43125   9.870   8.832   6.969 -0.0574  0.5843 -1.1103
  320MOL0     C43126   9.932   8.713   7.052 -0.3298  0.7551  1.0407
  320MOL0     C43127  10.093   8.729   7.054  0.3608  0.7142 -0.1036
  320MOL0     C43128  10.166   8.603   7.095  0.3746 -0.7824 -0.4368
  320MOL0     C43129  10.302   8.600   7.039  0.5284  0.2665  0.7326
  320MOL0     C43130  10.402   8.618   6.970 -0.8400  0.3599 -0.3745
  320MOL0     C43131   9.805   9.044   7.169 -0.8539 -0.0223 -0.5067
  320MOL0     C43132   9.752   9.157   7.232 -0.4270 -0.6827  0.1580
  320MOL0     H43133   9.730   9.559   7.506  0.0410 -2.4915  1.1374
  320MOL0     H43134   9.597   9.712   7.630 -0.9962 -1.0541  0.2733
  320MOL0     H43135   9.368   9.806   7.743 -0.8933 -0.2255  0.4696
  320MOL0     H43136   9.499   9.905   7.692 -0.4632  0.6667  0.3864
  320MOL0     H43137   9.345  10.036   7.786  1.8882  1.0065 -0.9593
  320MOL0     H43138   9.353  10.097   7.619 -1.4984  0.8065  0.1447
  320MOL0     H43139   9.138   9.946   7.574  1.9132  2.1817 -1.0901
  320MOL0     H43140   9.135   9.929   7.756 -1.0200  0.9668  1.4542
  320MOL0     H43141   9.121  10.172   7.770 -0.0395 -0.8765  0.8237
  320MOL0     H43142   9.144  10.185   7.595 -1.5435 -0.3084  0.0615
  320MOL0     H43143   8.911  10.215   7.615 -0.5796 -0.0916 -0.9979
  320MOL0     H43144   8.959  10.067   7.528  3.1179  0.4834 -0.0156
  320MOL0     H43145   8.887   9.937   7.737  1.0934  1.6667  2.4725
  320MOL0     H43146   8.866  10.094   7.825 -1.7026  0.5430 -0.4554
  320MOL0     H43147   8.667  10.142   7.704 -3.8554 -1.0712 -3.4051
  320MOL0     H43148   8.706  10.016   7.587  5.5335 -0.6391 -0.6007
  320MOL0     H43149   8.655   9.986   7.891  1.1124  3.2121 -1.1345
  320MOL0     H43150   8.662   9.845   7.783  1.3815 -0.4080 -1.4606
  320MOL0     H43151   8.445  10.088   7.603  4.0551 -1.6709 -0.3784
  320MOL0     H43152   8.197  10.078   7.552  1.3945 -2.0203  0.9747
  320MOL0     H43153   8.085   9.976   7.648  0.5909 -2.1681 -1.6907
  320MOL0     H43154   8.198  10.212   7.776  3.1999 -4.9062 -0.3421
  320MOL0     H43155   8.067  10.121   7.839  0.3261 -2.7536 -1.2239
  320MOL0     H43156   7.909  10.182   7.656  0.6615 -1.5256  0.7010
  320MOL0     H43157   8.028  10.289   7.584 -1.2746 -1.5582 -1.3052
  320MOL0     H43158   7.961  10.316   7.870 -1.2979 -0.9174  0.1410
  320MOL0     H43159   7.869  10.418   7.755  0.0188  1.3076  1.4311
  320MOL0     H43160   7.960  10.505   8.013 -0.6459  1.3758 -2.3662
  320MOL0     H43161   7.979  10.498   8.240 -0.0167 -0.4815 -0.0163
  320MOL0     H43162   8.118  10.586   8.311 -1.3483  1.6707  0.2236
  320MOL0     H43163   7.989  10.679   8.244 -1.1674 -0.7020  4.9792
  320MOL0     H43164   8.590  10.693   8.394  0.4354  0.0786 -1.0206
  320MOL0     H43165   8.721  10.845   8.528  0.7660 -0.2249  0.0917
  320MOL0     H43166   8.892  11.053   8.586  1.3816  2.6572  1.8516
  320MOL0     H43167   8.884  11.077   8.416 -0.2698 -1.6947  1.1429
  320MOL0     H43168   9.020  11.260   8.565 -0.6042 -1.4453  0.0179
  320MOL0     H43169   8.890  11.315   8.446 -1.3460  0.8647  0.1678
  320MOL0     H43170   8.822  11.264   8.724 -1.4675 -1.0387 -1.2711
  320MOL0     H43171   8.733  11.360   8.593  0.8604  0.9513 -0.8386
  320MOL0     H43172   8.978  11.473   8.735  0.4057  1.6134 -0.3142
  320MOL0     H43173   8.894  11.549   8.607  4.2921 -0.0962  0.6422
  320MOL0     H43174   8.817  11.648   8.830 -0.8799  0.9118 -0.9648
  320MOL0     H43175   8.761  11.485   8.877  0.8546 -1.3793 -1.3575
  320MOL0     H43176   8.663  11.628   8.633  1.2695 -2.2326 -1.7335
  320MOL0     H43177   8.592  11.482   8.706 -0.7210  0.4437  0.9634
  320MOL0     H43178   8.607  11.759   8.830 -1.7962  2.1304 -1.5082
  320MOL0     H43179   8.514  11.615   8.896 -1.1202 -3.4198 -2.8637
  320MOL0     H43180   8.470  11.782   8.642  0.1675 -0.3345 -0.2661
  320MOL0     H43181   8.377  11.805   8.790 -0.8319 -1.6204  1.1257
  320MOL0     H43182   8.537  11.190   8.339 -4.1194  0.1388 -0.1279
  320MOL0     H43183   8.405  11.043   8.191  0.4552  0.7405  1.0152
  320MOL0     H43184   8.423  10.645   7.931 -0.1699  0.2987  0.1680
  320MOL0     H43185   8.300  10.526   7.768  2.4419 -0.1686  1.1483
  320MOL0     H43186   9.290   9.696   7.321 -1.6549 -0.3821 -0.9261
  320MOL0     H43187   9.392   9.487   7.249 -0.3024  1.1798 -0.5527
  320MOL0     H43188   9.967   9.379   7.086  1.5290 -1.0350 -1.6656
  320MOL0     H43189  10.029   9.188   6.967 -1.3255 -0.7221 -0.2310
  320MOL0     H43190   9.763   8.842   6.990 -0.4242 -1.6507 -1.5989
  320MOL0     H43191   9.877   8.800   6.865  4.5418 -0.3040 -0.7101
  320MOL0     H43192   9.907   8.621   6.999  2.1972  0.3268  0.4818
  320MOL0     H43193   9.889   8.710   7.153 -0.7214  0.2786  0.8614
  320MOL0     H43194  10.123   8.807   7.125  0.2195 -1.1006  2.1032
  320MOL0     H43195  10.131   8.760   6.957 -1.7708 -1.0305 -1.5981
  320MOL0     H43196  10.103   8.515   7.074 -1.2526 -0.1031  1.2900
  320MOL0     H43197  10.177   8.609   7.203 -0.1799 -2.6787 -0.2450
  320MOL0     H43198  10.473   8.625   6.890 -4.2885 -0.9859 -3.8937
  320MOL0     H43199   9.766   8.944   7.183 -2.5079  0.7057  0.4097
  320MOL0     H43200   9.663   9.150   7.295  0.3434 -2.4303  1.1196
  321MOL0     O43201  11.319  10.165   5.994  0.5951  0.0613 -0.5280
  321MOL0     C43202  11.269  10.184   5.888  0.7168 -0.5205  0.7413
  321MOL0     O43203  11.286  10.110   5.780 -0.4565  0.3131 -0.0754
  321MOL0     C43204  11.369  10.002   5.785  0.6777 -0.7688 -0.6315
  321MOL0     C43205  11.494  10.013   5.734 -0.1342 -0.4687 -0.2857
  321MOL0     C43206  11.582   9.903   5.735  0.0469  0.4456  0.1437
  321MOL0     C43207  11.536   9.783   5.781  0.2870  0.4203 -0.2487
  321MOL0     O43208  11.628   9.683   5.780  0.5950 -0.7262 -0.0921
  321MOL0     C43209  11.679   9.627   5.902  0.6897  0.9829 -0.0340
  321MOL0     C43210  11.770   9.514   5.886 -0.5396 -0.5403 -0.1608
  321MOL0     C43211  11.905   9.566   5.839 -0.5146  0.2116  0.2251
  321MOL0     C43212  12.004   9.453   5.822  0.6245  1.0017  0.7344
  321MOL0     C43213  12.134   9.507   5.770 -0.8827 -0.2872 -0.6031
  321MOL0     C43214  12.204   9.406   5.689 -0.7715  0.1758  0.3614
  321MOL0     C43215  12.260   9.293   5.782  0.0037 -0.0647 -0.2690
  321MOL0     C43216  12.176   9.166   5.792 -0.2188 -0.4351  0.4958
  321MOL0     N43217  12.277   9.056   5.785 -0.1672  0.2365 -0.0005
  321MOL0     C43218  12.336   8.991   5.886  0.7201 -0.4632  0.1856
  321MOL0     C43219  12.426   8.905   5.831  0.1419  0.4834  1.0705
  321MOL0     C43220  12.532   8.825   5.889 -0.5478 -0.0843  0.2785
  321MOL0     C43221  12.485   8.711   5.999 -0.7760 -0.4194 -1.1578
  321MOL0     C43222  12.486   8.777   6.135  0.4614  0.0245  0.1894
  321MOL0     C43223  12.450   8.685   6.250 -0.1203 -0.1505  0.9547
  321MOL0     O43224  12.307   8.676   6.252 -0.7364  0.1382 -1.5799
  321MOL0     C43225  12.260   8.574   6.329 -0.8873 -1.1901 -0.3471
  321MOL0     C43226  12.272   8.442   6.289 -0.3279 -0.3996 -0.8361
  321MOL0     C43227  12.203   8.337   6.359  0.0630  0.4323  0.2052
  321MOL0     C43228  12.216   8.189   6.309 -0.8393 -0.9651  0.1916
  321MOL0     C43229  12.111   8.366   6.465  0.3667 -0.1699 -0.3593
  321MOL0     C43230  12.014   8.274   6.534 -1.3753 -0.0691 -0.1292
  321MOL0     O43231  11.921   8.337   6.604 -0.3574 -0.3958 -0.1313
  321MOL0     C43232  11.850   8.265   6.700  0.1245  0.2609  0.5255
  321MOL0     C43233  11.708   8.269   6.686  0.3581  0.0107 -0.3445
  321MOL0     C43234  11.624   8.232   6.798  0.0107  0.4096 -0.1112
  321MOL0     C43235  11.691   8.188   6.916  0.0811  0.1379  0.2157
  321MOL0     O43236  11.613   8.161   7.017  0.2932  0.4056 -0.1274
  321MOL0     C43237  11.643   8.218   7.146  0.5347 -0.3051 -1.1136
  321MOL0     C43238  11.545   8.186   7.259  0.8664 -0.3331  0.1737
  321MOL0     C43239  11.499   8.042   7.266 -0.5236  0.0365  0.6626
  321MOL0     C43240  11.460   7.985   7.414  0.3147  0.1939  0.5864
  321MOL0     C43241  11.455   7.838   7.417 -0.1403  0.1310  0.2336
  321MOL0     C43242  11.361   7.779   7.305  0.4402  0.1395  0.9111
  321MOL0     C43243  11.339   7.633   7.322  0.9227  0.2658 -0.3763
  321MOL0     C43244  11.210   7.582   7.249  0.3870 -0.1194  0.5886
  321MOL0    Cl43245  11.059   7.662   7.327  0.1590  0.1956 -0.2189
  321MOL0     C43246  11.819   8.179   6.925 -0.2172 -0.0215 -0.5384
  321MOL0     C43247  11.908   8.214   6.823  0.8047 -0.4147  1.7987
  321MOL0     O43248  12.052   8.156   6.554  0.1766  0.3568  0.1368
  321MOL0     C43249  12.104   8.506   6.504 -0.1310 -0.0712 -0.7292
  321MOL0     C43250  12.175   8.605   6.431 -0.4394  0.6596 -0.1195
  321MOL0     N43251  12.406   8.909   5.691 -1.1507  0.2695 -0.5341
  321MOL0     N43252  12.314   8.997   5.668  0.3759 -0.4359  0.0059
  321MOL0     C43253  11.403   9.762   5.836 -0.3783 -0.1499  0.4611
  321MOL0     C43254  11.319   9.878   5.836 -0.7096  0.5209  0.6159
  321MOL0     C43255  11.182  10.305   5.869 -0.8153 -0.5050 -0.5481
  321MOL0     C43256  11.196  10.387   5.755 -1.0656  0.6164 -1.0596
  321MOL0     C43257  11.123  10.508   5.733  0.2686  0.5549 -0.2366
  321MOL0     C43258  11.027  10.544   5.827  0.3705  0.2069  0.3752
  321MOL0     O43259  10.938  10.655   5.806  0.7201 -0.2878 -0.0602
  321MOL0     C43260  10.902  10.677   5.667  0.2268  0.4607 -0.9558
  321MOL0     C43261  10.902  10.821   5.622  0.5928 -0.0487  0.0498
  321MOL0     C43262  11.043  10.872   5.645 -0.4262 -0.4500  0.3640
  321MOL0     C43263  11.041  11.029   5.624  0.6571  0.4470 -0.1424
  321MOL0     C43264  11.161  11.082   5.702  0.0749  0.3145 -0.5921
  321MOL0     C43265  11.261  11.120   5.757 -1.0911  0.0355 -0.3260
  321MOL0     C43266  11.011  10.467   5.943  0.7516 -0.8857  0.1664
  321MOL0     C43267  11.092  10.353   5.958  0.3281  0.1507  0.4130
  321MOL0     H43268  11.528  10.109   5.696  0.1299 -1.6681 -3.4268
  321MOL0     H43269  11.681   9.930   5.699 -0.7502  1.8971 -1.0978
  321MOL0     H43270  11.715   9.699   5.975 -0.1102  0.9358  0.4208
  321MOL0     H43271  11.587   9.584   5.943 -0.4085  3.4109  0.2005
  321MOL0     H43272  11.790   9.458   5.978 -2.9026 -3.0976 -1.0712
  321MOL0     H43273  11.716   9.450   5.815 -0.1513  1.1513 -2.0658
  321MOL0     H43274  11.896   9.613   5.740 -1.8202 -3.8258 -1.7915
  321MOL0     H43275  11.945   9.636   5.913 -3.4858  2.6180 -0.2336
  321MOL0     H43276  12.008   9.382   5.905 -2.4721  1.6923  1.6076
  321MOL0     H43277  11.960   9.391   5.743  1.9977  0.4485  0.3700
  321MOL0     H43278  12.109   9.593   5.707 -1.7160  0.5676  0.8420
  321MOL0     H43279  12.202   9.545   5.847 -0.4259 -0.2384 -1.0222
  321MOL0     H43280  12.132   9.370   5.615 -1.8505  3.1093 -0.1460
  321MOL0     H43281  12.282   9.453   5.627 -0.7573 -0.2443  0.0521
  321MOL0     H43282  12.356   9.257   5.743 -1.7337 -2.9761 -2.2097
  321MOL0     H43283  12.271   9.337   5.882 -2.1498  0.5397 -0.2518
  321MOL0     H43284  12.103   9.151   5.711 -0.0832 -0.9762  0.4706
  321MOL0     H43285  12.123   9.158   5.888  1.3212  0.1516  1.4264
  321MOL0     H43286  12.322   9.017   5.991 -1.5939 -3.1580  0.6755
  321MOL0     H43287  12.589   8.781   5.807 -1.8739 -2.6628  0.6457
  321MOL0     H43288  12.598   8.896   5.941 -1.4219  0.1265  1.1201
  321MOL0     H43289  12.561   8.633   6.007  1.6245  1.6906 -1.6993
  321MOL0     H43290  12.391   8.666   5.967 -1.5566  0.0372  0.3666
  321MOL0     H43291  12.428   8.869   6.137  1.7455  0.8559  2.1530
  321MOL0     H43292  12.594   8.789   6.146  0.8706 -1.7795 -1.3369
  321MOL0     H43293  12.487   8.727   6.344 -0.2182  3.3225 -0.4031
  321MOL0     H43294  12.504   8.593   6.225 -2.2250 -0.6307 -2.3893
  321MOL0     H43295  12.336   8.418   6.204  1.3775 -2.8528  0.9888
  321MOL0     H43296  12.287   8.190   6.226 -0.1282 -0.7639  0.7858
  321MOL0     H43297  12.253   8.126   6.391 -0.6857  0.3520  1.1650
  321MOL0     H43298  12.120   8.163   6.263 -0.8460 -1.5312  0.5133
  321MOL0     H43299  11.662   8.302   6.594  0.4413  0.5776 -0.1883
  321MOL0     H43300  11.517   8.250   6.787 -0.5212 -2.0841  0.3272
  321MOL0     H43301  11.743   8.186   7.175  1.8478  0.9486 -3.8813
  321MOL0     H43302  11.649   8.327   7.144 -1.0937 -0.1983 -2.2807
  321MOL0     H43303  11.586   8.212   7.357  1.6345 -3.5417  0.8087
  321MOL0     H43304  11.463   8.257   7.244  2.4312  1.6382  0.5503
  321MOL0     H43305  11.584   7.980   7.237  1.6323  2.7550  0.7404
  321MOL0     H43306  11.411   8.033   7.201  1.2488 -2.5095 -1.5734
  321MOL0     H43307  11.532   8.019   7.488 -1.9093 -3.4865  4.9242
  321MOL0     H43308  11.364   8.022   7.452  1.1068 -0.2571  3.2182
  321MOL0     H43309  11.429   7.799   7.515  3.2438 -0.0808  1.1610
  321MOL0     H43310  11.556   7.800   7.399  0.1796  0.5083  1.1934
  321MOL0     H43311  11.262   7.821   7.322 -0.2061 -0.4212 -1.1669
  321MOL0     H43312  11.399   7.807   7.207 -1.5911 -0.0191  0.0335
  321MOL0     H43313  11.329   7.617   7.430 -0.8636 -1.2838 -0.7076
  321MOL0     H43314  11.418   7.563   7.296 -0.2506 -0.3928 -2.3506
  321MOL0     H43315  11.207   7.473   7.254  2.3208 -0.3513 -1.7317
  321MOL0     H43316  11.211   7.622   7.148  0.1082  1.4944  1.1952
  321MOL0     H43317  11.867   8.152   7.019  1.1143  0.1872 -1.1345
  321MOL0     H43318  12.013   8.189   6.813  0.5737 -0.4617 -2.3890
  321MOL0     H43319  12.047   8.525   6.594 -0.1491 -2.3354 -0.2055
  321MOL0     H43320  12.172   8.707   6.469  0.3884  0.4881  0.4326
  321MOL0     H43321  11.368   9.666   5.873 -2.6049  1.2398  2.2607
  321MOL0     H43322  11.227   9.888   5.892 -1.1347  2.0061 -0.2950
  321MOL0     H43323  11.278  10.352   5.694 -0.7356 -1.7915  0.6187
  321MOL0     H43324  11.147  10.562   5.642 -0.8582 -0.8199 -1.4005
  321MOL0     H43325  10.963  10.621   5.595 -0.1421  0.1418 -1.0230
  321MOL0     H43326  10.796  10.651   5.660 -0.3033  0.4005  3.8278
  321MOL0     H43327  10.832  10.878   5.685  0.7520  1.4672 -1.0770
  321MOL0     H43328  10.870  10.827   5.517  2.9584 -3.9689 -1.0785
  321MOL0     H43329  11.116  10.814   5.588 -2.1840 -2.5154  0.0758
  321MOL0     H43330  11.072  10.842   5.746  0.5144  2.1333  0.9560
  321MOL0     H43331  10.952  11.082   5.661 -0.0472 -2.4448  2.8049
  321MOL0     H43332  11.043  11.053   5.517  0.1136 -0.8308 -0.4480
  321MOL0     H43333  11.361  11.139   5.791 -0.8821  0.4418 -1.1231
  321MOL0     H43334  10.941  10.480   6.024 -1.8701 -1.8451 -1.7858
  321MOL0     H43335  11.096  10.300   6.053  1.3695 -2.2213 -0.8753
  322MOL0     O43336   7.558   3.430   8.197  1.2876  0.2471 -0.2693
  322MOL0     C43337   7.546   3.328   8.132 -0.5478 -0.5372  0.0561
  322MOL0     O43338   7.450   3.221   8.147  0.2350  0.3622  0.2030
  322MOL0     C43339   7.339   3.235   8.224  0.2244 -0.1878 -0.9288
  322MOL0     C43340   7.290   3.130   8.305 -0.6319 -0.4881 -0.3003
  322MOL0     C43341   7.180   3.150   8.379  0.6506  0.2804  1.4889
  322MOL0     C43342   7.108   3.273   8.391  1.1600 -0.7334 -0.4669
  322MOL0     O43343   7.004   3.298   8.481 -0.4321  0.7340 -0.3519
  322MOL0     C43344   6.918   3.182   8.503  0.8595 -0.0812 -0.4312
  322MOL0     C43345   6.783   3.221   8.582  0.1311  0.0934 -0.1169
  322MOL0     C43346   6.690   3.306   8.496 -0.2781  0.1461 -0.7096
  322MOL0     C43347   6.660   3.239   8.359  0.0978 -0.5482 -0.1860
  322MOL0     C43348   6.545   3.306   8.278 -0.2162 -0.8418  0.9115
  322MOL0     C43349   6.577   3.455   8.261  1.2837 -0.5218  0.7421
  322MOL0     C43350   6.679   3.482   8.142 -0.6634 -1.0314  0.5439
  322MOL0     C43351   6.790   3.569   8.192  0.5800 -0.4960  0.6591
  322MOL0     N43352   6.871   3.617   8.086 -0.4567  0.3646  0.5588
  322MOL0     C43353   6.999   3.666   8.094 -0.1602  0.5674 -1.0704
  322MOL0     C43354   7.044   3.690   7.975 -0.1163 -0.4889 -0.2739
  322MOL0     C43355   7.173   3.769   7.969  0.0912 -0.0432  0.1268
  322MOL0     C43356   7.155   3.903   8.046  0.1357  0.3602 -0.1836
  322MOL0     C43357   7.274   3.994   8.055 -0.0183 -0.0696 -0.5808
  322MOL0     C43358   7.396   3.926   8.125  0.5172 -0.1663 -1.0209
  322MOL0     O43359   7.456   3.866   8.014 -0.7586 -0.1303  0.8130
  322MOL0     C43360   7.593   3.863   8.005  0.1137  0.5965  0.2502
  322MOL0     C43361   7.691   3.885   8.106 -0.6554 -0.8663 -0.5766
  322MOL0     C43362   7.827   3.892   8.071  0.6424 -0.5692 -0.8918
  322MOL0     C43363   7.922   3.929   8.181 -1.2692  0.0985  0.3824
  322MOL0     C43364   7.870   3.843   7.951 -0.7572  0.2750  0.2953
  322MOL0     C43365   8.009   3.830   7.916 -0.1882 -1.0713  0.1820
  322MOL0     O43366   8.087   3.942   7.887  0.3942  0.2016 -0.2146
  322MOL0     C43367   8.049   4.070   7.920  0.1146  0.0729 -0.2053
  322MOL0     C43368   7.965   4.134   7.835 -0.1098  0.1084 -0.3796
  322MOL0     C43369   7.938   4.274   7.846 -1.0101  0.0901  0.1342
  322MOL0     C43370   8.004   4.347   7.938  0.0963 -0.0214 -0.2314
  322MOL0     O43371   7.992   4.486   7.936  1.3970  0.3892 -0.1171
  322MOL0     C43372   8.058   4.569   8.029 -0.2086 -0.7513 -0.4095
  322MOL0     C43373   8.016   4.584   8.180  0.9325  0.2335  1.6819
  322MOL0     C43374   7.865   4.615   8.193  1.1277  0.6981  0.6848
  322MOL0     C43375   7.831   4.657   8.342  1.0429 -0.2638  0.1763
  322MOL0     C43376   7.684   4.699   8.343  0.5006  0.3535 -0.5443
  322MOL0     C43377   7.621   4.690   8.486 -0.4176 -0.2052  0.5839
  322MOL0     C43378   7.679   4.788   8.594  0.2831  0.2235  0.6100
  322MOL0     C43379   7.619   4.768   8.731  0.0149 -0.1506 -0.3315
  322MOL0    Cl43380   7.723   4.826   8.868 -0.3038  0.2481  0.1252
  322MOL0     C43381   8.092   4.278   8.020 -0.6589 -0.7801 -0.1020
  322MOL0     C43382   8.117   4.140   8.016 -0.0261 -0.2306 -0.1891
  322MOL0     O43383   8.040   3.718   7.872 -0.2414 -0.3147  0.0203
  322MOL0     C43384   7.774   3.814   7.849  0.4186 -1.7703 -0.5234
  322MOL0     C43385   7.640   3.833   7.879  0.2368 -0.0914 -0.6227
  322MOL0     N43386   6.951   3.662   7.887 -0.2921  0.3835 -0.7509
  322MOL0     N43387   6.847   3.627   7.943 -0.2712  0.0324 -0.1566
  322MOL0     C43388   7.147   3.373   8.304 -0.4182 -0.0576  0.6078
  322MOL0     C43389   7.260   3.351   8.222  0.1895  0.4910  0.6622
  322MOL0     C43390   7.652   3.324   8.021  0.4533  0.6664 -0.0357
  322MOL0     C43391   7.661   3.206   7.951 -0.7041 -0.3290  0.1819
  322MOL0     C43392   7.743   3.191   7.840 -0.5045 -0.4553  0.9509
  322MOL0     C43393   7.819   3.305   7.789  0.2571  1.0332  0.2267
  322MOL0     O43394   7.906   3.282   7.687  0.0235  0.0454  0.1357
  322MOL0     C43395   7.908   3.392   7.586 -0.4133  1.2079  0.6465
  322MOL0     C43396   7.776   3.410   7.507 -0.1624 -0.7512 -0.3400
  322MOL0     C43397   7.701   3.274   7.487 -0.3561 -0.1459  0.7108
  322MOL0     C43398   7.552   3.282   7.466  0.1301  0.2572 -0.8684
  322MOL0     C43399   7.523   3.350   7.342  0.7917 -0.0823 -0.0121
  322MOL0     C43400   7.504   3.377   7.222  0.5054 -0.7986  0.0638
  322MOL0     C43401   7.808   3.420   7.864 -0.0806 -0.2556  0.6423
  322MOL0     C43402   7.725   3.435   7.979 -0.2337  1.0152  0.1844
  322MOL0     H43403   7.338   3.032   8.296  1.2480  0.0937  2.2343
  322MOL0     H43404   7.150   3.060   8.432 -0.1605  0.4212  1.2780
  322MOL0     H43405   6.894   3.125   8.414 -1.2468 -0.8476  0.5608
  322MOL0     H43406   6.970   3.120   8.577  0.5307  2.9892  2.6703
  322MOL0     H43407   6.740   3.125   8.613  1.8221  0.2664  3.2541
  322MOL0     H43408   6.799   3.277   8.674 -3.2968 -0.2667  0.8304
  322MOL0     H43409   6.594   3.315   8.546  0.4335  0.3556  0.6630
  322MOL0     H43410   6.731   3.407   8.492 -0.4228  0.3064  1.2102
  322MOL0     H43411   6.751   3.226   8.300  1.9598 -2.0164  2.7941
  322MOL0     H43412   6.622   3.137   8.369 -0.2274 -0.3327  0.8367
  322MOL0     H43413   6.551   3.253   8.183  1.4859 -3.4970  2.3723
  322MOL0     H43414   6.448   3.289   8.325 -0.7061  0.3136  0.3468
  322MOL0     H43415   6.474   3.491   8.248  0.2131 -3.1348  1.2923
  322MOL0     H43416   6.617   3.485   8.358  2.0243 -2.9337  1.2588
  322MOL0     H43417   6.725   3.396   8.094  0.9483 -2.3814  4.1329
  322MOL0     H43418   6.625   3.537   8.065 -0.7869 -1.6073  0.2153
  322MOL0     H43419   6.865   3.517   8.252  4.3962  0.7129 -2.5890
  322MOL0     H43420   6.739   3.650   8.245 -2.6271  0.1615 -2.9309
  322MOL0     H43421   7.050   3.687   8.188  1.9687 -3.1996 -1.1837
  322MOL0     H43422   7.249   3.699   8.007 -0.0860 -0.2705  0.0675
  322MOL0     H43423   7.197   3.794   7.865  1.7852  1.2970  0.7938
  322MOL0     H43424   7.143   3.874   8.151  1.6330 -0.7456 -0.2742
  322MOL0     H43425   7.066   3.958   8.016 -0.6461 -1.3041 -1.0476
  322MOL0     H43426   7.243   4.087   8.104 -1.6149 -0.0584 -1.5371
  322MOL0     H43427   7.306   4.018   7.953  1.9983  0.3727  0.1119
  322MOL0     H43428   7.364   3.857   8.204  0.6168  0.3140 -0.5521
  322MOL0     H43429   7.469   3.996   8.166  0.7454  0.1224 -1.9051
  322MOL0     H43430   7.659   3.905   8.208 -1.7072  1.3718 -1.2647
  322MOL0     H43431   7.931   3.844   8.249 -0.0868  0.2187  0.3904
  322MOL0     H43432   8.023   3.940   8.140 -0.3388  0.1722  2.5670
  322MOL0     H43433   7.905   4.026   8.228  0.5644  1.1257 -0.9184
  322MOL0     H43434   7.903   4.071   7.773 -1.1981 -1.1803  1.8755
  322MOL0     H43435   7.868   4.313   7.773  1.7551 -0.3064 -2.9467
  322MOL0     H43436   8.165   4.551   8.024  0.1767  1.0987  0.4099
  322MOL0     H43437   8.045   4.664   7.976 -2.1062 -1.0378 -0.5468
  322MOL0     H43438   8.044   4.490   8.228 -0.0470 -0.9752 -0.0468
  322MOL0     H43439   8.079   4.664   8.222 -1.6263  3.2542  0.1863
  322MOL0     H43440   7.799   4.529   8.174 -0.6952  1.9892  0.9345
  322MOL0     H43441   7.834   4.692   8.122 -0.5079 -1.7243 -1.4225
  322MOL0     H43442   7.858   4.571   8.405  2.4139  0.1480  0.1881
  322MOL0     H43443   7.889   4.743   8.378 -0.2332  0.2633  1.0519
  322MOL0     H43444   7.633   4.622   8.285 -2.4561  0.3940  1.7459
  322MOL0     H43445   7.660   4.800   8.307 -0.8182 -0.1047 -1.0386
  322MOL0     H43446   7.515   4.718   8.476  0.1846  1.5600 -1.9314
  322MOL0     H43447   7.653   4.589   8.510  1.4524 -0.0706 -1.1375
  322MOL0     H43448   7.665   4.892   8.562 -1.0029 -0.5216 -1.4409
  322MOL0     H43449   7.783   4.758   8.607  0.6044  0.8115 -0.4470
  322MOL0     H43450   7.608   4.660   8.745  2.3358 -0.2059  1.9393
  322MOL0     H43451   7.522   4.818   8.742 -1.0189 -2.1042 -0.0565
  322MOL0     H43452   8.155   4.321   8.097 -0.9137 -1.9497  0.7884
  322MOL0     H43453   8.187   4.093   8.084  2.5150  2.9735 -0.3394
  322MOL0     H43454   7.796   3.774   7.751  1.3572  0.3823 -1.2577
  322MOL0     H43455   7.567   3.795   7.808 -0.6456  1.0036 -0.3217
  322MOL0     H43456   7.077   3.451   8.277  1.1823  1.4315  0.5743
  322MOL0     H43457   7.291   3.425   8.150 -0.0972 -0.8774 -0.9358
  322MOL0     H43458   7.608   3.118   7.987 -0.3076 -0.4299  0.5293
  322MOL0     H43459   7.763   3.100   7.784 -5.5365 -0.0107 -2.2052
  322MOL0     H43460   7.923   3.484   7.643 -1.3819  1.3965  0.6102
  322MOL0     H43461   7.997   3.386   7.522 -0.5721  6.3067 -0.4549
  322MOL0     H43462   7.780   3.479   7.423 -1.8665 -0.4212 -0.1955
  322MOL0     H43463   7.711   3.461   7.579 -1.5285  1.7189 -3.1326
  322MOL0     H43464   7.704   3.202   7.569 -1.9194 -0.6593  0.3538
  322MOL0     H43465   7.748   3.242   7.393 -1.2303  1.1623 -0.2066
  322MOL0     H43466   7.498   3.337   7.543  1.9050 -0.8068  1.2301
  322MOL0     H43467   7.519   3.178   7.462 -0.3701  0.2250  2.0309
  322MOL0     H43468   7.477   3.412   7.125  1.4167 -1.9311 -0.6207
  322MOL0     H43469   7.880   3.498   7.840  2.2200 -1.3112  3.5227
  322MOL0     H43470   7.740   3.528   8.033  2.5650  0.3040  0.8130
  323MOL0     O43471  11.376   1.892   2.322  0.3838  0.1187  0.3892
  323MOL0     C43472  11.422   1.838   2.424  0.2803  0.2241 -0.0800
  323MOL0     O43473  11.549   1.789   2.434 -0.2710 -0.5873 -0.6597
  323MOL0     C43474  11.631   1.758   2.327  0.1187  0.1475  0.0885
  323MOL0     C43475  11.582   1.702   2.209 -0.6190 -0.1624  0.0162
  323MOL0     C43476  11.674   1.671   2.103  1.1472  0.5577 -0.3775
  323MOL0     C43477  11.820   1.689   2.122  0.1483 -0.2830  0.8224
  323MOL0     O43478  11.917   1.665   2.031 -0.9641 -0.1787  0.6515
  323MOL0     C43479  11.879   1.593   1.906  0.1932 -0.9598  0.1057
  323MOL0     C43480  11.969   1.468   1.872 -0.5940 -0.5365  0.6821
  323MOL0     C43481  12.123   1.477   1.843  0.1207 -0.4010  0.5984
  323MOL0     C43482  12.210   1.556   1.941 -0.9841 -0.3730  0.4521
  323MOL0     C43483  12.352   1.503   1.966 -0.2212  0.5639  0.9914
  323MOL0     C43484  12.464   1.607   1.979  0.7338 -0.2431 -0.0632
  323MOL0     C43485  12.594   1.545   2.013 -0.3082 -0.1599  0.0565
  323MOL0     C43486  12.638   1.441   1.910 -0.3906  0.2161 -0.6138
  323MOL0     N43487  12.776   1.396   1.940  0.0507 -0.8400 -0.1681
  323MOL0     C43488  12.812   1.361   2.070 -0.4463 -0.4371 -0.6884
  323MOL0     C43489  12.947   1.369   2.078  0.8721 -0.4391 -1.0367
  323MOL0     C43490  13.030   1.336   2.191  0.0151 -0.0134 -0.3897
  323MOL0     C43491  13.017   1.187   2.227 -0.0759 -0.0471  0.7038
  323MOL0     C43492  13.088   1.140   2.347 -0.8386 -0.2713  0.2316
  323MOL0     C43493  13.230   1.210   2.362 -0.3138  1.1136  0.4527
  323MOL0     O43494  13.314   1.195   2.241 -0.0087 -0.0828 -0.7316
  323MOL0     C43495  13.350   1.075   2.202 -0.3372  1.0693  0.3258
  323MOL0     C43496  13.392   1.059   2.074  0.3572 -0.3604 -1.5877
  323MOL0     C43497  13.424   0.933   2.017 -0.8042 -1.3963 -1.0487
  323MOL0     C43498  13.465   0.930   1.875  0.0119 -0.0288  0.6680
  323MOL0     C43499  13.412   0.816   2.098 -0.0665  0.2960 -0.9923
  323MOL0     C43500  13.431   0.671   2.052 -0.4832  0.4776 -0.6994
  323MOL0     O43501  13.452   0.571   2.149 -0.1475 -0.4880 -0.2860
  323MOL0     C43502  13.480   0.446   2.106  0.2529 -0.6902 -0.1580
  323MOL0     C43503  13.608   0.386   2.078  0.3616 -0.3636 -0.4896
  323MOL0     C43504  13.618   0.251   2.041 -0.4093  0.3584  0.7026
  323MOL0     C43505  13.499   0.179   2.009 -0.1558 -0.5969 -0.1709
  323MOL0     O43506  13.502   0.044   1.985 -0.3882 -0.4631 -0.1053
  323MOL0     C43507  13.619  -0.007   1.922 -0.8791  0.1839 -0.1901
  323MOL0     C43508  13.600  -0.090   1.800  0.2053 -0.0865  0.0999
  323MOL0     C43509  13.591  -0.240   1.834 -0.9173 -0.8682 -0.1015
  323MOL0     C43510  13.596  -0.342   1.720  0.7766  0.9584 -1.0208
  323MOL0     C43511  13.561  -0.492   1.756  0.2012  0.1880  0.1146
  323MOL0     C43512  13.511  -0.563   1.628 -0.7734 -0.7423  0.2493
  323MOL0     C43513  13.448  -0.702   1.641 -0.1301  0.1175  0.0378
  323MOL0     C43514  13.345  -0.724   1.537  0.5191  0.3809 -0.7069
  323MOL0    Cl43515  13.426  -0.721   1.378 -0.4513  0.2801  0.4440
  323MOL0     C43516  13.371   0.238   2.019  0.9313 -0.1524 -0.5721
  323MOL0     C43517  13.368   0.367   2.068  0.0187 -0.1765  0.1465
  323MOL0     O43518  13.428   0.650   1.932  0.0943  0.3165 -0.4447
  323MOL0     C43519  13.384   0.835   2.233 -0.5849  0.5619  0.8257
  323MOL0     C43520  13.348   0.959   2.282  0.6937 -0.2546 -0.1612
  323MOL0     N43521  12.987   1.422   1.956  0.1458 -0.0467  0.6359
  323MOL0     N43522  12.889   1.442   1.881 -0.0467 -0.5837 -0.7158
  323MOL0     C43523  11.864   1.734   2.248 -0.2516 -0.2811 -0.4136
  323MOL0     C43524  11.764   1.767   2.352 -0.2218 -0.6852  1.0204
  323MOL0     C43525  11.343   1.819   2.555  0.0474 -0.4660 -0.5096
  323MOL0     C43526  11.212   1.877   2.561 -1.0373  0.8301  0.0271
  323MOL0     C43527  11.135   1.852   2.681 -0.1587 -0.5189  0.4095
  323MOL0     C43528  11.181   1.777   2.795 -0.6320  0.0904  0.6235
  323MOL0     O43529  11.123   1.775   2.913  0.0103  0.0083 -0.3439
  323MOL0     C43530  11.004   1.700   2.920  0.5970 -0.0891  0.3343
  323MOL0     C43531  10.935   1.702   3.059 -0.5476 -0.0390  0.7639
  323MOL0     C43532  11.018   1.629   3.160  0.5310  0.3297 -0.6348
  323MOL0     C43533  11.103   1.715   3.243  0.9500 -1.0617 -0.4461
  323MOL0     C43534  11.172   1.644   3.350  0.5478 -0.0809 -0.8597
  323MOL0     C43535  11.215   1.594   3.448 -0.8260  0.7715  0.4459
  323MOL0     C43536  11.317   1.738   2.783 -0.0405  0.3931  0.7129
  323MOL0     C43537  11.404   1.756   2.671  1.2756 -0.2253 -0.1300
  323MOL0     H43538  11.477   1.691   2.184 -0.6705 -1.1490  0.6295
  323MOL0     H43539  11.623   1.652   2.010 -1.9699 -1.2313  1.5196
  323MOL0     H43540  11.779   1.549   1.908  0.4713 -2.0083 -3.1256
  323MOL0     H43541  11.879   1.662   1.822  3.2807 -2.4142 -1.2776
  323MOL0     H43542  11.957   1.401   1.958 -1.6710  0.2531  1.1733
  323MOL0     H43543  11.920   1.422   1.786 -1.8542 -0.5750  1.3931
  323MOL0     H43544  12.158   1.374   1.842 -0.1088 -0.4924  1.4521
  323MOL0     H43545  12.131   1.514   1.740 -2.5816  0.8012  0.7295
  323MOL0     H43546  12.207   1.663   1.916 -2.2413 -0.4953 -0.0291
  323MOL0     H43547  12.159   1.544   2.037 -1.4602 -0.3346  0.2059
  323MOL0     H43548  12.341   1.440   2.055  1.3419 -0.7797  0.2812
  323MOL0     H43549  12.371   1.433   1.884  0.7796 -0.9588  2.4538
  323MOL0     H43550  12.475   1.672   1.892  1.9056  1.3380  1.1952
  323MOL0     H43551  12.447   1.679   2.059 -1.6996 -0.6343 -0.1763
  323MOL0     H43552  12.674   1.620   2.014  1.1884 -1.5811 -2.2958
  323MOL0     H43553  12.594   1.512   2.117  0.1922 -0.5067 -0.0484
  323MOL0     H43554  12.628   1.479   1.808  0.0428  3.9150  0.5736
  323MOL0     H43555  12.569   1.359   1.929  1.7794 -1.6516 -0.2761
  323MOL0     H43556  12.747   1.331   2.152  1.1164 -2.5998 -0.1435
  323MOL0     H43557  13.130   1.368   2.161  0.8032 -0.5379  1.5435
  323MOL0     H43558  13.003   1.397   2.278  2.1995  1.4482 -0.6685
  323MOL0     H43559  13.058   1.133   2.141 -1.3972 -2.5446  1.5338
  323MOL0     H43560  12.912   1.158   2.233  0.0455 -1.1151 -1.4359
  323MOL0     H43561  13.085   1.031   2.344 -2.8417 -0.3027  1.7254
  323MOL0     H43562  13.026   1.161   2.434 -3.2246 -3.5562 -0.5061
  323MOL0     H43563  13.291   1.169   2.444 -1.8371 -0.7627  0.7130
  323MOL0     H43564  13.218   1.310   2.404 -0.4734  0.3613  2.3162
  323MOL0     H43565  13.401   1.136   1.999  1.3277  0.5857 -0.5483
  323MOL0     H43566  13.454   1.026   1.824 -0.3627 -1.1997 -1.5950
  323MOL0     H43567  13.570   0.905   1.860  0.2433  0.5146  1.3393
  323MOL0     H43568  13.408   0.861   1.812 -1.3469  1.7624 -0.1529
  323MOL0     H43569  13.701   0.443   2.085  0.8034 -1.1675  0.5525
  323MOL0     H43570  13.710   0.193   2.043 -1.0065 -0.6989 -0.5820
  323MOL0     H43571  13.676   0.079   1.886  0.8041 -0.5237  0.6987
  323MOL0     H43572  13.680  -0.045   2.004  0.4134  0.6574 -0.9064
  323MOL0     H43573  13.515  -0.053   1.742  1.8119  0.4540 -2.0435
  323MOL0     H43574  13.692  -0.084   1.742 -0.2992 -0.9807 -0.8218
  323MOL0     H43575  13.494  -0.256   1.880 -0.9326 -0.3731  0.0391
  323MOL0     H43576  13.664  -0.261   1.912  2.1961  3.3510 -1.4593
  323MOL0     H43577  13.527  -0.310   1.641 -0.2304  0.3166 -0.4294
  323MOL0     H43578  13.699  -0.332   1.685  0.1764  2.6493 -2.4937
  323MOL0     H43579  13.473  -0.485   1.820  0.5831 -0.4155  0.7180
  323MOL0     H43580  13.636  -0.553   1.807 -1.2922 -2.5916 -0.8006
  323MOL0     H43581  13.441  -0.499   1.572 -0.2752 -1.8068 -1.7016
  323MOL0     H43582  13.595  -0.594   1.565 -3.4695 -1.6273 -3.2120
  323MOL0     H43583  13.401  -0.712   1.740 -1.3255  1.1301 -0.3958
  323MOL0     H43584  13.524  -0.780   1.629  0.6376  0.7919  0.3891
  323MOL0     H43585  13.266  -0.649   1.530 -1.5138 -1.7688 -3.0927
  323MOL0     H43586  13.290  -0.817   1.554 -1.2824  1.5247 -0.0005
  323MOL0     H43587  13.280   0.181   2.003  0.3309  1.2201 -2.2948
  323MOL0     H43588  13.267   0.407   2.076 -0.5897 -1.7396  0.6073
  323MOL0     H43589  13.390   0.759   2.310  2.0596  0.5637  0.7126
  323MOL0     H43590  13.347   0.982   2.388  0.7753  2.3041 -0.6605
  323MOL0     H43591  11.970   1.737   2.267 -0.6723  0.6191  2.2359
  323MOL0     H43592  11.800   1.802   2.448 -0.4444  0.8090  0.5857
  323MOL0     H43593  11.173   1.939   2.482 -0.4433  0.7673 -0.3267
  323MOL0     H43594  11.036   1.894   2.690  0.8396  1.4789  4.6829
  323MOL0     H43595  10.931   1.757   2.861 -0.6875  3.7049  4.9395
  323MOL0     H43596  11.023   1.597   2.888  2.8345  0.6390 -0.8196
  323MOL0     H43597  10.833   1.662   3.054 -0.9144  0.6824  2.0432
  323MOL0     H43598  10.928   1.807   3.088  1.3203  0.0389  1.0290
  323MOL0     H43599  11.083   1.557   3.110  2.1302  0.5657  1.0226
  323MOL0     H43600  10.945   1.575   3.222 -1.1490  3.7989  0.6363
  323MOL0     H43601  11.043   1.797   3.284  0.3764 -1.8205  0.2610
  323MOL0     H43602  11.174   1.773   3.184  0.9050  0.3932  0.8814
  323MOL0     H43603  11.255   1.533   3.527 -1.5704  1.6677  1.5436
  323MOL0     H43604  11.355   1.704   2.879  0.1484  1.0044  0.8629
  323MOL0     H43605  11.509   1.728   2.672  1.6909  1.0667 -1.9525
  324MOL0     O43606   7.659   0.855   4.107 -0.5756 -0.7407 -0.5771
  324MOL0     C43607   7.551   0.797   4.121 -1.0943  0.4847 -0.6473
  324MOL0     O43608   7.503   0.717   4.028 -0.2531  0.0207 -0.0591
  324MOL0     C43609   7.580   0.658   3.937  0.9238  0.0562 -0.0327
  324MOL0     C43610   7.639   0.526   3.948  0.1245 -0.6446 -0.7320
  324MOL0     C43611   7.694   0.472   3.836  0.7872  0.6654 -0.6470
  324MOL0     C43612   7.711   0.539   3.720 -1.2766 -0.1173  0.1231
  324MOL0     O43613   7.769   0.473   3.608 -0.2273 -0.2571 -0.1539
  324MOL0     C43614   7.804   0.553   3.500  0.5420 -0.7448  0.3657
  324MOL0     C43615   7.942   0.621   3.525 -0.3214 -0.1805 -0.5911
  324MOL0     C43616   8.011   0.634   3.384 -0.0955  0.2109 -0.6053
  324MOL0     C43617   7.940   0.746   3.300  0.3515 -0.2077 -0.5741
  324MOL0     C43618   7.998   0.768   3.166  0.5156  0.0008 -0.3053
  324MOL0     C43619   7.907   0.846   3.066 -0.3075  0.1120  0.4482
  324MOL0     C43620   7.981   0.884   2.931  0.1927  0.1333 -0.3692
  324MOL0     C43621   8.075   1.002   2.952  0.7086 -0.0521  0.2717
  324MOL0     N43622   8.017   1.123   3.017  0.3338  0.4650  0.4483
  324MOL0     C43623   8.048   1.168   3.134 -0.1444  0.1138 -0.5786
  324MOL0     C43624   7.983   1.283   3.158  0.7523 -0.0779 -0.4652
  324MOL0     C43625   7.976   1.368   3.281  0.8403 -1.5486  0.3291
  324MOL0     C43626   8.052   1.509   3.256 -0.3530 -1.0070  0.0108
  324MOL0     C43627   8.012   1.604   3.370 -0.2976  0.4847  1.0005
  324MOL0     C43628   8.097   1.738   3.364  0.5522  0.0502 -0.3106
  324MOL0     O43629   8.116   1.790   3.499  0.4267 -0.9088  0.1527
  324MOL0     C43630   8.173   1.920   3.504  0.1619 -0.1675  0.3124
  324MOL0     C43631   8.226   1.992   3.399 -0.1478  0.0080 -0.3227
  324MOL0     C43632   8.285   2.120   3.420 -0.5821 -0.1341  0.2916
  324MOL0     C43633   8.358   2.170   3.292 -0.5152 -0.1765 -0.1842
  324MOL0     C43634   8.275   2.187   3.551 -0.0470 -1.1386 -0.0005
  324MOL0     C43635   8.318   2.325   3.575 -0.1793  0.6281  0.1122
  324MOL0     O43636   8.314   2.358   3.708 -1.4085  0.1963 -0.3902
  324MOL0     C43637   8.328   2.493   3.736 -0.3356 -1.3085  0.3058
  324MOL0     C43638   8.231   2.580   3.682  0.2358  0.6652  0.5682
  324MOL0     C43639   8.246   2.720   3.698  0.7901  0.8133  0.0266
  324MOL0     C43640   8.357   2.772   3.765  0.0582  0.2554  0.3076
  324MOL0     O43641   8.368   2.903   3.782 -0.3354 -0.9956 -0.4577
  324MOL0     C43642   8.476   2.962   3.859 -0.3436 -0.0289 -0.4686
  324MOL0     C43643   8.463   2.952   4.014  0.0592 -0.0123  0.3858
  324MOL0     C43644   8.334   3.025   4.039 -0.7437 -0.0078 -0.7489
  324MOL0     C43645   8.317   3.055   4.196 -0.1710  0.2152 -0.5039
  324MOL0     C43646   8.189   3.131   4.222  0.0493 -0.8280  0.0923
  324MOL0     C43647   8.180   3.153   4.372 -0.8519 -0.2093 -0.2323
  324MOL0     C43648   8.059   3.239   4.429 -0.3434  0.2126 -1.2862
  324MOL0     C43649   8.097   3.340   4.541 -1.0392 -0.0962  0.2090
  324MOL0    Cl43650   8.192   3.261   4.676 -0.3213  0.2292  0.1305
  324MOL0     C43651   8.463   2.679   3.804  0.0451  0.2763 -0.1121
  324MOL0     C43652   8.440   2.547   3.801 -0.2731 -0.3173  0.9448
  324MOL0     O43653   8.373   2.385   3.485  0.6551 -0.2081 -0.5518
  324MOL0     C43654   8.213   2.109   3.651  1.0705  0.2904 -0.8849
  324MOL0     C43655   8.171   1.976   3.627 -0.0658 -0.1390 -1.2840
  324MOL0     N43656   7.915   1.314   3.041 -0.0676  0.1453 -0.3603
  324MOL0     N43657   7.933   1.212   2.960 -1.0603  0.2385 -0.0957
  324MOL0     C43658   7.659   0.672   3.709  0.4358  0.2132 -0.5499
  324MOL0     C43659   7.593   0.729   3.816 -0.6733 -0.4055 -1.3266
  324MOL0     C43660   7.485   0.800   4.253  0.5152  0.4005  0.7374
  324MOL0     C43661   7.352   0.756   4.261 -0.0387  1.0897  0.2211
  324MOL0     C43662   7.275   0.763   4.379 -0.6690  0.5340 -0.4652
  324MOL0     C43663   7.340   0.799   4.500 -0.6452  0.1505  0.6834
  324MOL0     O43664   7.273   0.802   4.619  1.1398 -0.3166  0.9572
  324MOL0     C43665   7.131   0.801   4.634 -0.4778 -0.5902  0.4541
  324MOL0     C43666   7.068   0.937   4.578 -0.0218  0.6443 -0.8181
  324MOL0     C43667   7.140   1.073   4.613 -0.1640  0.0709 -1.0238
  324MOL0     C43668   7.043   1.194   4.602 -0.0773 -0.2417 -0.3092
  324MOL0     C43669   7.104   1.329   4.628  1.3697  0.6897 -0.3230
  324MOL0     C43670   7.164   1.430   4.646  0.2851  0.8581  0.4183
  324MOL0     C43671   7.479   0.833   4.489 -1.1597  1.1300  0.0127
  324MOL0     C43672   7.553   0.828   4.375  1.1858  0.5122  0.0948
  324MOL0     H43673   7.623   0.477   4.044  0.1243 -0.2726 -0.5389
  324MOL0     H43674   7.688   0.365   3.849 -0.7780  0.8266  0.1181
  324MOL0     H43675   7.810   0.487   3.414 -0.4712 -0.4449  0.0484
  324MOL0     H43676   7.729   0.623   3.462  1.5946  0.1773 -0.0487
  324MOL0     H43677   7.922   0.721   3.564  1.4100  0.1673 -0.4986
  324MOL0     H43678   8.013   0.570   3.592  3.1200  2.6723 -1.7787
  324MOL0     H43679   8.115   0.663   3.401  0.2500 -1.3920  0.2012
  324MOL0     H43680   8.021   0.546   3.319  2.3044  1.4743 -2.1285
  324MOL0     H43681   7.836   0.715   3.294  0.9563 -2.0155 -3.6434
  324MOL0     H43682   7.938   0.842   3.352 -0.3365 -0.2098 -0.5847
  324MOL0     H43683   8.097   0.815   3.169  0.7039 -0.1218 -2.6932
  324MOL0     H43684   8.017   0.664   3.138  1.1401 -0.4547  1.7084
  324MOL0     H43685   7.825   0.783   3.029 -0.1509  1.6524 -2.9198
  324MOL0     H43686   7.854   0.932   3.107 -0.5177 -0.8479  2.2799
  324MOL0     H43687   8.047   0.800   2.909 -1.9348 -1.3924 -1.3144
  324MOL0     H43688   7.912   0.925   2.857 -1.4372  0.6317  1.3421
  324MOL0     H43689   8.101   1.041   2.853 -1.6982  0.8197 -0.0788
  324MOL0     H43690   8.164   0.958   2.998  0.4810  0.2520  1.0211
  324MOL0     H43691   8.102   1.109   3.208 -3.4280 -2.1619  0.2171
  324MOL0     H43692   7.874   1.395   3.307  1.2605  0.1886  0.2936
  324MOL0     H43693   8.028   1.311   3.358  3.3408  0.5800  0.3936
  324MOL0     H43694   8.005   1.557   3.170 -0.7818  0.7184  1.1624
  324MOL0     H43695   8.159   1.494   3.237 -0.4924 -0.9606 -0.8295
  324MOL0     H43696   8.038   1.560   3.466 -0.8424  0.7246  1.2617
  324MOL0     H43697   7.904   1.618   3.368 -0.6138 -1.3406 -2.2384
  324MOL0     H43698   8.021   1.794   3.308  2.2703 -0.3923 -3.2867
  324MOL0     H43699   8.190   1.725   3.308 -1.3116 -0.1224 -3.6096
  324MOL0     H43700   8.236   1.944   3.302 -0.6333 -1.8223  0.5068
  324MOL0     H43701   8.413   2.102   3.225  3.4897  1.1442  1.4124
  324MOL0     H43702   8.278   2.227   3.245 -0.1312  0.9493  0.4995
  324MOL0     H43703   8.440   2.236   3.320 -1.0829 -0.0198  1.1554
  324MOL0     H43704   8.144   2.549   3.625 -3.0072  0.3242  5.1656
  324MOL0     H43705   8.166   2.787   3.667 -1.0612 -2.0880 -2.0219
  324MOL0     H43706   8.570   2.925   3.817  0.1872  2.3952 -1.5550
  324MOL0     H43707   8.491   3.066   3.828  0.7703 -0.7797 -2.6783
  324MOL0     H43708   8.465   2.846   4.042  0.7583 -0.0879  0.0747
  324MOL0     H43709   8.536   3.007   4.074 -0.7961  1.8695 -0.2522
  324MOL0     H43710   8.257   2.953   4.011 -1.8732  0.2674  1.3770
  324MOL0     H43711   8.306   3.105   3.970 -1.6922 -0.2720 -0.6834
  324MOL0     H43712   8.298   2.960   4.247  2.2079 -1.0983 -1.8936
  324MOL0     H43713   8.405   3.115   4.223  0.0649  0.4107 -1.6624
  324MOL0     H43714   8.101   3.071   4.198 -2.2488  1.8985  1.0082
  324MOL0     H43715   8.181   3.221   4.160  2.0006 -0.1656  0.7348
  324MOL0     H43716   8.166   3.058   4.424  2.1280 -1.0357 -0.7732
  324MOL0     H43717   8.271   3.199   4.410 -4.2368  3.7403  4.3996
  324MOL0     H43718   7.988   3.164   4.466 -0.3658  0.2938 -1.1633
  324MOL0     H43719   8.006   3.302   4.356 -0.3007 -0.8950 -2.3017
  324MOL0     H43720   8.002   3.371   4.585 -0.7304 -1.8769  2.3107
  324MOL0     H43721   8.152   3.421   4.492 -1.5729 -1.9550 -3.8488
  324MOL0     H43722   8.554   2.708   3.856  1.1476  0.2147 -1.9050
  324MOL0     H43723   8.517   2.480   3.840 -1.5402 -2.4444 -0.0077
  324MOL0     H43724   8.213   2.148   3.752 -0.0304 -3.1326  0.6007
  324MOL0     H43725   8.143   1.909   3.707 -2.0342 -0.0576 -1.8443
  324MOL0     H43726   7.663   0.737   3.622 -1.2000  0.5746 -0.3842
  324MOL0     H43727   7.551   0.829   3.812  0.8550  0.2411 -2.6143
  324MOL0     H43728   7.303   0.714   4.174 -0.1584  2.1362 -0.2298
  324MOL0     H43729   7.169   0.738   4.382 -0.7997  1.1976  0.7791
  324MOL0     H43730   7.080   0.724   4.575 -0.9684 -0.1745  0.3289
  324MOL0     H43731   7.106   0.789   4.740  0.8312 -0.1610  0.8273
  324MOL0     H43732   6.970   0.949   4.625  0.9747 -0.1620  1.6056
  324MOL0     H43733   7.058   0.928   4.470 -1.0522  1.5597 -0.8132
  324MOL0     H43734   7.221   1.090   4.542  0.0805  2.4945 -0.2640
  324MOL0     H43735   7.169   1.069   4.719 -2.1453  3.0400 -0.2464
  324MOL0     H43736   6.956   1.184   4.668  1.5697 -2.6858  1.6511
  324MOL0     H43737   7.008   1.190   4.498 -2.2226 -1.9231  0.4048
  324MOL0     H43738   7.204   1.528   4.662  0.4209  0.7498  0.7560
  324MOL0     H43739   7.529   0.870   4.578 -0.7727  1.3003 -0.2725
  324MOL0     H43740   7.651   0.874   4.366  0.5905  1.7462 -0.3322
  325MOL0     O43741   6.726  10.624   5.636 -0.6529 -0.2717  0.1658
  325MOL0     C43742   6.704  10.582   5.526  0.0687 -0.0592  0.3918
  325MOL0     O43743   6.771  10.482   5.470 -0.0053  0.3394  0.3974
  325MOL0     C43744   6.898  10.437   5.486  1.0552 -0.4000  0.0262
  325MOL0     C43745   6.922  10.316   5.433  0.0076 -0.2218 -0.4564
  325MOL0     C43746   7.050  10.261   5.457 -0.8361  1.3532 -0.1827
  325MOL0     C43747   7.144  10.314   5.546  0.7175 -0.9625 -0.3097
  325MOL0     O43748   7.263  10.248   5.571  0.6877 -0.1221 -0.2672
  325MOL0     C43749   7.359  10.311   5.656  1.2003 -1.3829  1.0795
  325MOL0     C43750   7.473  10.217   5.677 -0.7467 -0.9910 -0.6052
  325MOL0     C43751   7.445  10.122   5.785  0.2077  0.9360  0.7996
  325MOL0     C43752   7.529  10.000   5.795 -1.0514 -1.3279  0.3129
  325MOL0     C43753   7.532   9.940   5.932 -0.5380  0.1200  0.5532
  325MOL0     C43754   7.403   9.857   5.946 -0.1821  0.3620  0.5576
  325MOL0     C43755   7.409   9.766   6.066  0.2541 -0.3553  0.7008
  325MOL0     C43756   7.435   9.834   6.204  0.1285  0.7277  0.2424
  325MOL0     N43757   7.439   9.747   6.326  0.1964  0.0898  0.4344
  325MOL0     C43758   7.417   9.794   6.452 -0.9270 -0.4757  1.0708
  325MOL0     C43759   7.413   9.680   6.526 -0.3281 -0.6420  0.5323
  325MOL0     C43760   7.389   9.698   6.672  0.3259 -0.5103  0.5468
  325MOL0     C43761   7.269   9.633   6.730 -0.0943 -0.0778 -0.1940
  325MOL0     C43762   7.288   9.488   6.777  0.0454  0.2857  1.1055
  325MOL0     C43763   7.360   9.471   6.913 -0.4147 -0.0928 -1.1235
  325MOL0     O43764   7.288   9.536   7.013 -0.4390 -1.0902  0.5751
  325MOL0     C43765   7.367   9.582   7.118  0.3305 -0.0809  0.4540
  325MOL0     C43766   7.326   9.688   7.179 -0.1216 -0.7001 -0.3563
  325MOL0     C43767   7.400   9.767   7.274 -0.6410 -0.1958 -0.0163
  325MOL0     C43768   7.347   9.908   7.299 -0.3365 -0.0340  0.1576
  325MOL0     C43769   7.528   9.704   7.314  0.0545 -0.3524  0.2237
  325MOL0     C43770   7.616   9.772   7.424  0.6568  0.0648  1.1597
  325MOL0     O43771   7.721   9.698   7.470  0.0193 -0.9064  0.8580
  325MOL0     C43772   7.775   9.717   7.594 -0.4282  0.4426  0.3002
  325MOL0     C43773   7.912   9.715   7.611 -0.1630 -0.2792 -0.6093
  325MOL0     C43774   7.965   9.740   7.735 -0.3053 -0.1957  0.3906
  325MOL0     C43775   7.879   9.756   7.841  0.2866  0.5458  0.0987
  325MOL0     O43776   7.937   9.777   7.961  0.0770  0.2241 -0.2781
  325MOL0     C43777   8.016   9.660   7.998  0.2690 -1.2256  0.9502
  325MOL0     C43778   8.000   9.634   8.150 -0.2255  0.0148  0.3283
  325MOL0     C43779   8.068   9.511   8.196 -0.7618 -0.8966  0.6752
  325MOL0     C43780   8.216   9.502   8.152 -0.0508  1.2345  0.0163
  325MOL0     C43781   8.293   9.373   8.209  0.0421  0.2416  0.8379
  325MOL0     C43782   8.276   9.354   8.359 -0.9657 -0.2759  0.2806
  325MOL0     C43783   8.369   9.233   8.405 -0.4465 -0.3384 -0.5546
  325MOL0     C43784   8.332   9.090   8.381 -0.3446 -0.7971  0.0661
  325MOL0    Cl43785   8.444   8.982   8.480 -0.2867 -0.0941  0.2952
  325MOL0     C43786   7.744   9.766   7.818 -0.2782 -0.7136 -0.3545
  325MOL0     C43787   7.689   9.737   7.702  0.0371 -1.0817 -0.1797
  325MOL0     O43788   7.589   9.886   7.465  0.0251 -0.6965  0.3023
  325MOL0     C43789   7.571   9.596   7.245 -1.0593  0.1430  0.2802
  325MOL0     C43790   7.494   9.529   7.148 -0.2872  0.3316 -1.0216
  325MOL0     N43791   7.441   9.569   6.453 -0.2137  0.0105  0.3723
  325MOL0     N43792   7.470   9.615   6.335 -0.2439  0.3250 -0.2114
  325MOL0     C43793   7.116  10.439   5.599  0.5611  0.0618 -0.7628
  325MOL0     C43794   6.994  10.498   5.563 -0.1757  0.2346  0.4662
  325MOL0     C43795   6.587  10.635   5.455 -1.2194 -0.4581  0.5171
  325MOL0     C43796   6.560  10.583   5.331 -0.1493 -0.1065 -0.1900
  325MOL0     C43797   6.454  10.631   5.254 -0.3559  0.4855 -0.9136
  325MOL0     C43798   6.382  10.744   5.288 -0.9971 -0.3687 -0.2640
  325MOL0     O43799   6.277  10.787   5.215  0.3626  0.2195  0.0717
  325MOL0     C43800   6.159  10.827   5.280  0.6233 -0.2257 -0.1036
  325MOL0     C43801   6.045  10.723   5.250  0.5846  0.4937  1.1810
  325MOL0     C43802   6.074  10.584   5.300  0.6995  0.0995 -0.7802
  325MOL0     C43803   6.052  10.464   5.196 -0.4379  0.7635  0.1410
  325MOL0     C43804   6.142  10.465   5.080  0.3191 -0.1824 -0.3533
  325MOL0     C43805   6.230  10.491   4.990 -0.0839 -0.0204 -0.5549
  325MOL0     C43806   6.418  10.801   5.412 -0.6286 -0.1507  0.0982
  325MOL0     C43807   6.515  10.746   5.504 -0.2108 -0.1983  0.6549
  325MOL0     H43808   6.841  10.271   5.377  0.2307 -0.3515 -0.6770
  325MOL0     H43809   7.074  10.171   5.402 -1.1754  0.7836  0.5885
  325MOL0     H43810   7.393  10.409   5.620  0.5337 -1.8245 -0.8695
  325MOL0     H43811   7.308  10.326   5.752  0.8167  2.4388  0.4338
  325MOL0     H43812   7.515  10.169   5.588 -2.5009 -0.3082 -1.8686
  325MOL0     H43813   7.551  10.278   5.724 -1.8914  0.0531  0.0224
  325MOL0     H43814   7.448  10.183   5.876  2.1725  1.5312  0.3852
  325MOL0     H43815   7.343  10.082   5.780  1.6013 -2.9899  0.9235
  325MOL0     H43816   7.504   9.931   5.714  0.4558 -0.8111 -0.6508
  325MOL0     H43817   7.628  10.035   5.761  0.0801 -2.7799  1.9619
  325MOL0     H43818   7.619   9.875   5.945  0.7001  1.9602  2.2390
  325MOL0     H43819   7.538  10.021   6.005 -3.9119  1.8241 -0.8551
  325MOL0     H43820   7.319   9.925   5.966 -2.4978 -2.1575  0.0698
  325MOL0     H43821   7.381   9.799   5.855 -2.3506  2.3918 -0.3229
  325MOL0     H43822   7.313   9.715   6.070 -0.5586  0.6507 -2.9589
  325MOL0     H43823   7.481   9.684   6.074 -1.8527 -2.0973  5.1457
  325MOL0     H43824   7.340   9.888   6.211 -2.8600 -3.6965 -1.5230
  325MOL0     H43825   7.525   9.895   6.204  1.1605 -0.7017 -1.5958
  325MOL0     H43826   7.396   9.897   6.483  0.8007 -1.1200  5.0319
  325MOL0     H43827   7.478   9.673   6.732  0.2882 -0.5825  0.5743
  325MOL0     H43828   7.377   9.805   6.685 -3.2778 -1.0326  2.8885
  325MOL0     H43829   7.178   9.630   6.669 -0.6418  0.3981  0.5803
  325MOL0     H43830   7.238   9.687   6.820 -1.0622 -0.7644 -0.0946
  325MOL0     H43831   7.329   9.438   6.689 -2.3908  3.1635 -1.9693
  325MOL0     H43832   7.197   9.427   6.786 -0.7890  0.5198 -3.4262
  325MOL0     H43833   7.460   9.515   6.907  0.8595 -2.7628 -0.9296
  325MOL0     H43834   7.375   9.365   6.934 -0.7191  0.1366  0.3303
  325MOL0     H43835   7.237   9.734   7.136 -0.8259 -1.4149  0.2957
  325MOL0     H43836   7.308   9.916   7.401 -1.6212 -1.2625 -0.2067
  325MOL0     H43837   7.430   9.980   7.296 -0.8792  0.6029  0.1177
  325MOL0     H43838   7.269   9.937   7.227  1.5827 -3.3060 -3.6239
  325MOL0     H43839   7.977   9.700   7.525  3.2428 -4.7003  2.2826
  325MOL0     H43840   8.072   9.752   7.748  0.1300  0.2142 -2.8575
  325MOL0     H43841   7.995   9.572   7.938 -0.1520  0.3329 -1.3090
  325MOL0     H43842   8.118   9.692   7.973 -0.0687 -1.8886 -1.5371
  325MOL0     H43843   8.027   9.724   8.206  2.2163 -1.3054  1.4399
  325MOL0     H43844   7.898   9.609   8.182 -0.5627  1.8672  0.8068
  325MOL0     H43845   8.007   9.429   8.157 -0.9279 -0.3142 -0.3286
  325MOL0     H43846   8.064   9.504   8.306 -1.7280  0.0852  0.7223
  325MOL0     H43847   8.225   9.494   8.043  1.2318 -2.0187  0.2633
  325MOL0     H43848   8.259   9.598   8.181  1.8366  0.6453 -0.6540
  325MOL0     H43849   8.399   9.392   8.190  0.3105 -0.8296  1.2430
  325MOL0     H43850   8.261   9.286   8.151 -2.0636  1.1804  0.5012
  325MOL0     H43851   8.318   9.437   8.415  0.3875 -0.8852  0.1962
  325MOL0     H43852   8.171   9.339   8.386 -1.2595 -1.2861 -1.2992
  325MOL0     H43853   8.382   9.244   8.513 -1.1019  0.2721 -0.5290
  325MOL0     H43854   8.470   9.244   8.364 -0.5732 -2.0667 -1.4384
  325MOL0     H43855   8.333   9.074   8.273 -2.0363  1.6249 -0.3807
  325MOL0     H43856   8.231   9.065   8.413 -0.7904  0.2157 -0.5199
  325MOL0     H43857   7.675   9.789   7.899 -0.3589  3.2402 -1.3055
  325MOL0     H43858   7.581   9.729   7.690  0.3137 -3.6213 -1.7636
  325MOL0     H43859   7.671   9.562   7.272  0.6622  4.6257  0.5249
  325MOL0     H43860   7.531   9.446   7.087  1.6770  0.5217 -0.1620
  325MOL0     H43861   7.194  10.496   5.649  2.2362 -1.1635 -1.8572
  325MOL0     H43862   6.972  10.596   5.606  1.4277  0.0699  1.7759
  325MOL0     H43863   6.616  10.504   5.283 -0.8822  0.9120 -2.8851
  325MOL0     H43864   6.426  10.581   5.162 -2.0556  1.5661 -1.0235
  325MOL0     H43865   6.177  10.815   5.387 -1.5906  0.2218  0.3711
  325MOL0     H43866   6.139  10.928   5.243  0.5442 -0.7196 -1.4827
  325MOL0     H43867   6.020  10.730   5.143  0.6839  2.5012  1.2519
  325MOL0     H43868   5.953  10.745   5.305 -0.1599  0.7607 -0.1053
  325MOL0     H43869   6.002  10.580   5.381 -0.7643  2.5447 -1.8361
  325MOL0     H43870   6.175  10.574   5.341  1.6653  0.5360 -2.8869
  325MOL0     H43871   5.952  10.478   5.154 -0.6236  1.7341  0.8770
  325MOL0     H43872   6.076  10.373   5.252  5.9111  0.4159 -2.3587
  325MOL0     H43873   6.300  10.484   4.909 -1.3007  3.3534 -2.0890
  325MOL0     H43874   6.359  10.883   5.452 -0.2374  0.0201  0.3295
  325MOL0     H43875   6.540  10.785   5.602 -1.2134  1.9071  0.1354
  326MOL0     O43876   3.889   3.325   3.158 -0.0367 -0.1944  0.8322
  326MOL0     C43877   3.997   3.266   3.172 -0.2554  0.2461  0.3631
  326MOL0     O43878   4.013   3.136   3.159  0.3833  0.3860 -0.2333
  326MOL0     C43879   3.894   3.066   3.162 -0.0602 -0.6391 -0.6820
  326MOL0     C43880   3.824   3.053   3.047 -0.1422 -0.4567 -0.5292
  326MOL0     C43881   3.712   2.976   3.035  0.8958 -0.2825 -0.3089
  326MOL0     C43882   3.671   2.901   3.149  0.3333 -0.5562 -0.9960
  326MOL0     O43883   3.552   2.835   3.142  0.5407 -0.9254  0.2450
  326MOL0     C43884   3.570   2.696   3.170  0.4032 -0.0994  0.3693
  326MOL0     C43885   3.585   2.622   3.031  0.0206 -0.6364 -0.2856
  326MOL0     C43886   3.574   2.468   3.032  0.3610 -0.3971 -0.5436
  326MOL0     C43887   3.537   2.427   2.895 -0.1730  0.4830  0.4399
  326MOL0     C43888   3.492   2.281   2.890  0.2810 -0.6503  0.0136
  326MOL0     C43889   3.457   2.249   2.739 -0.0177 -0.7987  0.1072
  326MOL0     C43890   3.411   2.105   2.718  0.5776  0.6417 -0.9891
  326MOL0     C43891   3.319   2.051   2.835  0.0348 -0.2991 -0.0906
  326MOL0     N43892   3.249   1.930   2.800  0.1418  0.1669  0.3674
  326MOL0     C43893   3.314   1.815   2.782 -0.0223 -0.5727 -0.2052
  326MOL0     C43894   3.214   1.724   2.760  0.1406  0.0745 -0.2861
  326MOL0     C43895   3.235   1.571   2.727 -0.3349  0.4300 -0.4045
  326MOL0     C43896   3.103   1.488   2.737 -0.1657 -0.0369 -0.5694
  326MOL0     C43897   3.004   1.496   2.855  0.3896  0.0983 -0.1374
  326MOL0     C43898   2.885   1.400   2.828  0.1270 -0.2653 -0.3936
  326MOL0     O43899   2.933   1.271   2.880 -0.0590 -0.3341  0.3601
  326MOL0     C43900   2.861   1.175   2.924 -0.1618  0.3379  0.1703
  326MOL0     C43901   2.748   1.191   3.009 -1.5289 -0.7837  0.3246
  326MOL0     C43902   2.681   1.079   3.054  0.2334  0.1963 -0.8750
  326MOL0     C43903   2.542   1.095   3.114 -0.4888  0.0135  0.0108
  326MOL0     C43904   2.733   0.948   3.029 -0.3652 -0.3267  0.4061
  326MOL0     C43905   2.677   0.815   3.077 -0.5438  0.1581 -0.5412
  326MOL0     O43906   2.732   0.697   3.031 -0.4244  0.0974  0.0854
  326MOL0     C43907   2.717   0.580   3.106  0.5282 -0.7458  1.8284
  326MOL0     C43908   2.760   0.470   3.032  0.3391 -0.1928 -0.2198
  326MOL0     C43909   2.719   0.344   3.066  0.5772 -0.9136  0.9179
  326MOL0     C43910   2.679   0.316   3.197 -0.7577  0.8783 -0.8195
  326MOL0     O43911   2.633   0.193   3.239 -0.3251 -0.1294  0.1937
  326MOL0     C43912   2.673   0.078   3.154  0.1925 -0.3294  0.1292
  326MOL0     C43913   2.642  -0.052   3.228 -0.3969 -0.4818 -0.0633
  326MOL0     C43914   2.717  -0.050   3.368  0.2808  0.5289  1.2121
  326MOL0     C43915   2.613  -0.045   3.481 -0.7117  0.5584 -0.4916
  326MOL0     C43916   2.657   0.035   3.604 -1.4475 -0.3772  0.3771
  326MOL0     C43917   2.538   0.063   3.702 -0.3005 -0.4618  0.2232
  326MOL0     C43918   2.582   0.125   3.842  0.0180  0.4989  0.7483
  326MOL0     C43919   2.643   0.015   3.929 -0.1242  1.1935  0.0502
  326MOL0    Cl43920   2.665   0.099   4.094  0.0853  0.0958 -0.0878
  326MOL0     C43921   2.662   0.425   3.287 -0.2957  0.6226  0.5134
  326MOL0     C43922   2.687   0.557   3.240  0.5276  0.2353 -0.4926
  326MOL0     O43923   2.585   0.821   3.159  0.4224  0.1014 -0.2202
  326MOL0     C43924   2.844   0.938   2.954 -0.9417  0.6553  0.7366
  326MOL0     C43925   2.912   1.049   2.899  0.5899  1.1962 -0.7093
  326MOL0     N43926   3.094   1.792   2.752 -0.0085  1.0061  0.3372
  326MOL0     N43927   3.112   1.917   2.781 -0.5141  0.1158 -0.9174
  326MOL0     C43928   3.743   2.910   3.274 -0.7942 -0.0310  0.8612
  326MOL0     C43929   3.861   2.997   3.274  0.0645  0.2091  0.0727
  326MOL0     C43930   4.112   3.347   3.209  0.1861  0.1181  0.7528
  326MOL0     C43931   4.240   3.286   3.238  0.0247 -0.1203  0.9535
  326MOL0     C43932   4.344   3.373   3.273 -0.7016 -0.5666 -0.8556
  326MOL0     C43933   4.311   3.504   3.330 -0.3925  0.6548  0.2606
  326MOL0     O43934   4.425   3.562   3.384 -0.5097 -0.1578  0.1087
  326MOL0     C43935   4.489   3.490   3.495 -0.5315  0.5287 -0.2567
  326MOL0     C43936   4.604   3.582   3.548 -0.3071 -0.3029  0.1566
  326MOL0     C43937   4.734   3.590   3.472 -0.7435  0.0551  0.9176
  326MOL0     C43938   4.822   3.707   3.504  0.9291 -0.5046  0.1484
  326MOL0     C43939   4.928   3.729   3.406 -0.8785  0.3121  0.2821
  326MOL0     C43940   5.034   3.730   3.352  0.3515  0.2832 -0.4094
  326MOL0     C43941   4.198   3.564   3.295  0.5427 -0.0576  0.1035
  326MOL0     C43942   4.092   3.488   3.239  0.3014 -0.4285 -1.0849
  326MOL0     H43943   3.854   3.092   2.950  2.1042 -2.2982 -0.6666
  326MOL0     H43944   3.656   2.969   2.942  0.0516  1.1743  0.0734
  326MOL0     H43945   3.641   2.668   3.249  0.0100 -3.0039 -0.1980
  326MOL0     H43946   3.469   2.674   3.206 -0.1694  1.4989 -0.1614
  326MOL0     H43947   3.525   2.671   2.954  2.0398 -0.3966 -1.7994
  326MOL0     H43948   3.691   2.649   3.018 -0.5631  1.4620 -1.2224
  326MOL0     H43949   3.676   2.430   3.049  1.9988  2.3052 -3.3512
  326MOL0     H43950   3.507   2.430   3.109  2.0945 -2.5835 -0.0225
  326MOL0     H43951   3.460   2.492   2.852 -1.1192 -0.5625  0.5132
  326MOL0     H43952   3.625   2.436   2.830  1.3298 -1.6265  2.0364
  326MOL0     H43953   3.567   2.207   2.917 -0.2294 -0.7900  1.0887
  326MOL0     H43954   3.408   2.269   2.959 -0.2258 -0.9851 -0.6572
  326MOL0     H43955   3.379   2.317   2.703  1.0936  0.3771 -0.1434
  326MOL0     H43956   3.541   2.258   2.671  0.2386  1.8331  0.6757
  326MOL0     H43957   3.349   2.101   2.628 -0.6005  0.1243 -0.1779
  326MOL0     H43958   3.493   2.033   2.725 -1.3974 -1.6098  1.2097
  326MOL0     H43959   3.251   2.130   2.871 -0.4459 -1.8292  2.6360
  326MOL0     H43960   3.374   2.040   2.929 -1.7376  1.5007  1.2317
  326MOL0     H43961   3.421   1.799   2.793  0.1815 -0.9059 -2.2434
  326MOL0     H43962   3.286   1.551   2.632  1.5294 -1.7430  0.9650
  326MOL0     H43963   3.294   1.523   2.805 -2.4027 -2.0173 -0.2382
  326MOL0     H43964   3.130   1.384   2.719 -0.1237 -0.9178  3.5990
  326MOL0     H43965   3.043   1.524   2.653 -0.2739  1.8074  0.2546
  326MOL0     H43966   2.961   1.596   2.867 -0.8383 -0.6383  2.3509
  326MOL0     H43967   3.061   1.460   2.941 -0.3474  0.5596  0.5562
  326MOL0     H43968   2.863   1.411   2.721  1.6694 -0.1595 -0.7265
  326MOL0     H43969   2.804   1.440   2.889  2.9211  1.3162  2.6085
  326MOL0     H43970   2.706   1.288   3.033  0.8064  0.1612  0.8222
  326MOL0     H43971   2.475   1.027   3.061  0.7935 -3.0190  2.0087
  326MOL0     H43972   2.541   1.069   3.221  2.6289 -1.9543 -0.2980
  326MOL0     H43973   2.505   1.198   3.110  0.4658  0.6572  3.5346
  326MOL0     H43974   2.807   0.488   2.936 -1.0621 -1.6006 -1.2167
  326MOL0     H43975   2.726   0.261   2.996  3.0142 -0.7225  0.8708
  326MOL0     H43976   2.612   0.086   3.063  2.0088  0.4881 -1.0567
  326MOL0     H43977   2.771   0.102   3.114 -0.1624  1.3975  0.2413
  326MOL0     H43978   2.534  -0.056   3.237 -0.5404 -2.5508 -2.0411
  326MOL0     H43979   2.669  -0.140   3.170  1.9564 -0.2590  0.5587
  326MOL0     H43980   2.792   0.030   3.371 -0.7170  1.5685 -0.4375
  326MOL0     H43981   2.770  -0.146   3.372 -0.0859  0.1981 -0.9194
  326MOL0     H43982   2.523   0.005   3.445 -1.6370 -0.9437 -0.3568
  326MOL0     H43983   2.583  -0.143   3.519 -0.4943  1.5586  2.4718
  326MOL0     H43984   2.700   0.133   3.582 -1.2977 -0.6616 -0.6205
  326MOL0     H43985   2.748  -0.013   3.642  0.6477  2.5303 -0.5910
  326MOL0     H43986   2.461   0.116   3.646 -0.7185 -1.4856 -0.2126
  326MOL0     H43987   2.491  -0.036   3.711 -2.8750  0.3563 -2.6261
  326MOL0     H43988   2.489   0.162   3.887 -0.5749  0.7443 -0.6205
  326MOL0     H43989   2.659   0.202   3.837 -0.6237  1.4475  3.6238
  326MOL0     H43990   2.740  -0.016   3.889 -0.7685 -0.2393 -0.4821
  326MOL0     H43991   2.572  -0.069   3.938 -1.0420  1.7777 -1.3741
  326MOL0     H43992   2.640   0.413   3.392  1.0333 -0.0883  0.7316
  326MOL0     H43993   2.681   0.642   3.308  0.3861 -0.6279  0.6065
  326MOL0     H43994   2.877   0.838   2.928 -1.0578  0.9061 -0.4378
  326MOL0     H43995   3.001   1.040   2.839 -0.2155 -1.1107 -1.6823
  326MOL0     H43996   3.721   2.867   3.371  3.1692  1.1925  2.5102
  326MOL0     H43997   3.906   2.983   3.371 -1.5021  1.4203  1.0087
  326MOL0     H43998   4.250   3.180   3.216 -0.2004  0.0103  0.1672
  326MOL0     H43999   4.442   3.326   3.275 -1.7760 -3.1065 -2.3036
  326MOL0     H44000   4.422   3.462   3.577 -0.2956  2.8820  0.8198
  326MOL0     H44001   4.539   3.402   3.454 -1.6126 -1.0921  1.7133
  326MOL0     H44002   4.627   3.551   3.650  3.5774  1.6468  0.0537
  326MOL0     H44003   4.564   3.683   3.553  3.2935  1.2026  2.2099
  326MOL0     H44004   4.702   3.597   3.368  1.6823 -0.2076  0.0806
  326MOL0     H44005   4.796   3.500   3.475 -0.6803  0.1076  1.2163
  326MOL0     H44006   4.853   3.696   3.609 -0.8574  3.3179  1.2431
  326MOL0     H44007   4.763   3.799   3.507  1.8269  0.1968 -2.1267
  326MOL0     H44008   5.121   3.717   3.291 -0.1864 -0.2231 -1.0845
  326MOL0     H44009   4.179   3.663   3.337 -4.3670 -0.8521  0.3177
  326MOL0     H44010   3.994   3.533   3.230  0.5640  0.0379 -1.7385
  327MOL0     O44011  11.018   4.723   2.659 -0.0150 -0.7698  0.1696
  327MOL0     C44012  10.933   4.804   2.700  0.6097 -0.4867 -0.1034
  327MOL0     O44013  10.945   4.942   2.692 -0.3858  0.5261  0.2793
  327MOL0     C44014  11.064   4.985   2.634  0.2962  0.8234 -0.7673
  327MOL0     C44015  11.077   4.990   2.495  0.2048  0.9256  0.4674
  327MOL0     C44016  11.202   5.018   2.432  0.4434  0.4821  0.5498
  327MOL0     C44017  11.313   5.060   2.511  0.3908  0.5554 -0.7419
  327MOL0     O44018  11.437   5.093   2.467  0.0792 -0.5801  0.1134
  327MOL0     C44019  11.427   5.187   2.358 -0.1287 -0.3824  0.7296
  327MOL0     C44020  11.512   5.309   2.402 -0.6664 -1.1837  0.1379
  327MOL0     C44021  11.499   5.415   2.299 -0.0083  0.8383  0.1035
  327MOL0     C44022  11.603   5.529   2.315  0.1845 -0.3412 -0.1262
  327MOL0     C44023  11.747   5.490   2.299 -0.8509 -0.4595  0.1149
  327MOL0     C44024  11.826   5.610   2.248  0.1727 -0.3787 -0.7174
  327MOL0     C44025  11.820   5.618   2.094 -0.1850 -0.2310  0.0916
  327MOL0     C44026  11.920   5.731   2.040 -0.7762  0.0779  1.4757
  327MOL0     N44027  11.883   5.792   1.912 -0.2355  0.0073 -0.3188
  327MOL0     C44028  11.843   5.921   1.896 -0.0083 -1.0219 -0.2944
  327MOL0     C44029  11.860   5.951   1.763 -0.3631  0.5534 -0.4558
  327MOL0     C44030  11.814   6.077   1.689 -0.5817  0.2645 -0.7137
  327MOL0     C44031  11.925   6.186   1.694 -0.8318 -1.0230  0.4263
  327MOL0     C44032  11.900   6.264   1.566 -0.9433 -1.0825  0.2690
  327MOL0     C44033  12.021   6.351   1.545  0.1673 -0.3528 -0.3454
  327MOL0     O44034  12.006   6.461   1.445 -0.2937 -0.5839  0.1042
  327MOL0     C44035  11.982   6.425   1.311 -0.0379 -0.3744  0.5381
  327MOL0     C44036  11.851   6.408   1.271 -0.2907  1.3210  0.1340
  327MOL0     C44037  11.834   6.356   1.140  0.9423  0.3876 -0.3324
  327MOL0     C44038  11.695   6.329   1.093  0.0097 -0.0134 -0.7357
  327MOL0     C44039  11.939   6.336   1.049  0.1040 -0.8122  0.3832
  327MOL0     C44040  11.929   6.283   0.900  0.6470 -0.5807  0.1259
  327MOL0     O44041  12.007   6.350   0.815  0.5343  0.4389 -0.0675
  327MOL0     C44042  12.039   6.323   0.689  0.0101 -1.0366  0.4626
  327MOL0     C44043  11.998   6.208   0.611  0.8605 -0.5569 -0.3774
  327MOL0     C44044  12.051   6.171   0.484  0.1037 -1.0126  0.1864
  327MOL0     C44045  12.129   6.266   0.419  0.1176  1.7257 -0.2191
  327MOL0     O44046  12.191   6.246   0.298  0.0467 -0.2580 -0.4057
  327MOL0     C44047  12.109   6.171   0.203 -0.7547 -0.0034 -0.1378
  327MOL0     C44048  12.160   6.177   0.056  0.8373  0.5426  0.3729
  327MOL0     C44049  12.148   6.327   0.020 -0.2870  0.0249  0.1024
  327MOL0     C44050  12.189   6.353  -0.125  1.1155 -0.7517  0.4561
  327MOL0     C44051  12.314   6.280  -0.174  0.5584  1.0005 -0.0011
  327MOL0     C44052  12.351   6.341  -0.309 -0.1713  0.1558  0.8285
  327MOL0     C44053  12.239   6.327  -0.412 -0.7381 -0.0728 -0.5749
  327MOL0     C44054  12.314   6.311  -0.544 -0.3707  0.9979 -0.5720
  327MOL0    Cl44055  12.369   6.146  -0.590  0.0583  0.3676  0.2550
  327MOL0     C44056  12.172   6.376   0.489  0.5413 -0.1480 -0.8114
  327MOL0     C44057  12.138   6.404   0.624 -1.3823 -0.2865  0.6348
  327MOL0     O44058  11.847   6.200   0.871 -0.4055  0.0716  0.0683
  327MOL0     C44059  12.071   6.361   1.090 -1.4987  0.5235 -0.4636
  327MOL0     C44060  12.091   6.402   1.226  0.5252  0.7051 -0.1067
  327MOL0     N44061  11.906   5.835   1.699 -0.0445 -0.4968  0.3236
  327MOL0     N44062  11.930   5.747   1.790  0.2221  0.0726 -0.7072
  327MOL0     C44063  11.303   5.037   2.653 -0.1512  0.6302  0.7517
  327MOL0     C44064  11.183   4.998   2.717 -0.0198 -0.5473 -0.0134
  327MOL0     C44065  10.812   4.755   2.764  0.1511  0.6865 -0.9961
  327MOL0     C44066  10.793   4.623   2.791  0.5669  0.6654 -0.4463
  327MOL0     C44067  10.671   4.574   2.845 -0.5532  0.6256  0.8707
  327MOL0     C44068  10.567   4.660   2.888 -1.3581  0.6646 -0.9565
  327MOL0     O44069  10.456   4.596   2.935 -0.1226 -0.0399  0.0376
  327MOL0     C44070  10.352   4.669   2.989 -0.0500 -0.0582 -0.6143
  327MOL0     C44071  10.236   4.577   3.012  0.1528  0.0636  0.6292
  327MOL0     C44072  10.185   4.504   2.881 -0.3020 -0.4971 -0.8446
  327MOL0     C44073  10.036   4.470   2.887 -0.4745 -0.3946  0.2149
  327MOL0     C44074   9.958   4.581   2.837 -0.1960 -0.4986 -0.7482
  327MOL0     C44075   9.920   4.690   2.799  0.7753 -0.5487  0.6335
  327MOL0     C44076  10.588   4.798   2.869  0.6334 -0.7222 -0.1428
  327MOL0     C44077  10.712   4.846   2.808  0.2197  0.7610 -0.5896
  327MOL0     H44078  10.988   4.979   2.435 -1.1806  0.4276  2.5065
  327MOL0     H44079  11.208   5.013   2.324 -1.6064  0.5818  0.4054
  327MOL0     H44080  11.450   5.139   2.262 -0.6189 -1.7009  1.2483
  327MOL0     H44081  11.327   5.218   2.328  1.1964  1.9528 -1.7166
  327MOL0     H44082  11.457   5.348   2.488 -3.9220 -2.7365 -1.0734
  327MOL0     H44083  11.616   5.279   2.420 -0.6762 -0.8037  0.8794
  327MOL0     H44084  11.513   5.375   2.198  0.1787 -1.2175  0.8937
  327MOL0     H44085  11.401   5.463   2.307 -0.5950 -0.2365 -0.3993
  327MOL0     H44086  11.568   5.595   2.236 -1.8460  0.7366  1.5869
  327MOL0     H44087  11.586   5.595   2.400  0.3873  1.7146 -1.6028
  327MOL0     H44088  11.783   5.458   2.397 -1.9894 -3.1841 -0.2769
  327MOL0     H44089  11.753   5.411   2.224  1.4325  0.2657 -0.5337
  327MOL0     H44090  11.776   5.697   2.291  3.3243  2.0944 -1.6673
  327MOL0     H44091  11.931   5.598   2.275 -0.5499 -1.1982  2.0227
  327MOL0     H44092  11.852   5.521   2.054  2.8957  0.9756 -0.7067
  327MOL0     H44093  11.727   5.641   2.041  1.7224  0.6118 -3.2376
  327MOL0     H44094  12.022   5.691   2.032 -1.8206 -2.3443 -2.2411
  327MOL0     H44095  11.918   5.817   2.108 -3.4180  1.8470 -0.5961
  327MOL0     H44096  11.808   5.981   1.979  0.8882  1.7514 -1.7887
  327MOL0     H44097  11.796   6.031   1.591 -1.1036 -0.7095 -0.1724
  327MOL0     H44098  11.714   6.101   1.727 -0.4108  0.2997 -0.2822
  327MOL0     H44099  12.028   6.148   1.699 -0.3340 -0.0981 -1.7916
  327MOL0     H44100  11.916   6.247   1.785 -0.2761 -0.4926  0.1347
  327MOL0     H44101  11.812   6.328   1.577  0.7528  1.0567  2.6864
  327MOL0     H44102  11.902   6.189   1.486  1.1301  1.0827 -1.8638
  327MOL0     H44103  12.111   6.299   1.508 -0.6697 -1.8601 -0.3208
  327MOL0     H44104  12.034   6.395   1.644 -0.1442 -0.2254 -0.3602
  327MOL0     H44105  11.761   6.423   1.329 -0.1345 -0.2847  0.8353
  327MOL0     H44106  11.674   6.347   0.987  0.6817  0.0055 -0.8729
  327MOL0     H44107  11.662   6.227   1.114  1.1070 -1.0694 -3.5000
  327MOL0     H44108  11.631   6.396   1.151  0.0158 -1.1503  0.6189
  327MOL0     H44109  11.928   6.140   0.659  0.4554  0.4131  0.4553
  327MOL0     H44110  12.021   6.077   0.438 -3.9529  0.1471  0.1391
  327MOL0     H44111  12.104   6.063   0.222 -0.7175 -0.4345 -2.3296
  327MOL0     H44112  12.007   6.207   0.213 -0.3958  0.7934  0.7901
  327MOL0     H44113  12.263   6.140   0.052  0.1154 -1.5797  0.2712
  327MOL0     H44114  12.100   6.109  -0.006  0.3322  1.7849 -0.5304
  327MOL0     H44115  12.225   6.380   0.077 -0.7004  1.9216 -1.0293
  327MOL0     H44116  12.054   6.378   0.041  0.3767  1.5510 -0.4816
  327MOL0     H44117  12.094   6.326  -0.173  0.1359  0.2282  1.7736
  327MOL0     H44118  12.215   6.459  -0.133  1.3542 -0.7915  0.6948
  327MOL0     H44119  12.279   6.179  -0.196  1.6325  0.5137  0.4627
  327MOL0     H44120  12.397   6.285  -0.104 -1.1055  0.5303  2.1047
  327MOL0     H44121  12.407   6.435  -0.310  3.5104 -1.8558 -0.2474
  327MOL0     H44122  12.435   6.278  -0.339 -1.0192 -0.1585 -1.0760
  327MOL0     H44123  12.174   6.415  -0.408  1.4511  1.5584  1.9987
  327MOL0     H44124  12.174   6.242  -0.386  2.0661 -1.9537  0.7854
  327MOL0     H44125  12.393   6.384  -0.562 -0.6256  1.0327 -1.5886
  327MOL0     H44126  12.234   6.345  -0.611  1.2189  3.6027 -1.3025
  327MOL0     H44127  12.246   6.436   0.438  3.1622 -1.1411  1.6190
  327MOL0     H44128  12.175   6.495   0.671 -1.4249  0.2823 -0.3825
  327MOL0     H44129  12.159   6.346   1.028  0.7232  3.0899  1.8068
  327MOL0     H44130  12.191   6.425   1.263  0.9570  0.7807 -1.2706
  327MOL0     H44131  11.390   5.060   2.713  0.0469  0.4845  0.5187
  327MOL0     H44132  11.170   4.989   2.824  3.4297 -0.7107  0.5186
  327MOL0     H44133  10.877   4.555   2.782 -0.3717 -0.4732 -0.9171
  327MOL0     H44134  10.646   4.469   2.858 -0.5408 -0.4431 -5.0841
  327MOL0     H44135  10.372   4.702   3.091 -0.4492 -0.0936 -0.5221
  327MOL0     H44136  10.315   4.751   2.927 -1.5561 -0.1178  0.1723
  327MOL0     H44137  10.162   4.649   3.049 -0.1021  2.8058 -4.4109
  327MOL0     H44138  10.249   4.507   3.095  3.4423 -0.1973  0.0080
  327MOL0     H44139  10.245   4.414   2.871 -1.2775 -1.1190 -1.2328
  327MOL0     H44140  10.204   4.566   2.793  1.6325  0.6522  0.3106
  327MOL0     H44141  10.006   4.435   2.986  0.4598 -0.2394  0.5629
  327MOL0     H44142  10.019   4.384   2.821  1.9786 -0.6005 -0.2670
  327MOL0     H44143   9.883   4.785   2.766  2.1385 -0.8341 -1.9671
  327MOL0     H44144  10.522   4.877   2.903  1.7981  1.2000 -2.0439
  327MOL0     H44145  10.727   4.951   2.784  2.7509  0.8325  0.9551
  328MOL0     O44146   6.437   6.203   4.544  0.0235 -0.2380 -0.1267
  328MOL0     C44147   6.376   6.140   4.633 -0.1154  0.5833  0.1982
  328MOL0     O44148   6.385   6.168   4.773 -0.2709  0.2339  0.5681
  328MOL0     C44149   6.442   6.292   4.798 -0.3657 -1.7171  0.3460
  328MOL0     C44150   6.354   6.398   4.819 -0.0221 -0.3320 -0.7126
  328MOL0     C44151   6.403   6.527   4.858 -0.5404  0.7774 -0.0767
  328MOL0     C44152   6.541   6.533   4.887  0.9929  0.0035 -0.8764
  328MOL0     O44153   6.599   6.642   4.949  0.2364  0.2944 -0.3456
  328MOL0     C44154   6.713   6.709   4.888 -0.1650 -0.1308  0.4225
  328MOL0     C44155   6.658   6.840   4.827  0.9264 -0.2349  0.2701
  328MOL0     C44156   6.580   6.821   4.700 -0.5022 -0.2462  0.6483
  328MOL0     C44157   6.522   6.960   4.664 -0.0978  0.3579  0.1498
  328MOL0     C44158   6.432   6.944   4.542  1.0013 -0.2167  0.0241
  328MOL0     C44159   6.423   7.070   4.463 -0.2045  0.3466  0.2129
  328MOL0     C44160   6.376   7.192   4.546  0.9691 -0.0158  0.6531
  328MOL0     C44161   6.369   7.317   4.454  0.7799 -0.4585 -0.0635
  328MOL0     N44162   6.284   7.413   4.518 -0.0877  0.2546 -1.0789
  328MOL0     C44163   6.147   7.422   4.517  0.3338  0.4014 -0.1548
  328MOL0     C44164   6.127   7.542   4.572 -0.9320 -0.2331  1.0646
  328MOL0     C44165   6.002   7.615   4.596  0.0849  0.1716  0.5915
  328MOL0     C44166   6.011   7.740   4.689 -0.4763 -0.5871  0.5331
  328MOL0     C44167   5.869   7.787   4.722  0.0164  0.1884 -0.2002
  328MOL0     C44168   5.798   7.866   4.618  0.4555 -0.0444  0.1913
  328MOL0     O44169   5.738   7.780   4.515  0.2367 -0.3166 -0.3261
  328MOL0     C44170   5.639   7.834   4.427  0.5501 -0.5933 -0.0349
  328MOL0     C44171   5.620   7.771   4.308  0.1947  0.1041 -0.4510
  328MOL0     C44172   5.525   7.809   4.219  0.2800 -0.5035  0.1738
  328MOL0     C44173   5.503   7.725   4.092 -0.6503 -0.8978  0.1384
  328MOL0     C44174   5.452   7.930   4.251  0.7389  0.6406 -0.5187
  328MOL0     C44175   5.354   7.990   4.159  0.6566 -0.8910 -0.2215
  328MOL0     O44176   5.370   7.988   4.017  0.4684  0.1964 -0.3980
  328MOL0     C44177   5.285   8.068   3.946  1.0552 -0.4663  0.1991
  328MOL0     C44178   5.300   8.212   3.944  0.1000  0.1659 -0.7091
  328MOL0     C44179   5.212   8.285   3.852 -0.2779  0.0292  0.2962
  328MOL0     C44180   5.131   8.212   3.756 -0.5466 -0.6155  0.2198
  328MOL0     O44181   5.060   8.284   3.660  0.4700  0.4679 -0.2618
  328MOL0     C44182   4.960   8.365   3.715  0.2451 -0.1947 -0.1620
  328MOL0     C44183   4.838   8.298   3.649  0.4755 -0.8694 -0.8875
  328MOL0     C44184   4.828   8.315   3.496 -0.2449 -1.0603  0.4337
  328MOL0     C44185   4.916   8.217   3.415 -0.3438  0.3103 -0.2184
  328MOL0     C44186   5.001   8.296   3.317  0.3773 -0.4896 -0.3950
  328MOL0     C44187   4.906   8.337   3.201 -0.3629  0.3481 -0.3321
  328MOL0     C44188   4.992   8.400   3.088  0.8450  0.1547  0.2840
  328MOL0     C44189   4.928   8.419   2.953 -0.1184  0.9752  0.0447
  328MOL0    Cl44190   4.802   8.545   2.945 -0.2642  0.0355 -0.2711
  328MOL0     C44191   5.129   8.075   3.763  0.3047  0.1500  0.8933
  328MOL0     C44192   5.195   8.003   3.863  0.8130  0.0841 -0.2418
  328MOL0     O44193   5.248   8.033   4.212 -0.0027  0.2831  0.7376
  328MOL0     C44194   5.466   7.994   4.379 -0.4345 -0.0356  0.7166
  328MOL0     C44195   5.550   7.941   4.471  0.4561 -0.4552  0.1290
  328MOL0     N44196   6.250   7.601   4.610  0.6013  0.2354  0.1941
  328MOL0     N44197   6.347   7.525   4.585 -0.3779 -0.2084  0.1427
  328MOL0     C44198   6.626   6.426   4.877 -0.0458  0.2464 -0.0942
  328MOL0     C44199   6.579   6.303   4.825  0.7874  1.0048 -0.1954
  328MOL0     C44200   6.298   6.016   4.603  1.1136 -0.3627 -0.2180
  328MOL0     C44201   6.230   6.000   4.478 -0.5546  0.6045 -0.8866
  328MOL0     C44202   6.139   5.897   4.460 -1.4054 -0.2976  0.9758
  328MOL0     C44203   6.115   5.798   4.556  0.2750  0.0915  1.0466
  328MOL0     O44204   6.024   5.698   4.522 -0.1616 -0.0426 -0.0327
  328MOL0     C44205   5.978   5.596   4.612 -0.5706  0.2093  0.1656
  328MOL0     C44206   5.877   5.654   4.720 -0.0666 -0.2604 -0.5663
  328MOL0     C44207   5.899   5.549   4.831  0.9826 -0.0368 -0.6348
  328MOL0     C44208   5.782   5.572   4.945 -1.0379  0.9401 -0.8952
  328MOL0     C44209   5.808   5.689   5.029  0.2163  0.3208  0.3332
  328MOL0     C44210   5.806   5.793   5.097 -0.5974 -0.5503  1.1473
  328MOL0     C44211   6.180   5.808   4.680  0.3866  0.2115 -0.3402
  328MOL0     C44212   6.275   5.913   4.697  0.4299  0.7621  0.5103
  328MOL0     H44213   6.247   6.396   4.800 -0.1467 -0.5693 -0.0159
  328MOL0     H44214   6.341   6.616   4.861  0.0678  1.2272 -0.6914
  328MOL0     H44215   6.776   6.731   4.975 -2.0514 -0.2009  1.8711
  328MOL0     H44216   6.773   6.651   4.818  1.0564  1.2668  0.2530
  328MOL0     H44217   6.579   6.865   4.898  0.3159  1.0462 -0.8258
  328MOL0     H44218   6.730   6.920   4.809  1.4061  0.2736  3.6685
  328MOL0     H44219   6.649   6.788   4.621 -2.0723 -1.1345 -0.4201
  328MOL0     H44220   6.497   6.750   4.705 -0.6161 -0.0767  1.1728
  328MOL0     H44221   6.474   7.012   4.748  0.1979  1.0852 -0.1239
  328MOL0     H44222   6.613   7.012   4.634  0.9935 -2.0918 -1.0303
  328MOL0     H44223   6.456   6.866   4.469  3.1071  3.1629 -3.2851
  328MOL0     H44224   6.338   6.908   4.582  0.8130 -1.4344 -1.4156
  328MOL0     H44225   6.515   7.091   4.407 -0.9531 -1.0614 -1.6808
  328MOL0     H44226   6.354   7.049   4.380 -1.8932 -0.9110  1.8536
  328MOL0     H44227   6.280   7.177   4.596  0.7781  2.8175  1.3577
  328MOL0     H44228   6.431   7.228   4.633 -2.8173  3.4627  1.9853
  328MOL0     H44229   6.323   7.295   4.357 -2.7721  3.6207  0.3709
  328MOL0     H44230   6.468   7.354   4.428  0.2582  1.9173  1.0767
  328MOL0     H44231   6.072   7.364   4.465  1.6722  0.6885 -2.5859
  328MOL0     H44232   5.961   7.653   4.502  4.1297  5.9124  0.6554
  328MOL0     H44233   5.928   7.541   4.629  1.6392 -1.2757  1.0041
  328MOL0     H44234   6.073   7.820   4.647  0.6726 -1.3175  0.8008
  328MOL0     H44235   6.067   7.706   4.777  1.8354 -0.7985 -0.9443
  328MOL0     H44236   5.870   7.845   4.815 -1.4269 -2.2671  1.4551
  328MOL0     H44237   5.809   7.708   4.768 -1.2955 -0.1732 -2.4091
  328MOL0     H44238   5.876   7.928   4.571  2.3900  0.4367  3.7236
  328MOL0     H44239   5.733   7.942   4.663  1.5635  0.9374  0.2001
  328MOL0     H44240   5.682   7.686   4.281 -2.2745 -1.0305 -3.1053
  328MOL0     H44241   5.493   7.782   3.999 -2.3655 -0.2381  0.6806
  328MOL0     H44242   5.590   7.663   4.067  1.5422  1.3995  1.5643
  328MOL0     H44243   5.411   7.667   4.095  1.1959 -4.0395  2.3269
  328MOL0     H44244   5.362   8.262   4.018  3.0171 -0.2997 -2.6322
  328MOL0     H44245   5.196   8.393   3.852 -2.8019 -0.2537 -1.4713
  328MOL0     H44246   4.957   8.366   3.825  1.8055  2.8426 -0.0302
  328MOL0     H44247   4.976   8.468   3.681  2.7017 -0.6442 -0.5261
  328MOL0     H44248   4.829   8.195   3.687  2.2395 -0.6119  0.3771
  328MOL0     H44249   4.753   8.351   3.692 -0.1710 -0.1100 -2.9781
  328MOL0     H44250   4.847   8.421   3.475  0.8484 -1.3712 -0.1949
  328MOL0     H44251   4.725   8.300   3.462 -0.1303  1.6419 -1.4202
  328MOL0     H44252   4.976   8.143   3.469 -3.3640 -2.9665 -0.9449
  328MOL0     H44253   4.860   8.144   3.355  0.8316 -1.2351  0.5062
  328MOL0     H44254   5.070   8.227   3.269  0.3671 -0.7574 -0.0339
  328MOL0     H44255   5.050   8.385   3.358  0.8038 -1.2737  0.8535
  328MOL0     H44256   4.846   8.256   3.159 -0.9591  0.1038  0.9418
  328MOL0     H44257   4.828   8.411   3.221 -2.5665 -1.3776 -2.0520
  328MOL0     H44258   5.081   8.338   3.072  0.4620 -0.3264 -0.0368
  328MOL0     H44259   5.027   8.497   3.123  3.6497 -0.8120  0.3955
  328MOL0     H44260   4.883   8.324   2.923  0.8483  0.5715 -0.1585
  328MOL0     H44261   5.000   8.448   2.876 -2.1035  1.4190 -1.7206
  328MOL0     H44262   5.084   8.031   3.675  1.4256  1.7941 -0.5781
  328MOL0     H44263   5.182   7.895   3.872 -1.0852  0.0001 -2.8961
  328MOL0     H44264   5.414   8.087   4.398  2.2448  2.2653 -2.0143
  328MOL0     H44265   5.560   7.999   4.562  0.9946  0.2890 -0.3890
  328MOL0     H44266   6.731   6.432   4.902  0.8329 -3.7148 -1.9916
  328MOL0     H44267   6.637   6.212   4.829 -0.8989 -0.0782  1.4797
  328MOL0     H44268   6.239   6.070   4.396 -0.1891  0.7338 -0.7378
  328MOL0     H44269   6.103   5.886   4.358  3.0667 -1.4890 -0.7279
  328MOL0     H44270   5.921   5.524   4.553  1.7261 -2.3345  0.8496
  328MOL0     H44271   6.061   5.540   4.657 -1.4607  0.7021  2.5583
  328MOL0     H44272   5.776   5.655   4.679  0.7453  4.8617 -3.1664
  328MOL0     H44273   5.897   5.756   4.755 -0.9065  0.0256 -0.9141
  328MOL0     H44274   6.001   5.556   4.870  1.8690 -3.7609 -1.9493
  328MOL0     H44275   5.894   5.446   4.796 -1.2340 -0.2212  0.0511
  328MOL0     H44276   5.781   5.488   5.016  3.3115  0.2650 -1.3078
  328MOL0     H44277   5.688   5.579   4.891 -2.0449  0.4367  0.7172
  328MOL0     H44278   5.804   5.869   5.172 -0.5027  0.0825  0.5257
  328MOL0     H44279   6.170   5.732   4.756  1.1220 -0.3785 -0.8247
  328MOL0     H44280   6.329   5.927   4.790  0.2589  0.2133  0.6956
  329MOL0     O44281   0.650   0.453   8.984  0.4995 -0.0507 -0.3070
  329MOL0     C44282   0.636   0.328   8.997 -0.1075 -0.0464  1.0428
  329MOL0     O44283   0.729   0.229   8.984 -0.5668 -0.4565 -0.7025
  329MOL0     C44284   0.859   0.252   8.963  0.2400 -0.6561  0.5191
  329MOL0     C44285   0.905   0.354   8.877  0.4002 -1.0574 -0.7166
  329MOL0     C44286   1.042   0.378   8.870 -0.3393  0.1989 -1.1044
  329MOL0     C44287   1.133   0.293   8.950 -0.2524 -0.6893 -0.3902
  329MOL0     O44288   1.266   0.304   8.946  0.0402 -0.4095  0.5395
  329MOL0     C44289   1.324   0.431   8.918  0.6682 -0.2502  0.0576
  329MOL0     C44290   1.475   0.411   8.924  0.5032  0.3959  0.1414
  329MOL0     C44291   1.557   0.520   8.864  0.3770  0.3987  0.2148
  329MOL0     C44292   1.584   0.642   8.958  0.1068 -0.5838 -0.1936
  329MOL0     C44293   1.655   0.757   8.896  0.5044  0.7419  0.2923
  329MOL0     C44294   1.685   0.859   9.012 -0.4793  0.2701 -0.4604
  329MOL0     C44295   1.613   0.991   8.981 -0.5858 -0.6127  0.9553
  329MOL0     C44296   1.467   0.977   9.009 -0.5528 -0.7334 -0.7051
  329MOL0     N44297   1.396   1.096   8.981  0.1058 -0.6280 -0.2811
  329MOL0     C44298   1.297   1.110   8.885  0.5669  0.7721 -0.0784
  329MOL0     C44299   1.238   1.226   8.905 -0.2880  0.5931 -0.2854
  329MOL0     C44300   1.119   1.286   8.839  0.0530  0.1809  0.5839
  329MOL0     C44301   0.999   1.289   8.929  0.5681  0.4771 -0.6819
  329MOL0     C44302   0.940   1.152   8.966  0.2202 -0.4669 -0.2559
  329MOL0     C44303   0.826   1.157   9.054  0.7620 -0.7076  0.1507
  329MOL0     O44304   0.754   1.028   9.045 -0.0010  0.9390 -0.3834
  329MOL0     C44305   0.617   1.030   9.024  0.7822 -1.0971  0.2797
  329MOL0     C44306   0.530   0.956   9.104  0.0538  0.1606 -0.2002
  329MOL0     C44307   0.393   0.958   9.067  0.2012  0.2919 -0.7260
  329MOL0     C44308   0.300   0.867   9.141 -0.6560  0.4031  0.2574
  329MOL0     C44309   0.335   1.036   8.964 -0.6655  0.0002  0.1541
  329MOL0     C44310   0.203   1.014   8.906 -0.2992  0.4277 -0.2114
  329MOL0     O44311   0.097   0.978   8.984  0.4893 -0.7653  0.4442
  329MOL0     C44312  -0.033   0.970   8.928  0.5068 -0.8007  0.0751
  329MOL0     C44313  -0.082   1.063   8.838  0.4657 -0.6748  0.1977
  329MOL0     C44314  -0.220   1.042   8.806 -0.6281 -0.6089  0.4911
  329MOL0     C44315  -0.302   0.949   8.856  0.6155  1.1418  0.3093
  329MOL0     O44316  -0.436   0.938   8.813 -0.3542 -0.2160 -0.4858
  329MOL0     C44317  -0.529   0.843   8.866  0.1056 -0.7096  0.0883
  329MOL0     C44318  -0.600   0.914   8.991 -0.1009  0.1804 -0.6732
  329MOL0     C44319  -0.702   1.026   8.953 -0.5323 -0.4458 -0.0281
  329MOL0     C44320  -0.750   1.082   9.085  0.6167  0.4174 -0.3209
  329MOL0     C44321  -0.837   1.212   9.071  0.0322 -0.3565  0.0618
  329MOL0     C44322  -0.874   1.279   9.207  0.1836  1.3259  0.4147
  329MOL0     C44323  -0.979   1.207   9.288 -0.8844  0.3893 -0.0007
  329MOL0     C44324  -1.033   1.291   9.398  0.4902 -0.1555 -0.5800
  329MOL0    Cl44325  -1.102   1.175   9.532  0.7586 -0.6176 -0.4911
  329MOL0     C44326  -0.247   0.862   8.948 -1.0591 -0.2471  0.0646
  329MOL0     C44327  -0.114   0.865   8.977  0.6593  0.7612 -0.4871
  329MOL0     O44328   0.203   1.026   8.782  0.0901  0.0027 -0.1148
  329MOL0     C44329   0.431   1.113   8.888  0.5965  0.4970  0.0885
  329MOL0     C44330   0.559   1.112   8.926 -0.8196  0.1464  0.4507
  329MOL0     N44331   1.316   1.289   8.999  0.2766 -0.6051  0.2555
  329MOL0     N44332   1.397   1.210   9.053  0.3895 -0.0976 -0.5741
  329MOL0     C44333   1.077   0.188   9.021  0.9641  0.2995  1.2820
  329MOL0     C44334   0.946   0.167   9.024 -0.7418 -0.2072 -0.8302
  329MOL0     C44335   0.507   0.281   9.046  0.6576 -0.4561 -0.1718
  329MOL0     C44336   0.404   0.374   9.078 -0.8886  0.1303 -0.5755
  329MOL0     C44337   0.281   0.338   9.128  0.3138  0.2171  0.3783
  329MOL0     C44338   0.241   0.203   9.143 -0.1311 -0.4096  1.7020
  329MOL0     O44339   0.117   0.171   9.203 -0.2231  0.7602 -0.4742
  329MOL0     C44340   0.067   0.036   9.181  0.5525  0.3586  0.0646
  329MOL0     C44341  -0.088   0.064   9.176  0.0956 -0.3373  0.2039
  329MOL0     C44342  -0.183  -0.055   9.194 -1.2862  0.0223 -0.3726
  329MOL0     C44343  -0.175  -0.114   9.340  0.9240 -1.6240 -0.1696
  329MOL0     C44344  -0.223  -0.245   9.348  0.4305  0.9142 -0.2684
  329MOL0     C44345  -0.280  -0.353   9.358  0.0974 -0.2818  0.3435
  329MOL0     C44346   0.337   0.111   9.097 -0.0438  0.6260  1.0396
  329MOL0     C44347   0.468   0.146   9.057  0.6428 -0.5857  0.0385
  329MOL0     H44348   0.841   0.410   8.810  1.4182 -0.7965 -1.4990
  329MOL0     H44349   1.075   0.456   8.803 -1.2681  0.9049 -0.7633
  329MOL0     H44350   1.295   0.460   8.817 -1.6658  1.7480  1.2002
  329MOL0     H44351   1.295   0.507   8.990 -1.6224 -0.2106 -0.8243
  329MOL0     H44352   1.503   0.391   9.028  0.6431 -1.7972 -0.2832
  329MOL0     H44353   1.488   0.316   8.872 -1.9805  0.1279 -0.1288
  329MOL0     H44354   1.652   0.475   8.834  0.4378 -0.6561  1.8823
  329MOL0     H44355   1.514   0.546   8.767 -0.9664  1.3847  1.0449
  329MOL0     H44356   1.485   0.665   8.999  0.6714  0.2411  0.7490
  329MOL0     H44357   1.631   0.592   9.044  0.4403 -3.4472 -1.9033
  329MOL0     H44358   1.734   0.722   8.829 -3.3891  0.3606 -4.6866
  329MOL0     H44359   1.579   0.802   8.831 -2.5752 -0.8917  2.4802
  329MOL0     H44360   1.664   0.816   9.111  1.6472  2.4682  1.0282
  329MOL0     H44361   1.792   0.879   9.005 -0.5270  0.4319 -0.7683
  329MOL0     H44362   1.642   1.072   9.048 -1.6662  4.1072 -3.6397
  329MOL0     H44363   1.638   1.021   8.879 -1.3604 -1.3722  0.5195
  329MOL0     H44364   1.449   0.954   9.115  1.9864  1.1984  0.2438
  329MOL0     H44365   1.437   0.890   8.949 -2.0378  0.0322 -1.1146
  329MOL0     H44366   1.272   1.034   8.812 -0.5371  1.0453  0.0109
  329MOL0     H44367   1.138   1.387   8.803 -0.5208  0.0070 -0.2480
  329MOL0     H44368   1.115   1.229   8.746  1.9646 -0.7868  1.0474
  329MOL0     H44369   0.920   1.353   8.887 -1.9829 -2.0241 -0.0325
  329MOL0     H44370   1.035   1.341   9.018 -0.6575  1.5080 -0.7472
  329MOL0     H44371   1.014   1.100   9.029  1.2446 -1.0389 -1.8783
  329MOL0     H44372   0.915   1.090   8.880  4.3769 -2.8067 -0.0719
  329MOL0     H44373   0.757   1.234   9.020 -2.5464 -3.0325  1.0475
  329MOL0     H44374   0.858   1.181   9.156 -0.3437 -0.5378  0.4665
  329MOL0     H44375   0.571   0.913   9.194 -1.7951  0.2156  0.6971
  329MOL0     H44376   0.238   0.919   9.214 -0.2812 -1.5107  2.0363
  329MOL0     H44377   0.238   0.812   9.071  0.5397 -0.1987 -0.3694
  329MOL0     H44378   0.360   0.794   9.198 -0.1687 -1.0022 -1.9333
  329MOL0     H44379  -0.029   1.149   8.798 -1.1351  0.2771  0.0085
  329MOL0     H44380  -0.267   1.110   8.735 -1.6693 -0.3795  1.3868
  329MOL0     H44381  -0.597   0.820   8.784  1.7715 -3.5356 -0.6321
  329MOL0     H44382  -0.476   0.751   8.891  1.1997 -0.1421 -0.0845
  329MOL0     H44383  -0.639   0.825   9.042  3.0280 -0.5928  0.6005
  329MOL0     H44384  -0.521   0.953   9.056  1.4734 -2.1873 -1.0392
  329MOL0     H44385  -0.781   0.990   8.887  0.4367  0.2961 -1.6663
  329MOL0     H44386  -0.649   1.100   8.892 -0.3110 -2.1132 -1.9511
  329MOL0     H44387  -0.814   1.011   9.138  0.1414 -0.0251 -1.4600
  329MOL0     H44388  -0.665   1.113   9.146  1.7124  0.9530 -2.0638
  329MOL0     H44389  -0.934   1.198   9.023  0.0392 -2.3798  0.5447
  329MOL0     H44390  -0.777   1.287   9.019 -1.3420  1.1955  0.6138
  329MOL0     H44391  -0.791   1.287   9.277 -0.9001 -0.9677  2.0806
  329MOL0     H44392  -0.918   1.377   9.185 -0.6614  0.6418 -1.1097
  329MOL0     H44393  -0.944   1.118   9.341 -1.4130 -0.9536 -1.8058
  329MOL0     H44394  -1.061   1.175   9.223 -0.9382  1.5352 -0.5237
  329MOL0     H44395  -1.115   1.356   9.366  2.1082  1.3999 -1.8206
  329MOL0     H44396  -0.956   1.357   9.439 -1.5644  1.7810  0.3947
  329MOL0     H44397  -0.308   0.789   8.999 -1.2514  0.8326  1.4259
  329MOL0     H44398  -0.095   0.795   9.058 -0.8312  2.1259  1.0985
  329MOL0     H44399   0.413   1.139   8.784  0.8502 -1.1452 -0.4017
  329MOL0     H44400   0.633   1.159   8.861  0.4941  0.6082  2.2085
  329MOL0     H44401   1.139   0.122   9.081 -0.2262 -0.1520  2.0571
  329MOL0     H44402   0.908   0.074   9.067 -1.7608  0.4096 -0.3450
  329MOL0     H44403   0.421   0.481   9.067 -2.3692  0.4716  0.1664
  329MOL0     H44404   0.206   0.413   9.151 -0.5386 -0.0745 -1.2753
  329MOL0     H44405   0.093  -0.012   9.087 -2.4762  0.2370 -0.8142
  329MOL0     H44406   0.088  -0.029   9.267  0.0977 -1.6309 -1.2654
  329MOL0     H44407  -0.092   0.091   9.070  0.5996  1.3936  0.5966
  329MOL0     H44408  -0.117   0.151   9.236  2.0107  1.1395 -0.8743
  329MOL0     H44409  -0.145  -0.135   9.130  1.3346  1.1484 -0.3207
  329MOL0     H44410  -0.288  -0.035   9.170 -1.1657 -0.0413 -0.9555
  329MOL0     H44411  -0.229  -0.043   9.403  3.6031 -0.3887  0.8872
  329MOL0     H44412  -0.073  -0.107   9.378  0.9710  1.3833 -0.5659
  329MOL0     H44413  -0.318  -0.453   9.365 -0.0186 -0.2908 -0.3250
  329MOL0     H44414   0.310   0.005   9.093 -0.0217  0.6597 -1.0710
  329MOL0     H44415   0.538   0.069   9.023 -1.0178 -2.4537  0.6479
  330MOL0     O44416   9.506   1.964   9.505 -0.5212  0.6655 -0.8922
  330MOL0     C44417   9.500   2.080   9.529 -0.0950 -0.5676 -0.4312
  330MOL0     O44418   9.387   2.161   9.533  0.4979 -0.1554  0.3898
  330MOL0     C44419   9.259   2.114   9.522  0.2993 -0.9211  0.1090
  330MOL0     C44420   9.166   2.204   9.561  0.1188  0.1802  0.6733
  330MOL0     C44421   9.031   2.164   9.559 -0.4666  0.8721 -0.0535
  330MOL0     C44422   8.992   2.029   9.533  0.3880 -0.2743 -0.3807
  330MOL0     O44423   8.862   1.988   9.562 -0.1487 -0.1168 -0.2388
  330MOL0     C44424   8.834   1.841   9.575  0.8645 -0.0633  1.1056
  330MOL0     C44425   8.729   1.801   9.680 -0.4804 -0.4636 -0.0943
  330MOL0     C44426   8.771   1.857   9.823  0.4513  0.6649  1.8413
  330MOL0     C44427   8.668   1.826   9.929 -0.8276  0.3731  0.7017
  330MOL0     C44428   8.663   1.668   9.972 -0.2252 -0.6648 -0.1453
  330MOL0     C44429   8.596   1.636  10.115 -0.0367  0.3327  0.2216
  330MOL0     C44430   8.597   1.480  10.123 -0.0634 -0.5250  0.6252
  330MOL0     C44431   8.607   1.429  10.261 -0.1456 -0.0530  0.3807
  330MOL0     N44432   8.606   1.282  10.251  0.2949 -0.2229 -0.2189
  330MOL0     C44433   8.503   1.197  10.288  0.3498 -0.7164  0.1771
  330MOL0     C44434   8.551   1.073  10.281 -0.8220  0.2059  0.9706
  330MOL0     C44435   8.458   0.957  10.301 -0.6601  0.6690  0.2205
  330MOL0     C44436   8.535   0.827  10.323 -0.8189  0.1431  0.3137
  330MOL0     C44437   8.432   0.717  10.328  0.7937 -0.8838  0.3356
  330MOL0     C44438   8.494   0.596  10.407 -0.6157  0.1587 -0.1697
  330MOL0     O44439   8.426   0.469  10.395 -0.0239  0.2044  0.2822
  330MOL0     C44440   8.459   0.377  10.306  0.4034  0.4801  0.7586
  330MOL0     C44441   8.507   0.418  10.184  0.0861  0.3899 -0.0815
  330MOL0     C44442   8.541   0.326  10.090 -1.4190  0.2702 -0.0141
  330MOL0     C44443   8.574   0.371   9.952  1.0145  0.9500  0.6836
  330MOL0     C44444   8.551   0.179  10.122  0.0681  0.3959  0.4045
  330MOL0     C44445   8.592   0.065  10.034  0.5634  0.6311  0.0419
  330MOL0     O44446   8.614  -0.054  10.097 -0.0709  0.3575  0.8050
  330MOL0     C44447   8.677  -0.158  10.040  0.6676  0.3538  0.2788
  330MOL0     C44448   8.629  -0.285  10.046  0.3864  0.3146 -0.5662
  330MOL0     C44449   8.698  -0.394   9.987 -0.2577 -1.0809 -0.3226
  330MOL0     C44450   8.821  -0.370   9.924 -0.5021 -0.5326  0.9218
  330MOL0     O44451   8.905  -0.473   9.872  0.0140  1.0343  0.1279
  330MOL0     C44452   8.873  -0.607   9.892  0.1313 -0.0426 -1.1366
  330MOL0     C44453   8.980  -0.705   9.846  0.1543  0.1775  0.7174
  330MOL0     C44454   9.125  -0.664   9.897  1.1243  0.1172  0.1192
  330MOL0     C44455   9.233  -0.780   9.872 -0.8515 -0.8892 -0.1598
  330MOL0     C44456   9.329  -0.747   9.753  1.3148  0.6375 -0.7233
  330MOL0     C44457   9.264  -0.730   9.618 -0.4102 -0.8799  0.2179
  330MOL0     C44458   9.396  -0.720   9.526 -0.5530 -1.4791  0.6909
  330MOL0     C44459   9.379  -0.753   9.372  0.1565  0.4769 -1.0421
  330MOL0    Cl44460   9.345  -0.929   9.374 -0.2672 -0.1780  0.5994
  330MOL0     C44461   8.878  -0.244   9.919 -0.2403 -0.3455 -0.9260
  330MOL0     C44462   8.804  -0.141   9.964  0.1140 -1.0215  0.1600
  330MOL0     O44463   8.626   0.091   9.922  0.6907  0.0873  0.1221
  330MOL0     C44464   8.513   0.143  10.252  0.3256 -0.3015  0.1971
  330MOL0     C44465   8.468   0.239  10.342  0.6092  1.3833  0.0228
  330MOL0     N44466   8.687   1.072  10.250 -0.5253 -1.0466 -0.4274
  330MOL0     N44467   8.713   1.201  10.234 -0.5369 -0.6981 -0.5136
  330MOL0     C44468   9.090   1.945   9.481  0.0237 -0.2320  0.6358
  330MOL0     C44469   9.223   1.986   9.471  0.4013 -0.5438 -0.4980
  330MOL0     C44470   9.622   2.147   9.584  0.1850  0.1720 -0.1537
  330MOL0     C44471   9.632   2.293   9.577  0.1862  0.0617  0.9213
  330MOL0     C44472   9.743   2.357   9.635 -0.1663 -0.0414 -0.4467
  330MOL0     C44473   9.844   2.286   9.686 -0.5145 -0.2395  0.7498
  330MOL0     O44474   9.955   2.339   9.729 -0.0826 -0.6321 -0.1050
  330MOL0     C44475   9.974   2.309   9.868  0.0446  0.2657  0.9661
  330MOL0     C44476  10.056   2.423   9.921  0.0690 -0.2049 -0.7227
  330MOL0     C44477  10.145   2.387  10.035 -0.4893 -0.0790 -0.6659
  330MOL0     C44478  10.228   2.512  10.069  0.4083 -0.5685  0.1416
  330MOL0     C44479  10.334   2.490  10.168  0.4556 -0.7831  0.7480
  330MOL0     C44480  10.403   2.473  10.265  0.0517  0.0905  0.0531
  330MOL0     C44481   9.840   2.147   9.682 -0.3382  0.2788  1.2088
  330MOL0     C44482   9.726   2.074   9.637  0.1238  0.1195 -0.4301
  330MOL0     H44483   9.197   2.308   9.557 -1.5591  0.6932 -2.7803
  330MOL0     H44484   8.956   2.233   9.596 -2.3643 -0.1821 -1.7573
  330MOL0     H44485   8.802   1.804   9.477  0.1004  1.1127  0.8855
  330MOL0     H44486   8.924   1.788   9.606  0.0951 -0.7561  2.2200
  330MOL0     H44487   8.636   1.841   9.639 -1.8904 -4.0977 -0.8411
  330MOL0     H44488   8.719   1.693   9.697 -0.6979 -0.7519 -1.8581
  330MOL0     H44489   8.876   1.827   9.829  0.7628  1.2615 -0.0198
  330MOL0     H44490   8.756   1.964   9.805 -0.1011 -0.0041 -3.3307
  330MOL0     H44491   8.687   1.890  10.016  0.2455 -0.9656  1.4930
  330MOL0     H44492   8.569   1.850   9.888 -1.8742  2.6207  4.1011
  330MOL0     H44493   8.605   1.621   9.892  1.6122 -4.2172  0.3997
  330MOL0     H44494   8.760   1.620   9.958 -0.0109 -0.5238  0.8180
  330MOL0     H44495   8.645   1.674  10.205 -1.3869 -1.1907  1.6889
  330MOL0     H44496   8.494   1.676  10.117 -0.7120 -1.3122  0.7016
  330MOL0     H44497   8.517   1.432  10.066 -0.0905 -0.4469  0.5970
  330MOL0     H44498   8.686   1.450  10.066  0.3814 -0.2475  1.1749
  330MOL0     H44499   8.522   1.458  10.323 -2.8792  0.3707 -3.2475
  330MOL0     H44500   8.698   1.468  10.309 -1.9296  1.3969  2.8534
  330MOL0     H44501   8.397   1.211  10.308  0.3831 -2.0948  1.5041
  330MOL0     H44502   8.405   0.971  10.395  3.0001 -2.8251  3.1748
  330MOL0     H44503   8.386   0.945  10.219 -2.1420  1.4035  1.3899
  330MOL0     H44504   8.578   0.824  10.423 -0.3772 -3.7672  0.1645
  330MOL0     H44505   8.597   0.798  10.238  0.3272 -1.6914  1.7014
  330MOL0     H44506   8.399   0.689  10.227  2.8816 -0.3731 -0.5540
  330MOL0     H44507   8.336   0.749  10.368  1.0411  2.4364 -1.3193
  330MOL0     H44508   8.497   0.615  10.515 -0.6474  2.9615 -0.6022
  330MOL0     H44509   8.596   0.574  10.376 -0.4407 -0.8464  0.9876
  330MOL0     H44510   8.519   0.524  10.162 -0.8007  0.5897  0.3432
  330MOL0     H44511   8.589   0.478   9.940  0.8199  0.6578 -3.2027
  330MOL0     H44512   8.668   0.327   9.917  1.1249  1.1095  0.7764
  330MOL0     H44513   8.478   0.342   9.908  0.8243  0.2703  1.5169
  330MOL0     H44514   8.527  -0.296  10.081  0.7432  0.5917  0.6006
  330MOL0     H44515   8.660  -0.495  10.000 -0.0566 -1.0742  0.3690
  330MOL0     H44516   8.861  -0.612  10.000 -0.8268  0.5564 -1.2033
  330MOL0     H44517   8.782  -0.640   9.840 -1.5737 -2.0352  2.7155
  330MOL0     H44518   8.959  -0.801   9.894 -2.5257  0.6686  0.6873
  330MOL0     H44519   8.989  -0.716   9.737  1.0540 -0.5230  0.8541
  330MOL0     H44520   9.110  -0.637  10.002 -2.4325  1.2269 -0.5371
  330MOL0     H44521   9.162  -0.578   9.841  1.7901 -1.1737 -1.5250
  330MOL0     H44522   9.284  -0.799   9.967 -0.0109  2.8037  0.2805
  330MOL0     H44523   9.165  -0.859   9.838  0.5720 -2.5577  0.6746
  330MOL0     H44524   9.411  -0.820   9.748 -0.4975 -1.4389 -1.5621
  330MOL0     H44525   9.388  -0.656   9.766  0.4505  1.2446 -1.0346
  330MOL0     H44526   9.209  -0.824   9.605  1.8288 -2.5724  1.9325
  330MOL0     H44527   9.210  -0.635   9.614  0.1108 -0.4514  2.2213
  330MOL0     H44528   9.479  -0.781   9.562 -0.5376  0.8269  5.2271
  330MOL0     H44529   9.423  -0.614   9.521  4.1248 -2.5357 -1.9401
  330MOL0     H44530   9.478  -0.741   9.328  0.0578 -0.0306 -1.4000
  330MOL0     H44531   9.300  -0.688   9.333 -0.7975  1.6497  2.4323
  330MOL0     H44532   8.972  -0.235   9.864  0.3694  1.0300  0.2564
  330MOL0     H44533   8.827  -0.037   9.949 -4.0220  0.0424 -0.1278
  330MOL0     H44534   8.496   0.042  10.288 -3.3635  0.6652  1.5911
  330MOL0     H44535   8.412   0.206  10.429  0.8287  2.5736  0.6498
  330MOL0     H44536   9.066   1.844   9.450 -2.3998  0.1825  0.9913
  330MOL0     H44537   9.290   1.913   9.428  1.4513  0.9371 -1.4366
  330MOL0     H44538   9.555   2.362   9.543  0.9625  0.0087 -1.0957
  330MOL0     H44539   9.752   2.465   9.638 -3.0288  0.3460  4.4365
  330MOL0     H44540   9.881   2.306   9.926 -0.8404 -0.2507 -0.4239
  330MOL0     H44541  10.030   2.215   9.877 -2.1217 -1.1117  0.7394
  330MOL0     H44542   9.984   2.502   9.944 -0.9385 -0.3946 -3.0126
  330MOL0     H44543  10.122   2.444   9.837  1.6719 -0.0765  0.5153
  330MOL0     H44544  10.205   2.299  10.012 -1.9877 -1.1947 -0.4368
  330MOL0     H44545  10.081   2.368  10.121  0.2928 -2.6077 -0.5665
  330MOL0     H44546  10.160   2.585  10.115  2.4819  2.0712 -0.7497
  330MOL0     H44547  10.262   2.572   9.985 -0.3574  0.1177  0.3003
  330MOL0     H44548  10.466   2.469  10.351  3.7618 -0.3277 -2.4245
  330MOL0     H44549   9.919   2.085   9.724  1.6968  0.1115 -2.4452
  330MOL0     H44550   9.738   1.967   9.647  2.5052  0.2451 -1.3722
  331MOL0     O44551   2.700   0.647   3.614 -0.2109  0.2338 -0.3966
  331MOL0     C44552   2.697   0.760   3.660  0.0405 -0.5324  0.5674
  331MOL0     O44553   2.638   0.798   3.780  0.3456 -0.4069  0.3071
  331MOL0     C44554   2.605   0.682   3.864 -0.1254 -0.1204  0.1239
  331MOL0     C44555   2.685   0.660   3.974 -0.6376 -0.6549 -0.2505
  331MOL0     C44556   2.654   0.570   4.080  0.3704 -0.4054  0.0226
  331MOL0     C44557   2.532   0.484   4.064 -1.1571  0.5948  0.3102
  331MOL0     O44558   2.476   0.399   4.157 -0.3152  0.3010  0.1466
  331MOL0     C44559   2.562   0.351   4.255 -0.2742  0.8374  0.4333
  331MOL0     C44560   2.573   0.447   4.382 -0.8232 -0.2702 -0.3670
  331MOL0     C44561   2.445   0.442   4.469 -0.8854  0.1524  1.0154
  331MOL0     C44562   2.469   0.512   4.605  0.0201  0.3274  1.4278
  331MOL0     C44563   2.371   0.466   4.713  0.2372 -0.2369  0.8736
  331MOL0     C44564   2.238   0.530   4.683  0.3333 -0.5077 -1.2528
  331MOL0     C44565   2.230   0.687   4.711  0.2596 -0.2009  0.6990
  331MOL0     C44566   2.143   0.720   4.829 -0.0620  0.1853 -1.5761
  331MOL0     N44567   2.147   0.860   4.858  0.5121 -0.0384  0.2988
  331MOL0     C44568   2.257   0.938   4.874  0.1610  0.0431 -0.5623
  331MOL0     C44569   2.216   1.054   4.920  0.1269  0.0474 -0.3860
  331MOL0     C44570   2.288   1.178   4.956  0.1374  0.7157 -0.2366
  331MOL0     C44571   2.216   1.317   4.927 -0.9954  0.1551  0.7385
  331MOL0     C44572   2.275   1.433   5.007 -0.8630 -0.9483  1.0080
  331MOL0     C44573   2.404   1.489   4.951  0.9597 -0.3083  0.3464
  331MOL0     O44574   2.437   1.610   5.018  0.1771  0.2459  1.3318
  331MOL0     C44575   2.387   1.729   4.974 -0.3944  0.1972  0.1727
  331MOL0     C44576   2.296   1.745   4.872  0.6932 -0.1218  0.6838
  331MOL0     C44577   2.242   1.866   4.838 -0.5359 -0.0066  0.4207
  331MOL0     C44578   2.137   1.870   4.727  0.0214 -0.0017  0.2836
  331MOL0     C44579   2.289   1.981   4.910 -0.4983  0.1302 -0.1557
  331MOL0     C44580   2.225   2.112   4.896  0.8285 -0.4461  0.2335
  331MOL0     O44581   2.307   2.230   4.905  1.0250 -1.3945  1.0586
  331MOL0     C44582   2.238   2.347   4.904  0.7377  0.0989 -0.6235
  331MOL0     C44583   2.147   2.387   5.005 -0.1304 -0.0888  1.2469
  331MOL0     C44584   2.085   2.515   4.994 -0.1930 -0.5839  0.2121
  331MOL0     C44585   2.113   2.593   4.876  0.3184  0.2520  0.6675
  331MOL0     O44586   2.050   2.720   4.868 -0.0820  0.0084  1.0896
  331MOL0     C44587   2.056   2.794   4.753  0.0869 -0.6604 -0.2362
  331MOL0     C44588   2.005   2.937   4.792 -0.5436  0.1612 -0.3652
  331MOL0     C44589   2.038   3.043   4.689 -0.9233  0.0467 -0.1355
  331MOL0     C44590   1.996   3.187   4.727  0.0603 -0.1347 -0.4003
  331MOL0     C44591   2.044   3.290   4.618  0.0310 -0.4912  0.1956
  331MOL0     C44592   1.978   3.424   4.640 -0.7655 -0.2789  0.4675
  331MOL0     C44593   2.019   3.537   4.556  0.0963  0.3548 -0.3214
  331MOL0     C44594   1.951   3.655   4.606  0.8999  0.2558 -0.9158
  331MOL0    Cl44595   1.961   3.790   4.491  0.2633 -0.0537  0.1744
  331MOL0     C44596   2.176   2.542   4.774 -1.0167 -0.9367 -0.3382
  331MOL0     C44597   2.236   2.417   4.785  0.4701 -0.1392 -0.2580
  331MOL0     O44598   2.103   2.113   4.884 -0.2355  0.1964  0.4150
  331MOL0     C44599   2.389   1.963   5.000  0.4093 -0.0699  0.2165
  331MOL0     C44600   2.441   1.836   5.033  0.2352 -0.2830  0.1761
  331MOL0     N44601   2.079   1.045   4.942 -0.6851  0.1253 -0.2860
  331MOL0     N44602   2.039   0.932   4.908 -0.3858  0.3173  0.3695
  331MOL0     C44603   2.456   0.502   3.943 -0.5454 -0.4151 -0.7169
  331MOL0     C44604   2.483   0.604   3.848 -0.6408  0.0263  0.3658
  331MOL0     C44605   2.757   0.866   3.578  0.5578 -0.5865 -0.1070
  331MOL0     C44606   2.847   0.834   3.467 -0.1088 -0.1459  0.4294
  331MOL0     C44607   2.887   0.928   3.372 -0.1701  0.1635 -0.3275
  331MOL0     C44608   2.835   1.061   3.389 -0.6861  0.8389 -0.7413
  331MOL0     O44609   2.890   1.155   3.302 -0.4487  0.2675 -0.1900
  331MOL0     C44610   2.846   1.285   3.299  1.3161 -0.6301 -0.4538
  331MOL0     C44611   2.921   1.381   3.389  0.2380 -0.1923  0.1777
  331MOL0     C44612   2.874   1.526   3.377 -0.3031  1.0416  0.2989
  331MOL0     C44613   2.937   1.593   3.254 -0.1110 -0.4060  0.2642
  331MOL0     C44614   2.900   1.736   3.250  0.7996  0.5674  0.7135
  331MOL0     C44615   2.857   1.848   3.244  0.0684  1.0534 -0.6072
  331MOL0     C44616   2.743   1.091   3.497  0.8241  0.7077  0.2545
  331MOL0     C44617   2.705   0.993   3.585 -0.9800 -0.4005 -0.3853
  331MOL0     H44618   2.779   0.708   4.000 -0.3633 -1.1911 -0.2408
  331MOL0     H44619   2.722   0.557   4.163  0.3107 -0.0722  0.1260
  331MOL0     H44620   2.512   0.257   4.278 -2.3790  2.0180  0.9184
  331MOL0     H44621   2.660   0.336   4.208 -1.2117 -1.5646 -0.9081
  331MOL0     H44622   2.659   0.406   4.435 -0.9910  0.0801  0.1830
  331MOL0     H44623   2.597   0.549   4.351 -1.8540  0.1090  0.0587
  331MOL0     H44624   2.358   0.491   4.425 -1.0760  0.7338  2.0090
  331MOL0     H44625   2.425   0.334   4.475  1.1211 -0.2979  0.3740
  331MOL0     H44626   2.570   0.482   4.632  0.5464 -1.5951 -2.1126
  331MOL0     H44627   2.470   0.619   4.587  0.0799  0.0663 -0.3299
  331MOL0     H44628   2.366   0.357   4.719  1.2706 -0.2578  1.7838
  331MOL0     H44629   2.400   0.499   4.814  0.2240  1.6808  0.2944
  331MOL0     H44630   2.196   0.503   4.586 -2.5186  2.1075 -0.9065
  331MOL0     H44631   2.177   0.470   4.752 -0.5816  0.6224 -1.0475
  331MOL0     H44632   2.330   0.729   4.723  0.2669 -0.3459  1.1276
  331MOL0     H44633   2.185   0.739   4.625 -2.1772  0.2157  2.1424
  331MOL0     H44634   2.178   0.675   4.922 -1.6139 -1.7177 -1.8613
  331MOL0     H44635   2.041   0.684   4.813 -0.4711 -0.1949  1.2940
  331MOL0     H44636   2.361   0.907   4.863  0.5196  0.9910 -0.0035
  331MOL0     H44637   2.302   1.159   5.062  0.8794 -1.4449 -0.6729
  331MOL0     H44638   2.385   1.171   4.907 -1.0627  0.1939 -2.7188
  331MOL0     H44639   2.109   1.305   4.948 -1.0547 -1.4718 -0.2667
  331MOL0     H44640   2.216   1.339   4.819 -2.8890  2.2630  1.1003
  331MOL0     H44641   2.304   1.405   5.109  1.1086  0.7653  0.9896
  331MOL0     H44642   2.203   1.515   5.005  2.8019  2.6140 -1.5105
  331MOL0     H44643   2.407   1.513   4.845  0.8905  2.1680  0.8409
  331MOL0     H44644   2.475   1.407   4.963 -1.9524 -3.0399  0.2448
  331MOL0     H44645   2.258   1.655   4.825 -1.1672 -2.2353  5.5713
  331MOL0     H44646   2.164   1.955   4.663 -0.4641  0.6424  0.9258
  331MOL0     H44647   2.139   1.781   4.662 -1.9042 -1.1778  1.7400
  331MOL0     H44648   2.036   1.875   4.769 -0.2317 -6.1241  1.3043
  331MOL0     H44649   2.141   2.323   5.092  0.2270  0.3052  1.5620
  331MOL0     H44650   2.024   2.576   5.060  0.3162  2.0320 -1.5731
  331MOL0     H44651   2.158   2.801   4.717  0.1695 -1.6602 -0.2271
  331MOL0     H44652   1.990   2.755   4.674  0.6335 -1.4334 -0.3262
  331MOL0     H44653   1.897   2.938   4.806 -0.3389  0.6469  1.4880
  331MOL0     H44654   2.033   2.979   4.889 -1.7942  1.6620 -0.6095
  331MOL0     H44655   1.979   3.017   4.601 -1.9391 -0.5093  0.6863
  331MOL0     H44656   2.139   3.037   4.648 -1.3348 -3.7889 -0.9538
  331MOL0     H44657   1.891   3.191   4.757 -0.2137 -0.1560 -1.3071
  331MOL0     H44658   2.042   3.223   4.819 -2.4023 -0.1411  0.9015
  331MOL0     H44659   2.010   3.253   4.521  1.1980  2.2750 -1.3622
  331MOL0     H44660   2.153   3.292   4.618  0.0223 -0.0891 -0.1147
  331MOL0     H44661   1.869   3.412   4.638 -0.6720 -1.7451  2.0334
  331MOL0     H44662   2.000   3.455   4.742 -0.3489 -2.3011  1.0327
  331MOL0     H44663   1.994   3.520   4.451 -0.1820 -2.5590  0.1236
  331MOL0     H44664   2.126   3.555   4.568  0.0775  1.5552 -1.7415
  331MOL0     H44665   1.977   3.685   4.708  0.6713 -3.3934  0.3614
  331MOL0     H44666   1.845   3.629   4.600  1.6020 -2.9615 -0.7822
  331MOL0     H44667   2.178   2.600   4.683 -2.6105  1.7048  1.1863
  331MOL0     H44668   2.295   2.382   4.701 -1.1571 -0.4365 -1.3136
  331MOL0     H44669   2.425   2.049   5.056  1.2677 -0.6918  0.6511
  331MOL0     H44670   2.523   1.806   5.096  0.0790 -0.6504  0.2046
  331MOL0     H44671   2.369   0.442   3.918 -0.0583 -1.2411 -0.4435
  331MOL0     H44672   2.426   0.608   3.756  0.1907 -1.8639 -0.2848
  331MOL0     H44673   2.878   0.730   3.456  1.1295  0.2744 -0.1253
  331MOL0     H44674   2.948   0.900   3.287 -3.4186 -1.7525 -2.2891
  331MOL0     H44675   2.868   1.326   3.200 -1.2963 -0.8994 -1.2171
  331MOL0     H44676   2.738   1.292   3.314  1.3827 -2.3852  1.2106
  331MOL0     H44677   3.025   1.360   3.362 -0.4202 -3.6302 -0.0961
  331MOL0     H44678   2.908   1.346   3.492  0.3085  0.8826  0.5585
  331MOL0     H44679   2.904   1.576   3.469 -0.9003  3.1281 -0.5873
  331MOL0     H44680   2.765   1.530   3.371 -0.5228 -1.7701  0.9478
  331MOL0     H44681   2.894   1.552   3.162 -0.4188 -1.4347  0.8405
  331MOL0     H44682   3.042   1.569   3.239 -0.0866  1.1484 -2.7543
  331MOL0     H44683   2.808   1.943   3.239  1.9549  2.0819 -0.5346
  331MOL0     H44684   2.704   1.191   3.514  1.2387  1.1735 -1.3190
  331MOL0     H44685   2.632   1.025   3.659 -0.7958 -0.8454 -0.0119
  332MOL0     O44686   5.561   7.469   8.586 -0.3420  0.6285  0.1479
  332MOL0     C44687   5.586   7.574   8.642  0.1451  0.1677 -0.8455
  332MOL0     O44688   5.685   7.663   8.607  0.4268  0.4188  0.1126
  332MOL0     C44689   5.747   7.639   8.481  0.2696 -0.2711  0.2624
  332MOL0     C44690   5.890   7.627   8.479  0.2728 -0.7625  0.4604
  332MOL0     C44691   5.954   7.597   8.361 -0.6581 -1.3364 -0.5235
  332MOL0     C44692   5.874   7.583   8.243 -0.9220 -0.8999 -0.1897
  332MOL0     O44693   5.941   7.546   8.133  0.0314 -0.0260 -0.5318
  332MOL0     C44694   6.044   7.639   8.093 -0.2928 -0.1131  0.1008
  332MOL0     C44695   6.076   7.616   7.951  0.7373  0.9003  0.4340
  332MOL0     C44696   6.185   7.708   7.894 -0.4008 -0.0657  0.7834
  332MOL0     C44697   6.254   7.657   7.766  0.0321 -1.3186  0.3358
  332MOL0     C44698   6.309   7.780   7.684  0.1379  0.1984  1.3588
  332MOL0     C44699   6.386   7.738   7.555 -1.0054 -0.1855 -0.3574
  332MOL0     C44700   6.473   7.849   7.495  0.2138  1.2467  0.0426
  332MOL0     C44701   6.536   7.787   7.375  0.4558  0.0681 -1.0927
  332MOL0     N44702   6.634   7.866   7.306 -0.0803  0.4560 -0.4149
  332MOL0     C44703   6.614   7.996   7.263  0.4820 -0.1053 -0.0175
  332MOL0     C44704   6.737   8.034   7.213  0.1539 -0.3897  0.0782
  332MOL0     C44705   6.772   8.168   7.161  0.3561 -0.0188 -1.4807
  332MOL0     C44706   6.824   8.183   7.018 -0.2345 -0.2647 -0.5453
  332MOL0     C44707   6.706   8.165   6.905 -0.0876 -0.2532  0.6094
  332MOL0     C44708   6.580   8.256   6.902 -0.4533 -0.1475 -0.4120
  332MOL0     O44709   6.510   8.238   6.783  0.0895 -0.7180 -0.0997
  332MOL0     C44710   6.403   8.319   6.774  0.3458  1.0347 -0.9350
  332MOL0     C44711   6.413   8.452   6.785 -0.1624  0.3726  0.5397
  332MOL0     C44712   6.296   8.531   6.758  0.7114 -0.0427 -0.3372
  332MOL0     C44713   6.319   8.680   6.776 -0.7166 -0.2955  1.5673
  332MOL0     C44714   6.175   8.468   6.707  0.4621 -0.6566 -0.6659
  332MOL0     C44715   6.045   8.543   6.682 -0.6631  0.4723 -0.6326
  332MOL0     O44716   6.046   8.676   6.724 -0.1959  0.4265 -0.4159
  332MOL0     C44717   5.951   8.769   6.685 -0.0328 -0.2898  0.2180
  332MOL0     C44718   5.819   8.751   6.658 -0.3711  0.3571  0.4409
  332MOL0     C44719   5.739   8.855   6.626  0.1782  0.5722  0.3326
  332MOL0     C44720   5.794   8.983   6.603  0.4139 -1.0249 -0.5567
  332MOL0     O44721   5.697   9.071   6.556 -0.2208 -0.0804  0.0615
  332MOL0     C44722   5.721   9.212   6.548  0.2638 -1.0642  0.6412
  332MOL0     C44723   5.613   9.286   6.468 -0.7037 -0.6166  0.4966
  332MOL0     C44724   5.464   9.288   6.523 -0.1286 -0.5831  0.7082
  332MOL0     C44725   5.369   9.334   6.409  0.2904 -1.3866  0.1533
  332MOL0     C44726   5.225   9.299   6.443 -0.3326 -0.0510  0.5708
  332MOL0     C44727   5.157   9.411   6.518 -0.0188 -0.5982 -0.0335
  332MOL0     C44728   5.036   9.372   6.591 -0.2388  0.3577  0.5644
  332MOL0     C44729   4.980   9.492   6.675 -0.4872 -0.0264 -0.1503
  332MOL0    Cl44730   4.804   9.472   6.685 -0.2871 -0.2323  0.0605
  332MOL0     C44731   5.928   9.007   6.638  0.1991  0.2919 -0.3195
  332MOL0     C44732   6.001   8.896   6.680 -0.2282 -0.4575 -0.5757
  332MOL0     O44733   5.942   8.475   6.668  0.1860  0.0996 -0.1101
  332MOL0     C44734   6.178   8.332   6.693 -0.3276  0.3557 -0.4917
  332MOL0     C44735   6.288   8.253   6.724 -0.1430 -0.4935 -1.0115
  332MOL0     N44736   6.819   7.919   7.220 -0.6117  0.0441  0.0360
  332MOL0     N44737   6.755   7.820   7.276  0.4502 -0.4405  0.3651
  332MOL0     C44738   5.734   7.602   8.247 -0.9816  1.4195  0.3755
  332MOL0     C44739   5.670   7.634   8.363 -0.4208 -0.4758 -0.5719
  332MOL0     C44740   5.520   7.605   8.768  0.3731  0.4762 -0.3136
  332MOL0     C44741   5.426   7.522   8.836  0.2317  0.7181 -0.3711
  332MOL0     C44742   5.354   7.574   8.945  0.4316  0.4044  0.5029
  332MOL0     C44743   5.377   7.701   9.003  0.3360  0.4366  0.5905
  332MOL0     O44744   5.303   7.750   9.110  0.2922 -0.8527 -0.1412
  332MOL0     C44745   5.325   7.885   9.154 -0.8593 -0.0480 -0.8228
  332MOL0     C44746   5.257   7.995   9.075  0.0119  0.1036  0.2327
  332MOL0     C44747   5.109   7.965   9.086 -0.2070 -0.7596 -1.3146
  332MOL0     C44748   5.049   8.018   9.226  1.0547 -0.4568 -0.1376
  332MOL0     C44749   4.898   8.011   9.203 -0.4994 -0.4297  0.3592
  332MOL0     C44750   4.776   8.011   9.204  0.2529 -0.0479 -0.2393
  332MOL0     C44751   5.463   7.781   8.929 -0.0404  0.1602  0.1559
  332MOL0     C44752   5.543   7.732   8.825  1.1818  0.1139  0.4108
  332MOL0     H44753   5.958   7.630   8.564  2.5382  1.1762 -1.2821
  332MOL0     H44754   6.059   7.569   8.352 -0.5294 -0.3136 -7.4360
  332MOL0     H44755   6.008   7.742   8.101  1.3925  0.5203 -0.2409
  332MOL0     H44756   6.136   7.639   8.153 -0.6384  1.8760  0.6868
  332MOL0     H44757   6.094   7.514   7.917  0.1528  0.9786 -0.1221
  332MOL0     H44758   5.980   7.642   7.905  0.7011 -1.7038 -1.1750
  332MOL0     H44759   6.146   7.808   7.873  2.6245  0.6831 -2.2470
  332MOL0     H44760   6.263   7.718   7.970 -0.0607 -2.4666  0.8207
  332MOL0     H44761   6.327   7.579   7.788 -5.0796 -7.0472 -0.0896
  332MOL0     H44762   6.179   7.610   7.701 -2.0426  3.3550 -1.1124
  332MOL0     H44763   6.227   7.841   7.646 -0.4033 -1.2245  0.1903
  332MOL0     H44764   6.371   7.841   7.751  0.0659  0.0961  1.5201
  332MOL0     H44765   6.436   7.643   7.574 -3.6383 -1.7430 -0.7835
  332MOL0     H44766   6.309   7.717   7.480  0.5810  1.3351 -2.5481
  332MOL0     H44767   6.412   7.935   7.466  0.9366  2.2696  1.4287
  332MOL0     H44768   6.549   7.878   7.568  1.7165  0.1529 -1.0056
  332MOL0     H44769   6.455   7.773   7.303 -2.0125  0.0645  1.5032
  332MOL0     H44770   6.583   7.691   7.401  0.2130  0.4294  0.8529
  332MOL0     H44771   6.524   8.052   7.287  0.5080 -0.2495  0.4261
  332MOL0     H44772   6.678   8.224   7.171  1.7463  2.1507  0.6469
  332MOL0     H44773   6.840   8.201   7.241 -2.9478  0.9333  1.1607
  332MOL0     H44774   6.897   8.109   6.985 -0.0644  1.0498 -3.4320
  332MOL0     H44775   6.859   8.286   7.006 -2.2293  0.5635  0.3400
  332MOL0     H44776   6.673   8.061   6.894 -2.6255  0.4103  1.2907
  332MOL0     H44777   6.759   8.200   6.815  2.8460  0.7360  2.5707
  332MOL0     H44778   6.601   8.363   6.915 -1.1625 -0.1413  0.8346
  332MOL0     H44779   6.512   8.230   6.983 -3.9377  2.3399 -2.2762
  332MOL0     H44780   6.511   8.495   6.798  2.3241 -3.0734 -3.7606
  332MOL0     H44781   6.304   8.711   6.880  0.7287 -0.5612  1.8834
  332MOL0     H44782   6.425   8.701   6.757 -0.7974  1.3857  2.7026
  332MOL0     H44783   6.271   8.751   6.707 -0.1165  2.7616  4.0631
  332MOL0     H44784   5.778   8.650   6.659  0.7807 -0.1237  1.0372
  332MOL0     H44785   5.635   8.836   6.601  0.1469  4.2479 -3.4696
  332MOL0     H44786   5.731   9.259   6.646  2.4477 -0.9542  0.4169
  332MOL0     H44787   5.819   9.229   6.504 -0.0100  0.4916  0.5480
  332MOL0     H44788   5.641   9.392   6.467  2.1865 -1.2912  1.5335
  332MOL0     H44789   5.615   9.250   6.365 -1.3295 -2.3585  1.0565
  332MOL0     H44790   5.448   9.340   6.618  1.9332 -1.7950  1.7966
  332MOL0     H44791   5.450   9.184   6.554  3.4329 -0.6843  2.5316
  332MOL0     H44792   5.389   9.437   6.378 -0.4543 -1.0915  0.6190
  332MOL0     H44793   5.391   9.282   6.315 -0.9915  2.8185 -2.7497
  332MOL0     H44794   5.224   9.219   6.518  2.0243  0.6572  1.4595
  332MOL0     H44795   5.165   9.278   6.354  1.0782 -0.8658 -0.2163
  332MOL0     H44796   5.227   9.453   6.590 -0.2073 -2.4791  1.3066
  332MOL0     H44797   5.135   9.482   6.437  0.8673 -1.1259 -0.7571
  332MOL0     H44798   5.063   9.292   6.662  0.1357  0.0773  0.1124
  332MOL0     H44799   4.961   9.335   6.520  2.5161 -0.2174 -2.2445
  332MOL0     H44800   5.008   9.587   6.629 -1.0205  0.6105  0.7907
  332MOL0     H44801   5.012   9.483   6.780 -2.1546  1.1329  0.4888
  332MOL0     H44802   5.958   9.111   6.639  1.1603  0.0318  0.8313
  332MOL0     H44803   6.099   8.919   6.719 -0.0390 -1.2464 -0.5566
  332MOL0     H44804   6.090   8.285   6.652 -1.2375  2.4201 -1.0508
  332MOL0     H44805   6.282   8.146   6.709 -2.6686 -0.3327 -1.5340
  332MOL0     H44806   5.675   7.578   8.159 -2.2105  0.9911  1.2854
  332MOL0     H44807   5.562   7.648   8.364 -0.2260  1.4869  2.0729
  332MOL0     H44808   5.401   7.429   8.786 -1.2548  0.2342  1.2001
  332MOL0     H44809   5.280   7.506   8.987  0.0410 -0.3824 -1.3651
  332MOL0     H44810   5.299   7.882   9.260  2.1918 -4.1804  0.0711
  332MOL0     H44811   5.433   7.894   9.170 -0.8916 -2.7465  1.8025
  332MOL0     H44812   5.271   7.986   8.967 -0.5318 -3.6197  0.3443
  332MOL0     H44813   5.283   8.095   9.113 -1.5879 -0.0204  1.7993
  332MOL0     H44814   5.086   7.859   9.077  0.2460 -0.9024 -0.8722
  332MOL0     H44815   5.067   8.019   9.001 -0.3502 -1.4880 -1.7129
  332MOL0     H44816   5.080   8.121   9.246 -1.7896  0.3079  0.8190
  332MOL0     H44817   5.083   7.950   9.305  0.9269 -0.0429  0.2788
  332MOL0     H44818   4.671   7.987   9.204  0.4325 -0.9136  0.7359
  332MOL0     H44819   5.490   7.882   8.959  0.2903  0.8107 -2.1346
  332MOL0     H44820   5.612   7.808   8.790  1.7966 -0.0943  1.1447
  333MOL0     O44821   7.622   7.800   7.610 -0.7432 -0.6274  0.5421
  333MOL0     C44822   7.597   7.673   7.601 -0.0705 -0.3567 -0.5321
  333MOL0     O44823   7.686   7.575   7.639  0.6626  0.2035  0.4007
  333MOL0     C44824   7.776   7.615   7.728 -0.5285  0.3138 -0.7602
  333MOL0     C44825   7.901   7.564   7.706  0.5342  0.3676  0.0663
  333MOL0     C44826   8.005   7.592   7.786 -0.5614  0.1395 -0.5624
  333MOL0     C44827   7.999   7.685   7.894  0.1095 -0.3275  0.5003
  333MOL0     O44828   8.100   7.724   7.978  0.4785 -0.4893  0.5691
  333MOL0     C44829   8.240   7.669   8.000  0.1897  0.6057 -0.6790
  333MOL0     C44830   8.349   7.704   7.897  0.1541 -0.8772  0.1523
  333MOL0     C44831   8.400   7.849   7.897 -0.6803 -0.5757 -0.3537
  333MOL0     C44832   8.494   7.888   8.014  0.3316 -0.4150 -0.1684
  333MOL0     C44833   8.466   8.041   8.041  0.5506 -0.3835  0.0075
  333MOL0     C44834   8.540   8.116   7.931  0.1514 -0.5797  0.6439
  333MOL0     C44835   8.560   8.252   7.978  0.9668  0.2823 -0.1044
  333MOL0     C44836   8.605   8.342   7.862 -0.0794 -0.3602 -0.0536
  333MOL0     N44837   8.747   8.362   7.870  0.7488 -0.0676 -0.1508
  333MOL0     C44838   8.840   8.273   7.830  0.3512 -0.1763  0.0815
  333MOL0     C44839   8.956   8.348   7.833 -0.0947  0.4765  0.4086
  333MOL0     C44840   9.090   8.325   7.770 -0.6514 -0.3974 -0.5791
  333MOL0     C44841   9.141   8.429   7.670  0.9007 -0.4209 -0.0643
  333MOL0     C44842   9.282   8.431   7.629  0.0798 -0.3950  0.6855
  333MOL0     C44843   9.331   8.529   7.524 -0.9692 -0.0032 -0.3817
  333MOL0     O44844   9.362   8.657   7.585  0.1787 -0.4457 -0.5290
  333MOL0     C44845   9.469   8.673   7.669 -0.1822 -0.3670  1.1776
  333MOL0     C44846   9.464   8.799   7.732  1.0089 -0.3172 -0.1507
  333MOL0     C44847   9.565   8.837   7.813 -0.5673 -0.3226  0.3946
  333MOL0     C44848   9.557   8.963   7.898  0.7688  0.4693 -0.2986
  333MOL0     C44849   9.694   8.775   7.795 -0.1982  0.3574 -0.2334
  333MOL0     C44850   9.815   8.819   7.873 -0.2205  0.1306 -0.3529
  333MOL0     O44851   9.852   8.949   7.859  0.2944 -0.0384 -0.4400
  333MOL0     C44852   9.979   8.979   7.901 -0.5618 -0.0742  0.1027
  333MOL0     C44853   9.997   9.073   8.003  0.5585 -0.5468  0.6160
  333MOL0     C44854  10.128   9.117   8.024 -0.1974 -0.9082  0.2866
  333MOL0     C44855  10.234   9.070   7.952 -0.3224  0.3416  0.0346
  333MOL0     O44856  10.372   9.110   7.970  0.4449  0.0753  0.0905
  333MOL0     C44857  10.406   9.243   8.020  0.2031 -0.1762 -0.3531
  333MOL0     C44858  10.542   9.285   7.981  0.3520 -0.3728  0.2969
  333MOL0     C44859  10.546   9.296   7.828 -0.1477 -0.7616 -0.4108
  333MOL0     C44860  10.690   9.324   7.789 -0.0198 -0.8859  0.1740
  333MOL0     C44861  10.689   9.341   7.628  0.3801 -0.7660  0.3853
  333MOL0     C44862  10.670   9.217   7.548  0.4487  0.3264 -0.6588
  333MOL0     C44863  10.710   9.228   7.400 -0.2463  0.4063  0.0349
  333MOL0     C44864  10.785   9.110   7.339 -0.6718 -0.2166 -0.3721
  333MOL0    Cl44865  10.681   8.968   7.322 -0.0918 -0.4063 -0.3404
  333MOL0     C44866  10.210   8.970   7.860  0.2255  0.5664  0.4757
  333MOL0     C44867  10.083   8.924   7.822 -0.7397 -0.5208 -0.5524
  333MOL0     O44868   9.871   8.726   7.939  0.3821 -0.3220 -0.2823
  333MOL0     C44869   9.699   8.648   7.730  0.2111 -0.2473  0.0009
  333MOL0     C44870   9.586   8.601   7.665 -0.0042  0.2457 -0.1959
  333MOL0     N44871   8.934   8.464   7.913  1.2039  0.1844  0.6470
  333MOL0     N44872   8.802   8.469   7.926  0.0093 -0.0278 -0.2678
  333MOL0     C44873   7.868   7.721   7.936 -0.6306  0.3367 -0.0343
  333MOL0     C44874   7.761   7.699   7.843  0.0522  0.2349  0.5020
  333MOL0     C44875   7.466   7.621   7.556  0.3884  1.3246  0.0387
  333MOL0     C44876   7.410   7.495   7.599  0.1932  0.3087  0.6692
  333MOL0     C44877   7.279   7.453   7.554 -0.1344 -0.1477  0.0724
  333MOL0     C44878   7.222   7.532   7.450 -0.5676 -0.1885  0.1782
  333MOL0     O44879   7.104   7.493   7.402  0.8594  0.0996 -0.6736
  333MOL0     C44880   6.994   7.588   7.379  0.7285  0.0650 -0.1371
  333MOL0     C44881   6.863   7.531   7.440 -0.1079 -0.3221  0.2295
  333MOL0     C44882   6.813   7.389   7.383 -0.3238 -0.5344  0.6226
  333MOL0     C44883   6.666   7.385   7.409 -0.2109  0.0062 -0.2716
  333MOL0     C44884   6.602   7.249   7.407  0.1729 -0.9929  0.2746
  333MOL0     C44885   6.578   7.132   7.385 -1.0323 -0.9431 -0.4427
  333MOL0     C44886   7.287   7.644   7.397  0.5692 -0.1828 -0.8407
  333MOL0     C44887   7.406   7.686   7.453 -0.8640  0.0059 -0.3560
  333MOL0     H44888   7.928   7.499   7.623  5.4786  1.8529  0.2069
  333MOL0     H44889   8.104   7.552   7.768  0.1398  1.1940  0.7535
  333MOL0     H44890   8.271   7.710   8.097 -1.8537  0.2815  0.1768
  333MOL0     H44891   8.236   7.560   8.011  0.7560  0.7136  0.7796
  333MOL0     H44892   8.431   7.637   7.924  0.3828 -0.0259  1.6676
  333MOL0     H44893   8.320   7.681   7.794 -1.8601  0.2202  0.4214
  333MOL0     H44894   8.453   7.874   7.805  1.0105  1.5741  1.0946
  333MOL0     H44895   8.318   7.922   7.894  1.4322  2.1722  2.3412
  333MOL0     H44896   8.471   7.838   8.108  2.8171  0.5821  1.0575
  333MOL0     H44897   8.596   7.861   7.987  0.5590  2.2754 -2.4968
  333MOL0     H44898   8.361   8.071   8.041  0.8101  0.5842  1.2167
  333MOL0     H44899   8.518   8.064   8.135  2.3194  1.3186 -1.3165
  333MOL0     H44900   8.638   8.075   7.908  0.4746  1.6803 -2.6734
  333MOL0     H44901   8.486   8.122   7.836  1.7785 -0.8637 -0.3164
  333MOL0     H44902   8.466   8.292   8.017  0.6936 -1.6871  1.4067
  333MOL0     H44903   8.641   8.253   8.052  3.3618  1.5801 -2.5623
  333MOL0     H44904   8.549   8.436   7.865 -0.5731 -0.6572  3.0689
  333MOL0     H44905   8.570   8.295   7.769 -2.6923 -1.1972  1.2492
  333MOL0     H44906   8.814   8.175   7.790  0.2774 -0.6515  1.2697
  333MOL0     H44907   9.163   8.319   7.852  0.5195  0.0319 -1.5544
  333MOL0     H44908   9.095   8.227   7.722  0.2204 -0.6718  0.0524
  333MOL0     H44909   9.113   8.532   7.693 -1.3820 -1.0324  0.1751
  333MOL0     H44910   9.082   8.398   7.583 -2.1966  3.5238  0.3398
  333MOL0     H44911   9.296   8.329   7.591  0.9256  0.7430 -2.4295
  333MOL0     H44912   9.343   8.435   7.720 -2.0670  0.6061  2.1686
  333MOL0     H44913   9.266   8.524   7.436  1.9179 -2.5786 -2.5772
  333MOL0     H44914   9.422   8.480   7.488 -1.2804 -0.6933 -0.2574
  333MOL0     H44915   9.378   8.864   7.729  0.8627 -0.4560  0.7597
  333MOL0     H44916   9.616   8.949   7.989 -1.3973  0.5011  1.1926
  333MOL0     H44917   9.596   9.053   7.849 -2.2025  2.0353  0.0043
  333MOL0     H44918   9.457   8.983   7.936  0.6117  1.2608 -1.0897
  333MOL0     H44919   9.912   9.104   8.063 -1.8165 -2.5528 -1.4667
  333MOL0     H44920  10.143   9.203   8.089 -0.0385 -0.9505  0.3079
  333MOL0     H44921  10.339   9.317   7.977 -1.2663  1.2438  3.8513
  333MOL0     H44922  10.390   9.254   8.128 -0.7768 -0.0933 -0.5016
  333MOL0     H44923  10.572   9.382   8.022 -2.0658 -0.6928  3.1824
  333MOL0     H44924  10.622   9.219   8.014 -0.4967 -2.3754 -1.3627
  333MOL0     H44925  10.491   9.378   7.782  1.6159 -1.1007 -3.3861
  333MOL0     H44926  10.508   9.201   7.789  2.0936 -1.0547 -2.1222
  333MOL0     H44927  10.725   9.415   7.838 -1.2767  0.4002 -1.2135
  333MOL0     H44928  10.752   9.238   7.818  3.4076  1.2713 -0.1557
  333MOL0     H44929  10.789   9.373   7.598  0.2152 -0.1720  0.4466
  333MOL0     H44930  10.625   9.426   7.603  4.7018  2.7678  0.1975
  333MOL0     H44931  10.731   9.136   7.588 -0.9566 -2.1025 -3.0619
  333MOL0     H44932  10.568   9.178   7.561  0.4029  1.0700  1.4689
  333MOL0     H44933  10.771   9.315   7.373 -1.8901  0.9601 -2.1531
  333MOL0     H44934  10.622   9.240   7.336 -1.0180  0.3400  1.0702
  333MOL0     H44935  10.881   9.100   7.390  0.0358  0.3791 -1.5304
  333MOL0     H44936  10.810   9.129   7.234 -1.4682 -1.0702 -0.7329
  333MOL0     H44937  10.299   8.917   7.825 -0.0371 -1.0842  2.0910
  333MOL0     H44938  10.067   8.855   7.741  0.5052 -2.7404  0.9898
  333MOL0     H44939   9.792   8.592   7.727 -1.3107 -2.9580 -2.6577
  333MOL0     H44940   9.599   8.519   7.594  1.2392 -1.3110  1.7178
  333MOL0     H44941   7.859   7.785   8.023 -0.2991  2.0792 -1.2302
  333MOL0     H44942   7.666   7.744   7.871 -0.0559  1.4641 -1.6445
  333MOL0     H44943   7.463   7.451   7.683 -0.9903  1.3048  1.9845
  333MOL0     H44944   7.231   7.361   7.585 -1.5491  0.8392  0.9501
  333MOL0     H44945   7.018   7.685   7.424  0.8537 -0.7396  1.5957
  333MOL0     H44946   6.983   7.600   7.271  2.8564  1.6782 -0.2467
  333MOL0     H44947   6.788   7.611   7.434 -1.5974 -1.2304  3.9340
  333MOL0     H44948   6.878   7.530   7.548  0.6358  0.1846  0.1342
  333MOL0     H44949   6.868   7.300   7.416  0.2700 -0.4852 -0.1832
  333MOL0     H44950   6.823   7.385   7.274 -3.3185 -1.0960  0.2624
  333MOL0     H44951   6.627   7.450   7.331  0.5510 -0.0479 -0.7067
  333MOL0     H44952   6.637   7.421   7.508  0.2686  1.6715 -0.7162
  333MOL0     H44953   6.550   7.029   7.379 -1.9528 -0.8024  0.9719
  333MOL0     H44954   7.232   7.697   7.320 -0.1131  0.5033  0.1019
  333MOL0     H44955   7.462   7.759   7.395  0.7205 -2.1253 -1.6365
  334MOL0     O44956   4.745   3.513   9.194 -0.5913 -0.7656 -0.1321
  334MOL0     C44957   4.648   3.569   9.239 -0.3606  0.5848 -0.2931
  334MOL0     O44958   4.602   3.690   9.190  0.7904 -0.4725  0.7840
  334MOL0     C44959   4.676   3.775   9.110 -0.0214  1.2062 -0.0019
  334MOL0     C44960   4.770   3.744   9.012  0.5592  0.0597 -0.0774
  334MOL0     C44961   4.842   3.836   8.948 -0.0633  0.3113 -0.1458
  334MOL0     C44962   4.831   3.971   8.981  0.2089  0.6179  0.1430
  334MOL0     O44963   4.926   4.056   8.917  0.2027 -0.1599 -0.3919
  334MOL0     C44964   4.873   4.191   8.888  0.5373 -0.1658 -0.9083
  334MOL0     C44965   4.906   4.253   8.754  0.6779  0.5259 -0.4094
  334MOL0     C44966   4.900   4.405   8.752  0.3399 -0.3976  0.6886
  334MOL0     C44967   4.762   4.466   8.743 -0.5924  0.8270  0.5036
  334MOL0     C44968   4.742   4.629   8.755 -0.4776  0.1495  0.6735
  334MOL0     C44969   4.808   4.696   8.630  0.1314 -0.3489 -0.2347
  334MOL0     C44970   4.700   4.711   8.520 -0.6176 -0.1411 -0.5550
  334MOL0     C44971   4.762   4.784   8.405 -0.0055 -0.5664 -0.3753
  334MOL0     N44972   4.661   4.810   8.302  0.4578  0.1436 -1.3288
  334MOL0     C44973   4.617   4.720   8.218  1.1763  0.4938  0.6084
  334MOL0     C44974   4.525   4.785   8.142 -0.1632 -0.3269 -0.0048
  334MOL0     C44975   4.436   4.728   8.030 -0.3186  0.2482 -0.0457
  334MOL0     C44976   4.451   4.820   7.904  0.4240 -0.2003  0.1003
  334MOL0     C44977   4.330   4.913   7.877  0.8341  0.4177  0.1813
  334MOL0     C44978   4.299   5.006   7.992 -0.3173  0.1797 -0.3765
  334MOL0     O44979   4.172   5.074   7.972 -0.6054 -0.1585 -0.3972
  334MOL0     C44980   4.123   5.146   8.081 -1.0817 -0.8605  0.2206
  334MOL0     C44981   3.995   5.189   8.053 -0.1765  0.0846 -1.0208
  334MOL0     C44982   3.922   5.264   8.146  0.9944 -0.3111  0.9201
  334MOL0     C44983   3.785   5.326   8.115 -0.5826  0.3928  0.2217
  334MOL0     C44984   3.988   5.298   8.270 -0.4406 -0.1485 -0.5454
  334MOL0     C44985   3.929   5.384   8.374  0.4360 -1.4145 -0.4872
  334MOL0     O44986   4.011   5.472   8.427 -0.4000  0.1871 -0.0335
  334MOL0     C44987   3.959   5.560   8.509  0.6399 -1.1977  0.1499
  334MOL0     C44988   3.928   5.538   8.649  0.3334 -0.4175  0.7238
  334MOL0     C44989   3.878   5.645   8.734 -0.0953 -0.2670 -0.4088
  334MOL0     C44990   3.876   5.773   8.682  0.1109  0.7960  0.1599
  334MOL0     O44991   3.845   5.885   8.751  0.3285 -0.4398  0.1545
  334MOL0     C44992   3.948   5.921   8.840  0.4071 -0.3591 -0.7498
  334MOL0     C44993   3.919   6.072   8.894 -0.4372  0.3212  0.7695
  334MOL0     C44994   4.029   6.142   8.974  0.0121 -0.0699 -0.9560
  334MOL0     C44995   3.965   6.275   9.016 -0.7783 -0.0961  0.3571
  334MOL0     C44996   4.058   6.363   9.104  0.1356 -0.3557  0.0845
  334MOL0     C44997   4.089   6.304   9.246 -0.0038  0.7530  0.0642
  334MOL0     C44998   4.216   6.360   9.298  0.0588  0.0383 -0.2719
  334MOL0     C44999   4.258   6.298   9.426  0.4335  0.4375  1.2269
  334MOL0    Cl45000   4.315   6.128   9.379 -0.4999  0.4065 -0.6953
  334MOL0     C45001   3.912   5.789   8.545  0.1923  0.0327 -0.6347
  334MOL0     C45002   3.963   5.691   8.462 -0.1187  0.4388 -0.7434
  334MOL0     O45003   3.808   5.366   8.405  0.5498  0.0970  0.3626
  334MOL0     C45004   4.121   5.267   8.292  0.2844  0.2765 -0.5920
  334MOL0     C45005   4.188   5.179   8.202 -0.3099  0.4510 -0.5500
  334MOL0     N45006   4.526   4.914   8.195  0.5093  0.0199  0.7880
  334MOL0     N45007   4.604   4.934   8.284 -0.5294 -0.1331 -0.3450
  334MOL0     C45008   4.733   4.009   9.078 -0.3902  0.4399  0.0217
  334MOL0     C45009   4.659   3.911   9.140 -0.2358  0.6597 -0.1162
  334MOL0     C45010   4.584   3.504   9.356  0.7996 -0.9338  0.3720
  334MOL0     C45011   4.490   3.585   9.425 -0.2836 -0.2447 -0.3415
  334MOL0     C45012   4.403   3.521   9.515 -0.1197 -0.2300 -0.4613
  334MOL0     C45013   4.429   3.390   9.556 -0.7747  0.3493 -0.6348
  334MOL0     O45014   4.337   3.344   9.654 -0.1529  0.6999  0.2235
  334MOL0     C45015   4.387   3.346   9.787 -0.1570 -0.4007  0.3048
  334MOL0     C45016   4.273   3.330   9.902  0.7805 -0.4072  0.6034
  334MOL0     C45017   4.332   3.321  10.037 -0.2407 -0.0962 -0.7024
  334MOL0     C45018   4.241   3.347  10.161 -0.2706  0.5088  0.5324
  334MOL0     C45019   4.313   3.296  10.284  0.4420  0.0561  0.2923
  334MOL0     C45020   4.386   3.273  10.374 -0.2753  0.3885  0.1290
  334MOL0     C45021   4.539   3.315   9.502  0.1296 -0.0604 -0.5056
  334MOL0     C45022   4.611   3.372   9.398 -0.3357  0.1506  0.3254
  334MOL0     H45023   4.784   3.639   8.987  0.5477  0.1075 -0.2863
  334MOL0     H45024   4.917   3.795   8.881 -0.0726 -0.7536  0.4809
  334MOL0     H45025   4.764   4.185   8.891  0.5482 -0.1175 -0.0025
  334MOL0     H45026   4.889   4.263   8.970 -1.4787 -0.6983  0.0126
  334MOL0     H45027   5.013   4.233   8.744  0.8737  0.5679  1.2273
  334MOL0     H45028   4.857   4.200   8.672  1.4067 -0.3074 -0.3186
  334MOL0     H45029   4.951   4.455   8.835  0.7504 -0.6412  0.5868
  334MOL0     H45030   4.947   4.423   8.654 -1.4743 -1.4222 -0.4258
  334MOL0     H45031   4.715   4.423   8.654  1.9169 -3.6754  1.0294
  334MOL0     H45032   4.708   4.426   8.829 -0.0206 -1.2111 -0.0140
  334MOL0     H45033   4.635   4.648   8.768 -0.8162 -0.9973 -0.3041
  334MOL0     H45034   4.804   4.662   8.840  2.6017 -2.3040 -0.4007
  334MOL0     H45035   4.851   4.795   8.651 -0.5569  0.5346 -2.5797
  334MOL0     H45036   4.884   4.633   8.583 -1.6165  0.6010 -4.8683
  334MOL0     H45037   4.663   4.614   8.487 -2.2103  1.4621 -3.9541
  334MOL0     H45038   4.619   4.769   8.566  1.3132 -0.5597  3.9254
  334MOL0     H45039   4.846   4.725   8.368  0.8010 -0.4909  1.2526
  334MOL0     H45040   4.810   4.876   8.438 -0.0555  0.5103 -3.0512
  334MOL0     H45041   4.641   4.614   8.225  0.7098  0.4992  3.9271
  334MOL0     H45042   4.484   4.632   8.012  0.6767  0.6712  0.2865
  334MOL0     H45043   4.329   4.715   8.049 -0.3479 -0.4464 -0.6732
  334MOL0     H45044   4.460   4.755   7.816 -0.4186  0.3283 -0.3930
  334MOL0     H45045   4.542   4.877   7.927  0.8194 -1.0529  0.6969
  334MOL0     H45046   4.241   4.849   7.878  2.0374 -1.3033  1.5225
  334MOL0     H45047   4.341   4.962   7.780 -0.4787  2.1827  0.8583
  334MOL0     H45048   4.374   5.077   8.028  0.3922 -1.8064  2.4038
  334MOL0     H45049   4.287   4.940   8.078  0.9548  1.1666  0.6030
  334MOL0     H45050   3.937   5.152   7.969 -1.5613 -0.0734 -0.0267
  334MOL0     H45051   3.766   5.295   8.012  1.2534  0.0402 -0.0418
  334MOL0     H45052   3.714   5.288   8.189  1.5891  0.3536  2.4159
  334MOL0     H45053   3.804   5.434   8.116  1.2071  0.1141  1.1813
  334MOL0     H45054   3.937   5.437   8.688 -0.8634  0.4607  3.5730
  334MOL0     H45055   3.839   5.612   8.829 -0.4905 -0.6354 -0.6916
  334MOL0     H45056   3.955   5.851   8.924 -3.5114  0.3889  0.4155
  334MOL0     H45057   4.044   5.919   8.787 -0.0202 -1.5719 -1.5256
  334MOL0     H45058   3.899   6.122   8.799 -1.7915 -1.2605  0.1682
  334MOL0     H45059   3.825   6.072   8.950 -1.1132 -0.5836 -0.3303
  334MOL0     H45060   4.114   6.167   8.911  0.5790  2.1644  0.5965
  334MOL0     H45061   4.066   6.091   9.063  0.4481  1.4391 -0.2572
  334MOL0     H45062   3.936   6.322   8.921 -0.1945 -1.3024 -0.4413
  334MOL0     H45063   3.869   6.265   9.068 -0.0070 -0.5935  1.7307
  334MOL0     H45064   4.015   6.462   9.118  2.5436  0.9674 -1.2210
  334MOL0     H45065   4.153   6.377   9.051  0.0384 -1.6874 -0.5029
  334MOL0     H45066   4.002   6.328   9.307  0.7085 -1.6489  2.1857
  334MOL0     H45067   4.096   6.195   9.237 -1.8884  0.5609  0.5165
  334MOL0     H45068   4.205   6.468   9.312  1.3583  0.1626 -0.1520
  334MOL0     H45069   4.294   6.341   9.224 -0.1206  0.0734 -0.4712
  334MOL0     H45070   4.179   6.297   9.501 -0.1074  0.0555  0.6566
  334MOL0     H45071   4.343   6.353   9.467  0.0234  1.2888  0.9405
  334MOL0     H45072   3.897   5.891   8.509 -2.0971  0.0278  0.1378
  334MOL0     H45073   3.997   5.718   8.363  1.5648  2.4941  0.3099
  334MOL0     H45074   4.166   5.289   8.388 -1.5613 -0.0781  0.4066
  334MOL0     H45075   4.282   5.134   8.231 -0.0720  1.4135  0.2011
  334MOL0     H45076   4.722   4.117   9.083  2.1173  0.7959 -0.5541
  334MOL0     H45077   4.588   3.923   9.220  0.2092 -1.5434  0.6803
  334MOL0     H45078   4.481   3.688   9.391 -0.6564 -0.0211  0.4013
  334MOL0     H45079   4.317   3.570   9.560 -0.4486 -1.1480 -0.0516
  334MOL0     H45080   4.467   3.274   9.804  0.4390  0.6793  2.6065
  334MOL0     H45081   4.435   3.442   9.810 -3.2636  1.6099 -0.9777
  334MOL0     H45082   4.208   3.249   9.870  0.1933 -0.8864  2.8308
  334MOL0     H45083   4.210   3.419   9.901  3.0330  1.3392  2.3311
  334MOL0     H45084   4.415   3.391  10.050  0.3939 -1.1832  1.7612
  334MOL0     H45085   4.373   3.219  10.046 -1.7823 -0.5617  2.8739
  334MOL0     H45086   4.147   3.291  10.165  1.1598 -2.1808 -0.7768
  334MOL0     H45087   4.214   3.452  10.175 -0.2285  0.9117 -1.9214
  334MOL0     H45088   4.442   3.256  10.464 -0.5915  0.3506  0.3201
  334MOL0     H45089   4.558   3.213   9.533  2.1113 -0.3333 -2.3221
  334MOL0     H45090   4.692   3.311   9.357 -0.1630  0.9818 -0.6135
  335MOL0     O45091   5.302   8.035   2.348 -0.4917  0.0516  0.3767
  335MOL0     C45092   5.422   8.034   2.350  0.0477 -0.3517  1.2893
  335MOL0     O45093   5.496   8.149   2.332  0.0730 -0.0708 -0.0143
  335MOL0     C45094   5.432   8.266   2.310  0.3693  0.2498  0.2649
  335MOL0     C45095   5.338   8.268   2.205  0.1734  0.1529 -0.3197
  335MOL0     C45096   5.290   8.388   2.160 -0.0320  0.5580 -0.8117
  335MOL0     C45097   5.329   8.509   2.215 -0.0130  0.8056 -0.9145
  335MOL0     O45098   5.281   8.623   2.164  0.3333 -0.3471  0.4226
  335MOL0     C45099   5.316   8.759   2.204 -0.4107  0.1977  1.0403
  335MOL0     C45100   5.199   8.849   2.161  0.6689  0.1449 -0.6242
  335MOL0     C45101   5.209   8.998   2.222  0.0692 -0.1179 -0.0694
  335MOL0     C45102   5.083   9.084   2.198  0.1895 -0.1881  0.6383
  335MOL0     C45103   5.055   9.120   2.051  0.6133  0.3204  1.0284
  335MOL0     C45104   4.905   9.130   2.021  0.7327 -0.4981  0.1048
  335MOL0     C45105   4.860   9.147   1.872 -0.0054 -0.5148 -0.1056
  335MOL0     C45106   4.713   9.130   1.831 -0.0738  0.2442  0.0351
  335MOL0     N45107   4.657   8.994   1.853  0.5286 -0.1587  0.7809
  335MOL0     C45108   4.637   8.895   1.749 -0.4631 -1.0315  0.6434
  335MOL0     C45109   4.569   8.797   1.800 -0.1223 -0.4350  0.0700
  335MOL0     C45110   4.504   8.673   1.738  0.0354 -0.0900 -0.8810
  335MOL0     C45111   4.479   8.662   1.592 -0.7459  0.0890 -1.1709
  335MOL0     C45112   4.362   8.552   1.572 -1.2442 -0.4188  0.7430
  335MOL0     C45113   4.325   8.554   1.419  0.6080  0.2717  0.8383
  335MOL0     O45114   4.232   8.453   1.392 -0.3381 -0.4228 -0.1385
  335MOL0     C45115   4.182   8.439   1.266 -0.1561 -0.5878  0.2697
  335MOL0     C45116   4.056   8.375   1.268 -0.3129  0.4198  0.6608
  335MOL0     C45117   3.985   8.348   1.150  0.2877 -0.0576 -0.1428
  335MOL0     C45118   3.847   8.289   1.158  0.4168 -0.2241 -0.3467
  335MOL0     C45119   4.045   8.382   1.032  1.0254  0.3018  0.3290
  335MOL0     C45120   3.992   8.342   0.895 -0.2383 -0.2481 -0.0366
  335MOL0     O45121   3.907   8.239   0.892  0.9159  0.9238 -0.2334
  335MOL0     C45122   3.794   8.246   0.805  0.9787  0.8968  0.3858
  335MOL0     C45123   3.758   8.126   0.740  0.0886  0.3661  0.0189
  335MOL0     C45124   3.632   8.108   0.663 -0.0314  0.2142  0.3976
  335MOL0     C45125   3.538   8.210   0.671  0.2107  0.2034  0.7502
  335MOL0     O45126   3.415   8.220   0.608 -0.2554 -0.3098  0.5694
  335MOL0     C45127   3.361   8.091   0.555 -0.6382 -0.5731  0.0972
  335MOL0     C45128   3.213   8.086   0.542 -0.2557  0.2352  0.2856
  335MOL0     C45129   3.150   8.095   0.682 -0.9304  0.3003 -0.2700
  335MOL0     C45130   3.000   8.081   0.671 -0.3591 -0.1823  0.4559
  335MOL0     C45131   2.938   8.109   0.805  0.1260 -0.9844 -0.0517
  335MOL0     C45132   2.786   8.128   0.814  0.1391 -0.3702  0.7227
  335MOL0     C45133   2.714   7.991   0.801  0.2290 -1.0895 -0.5698
  335MOL0     C45134   2.569   8.017   0.831  0.0493  0.8917 -0.6517
  335MOL0    Cl45135   2.539   8.029   1.014 -0.3077 -0.2650  0.5514
  335MOL0     C45136   3.567   8.323   0.748 -0.8521 -0.0048 -0.0407
  335MOL0     C45137   3.691   8.337   0.811 -0.4004  0.0982  0.1380
  335MOL0     O45138   4.022   8.415   0.794  0.2331 -0.3185  0.3777
  335MOL0     C45139   4.170   8.448   1.028  1.4063 -0.8336  0.1641
  335MOL0     C45140   4.232   8.479   1.145 -0.6239 -0.5513  0.1251
  335MOL0     N45141   4.549   8.827   1.938 -0.2149 -0.5324  0.0549
  335MOL0     N45142   4.588   8.951   1.963  0.3548  0.2304  0.2763
  335MOL0     C45143   5.424   8.510   2.322  0.0539  0.1090 -0.6877
  335MOL0     C45144   5.471   8.387   2.370  1.0178 -0.0591 -0.5572
  335MOL0     C45145   5.503   7.911   2.344 -0.2782  0.5552 -0.8806
  335MOL0     C45146   5.639   7.897   2.380  0.3156 -0.0672  0.8303
  335MOL0     C45147   5.719   7.781   2.357 -0.5066  0.2015  0.1828
  335MOL0     C45148   5.664   7.657   2.311  0.2045  0.5383  0.4725
  335MOL0     O45149   5.722   7.535   2.298  0.1549 -0.1535 -0.6156
  335MOL0     C45150   5.864   7.534   2.282 -0.1551 -0.4221 -0.3201
  335MOL0     C45151   5.908   7.387   2.264  0.2899 -0.2093  0.6704
  335MOL0     C45152   5.849   7.317   2.144 -0.4871  0.3440  0.5859
  335MOL0     C45153   5.885   7.166   2.114 -1.0626 -0.3370 -0.5621
  335MOL0     C45154   5.910   7.094   2.239  0.2636 -0.3776  0.5183
  335MOL0     C45155   5.932   7.044   2.349 -0.2378  1.0169 -0.6060
  335MOL0     C45156   5.530   7.673   2.275 -1.0008  0.3092 -0.7242
  335MOL0     C45157   5.452   7.791   2.293 -0.1361  0.3113 -0.4848
  335MOL0     H45158   5.304   8.175   2.160  0.2286 -0.5341  1.0260
  335MOL0     H45159   5.219   8.381   2.079  1.2213  1.4798 -2.0416
  335MOL0     H45160   5.331   8.762   2.312  2.0380  0.1400  0.7571
  335MOL0     H45161   5.412   8.797   2.168 -0.4417 -0.9352 -0.3106
  335MOL0     H45162   5.197   8.844   2.052  0.1182 -0.6955 -0.5807
  335MOL0     H45163   5.109   8.810   2.209  0.0715  1.4295 -0.6658
  335MOL0     H45164   5.225   8.989   2.330  5.2596  2.7540 -0.2706
  335MOL0     H45165   5.289   9.057   2.177 -2.4383  2.8028 -1.0592
  335MOL0     H45166   4.998   9.024   2.231 -0.9006  0.7332 -0.3757
  335MOL0     H45167   5.081   9.179   2.252 -1.8866  2.8070 -3.9723
  335MOL0     H45168   5.100   9.218   2.030  0.1043  0.9099  2.5352
  335MOL0     H45169   5.098   9.043   1.987  0.5418  0.1512  1.1817
  335MOL0     H45170   4.864   9.034   2.053  1.8537 -0.8680  0.4738
  335MOL0     H45171   4.863   9.206   2.087  1.5092 -0.5713  0.6968
  335MOL0     H45172   4.904   9.237   1.828 -0.5991  0.9960  2.2216
  335MOL0     H45173   4.910   9.062   1.825 -0.8248 -1.7970  1.2522
  335MOL0     H45174   4.694   9.157   1.726 -0.1201  3.1868  0.6978
  335MOL0     H45175   4.649   9.201   1.885 -0.3370 -1.1525  1.6072
  335MOL0     H45176   4.669   8.916   1.647 -1.3990 -0.1598  0.5160
  335MOL0     H45177   4.571   8.596   1.778  0.1376  0.3357 -0.2136
  335MOL0     H45178   4.408   8.666   1.790  0.4800  0.7186  0.0750
  335MOL0     H45179   4.572   8.615   1.558  0.5848  1.9673 -0.3035
  335MOL0     H45180   4.471   8.761   1.548 -0.0780  0.3034 -0.8319
  335MOL0     H45181   4.275   8.573   1.635 -0.8265 -2.5490  2.1331
  335MOL0     H45182   4.392   8.449   1.593 -1.4298 -0.4642  0.7773
  335MOL0     H45183   4.410   8.528   1.356 -0.6494 -1.4189 -0.2558
  335MOL0     H45184   4.273   8.647   1.396 -0.0595  0.1495  1.7658
  335MOL0     H45185   4.021   8.333   1.361 -1.6179  0.1950  0.0851
  335MOL0     H45186   3.779   8.328   1.081 -0.6387 -1.1937  0.0742
  335MOL0     H45187   3.844   8.181   1.171 -0.6461 -0.0335  1.1816
  335MOL0     H45188   3.794   8.328   1.245  0.3844  0.7574 -0.7872
  335MOL0     H45189   3.815   8.034   0.747 -1.1513 -0.3911  0.4247
  335MOL0     H45190   3.622   8.008   0.621 -0.7688 -0.3028  1.7424
  335MOL0     H45191   3.418   8.076   0.462 -1.7600 -2.7566 -0.3105
  335MOL0     H45192   3.398   8.009   0.617  0.5515  1.1149  1.7157
  335MOL0     H45193   3.189   8.174   0.482 -1.5477  1.3411  2.3191
  335MOL0     H45194   3.187   7.993   0.492 -1.7824  0.5795  0.3905
  335MOL0     H45195   3.172   8.190   0.733  0.6258 -0.7955  1.2460
  335MOL0     H45196   3.201   8.018   0.741 -1.7961 -0.9245 -1.0771
  335MOL0     H45197   2.968   8.157   0.599 -1.2671 -0.4239  0.5888
  335MOL0     H45198   2.980   7.977   0.642  4.2821 -1.1398 -0.1336
  335MOL0     H45199   2.979   8.207   0.828 -0.8028 -1.1162  2.4391
  335MOL0     H45200   2.974   8.042   0.884 -0.4210 -2.1576 -0.7685
  335MOL0     H45201   2.757   8.170   0.910 -1.3072  0.6250 -0.1113
  335MOL0     H45202   2.753   8.190   0.730  2.5346  1.8360  1.2751
  335MOL0     H45203   2.751   7.919   0.874 -0.8513 -0.6470  0.4521
  335MOL0     H45204   2.723   7.964   0.695  3.0203 -0.3297 -0.5918
  335MOL0     H45205   2.508   7.931   0.800 -0.4577  0.8777  0.3679
  335MOL0     H45206   2.520   8.101   0.781 -2.8600 -0.5065 -0.3356
  335MOL0     H45207   3.495   8.404   0.759 -1.7938 -0.9885  1.4321
  335MOL0     H45208   3.691   8.428   0.870 -0.2442 -0.6269  1.2916
  335MOL0     H45209   4.220   8.488   0.940  1.5457  1.1740  1.0896
  335MOL0     H45210   4.317   8.545   1.154 -2.0816  1.0922  3.6947
  335MOL0     H45211   5.470   8.605   2.347 -0.2873  0.8554 -2.7019
  335MOL0     H45212   5.541   8.388   2.452  1.0286 -2.1169 -0.4815
  335MOL0     H45213   5.688   7.983   2.424  0.6837 -0.8205  1.9286
  335MOL0     H45214   5.816   7.781   2.405 -0.3018 -1.4708 -0.1598
  335MOL0     H45215   5.896   7.588   2.193 -0.2537 -0.4339 -0.3635
  335MOL0     H45216   5.917   7.582   2.364 -0.1690  1.5278 -1.3914
  335MOL0     H45217   5.872   7.330   2.351  1.2911 -1.5561  0.2329
  335MOL0     H45218   6.016   7.377   2.269  0.1909 -1.3349  0.9946
  335MOL0     H45219   5.878   7.358   2.047  2.1568 -1.7417  0.3583
  335MOL0     H45220   5.740   7.319   2.140 -0.6597 -3.3818  0.0145
  335MOL0     H45221   5.966   7.153   2.042  0.5074 -1.9309  1.3648
  335MOL0     H45222   5.801   7.118   2.064 -2.3611  1.7051 -0.4523
  335MOL0     H45223   5.959   6.977   2.428 -0.5853 -0.9213 -2.0537
  335MOL0     H45224   5.474   7.586   2.243 -2.7085 -1.2857  5.3132
  335MOL0     H45225   5.345   7.779   2.277  0.1017 -0.6937 -1.4414
  336MOL0     O45226   9.034   5.892   3.608  0.4699  0.6176 -0.2497
  336MOL0     C45227   8.919   5.844   3.584  0.2131 -0.8734 -0.1947
  336MOL0     O45228   8.836   5.803   3.683  0.6258 -0.9778 -0.0724
  336MOL0     C45229   8.893   5.787   3.810  0.0922 -0.1370 -0.3182
  336MOL0     C45230   8.958   5.667   3.854  1.0544  0.0519  0.3288
  336MOL0     C45231   8.988   5.647   3.989 -0.1623  0.8288  0.5760
  336MOL0     C45232   8.996   5.761   4.070  0.1783  0.2502 -0.0730
  336MOL0     O45233   9.046   5.761   4.196  0.0216  0.3549  0.2615
  336MOL0     C45234   9.134   5.658   4.237 -0.3879  0.0842  0.4668
  336MOL0     C45235   9.180   5.683   4.379  0.3397 -0.4456 -0.6679
  336MOL0     C45236   9.291   5.603   4.424 -0.0340 -0.6274 -0.2347
  336MOL0     C45237   9.324   5.611   4.569 -0.4393  0.6289  0.3253
  336MOL0     C45238   9.436   5.515   4.604 -1.1098 -0.8525  0.4915
  336MOL0     C45239   9.374   5.373   4.643  0.6326  0.3121  0.6733
  336MOL0     C45240   9.480   5.261   4.678  0.1548 -0.4374  0.6613
  336MOL0     C45241   9.507   5.159   4.566 -0.0609 -0.5947  0.6840
  336MOL0     N45242   9.629   5.076   4.593  0.4549  0.1998 -0.4060
  336MOL0     C45243   9.645   4.992   4.697 -0.0449 -0.4755 -0.8058
  336MOL0     C45244   9.768   4.936   4.698 -0.1053  0.1373  0.1294
  336MOL0     C45245   9.820   4.840   4.805  0.4592  0.3319 -0.0090
  336MOL0     C45246   9.948   4.892   4.880 -0.9465  0.0467 -1.1636
  336MOL0     C45247   9.999   4.786   4.990  0.0610 -0.1777 -0.7425
  336MOL0     C45248  10.039   4.645   4.943 -0.0685 -0.4630 -0.8907
  336MOL0     O45249  10.155   4.603   5.014  0.1017 -0.0373 -0.2066
  336MOL0     C45250  10.280   4.656   4.994 -0.0557  0.2866 -0.2645
  336MOL0     C45251  10.324   4.734   4.895 -0.6760 -0.1697 -0.2616
  336MOL0     C45252  10.443   4.805   4.895  0.0171  0.6149  0.2896
  336MOL0     C45253  10.454   4.926   4.789  0.0687  0.1061 -0.3411
  336MOL0     C45254  10.542   4.775   4.993  0.0209 -0.7424  0.0881
  336MOL0     C45255  10.679   4.835   5.002 -0.1233 -0.6092  0.6480
  336MOL0     O45256  10.733   4.838   5.122 -0.6316 -0.3690  0.1251
  336MOL0     C45257  10.783   4.954   5.165 -0.2259  0.2354 -0.3024
  336MOL0     C45258  10.921   4.967   5.170 -0.3214  0.4135  0.7127
  336MOL0     C45259  10.987   5.083   5.201 -0.2997  0.2424 -0.4766
  336MOL0     C45260  10.916   5.197   5.240 -0.2089  0.0267  0.1541
  336MOL0     O45261  10.996   5.301   5.287 -0.0103 -0.2223  0.3656
  336MOL0     C45262  10.938   5.423   5.314  0.4275  0.6729  0.2334
  336MOL0     C45263  11.049   5.520   5.348 -0.1011  0.6207 -0.6724
  336MOL0     C45264  11.009   5.666   5.359 -0.5388 -0.6225 -0.4305
  336MOL0     C45265  10.947   5.724   5.233 -0.1189 -0.1185 -0.0826
  336MOL0     C45266  10.934   5.879   5.250 -0.1667  0.1373 -0.2213
  336MOL0     C45267  10.874   5.945   5.126  0.0005 -0.0082 -0.4699
  336MOL0     C45268  10.952   5.936   5.001  0.9673  0.2420  0.1800
  336MOL0     C45269  10.868   6.017   4.896 -1.2435  0.7219  0.3748
  336MOL0    Cl45270  10.945   6.039   4.742 -0.4950 -0.1004 -0.0432
  336MOL0     C45271  10.775   5.183   5.237  0.1065 -0.9685 -0.1035
  336MOL0     C45272  10.712   5.063   5.196 -1.1226  0.3215  0.4990
  336MOL0     O45273  10.738   4.851   4.898  0.2219  0.0125  0.1903
  336MOL0     C45274  10.500   4.686   5.090 -0.6124  0.4913 -0.3585
  336MOL0     C45275  10.379   4.625   5.091 -0.0032 -0.5977 -0.9070
  336MOL0     N45276   9.833   4.988   4.582  0.5279 -0.3352  0.0130
  336MOL0     N45277   9.749   5.082   4.529  0.2327  0.6562 -0.2488
  336MOL0     C45278   8.933   5.881   4.036 -1.2953 -0.2437  0.1060
  336MOL0     C45279   8.868   5.884   3.908  0.1734  0.1423 -0.7397
  336MOL0     C45280   8.861   5.880   3.445  0.0824  0.2525  0.2871
  336MOL0     C45281   8.719   5.891   3.418  0.1981 -0.3527  0.5253
  336MOL0     C45282   8.672   5.907   3.293 -0.4231 -0.8964  0.4605
  336MOL0     C45283   8.758   5.923   3.184 -0.6333  0.0254 -0.2498
  336MOL0     O45284   8.736   5.936   3.050 -0.1416 -1.0279  0.0967
  336MOL0     C45285   8.600   5.961   3.020 -0.7990 -0.4596  0.4728
  336MOL0     C45286   8.538   5.828   2.974  0.6946  0.3023  0.2773
  336MOL0     C45287   8.386   5.816   2.951  0.1544  0.3769 -0.2659
  336MOL0     C45288   8.337   5.913   2.838 -0.1168 -1.1195 -0.2634
  336MOL0     C45289   8.405   5.908   2.705  0.0826  0.8788 -0.3868
  336MOL0     C45290   8.456   5.880   2.593  0.4316 -1.3385 -0.0493
  336MOL0     C45291   8.894   5.931   3.203 -0.1833 -0.6314 -0.0470
  336MOL0     C45292   8.943   5.901   3.330  0.3692  0.1685 -0.1313
  336MOL0     H45293   8.947   5.586   3.782 -0.2254 -0.4468  1.0418
  336MOL0     H45294   9.006   5.545   4.021  0.2025  1.3518  2.1635
  336MOL0     H45295   9.084   5.560   4.234 -2.2425  0.8834  2.3211
  336MOL0     H45296   9.230   5.656   4.186 -1.6683  1.6238 -2.1944
  336MOL0     H45297   9.205   5.785   4.407  3.1663 -1.3462  0.4094
  336MOL0     H45298   9.094   5.650   4.439  1.6479 -1.4396  0.7300
  336MOL0     H45299   9.277   5.498   4.397  1.1569 -0.9646  0.4288
  336MOL0     H45300   9.378   5.633   4.365 -1.3041  0.3154 -1.7542
  336MOL0     H45301   9.365   5.710   4.593  2.2017 -0.5614  1.1041
  336MOL0     H45302   9.227   5.596   4.618 -0.6074  1.3826  0.2350
  336MOL0     H45303   9.505   5.504   4.520  0.0585 -1.0445  1.4385
  336MOL0     H45304   9.486   5.551   4.695 -1.1552  2.2369 -0.5977
  336MOL0     H45305   9.312   5.383   4.733 -0.3199  0.9986 -0.0478
  336MOL0     H45306   9.307   5.345   4.562  0.0520  1.9649  0.5318
  336MOL0     H45307   9.572   5.313   4.710  2.0023 -1.7764 -2.1101
  336MOL0     H45308   9.435   5.200   4.757  0.6049  0.4224  1.6248
  336MOL0     H45309   9.513   5.213   4.471 -2.7077 -0.5372  0.4824
  336MOL0     H45310   9.415   5.099   4.564 -2.2370  2.5047  0.3581
  336MOL0     H45311   9.574   4.959   4.771  1.9414 -1.7269  0.6494
  336MOL0     H45312   9.744   4.828   4.882  1.6725 -0.4396  1.1129
  336MOL0     H45313   9.837   4.739   4.766  1.8529  1.4640 -2.5926
  336MOL0     H45314   9.939   4.997   4.912  0.0875 -0.0436 -0.5500
  336MOL0     H45315  10.024   4.898   4.802 -0.8969  2.1752 -1.0140
  336MOL0     H45316   9.918   4.776   5.064 -0.2005  2.4248 -0.5550
  336MOL0     H45317  10.084   4.837   5.036 -0.1614  1.1698 -1.7467
  336MOL0     H45318  10.063   4.640   4.837 -0.7114 -0.8801 -1.0233
  336MOL0     H45319   9.957   4.575   4.962 -0.3852  0.4687  1.5825
  336MOL0     H45320  10.254   4.772   4.821  0.2375 -0.3121 -1.2206
  336MOL0     H45321  10.355   4.959   4.758  0.8744  0.7373 -2.4212
  336MOL0     H45322  10.498   5.015   4.834  1.6080 -0.9777  0.3959
  336MOL0     H45323  10.507   4.895   4.698 -1.7749 -1.1558 -1.0488
  336MOL0     H45324  10.996   4.893   5.142 -1.5840 -0.4846 -0.4457
  336MOL0     H45325  11.095   5.087   5.212 -0.3763  2.7514 -0.0900
  336MOL0     H45326  10.878   5.461   5.230  0.8031  0.9249  0.0766
  336MOL0     H45327  10.885   5.415   5.409  3.3829 -1.5726  1.8224
  336MOL0     H45328  11.096   5.492   5.443 -1.7837 -1.7261 -0.4421
  336MOL0     H45329  11.112   5.517   5.258 -0.9047  0.3924 -1.2363
  336MOL0     H45330  11.094   5.728   5.388  0.3237 -1.9013 -0.1694
  336MOL0     H45331  10.941   5.665   5.444 -1.4378 -2.3917 -1.1113
  336MOL0     H45332  11.007   5.707   5.144  2.1841 -0.0401  1.3596
  336MOL0     H45333  10.850   5.675   5.220  1.1459 -2.3106 -1.8106
  336MOL0     H45334  11.031   5.925   5.272  0.1199 -0.4896 -0.1524
  336MOL0     H45335  10.868   5.906   5.333  0.3655  0.4001  0.1211
  336MOL0     H45336  10.778   5.897   5.104 -2.4954  3.1918  2.3309
  336MOL0     H45337  10.844   6.047   5.150  3.8128  1.1406  0.1605
  336MOL0     H45338  10.941   5.834   4.964  1.0727  1.1333 -2.4930
  336MOL0     H45339  11.060   5.953   5.001  1.0156 -0.0529 -0.2844
  336MOL0     H45340  10.862   6.122   4.929 -0.1447  1.4074 -1.4560
  336MOL0     H45341  10.764   5.987   4.886 -1.3635  1.1303  0.3490
  336MOL0     H45342  10.712   5.268   5.263  0.7580 -1.2869  2.8212
  336MOL0     H45343  10.603   5.070   5.193 -1.1132  1.1394  1.5286
  336MOL0     H45344  10.576   4.646   5.156  0.3045 -1.6650 -2.5779
  336MOL0     H45345  10.343   4.573   5.180  0.4389 -2.9740 -2.0219
  336MOL0     H45346   8.930   5.964   4.106  0.4074  0.6014 -0.7672
  336MOL0     H45347   8.817   5.970   3.865  1.2963 -0.4522 -3.4593
  336MOL0     H45348   8.654   5.882   3.505  0.8529  0.6758  1.1394
  336MOL0     H45349   8.567   5.930   3.287  0.3780  3.2952 -0.3739
  336MOL0     H45350   8.549   6.005   3.107  2.9613  0.9945  2.1449
  336MOL0     H45351   8.604   6.028   2.934 -0.4415 -0.0863  0.7791
  336MOL0     H45352   8.558   5.759   3.057 -0.2141 -0.2877  0.0207
  336MOL0     H45353   8.594   5.792   2.887  1.1612 -0.9104  1.0386
  336MOL0     H45354   8.339   5.836   3.048  0.8499 -2.7872  0.8612
  336MOL0     H45355   8.357   5.713   2.930  0.0178  0.7431 -1.9914
  336MOL0     H45356   8.358   6.016   2.869 -2.5066  0.2371 -2.7297
  336MOL0     H45357   8.228   5.915   2.834 -0.4095  3.1946  2.6370
  336MOL0     H45358   8.500   5.879   2.496 -0.0248  1.1591 -0.3589
  336MOL0     H45359   8.956   5.953   3.117 -2.1087  2.1952 -0.8620
  336MOL0     H45360   9.051   5.889   3.330  0.3897  0.2244 -1.3601
  337MOL0     O45361   0.681   8.315   8.703 -0.1821 -0.2845 -0.2567
  337MOL0     C45362   0.800   8.308   8.749  0.1334 -0.8220  1.0074
  337MOL0     O45363   0.848   8.328   8.875  0.2256 -0.1528  0.5601
  337MOL0     C45364   0.772   8.304   8.988 -0.8336  0.2545 -0.0599
  337MOL0     C45365   0.829   8.341   9.109  0.5131 -0.2924  0.1188
  337MOL0     C45366   0.757   8.319   9.231 -0.7603 -0.3421  0.2400
  337MOL0     C45367   0.629   8.250   9.231 -0.0415  0.1338 -1.2166
  337MOL0     O45368   0.549   8.219   9.331  0.6914 -0.2167 -0.6393
  337MOL0     C45369   0.597   8.264   9.462  0.3773  1.0472  0.7032
  337MOL0     C45370   0.687   8.161   9.532 -0.2066 -0.2355 -0.0136
  337MOL0     C45371   0.626   8.023   9.555 -0.1687  0.1866 -0.3873
  337MOL0     C45372   0.642   7.936   9.432 -0.6867 -0.7215 -0.4092
  337MOL0     C45373   0.616   7.792   9.470  0.4849 -0.2082  0.2840
  337MOL0     C45374   0.751   7.736   9.517  0.0620  0.7801 -0.4563
  337MOL0     C45375   0.762   7.584   9.522  0.1360  0.1924  0.1614
  337MOL0     C45376   0.896   7.520   9.561 -0.3075 -0.2292 -0.5194
  337MOL0     N45377   1.000   7.527   9.458 -0.3501  0.1955  0.3874
  337MOL0     C45378   1.066   7.643   9.423 -0.7395 -0.6368  0.2925
  337MOL0     C45379   1.151   7.599   9.323 -0.0799 -1.4846 -0.2413
  337MOL0     C45380   1.224   7.701   9.233  0.4211  0.0723  0.0726
  337MOL0     C45381   1.361   7.638   9.232 -1.5330  0.8338 -0.5697
  337MOL0     C45382   1.470   7.748   9.208  0.2175  0.7874 -0.2167
  337MOL0     C45383   1.609   7.679   9.194 -0.2397 -0.8411  0.2645
  337MOL0     O45384   1.686   7.795   9.143  0.0389  0.4460  0.4755
  337MOL0     C45385   1.821   7.770   9.109 -0.5093 -0.2154  0.8732
  337MOL0     C45386   1.889   7.651   9.111  0.5096 -0.6943  0.4669
  337MOL0     C45387   2.023   7.637   9.078  0.4798 -0.1762 -0.7126
  337MOL0     C45388   2.080   7.499   9.079 -1.1506  0.2496  0.3344
  337MOL0     C45389   2.080   7.750   9.016 -0.3003 -0.4543  0.6064
  337MOL0     C45390   2.227   7.755   8.975  0.9836 -0.5384  0.6492
  337MOL0     O45391   2.314   7.686   9.052  0.5749  0.4403 -0.2524
  337MOL0     C45392   2.442   7.722   9.014 -0.4035 -1.0830  0.4725
  337MOL0     C45393   2.506   7.659   8.907  0.2904 -0.1755  0.4978
  337MOL0     C45394   2.641   7.690   8.865  0.6249 -1.0479  0.1151
  337MOL0     C45395   2.714   7.782   8.938 -0.0749  0.4973  0.3053
  337MOL0     O45396   2.852   7.813   8.913 -0.4264 -0.1898  0.1901
  337MOL0     C45397   2.894   7.799   8.771  0.5394  0.2770 -0.5653
  337MOL0     C45398   3.039   7.808   8.763  0.1543 -0.0702  1.1291
  337MOL0     C45399   3.118   7.701   8.842  0.3783 -0.1601 -0.4608
  337MOL0     C45400   3.036   7.582   8.908 -0.9374 -0.6243  0.0461
  337MOL0     C45401   3.128   7.461   8.957 -0.1543 -0.6791 -0.2527
  337MOL0     C45402   3.228   7.480   9.075  0.4699  0.2523  0.4498
  337MOL0     C45403   3.336   7.375   9.074 -0.1706  0.1396  0.1278
  337MOL0     C45404   3.437   7.397   9.184 -0.2745 -0.1725  0.6268
  337MOL0    Cl45405   3.367   7.369   9.356 -0.1186  0.0769  0.2725
  337MOL0     C45406   2.655   7.843   9.052 -0.9410  0.1064 -0.8781
  337MOL0     C45407   2.526   7.816   9.085 -0.7249  1.1920 -0.1211
  337MOL0     O45408   2.251   7.840   8.890  0.1728  0.7271  0.1784
  337MOL0     C45409   2.006   7.865   9.004 -0.0353 -0.6419  0.4334
  337MOL0     C45410   1.882   7.880   9.054  0.0780 -0.1082  0.1666
  337MOL0     N45411   1.135   7.469   9.300  0.2475 -0.4714  0.2969
  337MOL0     N45412   1.038   7.423   9.374 -0.7207 -0.7630  0.3195
  337MOL0     C45413   0.577   8.214   9.110 -0.1841  0.8777  0.1524
  337MOL0     C45414   0.654   8.237   8.991 -0.1112  0.2490 -0.3062
  337MOL0     C45415   0.900   8.280   8.635  0.2493 -0.5928 -1.5246
  337MOL0     C45416   1.027   8.235   8.666  1.2205 -0.5771 -0.6669
  337MOL0     C45417   1.108   8.189   8.559  0.0307  0.9722 -0.0335
  337MOL0     C45418   1.067   8.187   8.425 -0.5726 -0.5737 -0.0360
  337MOL0     O45419   1.125   8.124   8.319  0.4302  0.1438 -0.1267
  337MOL0     C45420   1.272   8.123   8.319 -0.7539  0.5233 -0.3695
  337MOL0     C45421   1.327   8.110   8.178 -0.0117  0.1324  0.1951
  337MOL0     C45422   1.283   8.224   8.082 -0.1633  0.0934  0.2691
  337MOL0     C45423   1.184   8.187   7.961 -0.6136  0.0241 -0.5061
  337MOL0     C45424   1.233   8.067   7.899 -0.5983 -0.9939  0.8629
  337MOL0     C45425   1.278   7.968   7.840  0.6272 -0.0760 -0.0768
  337MOL0     C45426   0.938   8.231   8.402  0.1440  0.7219  0.4858
  337MOL0     C45427   0.857   8.279   8.505 -0.3520 -0.3052 -0.4511
  337MOL0     H45428   0.933   8.368   9.115 -0.0502  2.3795 -0.7941
  337MOL0     H45429   0.795   8.372   9.318  0.3291  3.3030 -2.1783
  337MOL0     H45430   0.634   8.366   9.451  0.6210  1.0062  1.1258
  337MOL0     H45431   0.510   8.266   9.529  1.7106  0.1593  2.5705
  337MOL0     H45432   0.783   8.147   9.481 -0.7021 -2.1793 -0.5173
  337MOL0     H45433   0.720   8.211   9.623  1.6385 -0.2995 -0.5941
  337MOL0     H45434   0.678   7.971   9.635 -1.1629  1.0035  0.8278
  337MOL0     H45435   0.522   8.043   9.583  0.0533  3.0114 -1.1991
  337MOL0     H45436   0.579   7.975   9.350 -2.7746 -2.4095  0.3113
  337MOL0     H45437   0.747   7.932   9.402 -0.0494 -1.1535  1.7683
  337MOL0     H45438   0.552   7.796   9.559 -0.9488  3.6263 -0.7185
  337MOL0     H45439   0.567   7.732   9.393 -0.5277  0.5814  0.2851
  337MOL0     H45440   0.823   7.754   9.438 -1.0123  0.2491 -1.5892
  337MOL0     H45441   0.781   7.782   9.612  2.6544 -1.5384 -0.0420
  337MOL0     H45442   0.700   7.545   9.604  0.2511 -2.8633 -1.0447
  337MOL0     H45443   0.719   7.535   9.434 -3.0210  1.4044  0.8972
  337MOL0     H45444   0.884   7.416   9.592  0.5736 -0.0659  0.4306
  337MOL0     H45445   0.954   7.559   9.645 -0.0083 -0.6900 -0.5080
  337MOL0     H45446   1.056   7.748   9.448 -0.0247 -0.1044 -1.4782
  337MOL0     H45447   1.191   7.719   9.131  1.9103  2.1087 -0.1060
  337MOL0     H45448   1.216   7.803   9.271 -0.7119 -0.0293  0.1576
  337MOL0     H45449   1.371   7.566   9.151 -3.0648 -0.1819  0.0848
  337MOL0     H45450   1.382   7.587   9.327  3.6766  1.5507 -1.0806
  337MOL0     H45451   1.466   7.823   9.288 -2.1442  1.4094 -0.8523
  337MOL0     H45452   1.457   7.802   9.113  0.7813  0.8521 -0.2642
  337MOL0     H45453   1.614   7.597   9.122  2.3890 -0.5663  0.0311
  337MOL0     H45454   1.636   7.647   9.295  0.5088  0.0451  0.3518
  337MOL0     H45455   1.833   7.562   9.138  0.4613 -0.6468  0.5202
  337MOL0     H45456   2.014   7.425   9.127 -1.9313 -1.4018 -2.9729
  337MOL0     H45457   2.090   7.473   8.973 -1.1581 -0.6720  0.5486
  337MOL0     H45458   2.183   7.492   9.114 -0.3214 -0.8984 -2.1007
  337MOL0     H45459   2.442   7.587   8.857  0.0464  0.5402 -0.2291
  337MOL0     H45460   2.670   7.630   8.779 -2.0055  0.5465 -2.0429
  337MOL0     H45461   2.869   7.707   8.717  1.0428  1.4095 -2.8614
  337MOL0     H45462   2.830   7.867   8.715 -3.9900 -2.5424  0.6041
  337MOL0     H45463   3.064   7.804   8.656  1.0703  0.2961  1.3227
  337MOL0     H45464   3.069   7.908   8.796 -0.3549 -0.1247  1.7761
  337MOL0     H45465   3.164   7.745   8.930  0.0512  0.7577 -0.7392
  337MOL0     H45466   3.194   7.667   8.771  1.7790 -2.1739  1.8611
  337MOL0     H45467   2.985   7.602   9.003 -0.5920 -1.2048  0.3614
  337MOL0     H45468   2.980   7.545   8.823  0.0570  1.9298 -1.8591
  337MOL0     H45469   3.183   7.440   8.865  2.5960  0.6262  0.9583
  337MOL0     H45470   3.065   7.376   8.983  0.2703 -0.0566  3.3867
  337MOL0     H45471   3.274   7.577   9.053 -1.2494  0.7539 -1.2104
  337MOL0     H45472   3.174   7.472   9.170  2.1722 -0.9955  1.3731
  337MOL0     H45473   3.378   7.370   8.973 -0.4218 -2.5533  0.0867
  337MOL0     H45474   3.310   7.269   9.082 -1.8894  0.3186 -2.2692
  337MOL0     H45475   3.486   7.495   9.180 -0.2024 -0.2022  0.8056
  337MOL0     H45476   3.511   7.319   9.171  0.1135  0.3148 -0.1627
  337MOL0     H45477   2.714   7.905   9.119 -1.1083 -0.8600  0.1991
  337MOL0     H45478   2.484   7.855   9.177 -0.3220 -2.4433  1.8266
  337MOL0     H45479   2.053   7.959   8.979  2.2006 -2.2215 -1.7680
  337MOL0     H45480   1.824   7.972   9.051  0.8287  0.4106  1.2192
  337MOL0     H45481   0.486   8.155   9.101  2.3126 -3.1318 -1.7531
  337MOL0     H45482   0.625   8.198   8.894 -1.0126 -1.1447  0.4918
  337MOL0     H45483   1.077   8.229   8.762  0.2825 -1.2922 -0.2096
  337MOL0     H45484   1.203   8.141   8.580 -1.7883 -2.8276  0.4629
  337MOL0     H45485   1.314   8.215   8.360  0.3492 -0.5815  1.0815
  337MOL0     H45486   1.311   8.047   8.388 -2.8642  3.7923  5.0482
  337MOL0     H45487   1.311   8.009   8.139  1.1522 -1.0655  2.5680
  337MOL0     H45488   1.435   8.119   8.194  0.1936 -0.0564 -0.9821
  337MOL0     H45489   1.379   8.257   8.041 -1.3752  3.9244  0.1717
  337MOL0     H45490   1.243   8.311   8.134  1.6678  2.8868 -2.6137
  337MOL0     H45491   1.185   8.257   7.877 -4.0838 -1.3504 -1.8851
  337MOL0     H45492   1.081   8.170   7.994 -0.6870 -0.7067 -1.0884
  337MOL0     H45493   1.308   7.881   7.786 -3.1023 -0.1728 -2.2879
  337MOL0     H45494   0.891   8.217   8.305  1.5603 -0.6182 -0.0453
  337MOL0     H45495   0.760   8.316   8.476  0.4340  2.0041 -0.3184
  338MOL0     O45496   8.354   2.915   1.526  0.5670 -0.3453 -0.1784
  338MOL0     C45497   8.310   3.033   1.525  0.2196 -0.0235  0.7327
  338MOL0     O45498   8.184   3.073   1.486  0.2803 -0.1084 -0.3771
  338MOL0     C45499   8.095   2.974   1.444 -0.1068  0.3046 -0.0558
  338MOL0     C45500   8.044   2.875   1.525  0.7142  0.3661 -0.6060
  338MOL0     C45501   7.931   2.795   1.490  1.3484 -0.9916  0.3561
  338MOL0     C45502   7.860   2.835   1.373  0.2979  1.2235  0.1641
  338MOL0     O45503   7.742   2.781   1.327  0.3891  0.5902 -0.0286
  338MOL0     C45504   7.650   2.700   1.413 -0.1548 -0.3217 -0.6697
  338MOL0     C45505   7.527   2.641   1.329  0.3242 -0.0606  0.0879
  338MOL0     C45506   7.551   2.585   1.188  0.3582 -0.5852 -1.3286
  338MOL0     C45507   7.649   2.479   1.189 -0.7209  0.6406  0.4853
  338MOL0     C45508   7.687   2.433   1.050 -0.0569  0.1728  0.2374
  338MOL0     C45509   7.797   2.332   1.054 -0.0556  0.2574  0.3194
  338MOL0     C45510   7.830   2.287   0.910 -0.8926  0.0168 -0.7156
  338MOL0     C45511   7.731   2.203   0.838 -0.2836  0.2098 -0.1267
  338MOL0     N45512   7.783   2.177   0.702 -1.2942  0.0298  0.2441
  338MOL0     C45513   7.906   2.122   0.674 -0.1631 -0.8583  0.1630
  338MOL0     C45514   7.905   2.104   0.540 -0.5733  0.3525 -0.2388
  338MOL0     C45515   8.029   2.084   0.458  0.5432 -0.2853  0.4299
  338MOL0     C45516   8.097   2.216   0.416  0.2204 -0.0598 -0.3701
  338MOL0     C45517   8.178   2.214   0.289  0.0775  0.0866  0.5949
  338MOL0     C45518   8.088   2.191   0.162  0.2022  0.6254 -0.8897
  338MOL0     O45519   7.966   2.268   0.154  0.8399  0.0324 -0.1093
  338MOL0     C45520   7.875   2.212   0.075  0.2433  0.0959  0.2235
  338MOL0     C45521   7.753   2.207   0.134  0.4379  0.0952 -0.0373
  338MOL0     C45522   7.641   2.159   0.065  0.3139 -0.5072  0.6287
  338MOL0     C45523   7.518   2.171   0.141  0.4690 -0.0351 -0.2483
  338MOL0     C45524   7.656   2.108  -0.072 -0.5157 -0.2320  0.0312
  338MOL0     C45525   7.541   2.082  -0.152  0.2834 -0.7411  0.2866
  338MOL0     O45526   7.555   2.125  -0.278 -0.5416  0.0183  0.3325
  338MOL0     C45527   7.480   2.060  -0.373  0.3895 -0.0515 -0.7011
  338MOL0     C45528   7.509   1.938  -0.428  0.1839 -0.2679 -0.3221
  338MOL0     C45529   7.426   1.890  -0.528  0.9479  0.4320 -0.2806
  338MOL0     C45530   7.304   1.957  -0.572 -0.5981 -0.5996 -1.1218
  338MOL0     O45531   7.220   1.924  -0.674  0.9441  0.4857  0.1570
  338MOL0     C45532   7.241   1.800  -0.740  0.5804 -0.0789  0.2212
  338MOL0     C45533   7.154   1.789  -0.869  0.3227 -0.3177  0.6930
  338MOL0     C45534   7.190   1.888  -0.977  0.1041 -0.5916  0.4487
  338MOL0     C45535   7.078   1.901  -1.088  0.3890 -0.2480  0.0447
  338MOL0     C45536   7.101   2.009  -1.189 -0.0390  0.6940 -0.2201
  338MOL0     C45537   6.991   2.006  -1.297 -0.0992  0.0519  0.2200
  338MOL0     C45538   6.852   2.023  -1.237  0.7466 -0.4544 -0.1666
  338MOL0     C45539   6.761   2.095  -1.341 -0.4341  0.4339  0.1218
  338MOL0    Cl45540   6.808   2.273  -1.335  0.4618 -0.0966 -0.5677
  338MOL0     C45541   7.281   2.085  -0.522 -0.0590 -1.2055 -0.4368
  338MOL0     C45542   7.369   2.134  -0.420 -1.0714  0.0119  0.5125
  338MOL0     O45543   7.456   2.010  -0.109  1.3292  1.0716 -0.5166
  338MOL0     C45544   7.790   2.105  -0.123 -1.1377 -0.6488 -0.3139
  338MOL0     C45545   7.898   2.157  -0.053  0.0482  0.7479 -0.3672
  338MOL0     N45546   7.782   2.150   0.490  0.0284 -0.1569  0.6139
  338MOL0     N45547   7.712   2.197   0.587  0.4482 -0.3545  0.4152
  338MOL0     C45548   7.916   2.933   1.281 -0.4053  0.8382  0.4590
  338MOL0     C45549   8.034   2.994   1.318  0.5391  0.3652 -0.7454
  338MOL0     C45550   8.416   3.141   1.543 -0.6016 -0.2206  0.3102
  338MOL0     C45551   8.401   3.267   1.605  0.9901  0.3174 -0.2608
  338MOL0     C45552   8.502   3.357   1.608  0.3089  0.4511 -0.1303
  338MOL0     C45553   8.633   3.326   1.580  0.3271  0.5685 -0.1728
  338MOL0     O45554   8.729   3.420   1.593  0.1107 -0.3715 -0.3403
  338MOL0     C45555   8.762   3.466   1.727  0.7591  0.3677 -0.3656
  338MOL0     C45556   8.830   3.367   1.817 -0.3681  0.5918 -0.6551
  338MOL0     C45557   8.821   3.395   1.968  0.1594  0.2708  0.6839
  338MOL0     C45558   8.874   3.528   2.020 -0.0130 -0.1733  0.9277
  338MOL0     C45559   8.882   3.533   2.163  0.4701  0.2214 -0.6257
  338MOL0     C45560   8.882   3.535   2.286  0.1496 -0.3247 -0.1608
  338MOL0     C45561   8.656   3.202   1.520  0.5443 -0.4759  0.2755
  338MOL0     C45562   8.547   3.113   1.496  0.1910  0.4860  0.0214
  338MOL0     H45563   8.088   2.848   1.620  1.7402 -0.0006 -1.1705
  338MOL0     H45564   7.896   2.716   1.555 -0.4540  0.2970  1.0426
  338MOL0     H45565   7.710   2.613   1.442 -4.3690 -2.8059  1.5260
  338MOL0     H45566   7.620   2.748   1.506  2.5553 -1.3592  0.8668
  338MOL0     H45567   7.494   2.561   1.395 -2.9686  2.9717  2.5018
  338MOL0     H45568   7.449   2.717   1.333 -0.2058 -0.6413  2.6828
  338MOL0     H45569   7.454   2.552   1.150 -0.2947  0.6085 -0.7524
  338MOL0     H45570   7.585   2.676   1.138 -3.3693  1.6031 -0.3264
  338MOL0     H45571   7.740   2.512   1.240 -0.6879  2.8140 -0.8416
  338MOL0     H45572   7.604   2.400   1.250 -2.5303  0.9919 -0.3211
  338MOL0     H45573   7.599   2.397   0.996  0.6540 -0.6191 -0.3983
  338MOL0     H45574   7.725   2.523   1.001  1.5422  0.7398  2.3589
  338MOL0     H45575   7.883   2.383   1.098 -0.8162  1.0677  0.8937
  338MOL0     H45576   7.779   2.243   1.116 -0.5647 -0.1994 -0.4605
  338MOL0     H45577   7.851   2.385   0.866 -0.7269  0.9405  1.3271
  338MOL0     H45578   7.925   2.232   0.911  0.1908  1.6959  2.6036
  338MOL0     H45579   7.634   2.253   0.837 -0.2780  0.2349 -1.1418
  338MOL0     H45580   7.699   2.109   0.884  0.7510 -2.6857 -4.5806
  338MOL0     H45581   7.991   2.108   0.740  1.1086  1.1866 -0.9274
  338MOL0     H45582   8.099   2.015   0.507 -1.9576 -4.3925 -1.2354
  338MOL0     H45583   7.997   2.028   0.370 -0.2502 -0.7238  0.9829
  338MOL0     H45584   8.160   2.241   0.502 -3.2799  2.8149  1.6276
  338MOL0     H45585   8.029   2.300   0.405 -1.6579 -1.5207 -0.4226
  338MOL0     H45586   8.263   2.146   0.277  1.5153  2.2903 -2.9599
  338MOL0     H45587   8.224   2.313   0.285  1.8553 -0.7495 -1.7038
  338MOL0     H45588   8.063   2.089   0.132 -1.7421  1.5341 -2.5935
  338MOL0     H45589   8.157   2.218   0.082  0.9936  1.0883 -0.0750
  338MOL0     H45590   7.751   2.233   0.239 -1.0452  2.7694 -0.6665
  338MOL0     H45591   7.523   2.266   0.194  0.7399 -1.4959  2.4915
  338MOL0     H45592   7.430   2.167   0.076 -1.4234 -0.4590  2.2376
  338MOL0     H45593   7.514   2.093   0.217 -1.5303  0.9942  0.7701
  338MOL0     H45594   7.597   1.883  -0.394  0.6091  0.2063 -0.6455
  338MOL0     H45595   7.456   1.794  -0.569  3.7420  1.0958  0.0556
  338MOL0     H45596   7.343   1.791  -0.777  0.6361  0.9842  0.0868
  338MOL0     H45597   7.221   1.713  -0.677  2.9570  0.3896  1.7196
  338MOL0     H45598   7.168   1.690  -0.913  0.7985  0.5009 -1.1119
  338MOL0     H45599   7.050   1.799  -0.839  0.8201  1.5117  1.9601
  338MOL0     H45600   7.284   1.850  -1.018  0.5783 -0.6910  1.5953
  338MOL0     H45601   7.195   1.984  -0.925 -2.7044  0.3302 -0.7498
  338MOL0     H45602   7.072   1.803  -1.136  2.4597 -1.6137  2.3398
  338MOL0     H45603   6.990   1.928  -1.028  0.7440 -0.0402  0.4824
  338MOL0     H45604   7.190   1.987  -1.249 -0.6637 -1.7440 -0.3365
  338MOL0     H45605   7.116   2.105  -1.138  3.3641  0.1382  0.0849
  338MOL0     H45606   7.007   2.085  -1.371 -0.0037  1.4823  1.7110
  338MOL0     H45607   6.996   1.913  -1.355 -1.3282 -1.4001  2.3437
  338MOL0     H45608   6.857   2.079  -1.143  0.6200 -2.7811  1.3042
  338MOL0     H45609   6.806   1.926  -1.218  2.0719 -1.6501 -2.6172
  338MOL0     H45610   6.653   2.089  -1.325 -0.3957  2.2573  1.3642
  338MOL0     H45611   6.779   2.059  -1.442 -2.0239 -2.0957  0.6390
  338MOL0     H45612   7.193   2.131  -0.565  1.3226  1.0247 -1.0745
  338MOL0     H45613   7.359   2.228  -0.367  0.0594  0.3562  0.1398
  338MOL0     H45614   7.822   2.070  -0.220  3.5899  0.2945  0.6721
  338MOL0     H45615   8.001   2.159  -0.089  0.9914 -3.8324  1.4402
  338MOL0     H45616   7.859   2.934   1.189  3.4476  2.5878 -2.1568
  338MOL0     H45617   8.083   3.075   1.264  3.0315 -0.2263  0.4581
  338MOL0     H45618   8.306   3.298   1.647  1.4561  0.6817  0.5327
  338MOL0     H45619   8.487   3.454   1.655 -3.7475 -0.7787  1.5345
  338MOL0     H45620   8.818   3.559   1.710  0.2804  0.5368 -1.0222
  338MOL0     H45621   8.669   3.488   1.781  0.7149  1.3715 -0.8168
  338MOL0     H45622   8.937   3.369   1.794 -0.6388  0.3466 -2.0026
  338MOL0     H45623   8.795   3.264   1.806 -2.2321  0.5691  3.6202
  338MOL0     H45624   8.878   3.321   2.024  4.1544  2.0022 -0.7003
  338MOL0     H45625   8.718   3.378   1.999 -0.7939  1.0367 -1.7923
  338MOL0     H45626   8.823   3.619   1.988  2.9382  0.9307 -1.1031
  338MOL0     H45627   8.980   3.538   1.996 -0.0526 -1.6299  0.0006
  338MOL0     H45628   8.880   3.545   2.393  4.0260  0.8163 -0.0510
  338MOL0     H45629   8.752   3.174   1.477  1.8514  2.1691  1.2848
  338MOL0     H45630   8.553   3.021   1.440 -1.9039  0.9917 -1.1554
  339MOL0     O45631   8.636   7.034   6.382 -0.9231  0.1102  0.1059
  339MOL0     C45632   8.706   7.136   6.363  0.3188 -0.0068  0.5916
  339MOL0     O45633   8.841   7.131   6.379 -0.3952  0.6651 -0.4120
  339MOL0     C45634   8.914   7.016   6.414 -0.0322 -0.4321 -0.4027
  339MOL0     C45635   8.919   6.958   6.542 -0.6589 -0.6050  0.2376
  339MOL0     C45636   8.987   6.834   6.556  0.1174 -0.6063 -0.8163
  339MOL0     C45637   9.055   6.772   6.458  0.8069  0.8627  0.2443
  339MOL0     O45638   9.118   6.652   6.469  0.5016  0.0886  0.1037
  339MOL0     C45639   9.075   6.563   6.575 -0.2404 -0.2188  0.1109
  339MOL0     C45640   9.156   6.429   6.562  0.0022  0.3359 -0.9851
  339MOL0     C45641   9.137   6.314   6.668 -1.3162 -1.0687 -0.4974
  339MOL0     C45642   9.197   6.357   6.801 -0.6830 -0.3300 -0.4273
  339MOL0     C45643   9.162   6.251   6.899 -0.1639  0.2319 -0.2130
  339MOL0     C45644   9.220   6.286   7.034  0.0809  0.7753  0.1957
  339MOL0     C45645   9.218   6.184   7.145 -0.3771 -0.0808 -0.0253
  339MOL0     C45646   9.269   6.045   7.108  0.9482 -0.1113  0.5792
  339MOL0     N45647   9.160   5.953   7.073 -0.6465  0.1251 -0.3375
  339MOL0     C45648   9.072   5.909   7.170 -0.2310 -0.3848  0.0514
  339MOL0     C45649   8.981   5.839   7.098  0.0540 -0.4890 -0.0111
  339MOL0     C45650   8.855   5.779   7.156 -0.0021 -0.3248  0.6553
  339MOL0     C45651   8.877   5.633   7.175  0.1607  0.5353  0.3165
  339MOL0     C45652   8.765   5.567   7.261  0.0629  0.7245 -0.9407
  339MOL0     C45653   8.625   5.620   7.250  0.0207 -0.0232 -0.0456
  339MOL0     O45654   8.594   5.713   7.352  0.4576  0.0983 -0.4026
  339MOL0     C45655   8.466   5.776   7.353 -0.7514  1.1127  1.1070
  339MOL0     C45656   8.449   5.889   7.432  0.1161 -0.7087  0.5041
  339MOL0     C45657   8.324   5.950   7.440  0.0034  0.1341 -0.2888
  339MOL0     C45658   8.300   6.071   7.534  0.3283  0.0938  0.1535
  339MOL0     C45659   8.215   5.897   7.356  0.2314  1.1288  0.1089
  339MOL0     C45660   8.073   5.948   7.339  0.6022  1.3583  0.0966
  339MOL0     O45661   7.984   5.867   7.274  0.1911 -0.6562 -1.5816
  339MOL0     C45662   7.856   5.879   7.311  0.0334  1.2860  0.8470
  339MOL0     C45663   7.793   5.945   7.426  0.0494  0.2589  0.4567
  339MOL0     C45664   7.663   5.927   7.447  0.1873 -0.1375 -0.7782
  339MOL0     C45665   7.579   5.852   7.365  0.2379  0.8484 -0.1760
  339MOL0     O45666   7.447   5.850   7.408 -0.1272  0.7710 -0.5423
  339MOL0     C45667   7.353   5.796   7.306  0.0751 -0.2266 -0.8076
  339MOL0     C45668   7.208   5.852   7.342 -0.6575 -0.2845 -0.4388
  339MOL0     C45669   7.180   5.860   7.500 -0.1308 -0.3006  0.6834
  339MOL0     C45670   7.081   5.974   7.525  0.1764 -0.1762  0.1058
  339MOL0     C45671   7.028   5.981   7.666 -0.2598  0.0182  0.2914
  339MOL0     C45672   6.909   5.892   7.689  0.2981  0.5259  0.4395
  339MOL0     C45673   6.839   5.926   7.815 -0.0958  0.8081 -0.1502
  339MOL0     C45674   6.711   5.837   7.852 -0.6450  0.6447 -0.0822
  339MOL0    Cl45675   6.577   5.840   7.735  0.1757 -0.5042 -0.5976
  339MOL0     C45676   7.632   5.792   7.250  0.1909  0.1119  0.2799
  339MOL0     C45677   7.766   5.808   7.220 -0.7693 -0.7166  0.7021
  339MOL0     O45678   8.049   6.055   7.393  0.1292  0.4242 -0.0422
  339MOL0     C45679   8.244   5.782   7.272  0.1983 -0.5101 -0.3313
  339MOL0     C45680   8.368   5.731   7.263 -0.4098  0.1388 -0.2486
  339MOL0     N45681   9.009   5.852   6.964  0.2990 -1.0254  0.3883
  339MOL0     N45682   9.118   5.916   6.945 -0.5754  0.3870 -0.2650
  339MOL0     C45683   9.065   6.839   6.339  0.2320 -1.2884  0.1191
  339MOL0     C45684   8.997   6.956   6.313  0.4575  0.8175  0.7604
  339MOL0     C45685   8.647   7.254   6.313  0.1890  0.8897  0.3258
  339MOL0     C45686   8.727   7.348   6.241  0.7532  0.0715 -0.3109
  339MOL0     C45687   8.667   7.465   6.203  0.5908  0.5775 -0.3664
  339MOL0     C45688   8.527   7.488   6.224  0.2741  0.8159 -0.6553
  339MOL0     O45689   8.455   7.579   6.156 -0.0953 -0.2170  0.6296
  339MOL0     C45690   8.497   7.711   6.128 -0.2185  0.3603 -0.6438
  339MOL0     C45691   8.420   7.774   6.021 -0.1257  0.1198  0.3748
  339MOL0     C45692   8.439   7.692   5.898  0.9098  0.2822  0.0285
  339MOL0     C45693   8.372   7.757   5.775 -0.0852 -0.0755 -0.4036
  339MOL0     C45694   8.369   7.903   5.764 -0.0364 -1.0231  0.0661
  339MOL0     C45695   8.364   8.027   5.748 -0.5622  0.0967  0.3208
  339MOL0     C45696   8.447   7.391   6.289  0.6024  0.2789  0.5582
  339MOL0     C45697   8.510   7.275   6.337  0.2833 -0.1300  0.5301
  339MOL0     H45698   8.860   7.001   6.622 -0.4679  0.3581 -0.1218
  339MOL0     H45699   8.980   6.793   6.656  1.2454  0.1270 -0.4083
  339MOL0     H45700   9.094   6.598   6.677  3.9471 -0.5259 -0.3710
  339MOL0     H45701   8.971   6.536   6.556  0.2385 -1.2795 -1.1902
  339MOL0     H45702   9.143   6.384   6.463  0.5263 -1.1861 -0.3878
  339MOL0     H45703   9.263   6.453   6.568  0.6629 -2.6144  2.5675
  339MOL0     H45704   9.033   6.286   6.689 -0.6793 -3.7686 -0.5472
  339MOL0     H45705   9.168   6.222   6.617 -0.2193  0.3767 -2.5690
  339MOL0     H45706   9.304   6.357   6.777 -1.1371 -3.9645 -3.4582
  339MOL0     H45707   9.150   6.454   6.821 -2.4180 -1.1940 -0.1641
  339MOL0     H45708   9.053   6.250   6.903 -0.2966 -0.6127 -2.3901
  339MOL0     H45709   9.193   6.151   6.866  3.0721  0.7894  0.7754
  339MOL0     H45710   9.324   6.313   7.014  0.5919 -1.2135 -0.0333
  339MOL0     H45711   9.175   6.371   7.086 -0.3952  0.0331  1.0183
  339MOL0     H45712   9.274   6.213   7.235 -2.7756 -1.5326  2.0741
  339MOL0     H45713   9.112   6.171   7.169  0.0107 -0.0428  1.8673
  339MOL0     H45714   9.310   5.995   7.197  0.7110 -3.4701 -1.0519
  339MOL0     H45715   9.337   6.039   7.023 -3.3364  0.1330 -3.2420
  339MOL0     H45716   9.056   5.928   7.276 -0.6371  0.4531 -0.1420
  339MOL0     H45717   8.835   5.838   7.246 -0.9398 -0.2038  0.3756
  339MOL0     H45718   8.783   5.803   7.078  0.7413  2.9620  0.8388
  339MOL0     H45719   8.968   5.624   7.235 -1.0979 -0.2308  2.1759
  339MOL0     H45720   8.883   5.586   7.076  4.4176  1.0665  0.1336
  339MOL0     H45721   8.788   5.587   7.366 -0.2448  2.9122 -1.2510
  339MOL0     H45722   8.766   5.460   7.239 -0.7138  0.0527  1.8329
  339MOL0     H45723   8.551   5.540   7.248  0.3777 -0.3721  0.4359
  339MOL0     H45724   8.624   5.673   7.154  4.0782 -0.6704 -0.6537
  339MOL0     H45725   8.527   5.921   7.500  0.8225  1.0656 -1.0274
  339MOL0     H45726   8.369   6.073   7.619 -0.3566  2.0287  0.7194
  339MOL0     H45727   8.295   6.172   7.493 -1.3754  2.1795  4.7666
  339MOL0     H45728   8.203   6.056   7.582 -0.2009 -1.7025 -1.3656
  339MOL0     H45729   7.849   5.995   7.504 -0.2654  1.1921  0.0906
  339MOL0     H45730   7.616   5.962   7.538 -2.0235 -0.0111 -1.9117
  339MOL0     H45731   7.379   5.842   7.210  2.4105 -0.1507 -0.1904
  339MOL0     H45732   7.351   5.687   7.308 -0.0218 -0.2952  2.7085
  339MOL0     H45733   7.211   5.953   7.300 -3.0928 -0.6172 -1.6337
  339MOL0     H45734   7.126   5.806   7.285 -0.8765  0.9962 -1.2008
  339MOL0     H45735   7.272   5.872   7.558 -0.9698 -1.3330  2.3247
  339MOL0     H45736   7.142   5.762   7.531 -2.3338  0.0433 -0.6473
  339MOL0     H45737   7.119   6.069   7.488 -1.7231  2.0715  3.4314
  339MOL0     H45738   6.996   5.960   7.457  0.4612 -1.1309 -0.0707
  339MOL0     H45739   7.001   6.086   7.672 -1.4622 -0.3551  2.8969
  339MOL0     H45740   7.110   5.961   7.735 -0.2699 -0.5797  0.1448
  339MOL0     H45741   6.841   5.906   7.604  2.2406  1.6529 -1.0294
  339MOL0     H45742   6.932   5.785   7.688  1.2431  0.6553 -2.6715
  339MOL0     H45743   6.809   6.030   7.800 -5.6391 -0.0037  2.6743
  339MOL0     H45744   6.900   5.931   7.906  0.9244  0.0245 -0.7702
  339MOL0     H45745   6.679   5.879   7.947 -0.2820 -1.1463  0.8799
  339MOL0     H45746   6.743   5.734   7.870  1.9397  0.8427 -2.7011
  339MOL0     H45747   7.571   5.746   7.173  3.1045 -1.7223 -1.1376
  339MOL0     H45748   7.794   5.767   7.123 -1.1384 -3.0849  1.5401
  339MOL0     H45749   8.170   5.737   7.207  2.3361 -1.2220 -2.4220
  339MOL0     H45750   8.387   5.655   7.188 -1.3033 -0.5173  0.1719
  339MOL0     H45751   9.123   6.796   6.258 -1.6136  1.4354 -2.9317
  339MOL0     H45752   8.989   7.005   6.217 -1.5356 -2.1045 -0.7333
  339MOL0     H45753   8.831   7.324   6.220  0.5207 -2.3610  1.0326
  339MOL0     H45754   8.732   7.538   6.154 -0.2945  1.5506 -0.1384
  339MOL0     H45755   8.485   7.760   6.225 -1.9712 -0.0863 -0.5928
  339MOL0     H45756   8.602   7.703   6.101 -0.2363 -2.2668 -0.2346
  339MOL0     H45757   8.460   7.875   6.007  1.1724 -0.3752  0.3871
  339MOL0     H45758   8.313   7.782   6.045  0.0534 -0.8808  1.5983
  339MOL0     H45759   8.383   7.599   5.913  1.6607 -0.2742 -0.5239
  339MOL0     H45760   8.544   7.668   5.877 -0.1621 -3.8329 -1.4607
  339MOL0     H45761   8.269   7.721   5.766 -1.0733  1.9971  1.3891
  339MOL0     H45762   8.429   7.714   5.693  2.9527 -2.5052  2.6643
  339MOL0     H45763   8.362   8.132   5.728 -1.9173  0.0161 -0.0505
  339MOL0     H45764   8.339   7.401   6.294  0.3605  1.3363 -3.5009
  339MOL0     H45765   8.447   7.204   6.389 -0.3938  1.5524  2.1400
  340MOL0     O45766   0.756   3.783  11.275  0.1309  0.2731 -0.6050
  340MOL0     C45767   0.742   3.878  11.355 -1.4120  0.1345  0.4798
  340MOL0     O45768   0.708   4.004  11.317 -0.3859 -0.3091 -0.2894
  340MOL0     C45769   0.782   4.054  11.216 -0.0230 -0.3949 -0.7455
  340MOL0     C45770   0.715   4.113  11.106 -0.7316 -0.7730  0.5491
  340MOL0     C45771   0.784   4.173  11.000 -1.1839  0.0736 -0.2843
  340MOL0     C45772   0.926   4.152  10.993 -0.8866 -0.4392 -0.2952
  340MOL0     O45773   1.008   4.179  10.894 -0.1900  0.2417  0.3293
  340MOL0     C45774   1.016   4.320  10.858 -0.1293  0.4442 -0.1925
  340MOL0     C45775   1.125   4.331  10.755  0.1247  0.6637  0.7894
  340MOL0     C45776   1.264   4.325  10.810  0.5851  0.0168 -0.0735
  340MOL0     C45777   1.345   4.454  10.775 -0.3304  0.1988 -0.0187
  340MOL0     C45778   1.489   4.440  10.805 -1.0997 -0.2294  0.1042
  340MOL0     C45779   1.574   4.415  10.675 -0.1058  0.7758  0.4762
  340MOL0     C45780   1.733   4.408  10.710  1.8027  0.8379 -0.4596
  340MOL0     C45781   1.794   4.532  10.789  0.4305 -0.5782  0.9166
  340MOL0     N45782   1.940   4.530  10.799 -0.1982 -0.3865  0.3329
  340MOL0     C45783   2.002   4.455  10.888  0.7039  0.0973 -0.9507
  340MOL0     C45784   2.137   4.474  10.882 -0.1590  0.6116  0.5031
  340MOL0     C45785   2.244   4.399  10.957 -0.3877  0.1631  0.6173
  340MOL0     C45786   2.390   4.448  10.932  0.4089 -0.1316 -0.5505
  340MOL0     C45787   2.418   4.588  10.986  0.2305 -0.0449 -0.2563
  340MOL0     C45788   2.565   4.609  11.025  0.4695  0.4450  0.5097
  340MOL0     O45789   2.577   4.727  11.095  0.2920 -0.6420  0.0499
  340MOL0     C45790   2.684   4.779  11.170  0.0847 -0.0361 -0.3661
  340MOL0     C45791   2.815   4.742  11.142 -0.3899  0.5471 -0.6115
  340MOL0     C45792   2.921   4.794  11.216 -0.6971  0.0350 -0.1717
  340MOL0     C45793   3.053   4.727  11.182  0.5227  0.1059  0.0178
  340MOL0     C45794   2.892   4.883  11.323  0.6988 -0.1652 -1.0970
  340MOL0     C45795   2.996   4.952  11.397 -0.6324 -0.6703  0.0810
  340MOL0     O45796   2.995   4.973  11.533  0.1791  0.6520 -0.2470
  340MOL0     C45797   3.090   5.044  11.594  0.1158 -1.5430 -0.4742
  340MOL0     C45798   3.222   5.019  11.612 -0.8316  0.2110  0.3472
  340MOL0     C45799   3.299   5.108  11.681  0.2830  0.0696 -0.0291
  340MOL0     C45800   3.245   5.220  11.741 -0.0613 -1.0340 -0.2472
  340MOL0     O45801   3.336   5.305  11.801 -0.4961 -0.3704 -0.1683
  340MOL0     C45802   3.290   5.443  11.832 -1.1539 -0.1688  0.5797
  340MOL0     C45803   3.412   5.540  11.860 -1.1379 -0.2095 -0.2361
  340MOL0     C45804   3.378   5.686  11.894 -0.5152  1.0243 -0.8019
  340MOL0     C45805   3.238   5.712  11.943 -0.2327 -0.1783 -0.6033
  340MOL0     C45806   3.206   5.864  11.966 -0.8163 -0.4285 -0.1340
  340MOL0     C45807   3.059   5.912  11.952  0.3114 -0.2672 -0.8293
  340MOL0     C45808   2.966   5.832  12.038 -0.3524  0.8249  0.6995
  340MOL0     C45809   2.821   5.876  12.039  0.3239 -0.5411 -0.1443
  340MOL0    Cl45810   2.727   5.865  11.891  0.2347 -0.0018  0.2354
  340MOL0     C45811   3.107   5.249  11.731  0.9664  0.4239  0.2283
  340MOL0     C45812   3.032   5.159  11.657  0.0412  0.4108  0.8483
  340MOL0     O45813   3.089   4.994  11.328 -0.8934  0.3819 -0.2788
  340MOL0     C45814   2.757   4.930  11.350 -0.9235 -0.2735  0.4423
  340MOL0     C45815   2.656   4.869  11.275 -0.3676 -0.5417  0.1721
  340MOL0     N45816   2.156   4.556  10.772  0.1024  0.3097  0.1101
  340MOL0     N45817   2.038   4.588  10.728 -0.3353  0.4735 -0.2025
  340MOL0     C45818   0.983   4.100  11.109 -0.4466  0.0200 -0.5059
  340MOL0     C45819   0.920   4.061  11.222  0.5239  0.5744 -0.3823
  340MOL0     C45820   0.750   3.862  11.496  0.1641  0.8822 -0.3095
  340MOL0     C45821   0.805   3.740  11.540 -0.9540 -0.1875 -0.2847
  340MOL0     C45822   0.804   3.716  11.684  0.9485 -0.3016  1.2664
  340MOL0     C45823   0.761   3.812  11.777  0.2510  0.3163 -0.3008
  340MOL0     O45824   0.777   3.790  11.914 -0.6280 -0.2421 -1.1158
  340MOL0     C45825   0.698   3.856  12.020  0.0820  0.0018  0.3741
  340MOL0     C45826   0.715   3.792  12.152 -0.9626  0.2664 -1.0430
  340MOL0     C45827   0.611   3.688  12.186  0.3627 -0.0445 -0.2305
  340MOL0     C45828   0.621   3.557  12.107  0.2904  0.8700 -0.1691
  340MOL0     C45829   0.488   3.516  12.063 -0.2156 -0.2918  0.3712
  340MOL0     C45830   0.374   3.471  12.027 -0.5554  0.2757 -0.3576
  340MOL0     C45831   0.709   3.929  11.728 -0.1047  0.3039 -0.4430
  340MOL0     C45832   0.692   3.949  11.590  0.2344  0.2865  0.9071
  340MOL0     H45833   0.606   4.112  11.109 -0.7406 -1.3374  0.2320
  340MOL0     H45834   0.738   4.234  10.922 -3.5084  0.2281  1.1207
  340MOL0     H45835   0.923   4.347  10.807  0.9319 -0.4662 -2.7289
  340MOL0     H45836   1.040   4.400  10.928 -2.0098  3.0473 -2.3129
  340MOL0     H45837   1.092   4.262  10.677  0.2040  2.2828 -0.7436
  340MOL0     H45838   1.111   4.425  10.699  1.1773 -0.7424 -2.0533
  340MOL0     H45839   1.262   4.300  10.917  0.8648 -1.5658 -0.4170
  340MOL0     H45840   1.313   4.242  10.760 -0.2628  0.4581 -1.6908
  340MOL0     H45841   1.327   4.484  10.672  2.0011 -0.3863 -0.6521
  340MOL0     H45842   1.318   4.536  10.841  0.1950 -0.1034  0.5878
  340MOL0     H45843   1.525   4.539  10.836  0.2745 -0.3522 -0.9978
  340MOL0     H45844   1.509   4.364  10.881 -3.3242  0.9596  2.0398
  340MOL0     H45845   1.540   4.324  10.624  0.8993  1.5824 -1.8099
  340MOL0     H45846   1.571   4.485  10.591  1.8814 -1.0082 -1.2159
  340MOL0     H45847   1.750   4.322  10.775  0.0374  2.1977  1.9830
  340MOL0     H45848   1.785   4.398  10.614 -0.8603  0.9256 -2.0115
  340MOL0     H45849   1.757   4.539  10.892 -0.9760  4.4034  0.3090
  340MOL0     H45850   1.754   4.627  10.753  0.4817  0.7663  4.0328
  340MOL0     H45851   1.954   4.384  10.955  2.5390  0.3496  0.6892
  340MOL0     H45852   2.238   4.403  11.066  4.4113 -0.3282  1.1030
  340MOL0     H45853   2.227   4.292  10.941  1.5832 -0.3555  1.7294
  340MOL0     H45854   2.417   4.441  10.826  1.1762  0.0471 -0.3768
  340MOL0     H45855   2.449   4.376  10.990  0.1023  1.9106  2.5087
  340MOL0     H45856   2.359   4.594  11.078 -2.9114  2.6473 -2.1795
  340MOL0     H45857   2.390   4.670  10.918  1.4581 -0.1927 -0.9620
  340MOL0     H45858   2.621   4.597  10.932 -2.1829  1.4637 -1.3722
  340MOL0     H45859   2.589   4.528  11.094  1.1223 -0.4869 -0.7926
  340MOL0     H45860   2.825   4.664  11.067 -1.6694 -3.8574  3.2756
  340MOL0     H45861   3.037   4.625  11.147 -0.0632  0.1118  0.2581
  340MOL0     H45862   3.119   4.776  11.109  2.1085 -2.0187 -0.0441
  340MOL0     H45863   3.111   4.706  11.272 -1.1769 -2.5667  0.6130
  340MOL0     H45864   3.276   4.936  11.567 -1.5482  0.7414 -1.6062
  340MOL0     H45865   3.401   5.077  11.699  0.0488  0.7026  2.8963
  340MOL0     H45866   3.236   5.477  11.744 -0.7111 -2.4119 -0.6448
  340MOL0     H45867   3.230   5.431  11.923 -0.0446 -0.3715  1.3030
  340MOL0     H45868   3.466   5.504  11.948  0.7951  3.8720  0.5070
  340MOL0     H45869   3.485   5.536  11.778 -0.5368  2.3128  0.0777
  340MOL0     H45870   3.393   5.749  11.805  3.6820 -0.1570 -1.1530
  340MOL0     H45871   3.446   5.717  11.974 -1.9662 -2.5803  2.1093
  340MOL0     H45872   3.174   5.689  11.858  2.6236 -0.2151 -2.9311
  340MOL0     H45873   3.211   5.669  12.040 -2.3714  0.2089 -0.9961
  340MOL0     H45874   3.256   5.936  11.901  1.9819  0.3238  2.5788
  340MOL0     H45875   3.252   5.880  12.064  0.6186 -1.8822 -0.5281
  340MOL0     H45876   3.047   6.014  11.989 -0.4877 -0.1842 -1.2900
  340MOL0     H45877   3.028   5.915  11.847  2.2099  2.3948 -1.4155
  340MOL0     H45878   3.003   5.817  12.140 -2.1348 -0.9918  1.1379
  340MOL0     H45879   2.968   5.731  11.996  0.2236  1.1202 -0.0082
  340MOL0     H45880   2.814   5.977  12.080 -2.7090 -1.6220  2.4838
  340MOL0     H45881   2.768   5.812  12.111 -1.1179 -1.5825 -2.0353
  340MOL0     H45882   3.055   5.335  11.772  0.9593  0.6863 -0.3150
  340MOL0     H45883   2.927   5.182  11.642  0.4266  1.1825 -0.8632
  340MOL0     H45884   2.738   5.001  11.430  0.7842  0.3163  0.3782
  340MOL0     H45885   2.557   4.914  11.274  0.0643  0.5426  2.4436
  340MOL0     H45886   1.091   4.096  11.101 -0.1975  2.0937  0.7769
  340MOL0     H45887   0.962   4.034  11.318 -2.4266 -1.9530  0.3584
  340MOL0     H45888   0.821   3.664  11.464 -0.7058  0.7088 -1.1462
  340MOL0     H45889   0.841   3.618  11.713  0.3201 -0.2059  2.4703
  340MOL0     H45890   0.741   3.956  12.027 -1.0519  0.4125  2.9088
  340MOL0     H45891   0.595   3.874  11.988 -0.2568 -1.2960  0.6635
  340MOL0     H45892   0.708   3.865  12.233 -0.9674 -2.2018  1.3272
  340MOL0     H45893   0.809   3.737  12.156  0.9559  3.3536  0.9151
  340MOL0     H45894   0.519   3.744  12.171  0.5433  0.0460 -1.0520
  340MOL0     H45895   0.615   3.670  12.294  1.6594  2.5788  0.2198
  340MOL0     H45896   0.658   3.490  12.184  1.0560  0.6737 -0.6985
  340MOL0     H45897   0.702   3.561  12.033  0.8499 -4.6754 -0.2364
  340MOL0     H45898   0.292   3.411  11.993 -0.9725  1.4018 -1.4260
  340MOL0     H45899   0.679   4.013  11.789  1.6039  1.1975 -0.7562
  340MOL0     H45900   0.636   4.035  11.556 -1.0814 -0.7171  0.4694
  341MOL0     O45901   0.234  10.014   0.727 -0.5772  0.0078  0.2299
  341MOL0     C45902   0.172  10.102   0.666 -0.0490  0.4476  0.6464
  341MOL0     O45903   0.234  10.204   0.606  1.1492 -0.2694  0.1556
  341MOL0     C45904   0.368  10.238   0.616  0.0300  0.3101  0.2178
  341MOL0     C45905   0.403  10.342   0.537 -0.1196 -0.7254  0.5004
  341MOL0     C45906   0.530  10.396   0.535 -0.5390  0.1254  0.0972
  341MOL0     C45907   0.634  10.335   0.616  0.7148 -0.4732 -0.2985
  341MOL0     O45908   0.761  10.386   0.618 -0.4797 -0.2924 -0.0507
  341MOL0     C45909   0.868  10.298   0.579 -0.7445  0.4519 -0.0405
  341MOL0     C45910   0.860  10.224   0.441 -0.4871 -1.1416 -0.5138
  341MOL0     C45911   0.834  10.320   0.338  0.6154 -0.0474  0.5532
  341MOL0     C45912   0.774  10.243   0.213  0.1576 -0.2024  0.0292
  341MOL0     C45913   0.739  10.331   0.100  0.1285  0.3215  0.1980
  341MOL0     C45914   0.860  10.401   0.043 -0.6485  1.0482 -0.1652
  341MOL0     C45915   0.841  10.427  -0.110  0.9174 -0.3680 -0.4099
  341MOL0     C45916   0.820  10.303  -0.200 -0.7388 -0.7184  0.7635
  341MOL0     N45917   0.686  10.295  -0.254  0.3506 -0.2037 -0.3698
  341MOL0     C45918   0.592  10.196  -0.233 -0.4458  0.2489  0.0570
  341MOL0     C45919   0.501  10.210  -0.333  0.0993 -0.7705  0.2615
  341MOL0     C45920   0.387  10.128  -0.373 -0.0227 -0.0893  0.3459
  341MOL0     C45921   0.264  10.188  -0.331  0.1535  1.3002 -0.1306
  341MOL0     C45922   0.228  10.317  -0.401 -0.7327  0.4134 -0.7270
  341MOL0     C45923   0.224  10.323  -0.550 -0.2329 -0.4987  0.3500
  341MOL0     O45924   0.139  10.216  -0.583 -0.0149 -0.5698 -0.9527
  341MOL0     C45925   0.060  10.243  -0.691 -0.1191 -0.0983 -0.4519
  341MOL0     C45926  -0.065  10.176  -0.688 -0.0911 -0.0896  0.3673
  341MOL0     C45927  -0.162  10.204  -0.782  0.5190  0.0186 -0.9817
  341MOL0     C45928  -0.286  10.129  -0.748  0.1333  0.4928 -0.1257
  341MOL0     C45929  -0.136  10.300  -0.886 -0.4441  1.0649  0.1658
  341MOL0     C45930  -0.236  10.321  -1.005  0.5758  0.7430 -0.4700
  341MOL0     O45931  -0.212  10.428  -1.078  0.8934 -0.5063 -0.1347
  341MOL0     C45932  -0.308  10.467  -1.166  0.1515 -0.3693  0.4910
  341MOL0     C45933  -0.291  10.422  -1.296 -0.0603  1.1621 -0.5949
  341MOL0     C45934  -0.355  10.487  -1.403 -0.1520  0.4182  0.0267
  341MOL0     C45935  -0.438  10.601  -1.377 -0.5015  0.2716  0.4120
  341MOL0     O45936  -0.498  10.659  -1.484  0.4173 -0.2507  0.5185
  341MOL0     C45937  -0.562  10.783  -1.465  0.1436  0.3595 -0.1625
  341MOL0     C45938  -0.601  10.850  -1.582 -0.5095  1.0324  0.7283
  341MOL0     C45939  -0.480  10.895  -1.674 -0.6217  0.0795  0.4562
  341MOL0     C45940  -0.428  10.785  -1.774 -0.3887  0.2803 -1.5324
  341MOL0     C45941  -0.304  10.840  -1.851 -0.2642 -0.5249  0.0799
  341MOL0     C45942  -0.216  10.728  -1.928 -0.5878  0.2987 -0.0952
  341MOL0     C45943  -0.093  10.768  -2.003  0.3091 -0.2435 -0.6923
  341MOL0     C45944  -0.056  10.651  -2.092  0.0418 -0.0894  0.6681
  341MOL0    Cl45945  -0.023  10.503  -1.994 -0.4940 -0.3554 -0.2656
  341MOL0     C45946  -0.460  10.642  -1.244  0.1384  0.3595 -0.5730
  341MOL0     C45947  -0.391  10.582  -1.138 -0.0074  0.2232  0.0565
  341MOL0     O45948  -0.336  10.245  -1.017  1.1489  0.0513 -0.4580
  341MOL0     C45949  -0.011  10.360  -0.884 -0.2276 -0.1983 -0.1837
  341MOL0     C45950   0.082  10.340  -0.792 -0.3573 -0.2347  0.1411
  341MOL0     N45951   0.546  10.314  -0.421  0.9225  0.6360 -1.1730
  341MOL0     N45952   0.654  10.359  -0.371  0.0894 -0.0871  0.5822
  341MOL0     C45953   0.594  10.235   0.702 -0.1503  0.8702  0.0152
  341MOL0     C45954   0.461  10.189   0.711  0.3091 -0.1286  1.0437
  341MOL0     C45955   0.028  10.088   0.655 -0.0544  0.4207  0.6513
  341MOL0     C45956  -0.040  10.160   0.559  0.7755 -0.1209 -0.0061
  341MOL0     C45957  -0.177  10.136   0.535  0.1359 -0.1103  0.8002
  341MOL0     C45958  -0.240  10.034   0.611  0.7779 -0.2476  0.1302
  341MOL0     O45959  -0.361   9.998   0.572  0.2630  0.5805 -0.6763
  341MOL0     C45960  -0.376   9.882   0.496 -0.0430 -0.0963 -0.3544
  341MOL0     C45961  -0.394   9.765   0.576  0.1478 -0.2964 -0.4257
  341MOL0     C45962  -0.515   9.758   0.668  0.7913 -0.8796 -0.5501
  341MOL0     C45963  -0.487   9.648   0.776 -1.0040 -0.8043 -0.8061
  341MOL0     C45964  -0.399   9.709   0.881  0.4250  0.8144 -0.6816
  341MOL0     C45965  -0.329   9.747   0.977  0.3101 -1.0694 -0.5063
  341MOL0     C45966  -0.169   9.967   0.708 -0.9835  0.0813 -0.3435
  341MOL0     C45967  -0.039   9.999   0.729 -0.1083  0.1671 -0.4059
  341MOL0     H45968   0.334  10.396   0.474  1.3144 -0.7177 -1.1668
  341MOL0     H45969   0.566  10.486   0.485  1.7359 -1.4779 -1.4046
  341MOL0     H45970   0.967  10.344   0.589 -1.0362  1.8851 -2.8373
  341MOL0     H45971   0.875  10.215   0.650  1.4532 -2.1368 -2.9937
  341MOL0     H45972   0.963  10.189   0.424  1.1092  3.0329 -0.5857
  341MOL0     H45973   0.791  10.140   0.448 -1.8172  0.0571  1.8914
  341MOL0     H45974   0.757  10.394   0.360 -2.2535 -2.1135 -1.7868
  341MOL0     H45975   0.928  10.370   0.312  0.1632  0.9501  0.8020
  341MOL0     H45976   0.831  10.155   0.184  0.1786  0.2356 -1.3563
  341MOL0     H45977   0.677  10.201   0.242  1.0556 -4.2243 -2.0644
  341MOL0     H45978   0.697  10.256   0.031 -0.9732  0.4761  0.6714
  341MOL0     H45979   0.664  10.405   0.129 -0.8524 -0.6344  0.1798
  341MOL0     H45980   0.880  10.502   0.082  1.7547 -0.4997  3.0957
  341MOL0     H45981   0.939  10.327   0.045 -1.1947  0.3273 -2.4507
  341MOL0     H45982   0.749  10.485  -0.118  1.6642  0.8414 -0.5675
  341MOL0     H45983   0.906  10.506  -0.148 -1.0783  1.5502 -0.0373
  341MOL0     H45984   0.838  10.218  -0.134 -2.7794 -0.2139  2.0763
  341MOL0     H45985   0.887  10.300  -0.286  0.8595 -3.0535  1.9960
  341MOL0     H45986   0.590  10.110  -0.166 -1.7072  1.6076  1.8699
  341MOL0     H45987   0.391  10.108  -0.480  3.0971  2.9463 -0.2745
  341MOL0     H45988   0.393  10.035  -0.316  0.7849  0.0605  0.5104
  341MOL0     H45989   0.280  10.211  -0.225  3.9414  1.8371 -0.6862
  341MOL0     H45990   0.178  10.121  -0.330 -1.9060  3.7628  0.4910
  341MOL0     H45991   0.280  10.399  -0.352 -1.3606 -1.1921  2.9625
  341MOL0     H45992   0.128  10.344  -0.364 -2.0572 -0.5066 -3.3495
  341MOL0     H45993   0.320  10.307  -0.600  0.6656  4.5930 -0.1165
  341MOL0     H45994   0.200  10.424  -0.583  3.3385  0.0733 -0.8611
  341MOL0     H45995  -0.090  10.105  -0.609  1.0573  0.2050  1.0210
  341MOL0     H45996  -0.373  10.185  -0.782 -0.3753 -0.8033 -1.0251
  341MOL0     H45997  -0.286  10.037  -0.807  0.8285 -0.2783  1.0352
  341MOL0     H45998  -0.301  10.098  -0.644 -0.6720 -1.5966 -0.8122
  341MOL0     H45999  -0.227  10.335  -1.311 -2.1877 -0.7687  0.8154
  341MOL0     H46000  -0.340  10.457  -1.506 -2.5456 -1.3322  0.1097
  341MOL0     H46001  -0.659  10.759  -1.422  0.5800 -0.1110  0.5828
  341MOL0     H46002  -0.504  10.861  -1.416  1.0189 -0.6524  0.4726
  341MOL0     H46003  -0.678  10.798  -1.640 -2.4744  4.2057  0.2287
  341MOL0     H46004  -0.652  10.939  -1.544  0.1110  1.2854  0.9868
  341MOL0     H46005  -0.397  10.936  -1.616  0.8102  1.5600 -2.4383
  341MOL0     H46006  -0.523  10.981  -1.726 -0.2370  1.1416  1.8273
  341MOL0     H46007  -0.398  10.699  -1.714 -0.9282  1.8746  1.1729
  341MOL0     H46008  -0.501  10.753  -1.848  0.4877  0.4979 -2.5294
  341MOL0     H46009  -0.237  10.896  -1.786 -0.3103 -0.3616 -0.0110
  341MOL0     H46010  -0.337  10.913  -1.925 -0.3291 -1.2261 -0.6029
  341MOL0     H46011  -0.181  10.657  -1.852 -2.7255  0.2660  0.9389
  341MOL0     H46012  -0.279  10.662  -1.989  2.3954 -3.0842  0.1632
  341MOL0     H46013  -0.016  10.769  -1.926 -1.0850 -1.7873  0.8099
  341MOL0     H46014  -0.099  10.861  -2.061  1.3589  0.8447  0.8678
  341MOL0     H46015   0.035  10.660  -2.151 -0.8548 -0.9992 -0.9247
  341MOL0     H46016  -0.138  10.634  -2.162  0.1272  1.4863  0.1503
  341MOL0     H46017  -0.520  10.728  -1.219 -1.6829 -1.1697  0.5472
  341MOL0     H46018  -0.379  10.636  -1.045 -1.0640  2.4313 -1.0015
  341MOL0     H46019   0.022  10.426  -0.964 -0.7442 -2.1385 -2.0947
  341MOL0     H46020   0.178  10.392  -0.797  0.3835 -1.2451  2.5695
  341MOL0     H46021   0.672  10.190   0.763 -0.3954 -2.6592 -2.0202
  341MOL0     H46022   0.426  10.116   0.783  0.9430 -2.9811 -1.3404
  341MOL0     H46023   0.015  10.216   0.484  0.3042 -0.5990 -0.7210
  341MOL0     H46024  -0.219  10.183   0.447 -1.6649  0.5545  1.9665
  341MOL0     H46025  -0.464   9.902   0.434 -1.8980  1.0808  2.4231
  341MOL0     H46026  -0.287   9.884   0.433 -2.4110  0.5629 -3.9670
  341MOL0     H46027  -0.302   9.756   0.633 -0.1109  1.2355  0.2933
  341MOL0     H46028  -0.404   9.682   0.505 -0.4895 -0.7285  0.1610
  341MOL0     H46029  -0.608   9.731   0.617  0.8201 -0.5644 -0.7721
  341MOL0     H46030  -0.526   9.859   0.709 -0.2825 -1.4186  0.5588
  341MOL0     H46031  -0.440   9.556   0.738 -1.5693 -0.7279 -1.7183
  341MOL0     H46032  -0.583   9.625   0.823 -0.8479  0.5672  0.2535
  341MOL0     H46033  -0.291   9.793   1.066 -2.0848 -2.2903  1.2585
  341MOL0     H46034  -0.212   9.891   0.772 -1.8719  0.2201 -0.7575
  341MOL0     H46035   0.012   9.950   0.811  1.2505  3.0086  0.6114
  342MOL0     O46036   4.316   5.807   6.889  0.2813 -0.4818  0.5252
  342MOL0     C46037   4.213   5.872   6.897 -0.2272 -0.1526 -0.6106
  342MOL0     O46038   4.119   5.873   6.804  0.3523 -0.0406  0.3818
  342MOL0     C46039   4.144   5.808   6.684 -0.1656  0.1373  0.1957
  342MOL0     C46040   4.260   5.830   6.598  0.3247 -0.2455 -0.1508
  342MOL0     C46041   4.271   5.755   6.477  0.5007  0.2141  0.6049
  342MOL0     C46042   4.190   5.647   6.445  0.4275 -0.4286  0.3292
  342MOL0     O46043   4.210   5.586   6.325 -0.6580  0.2445  0.1599
  342MOL0     C46044   4.098   5.571   6.232 -0.6943 -0.8425 -0.0843
  342MOL0     C46045   4.055   5.413   6.228  0.2993 -0.0788  0.1882
  342MOL0     C46046   4.134   5.314   6.135  0.2771 -0.0717 -0.2291
  342MOL0     C46047   4.180   5.386   6.002  1.6108 -0.7975  0.1966
  342MOL0     C46048   4.264   5.299   5.914 -0.2597  1.0547 -0.1824
  342MOL0     C46049   4.314   5.363   5.790  0.2965  0.0111  0.4649
  342MOL0     C46050   4.429   5.315   5.708  0.1146 -0.8239  0.5093
  342MOL0     C46051   4.412   5.197   5.621  1.3090 -0.3394  0.5820
  342MOL0     N46052   4.553   5.160   5.586 -0.3532  0.0557  0.4725
  342MOL0     C46053   4.645   5.235   5.528 -0.7548  0.7348 -0.6624
  342MOL0     C46054   4.761   5.163   5.532  0.5635  0.2515 -0.1347
  342MOL0     C46055   4.898   5.193   5.472 -0.7299 -0.4816 -0.3074
  342MOL0     C46056   4.979   5.303   5.554  0.8256  0.7728 -0.3222
  342MOL0     C46057   4.949   5.440   5.505  1.0280 -0.3265 -0.4655
  342MOL0     C46058   5.021   5.548   5.592  0.4631 -0.0375  0.7966
  342MOL0     O46059   4.979   5.675   5.539  0.5546 -0.1173 -0.4106
  342MOL0     C46060   5.034   5.780   5.611  0.1436 -0.2830  0.9424
  342MOL0     C46061   4.984   5.904   5.574 -0.0344  0.2143 -0.0625
  342MOL0     C46062   5.031   6.023   5.637 -0.1647 -0.0344 -0.1032
  342MOL0     C46063   4.966   6.146   5.584  0.6460 -0.2127  1.1945
  342MOL0     C46064   5.121   6.023   5.740 -0.3547  0.0015  0.2665
  342MOL0     C46065   5.158   6.141   5.799 -0.2210 -0.5164 -0.6131
  342MOL0     O46066   5.233   6.229   5.734  0.1938  0.8640 -0.3988
  342MOL0     C46067   5.318   6.306   5.809  1.4347 -0.8714 -1.3407
  342MOL0     C46068   5.407   6.270   5.916 -0.2400  0.0189 -0.4412
  342MOL0     C46069   5.493   6.359   5.985 -0.4665  0.2988  0.5048
  342MOL0     C46070   5.493   6.482   5.927  0.1824  0.2971 -0.8897
  342MOL0     O46071   5.567   6.580   5.983 -0.2562  0.3598 -0.1590
  342MOL0     C46072   5.704   6.560   6.024 -0.0478 -0.5409 -0.5070
  342MOL0     C46073   5.799   6.673   6.016  0.3781  0.1918  0.4648
  342MOL0     C46074   5.758   6.762   5.899  0.7117  0.4058 -0.1905
  342MOL0     C46075   5.863   6.874   5.892  0.0685 -0.9362  0.3321
  342MOL0     C46076   5.860   6.977   6.009 -1.2669 -0.3110  0.4189
  342MOL0     C46077   5.977   7.092   6.008 -1.0833  0.0977  0.5025
  342MOL0     C46078   5.966   7.197   5.891  0.1088 -0.3607 -1.1396
  342MOL0     C46079   6.066   7.189   5.786 -0.2243  0.2389 -0.7173
  342MOL0    Cl46080   6.229   7.205   5.845  0.2999  0.3188 -0.1830
  342MOL0     C46081   5.417   6.525   5.819 -0.4607  0.8936  0.3711
  342MOL0     C46082   5.329   6.438   5.763 -0.8747  0.1791  0.3492
  342MOL0     O46083   5.124   6.159   5.916 -0.2319 -0.7119  0.0447
  342MOL0     C46084   5.192   5.903   5.763  0.7307 -0.6940  0.0753
  342MOL0     C46085   5.143   5.780   5.700 -0.2339 -0.1990 -0.0125
  342MOL0     N46086   4.732   5.050   5.607 -1.7935  0.5389 -1.0264
  342MOL0     N46087   4.611   5.050   5.647  0.0565  0.2051 -0.1987
  342MOL0     C46088   4.085   5.625   6.538  0.6480  0.5098 -0.3405
  342MOL0     C46089   4.061   5.701   6.656  0.2054  0.0017  0.2145
  342MOL0     C46090   4.177   5.956   7.016 -0.4193  0.9205 -0.0251
  342MOL0     C46091   4.220   5.920   7.144  0.3064  0.1812 -0.7153
  342MOL0     C46092   4.187   6.005   7.251 -0.1597 -0.0171 -0.3005
  342MOL0     C46093   4.116   6.119   7.237  0.0783 -0.1342 -1.0909
  342MOL0     O46094   4.076   6.201   7.349 -0.2648  0.0758 -0.2126
  342MOL0     C46095   4.023   6.154   7.469 -0.0804 -0.2362 -0.1895
  342MOL0     C46096   3.990   6.269   7.565 -1.1929  2.1005  0.3982
  342MOL0     C46097   3.945   6.220   7.699 -0.6573  0.0303  0.0020
  342MOL0     C46098   3.828   6.306   7.768 -0.3694 -0.3336  0.1822
  342MOL0     C46099   3.878   6.427   7.811 -0.6327 -0.1538 -0.7031
  342MOL0     C46100   3.915   6.536   7.840 -0.5608  0.1547 -0.2532
  342MOL0     C46101   4.068   6.157   7.109 -0.9044  0.7752 -1.5149
  342MOL0     C46102   4.100   6.077   7.003 -0.9465  0.1176  0.2396
  342MOL0     H46103   4.335   5.905   6.618 -0.1316  0.1691  0.0363
  342MOL0     H46104   4.353   5.784   6.411  0.2779  2.9352  1.4099
  342MOL0     H46105   4.009   5.628   6.262 -0.5333  1.7473 -3.8036
  342MOL0     H46106   4.129   5.623   6.141  0.0653  1.7790  1.5581
  342MOL0     H46107   4.055   5.364   6.326  2.5611 -6.6191 -2.4960
  342MOL0     H46108   3.953   5.407   6.188  0.6260 -1.2666 -0.5143
  342MOL0     H46109   4.218   5.290   6.201  0.1607 -0.6818 -0.2969
  342MOL0     H46110   4.073   5.225   6.123  0.8390 -0.2339 -2.1006
  342MOL0     H46111   4.092   5.419   5.947  0.3666 -0.8450  2.0574
  342MOL0     H46112   4.242   5.474   6.022 -0.9933  1.1129  0.3701
  342MOL0     H46113   4.345   5.267   5.981 -2.1064 -2.1509  0.7742
  342MOL0     H46114   4.211   5.208   5.882 -4.2502  1.9571  2.9901
  342MOL0     H46115   4.225   5.369   5.725 -0.7804 -1.8331  1.6825
  342MOL0     H46116   4.326   5.467   5.821 -0.0579  1.0758 -2.5523
  342MOL0     H46117   4.462   5.397   5.643 -2.6867  0.9595  1.1395
  342MOL0     H46118   4.504   5.284   5.781 -1.3314 -3.5843  0.9552
  342MOL0     H46119   4.351   5.217   5.532 -0.6196 -4.7762  0.6254
  342MOL0     H46120   4.368   5.109   5.670  1.8156 -0.8797  0.0929
  342MOL0     H46121   4.637   5.337   5.491 -0.0192  1.0523  0.0292
  342MOL0     H46122   4.953   5.099   5.481  0.9132  0.5536  1.1618
  342MOL0     H46123   4.893   5.220   5.366  0.2719  3.2738  0.4363
  342MOL0     H46124   5.083   5.269   5.542  0.0658 -1.1698 -1.8542
  342MOL0     H46125   4.966   5.283   5.661  1.2778 -1.3385 -0.6129
  342MOL0     H46126   4.840   5.455   5.500  0.4253 -3.6717  0.4737
  342MOL0     H46127   4.982   5.452   5.402 -1.1886  0.9282 -1.0992
  342MOL0     H46128   5.125   5.516   5.582  0.1251 -1.1774  0.7625
  342MOL0     H46129   4.985   5.536   5.694 -0.2324 -2.5630  0.3310
  342MOL0     H46130   4.899   5.896   5.506  1.6971  1.3435 -2.5041
  342MOL0     H46131   5.028   6.213   5.523 -3.5052  2.3195 -0.8083
  342MOL0     H46132   4.891   6.118   5.509  0.0576  0.1700  1.6224
  342MOL0     H46133   4.920   6.218   5.653  2.3077  2.6908 -0.4898
  342MOL0     H46134   5.406   6.166   5.948  3.3955  0.3365  1.0943
  342MOL0     H46135   5.542   6.315   6.071  1.7225  1.7555  0.0553
  342MOL0     H46136   5.705   6.524   6.127 -0.2661  2.1777  0.5499
  342MOL0     H46137   5.740   6.471   5.973 -0.6032 -1.7221  1.1047
  342MOL0     H46138   5.788   6.722   6.114  2.0833 -0.9194  1.2749
  342MOL0     H46139   5.903   6.639   6.016  0.0136 -1.0458 -1.3624
  342MOL0     H46140   5.658   6.801   5.915 -0.4134 -2.5024  0.5894
  342MOL0     H46141   5.754   6.699   5.810 -1.0426 -4.6067  2.9891
  342MOL0     H46142   5.963   6.829   5.891  0.2198 -0.9606  3.7038
  342MOL0     H46143   5.839   6.935   5.804 -2.8975 -1.9268  0.3206
  342MOL0     H46144   5.859   6.921   6.102 -0.3449  0.4099  0.8817
  342MOL0     H46145   5.765   7.030   6.004 -0.7550  0.5368 -1.2124
  342MOL0     H46146   5.965   7.147   6.101  0.6521  1.8570 -0.2424
  342MOL0     H46147   6.072   7.037   6.009 -0.7157  0.7149  0.0849
  342MOL0     H46148   5.989   7.298   5.926  1.7320 -1.8802  2.7700
  342MOL0     H46149   5.866   7.201   5.849  0.1586 -1.1807 -1.3679
  342MOL0     H46150   6.042   7.270   5.716  0.9889  1.6384  0.4150
  342MOL0     H46151   6.052   7.088   5.745  1.6880 -0.7711  0.9143
  342MOL0     H46152   5.428   6.630   5.794  0.9797  0.8497  0.6970
  342MOL0     H46153   5.270   6.468   5.677  0.7766 -1.4439 -1.4338
  342MOL0     H46154   5.277   5.897   5.830  0.1761  0.2954  0.8883
  342MOL0     H46155   5.202   5.690   5.713 -0.1682 -0.2629 -0.7134
  342MOL0     H46156   4.019   5.540   6.525  2.6650 -1.0745 -0.7047
  342MOL0     H46157   3.986   5.677   6.730 -0.7768 -2.4078 -1.4397
  342MOL0     H46158   4.278   5.829   7.152 -0.1055 -0.2078 -1.9255
  342MOL0     H46159   4.216   5.971   7.350  3.7475  1.7878 -0.6451
  342MOL0     H46160   3.927   6.104   7.452 -2.5051  3.4875  1.1587
  342MOL0     H46161   4.101   6.096   7.519 -1.2051  1.3882  3.8199
  342MOL0     H46162   3.905   6.322   7.522  0.1059  1.5229 -3.2580
  342MOL0     H46163   4.082   6.329   7.571 -1.1699  1.9901  1.2098
  342MOL0     H46164   4.032   6.219   7.765 -0.8813  0.4917  0.3104
  342MOL0     H46165   3.905   6.119   7.689 -1.6715  0.0196  3.0435
  342MOL0     H46166   3.794   6.248   7.854 -0.6604  0.7056  0.7954
  342MOL0     H46167   3.745   6.323   7.698 -0.9233 -0.6185  0.7594
  342MOL0     H46168   3.970   6.621   7.876  4.1284 -3.4131  2.0258
  342MOL0     H46169   4.004   6.245   7.101 -0.2873  1.2667 -1.1091
  342MOL0     H46170   4.057   6.095   6.905  1.0484  2.7601 -0.2635
  343MOL0     O46171   6.289   5.926   1.395  0.4664 -0.8303 -0.3566
  343MOL0     C46172   6.225   5.980   1.481 -0.4864  0.3451  0.8106
  343MOL0     O46173   6.178   6.110   1.473  0.0737  1.4864  0.3932
  343MOL0     C46174   6.234   6.197   1.376 -0.0465  0.1493  0.4681
  343MOL0     C46175   6.366   6.196   1.329 -0.5315 -1.0552  0.7788
  343MOL0     C46176   6.404   6.284   1.228 -0.5649 -0.2654  0.4335
  343MOL0     C46177   6.318   6.385   1.189 -0.0510  0.1725 -1.0266
  343MOL0     O46178   6.347   6.491   1.109 -0.0784  0.1555 -0.6054
  343MOL0     C46179   6.467   6.473   1.034  0.8044 -0.3930  0.4566
  343MOL0     C46180   6.485   6.585   0.934  0.4640  0.1303  0.2364
  343MOL0     C46181   6.571   6.699   0.988 -0.4905 -0.7187  0.1845
  343MOL0     C46182   6.610   6.796   0.873 -0.4134 -0.3077  1.1555
  343MOL0     C46183   6.691   6.734   0.748 -0.1887 -0.7242  0.3621
  343MOL0     C46184   6.823   6.656   0.778 -1.0538  0.4027  0.3243
  343MOL0     C46185   6.890   6.610   0.644  0.2198  0.3298 -0.1970
  343MOL0     C46186   6.842   6.472   0.587 -0.3284 -0.7774 -0.1747
  343MOL0     N46187   6.947   6.417   0.494 -0.0181 -0.6388  0.2510
  343MOL0     C46188   7.050   6.341   0.537 -0.4495  0.5934 -0.5923
  343MOL0     C46189   7.137   6.350   0.432 -0.5079  0.0582 -0.1377
  343MOL0     C46190   7.277   6.300   0.436 -0.0039 -0.3198 -0.6067
  343MOL0     C46191   7.375   6.420   0.472  0.5654  0.3391  0.2730
  343MOL0     C46192   7.382   6.428   0.623  0.7877  0.1470  0.1920
  343MOL0     C46193   7.484   6.539   0.671  0.3228 -0.1213 -0.1282
  343MOL0     O46194   7.468   6.573   0.818  0.2208  0.2307 -0.2145
  343MOL0     C46195   7.366   6.662   0.849  0.2347  0.3298 -1.0229
  343MOL0     C46196   7.365   6.702   0.986 -0.4755  0.1087  1.7666
  343MOL0     C46197   7.259   6.789   1.034  0.1525  0.7226  0.3147
  343MOL0     C46198   7.273   6.812   1.181  0.1285  0.1854  0.2316
  343MOL0     C46199   7.159   6.839   0.950  0.4542 -1.3993 -1.4678
  343MOL0     C46200   7.046   6.938   0.983  0.4363  0.1179  0.5108
  343MOL0     O46201   7.017   6.990   1.116  0.7068  0.1809  0.2907
  343MOL0     C46202   6.897   7.048   1.147 -0.2881 -0.2281  0.3359
  343MOL0     C46203   6.844   7.149   1.065 -0.2254  0.1006  0.3042
  343MOL0     C46204   6.723   7.207   1.089  0.1954  0.8233 -0.6478
  343MOL0     C46205   6.647   7.181   1.203  0.7333  0.3135 -0.2913
  343MOL0     O46206   6.526   7.243   1.241 -0.7752  0.1656  0.4618
  343MOL0     C46207   6.444   7.293   1.138  0.2753 -1.3078 -0.0765
  343MOL0     C46208   6.371   7.200   1.046  0.5204 -0.0621 -0.6656
  343MOL0     C46209   6.276   7.273   0.948 -0.9637 -0.0262 -0.6281
  343MOL0     C46210   6.145   7.311   1.012  0.1302 -0.0216  0.8281
  343MOL0     C46211   6.055   7.401   0.921 -0.5027  0.3349 -0.2189
  343MOL0     C46212   5.941   7.467   0.990  0.8116 -0.4838  0.1652
  343MOL0     C46213   5.832   7.518   0.892  0.1312  0.0842 -0.3151
  343MOL0     C46214   5.889   7.638   0.811  0.0708  1.6687  0.2132
  343MOL0    Cl46215   5.914   7.796   0.898 -0.4213 -0.1351 -0.2956
  343MOL0     C46216   6.710   7.090   1.296 -0.3346  0.3259 -1.0891
  343MOL0     C46217   6.832   7.017   1.261 -0.0842 -0.0230 -0.9054
  343MOL0     O46218   6.979   6.960   0.884  0.0174  0.3077  0.3707
  343MOL0     C46219   7.172   6.806   0.814  0.4577 -0.4555  0.2771
  343MOL0     C46220   7.271   6.724   0.766 -0.6080  0.0507 -0.1968
  343MOL0     N46221   7.076   6.434   0.332  0.3984 -0.0979  0.4094
  343MOL0     N46222   6.964   6.461   0.368 -0.6473 -0.2955 -0.3677
  343MOL0     C46223   6.194   6.394   1.237  0.1375 -0.5652 -1.0449
  343MOL0     C46224   6.153   6.297   1.329 -0.4550 -0.2015 -0.0397
  343MOL0     C46225   6.187   5.896   1.599  0.1117  0.4182  0.7835
  343MOL0     C46226   6.093   5.943   1.689 -0.0398  0.3023 -0.7020
  343MOL0     C46227   6.055   5.859   1.798  0.7561  0.7445  0.7438
  343MOL0     C46228   6.108   5.728   1.816 -0.1785 -0.8871  0.1353
  343MOL0     O46229   6.081   5.656   1.928  0.5449  0.3352 -0.8102
  343MOL0     C46230   6.142   5.525   1.946  0.1489  0.1622 -0.6734
  343MOL0     C46231   6.130   5.484   2.093 -0.8443  1.1808 -0.6621
  343MOL0     C46232   6.250   5.421   2.161 -0.2725  0.0483 -0.5827
  343MOL0     C46233   6.232   5.309   2.262  0.5205  0.6127 -1.0981
  343MOL0     C46234   6.158   5.363   2.372 -0.2263 -0.6361  0.9568
  343MOL0     C46235   6.078   5.406   2.455 -0.1294  0.6323  0.4267
  343MOL0     C46236   6.204   5.691   1.714 -0.3961 -0.5880 -0.6167
  343MOL0     C46237   6.250   5.771   1.612  1.3037  0.2265  0.0353
  343MOL0     H46238   6.446   6.130   1.362  0.2881  0.1715  1.3211
  343MOL0     H46239   6.508   6.280   1.198 -0.7995 -0.3176 -0.4005
  343MOL0     H46240   6.554   6.474   1.100  1.3259 -2.7955 -0.1243
  343MOL0     H46241   6.473   6.374   0.988 -0.3303 -0.8222  1.2055
  343MOL0     H46242   6.525   6.534   0.846  0.0176 -1.7748  1.0750
  343MOL0     H46243   6.390   6.620   0.892  0.2980 -3.7723 -3.3513
  343MOL0     H46244   6.517   6.758   1.062  2.7345 -0.1015  2.2844
  343MOL0     H46245   6.666   6.667   1.033  1.2122 -0.0585 -2.6655
  343MOL0     H46246   6.512   6.829   0.838 -1.1643 -1.6046  1.9962
  343MOL0     H46247   6.669   6.874   0.922 -1.2812  0.0182  1.6988
  343MOL0     H46248   6.625   6.670   0.688 -1.1513  0.5240  0.0344
  343MOL0     H46249   6.707   6.817   0.679  0.0117  0.3683  1.6960
  343MOL0     H46250   6.889   6.728   0.827 -1.5016  0.0017  1.5532
  343MOL0     H46251   6.800   6.560   0.825 -0.2939 -1.2073 -2.3382
  343MOL0     H46252   6.878   6.681   0.562  2.7776 -2.6702 -3.5060
  343MOL0     H46253   6.999   6.601   0.653  0.3221 -0.2909 -1.7255
  343MOL0     H46254   6.742   6.492   0.547 -0.1658  1.1625  0.2462
  343MOL0     H46255   6.831   6.395   0.664  0.0596 -0.6592  0.0048
  343MOL0     H46256   7.048   6.290   0.633 -0.4108  1.7615  0.0541
  343MOL0     H46257   7.284   6.217   0.507  2.9791 -1.5620 -2.1523
  343MOL0     H46258   7.304   6.257   0.339  0.7347 -0.4425 -0.3522
  343MOL0     H46259   7.327   6.505   0.421 -1.6609 -0.2245  1.2983
  343MOL0     H46260   7.470   6.391   0.427  0.1243 -1.0684  0.1927
  343MOL0     H46261   7.408   6.333   0.672 -1.1822 -0.8277 -0.5442
  343MOL0     H46262   7.284   6.454   0.664  0.6727  2.0488 -1.1673
  343MOL0     H46263   7.464   6.631   0.614  2.6360  0.8265  0.4897
  343MOL0     H46264   7.583   6.503   0.643 -0.2874  1.2866 -5.1571
  343MOL0     H46265   7.453   6.671   1.042  1.8637  0.7930 -1.2704
  343MOL0     H46266   7.301   6.723   1.238  2.2070 -0.7679 -2.0983
  343MOL0     H46267   7.357   6.880   1.196 -0.0020 -0.1537  2.9704
  343MOL0     H46268   7.181   6.862   1.212 -0.2334  0.5253 -1.3050
  343MOL0     H46269   6.900   7.177   0.976  1.6113 -1.3592  0.9224
  343MOL0     H46270   6.685   7.273   1.011  0.1238 -0.6133 -1.8745
  343MOL0     H46271   6.359   7.344   1.184 -1.1596 -2.9405 -0.8125
  343MOL0     H46272   6.496   7.366   1.074 -0.7097 -3.8454 -4.1841
  343MOL0     H46273   6.443   7.146   0.984 -1.2292 -2.7330 -0.5114
  343MOL0     H46274   6.315   7.131   1.109 -0.1227  2.2026  1.3687
  343MOL0     H46275   6.261   7.204   0.864  2.2050 -1.0016 -0.5298
  343MOL0     H46276   6.319   7.359   0.896 -3.2696 -0.7663 -4.0981
  343MOL0     H46277   6.093   7.218   1.033  2.6129 -2.1613 -1.6597
  343MOL0     H46278   6.158   7.363   1.108 -0.7341 -1.3034  1.6633
  343MOL0     H46279   6.017   7.334   0.844  0.0106  1.0065 -1.0757
  343MOL0     H46280   6.123   7.471   0.872 -1.5614  0.2020 -1.9786
  343MOL0     H46281   5.895   7.398   1.062 -0.7218 -0.1733 -0.4714
  343MOL0     H46282   5.969   7.549   1.058 -1.2509  1.2650 -0.9486
  343MOL0     H46283   5.739   7.550   0.939 -0.6835 -2.7492  0.1857
  343MOL0     H46284   5.805   7.437   0.824 -3.7726 -0.3052  1.4363
  343MOL0     H46285   5.814   7.655   0.734 -0.6547 -1.9936 -0.1030
  343MOL0     H46286   5.979   7.622   0.752 -1.1519  0.8632 -1.5045
  343MOL0     H46287   6.665   7.064   1.390 -0.6622  2.1165 -0.7220
  343MOL0     H46288   6.877   6.946   1.329  1.3308  1.2940 -0.4214
  343MOL0     H46289   7.107   6.850   0.740 -1.9749  0.5940  2.8651
  343MOL0     H46290   7.274   6.720   0.657  0.5740  0.4511 -0.1905
  343MOL0     H46291   6.132   6.479   1.209 -0.2886  0.4105  2.4247
  343MOL0     H46292   6.060   6.303   1.384 -1.5036 -2.1079 -1.4831
  343MOL0     H46293   6.036   6.035   1.681 -2.8569 -1.3787 -1.5502
  343MOL0     H46294   5.983   5.908   1.863 -0.3359  3.3609 -2.1795
  343MOL0     H46295   6.090   5.444   1.893  0.2531  0.6175 -1.4822
  343MOL0     H46296   6.248   5.526   1.918  0.3768  0.2108  0.1650
  343MOL0     H46297   6.041   5.421   2.104  1.6291 -2.4738 -0.1395
  343MOL0     H46298   6.105   5.575   2.148 -2.7952 -0.4983  1.4143
  343MOL0     H46299   6.312   5.499   2.206  0.2559  0.5115 -2.0410
  343MOL0     H46300   6.313   5.372   2.085 -0.2673 -0.6861 -0.1210
  343MOL0     H46301   6.331   5.265   2.273  0.8534  1.5646 -0.0686
  343MOL0     H46302   6.173   5.228   2.217  1.9659 -0.2627 -1.4691
  343MOL0     H46303   5.998   5.440   2.516  0.5505 -1.3005  2.5258
  343MOL0     H46304   6.247   5.591   1.721  5.4327  1.6584  2.2994
  343MOL0     H46305   6.319   5.722   1.545  3.1540 -0.3176  2.1917
  344MOL0     O46306  10.263   1.323  11.252 -0.5021  0.4832  0.0254
  344MOL0     C46307  10.168   1.300  11.334  0.3149  0.7197 -0.4013
  344MOL0     O46308  10.087   1.394  11.382  0.2814 -0.5393 -0.0335
  344MOL0     C46309  10.092   1.526  11.356  0.5129 -0.1706 -1.6536
  344MOL0     C46310  10.211   1.588  11.362 -0.3837 -0.4651  0.1790
  344MOL0     C46311  10.239   1.723  11.334  0.4185  0.0871 -0.1153
  344MOL0     C46312  10.129   1.800  11.306 -0.2807 -0.4533  0.0886
  344MOL0     O46313  10.137   1.929  11.269 -0.2560  0.2917  0.5101
  344MOL0     C46314  10.208   1.954  11.138 -0.0536 -0.7912 -0.7036
  344MOL0     C46315  10.119   2.016  11.034  0.1911  0.5620 -0.7148
  344MOL0     C46316  10.190   2.032  10.902  0.1711 -0.2868 -0.5768
  344MOL0     C46317  10.099   2.093  10.788  0.0715  0.6257 -0.4257
  344MOL0     C46318   9.973   2.010  10.747  0.1480  0.9974 -0.6644
  344MOL0     C46319   9.887   2.072  10.630 -0.4817  0.5409  0.3749
  344MOL0     C46320   9.749   2.003  10.622 -0.3828  0.9512  0.0398
  344MOL0     C46321   9.645   2.064  10.720  0.0783  0.3960  0.4474
  344MOL0     N46322   9.597   2.188  10.658  0.4807 -0.5325  0.1130
  344MOL0     C46323   9.484   2.186  10.588 -0.3952  0.3369  0.0715
  344MOL0     C46324   9.448   2.315  10.568  0.0527 -0.5836 -0.5634
  344MOL0     C46325   9.330   2.361  10.486  0.4278 -0.2614 -0.1316
  344MOL0     C46326   9.199   2.364  10.572 -0.6042 -0.2503  0.2703
  344MOL0     C46327   9.076   2.392  10.479 -0.6674  0.4367  0.2179
  344MOL0     C46328   8.953   2.442  10.549 -0.5000 -0.2238 -0.3742
  344MOL0     O46329   8.852   2.475  10.450  0.5160  0.5680  0.1278
  344MOL0     C46330   8.753   2.564  10.493  0.5502 -0.6782  0.1942
  344MOL0     C46331   8.692   2.638  10.390  0.0283  0.1801 -1.1423
  344MOL0     C46332   8.588   2.735  10.422 -0.1757 -0.5365  0.6269
  344MOL0     C46333   8.529   2.817  10.309  1.0243 -0.1028  1.1861
  344MOL0     C46334   8.546   2.741  10.555 -0.8074 -0.8683 -0.1052
  344MOL0     C46335   8.444   2.833  10.595 -0.0193 -0.5443 -0.0576
  344MOL0     O46336   8.488   2.924  10.683 -0.6928 -0.2153 -0.6043
  344MOL0     C46337   8.422   3.044  10.713 -0.4175 -0.4099  0.0868
  344MOL0     C46338   8.306   3.100  10.645 -0.1515 -0.2632  0.4014
  344MOL0     C46339   8.258   3.225  10.678 -0.2781  0.0517 -0.0078
  344MOL0     C46340   8.318   3.299  10.783  0.0652  0.3788 -0.9952
  344MOL0     O46341   8.278   3.420  10.832 -0.0472 -0.8077 -0.2315
  344MOL0     C46342   8.136   3.429  10.847 -0.2239  1.3321 -0.0141
  344MOL0     C46343   8.120   3.532  10.956  0.1637  0.1915 -0.2589
  344MOL0     C46344   8.151   3.675  10.910  0.3214 -0.1381  0.3519
  344MOL0     C46345   8.052   3.746  10.821 -0.0337  0.1387  0.6712
  344MOL0     C46346   7.914   3.783  10.870  0.3237  0.6018 -0.0458
  344MOL0     C46347   7.914   3.889  10.977 -0.6358  0.2912 -0.4236
  344MOL0     C46348   7.952   4.032  10.922  0.4201 -0.7484 -0.4663
  344MOL0     C46349   7.875   4.090  10.795  0.2607 -0.4288 -0.6726
  344MOL0    Cl46350   7.909   4.001  10.640  0.0640 -0.3598  0.2330
  344MOL0     C46351   8.427   3.251  10.850  0.8741  0.7825  0.1026
  344MOL0     C46352   8.469   3.123  10.817 -0.1169 -0.3952 -0.1030
  344MOL0     O46353   8.328   2.826  10.547  0.1594  0.8861  0.1477
  344MOL0     C46354   8.608   2.669  10.648 -0.5865 -0.8133 -0.7327
  344MOL0     C46355   8.705   2.577  10.619 -0.1121  1.1328 -0.5242
  344MOL0     N46356   9.544   2.397  10.626  0.6845 -0.1127  0.0199
  344MOL0     N46357   9.633   2.317  10.672 -0.2830 -0.8821 -0.4417
  344MOL0     C46358  10.004   1.741  11.304 -0.6592  0.2157  0.1953
  344MOL0     C46359   9.991   1.607  11.322  0.3370 -0.5431  0.7559
  344MOL0     C46360  10.187   1.180  11.408 -0.6602  0.4112 -0.1745
  344MOL0     C46361  10.285   1.082  11.377 -0.0761  0.3677 -0.5194
  344MOL0     C46362  10.312   0.971  11.459  0.4237 -0.0821 -0.4466
  344MOL0     C46363  10.237   0.955  11.574 -0.2190  0.1118  0.0236
  344MOL0     O46364  10.253   0.842  11.650 -0.7536  0.1899 -0.0013
  344MOL0     C46365  10.245   0.855  11.792  0.9595  0.5883 -0.1553
  344MOL0     C46366  10.383   0.874  11.847 -0.1210 -0.3052  0.5689
  344MOL0     C46367  10.481   0.761  11.813  1.5670  0.1079  0.5760
  344MOL0     C46368  10.625   0.810  11.861 -0.2800 -0.1792  0.4742
  344MOL0     C46369  10.732   0.706  11.862 -0.2434  0.4697 -1.0751
  344MOL0     C46370  10.817   0.626  11.873 -0.5153  0.9326 -0.4099
  344MOL0     C46371  10.134   1.044  11.603  0.5127  0.1153  0.5030
  344MOL0     C46372  10.113   1.156  11.518  0.3219  0.0250 -1.0453
  344MOL0     H46373  10.299   1.525  11.371 -0.6154 -1.5989 -3.6861
  344MOL0     H46374  10.339   1.760  11.352  0.4595 -0.5725  1.1255
  344MOL0     H46375  10.289   2.023  11.161 -0.8895  0.5741 -1.7180
  344MOL0     H46376  10.242   1.858  11.098 -1.9326 -1.6372 -0.3740
  344MOL0     H46377  10.036   1.947  11.017  2.0600 -2.1134  0.5091
  344MOL0     H46378  10.077   2.109  11.074 -1.6081  0.2948 -1.8558
  344MOL0     H46379  10.271   2.103  10.919  0.2255 -0.8934  2.0756
  344MOL0     H46380  10.233   1.938  10.866 -0.2965 -0.0412 -1.8252
  344MOL0     H46381  10.063   2.186  10.833  0.2870  0.2962  0.4449
  344MOL0     H46382  10.169   2.122  10.710  0.0480 -0.1121 -0.7241
  344MOL0     H46383   9.987   1.904  10.724  3.0112  1.5641 -1.8891
  344MOL0     H46384   9.906   2.015  10.834  0.5611  1.5013 -0.3709
  344MOL0     H46385   9.877   2.181  10.634  1.7092  0.8311 -0.4926
  344MOL0     H46386   9.942   2.057  10.536 -0.3330  1.9815  0.2126
  344MOL0     H46387   9.707   2.015  10.522  0.6292  0.2401 -0.4925
  344MOL0     H46388   9.771   1.899  10.647  0.2810  0.6995 -1.4800
  344MOL0     H46389   9.683   2.086  10.820 -0.8659 -0.0088  0.9034
  344MOL0     H46390   9.557   2.000  10.729 -0.7625  1.1385 -1.8027
  344MOL0     H46391   9.441   2.091  10.555 -1.3190  0.0170  2.0661
  344MOL0     H46392   9.352   2.460  10.446 -1.2894  0.9044  1.6326
  344MOL0     H46393   9.322   2.289  10.404  3.3532  1.1013 -1.7573
  344MOL0     H46394   9.199   2.427  10.662 -2.6912 -1.2253  1.0067
  344MOL0     H46395   9.202   2.263  10.615  3.9292 -0.9801 -1.1601
  344MOL0     H46396   9.054   2.296  10.430 -4.0292  2.2186 -2.1815
  344MOL0     H46397   9.113   2.462  10.403  1.9185  1.0922  1.9656
  344MOL0     H46398   8.987   2.529  10.606 -1.3157 -1.3363  1.9614
  344MOL0     H46399   8.903   2.367  10.611 -1.1845  1.5782  1.3585
  344MOL0     H46400   8.715   2.619  10.285 -2.7812  0.0131 -1.8186
  344MOL0     H46401   8.461   2.899  10.333  1.4710  0.6316  0.0742
  344MOL0     H46402   8.608   2.858  10.244  2.4061 -4.4325 -0.2662
  344MOL0     H46403   8.477   2.741  10.251  2.0419 -1.3930  1.9142
  344MOL0     H46404   8.259   3.045  10.563  0.3968 -1.4047  0.8384
  344MOL0     H46405   8.169   3.263  10.628 -0.3571  1.4235  1.1176
  344MOL0     H46406   8.094   3.460  10.751  1.8852 -1.2973 -1.9775
  344MOL0     H46407   8.090   3.334  10.877 -0.8263  0.1143 -4.0853
  344MOL0     H46408   8.018   3.527  10.992 -0.0204  1.2165 -0.6020
  344MOL0     H46409   8.185   3.501  11.039  0.3309 -3.5549 -1.5912
  344MOL0     H46410   8.248   3.690  10.861 -0.4693 -0.3617 -1.3685
  344MOL0     H46411   8.165   3.733  11.001 -0.8904 -0.9410  1.0740
  344MOL0     H46412   8.095   3.840  10.784 -3.5955  1.1671 -1.3498
  344MOL0     H46413   8.033   3.684  10.734  1.2246  0.3763  0.1997
  344MOL0     H46414   7.872   3.697  10.924  1.7383  0.1468  0.3571
  344MOL0     H46415   7.841   3.798  10.790  0.4882  2.6314  0.1206
  344MOL0     H46416   7.811   3.892  11.014 -0.5014 -2.2333  0.3317
  344MOL0     H46417   7.975   3.869  11.065  0.5646  0.5084 -1.1844
  344MOL0     H46418   8.058   4.031  10.893  0.1180 -2.9029 -1.7458
  344MOL0     H46419   7.942   4.107  11.001  2.6808  0.1929 -0.9829
  344MOL0     H46420   7.895   4.196  10.780 -2.0015 -0.0135 -1.0874
  344MOL0     H46421   7.770   4.076  10.823  0.4909 -0.0074  0.4473
  344MOL0     H46422   8.480   3.306  10.927 -2.1855  0.5596  2.6101
  344MOL0     H46423   8.556   3.087  10.869 -0.4810  0.9679  1.5326
  344MOL0     H46424   8.584   2.677  10.754 -0.7644 -2.7010 -0.5964
  344MOL0     H46425   8.753   2.514  10.693  1.3375  2.9434  0.1466
  344MOL0     H46426   9.908   1.790  11.303 -0.5841  0.3586 -0.4091
  344MOL0     H46427   9.897   1.567  11.287  0.1894  0.7993 -0.4506
  344MOL0     H46428  10.356   1.096  11.296 -0.2956  0.7799 -0.6470
  344MOL0     H46429  10.393   0.900  11.445 -1.4124 -2.5373  0.6441
  344MOL0     H46430  10.175   0.933  11.824  1.2338  0.1918  1.4874
  344MOL0     H46431  10.211   0.757  11.828  3.0199  0.6025  2.1016
  344MOL0     H46432  10.366   0.873  11.956  3.3730 -0.0062  1.2201
  344MOL0     H46433  10.414   0.972  11.811 -0.9451 -0.4658 -0.6382
  344MOL0     H46434  10.474   0.753  11.704  3.0513  1.7540  0.2973
  344MOL0     H46435  10.444   0.670  11.860  1.0330  0.6009  1.1174
  344MOL0     H46436  10.612   0.852  11.962  0.4714  2.4921 -0.4527
  344MOL0     H46437  10.653   0.897  11.801  2.3179 -0.0591  1.7506
  344MOL0     H46438  10.910   0.572  11.877  0.7788  3.0466 -0.4172
  344MOL0     H46439  10.066   1.023  11.686  1.8405 -0.1678  1.5527
  344MOL0     H46440  10.050   1.235  11.558 -0.2830 -0.8383 -0.2599
  345MOL0     O46441   7.647   9.745  11.295 -0.6496  0.7148  0.2445
  345MOL0     C46442   7.618   9.810  11.391 -0.7535  0.6933  0.0730
  345MOL0     O46443   7.553   9.934  11.385  0.0277 -0.0649  0.4327
  345MOL0     C46444   7.540   9.993  11.266  0.6497 -0.3862  0.5073
  345MOL0     C46445   7.442   9.955  11.179 -0.2555  0.3801 -0.0589
  345MOL0     C46446   7.435   9.989  11.040  0.7681 -0.0436  0.7022
  345MOL0     C46447   7.523  10.082  10.994  0.3730 -0.3686  0.3033
  345MOL0     O46448   7.541  10.127  10.861 -0.3357 -0.6945 -0.7091
  345MOL0     C46449   7.433  10.093  10.769 -0.1763 -1.2092 -0.5648
  345MOL0     C46450   7.489  10.101  10.625  0.1873 -0.0416 -0.2825
  345MOL0     C46451   7.365  10.071  10.531 -1.1091  0.0243  0.1208
  345MOL0     C46452   7.403  10.029  10.396 -0.1313  1.1053 -0.0848
  345MOL0     C46453   7.282   9.957  10.313  0.1201 -0.6869 -0.6086
  345MOL0     C46454   7.342   9.879  10.194 -0.3579 -0.3259  0.7625
  345MOL0     C46455   7.234   9.824  10.097 -0.1410 -0.1034  0.1374
  345MOL0     C46456   7.161   9.932  10.014 -0.2513  0.3800  0.2168
  345MOL0     N46457   7.257  10.020   9.939  0.2861  0.5648 -0.5122
  345MOL0     C46458   7.294  10.140   9.972 -0.1582 -0.2526 -0.0401
  345MOL0     C46459   7.395  10.169   9.892  0.1030  0.4280 -0.4549
  345MOL0     C46460   7.484  10.297   9.914  0.5944 -0.2919 -0.1587
  345MOL0     C46461   7.565  10.281  10.043 -0.5061  0.5715 -0.1871
  345MOL0     C46462   7.667  10.397  10.051 -0.6944 -0.3005  0.6490
  345MOL0     C46463   7.789  10.340  10.118 -0.8628  0.2596  0.3849
  345MOL0     O46464   7.777  10.322  10.260 -0.2857  0.5172  0.4335
  345MOL0     C46465   7.875  10.247  10.310 -0.4983 -0.3953 -0.7616
  345MOL0     C46466   8.007  10.289  10.342  0.2883  0.4230 -0.1164
  345MOL0     C46467   8.084  10.195  10.409 -0.2745  0.1408 -0.6970
  345MOL0     C46468   8.223  10.229  10.442 -0.1557 -0.4257 -0.2637
  345MOL0     C46469   8.038  10.056  10.438  0.2333 -0.5224  0.0147
  345MOL0     C46470   8.114   9.948  10.515  0.2268 -0.2767  1.0152
  345MOL0     O46471   8.075   9.822  10.499  0.3911  0.5797  0.1068
  345MOL0     C46472   8.154   9.735  10.572 -0.1666 -0.1268  0.2180
  345MOL0     C46473   8.128   9.707  10.701 -0.2593  0.8020 -0.4135
  345MOL0     C46474   8.200   9.599  10.767 -0.0481 -0.0654  0.2972
  345MOL0     C46475   8.299   9.524  10.709 -0.7327 -0.3827 -0.4034
  345MOL0     O46476   8.353   9.420  10.785  0.2270  0.2474 -0.5400
  345MOL0     C46477   8.489   9.375  10.762  0.9921  0.5747  0.7493
  345MOL0     C46478   8.510   9.249  10.838  0.4312  0.5619 -0.8296
  345MOL0     C46479   8.486   9.258  10.990 -0.0275  1.2375 -0.7959
  345MOL0     C46480   8.550   9.144  11.073  0.3271 -0.0827  0.0254
  345MOL0     C46481   8.469   9.118  11.200 -1.3237  0.6116 -0.0358
  345MOL0     C46482   8.454   9.225  11.305 -0.2481  0.5751  0.2025
  345MOL0     C46483   8.596   9.284  11.342  0.0672  0.3965 -0.3741
  345MOL0     C46484   8.589   9.371  11.466  0.0093 -0.3767 -0.0532
  345MOL0    Cl46485   8.524   9.527  11.429 -0.8760 -0.5065  0.6448
  345MOL0     C46486   8.327   9.549  10.573  0.4790 -1.3842 -0.1942
  345MOL0     C46487   8.256   9.657  10.505  0.9513  0.4874  0.5672
  345MOL0     O46488   8.199   9.985  10.599  0.3474  0.8934 -0.9405
  345MOL0     C46489   7.903  10.031  10.397 -0.2906 -0.0184  0.0808
  345MOL0     C46490   7.820  10.120  10.332  0.3569  0.5560 -0.1371
  345MOL0     N46491   7.422  10.058   9.811  0.3849  1.7100  1.0338
  345MOL0     N46492   7.330   9.971   9.831 -0.7206 -0.0635  0.5533
  345MOL0     C46493   7.620  10.136  11.091 -0.2340  0.2896  0.2109
  345MOL0     C46494   7.619  10.094  11.218 -0.0913  0.0541 -0.8308
  345MOL0     C46495   7.650   9.747  11.526 -0.1096 -0.4492  0.6496
  345MOL0     C46496   7.696   9.614  11.535 -0.2762  0.2568 -0.3962
  345MOL0     C46497   7.731   9.546  11.659  0.3370 -0.2238  0.4180
  345MOL0     C46498   7.705   9.611  11.782  0.5871 -0.5871  0.3721
  345MOL0     O46499   7.722   9.546  11.905 -0.2724  0.1498  0.4469
  345MOL0     C46500   7.786   9.623  12.010  0.0488 -0.7925  0.4211
  345MOL0     C46501   7.842   9.524  12.109 -0.0973 -0.5821  0.1976
  345MOL0     C46502   7.915   9.404  12.043  0.5987  0.2601  0.8929
  345MOL0     C46503   7.966   9.297  12.145  0.2430 -0.3148  0.2668
  345MOL0     C46504   8.043   9.197  12.068  0.3152 -0.0086 -0.6511
  345MOL0     C46505   8.088   9.119  11.991 -0.3710  0.3781  0.3500
  345MOL0     C46506   7.650   9.744  11.772  0.3726  1.2828 -1.1800
  345MOL0     C46507   7.632   9.809  11.647  0.6891  0.1674 -0.6487
  345MOL0     H46508   7.369   9.887  11.223 -2.3758  2.1412 -0.6661
  345MOL0     H46509   7.357   9.945  10.978  1.5279  2.6392 -2.4684
  345MOL0     H46510   7.387   9.995  10.785 -0.0252 -1.1404  0.3599
  345MOL0     H46511   7.351  10.165  10.781 -2.2279 -3.5745  0.5563
  345MOL0     H46512   7.540  10.195  10.601 -0.4585  0.2897 -0.3904
  345MOL0     H46513   7.557  10.016  10.621 -0.4432 -0.5746  0.1799
  345MOL0     H46514   7.309   9.987  10.573 -3.3628  0.1467 -2.3446
  345MOL0     H46515   7.303  10.160  10.540  1.3743  1.6316  3.4113
  345MOL0     H46516   7.464  10.096  10.334  1.2405 -0.6080 -0.7088
  345MOL0     H46517   7.475   9.946  10.394 -4.4497 -3.1149 -2.8611
  345MOL0     H46518   7.220   9.881  10.361 -0.4408 -2.3552 -3.7186
  345MOL0     H46519   7.210  10.034  10.284  0.5925  0.8197  1.8984
  345MOL0     H46520   7.413   9.946  10.146  0.4127 -1.5865  0.0992
  345MOL0     H46521   7.409   9.800  10.229  0.1557  0.0963  0.7385
  345MOL0     H46522   7.275   9.742  10.037  0.9274 -1.9675  3.1666
  345MOL0     H46523   7.160   9.769  10.155 -1.9881 -0.0699 -2.0476
  345MOL0     H46524   7.104  10.004  10.074  1.9348  2.6481 -0.2678
  345MOL0     H46525   7.097   9.876   9.946  0.7837 -2.8436  1.6791
  345MOL0     H46526   7.260  10.194  10.060 -2.0990  0.7474 -1.3390
  345MOL0     H46527   7.541  10.319   9.823 -1.2260 -4.3797 -2.5558
  345MOL0     H46528   7.426  10.389   9.916 -0.3599 -0.7407 -3.1346
  345MOL0     H46529   7.609  10.180  10.047 -0.2429  0.6955  0.1959
  345MOL0     H46530   7.499  10.285  10.130  1.1916  0.4748  1.1869
  345MOL0     H46531   7.626  10.485  10.103 -2.4639  0.8268 -2.3815
  345MOL0     H46532   7.681  10.429   9.947  0.1994  0.8702  1.0989
  345MOL0     H46533   7.864  10.419  10.103 -1.4112  1.0640  1.6957
  345MOL0     H46534   7.823  10.242  10.083  1.2648  0.7372  0.9115
  345MOL0     H46535   8.051  10.387  10.328 -0.7266  1.2541  1.9638
  345MOL0     H46536   8.224  10.256  10.548  2.2428  2.5807 -0.8882
  345MOL0     H46537   8.285  10.139  10.431  2.1968  0.8241  1.9089
  345MOL0     H46538   8.264  10.304  10.373 -1.7767  3.1236  2.3062
  345MOL0     H46539   8.054   9.770  10.749  0.0448  1.8470 -1.2653
  345MOL0     H46540   8.200   9.592  10.875  2.0898 -0.1323  0.3377
  345MOL0     H46541   8.491   9.355  10.654 -1.4214  0.0572  0.7372
  345MOL0     H46542   8.552   9.457  10.798  0.0074  0.8643  1.8965
  345MOL0     H46543   8.448   9.165  10.806 -1.6675  1.9432 -0.5259
  345MOL0     H46544   8.613   9.215  10.821  0.6117 -0.4190  1.7481
  345MOL0     H46545   8.380   9.254  11.017 -0.4128 -2.1270 -2.3422
  345MOL0     H46546   8.520   9.356  11.025 -1.3288  1.3959  0.0982
  345MOL0     H46547   8.559   9.054  11.013  1.2820 -0.0530  0.1034
  345MOL0     H46548   8.654   9.163  11.103  0.1792 -1.9959  1.9843
  345MOL0     H46549   8.509   9.023  11.236 -1.1817 -0.3722 -2.5740
  345MOL0     H46550   8.368   9.102  11.161 -0.2320  0.3545 -3.0563
  345MOL0     H46551   8.390   9.305  11.269 -0.3257  0.1263 -0.6798
  345MOL0     H46552   8.408   9.184  11.396  0.1441 -0.8085 -0.2031
  345MOL0     H46553   8.624   9.348  11.257  0.4601  1.2566  0.3869
  345MOL0     H46554   8.665   9.200  11.351 -1.7804 -1.1086  0.3247
  345MOL0     H46555   8.686   9.369  11.517  0.1595 -0.7458 -0.3557
  345MOL0     H46556   8.517   9.325  11.535  0.0563 -1.4636 -0.7083
  345MOL0     H46557   8.409   9.501  10.520 -0.1319  0.6336 -3.2061
  345MOL0     H46558   8.257   9.663  10.397 -2.1465  0.3960  0.4391
  345MOL0     H46559   7.861   9.933  10.420  1.3094 -0.2464  2.4488
  345MOL0     H46560   7.717  10.107  10.302 -0.0485  1.2726  0.8696
  345MOL0     H46561   7.688  10.206  11.043  0.6716 -0.9452 -0.3734
  345MOL0     H46562   7.689  10.129  11.293 -1.1068  3.0593 -1.1354
  345MOL0     H46563   7.712   9.575  11.435 -1.9812  2.1600 -1.4812
  345MOL0     H46564   7.743   9.438  11.650 -2.7706 -0.4958 -3.1349
  345MOL0     H46565   7.870   9.673  11.961 -3.4586  1.9837 -3.4802
  345MOL0     H46566   7.713   9.694  12.051  0.8056  0.5152 -0.4151
  345MOL0     H46567   7.760   9.474  12.163 -1.4428  0.0912 -1.1361
  345MOL0     H46568   7.917   9.572  12.172 -0.0277  0.6406 -0.7885
  345MOL0     H46569   7.991   9.452  11.981  1.3929  1.5821  2.7704
  345MOL0     H46570   7.838   9.362  11.977  2.4341  0.2204 -1.3347
  345MOL0     H46571   7.877   9.249  12.186  0.3147 -1.7796 -1.2139
  345MOL0     H46572   8.026   9.350  12.219  2.7641 -2.2111 -0.3017
  345MOL0     H46573   8.145   9.050  11.931  3.0991  0.6743  2.9765
  345MOL0     H46574   7.642   9.789  11.870  2.6410  2.3945 -1.4173
  345MOL0     H46575   7.604   9.914  11.659 -0.4976 -0.3430  1.6176
  346MOL0     O46576   1.479   4.002   4.988 -0.4758 -1.2290  0.4824
  346MOL0     C46577   1.472   3.987   4.864 -0.3767 -0.9909  0.5721
  346MOL0     O46578   1.469   3.870   4.798 -0.4908 -0.2402  0.1056
  346MOL0     C46579   1.514   3.749   4.846  0.1118  0.1728 -0.3498
  346MOL0     C46580   1.465   3.690   4.963 -0.4907 -0.3499  0.3997
  346MOL0     C46581   1.502   3.558   5.008 -0.7868 -0.4800  0.5406
  346MOL0     C46582   1.602   3.490   4.941  0.1739  0.4267  0.0686
  346MOL0     O46583   1.659   3.373   4.977 -0.0850  0.2734 -0.3844
  346MOL0     C46584   1.737   3.379   5.090 -0.6513  1.0633 -0.7304
  346MOL0     C46585   1.815   3.250   5.093  0.1305 -0.3315  0.0777
  346MOL0     C46586   1.856   3.205   5.235  0.8817 -0.2510  0.1197
  346MOL0     C46587   1.963   3.293   5.294  0.5616  0.1421  0.9618
  346MOL0     C46588   2.007   3.266   5.441 -0.1039  0.5499  0.7691
  346MOL0     C46589   2.055   3.120   5.449 -0.3688  0.3185 -0.0075
  346MOL0     C46590   2.148   3.094   5.565  0.0116 -0.8586 -0.0515
  346MOL0     C46591   2.107   3.142   5.705  1.0731  0.2618 -0.2904
  346MOL0     N46592   2.034   3.041   5.789 -0.3415 -0.5787 -0.5583
  346MOL0     C46593   1.901   3.028   5.800 -0.0898 -0.1873  0.1501
  346MOL0     C46594   1.872   2.924   5.875  0.3141  0.6491 -0.4941
  346MOL0     C46595   1.741   2.866   5.908 -0.2449 -0.1378  0.5541
  346MOL0     C46596   1.724   2.720   5.915 -0.1442  0.4660  1.1769
  346MOL0     C46597   1.582   2.679   5.942  0.5927  0.5443 -0.1241
  346MOL0     C46598   1.530   2.740   6.079 -0.3959  0.0818  0.5542
  346MOL0     O46599   1.405   2.668   6.125  0.0373  0.5626  0.3603
  346MOL0     C46600   1.291   2.645   6.050 -0.5943  0.0448  0.4958
  346MOL0     C46601   1.205   2.549   6.093  0.3136  0.1765  0.9814
  346MOL0     C46602   1.085   2.529   6.023  0.5641 -0.0446  0.4037
  346MOL0     C46603   0.998   2.412   6.070 -0.4466 -0.0391 -0.1457
  346MOL0     C46604   1.053   2.608   5.904 -0.4402  0.0818 -0.0008
  346MOL0     C46605   0.943   2.577   5.808  1.2196 -0.0554 -0.7335
  346MOL0     O46606   0.935   2.680   5.715 -0.2085 -1.2926 -0.3059
  346MOL0     C46607   0.837   2.694   5.619  1.0842  0.4821 -0.0477
  346MOL0     C46608   0.831   2.600   5.514  0.9222 -0.9235 -0.2766
  346MOL0     C46609   0.743   2.617   5.405 -1.1769 -0.4888  0.3517
  346MOL0     C46610   0.660   2.727   5.403  0.0005  0.0062  0.3263
  346MOL0     O46611   0.568   2.755   5.308 -0.6205  0.2916 -0.1679
  346MOL0     C46612   0.533   2.645   5.230  0.2529  0.2873  0.1992
  346MOL0     C46613   0.458   2.706   5.112 -0.3287 -0.2957  0.1635
  346MOL0     C46614   0.374   2.609   5.037 -0.5710  0.2711  0.5723
  346MOL0     C46615   0.297   2.647   4.910 -0.2977 -0.5600 -0.3501
  346MOL0     C46616   0.252   2.523   4.826  0.7010 -0.2909  0.4660
  346MOL0     C46617   0.181   2.562   4.703 -0.3308 -0.7612 -0.1202
  346MOL0     C46618   0.056   2.662   4.716 -1.2784  0.8711  0.1278
  346MOL0     C46619  -0.061   2.608   4.800 -0.1908  0.6277 -0.0402
  346MOL0    Cl46620  -0.200   2.722   4.761  0.2775 -0.1872 -0.3520
  346MOL0     C46621   0.661   2.817   5.510  0.5881  0.0093 -0.0005
  346MOL0     C46622   0.747   2.799   5.617 -1.0613 -0.6875 -1.0113
  346MOL0     O46623   0.866   2.483   5.820 -0.6952  0.2634  0.0342
  346MOL0     C46624   1.143   2.716   5.868  0.4899  0.6198 -0.0273
  346MOL0     C46625   1.253   2.726   5.944 -0.0291  0.0005 -0.3022
  346MOL0     N46626   1.997   2.868   5.914  0.2186  0.3168  0.6112
  346MOL0     N46627   2.090   2.948   5.873  0.5530 -0.6315 -0.2428
  346MOL0     C46628   1.657   3.555   4.829  0.7722 -0.3891  0.5775
  346MOL0     C46629   1.618   3.679   4.787 -0.2259  0.3435 -0.2107
  346MOL0     C46630   1.481   4.110   4.783 -1.0570 -0.3263  0.4537
  346MOL0     C46631   1.506   4.238   4.843  0.8291  0.8345 -0.3985
  346MOL0     C46632   1.523   4.347   4.775 -0.8221  0.8761 -0.4436
  346MOL0     C46633   1.535   4.348   4.634 -0.2141  0.6044  0.2060
  346MOL0     O46634   1.547   4.471   4.580 -0.1203  0.4108 -0.1201
  346MOL0     C46635   1.597   4.489   4.449 -1.1944 -0.7104  0.8885
  346MOL0     C46636   1.598   4.640   4.426 -0.1052  0.4825 -0.2956
  346MOL0     C46637   1.675   4.675   4.291 -0.5758 -0.7337  0.0431
  346MOL0     C46638   1.600   4.665   4.160 -0.2453  0.8812  0.1029
  346MOL0     C46639   1.668   4.717   4.042 -1.2188  0.1800  0.1476
  346MOL0     C46640   1.746   4.759   3.951 -0.3525 -0.4128 -0.2883
  346MOL0     C46641   1.522   4.225   4.566  1.2605 -1.4384 -0.5953
  346MOL0     C46642   1.495   4.104   4.643 -0.2587 -0.0797  0.7296
  346MOL0     H46643   1.389   3.750   5.013 -0.1049  0.7067 -0.2674
  346MOL0     H46644   1.447   3.508   5.087 -1.6746  0.3165  0.4424
  346MOL0     H46645   1.811   3.459   5.081  0.5696  0.2289  1.1204
  346MOL0     H46646   1.675   3.381   5.180  0.5595  4.1955  0.1665
  346MOL0     H46647   1.741   3.177   5.060 -4.1142  1.7247  3.8511
  346MOL0     H46648   1.901   3.267   5.028 -0.1273  1.6352  0.1891
  346MOL0     H46649   1.769   3.210   5.301  1.2594  5.5824  0.6460
  346MOL0     H46650   1.886   3.100   5.236  0.8972 -0.2490  0.8755
  346MOL0     H46651   2.045   3.289   5.222 -1.5035  2.0663 -1.7068
  346MOL0     H46652   1.945   3.400   5.277 -3.3561 -0.5825 -0.7015
  346MOL0     H46653   2.096   3.328   5.453  0.8955 -0.4226 -1.1524
  346MOL0     H46654   1.925   3.284   5.511  0.3842  1.0573  1.2118
  346MOL0     H46655   1.971   3.050   5.457  0.8231 -1.0324  1.5092
  346MOL0     H46656   2.093   3.089   5.351  1.7835 -1.3063  1.2485
  346MOL0     H46657   2.185   2.991   5.564 -2.0865 -1.8862  4.3756
  346MOL0     H46658   2.239   3.153   5.546 -0.1089 -0.8457 -0.6179
  346MOL0     H46659   2.042   3.230   5.701  3.4851  2.2264  1.1815
  346MOL0     H46660   2.197   3.177   5.756 -0.1814 -0.5307  2.7254
  346MOL0     H46661   1.831   3.092   5.747  1.3486  2.0888  0.8349
  346MOL0     H46662   1.710   2.903   6.006  0.9080  2.0462  0.1763
  346MOL0     H46663   1.675   2.903   5.829 -0.6563 -2.3831 -0.2333
  346MOL0     H46664   1.792   2.674   5.987 -1.4942  0.8128  2.7461
  346MOL0     H46665   1.745   2.685   5.813  2.4929  0.9309  1.5146
  346MOL0     H46666   1.584   2.571   5.962  0.7890  0.6502  0.4580
  346MOL0     H46667   1.513   2.701   5.860 -1.3614 -3.0653  0.3477
  346MOL0     H46668   1.499   2.844   6.069 -2.4547 -0.4355  1.1716
  346MOL0     H46669   1.600   2.717   6.161 -0.1688 -0.7395  0.1420
  346MOL0     H46670   1.231   2.481   6.173  2.2722 -2.6436 -1.8146
  346MOL0     H46671   0.891   2.435   6.072 -1.1295 -2.9504  0.4297
  346MOL0     H46672   1.008   2.331   5.997 -2.2653 -2.5671  2.2346
  346MOL0     H46673   1.032   2.376   6.167  1.1094  2.5431  0.3723
  346MOL0     H46674   0.890   2.509   5.521 -0.5696 -2.2594 -3.1501
  346MOL0     H46675   0.748   2.533   5.338  1.4613 -0.3074  0.2318
  346MOL0     H46676   0.612   2.578   5.192 -1.4499 -1.4416 -0.4446
  346MOL0     H46677   0.466   2.580   5.286  2.6441 -2.1655  0.4524
  346MOL0     H46678   0.392   2.777   5.161  0.3212  1.5353 -1.4806
  346MOL0     H46679   0.534   2.751   5.047  1.0689 -0.4536  1.6297
  346MOL0     H46680   0.299   2.580   5.111 -2.2413  1.9468 -0.3782
  346MOL0     H46681   0.433   2.519   5.016 -1.0587  0.1784 -0.4787
  346MOL0     H46682   0.214   2.706   4.949 -0.4632 -1.7893  1.2606
  346MOL0     H46683   0.358   2.718   4.854 -0.7161  1.3591  1.5010
  346MOL0     H46684   0.195   2.454   4.890 -0.2459  0.8977  0.9409
  346MOL0     H46685   0.348   2.484   4.792  0.5403 -1.3181  1.1402
  346MOL0     H46686   0.248   2.626   4.645 -3.4704 -0.4378 -3.8489
  346MOL0     H46687   0.162   2.468   4.651 -1.4959 -1.2080  1.0514
  346MOL0     H46688   0.027   2.698   4.616  1.3597  0.7674 -0.7434
  346MOL0     H46689   0.082   2.754   4.768  1.0086  0.2058  0.2535
  346MOL0     H46690  -0.025   2.610   4.904  1.5174  1.6423 -0.6189
  346MOL0     H46691  -0.080   2.508   4.760  0.0944  1.6164 -2.8521
  346MOL0     H46692   0.594   2.902   5.508  1.4121  0.6820  0.4540
  346MOL0     H46693   0.744   2.871   5.698  0.6284 -2.0984  0.3563
  346MOL0     H46694   1.114   2.789   5.794 -1.3089  1.4590  1.4266
  346MOL0     H46695   1.309   2.807   5.898 -0.9488  0.4410 -0.6670
  346MOL0     H46696   1.718   3.506   4.754  0.4597  2.3304 -1.6267
  346MOL0     H46697   1.673   3.709   4.698  1.2831 -0.5475  0.3802
  346MOL0     H46698   1.519   4.251   4.950  1.1174  0.4738 -0.3890
  346MOL0     H46699   1.533   4.441   4.827  3.0015  0.2066  0.3736
  346MOL0     H46700   1.697   4.444   4.455 -0.5422  0.5595  0.1675
  346MOL0     H46701   1.530   4.444   4.375  0.8847 -0.5843 -1.2126
  346MOL0     H46702   1.652   4.688   4.508  1.3507  0.2867 -1.1187
  346MOL0     H46703   1.505   4.696   4.440  0.5631  1.6245 -0.2413
  346MOL0     H46704   1.771   4.626   4.275 -0.5599 -1.6162  2.4738
  346MOL0     H46705   1.696   4.781   4.305 -1.2741 -0.1305 -2.8120
  346MOL0     H46706   1.512   4.729   4.170  0.3175  1.9078 -1.2280
  346MOL0     H46707   1.563   4.565   4.135 -0.0297  0.3651  1.7486
  346MOL0     H46708   1.824   4.783   3.882 -1.0230 -0.0620 -0.9425
  346MOL0     H46709   1.526   4.229   4.458  0.7506  1.0615 -0.5852
  346MOL0     H46710   1.475   4.011   4.592 -1.9146 -0.0136  1.1973
  347MOL0     O46711   9.696   8.416   8.770  0.7085  0.6006  0.1315
  347MOL0     C46712   9.775   8.439   8.861 -0.4597  0.2297  1.0467
  347MOL0     O46713   9.796   8.376   8.969  0.1356  0.1189  0.2223
  347MOL0     C46714   9.736   8.247   8.980  0.7058 -0.7680  0.1206
  347MOL0     C46715   9.824   8.132   8.968 -0.0407  0.3498  0.2024
  347MOL0     C46716   9.763   8.004   8.989 -0.1644  0.4307 -0.1499
  347MOL0     C46717   9.637   7.986   9.026  0.3030  0.2264 -0.5777
  347MOL0     O46718   9.584   7.863   9.054 -0.0777  0.5591 -0.1906
  347MOL0     C46719   9.660   7.752   9.103  0.2405 -0.1163 -0.2142
  347MOL0     C46720   9.652   7.724   9.253  0.9597 -0.1303  0.1410
  347MOL0     C46721   9.647   7.586   9.310 -0.0483  0.5345  0.1802
  347MOL0     C46722   9.769   7.502   9.273 -1.1325  0.2146  0.4592
  347MOL0     C46723   9.751   7.358   9.318  0.6039  0.3980  0.7418
  347MOL0     C46724   9.872   7.269   9.292 -0.2015  0.6887  0.8125
  347MOL0     C46725  10.007   7.328   9.333 -0.0230  0.4481 -0.3414
  347MOL0     C46726  10.121   7.236   9.318 -0.1269  0.3928 -0.8405
  347MOL0     N46727  10.236   7.272   9.409  0.4349 -0.2303 -0.4072
  347MOL0     C46728  10.250   7.249   9.545 -0.2741  0.6389  0.2413
  347MOL0     C46729  10.374   7.297   9.569  0.2059 -0.4917  0.7255
  347MOL0     C46730  10.460   7.315   9.689  1.0621  0.1544 -0.5520
  347MOL0     C46731  10.368   7.301   9.809  0.4229  0.8232  0.4631
  347MOL0     C46732  10.425   7.351   9.943 -0.4766 -0.2401 -0.2781
  347MOL0     C46733  10.518   7.471   9.961 -0.8225  0.3293 -0.0452
  347MOL0     O46734  10.450   7.589   9.906  0.1278 -0.1147 -0.4988
  347MOL0     C46735  10.522   7.697   9.877  0.5798 -0.0683 -0.3261
  347MOL0     C46736  10.617   7.695   9.771 -0.7887  1.1596  0.8819
  347MOL0     C46737  10.706   7.797   9.748  0.1290 -0.9623 -0.4071
  347MOL0     C46738  10.812   7.784   9.638  0.0391 -0.4069  0.0382
  347MOL0     C46739  10.704   7.910   9.842  0.4479  0.2549  0.7593
  347MOL0     C46740  10.798   8.027   9.826 -0.2143 -1.0860  0.0736
  347MOL0     O46741  10.746   8.158   9.854 -0.0465  0.1061  0.1304
  347MOL0     C46742  10.828   8.261   9.899 -0.1266 -0.1536 -0.2786
  347MOL0     C46743  10.934   8.245   9.995 -0.2373  0.4258  0.6689
  347MOL0     C46744  11.006   8.358  10.028  1.2079 -0.0731 -0.6850
  347MOL0     C46745  10.965   8.488   9.986  0.6048 -0.3363 -0.4889
  347MOL0     O46746  11.028   8.601  10.024 -0.0459 -0.5921  0.2305
  347MOL0     C46747  11.084   8.606  10.157 -0.9327 -0.0493  0.0510
  347MOL0     C46748  11.244   8.595  10.149 -0.1846  0.4315  0.6097
  347MOL0     C46749  11.301   8.719  10.067  0.2627  0.0532 -0.6555
  347MOL0     C46750  11.461   8.721  10.076  0.5049 -1.2227  0.1735
  347MOL0     C46751  11.522   8.858  10.104  0.6865 -1.1725  0.3099
  347MOL0     C46752  11.668   8.848  10.136 -0.0766  0.6852  0.2003
  347MOL0     C46753  11.749   8.970  10.129 -0.8189  0.1053  0.1528
  347MOL0     C46754  11.826   8.975   9.993  0.7474 -0.1801 -0.2626
  347MOL0    Cl46755  11.946   9.119  10.005 -0.4926  0.2188  0.2414
  347MOL0     C46756  10.852   8.503   9.905  0.3736 -1.0231  0.5171
  347MOL0     C46757  10.787   8.391   9.859  0.1067  0.9140 -0.3460
  347MOL0     O46758  10.920   7.999   9.804  1.0348 -0.1938  0.1169
  347MOL0     C46759  10.607   7.909   9.944 -0.8932 -1.1992 -0.8277
  347MOL0     C46760  10.517   7.809   9.959  0.0896  0.7888 -0.2062
  347MOL0     N46761  10.432   7.339   9.448 -0.8451  0.1340 -0.1114
  347MOL0     N46762  10.348   7.334   9.355  0.5026 -0.3308 -0.9342
  347MOL0     C46763   9.551   8.101   9.023  0.2162  0.6069  0.3038
  347MOL0     C46764   9.601   8.228   9.010  0.0798 -0.2426 -0.6350
  347MOL0     C46765   9.829   8.580   8.847  0.1843  1.7944  0.2649
  347MOL0     C46766   9.810   8.657   8.722 -0.0770 -0.2910 -0.5347
  347MOL0     C46767   9.891   8.768   8.718 -1.2157 -0.3155 -0.1294
  347MOL0     C46768   9.967   8.822   8.820 -0.8083 -0.6087 -1.0126
  347MOL0     O46769  10.040   8.935   8.792  0.8597 -0.1203  0.2136
  347MOL0     C46770  10.121   8.992   8.896  0.5242  0.3660 -0.1548
  347MOL0     C46771  10.207   9.098   8.846  0.5061  0.4341 -0.3179
  347MOL0     C46772  10.311   9.044   8.739 -0.5513 -0.2381 -0.4731
  347MOL0     C46773  10.433   8.987   8.811 -0.7466 -0.1304  0.3445
  347MOL0     C46774  10.544   9.080   8.810  0.9256  0.6099 -0.7837
  347MOL0     C46775  10.621   9.167   8.776 -0.0106  0.7283 -0.4840
  347MOL0     C46776   9.967   8.747   8.944  0.2844 -0.1817  0.3123
  347MOL0     C46777   9.899   8.626   8.954  0.1403 -0.0578 -0.5629
  347MOL0     H46778   9.929   8.146   8.941 -0.3184  0.1708 -0.9975
  347MOL0     H46779   9.842   7.931   8.974 -0.2795  0.8438 -3.3131
  347MOL0     H46780   9.636   7.659   9.050  0.6747  1.2660 -3.0376
  347MOL0     H46781   9.767   7.766   9.085  1.0241 -1.8082  2.5289
  347MOL0     H46782   9.747   7.767   9.286  0.3710  0.4618  1.1282
  347MOL0     H46783   9.569   7.778   9.302  0.1390 -0.7357 -0.5496
  347MOL0     H46784   9.646   7.600   9.419  1.5787  0.4801  0.2321
  347MOL0     H46785   9.556   7.537   9.276  0.0746 -0.9025  1.7663
  347MOL0     H46786   9.784   7.503   9.165 -1.6150 -0.8677  0.3709
  347MOL0     H46787   9.853   7.554   9.321  2.6395 -1.8292 -3.1793
  347MOL0     H46788   9.725   7.350   9.424 -0.6993  1.4058  0.5290
  347MOL0     H46789   9.663   7.317   9.267 -0.4901  3.1320  0.2203
  347MOL0     H46790   9.866   7.175   9.347  0.7330 -0.8241 -1.4960
  347MOL0     H46791   9.876   7.234   9.188 -2.1171 -0.6950  1.1644
  347MOL0     H46792  10.029   7.409   9.262 -0.1769  1.2994  0.5647
  347MOL0     H46793  10.008   7.369   9.434  2.5278 -2.7359  1.0833
  347MOL0     H46794  10.158   7.242   9.215 -0.0054 -0.5929 -0.8652
  347MOL0     H46795  10.106   7.130   9.339 -1.8384  0.7142 -0.2816
  347MOL0     H46796  10.178   7.212   9.617 -4.3832 -1.1727 -4.1875
  347MOL0     H46797  10.540   7.240   9.689  2.5044  1.5226 -3.6064
  347MOL0     H46798  10.504   7.413   9.709 -1.4747  0.8637  2.4356
  347MOL0     H46799  10.325   7.201   9.810 -2.6555  2.0513  0.3043
  347MOL0     H46800  10.288   7.374   9.795  1.9500  2.0307 -3.3622
  347MOL0     H46801  10.464   7.266  10.000 -2.7484 -1.1795 -0.0263
  347MOL0     H46802  10.335   7.391   9.991  0.1854 -0.0453  0.8445
  347MOL0     H46803  10.610   7.464   9.903 -0.2304  1.5369  0.6979
  347MOL0     H46804  10.525   7.485  10.069 -0.0916  4.9974 -0.4880
  347MOL0     H46805  10.612   7.602   9.715  5.5572 -0.0100  1.5822
  347MOL0     H46806  10.828   7.876   9.581 -1.0896 -0.8811 -1.0737
  347MOL0     H46807  10.905   7.756   9.688 -0.2595 -2.4808 -0.4875
  347MOL0     H46808  10.781   7.710   9.563 -3.1833 -0.6263  1.4209
  347MOL0     H46809  10.954   8.148  10.040  1.0890 -2.1684 -4.7279
  347MOL0     H46810  11.090   8.336  10.094  1.2517 -0.9857 -1.0330
  347MOL0     H46811  11.033   8.691  10.204 -2.0797  0.1323 -1.4550
  347MOL0     H46812  11.060   8.526  10.227  1.9536 -0.0662  1.1388
  347MOL0     H46813  11.291   8.601  10.247 -0.6418 -2.9042  1.1439
  347MOL0     H46814  11.278   8.504  10.099  2.0992  1.8486 -0.5810
  347MOL0     H46815  11.268   8.805  10.127  2.0619 -0.3353  1.0400
  347MOL0     H46816  11.251   8.738   9.972 -1.7537  0.8601  0.5059
  347MOL0     H46817  11.492   8.650  10.153 -0.8337  0.2269  2.1702
  347MOL0     H46818  11.511   8.690   9.984 -2.0593 -0.2509 -1.6787
  347MOL0     H46819  11.473   8.908  10.188  0.6058  0.0480 -0.4327
  347MOL0     H46820  11.491   8.933  10.031 -1.4546 -2.5989 -0.3470
  347MOL0     H46821  11.692   8.797  10.230  1.5630 -0.1536 -0.6206
  347MOL0     H46822  11.713   8.788  10.057 -2.3762  1.7501 -2.0608
  347MOL0     H46823  11.825   8.973  10.208  1.0246  0.5150 -1.5557
  347MOL0     H46824  11.685   9.058  10.133 -1.3372 -0.1469 -1.8748
  347MOL0     H46825  11.755   8.999   9.913 -0.6655  1.2848  1.3508
  347MOL0     H46826  11.883   8.888   9.961  0.6747 -0.0494 -0.7647
  347MOL0     H46827  10.815   8.603   9.883 -1.3662 -1.2276  2.2226
  347MOL0     H46828  10.711   8.405   9.782  1.2909  2.0864 -1.3726
  347MOL0     H46829  10.611   7.989  10.016  3.5416 -1.3960 -0.5932
  347MOL0     H46830  10.452   7.817  10.046  0.2927 -0.1939  0.0506
  347MOL0     H46831   9.448   8.098   9.055  0.8457 -0.4594  2.4250
  347MOL0     H46832   9.535   8.312   9.021 -0.3059 -0.4992 -0.9584
  347MOL0     H46833   9.774   8.613   8.630 -1.3262 -1.8965  0.6565
  347MOL0     H46834   9.886   8.791   8.612 -2.0651  0.3072  0.0301
  347MOL0     H46835  10.051   9.031   8.971 -1.6406 -3.6930  0.2360
  347MOL0     H46836  10.177   8.916   8.951  0.2363  3.4042  5.0310
  347MOL0     H46837  10.256   9.155   8.925  1.8236  3.4726 -3.0684
  347MOL0     H46838  10.140   9.168   8.795  2.3725  1.2436 -1.7501
  347MOL0     H46839  10.353   9.120   8.673 -0.0096 -0.9136 -0.9224
  347MOL0     H46840  10.260   8.974   8.671 -2.2808 -0.5152  1.0251
  347MOL0     H46841  10.471   8.900   8.758 -1.3999 -0.0251 -0.3129
  347MOL0     H46842  10.409   8.940   8.907 -3.7912 -1.0501 -0.7272
  347MOL0     H46843  10.710   9.223   8.756  2.5587 -1.4293  3.6501
  347MOL0     H46844  10.015   8.790   9.032  0.5695 -1.5768  0.8688
  347MOL0     H46845   9.898   8.571   9.048  4.1600 -1.0860 -0.9614
  348MOL0     O46846   7.577  10.088   6.405  0.7136 -0.5933 -0.2725
  348MOL0     C46847   7.567  10.209   6.432 -0.5246  0.6103  0.1691
  348MOL0     O46848   7.491  10.305   6.353  0.1436 -0.7184 -0.1108
  348MOL0     C46849   7.387  10.260   6.276  0.5103 -1.1002  0.4067
  348MOL0     C46850   7.302  10.158   6.301 -0.3198 -0.0814 -0.2089
  348MOL0     C46851   7.200  10.126   6.221  0.9577 -0.2220 -0.0175
  348MOL0     C46852   7.162  10.212   6.112 -0.7279 -0.1503  0.3564
  348MOL0     O46853   7.056  10.171   6.035  0.0551 -0.3121 -0.5158
  348MOL0     C46854   7.009  10.270   5.946 -0.4458  0.3804  1.0855
  348MOL0     C46855   6.886  10.216   5.876  0.2387  0.7456 -0.1509
  348MOL0     C46856   6.903  10.085   5.798 -0.2128 -0.7695  0.2966
  348MOL0     C46857   7.029  10.000   5.780  0.9260  0.1420 -0.4365
  348MOL0     C46858   6.997   9.896   5.666  0.5126  0.2160 -0.7781
  348MOL0     C46859   7.121   9.821   5.629  0.3954 -0.4739  0.2368
  348MOL0     C46860   7.208   9.900   5.527 -0.1292  1.0475 -0.0953
  348MOL0     C46861   7.340   9.828   5.486 -0.8508 -0.0018  0.0190
  348MOL0     N46862   7.416   9.889   5.375  0.7655 -0.2053 -0.0504
  348MOL0     C46863   7.443  10.022   5.359  1.0182  0.7991  0.1874
  348MOL0     C46864   7.489  10.042   5.235  0.2251  0.5790  0.6185
  348MOL0     C46865   7.516  10.172   5.177  0.1187  0.8676  0.4007
  348MOL0     C46866   7.393  10.248   5.141 -0.2333 -0.3521 -0.0791
  348MOL0     C46867   7.339  10.332   5.254 -0.1940 -0.2833 -0.0838
  348MOL0     C46868   7.219  10.427   5.226 -0.3244  0.1946 -0.0631
  348MOL0     O46869   7.220  10.504   5.102  0.0288  0.1929 -0.3170
  348MOL0     C46870   7.101  10.548   5.045 -0.2233  0.4713  0.3220
  348MOL0     C46871   7.127  10.635   4.942  0.0956  0.4395 -0.2156
  348MOL0     C46872   7.031  10.678   4.859  0.6827  0.5572  0.2655
  348MOL0     C46873   7.071  10.756   4.735  0.4405  0.6879  0.3400
  348MOL0     C46874   6.894  10.652   4.886  0.4272 -0.6955  0.7018
  348MOL0     C46875   6.782  10.715   4.811 -0.4694 -0.8307  0.3739
  348MOL0     O46876   6.679  10.641   4.776  0.7124  0.1635 -0.4489
  348MOL0     C46877   6.554  10.705   4.761 -0.6553  0.1901  0.3505
  348MOL0     C46878   6.510  10.754   4.638 -0.6954 -0.6599  0.3674
  348MOL0     C46879   6.398  10.822   4.627  1.4337 -0.1588 -0.0557
  348MOL0     C46880   6.308  10.845   4.740  0.1790  0.2092 -0.1184
  348MOL0     O46881   6.192  10.914   4.718 -0.2674 -0.3429 -0.5251
  348MOL0     C46882   6.069  10.857   4.758  0.6487 -0.4991  0.7700
  348MOL0     C46883   5.955  10.940   4.701  0.3854 -0.3004 -0.2956
  348MOL0     C46884   5.909  11.054   4.794  0.5485  0.1827 -0.8870
  348MOL0     C46885   5.844  11.010   4.921  0.8165  0.2741  0.5411
  348MOL0     C46886   5.793  11.130   5.003  0.1181 -0.4717 -0.1851
  348MOL0     C46887   5.644  11.131   5.031  0.0196 -0.6074  0.4252
  348MOL0     C46888   5.601  11.250   5.102 -0.7227 -0.7049 -0.2277
  348MOL0     C46889   5.464  11.247   5.163  0.8619  0.5582  0.2404
  348MOL0    Cl46890   5.332  11.228   5.041  0.3038  0.4799  0.3214
  348MOL0     C46891   6.353  10.795   4.861  0.4649 -1.1622 -1.1107
  348MOL0     C46892   6.476  10.732   4.871 -0.5722  0.3993  0.5032
  348MOL0     O46893   6.796  10.833   4.783 -1.0007  0.0561  0.0417
  348MOL0     C46894   6.866  10.585   5.003  1.1032  1.0575 -1.1798
  348MOL0     C46895   6.970  10.516   5.076  0.8396  0.4328 -0.7711
  348MOL0     N46896   7.505   9.919   5.184 -0.2573  0.4161  1.0205
  348MOL0     N46897   7.451   9.825   5.267  0.1725  0.0210  1.7389
  348MOL0     C46898   7.240  10.327   6.080  0.0234  0.7271  0.9121
  348MOL0     C46899   7.355  10.346   6.166  0.2606 -1.0282  1.2450
  348MOL0     C46900   7.653  10.270   6.539 -0.2182 -0.3598  0.8418
  348MOL0     C46901   7.660  10.403   6.582  0.3366  0.7437  0.0689
  348MOL0     C46902   7.728  10.443   6.698  1.1026 -0.0413 -0.5735
  348MOL0     C46903   7.794  10.346   6.777 -0.0500  0.8206  0.1991
  348MOL0     O46904   7.870  10.395   6.881 -0.9818  1.2029  0.8194
  348MOL0     C46905   7.876  10.312   6.991 -0.2015  0.3576  0.6280
  348MOL0     C46906   7.911  10.398   7.113  0.0449  0.3584  0.1318
  348MOL0     C46907   8.051  10.365   7.178 -0.6225 -1.1591  0.2649
  348MOL0     C46908   8.078  10.454   7.310  0.4673  0.6066  0.2299
  348MOL0     C46909   8.192  10.412   7.385  0.3940  0.5302 -0.0331
  348MOL0     C46910   8.294  10.372   7.434  0.6167  0.3639 -0.7053
  348MOL0     C46911   7.810  10.215   6.726 -0.0797 -0.0031 -0.1518
  348MOL0     C46912   7.732  10.181   6.613  0.7767  0.8259 -0.8153
  348MOL0     H46913   7.320  10.102   6.392 -1.2103  0.8549  0.5693
  348MOL0     H46914   7.142  10.037   6.243  1.3725 -0.8024 -1.2191
  348MOL0     H46915   6.978  10.357   6.005 -1.1274 -0.6719  2.3498
  348MOL0     H46916   7.084  10.299   5.872 -2.1721 -0.6829 -1.1758
  348MOL0     H46917   6.809  10.212   5.954 -1.8286 -1.0194 -2.1566
  348MOL0     H46918   6.853  10.302   5.816  0.6528  0.4233 -0.8432
  348MOL0     H46919   6.822  10.017   5.826 -0.9325 -1.0931 -2.3337
  348MOL0     H46920   6.895  10.130   5.699  1.0608  0.9545  0.9295
  348MOL0     H46921   7.118  10.056   5.749  0.8780 -0.5721 -1.8972
  348MOL0     H46922   7.053   9.956   5.878 -3.3104  2.9042  2.1641
  348MOL0     H46923   6.914   9.835   5.702  0.2171  2.6224  3.2318
  348MOL0     H46924   6.967   9.951   5.576 -1.0003  1.1836  0.2645
  348MOL0     H46925   7.169   9.794   5.724 -1.9928  1.2819  2.0597
  348MOL0     H46926   7.072   9.731   5.591  1.4846 -0.3275 -1.6398
  348MOL0     H46927   7.150   9.920   5.436  1.2179  3.7899 -0.4518
  348MOL0     H46928   7.239   9.992   5.576 -4.2083  1.4296  2.2214
  348MOL0     H46929   7.319   9.723   5.466 -0.9142  0.1231 -0.5735
  348MOL0     H46930   7.416   9.840   5.564  2.3676 -2.6870 -2.4511
  348MOL0     H46931   7.404  10.101   5.423  0.2022  2.4676 -2.2171
  348MOL0     H46932   7.569  10.234   5.250  0.2763  0.1845  0.8778
  348MOL0     H46933   7.587  10.151   5.096  0.4489 -0.7869  1.0928
  348MOL0     H46934   7.319  10.172   5.113  0.7387 -1.2428 -0.2700
  348MOL0     H46935   7.419  10.311   5.055  1.2690 -2.5076 -1.3030
  348MOL0     H46936   7.417  10.401   5.287 -0.3006  0.8285 -2.0080
  348MOL0     H46937   7.313  10.263   5.335 -0.8466 -1.2301 -1.0796
  348MOL0     H46938   7.201  10.499   5.308 -2.0897  1.5715 -1.5681
  348MOL0     H46939   7.134  10.358   5.222 -0.1551  0.0540 -2.7613
  348MOL0     H46940   7.231  10.661   4.925  0.6236  0.4021  2.5640
  348MOL0     H46941   7.046  10.862   4.743 -1.7901  0.1703  0.8319
  348MOL0     H46942   7.176  10.740   4.707  0.8680 -0.3010  2.3809
  348MOL0     H46943   7.012  10.714   4.653  0.3786  0.0994  0.6817
  348MOL0     H46944   6.583  10.762   4.558 -0.8442  0.2428  0.3129
  348MOL0     H46945   6.377  10.870   4.532  0.0991  2.7885  1.5691
  348MOL0     H46946   6.052  10.761   4.708  1.9865 -0.0376 -0.6568
  348MOL0     H46947   6.059  10.850   4.867 -1.3217 -0.0912  0.6667
  348MOL0     H46948   5.996  10.994   4.615  0.0136  0.6597  0.1174
  348MOL0     H46949   5.868  10.875   4.683 -1.1368  0.1568  4.2705
  348MOL0     H46950   5.844  11.121   4.738  0.8218 -0.7277 -2.3418
  348MOL0     H46951   6.001  11.104   4.827  2.9729 -3.6893 -1.0805
  348MOL0     H46952   5.759  10.956   4.879 -0.4289  2.7559 -0.3148
  348MOL0     H46953   5.909  10.937   4.970  0.0402 -1.1948 -0.5479
  348MOL0     H46954   5.833  11.222   4.959  0.6855 -0.1146  1.0278
  348MOL0     H46955   5.826  11.128   5.107 -3.7566 -1.1780  1.2357
  348MOL0     H46956   5.585  11.138   4.939  2.3814  0.9755 -1.0613
  348MOL0     H46957   5.618  11.043   5.091  1.2256  0.0932  2.0431
  348MOL0     H46958   5.598  11.333   5.031 -1.0856 -0.1753  0.3923
  348MOL0     H46959   5.657  11.283   5.190 -2.3477 -1.9647  1.3763
  348MOL0     H46960   5.444  11.333   5.228 -1.5706  0.5147 -0.3640
  348MOL0     H46961   5.463  11.166   5.237  5.0485  0.6444  0.6328
  348MOL0     H46962   6.293  10.813   4.950  1.3988 -0.9463 -0.5082
  348MOL0     H46963   6.506  10.708   4.972 -1.2050  1.6708  1.0129
  348MOL0     H46964   6.768  10.575   5.049  1.2781  1.1518 -0.7804
  348MOL0     H46965   6.950  10.467   5.171  1.6970  0.2196 -0.6910
  348MOL0     H46966   7.226  10.393   5.995  0.7545  1.1019  1.0738
  348MOL0     H46967   7.416  10.435   6.156  0.3215 -1.2223 -0.4898
  348MOL0     H46968   7.596  10.468   6.522 -0.4936 -1.9471 -2.2060
  348MOL0     H46969   7.722  10.538   6.750 -1.3818 -0.8320  0.7970
  348MOL0     H46970   7.783  10.257   7.008 -0.2828  0.6712  1.2298
  348MOL0     H46971   7.945  10.228   6.981 -2.4635 -1.3794 -1.6659
  348MOL0     H46972   7.838  10.383   7.192  1.6722 -0.0474  1.6199
  348MOL0     H46973   7.903  10.502   7.079  0.5455  0.3051 -0.1597
  348MOL0     H46974   8.126  10.381   7.100  1.4932  0.5879  2.4954
  348MOL0     H46975   8.054  10.263   7.218 -2.1263 -0.9844  0.8770
  348MOL0     H46976   8.001  10.447   7.386  0.7746 -2.5552  0.3750
  348MOL0     H46977   8.102  10.553   7.269 -1.4213  1.6405  1.5361
  348MOL0     H46978   8.380  10.343   7.491 -0.2486 -0.3623  0.2870
  348MOL0     H46979   7.882  10.144   6.765 -0.7037  1.3946  3.9414
  348MOL0     H46980   7.737  10.078   6.579  2.7558  1.0878 -1.4451
  349MOL0     O46981  10.633   4.296   4.337 -0.1604  0.0018 -0.1089
  349MOL0     C46982  10.640   4.172   4.329  0.0897 -0.1793 -0.1396
  349MOL0     O46983  10.759   4.105   4.343 -0.4573  0.4288 -0.3298
  349MOL0     C46984  10.881   4.160   4.379  0.5265  1.3280 -0.2427
  349MOL0     C46985  10.966   4.074   4.455 -0.0702  0.9169  0.8145
  349MOL0     C46986  11.097   4.113   4.484 -0.4238 -0.5560  0.0810
  349MOL0     C46987  11.146   4.240   4.444 -0.2783  0.3711 -0.1992
  349MOL0     O46988  11.277   4.262   4.479  0.1468  0.3997 -0.7585
  349MOL0     C46989  11.319   4.398   4.465 -0.0762  0.3484 -0.0021
  349MOL0     C46990  11.464   4.420   4.510 -0.1203  0.2555 -0.4690
  349MOL0     C46991  11.564   4.329   4.433  0.9193  0.4205  0.6163
  349MOL0     C46992  11.580   4.364   4.276  0.2482 -0.0202 -0.8132
  349MOL0     C46993  11.674   4.266   4.204  0.9125  0.1230  0.4136
  349MOL0     C46994  11.652   4.111   4.229 -0.2516 -0.0288 -0.5078
  349MOL0     C46995  11.736   4.027   4.133  0.8923  0.0767  0.3022
  349MOL0     C46996  11.707   3.878   4.137 -0.5589 -0.0958 -0.0652
  349MOL0     N46997  11.768   3.797   4.033 -0.3767  0.8906  0.0467
  349MOL0     C46998  11.722   3.782   3.907 -0.1332  0.6901  0.4188
  349MOL0     C46999  11.805   3.697   3.842 -0.5982  1.0549  0.5728
  349MOL0     C47000  11.762   3.650   3.704  0.6862  0.4199 -0.4939
  349MOL0     C47001  11.828   3.738   3.592  0.2437  0.3300  0.4482
  349MOL0     C47002  11.750   3.868   3.569  0.0142  1.4782  0.4017
  349MOL0     C47003  11.772   3.927   3.435  0.2085 -0.4929  1.3488
  349MOL0     O47004  11.696   4.046   3.419 -0.9899  0.3020 -0.0654
  349MOL0     C47005  11.656   4.100   3.300 -0.2508 -0.3393 -0.5242
  349MOL0     C47006  11.578   4.205   3.322 -0.5267 -1.0866  0.0445
  349MOL0     C47007  11.521   4.280   3.217 -0.3740 -0.5321 -0.0619
  349MOL0     C47008  11.452   4.405   3.259  0.4668 -0.8901 -0.2351
  349MOL0     C47009  11.551   4.242   3.085  0.1106 -0.5714  0.7709
  349MOL0     C47010  11.519   4.321   2.967 -0.0825  0.3549  0.0592
  349MOL0     O47011  11.508   4.254   2.852  0.1051  0.9485 -0.1924
  349MOL0     C47012  11.454   4.321   2.747  0.0005  0.1796  0.7269
  349MOL0     C47013  11.339   4.398   2.740 -0.0222  0.8922  0.1565
  349MOL0     C47014  11.304   4.467   2.628  0.8615  0.0415 -0.3490
  349MOL0     C47015  11.373   4.443   2.509 -0.1398  0.6607 -0.1155
  349MOL0     O47016  11.352   4.491   2.387  0.9346  0.0912 -0.4036
  349MOL0     C47017  11.255   4.585   2.356  0.5924 -0.0768  0.3040
  349MOL0     C47018  11.267   4.599   2.201 -0.3806 -0.7387 -0.1095
  349MOL0     C47019  11.131   4.646   2.158 -0.0170  0.0201 -1.1494
  349MOL0     C47020  11.123   4.677   2.009 -0.0218  0.2932  0.9420
  349MOL0     C47021  10.976   4.680   1.944 -0.0855 -0.9521 -0.2219
  349MOL0     C47022  10.892   4.779   2.020  0.5169  0.9051  0.2267
  349MOL0     C47023  10.747   4.761   1.966 -0.2271 -0.3644 -0.1071
  349MOL0     C47024  10.626   4.832   2.041 -0.3878  0.6624  0.2233
  349MOL0    Cl47025  10.629   5.019   2.047 -0.2929 -0.0106 -0.0138
  349MOL0     C47026  11.487   4.355   2.514 -0.6047 -0.7173  0.2886
  349MOL0     C47027  11.522   4.289   2.630  0.0477 -0.4612  0.1936
  349MOL0     O47028  11.555   4.438   2.974 -0.9301  0.8150 -0.6714
  349MOL0     C47029  11.639   4.130   3.062 -0.5794  0.7476  0.0443
  349MOL0     C47030  11.687   4.062   3.174  0.1504  0.3752  0.5664
  349MOL0     N47031  11.893   3.648   3.937  0.3160 -0.4199  0.2942
  349MOL0     N47032  11.882   3.716   4.044 -0.5946 -0.2419 -0.2765
  349MOL0     C47033  11.059   4.334   4.375 -0.8356 -0.4304  0.4473
  349MOL0     C47034  10.923   4.294   4.344 -0.9520  0.3814  0.0616
  349MOL0     C47035  10.512   4.107   4.320  0.0323  0.3404 -0.4261
  349MOL0     C47036  10.501   3.965   4.362 -0.4275 -0.9268  0.6700
  349MOL0     C47037  10.374   3.902   4.362  0.2429  1.2424 -0.2141
  349MOL0     C47038  10.255   3.969   4.328  0.1195 -0.3813 -0.2830
  349MOL0     O47039  10.132   3.917   4.348  0.4251 -0.2741  0.1868
  349MOL0     C47040  10.112   3.779   4.403 -0.1239 -1.0379  0.3760
  349MOL0     C47041   9.963   3.739   4.381 -0.5593  0.8459  0.8384
  349MOL0     C47042   9.939   3.598   4.440 -0.5433  0.5869  0.3797
  349MOL0     C47043   9.999   3.486   4.365 -0.3655 -0.3133  0.0539
  349MOL0     C47044   9.924   3.480   4.238 -0.7396 -0.4292 -0.0651
  349MOL0     C47045   9.856   3.485   4.134 -1.0689  0.7577  0.1763
  349MOL0     C47046  10.267   4.106   4.278 -0.9106 -0.5007  0.3377
  349MOL0     C47047  10.394   4.170   4.272  0.8687  0.0608  0.0257
  349MOL0     H47048  10.944   3.971   4.480  2.2727  0.7422  2.4583
  349MOL0     H47049  11.169   4.043   4.525 -0.3130 -0.9560 -0.7678
  349MOL0     H47050  11.305   4.430   4.362 -2.2774 -1.2922 -0.2933
  349MOL0     H47051  11.251   4.456   4.529 -2.9949 -2.2274 -0.5455
  349MOL0     H47052  11.486   4.524   4.487  0.3782  0.7779  2.0967
  349MOL0     H47053  11.471   4.406   4.618 -0.6102  0.2381 -0.4353
  349MOL0     H47054  11.659   4.318   4.487  0.7165  0.6744  1.0273
  349MOL0     H47055  11.531   4.225   4.432 -1.5242  1.1395 -1.1234
  349MOL0     H47056  11.480   4.349   4.234 -1.3519  2.1694  1.8349
  349MOL0     H47057  11.607   4.469   4.263  1.6036 -0.3665 -0.9186
  349MOL0     H47058  11.665   4.293   4.099 -2.0095  0.7867  0.7559
  349MOL0     H47059  11.775   4.290   4.238  0.9127  0.3122  0.2788
  349MOL0     H47060  11.679   4.101   4.334 -1.8439 -0.8529 -0.1364
  349MOL0     H47061  11.549   4.080   4.207 -0.5415  1.4390 -1.3340
  349MOL0     H47062  11.723   4.056   4.029 -2.8959 -2.9865 -0.3036
  349MOL0     H47063  11.843   4.044   4.152  0.7085 -0.0549  1.5167
  349MOL0     H47064  11.598   3.871   4.137 -0.7627  1.9880  2.1038
  349MOL0     H47065  11.736   3.831   4.231  2.5009 -1.0290 -1.3264
  349MOL0     H47066  11.647   3.842   3.857 -0.5052 -0.7404 -0.8029
  349MOL0     H47067  11.806   3.550   3.697  1.1429  0.5011  0.9072
  349MOL0     H47068  11.654   3.644   3.687  0.1752  1.2624  2.0453
  349MOL0     H47069  11.838   3.666   3.510  2.6160 -1.0827  1.8780
  349MOL0     H47070  11.930   3.761   3.624  2.1936 -4.4085 -1.3943
  349MOL0     H47071  11.776   3.934   3.652  2.0752  0.5350  0.5773
  349MOL0     H47072  11.644   3.842   3.563 -0.8076  4.7274 -2.3917
  349MOL0     H47073  11.745   3.861   3.353 -0.9715  0.6756  0.7514
  349MOL0     H47074  11.876   3.962   3.438 -0.3916  1.4658  1.2337
  349MOL0     H47075  11.554   4.237   3.423 -0.1350 -2.8837  0.7485
  349MOL0     H47076  11.392   4.384   3.348 -1.1708 -0.7023 -1.2607
  349MOL0     H47077  11.526   4.483   3.280 -0.5640 -0.3402  1.5793
  349MOL0     H47078  11.392   4.442   3.175  1.1609  0.1822 -0.2836
  349MOL0     H47079  11.271   4.420   2.822  1.4699  3.8999  0.7401
  349MOL0     H47080  11.212   4.526   2.633 -1.7121 -3.6284 -0.2344
  349MOL0     H47081  11.163   4.532   2.382  1.2753 -1.1686  0.5648
  349MOL0     H47082  11.261   4.681   2.408 -1.3087  0.3158 -0.1296
  349MOL0     H47083  11.340   4.676   2.175 -0.2991 -0.0468  2.0171
  349MOL0     H47084  11.295   4.501   2.160  3.4685 -0.4300  1.3717
  349MOL0     H47085  11.088   4.733   2.210 -1.8014 -0.0439 -2.4121
  349MOL0     H47086  11.063   4.562   2.174  0.6497 -0.1058  1.5363
  349MOL0     H47087  11.178   4.770   1.991  2.1271 -1.2750 -1.3057
  349MOL0     H47088  11.185   4.601   1.960 -0.3776  0.1986  0.6308
  349MOL0     H47089  10.940   4.577   1.955  1.2435 -1.7611 -2.7523
  349MOL0     H47090  10.985   4.712   1.840  2.5942 -0.7166  0.0234
  349MOL0     H47091  10.882   4.768   2.128 -3.0833 -0.6900 -0.1257
  349MOL0     H47092  10.917   4.883   1.998  0.9146  0.8094  0.2159
  349MOL0     H47093  10.723   4.654   1.965  1.1796 -0.7020 -0.0253
  349MOL0     H47094  10.749   4.794   1.862 -0.2648  2.7419  0.7792
  349MOL0     H47095  10.632   4.806   2.147  2.2074  3.1715  0.8068
  349MOL0     H47096  10.528   4.810   1.998  1.1689 -1.5470 -2.4973
  349MOL0     H47097  11.548   4.339   2.426 -0.1120 -0.8238  0.6450
  349MOL0     H47098  11.608   4.223   2.633  1.0118  0.7512 -0.0835
  349MOL0     H47099  11.669   4.095   2.964 -2.6524  1.5066 -0.9178
  349MOL0     H47100  11.741   3.969   3.158 -0.4408 -0.0537  1.0087
  349MOL0     H47101  11.088   4.433   4.343 -0.5246 -0.6402  0.0664
  349MOL0     H47102  10.869   4.359   4.276 -1.5255 -1.6581 -1.5335
  349MOL0     H47103  10.590   3.906   4.383  2.1069  2.2950 -0.1624
  349MOL0     H47104  10.361   3.798   4.390 -1.1599  2.3467  3.8570
  349MOL0     H47105  10.167   3.705   4.344 -0.9404  0.3244 -2.2998
  349MOL0     H47106  10.150   3.779   4.505 -0.8454 -0.8859  0.6506
  349MOL0     H47107   9.953   3.749   4.273  0.0160  1.4573  0.8387
  349MOL0     H47108   9.889   3.812   4.417 -1.7665  1.1750 -2.0678
  349MOL0     H47109   9.830   3.593   4.437 -0.5027 -0.0158 -0.2345
  349MOL0     H47110   9.963   3.595   4.547  0.0965  1.1980  0.2608
  349MOL0     H47111   9.993   3.395   4.425 -0.9743  0.0136  0.4980
  349MOL0     H47112  10.104   3.510   4.343 -0.3526 -2.0726 -2.2191
  349MOL0     H47113   9.796   3.491   4.046  0.2085  1.2291 -0.6880
  349MOL0     H47114  10.184   4.165   4.241  0.9741  3.0930  1.3609
  349MOL0     H47115  10.408   4.275   4.247  3.0075  0.5252  2.6737
  350MOL0     O47116   8.914   9.742   3.459  1.0521  0.6224  0.2267
  350MOL0     C47117   8.953   9.624   3.458  0.2549  0.8803  0.0489
  350MOL0     O47118   8.952   9.533   3.562  0.1190 -0.7385  0.1565
  350MOL0     C47119   8.858   9.567   3.660  0.9487  0.0799  0.3362
  350MOL0     C47120   8.725   9.520   3.648  0.8703  0.7465 -0.0963
  350MOL0     C47121   8.628   9.540   3.748  0.1725 -0.7967 -0.1630
  350MOL0     C47122   8.661   9.607   3.873 -0.3016  0.1999  0.3237
  350MOL0     O47123   8.582   9.617   3.985  0.4653  0.7098  0.1475
  350MOL0     C47124   8.459   9.554   3.980 -0.5991  0.2880  0.0951
  350MOL0     C47125   8.372   9.579   4.105  0.7161  0.0809 -0.3103
  350MOL0     C47126   8.231   9.518   4.101 -0.0094  0.1022  0.4481
  350MOL0     C47127   8.237   9.362   4.082 -0.6111 -0.0193 -0.8898
  350MOL0     C47128   8.121   9.285   4.136 -0.2169 -0.0586 -0.2225
  350MOL0     C47129   8.000   9.286   4.041  0.3358 -0.0326  0.2699
  350MOL0     C47130   7.869   9.242   4.110  0.3953 -0.2220 -0.0227
  350MOL0     C47131   7.758   9.183   4.019 -0.3795 -0.5691  0.1661
  350MOL0     N47132   7.815   9.073   3.931  0.1959  0.5056 -0.5073
  350MOL0     C47133   7.826   8.951   3.984  0.0556  0.3086 -0.0596
  350MOL0     C47134   7.917   8.895   3.899 -0.3450  0.0641 -0.3030
  350MOL0     C47135   7.966   8.748   3.907  0.5820 -0.3396  1.0989
  350MOL0     C47136   7.878   8.649   3.830 -0.6397  0.1609  0.0997
  350MOL0     C47137   7.942   8.518   3.793 -0.1616  0.3588 -0.0968
  350MOL0     C47138   8.027   8.522   3.664  0.4229  0.4240 -0.6277
  350MOL0     O47139   7.942   8.514   3.549 -0.0885  0.5284  0.4070
  350MOL0     C47140   8.004   8.516   3.421  0.7323 -0.4440 -0.1064
  350MOL0     C47141   8.137   8.485   3.391  0.1714 -0.2197  0.5252
  350MOL0     C47142   8.191   8.489   3.253 -0.9135  0.2567  0.2142
  350MOL0     C47143   8.339   8.476   3.237 -0.8018  0.0674  0.8183
  350MOL0     C47144   8.105   8.502   3.141  0.2468  1.1720 -1.0052
  350MOL0     C47145   8.139   8.474   2.998 -0.2579  0.1234 -0.1390
  350MOL0     O47146   8.032   8.471   2.905 -0.1054 -0.2441 -0.1416
  350MOL0     C47147   8.038   8.399   2.790  0.0557 -0.1042 -0.2381
  350MOL0     C47148   7.922   8.364   2.729 -0.2064  0.1267 -0.9370
  350MOL0     C47149   7.910   8.304   2.598 -0.1434  0.5004  0.3558
  350MOL0     C47150   8.019   8.251   2.532  0.3370 -1.5466  0.5618
  350MOL0     O47151   8.014   8.190   2.412 -0.0432 -0.8180 -0.1656
  350MOL0     C47152   7.894   8.194   2.334  0.8104  0.4684 -0.0322
  350MOL0     C47153   7.921   8.137   2.198 -0.6182 -0.4876  0.2486
  350MOL0     C47154   7.799   8.150   2.100  0.3094  0.2379 -0.3345
  350MOL0     C47155   7.691   8.046   2.142  0.2775  0.8888 -0.2605
  350MOL0     C47156   7.576   8.045   2.036 -0.4161 -0.6630  1.1521
  350MOL0     C47157   7.447   7.972   2.075 -0.3038 -0.9515  0.2531
  350MOL0     C47158   7.468   7.820   2.088 -0.1050 -0.1104  0.7287
  350MOL0     C47159   7.340   7.759   2.143 -0.7861  0.5135  0.1178
  350MOL0    Cl47160   7.225   7.759   2.009  0.1112  0.0957 -0.2714
  350MOL0     C47161   8.143   8.268   2.594  0.0473 -0.5106  0.4995
  350MOL0     C47162   8.152   8.346   2.716  0.0033 -0.3742  0.1973
  350MOL0     O47163   8.258   8.444   2.977 -0.3865  0.3543 -0.5900
  350MOL0     C47164   7.974   8.530   3.172 -0.3894 -0.0241 -0.8311
  350MOL0     C47165   7.923   8.536   3.304 -0.2684 -0.5393 -0.4355
  350MOL0     N47166   7.946   8.976   3.792  0.0300 -1.4784  0.7117
  350MOL0     N47167   7.868   9.082   3.807 -0.3100 -0.2992 -0.1670
  350MOL0     C47168   8.789   9.647   3.878 -1.0525 -0.2462  0.5895
  350MOL0     C47169   8.892   9.627   3.779 -0.8233  0.5339  0.6628
  350MOL0     C47170   9.026   9.581   3.326  0.5728  0.1559  0.0841
  350MOL0     C47171   9.090   9.455   3.300  0.3355 -0.0544  0.0177
  350MOL0     C47172   9.149   9.421   3.174  0.8527  0.9894 -0.6632
  350MOL0     C47173   9.143   9.504   3.067 -0.5040  0.0001 -0.3802
  350MOL0     O47174   9.194   9.455   2.950  0.2096  0.4663  0.4957
  350MOL0     C47175   9.187   9.538   2.832 -0.5100  0.4181  0.6133
  350MOL0     C47176   9.240   9.445   2.716 -0.4656 -0.0657 -0.2396
  350MOL0     C47177   9.161   9.319   2.676  0.1681  0.3178 -0.4906
  350MOL0     C47178   9.012   9.361   2.640 -0.2153 -0.7501 -1.0676
  350MOL0     C47179   8.930   9.247   2.604 -0.5394 -0.1924  0.6738
  350MOL0     C47180   8.855   9.169   2.550 -0.4093  0.3748 -0.6858
  350MOL0     C47181   9.082   9.632   3.091 -0.3052  0.5432  0.7329
  350MOL0     C47182   9.029   9.665   3.215  1.6202 -1.7182 -0.2839
  350MOL0     H47183   8.698   9.450   3.571 -1.7684  1.7317 -0.1841
  350MOL0     H47184   8.528   9.498   3.742 -1.1193  1.4889  2.8237
  350MOL0     H47185   8.408   9.608   3.900  0.2295  0.8178 -0.0801
  350MOL0     H47186   8.457   9.446   3.967 -1.8712  0.4272 -1.1432
  350MOL0     H47187   8.430   9.559   4.196  0.2235  4.9600  1.3646
  350MOL0     H47188   8.362   9.688   4.113  1.2357  0.0417  1.4038
  350MOL0     H47189   8.180   9.552   4.191 -3.0823  0.2264 -1.2290
  350MOL0     H47190   8.177   9.572   4.023  1.9993  4.0111  1.4861
  350MOL0     H47191   8.276   9.331   3.984 -0.1134  1.0012 -1.0196
  350MOL0     H47192   8.315   9.323   4.147 -1.7429 -1.6213 -0.4238
  350MOL0     H47193   8.140   9.182   4.168  1.6062  0.6646  1.2018
  350MOL0     H47194   8.096   9.342   4.226  0.5071  4.0117 -2.3542
  350MOL0     H47195   7.982   9.382   3.991 -1.1726 -0.1103  0.6181
  350MOL0     H47196   8.027   9.210   3.967 -0.8944 -0.9563  0.7485
  350MOL0     H47197   7.891   9.187   4.201  1.1967  1.5234  0.8888
  350MOL0     H47198   7.824   9.337   4.141  1.0642  1.3389 -3.4091
  350MOL0     H47199   7.726   9.261   3.949 -1.9093  0.4239  1.8829
  350MOL0     H47200   7.671   9.144   4.071  0.2070 -3.0221 -0.5325
  350MOL0     H47201   7.793   8.906   4.077  2.2728  0.8141  1.0655
  350MOL0     H47202   8.066   8.755   3.865 -0.2355  1.3303 -0.7453
  350MOL0     H47203   7.964   8.713   4.011 -1.8481  0.4755  1.3998
  350MOL0     H47204   7.836   8.696   3.740 -0.1606 -1.7722 -1.2206
  350MOL0     H47205   7.791   8.632   3.893 -0.8348  2.3023  0.4889
  350MOL0     H47206   7.881   8.428   3.805  0.6915 -0.0496  1.4643
  350MOL0     H47207   8.004   8.492   3.879 -0.1923  0.7802  0.0553
  350MOL0     H47208   8.091   8.433   3.662  0.7364  0.4843  2.2522
  350MOL0     H47209   8.100   8.604   3.664  1.4114 -0.4343 -0.8643
  350MOL0     H47210   8.208   8.463   3.470 -2.8734  1.6752  4.1474
  350MOL0     H47211   8.384   8.514   3.329 -1.1927  3.1423 -0.1410
  350MOL0     H47212   8.368   8.371   3.232 -0.8707  0.0048  1.6291
  350MOL0     H47213   8.383   8.548   3.167  0.8437 -0.6883  1.0269
  350MOL0     H47214   7.833   8.405   2.775 -1.0132 -4.3744  2.1813
  350MOL0     H47215   7.812   8.292   2.553 -0.4629  2.5387  0.4107
  350MOL0     H47216   7.820   8.124   2.373  0.9611 -1.0541 -2.3205
  350MOL0     H47217   7.841   8.290   2.337 -1.4377 -0.6910  3.2705
  350MOL0     H47218   8.003   8.187   2.146  0.0246  0.9598  2.5247
  350MOL0     H47219   7.944   8.030   2.206 -0.5641 -0.9269 -3.7042
  350MOL0     H47220   7.822   8.144   1.993 -4.2107  0.1873 -1.4980
  350MOL0     H47221   7.758   8.251   2.111 -0.2967  0.0066 -0.4236
  350MOL0     H47222   7.740   7.949   2.157 -3.0994 -1.0059 -0.6634
  350MOL0     H47223   7.648   8.075   2.239  0.0884 -1.4200  0.4008
  350MOL0     H47224   7.605   8.002   1.939 -0.1505 -2.9646  2.1953
  350MOL0     H47225   7.556   8.151   2.014  1.4881 -0.9365 -2.7880
  350MOL0     H47226   7.417   8.016   2.171  1.1667  0.5272  0.0910
  350MOL0     H47227   7.381   8.002   1.993  0.9120 -0.8326 -0.7159
  350MOL0     H47228   7.547   7.792   2.158  0.0378  2.4460  1.7027
  350MOL0     H47229   7.485   7.785   1.985 -0.5232  3.2990 -0.6210
  350MOL0     H47230   7.304   7.814   2.231  0.1291  0.4068  0.5589
  350MOL0     H47231   7.364   7.656   2.168 -0.5098  0.5747  0.1001
  350MOL0     H47232   8.231   8.235   2.540 -1.2084 -2.2031 -0.6302
  350MOL0     H47233   8.248   8.375   2.757 -0.3388  1.9025 -0.4680
  350MOL0     H47234   7.890   8.532   3.103  0.5291 -1.1725 -2.0251
  350MOL0     H47235   7.818   8.563   3.316 -0.1203  1.9326 -3.4926
  350MOL0     H47236   8.826   9.703   3.964 -0.2406  0.1975 -0.0340
  350MOL0     H47237   8.996   9.656   3.784 -0.8777  1.3395 -1.6477
  350MOL0     H47238   9.098   9.391   3.388  0.4083  0.1090  0.1313
  350MOL0     H47239   9.197   9.324   3.163 -0.1951  0.5713 -1.8464
  350MOL0     H47240   9.089   9.580   2.804  0.1491  1.8306  0.3432
  350MOL0     H47241   9.244   9.629   2.852 -2.4706  1.5159  1.5755
  350MOL0     H47242   9.341   9.413   2.745 -1.5503 -2.4792  1.1678
  350MOL0     H47243   9.250   9.505   2.625  1.5155  2.2424  1.3352
  350MOL0     H47244   9.161   9.248   2.759 -1.1609  1.4416  0.5095
  350MOL0     H47245   9.202   9.272   2.586 -0.7910 -1.5297 -0.0184
  350MOL0     H47246   9.025   9.422   2.551  1.6397  1.9399  0.8565
  350MOL0     H47247   8.967   9.422   2.719  0.8056  1.0061 -1.8058
  350MOL0     H47248   8.787   9.095   2.512  1.6098 -2.5216  0.8735
  350MOL0     H47249   9.071   9.691   3.000 -1.7200  1.6710  1.5931
  350MOL0     H47250   8.982   9.763   3.221  3.8797 -0.5545 -0.2858
  351MOL0     O47251   5.659   4.214   0.110 -0.6205  0.2215 -0.0091
  351MOL0     C47252   5.696   4.139   0.198 -0.5027 -0.2602  0.4253
  351MOL0     O47253   5.756   4.019   0.174  0.6422 -0.2061 -1.0395
  351MOL0     C47254   5.775   3.973   0.047 -0.0538 -0.4625  0.1070
  351MOL0     C47255   5.902   3.936   0.002  0.1709  0.3321  0.1807
  351MOL0     C47256   5.921   3.855  -0.113 -0.7506  0.3808 -0.6417
  351MOL0     C47257   5.806   3.833  -0.191  0.1430  0.5821 -0.7856
  351MOL0     O47258   5.800   3.768  -0.307 -0.5414  0.2338 -0.2607
  351MOL0     C47259   5.902   3.674  -0.357  0.3100  0.2275 -0.6276
  351MOL0     C47260   5.846   3.616  -0.481 -0.3395  0.5905 -0.5308
  351MOL0     C47261   5.876   3.726  -0.586  0.8968  0.5000  0.1843
  351MOL0     C47262   5.845   3.665  -0.729 -0.0699 -0.8773 -0.6916
  351MOL0     C47263   5.705   3.619  -0.747 -0.0080 -0.1629  0.1074
  351MOL0     C47264   5.638   3.679  -0.878  0.1121 -0.1299  0.0254
  351MOL0     C47265   5.494   3.646  -0.895  0.2635 -0.6897  0.6371
  351MOL0     C47266   5.457   3.499  -0.866  1.2289 -0.5962  0.3835
  351MOL0     N47267   5.312   3.475  -0.873  0.5271 -0.4546  0.0034
  351MOL0     C47268   5.221   3.516  -0.967  0.1110  0.7957  0.1008
  351MOL0     C47269   5.104   3.485  -0.907 -0.2385  0.2477  1.3322
  351MOL0     C47270   4.966   3.517  -0.961 -0.5569  0.8524  1.2843
  351MOL0     C47271   4.934   3.671  -0.954 -0.2458  0.1800 -0.2263
  351MOL0     C47272   4.810   3.702  -1.044  1.1696 -0.4670  1.0214
  351MOL0     C47273   4.764   3.847  -1.028  0.1594 -0.4572  0.5764
  351MOL0     O47274   4.684   3.849  -0.908  0.5490 -0.3989 -0.1534
  351MOL0     C47275   4.549   3.842  -0.904  0.1585  0.7366 -0.6135
  351MOL0     C47276   4.468   3.781  -0.999  1.0518  0.1825  0.4137
  351MOL0     C47277   4.323   3.771  -0.986  0.1131  0.1342 -0.2907
  351MOL0     C47278   4.252   3.696  -1.100  0.6757  0.1819 -0.1047
  351MOL0     C47279   4.262   3.836  -0.876  0.1929  0.7882 -0.1400
  351MOL0     C47280   4.116   3.868  -0.870 -0.9182  0.2575  0.0160
  351MOL0     O47281   4.059   3.900  -0.751  0.2411  0.2321 -0.1937
  351MOL0     C47282   3.925   3.920  -0.750  0.3639 -0.8416 -0.7825
  351MOL0     C47283   3.862   3.999  -0.846  0.2240 -0.3898  0.5221
  351MOL0     C47284   3.728   4.013  -0.837 -0.0964  0.1880 -0.5718
  351MOL0     C47285   3.655   3.955  -0.726  0.0269 -0.4369  0.5306
  351MOL0     O47286   3.519   3.983  -0.720 -0.5645  0.2996 -0.2007
  351MOL0     C47287   3.425   3.891  -0.656 -0.1353 -0.3475  1.0738
  351MOL0     C47288   3.306   3.875  -0.747  0.5226  0.7978  0.7608
  351MOL0     C47289   3.225   4.001  -0.786  0.0793 -0.2411 -0.7717
  351MOL0     C47290   3.165   4.080  -0.672  0.2632  0.4508 -0.9029
  351MOL0     C47291   3.100   4.212  -0.701 -0.2785 -0.3550  0.5412
  351MOL0     C47292   3.037   4.270  -0.574  0.0055 -1.0025 -0.4938
  351MOL0     C47293   2.920   4.187  -0.513 -0.7610  0.6585  0.5012
  351MOL0     C47294   2.796   4.176  -0.594 -1.8294 -0.3619 -0.1490
  351MOL0    Cl47295   2.726   4.335  -0.625  0.0719  0.3416  0.2724
  351MOL0     C47296   3.726   3.910  -0.623  0.7397 -0.7899 -1.1145
  351MOL0     C47297   3.863   3.880  -0.632 -0.1071  0.7305  0.1253
  351MOL0     O47298   4.050   3.845  -0.974 -0.2374 -0.4101  0.0663
  351MOL0     C47299   4.346   3.887  -0.778 -0.1503  0.7132  0.1128
  351MOL0     C47300   4.488   3.900  -0.798 -0.0837 -0.2495 -0.1523
  351MOL0     N47301   5.127   3.420  -0.781 -0.2390  0.8137  0.3461
  351MOL0     N47302   5.256   3.419  -0.764 -0.1082  0.3577  0.5255
  351MOL0     C47303   5.684   3.889  -0.161 -0.1686 -0.7838 -0.5083
  351MOL0     C47304   5.663   3.955  -0.039  0.0512 -0.3010 -0.1906
  351MOL0     C47305   5.712   4.195   0.335  0.2823  0.0673  0.0544
  351MOL0     C47306   5.764   4.119   0.443  0.0282 -0.2644  0.5307
  351MOL0     C47307   5.755   4.168   0.574  0.8715 -0.6955  1.5812
  351MOL0     C47308   5.704   4.293   0.604  0.2615 -1.2512  0.2401
  351MOL0     O47309   5.693   4.330   0.738  0.6810 -0.3912  0.5487
  351MOL0     C47310   5.655   4.467   0.767  1.0889 -0.5459  0.5914
  351MOL0     C47311   5.684   4.504   0.913 -0.0269  0.7027  0.1325
  351MOL0     C47312   5.837   4.523   0.960 -0.2644 -0.1075  0.6436
  351MOL0     C47313   5.850   4.510   1.116  0.5176  0.5712  0.0142
  351MOL0     C47314   5.767   4.618   1.181  0.2253 -0.0291  0.6576
  351MOL0     C47315   5.710   4.697   1.245 -1.1988 -0.6030 -0.2714
  351MOL0     C47316   5.653   4.365   0.498  0.4285 -0.2195 -0.0726
  351MOL0     C47317   5.655   4.325   0.361  0.3837  0.4006  0.0737
  351MOL0     H47318   5.984   3.962   0.068 -0.7222 -0.4047  1.6148
  351MOL0     H47319   6.019   3.813  -0.135 -1.2625 -0.0260 -2.2410
  351MOL0     H47320   5.994   3.731  -0.369 -0.4872  1.3802 -1.5134
  351MOL0     H47321   5.923   3.590  -0.289 -0.8963 -0.2116 -0.7643
  351MOL0     H47322   5.906   3.534  -0.521 -2.9406 -0.3165 -2.9127
  351MOL0     H47323   5.739   3.595  -0.469  0.0641  0.0485  3.2370
  351MOL0     H47324   5.810   3.812  -0.571 -0.6098 -0.7840  1.3329
  351MOL0     H47325   5.982   3.752  -0.582  0.2724  3.3137  0.2378
  351MOL0     H47326   5.859   3.744  -0.803  0.3672 -1.1656 -0.9205
  351MOL0     H47327   5.912   3.579  -0.741 -0.3492 -1.9296  3.5606
  351MOL0     H47328   5.708   3.510  -0.760  2.3066 -0.4660  2.3225
  351MOL0     H47329   5.646   3.653  -0.661 -0.6546 -1.3440  0.1535
  351MOL0     H47330   5.654   3.786  -0.863  2.6701 -0.2457 -1.3077
  351MOL0     H47331   5.691   3.647  -0.968  0.2875 -0.9861  0.4245
  351MOL0     H47332   5.443   3.716  -0.828  0.8274  2.8203 -2.2956
  351MOL0     H47333   5.472   3.667  -1.000 -0.1567 -1.5386  0.5483
  351MOL0     H47334   5.503   3.462  -0.774  0.5575 -2.7922 -0.0992
  351MOL0     H47335   5.509   3.446  -0.947  1.0231  0.5318 -0.5138
  351MOL0     H47336   5.232   3.568  -1.062 -3.4202 -3.4694 -3.0824
  351MOL0     H47337   4.963   3.479  -1.064 -2.1425 -0.7387  1.8603
  351MOL0     H47338   4.884   3.460  -0.917 -1.4054  1.4021  0.4428
  351MOL0     H47339   5.012   3.736  -0.993  0.1908  0.3382  0.8880
  351MOL0     H47340   4.903   3.689  -0.850 -0.7442  0.0712 -0.3501
  351MOL0     H47341   4.722   3.644  -1.016  1.8090 -2.2954 -0.5533
  351MOL0     H47342   4.833   3.683  -1.150 -0.8081 -1.9942  0.8060
  351MOL0     H47343   4.691   3.862  -1.109  2.4494  3.4700 -1.0585
  351MOL0     H47344   4.841   3.923  -1.044  0.0772 -0.7904 -1.9068
  351MOL0     H47345   4.510   3.716  -1.074  1.5483  1.0649 -0.0922
  351MOL0     H47346   4.185   3.618  -1.063  0.6053 -1.2071 -2.9165
  351MOL0     H47347   4.193   3.760  -1.166 -1.7255  0.1980  1.9429
  351MOL0     H47348   4.326   3.632  -1.149 -0.5932 -0.7506 -0.8525
  351MOL0     H47349   3.917   4.045  -0.928 -2.6639 -1.7123 -2.3721
  351MOL0     H47350   3.672   4.055  -0.919  1.7659  1.5133 -1.2293
  351MOL0     H47351   3.471   3.798  -0.621  2.1269  0.8028  1.3451
  351MOL0     H47352   3.387   3.936  -0.564 -0.7263 -2.3620  1.8647
  351MOL0     H47353   3.342   3.823  -0.836 -0.6068  0.1183  0.6758
  351MOL0     H47354   3.237   3.808  -0.693  0.3440 -1.5207 -2.0737
  351MOL0     H47355   3.142   3.967  -0.849 -0.8951  0.1305  0.3044
  351MOL0     H47356   3.285   4.075  -0.840  1.1950 -1.6551 -1.5462
  351MOL0     H47357   3.096   4.015  -0.617  0.5734  1.2866  0.5295
  351MOL0     H47358   3.243   4.109  -0.601 -0.6234  3.2012 -0.9279
  351MOL0     H47359   3.033   4.203  -0.787  1.1666  2.0676 -0.9589
  351MOL0     H47360   3.169   4.289  -0.736  0.0788 -0.5640  0.7790
  351MOL0     H47361   3.105   4.294  -0.492 -1.4511 -0.2409  0.5355
  351MOL0     H47362   2.995   4.363  -0.615 -2.8346 -0.7498  2.5577
  351MOL0     H47363   2.891   4.251  -0.429 -0.9494  2.4597 -0.8855
  351MOL0     H47364   2.954   4.088  -0.479  0.5600  1.6635  2.3001
  351MOL0     H47365   2.727   4.128  -0.524 -2.2948  0.4156 -0.0646
  351MOL0     H47366   2.797   4.113  -0.683 -0.9251  0.7152 -0.9258
  351MOL0     H47367   3.664   3.883  -0.538 -0.0030  1.3672 -0.9146
  351MOL0     H47368   3.918   3.833  -0.552 -2.2750 -1.3659  0.5049
  351MOL0     H47369   4.305   3.932  -0.687  2.0320  0.8684  1.0800
  351MOL0     H47370   4.541   3.946  -0.716 -1.9678  0.7584  0.5770
  351MOL0     H47371   5.594   3.884  -0.222 -1.4082  0.8833  1.0720
  351MOL0     H47372   5.570   4.011  -0.033  1.9555  3.2651 -0.7016
  351MOL0     H47373   5.810   4.021   0.437 -0.5950 -0.5956  1.0366
  351MOL0     H47374   5.800   4.100   0.646  2.3512 -0.9156  0.4990
  351MOL0     H47375   5.697   4.534   0.691 -2.1729 -0.7186 -1.5432
  351MOL0     H47376   5.547   4.460   0.755  0.7201 -1.6436  3.7761
  351MOL0     H47377   5.657   4.421   0.979  2.3709 -0.3112 -0.0584
  351MOL0     H47378   5.626   4.590   0.947 -1.3975 -0.0874 -0.1410
  351MOL0     H47379   5.874   4.619   0.920  3.4891 -1.2590  0.9647
  351MOL0     H47380   5.901   4.445   0.918  0.6425 -0.6932  2.9694
  351MOL0     H47381   5.955   4.508   1.144 -0.4487 -2.6205  4.4309
  351MOL0     H47382   5.816   4.413   1.153 -0.8430  1.3431  0.9062
  351MOL0     H47383   5.670   4.776   1.306 -0.5374  1.1835 -2.0434
  351MOL0     H47384   5.597   4.456   0.517  1.4960  0.1672  1.3460
  351MOL0     H47385   5.597   4.381   0.288 -0.7727 -0.9538 -0.0977
  352MOL0     O47386   4.673   5.686   5.026  0.3847 -0.2258  0.7043
  352MOL0     C47387   4.743   5.784   5.054  1.2315 -0.3657  0.4428
  352MOL0     O47388   4.875   5.783   5.092 -0.1420  0.6417  0.0374
  352MOL0     C47389   4.937   5.662   5.091  0.6817 -1.0918 -0.9310
  352MOL0     C47390   4.918   5.559   4.999 -0.2566  0.5857 -0.7152
  352MOL0     C47391   5.001   5.444   4.999 -0.0452  0.5407  0.1434
  352MOL0     C47392   5.084   5.421   5.108  0.1012  0.0048 -0.2868
  352MOL0     O47393   5.163   5.304   5.132 -0.3679 -0.0377 -0.1592
  352MOL0     C47394   5.168   5.199   5.030 -0.3464 -0.4247  0.1924
  352MOL0     C47395   5.224   5.063   5.079  0.6628  0.5603  0.4231
  352MOL0     C47396   5.118   4.999   5.165  0.5416 -0.0435 -0.0267
  352MOL0     C47397   5.182   4.878   5.229  0.3639 -0.4652 -0.4064
  352MOL0     C47398   5.067   4.807   5.304  0.0866 -1.1106 -0.0647
  352MOL0     C47399   5.110   4.668   5.343  0.0178 -0.1557  0.6614
  352MOL0     C47400   5.025   4.613   5.449  0.0560  0.0737  0.3590
  352MOL0     C47401   5.042   4.461   5.467 -0.8231  0.1640  0.6048
  352MOL0     N47402   4.950   4.395   5.369  0.0308  0.1707 -0.0509
  352MOL0     C47403   4.970   4.373   5.230  0.5258  0.1199 -0.5142
  352MOL0     C47404   4.848   4.317   5.186 -0.5583  0.1545 -0.7557
  352MOL0     C47405   4.807   4.264   5.049 -0.3041 -0.3018 -0.5430
  352MOL0     C47406   4.822   4.115   5.056 -0.5551  0.3397  0.4019
  352MOL0     C47407   4.811   4.049   4.908 -0.0740  0.4659 -0.0976
  352MOL0     C47408   4.663   4.038   4.870 -0.5308 -0.3216 -0.0627
  352MOL0     O47409   4.672   3.977   4.741  0.0228 -0.4001 -0.1610
  352MOL0     C47410   4.562   3.927   4.678  0.1400  0.3334  0.1887
  352MOL0     C47411   4.587   3.801   4.621 -0.7227  0.5256  0.5298
  352MOL0     C47412   4.487   3.706   4.593  0.5210  0.0647  0.3630
  352MOL0     C47413   4.512   3.557   4.575 -0.1758 -0.7231  0.9758
  352MOL0     C47414   4.353   3.752   4.585 -0.1144 -0.3222 -0.1813
  352MOL0     C47415   4.239   3.670   4.542  0.1086  0.1060  0.1087
  352MOL0     O47416   4.227   3.555   4.609  0.5495 -0.7480  0.4686
  352MOL0     C47417   4.129   3.466   4.568  0.3227  0.0895 -0.6192
  352MOL0     C47418   4.138   3.372   4.463 -0.3935  0.0814 -0.1060
  352MOL0     C47419   4.061   3.262   4.453  0.2466  0.5514  0.2235
  352MOL0     C47420   3.960   3.238   4.544 -0.2354 -0.0190  0.7223
  352MOL0     O47421   3.889   3.121   4.551  0.6833  0.3619  0.7903
  352MOL0     C47422   3.947   3.008   4.492  0.6748 -0.1571 -0.2184
  352MOL0     C47423   3.855   2.891   4.538 -0.2501  0.0790  0.0148
  352MOL0     C47424   3.725   2.874   4.465  0.5439  0.6166 -0.2954
  352MOL0     C47425   3.702   2.744   4.390 -0.4593  0.0598  0.9489
  352MOL0     C47426   3.567   2.739   4.317  0.7867 -0.4539 -0.7983
  352MOL0     C47427   3.542   2.602   4.246  0.0805  0.7758  0.3432
  352MOL0     C47428   3.391   2.591   4.193 -0.5522 -0.0344 -0.8125
  352MOL0     C47429   3.388   2.526   4.055 -0.5382 -0.2456 -1.5178
  352MOL0    Cl47430   3.446   2.354   4.069  0.1328 -0.5349  0.0496
  352MOL0     C47431   3.940   3.333   4.647  0.9005  0.8845 -0.2275
  352MOL0     C47432   4.024   3.434   4.664 -0.8532 -0.8039 -0.7598
  352MOL0     O47433   4.154   3.711   4.472 -1.0563 -0.7037 -0.3077
  352MOL0     C47434   4.326   3.887   4.630  0.4002 -0.0708 -0.6822
  352MOL0     C47435   4.428   3.967   4.683  0.9942 -0.3171  0.0112
  352MOL0     N47436   4.768   4.305   5.299 -1.3034  0.6345  0.2943
  352MOL0     N47437   4.831   4.352   5.403  0.1702  0.2423 -0.2149
  352MOL0     C47438   5.100   5.523   5.202 -0.4172  0.6788 -0.4122
  352MOL0     C47439   5.022   5.640   5.195  0.1984 -0.6644  0.0417
  352MOL0     C47440   4.688   5.921   5.048 -0.0661  0.1223 -0.4740
  352MOL0     C47441   4.577   5.958   4.964 -0.1504  0.2705  0.0723
  352MOL0     C47442   4.523   6.090   4.976  0.0388  0.3138  0.6827
  352MOL0     C47443   4.573   6.182   5.055 -0.6216 -0.5571  0.4310
  352MOL0     O47444   4.517   6.309   5.075  0.3574 -0.0877  0.0405
  352MOL0     C47445   4.415   6.309   5.173 -0.3799 -0.5625 -0.8897
  352MOL0     C47446   4.372   6.451   5.181 -0.5809  0.5862  0.5402
  352MOL0     C47447   4.324   6.516   5.044 -0.1738  0.0083 -0.2068
  352MOL0     C47448   4.205   6.440   4.980  0.2740 -0.3598 -0.1100
  352MOL0     C47449   4.087   6.427   5.079  0.1942 -0.6650  0.2192
  352MOL0     C47450   3.983   6.437   5.147 -0.2734  0.7693  0.6705
  352MOL0     C47451   4.687   6.153   5.130  0.2900 -0.2988  0.6596
  352MOL0     C47452   4.749   6.030   5.120  0.3170 -0.0826 -0.0529
  352MOL0     H47453   4.854   5.565   4.911  2.6663  1.8886 -2.9209
  352MOL0     H47454   4.977   5.375   4.918  0.0157 -1.1893  1.5215
  352MOL0     H47455   5.066   5.188   4.992 -0.4647  2.7919 -0.7579
  352MOL0     H47456   5.232   5.221   4.943  2.0572 -1.0867  1.7004
  352MOL0     H47457   5.244   5.004   4.989 -3.7610 -1.7375  0.6616
  352MOL0     H47458   5.317   5.083   5.135 -0.4079  1.4978  1.9451
  352MOL0     H47459   5.086   5.063   5.247  1.8772 -0.0079  0.4971
  352MOL0     H47460   5.027   4.975   5.109 -0.7141  2.1708  0.9553
  352MOL0     H47461   5.227   4.813   5.154  0.6778  0.4200 -0.9918
  352MOL0     H47462   5.257   4.904   5.305 -0.6545 -0.6339  0.7015
  352MOL0     H47463   5.055   4.875   5.388  1.4890 -0.7902 -0.0986
  352MOL0     H47464   4.971   4.807   5.253 -1.3773  0.1297  2.4870
  352MOL0     H47465   5.102   4.608   5.252  0.7692 -1.6141  1.5206
  352MOL0     H47466   5.217   4.663   5.363  0.2815 -1.3608 -0.8636
  352MOL0     H47467   5.058   4.652   5.546  1.6030  0.1907 -0.1850
  352MOL0     H47468   4.923   4.637   5.418  1.0118  1.6516 -1.7932
  352MOL0     H47469   5.008   4.430   5.566  2.1378  0.1054  1.7166
  352MOL0     H47470   5.147   4.434   5.455 -0.4927  1.2464  0.9007
  352MOL0     H47471   5.054   4.414   5.174  0.7502  1.3608  0.6885
  352MOL0     H47472   4.701   4.283   5.029 -0.0228  1.2201 -0.6967
  352MOL0     H47473   4.878   4.296   4.972 -0.6660 -0.7154 -1.0578
  352MOL0     H47474   4.749   4.072   5.124 -1.6027 -0.0121 -0.8951
  352MOL0     H47475   4.925   4.101   5.089 -0.9806 -0.3874  1.5036
  352MOL0     H47476   4.851   3.948   4.916 -0.3394  0.3844  0.2387
  352MOL0     H47477   4.861   4.111   4.834 -0.0085 -1.4207 -1.7040
  352MOL0     H47478   4.626   4.141   4.867  0.3469 -0.0126 -1.5292
  352MOL0     H47479   4.599   3.981   4.938 -3.5320  1.2217 -1.3736
  352MOL0     H47480   4.689   3.765   4.624 -0.0421  2.2113 -0.8648
  352MOL0     H47481   4.621   3.545   4.563 -0.0934 -0.2757  1.2909
  352MOL0     H47482   4.465   3.497   4.653 -1.9520 -1.0444 -0.2661
  352MOL0     H47483   4.466   3.537   4.477 -1.2006  0.7190  1.1431
  352MOL0     H47484   4.215   3.390   4.389  2.3776 -0.6920  2.3780
  352MOL0     H47485   4.072   3.200   4.365  1.0658  0.7363  0.1840
  352MOL0     H47486   3.939   3.014   4.383 -3.5694  1.4487  0.0002
  352MOL0     H47487   4.056   3.004   4.504  0.8222  3.5743  0.9881
  352MOL0     H47488   3.902   2.796   4.511 -1.5594  0.2132 -3.2629
  352MOL0     H47489   3.849   2.905   4.646 -0.5835 -1.1617  0.1706
  352MOL0     H47490   3.711   2.953   4.390 -1.9422  0.7632  0.2456
  352MOL0     H47491   3.650   2.892   4.542  2.5667  3.0348  1.2692
  352MOL0     H47492   3.782   2.725   4.317 -1.7395  0.7502 -0.7152
  352MOL0     H47493   3.701   2.660   4.460  0.4192  0.7103  1.7442
  352MOL0     H47494   3.572   2.816   4.240 -0.2726  0.7071  0.2558
  352MOL0     H47495   3.494   2.766   4.394  1.5737  2.6425 -1.0282
  352MOL0     H47496   3.618   2.586   4.169  0.3263 -0.0804  0.7500
  352MOL0     H47497   3.564   2.521   4.316  1.8295 -0.9832 -2.0871
  352MOL0     H47498   3.354   2.694   4.188  0.3970  0.4582  1.2462
  352MOL0     H47499   3.336   2.542   4.274  1.4417  0.5106  0.9740
  352MOL0     H47500   3.458   2.576   3.987 -0.8223 -1.0827 -2.4511
  352MOL0     H47501   3.291   2.537   4.006 -0.3192  0.3117 -1.8490
  352MOL0     H47502   3.871   3.314   4.729  0.4186  0.2345 -0.7724
  352MOL0     H47503   4.004   3.492   4.754 -1.0738  0.7217 -1.7692
  352MOL0     H47504   4.228   3.935   4.631  0.4156 -0.0177 -1.3237
  352MOL0     H47505   4.396   4.061   4.727 -0.9527 -0.0487 -1.7989
  352MOL0     H47506   5.170   5.505   5.283  0.0310 -1.1691 -1.1603
  352MOL0     H47507   5.051   5.715   5.268  2.2103 -0.9486 -0.3809
  352MOL0     H47508   4.542   5.894   4.883  5.0324 -1.8396 -0.9011
  352MOL0     H47509   4.438   6.119   4.915 -0.0976 -2.1728 -0.4085
  352MOL0     H47510   4.340   6.246   5.124  0.5451 -0.3722 -2.6456
  352MOL0     H47511   4.435   6.275   5.275 -2.0495 -1.2178 -0.7497
  352MOL0     H47512   4.459   6.503   5.222  5.0346 -3.8941 -3.8855
  352MOL0     H47513   4.300   6.454   5.263 -1.0956  4.3508  0.1269
  352MOL0     H47514   4.406   6.511   4.972 -0.7763 -1.4764 -0.8197
  352MOL0     H47515   4.308   6.623   5.058  3.4787  1.1300 -2.9153
  352MOL0     H47516   4.241   6.343   4.945 -0.2978 -1.1002  1.2980
  352MOL0     H47517   4.173   6.497   4.892  2.8268  1.3831 -0.0117
  352MOL0     H47518   3.905   6.437   5.220 -0.5782  1.1850  0.3487
  352MOL0     H47519   4.717   6.232   5.197  2.0462  0.6286 -1.1231
  352MOL0     H47520   4.845   6.017   5.169  1.8004  2.7897 -1.9234
  353MOL0     O47521   4.459   3.947   2.373 -0.1654 -1.4741  0.4381
  353MOL0     C47522   4.373   4.018   2.317  0.6598 -0.2521 -0.5983
  353MOL0     O47523   4.271   3.965   2.247  0.9820  0.7030  0.4547
  353MOL0     C47524   4.253   3.832   2.239 -0.6651 -0.3101 -0.0344
  353MOL0     C47525   4.281   3.765   2.121 -0.1865  0.6614 -0.1115
  353MOL0     C47526   4.253   3.634   2.097  1.1968  0.6582  0.6634
  353MOL0     C47527   4.193   3.562   2.201 -0.2420  0.2476  0.6208
  353MOL0     O47528   4.161   3.431   2.181 -0.4098 -0.9991 -0.4044
  353MOL0     C47529   4.026   3.386   2.198 -0.1401 -0.3088 -0.2607
  353MOL0     C47530   3.999   3.266   2.111  0.2051  0.3403 -0.1626
  353MOL0     C47531   3.853   3.254   2.077  0.2675 -0.3188 -0.0514
  353MOL0     C47532   3.792   3.170   2.186 -0.3991  0.3146 -0.0369
  353MOL0     C47533   3.654   3.133   2.142  0.7699 -0.8550 -0.8021
  353MOL0     C47534   3.643   2.999   2.058 -0.3642  0.0832 -0.1338
  353MOL0     C47535   3.495   2.959   2.033  0.4827  1.0669 -0.1574
  353MOL0     C47536   3.426   2.890   2.157  0.5256  0.0772 -0.0099
  353MOL0     N47537   3.286   2.847   2.114 -0.3144 -0.8961 -0.4765
  353MOL0     C47538   3.173   2.913   2.155 -0.6504  0.6360 -1.1015
  353MOL0     C47539   3.067   2.828   2.113  0.5168 -0.1641 -0.5013
  353MOL0     C47540   2.925   2.870   2.152 -0.3948 -0.0216  0.5719
  353MOL0     C47541   2.862   2.752   2.235 -0.3751  0.0958  0.4748
  353MOL0     C47542   2.801   2.646   2.141  1.5842  0.4397 -0.5852
  353MOL0     C47543   2.708   2.691   2.029 -0.1046 -0.1868  0.1854
  353MOL0     O47544   2.624   2.805   2.079 -0.7349  0.0936  0.2370
  353MOL0     C47545   2.505   2.834   2.018  0.7713  1.0203  1.4781
  353MOL0     C47546   2.399   2.882   2.093  0.4061  0.4341 -0.4793
  353MOL0     C47547   2.271   2.907   2.033  0.2385 -0.5563 -0.0671
  353MOL0     C47548   2.165   2.964   2.128  0.5416  1.0360  0.6791
  353MOL0     C47549   2.244   2.877   1.898 -0.2232 -0.4610  0.3697
  353MOL0     C47550   2.113   2.887   1.832 -0.6287  0.7020 -0.0969
  353MOL0     O47551   2.109   2.910   1.695 -0.8639  0.2648  0.5043
  353MOL0     C47552   2.010   2.877   1.610 -0.5415  0.1499  0.3783
  353MOL0     C47553   1.890   2.805   1.636  0.6319  0.1479  0.6576
  353MOL0     C47554   1.791   2.777   1.537 -0.1122 -0.2866 -0.4239
  353MOL0     C47555   1.813   2.822   1.410 -0.3312 -0.8454  0.4629
  353MOL0     O47556   1.735   2.800   1.301 -0.8986 -0.4902  0.9993
  353MOL0     C47557   1.622   2.708   1.307 -0.2557  0.6722  0.2517
  353MOL0     C47558   1.574   2.684   1.167  0.1409 -0.3003 -0.2396
  353MOL0     C47559   1.443   2.612   1.167 -0.5318 -0.0696  0.7979
  353MOL0     C47560   1.433   2.465   1.216  0.2168 -0.6506 -0.0833
  353MOL0     C47561   1.283   2.429   1.191  0.0381  0.3681 -0.0301
  353MOL0     C47562   1.245   2.287   1.259 -0.0434  0.2582  0.0500
  353MOL0     C47563   1.098   2.250   1.227  1.4994 -0.6760 -0.0976
  353MOL0     C47564   1.065   2.195   1.098 -0.6004 -1.0765  0.9555
  353MOL0    Cl47565   0.893   2.217   1.055  0.0491 -0.1463  0.1684
  353MOL0     C47566   1.929   2.895   1.384  0.3742 -0.0638  0.6271
  353MOL0     C47567   2.027   2.917   1.475 -0.7786 -0.1477 -0.1333
  353MOL0     O47568   2.009   2.871   1.901  0.2373 -0.6502 -0.5611
  353MOL0     C47569   2.360   2.836   1.823  1.2389  0.3681  0.2531
  353MOL0     C47570   2.491   2.815   1.876  0.1135 -0.5061  0.5519
  353MOL0     N47571   3.120   2.733   2.035  0.1405  0.6127  0.9493
  353MOL0     N47572   3.248   2.741   2.048  0.2685  0.3627 -0.0358
  353MOL0     C47573   4.165   3.627   2.326  0.3753  0.2013  0.6115
  353MOL0     C47574   4.204   3.762   2.347 -0.4985 -0.7192 -0.2168
  353MOL0     C47575   4.385   4.162   2.335  1.5524  1.0474 -0.3207
  353MOL0     C47576   4.460   4.217   2.438 -1.3617  0.5129 -0.1382
  353MOL0     C47577   4.467   4.352   2.466 -0.0770 -0.2164 -0.7976
  353MOL0     C47578   4.390   4.439   2.385 -0.0923  0.0227  1.3589
  353MOL0     O47579   4.391   4.571   2.392 -0.9584  0.2762  0.2318
  353MOL0     C47580   4.399   4.629   2.518  0.2898  0.3756 -0.9354
  353MOL0     C47581   4.372   4.782   2.501 -0.0954 -0.0306 -0.0800
  353MOL0     C47582   4.350   4.855   2.628  0.4187 -0.1937  0.3375
  353MOL0     C47583   4.286   4.993   2.619  0.5179  1.0475  0.8687
  353MOL0     C47584   4.147   4.999   2.575 -0.0027  0.7742 -0.0811
  353MOL0     C47585   4.045   5.016   2.510  0.4570  0.3051  0.8762
  353MOL0     C47586   4.301   4.386   2.286  0.0774  0.3435  0.7809
  353MOL0     C47587   4.309   4.252   2.261  0.5317  1.2127 -0.4590
  353MOL0     H47588   4.329   3.827   2.046  2.3528 -0.9654  0.0109
  353MOL0     H47589   4.269   3.598   1.996 -0.4763 -0.6600  0.8198
  353MOL0     H47590   4.023   3.349   2.301  1.7643 -0.2287 -0.1498
  353MOL0     H47591   3.953   3.463   2.173  0.4052  0.2532 -0.1408
  353MOL0     H47592   4.051   3.295   2.019 -3.6756  1.7937 -2.1171
  353MOL0     H47593   4.044   3.173   2.146 -3.1620 -0.6845  1.7929
  353MOL0     H47594   3.805   3.352   2.063  2.9520  1.3134  1.4224
  353MOL0     H47595   3.834   3.203   1.982 -0.3645 -1.1839  0.5184
  353MOL0     H47596   3.849   3.079   2.207 -1.6719 -0.9329 -1.7238
  353MOL0     H47597   3.797   3.232   2.276  1.1181  2.8293 -1.7439
  353MOL0     H47598   3.596   3.118   2.234  0.1282  3.2827 -0.3237
  353MOL0     H47599   3.598   3.221   2.108 -1.4398 -1.0387  1.9333
  353MOL0     H47600   3.697   3.016   1.964 -3.9258  2.0429 -2.0309
  353MOL0     H47601   3.682   2.913   2.113 -2.9761 -2.4591 -1.9305
  353MOL0     H47602   3.433   3.045   2.006  1.0165  1.8003  0.8451
  353MOL0     H47603   3.496   2.890   1.949 -3.4370  2.7770 -1.8633
  353MOL0     H47604   3.422   2.965   2.238  3.8242 -0.3771  0.7070
  353MOL0     H47605   3.487   2.804   2.186  1.5860  1.3370  1.7521
  353MOL0     H47606   3.177   3.004   2.215 -0.9714 -0.8428  1.2697
  353MOL0     H47607   2.918   2.964   2.207  1.4585  0.7604 -0.4261
  353MOL0     H47608   2.866   2.899   2.065  0.8376  1.2808  0.1367
  353MOL0     H47609   2.786   2.787   2.305  2.2862  0.1676  3.5395
  353MOL0     H47610   2.935   2.715   2.307  0.8334  0.8168 -0.3459
  353MOL0     H47611   2.740   2.574   2.196  0.7178  0.4341 -1.5101
  353MOL0     H47612   2.889   2.593   2.103  0.5631 -2.8989  1.2976
  353MOL0     H47613   2.649   2.603   2.003  1.7294 -1.0377 -1.3113
  353MOL0     H47614   2.764   2.729   1.944 -1.3511  2.1794  0.3450
  353MOL0     H47615   2.414   2.899   2.199  2.1172 -0.0825 -0.6132
  353MOL0     H47616   2.198   3.002   2.226 -1.2066 -1.5934  2.4299
  353MOL0     H47617   2.112   3.042   2.073 -0.4127 -1.1591 -1.7258
  353MOL0     H47618   2.090   2.891   2.158 -0.3714  0.1713 -3.2061
  353MOL0     H47619   1.872   2.770   1.737  0.6251 -2.0978 -0.0689
  353MOL0     H47620   1.701   2.722   1.563 -2.0441  2.0147 -1.9014
  353MOL0     H47621   1.663   2.616   1.351  0.8909  0.4494 -1.2140
  353MOL0     H47622   1.541   2.735   1.376  0.5970  1.3710  1.0079
  353MOL0     H47623   1.548   2.783   1.129  0.3615  0.3548  1.2379
  353MOL0     H47624   1.645   2.628   1.105 -0.9475  0.2804 -2.1051
  353MOL0     H47625   1.417   2.609   1.060  0.5173 -2.5376  0.5389
  353MOL0     H47626   1.373   2.672   1.225 -0.2241  1.3815 -0.2809
  353MOL0     H47627   1.497   2.389   1.170  0.7595  0.0353 -0.4814
  353MOL0     H47628   1.447   2.465   1.324 -3.2689  1.2786  0.5138
  353MOL0     H47629   1.277   2.431   1.082 -1.8701 -1.3866 -0.0127
  353MOL0     H47630   1.219   2.505   1.236 -2.6186  0.6879 -3.8239
  353MOL0     H47631   1.319   2.218   1.218  2.9575  4.5399 -2.4749
  353MOL0     H47632   1.264   2.285   1.367  3.7553  0.0845 -0.4994
  353MOL0     H47633   1.040   2.342   1.219  2.1744 -0.2768 -0.4026
  353MOL0     H47634   1.064   2.186   1.310 -0.2293  1.2324  0.7643
  353MOL0     H47635   1.097   2.090   1.092 -2.9713 -1.8121  0.3224
  353MOL0     H47636   1.128   2.258   1.033 -1.2794  0.0763  1.3885
  353MOL0     H47637   1.965   2.917   1.284  2.0521  1.3948  1.4956
  353MOL0     H47638   2.119   2.970   1.451 -1.4949  0.2605 -2.2274
  353MOL0     H47639   2.362   2.829   1.715  1.6012  0.9622  0.2139
  353MOL0     H47640   2.576   2.781   1.818  0.7490 -1.8751  2.1885
  353MOL0     H47641   4.108   3.588   2.409  0.0250  1.7197  1.1156
  353MOL0     H47642   4.193   3.818   2.440 -1.1261  1.6829 -1.6479
  353MOL0     H47643   4.517   4.147   2.498 -0.9202  1.0773  0.1136
  353MOL0     H47644   4.520   4.389   2.552 -2.7916  0.1246  0.8405
  353MOL0     H47645   4.318   4.593   2.582  1.3459  0.3611  0.4335
  353MOL0     H47646   4.501   4.612   2.556 -0.0511 -5.1924 -1.6959
  353MOL0     H47647   4.279   4.798   2.446 -0.2150 -0.1301  0.0908
  353MOL0     H47648   4.456   4.827   2.447  0.3767 -2.5859 -1.6511
  353MOL0     H47649   4.447   4.858   2.677  1.6880 -2.7852 -1.7457
  353MOL0     H47650   4.288   4.803   2.702  0.6529  2.0832  2.2323
  353MOL0     H47651   4.342   5.064   2.559 -0.4290  2.1411  1.2327
  353MOL0     H47652   4.290   5.024   2.724  0.5272  3.4955  0.1916
  353MOL0     H47653   3.966   5.041   2.442  0.5081  1.7929  1.3327
  353MOL0     H47654   4.240   4.451   2.224  0.4264 -2.6081 -3.0620
  353MOL0     H47655   4.225   4.218   2.202 -0.6842  0.5181  1.5632
  354MOL0     O47656   6.854   2.173   8.533 -0.0089 -0.4350 -0.4170
  354MOL0     C47657   6.731   2.195   8.550  0.0576 -1.3557  0.3327
  354MOL0     O47658   6.632   2.120   8.612  0.3706 -0.2820 -0.1211
  354MOL0     C47659   6.680   2.008   8.663 -1.0679 -0.9886 -0.4960
  354MOL0     C47660   6.747   2.008   8.785  0.2185 -0.3142  0.0199
  354MOL0     C47661   6.785   1.890   8.854  0.0289 -0.0600 -0.4429
  354MOL0     C47662   6.785   1.763   8.788  0.4073 -0.9263  1.0764
  354MOL0     O47663   6.830   1.649   8.854  0.2348 -0.1273  1.3832
  354MOL0     C47664   6.914   1.564   8.765 -0.7828 -0.1825 -0.1547
  354MOL0     C47665   7.029   1.517   8.866 -0.6268  0.3274  0.1078
  354MOL0     C47666   7.138   1.442   8.784 -0.2520  0.5355 -0.1767
  354MOL0     C47667   7.252   1.406   8.875 -0.0827 -0.1273 -0.1309
  354MOL0     C47668   7.364   1.325   8.811 -0.0056 -0.6356  0.2458
  354MOL0     C47669   7.431   1.404   8.690  0.4812  0.4080 -0.4447
  354MOL0     C47670   7.566   1.340   8.644  0.5150 -0.2223 -0.3369
  354MOL0     C47671   7.566   1.186   8.620  0.2794  0.3970 -0.6419
  354MOL0     N47672   7.705   1.146   8.596  0.0188  0.5254 -0.3449
  354MOL0     C47673   7.799   1.141   8.698 -0.7375 -0.8638  0.0346
  354MOL0     C47674   7.910   1.095   8.636  0.0183 -0.5451  0.3765
  354MOL0     C47675   8.031   1.047   8.711  0.9718 -0.7572 -0.6243
  354MOL0     C47676   8.008   0.922   8.792 -0.3719  0.4330  0.2221
  354MOL0     C47677   8.118   0.912   8.898 -0.1236 -0.0498 -0.9933
  354MOL0     C47678   8.259   0.917   8.844  0.0082  0.3428  0.0159
  354MOL0     O47679   8.360   0.884   8.940  0.4606 -0.2606 -0.0617
  354MOL0     C47680   8.424   0.996   8.999 -0.0113  0.7404  0.5677
  354MOL0     C47681   8.363   1.111   9.047  0.1134  0.4654 -0.4134
  354MOL0     C47682   8.433   1.221   9.097  0.2245 -0.2792 -0.3932
  354MOL0     C47683   8.347   1.347   9.132 -0.5178 -0.1698  1.2189
  354MOL0     C47684   8.576   1.203   9.121  0.8518  0.0439  0.3114
  354MOL0     C47685   8.659   1.319   9.166 -0.8572  0.9583  0.6003
  354MOL0     O47686   8.799   1.306   9.149 -0.0051 -0.0337  0.0880
  354MOL0     C47687   8.887   1.381   9.211 -1.5066 -0.2433  0.9565
  354MOL0     C47688   8.886   1.515   9.177 -0.3812  0.5300  0.5934
  354MOL0     C47689   8.996   1.598   9.220  0.1725  0.2859  0.0588
  354MOL0     C47690   9.104   1.542   9.295 -0.3319 -0.4167  0.0387
  354MOL0     O47691   9.196   1.637   9.332  0.6255 -0.0842 -0.2807
  354MOL0     C47692   9.337   1.587   9.331  0.2083  0.6146  0.3136
  354MOL0     C47693   9.389   1.573   9.189 -0.0439  0.3006  0.2981
  354MOL0     C47694   9.447   1.435   9.162 -0.4321  0.0880 -0.4772
  354MOL0     C47695   9.594   1.434   9.235 -0.1076  0.0948 -0.1805
  354MOL0     C47696   9.663   1.310   9.243  0.5072  0.9733  0.6184
  354MOL0     C47697   9.584   1.208   9.333  0.1579 -0.2281 -0.6109
  354MOL0     C47698   9.670   1.100   9.378 -0.4761  0.1181 -0.0579
  354MOL0     C47699   9.590   1.001   9.466  0.4794 -0.3518  0.3333
  354MOL0    Cl47700   9.563   1.075   9.618 -0.2431 -0.4191 -0.3567
  354MOL0     C47701   9.104   1.405   9.330 -0.2161  0.6278  0.4966
  354MOL0     C47702   8.993   1.326   9.292 -0.0393  0.3704 -0.3416
  354MOL0     O47703   8.607   1.416   9.224  0.9986 -1.2314 -0.0610
  354MOL0     C47704   8.633   1.088   9.070 -0.3698  0.3629  1.1381
  354MOL0     C47705   8.561   0.993   9.004 -0.0676 -0.2369 -0.2231
  354MOL0     N47706   7.889   1.087   8.495 -0.0879 -0.3468  0.7614
  354MOL0     N47707   7.763   1.124   8.475  0.2690  0.7599 -0.3103
  354MOL0     C47708   6.721   1.761   8.659 -0.0180 -0.3278  0.3824
  354MOL0     C47709   6.672   1.884   8.602 -0.1418  0.1097 -0.5358
  354MOL0     C47710   6.672   2.311   8.480 -0.0582 -0.1719 -0.4200
  354MOL0     C47711   6.553   2.363   8.519 -0.4541  0.0250 -0.5551
  354MOL0     C47712   6.506   2.482   8.464 -0.0655 -0.1568 -0.8101
  354MOL0     C47713   6.584   2.559   8.384 -0.7829  0.2834 -0.0273
  354MOL0     O47714   6.560   2.683   8.333 -0.3690  0.0436 -0.0699
  354MOL0     C47715   6.444   2.750   8.384 -0.1541  0.6238  0.1221
  354MOL0     C47716   6.463   2.900   8.342  0.2565 -0.0721 -0.2811
  354MOL0     C47717   6.408   2.937   8.209  0.3815  0.3129 -0.2518
  354MOL0     C47718   6.504   2.926   8.092  0.3717  0.5717 -0.0658
  354MOL0     C47719   6.426   2.923   7.964 -0.2106 -0.3228  0.3920
  354MOL0     C47720   6.374   2.919   7.858  0.0991  0.2761  0.5452
  354MOL0     C47721   6.716   2.514   8.348  0.4265  0.0578 -0.3889
  354MOL0     C47722   6.753   2.392   8.407  0.2152 -0.4299  1.3771
  354MOL0     H47723   6.750   2.105   8.834 -0.1649 -0.9918  1.4284
  354MOL0     H47724   6.834   1.893   8.950 -1.6688  1.3001  0.4440
  354MOL0     H47725   6.859   1.480   8.723 -3.5644  0.4612  1.8940
  354MOL0     H47726   6.951   1.625   8.681 -3.3013  0.5587 -0.8121
  354MOL0     H47727   7.070   1.607   8.912 -1.8045  2.7242 -3.1692
  354MOL0     H47728   6.993   1.449   8.944  2.5613 -1.6660  0.0165
  354MOL0     H47729   7.097   1.352   8.737 -0.5811 -0.1207  1.3241
  354MOL0     H47730   7.180   1.497   8.699 -0.3809 -0.1041 -0.6614
  354MOL0     H47731   7.280   1.503   8.916 -0.0342 -0.2743  0.1870
  354MOL0     H47732   7.212   1.340   8.953  0.3946 -1.0415 -0.6443
  354MOL0     H47733   7.435   1.298   8.889 -0.0329 -1.2692  0.0575
  354MOL0     H47734   7.322   1.232   8.772 -1.1151  0.1823 -0.5574
  354MOL0     H47735   7.375   1.398   8.596 -3.2924 -0.1283  1.6322
  354MOL0     H47736   7.458   1.508   8.712  0.2014 -0.0859  2.6624
  354MOL0     H47737   7.603   1.385   8.552  3.4057 -1.5593  0.0574
  354MOL0     H47738   7.631   1.376   8.724 -0.1090  0.3955 -0.0902
  354MOL0     H47739   7.500   1.156   8.538  0.5435 -0.8900 -0.4161
  354MOL0     H47740   7.530   1.147   8.716  0.7475 -0.3888 -0.7733
  354MOL0     H47741   7.800   1.150   8.806 -2.8579  0.6976 -0.0080
  354MOL0     H47742   8.117   1.040   8.644 -0.5413  1.0413 -2.8909
  354MOL0     H47743   8.059   1.127   8.780 -2.6143 -1.3802  1.8563
  354MOL0     H47744   8.006   0.835   8.725  1.0277  0.4264  0.1685
  354MOL0     H47745   7.913   0.939   8.844  1.0795  0.7141  3.0057
  354MOL0     H47746   8.104   0.822   8.959  0.6256  1.0166  0.8202
  354MOL0     H47747   8.107   1.002   8.958  0.2546 -0.1125 -0.8270
  354MOL0     H47748   8.284   1.013   8.797  1.7491  2.1839  4.1540
  354MOL0     H47749   8.252   0.842   8.765 -1.5388 -0.4684  0.8758
  354MOL0     H47750   8.255   1.121   9.044  0.2958  2.6929 -2.6383
  354MOL0     H47751   8.344   1.353   9.242  1.8664 -0.5126  1.3582
  354MOL0     H47752   8.374   1.432   9.069 -1.7015 -2.1719 -2.2162
  354MOL0     H47753   8.243   1.333   9.101  0.0541  0.5876 -1.2528
  354MOL0     H47754   8.798   1.549   9.122 -2.5642 -3.6186  1.1566
  354MOL0     H47755   9.013   1.702   9.193  1.7803 -0.2055 -0.9699
  354MOL0     H47756   9.402   1.664   9.374 -2.1347  2.0279  1.5341
  354MOL0     H47757   9.355   1.498   9.392  0.6296 -1.3685 -2.5300
  354MOL0     H47758   9.303   1.606   9.130  0.3574  0.2786 -0.3066
  354MOL0     H47759   9.463   1.653   9.190  0.1657  0.1044  1.2218
  354MOL0     H47760   9.470   1.432   9.055  2.2816  5.4748 -0.4132
  354MOL0     H47761   9.383   1.350   9.187 -1.5792  0.6023 -1.5984
  354MOL0     H47762   9.661   1.505   9.186  2.9306 -3.8838 -2.3652
  354MOL0     H47763   9.572   1.473   9.334 -0.6455 -1.0994  0.1922
  354MOL0     H47764   9.769   1.325   9.265  1.0063 -0.3666 -0.7053
  354MOL0     H47765   9.660   1.259   9.147 -2.1184 -2.4680  2.3039
  354MOL0     H47766   9.535   1.269   9.411 -0.3518 -1.2201 -0.1389
  354MOL0     H47767   9.513   1.158   9.267  0.1411  1.0769 -1.6247
  354MOL0     H47768   9.751   1.146   9.436  1.7199 -1.1988 -1.9040
  354MOL0     H47769   9.719   1.057   9.290  3.0139  2.7397  0.4040
  354MOL0     H47770   9.668   0.929   9.493  1.6784  0.5345 -0.6366
  354MOL0     H47771   9.494   0.966   9.428 -1.3709  1.5963  2.9063
  354MOL0     H47772   9.181   1.370   9.399 -0.2923  0.5432  0.5399
  354MOL0     H47773   8.991   1.222   9.323 -1.9946  0.5298  0.1770
  354MOL0     H47774   8.742   1.084   9.064 -0.3669 -0.7925  1.6253
  354MOL0     H47775   8.603   0.907   8.953 -1.2941 -0.0998 -1.5281
  354MOL0     H47776   6.703   1.677   8.592 -2.7470  1.3087 -1.1049
  354MOL0     H47777   6.639   1.891   8.499  1.2496  0.4905 -0.9762
  354MOL0     H47778   6.488   2.318   8.593  2.4214  0.4812  2.4881
  354MOL0     H47779   6.410   2.514   8.502 -0.4437 -3.1201  1.0900
  354MOL0     H47780   6.358   2.696   8.342  1.3124  0.7867 -3.4332
  354MOL0     H47781   6.446   2.747   8.493 -2.1902  0.7315  0.2147
  354MOL0     H47782   6.568   2.929   8.338 -0.0345  1.0862  0.1398
  354MOL0     H47783   6.411   2.956   8.421  1.1960 -1.1794  1.1738
  354MOL0     H47784   6.368   3.038   8.195  0.3211  0.1374 -1.3646
  354MOL0     H47785   6.323   2.870   8.196 -0.9420  1.3208  2.3668
  354MOL0     H47786   6.574   2.845   8.111  0.2216  0.1833 -1.0753
  354MOL0     H47787   6.564   3.017   8.103 -0.2685  1.0083 -0.1324
  354MOL0     H47788   6.330   2.926   7.760  0.4652 -0.7199  0.2998
  354MOL0     H47789   6.786   2.557   8.277  2.4437 -0.6903  1.0464
  354MOL0     H47790   6.852   2.352   8.388 -0.1265 -0.9924  0.7565
  355MOL0     O47791  10.847   0.867   8.182  0.5646  0.3260 -0.5178
  355MOL0     C47792  10.826   0.761   8.245 -0.0443 -1.2796  0.9810
  355MOL0     O47793  10.793   0.750   8.383 -0.3695 -0.2598 -0.2249
  355MOL0     C47794  10.789   0.864   8.455 -0.4826  0.2057 -1.3472
  355MOL0     C47795  10.672   0.899   8.523 -0.2229  1.0656  0.6806
  355MOL0     C47796  10.673   1.010   8.603 -0.0005 -0.2224 -0.2167
  355MOL0     C47797  10.781   1.092   8.607 -0.0572 -0.3832 -0.6668
  355MOL0     O47798  10.757   1.214   8.667 -0.3672  0.7212 -0.1376
  355MOL0     C47799  10.815   1.330   8.611 -0.2210 -0.4068  0.4380
  355MOL0     C47800  10.880   1.429   8.716 -0.0620  0.8614  0.0118
  355MOL0     C47801  11.002   1.356   8.785  0.2127 -0.6118 -0.1497
  355MOL0     C47802  11.073   1.445   8.891  0.0188 -0.5990 -1.3610
  355MOL0     C47803  11.162   1.358   8.979  0.4615 -0.3660  0.5221
  355MOL0     C47804  11.103   1.274   9.101 -0.1553  0.4334  0.3582
  355MOL0     C47805  11.212   1.173   9.156  0.4760 -0.3597  0.0499
  355MOL0     C47806  11.206   1.161   9.309  0.2089 -0.8939 -0.5458
  355MOL0     N47807  11.103   1.070   9.367  1.3397 -0.0460 -0.4418
  355MOL0     C47808  10.967   1.103   9.387  0.5845 -0.3175  0.2850
  355MOL0     C47809  10.912   0.991   9.442  1.4384  0.8326  0.3699
  355MOL0     C47810  10.763   0.980   9.508 -0.7583  0.6921  0.9837
  355MOL0     C47811  10.685   0.861   9.452  0.1045 -0.0297  0.1630
  355MOL0     C47812  10.586   0.813   9.556 -0.0600  0.6871  0.2037
  355MOL0     C47813  10.478   0.718   9.499 -0.1546  0.5010 -0.3736
  355MOL0     O47814  10.406   0.791   9.399  0.7164  0.3492 -0.5061
  355MOL0     C47815  10.276   0.743   9.369  0.2424  0.0597 -0.0903
  355MOL0     C47816  10.180   0.836   9.324  0.1410 -0.4494 -0.2019
  355MOL0     C47817  10.048   0.791   9.277 -0.0108  0.2217  0.1688
  355MOL0     C47818   9.947   0.886   9.224  0.3528 -0.1428  0.9709
  355MOL0     C47819  10.023   0.649   9.284 -0.4082 -0.3257 -0.2650
  355MOL0     C47820   9.895   0.583   9.253 -0.0987 -0.6124  0.1550
  355MOL0     O47821   9.873   0.542   9.127  0.6361 -0.0497  0.1142
  355MOL0     C47822   9.982   0.515   9.051 -0.0882  0.3373 -1.4930
  355MOL0     C47823   9.994   0.593   8.942 -1.3598 -0.7233  0.2312
  355MOL0     C47824  10.083   0.571   8.836 -0.0435  0.3563  0.2424
  355MOL0     C47825  10.157   0.451   8.842  0.0601 -0.0193 -0.4159
  355MOL0     O47826  10.249   0.415   8.744  0.1131 -0.4974 -0.2548
  355MOL0     C47827  10.283   0.510   8.640  0.7406 -1.2926 -0.5664
  355MOL0     C47828  10.401   0.462   8.558  0.3370 -0.6680 -0.5221
  355MOL0     C47829  10.377   0.318   8.505 -0.5742 -0.3162  0.5426
  355MOL0     C47830  10.483   0.264   8.407  0.1532  0.1234  0.0102
  355MOL0     C47831  10.557   0.127   8.450  0.4605  0.6334 -0.6653
  355MOL0     C47832  10.677   0.147   8.542 -1.1449  0.1563  0.5823
  355MOL0     C47833  10.650   0.178   8.692 -0.9730 -0.2711  0.7175
  355MOL0     C47834  10.593   0.058   8.763 -0.7021 -0.6878 -0.0828
  355MOL0    Cl47835  10.565   0.139   8.918 -0.4497 -0.0669  0.0163
  355MOL0     C47836  10.145   0.377   8.957  0.0862 -0.1454  1.1932
  355MOL0     C47837  10.067   0.403   9.059 -0.3275 -0.5466 -0.4082
  355MOL0     O47838   9.805   0.591   9.344 -0.3338  0.0514  0.0543
  355MOL0     C47839  10.113   0.563   9.337  0.1050  0.3382 -0.5697
  355MOL0     C47840  10.239   0.608   9.380 -0.9037 -0.1509  0.1205
  355MOL0     N47841  11.010   0.892   9.448 -0.2803 -0.3463  0.1893
  355MOL0     N47842  11.127   0.938   9.408 -0.0700  0.7153 -0.1593
  355MOL0     C47843  10.900   1.051   8.541  0.3421 -0.6588 -0.2022
  355MOL0     C47844  10.911   0.932   8.472  0.0009 -0.1649  0.0501
  355MOL0     C47845  10.830   0.631   8.168  0.9732  0.5048  0.5948
  355MOL0     C47846  10.779   0.513   8.228 -0.1141 -0.5745 -1.1459
  355MOL0     C47847  10.771   0.398   8.159 -0.3110 -0.4563 -0.6323
  355MOL0     C47848  10.816   0.391   8.028 -0.0456 -0.3077  0.2811
  355MOL0     O47849  10.800   0.276   7.965 -0.3371  0.0463  0.2936
  355MOL0     C47850  10.884   0.171   8.009  0.0936 -0.3496  0.5609
  355MOL0     C47851  11.029   0.199   7.982 -1.4301 -0.5004  0.3365
  355MOL0     C47852  11.076   0.239   7.843  0.5518 -0.1751  0.9484
  355MOL0     C47853  11.215   0.185   7.804 -0.9663 -0.0630 -0.6860
  355MOL0     C47854  11.214   0.042   7.787  1.0280  0.7487  0.2987
  355MOL0     C47855  11.197  -0.076   7.767  0.2977  0.2701 -0.6483
  355MOL0     C47856  10.864   0.504   7.967  0.1853 -1.0521  0.1870
  355MOL0     C47857  10.874   0.630   8.032 -0.4065  0.0276 -0.3318
  355MOL0     H47858  10.590   0.830   8.504  2.0437 -2.6260  3.0686
  355MOL0     H47859  10.586   1.030   8.665 -0.7749  0.8976 -1.6213
  355MOL0     H47860  10.897   1.308   8.542 -0.9082  1.0602 -0.9079
  355MOL0     H47861  10.736   1.382   8.555 -0.6269 -1.1433  0.3113
  355MOL0     H47862  10.933   1.510   8.664  0.3488 -0.1454 -1.1957
  355MOL0     H47863  10.812   1.464   8.795  2.8284  1.1865  2.5610
  355MOL0     H47864  10.955   1.272   8.838 -2.9115  2.4053  2.3444
  355MOL0     H47865  11.077   1.319   8.714 -1.2415 -3.3680 -0.3871
  355MOL0     H47866  11.125   1.527   8.840 -1.2017  1.8225  1.0115
  355MOL0     H47867  11.004   1.503   8.953  1.7436 -1.3145  1.3722
  355MOL0     H47868  11.198   1.279   8.912  1.6849 -1.3850  2.2938
  355MOL0     H47869  11.250   1.416   9.010 -0.7697  0.1572  3.3027
  355MOL0     H47870  11.057   1.343   9.173 -1.1455  0.8012 -0.5992
  355MOL0     H47871  11.013   1.224   9.064 -2.7708  3.0370  2.6323
  355MOL0     H47872  11.213   1.072   9.114 -2.2339 -0.8551  0.9872
  355MOL0     H47873  11.310   1.211   9.128 -0.3286  2.1668  0.4093
  355MOL0     H47874  11.181   1.258   9.352 -0.2754  0.0261 -2.7663
  355MOL0     H47875  11.304   1.133   9.347  0.2079  1.4351  1.4078
  355MOL0     H47876  10.919   1.199   9.368 -0.4961 -1.4467 -3.4325
  355MOL0     H47877  10.778   0.954   9.613 -2.3000  1.0831  1.3290
  355MOL0     H47878  10.718   1.079   9.501 -1.5263  0.3167  0.3622
  355MOL0     H47879  10.739   0.771   9.422 -1.9696 -1.7118  1.1879
  355MOL0     H47880  10.624   0.889   9.366  0.6042  0.0579 -0.1631
  355MOL0     H47881  10.535   0.901   9.595 -2.6115  0.3038 -1.9867
  355MOL0     H47882  10.631   0.761   9.641  0.2270 -1.9518 -1.4554
  355MOL0     H47883  10.414   0.686   9.582  1.3285  0.8527  0.9418
  355MOL0     H47884  10.530   0.631   9.457  0.9029  0.9127  0.0487
  355MOL0     H47885  10.204   0.941   9.335 -0.0577 -0.4809  0.5916
  355MOL0     H47886   9.851   0.841   9.199 -0.7066  3.2534 -1.8926
  355MOL0     H47887   9.928   0.966   9.296  0.2247  0.5910  0.1282
  355MOL0     H47888   9.992   0.927   9.133  1.9444  1.4176  2.3882
  355MOL0     H47889   9.936   0.681   8.917  0.4921 -0.5332 -4.3441
  355MOL0     H47890  10.092   0.634   8.748 -0.8405 -0.4278 -0.4167
  355MOL0     H47891  10.184   0.516   8.594 -0.6661 -0.2460  2.3958
  355MOL0     H47892  10.309   0.609   8.677  2.0921 -1.7012 -0.3603
  355MOL0     H47893  10.426   0.524   8.471  1.3414  2.3746  1.7535
  355MOL0     H47894  10.488   0.457   8.624 -0.3543  0.7567  0.5575
  355MOL0     H47895  10.284   0.310   8.448  0.2702 -1.3657 -0.7514
  355MOL0     H47896  10.371   0.249   8.590  0.4628 -0.1433  0.7694
  355MOL0     H47897  10.444   0.257   8.305 -0.0697  0.0667  0.0981
  355MOL0     H47898  10.563   0.337   8.394  2.3316 -1.7624  1.8376
  355MOL0     H47899  10.587   0.074   8.359 -0.3807  0.2507 -0.7252
  355MOL0     H47900  10.477   0.069   8.495  1.5589 -0.1597  0.2978
  355MOL0     H47901  10.736   0.056   8.535 -1.5984 -0.0992 -0.1145
  355MOL0     H47902  10.735   0.230   8.500 -0.7796 -0.5258 -0.2815
  355MOL0     H47903  10.580   0.262   8.691 -0.1624  0.4214  1.2558
  355MOL0     H47904  10.753   0.198   8.724 -0.2890 -1.5223 -0.5653
  355MOL0     H47905  10.671  -0.019   8.757  3.2347  2.8713  0.7568
  355MOL0     H47906  10.495   0.025   8.726 -1.6293 -0.0430  1.7308
  355MOL0     H47907  10.211   0.291   8.953  1.3519  0.8381 -0.7072
  355MOL0     H47908  10.074   0.356   9.157  1.1646  2.8586  1.3130
  355MOL0     H47909  10.081   0.463   9.364 -0.9524  1.0756  1.0325
  355MOL0     H47910  10.307   0.528   9.408 -2.2373 -0.6308  2.1742
  355MOL0     H47911  10.987   1.114   8.557 -1.2630  1.2851  1.3898
  355MOL0     H47912  11.006   0.901   8.429  1.6107  2.9264  1.1070
  355MOL0     H47913  10.752   0.507   8.333 -0.4781  1.0262 -1.1204
  355MOL0     H47914  10.739   0.311   8.214  1.3575 -0.5902  0.1981
  355MOL0     H47915  10.872   0.136   8.112  0.0568  0.6770  0.9195
  355MOL0     H47916  10.864   0.088   7.941  1.0734  0.4422 -0.7433
  355MOL0     H47917  11.081   0.107   8.009 -1.7908 -1.5416 -2.2395
  355MOL0     H47918  11.061   0.275   8.054 -2.6882 -1.5372  2.0744
  355MOL0     H47919  11.078   0.349   7.846  0.5008 -0.1884  2.9526
  355MOL0     H47920  11.005   0.205   7.768  0.6901  0.4736  0.5108
  355MOL0     H47921  11.284   0.207   7.886 -4.4956  3.2214  1.7092
  355MOL0     H47922  11.239   0.241   7.713 -2.2416  0.3889 -0.7613
  355MOL0     H47923  11.167  -0.177   7.750  1.1658 -0.4254  1.5769
  355MOL0     H47924  10.913   0.480   7.873 -1.3840 -1.9596 -0.4403
  355MOL0     H47925  10.916   0.717   7.983  3.9088 -1.2832  0.6688
  356MOL0     O47926   2.381   6.687   8.963 -0.1174 -0.1803  0.1088
  356MOL0     C47927   2.476   6.609   8.984  0.9946 -0.8772 -0.2047
  356MOL0     O47928   2.475   6.488   9.034  0.1047  0.5527 -0.1133
  356MOL0     C47929   2.356   6.424   9.080  0.9231 -0.0806 -0.5420
  356MOL0     C47930   2.370   6.297   9.136  0.2937  0.4490  0.3000
  356MOL0     C47931   2.264   6.234   9.216  0.0747  0.4799 -0.4032
  356MOL0     C47932   2.142   6.289   9.220  0.0611 -0.3982 -0.3144
  356MOL0     O47933   2.027   6.226   9.261 -0.3731  0.3664  0.6046
  356MOL0     C47934   2.012   6.085   9.239 -0.6019 -0.8018  0.3590
  356MOL0     C47935   1.864   6.044   9.241  0.5042 -0.5918 -0.5958
  356MOL0     C47936   1.786   6.095   9.366  0.6174 -0.4934 -0.2998
  356MOL0     C47937   1.635   6.062   9.367 -1.5731  0.0204 -0.1851
  356MOL0     C47938   1.598   5.940   9.453  0.4791 -0.2079 -0.4491
  356MOL0     C47939   1.441   5.929   9.440  0.3446  0.4491 -0.4137
  356MOL0     C47940   1.406   5.792   9.507  0.4978 -0.2806  0.1828
  356MOL0     C47941   1.253   5.774   9.505 -0.9815 -1.3381 -0.0162
  356MOL0     N47942   1.175   5.880   9.562 -0.6850 -0.7190 -0.3016
  356MOL0     C47943   1.178   5.913   9.696 -0.7549 -0.9229 -0.1995
  356MOL0     C47944   1.064   5.979   9.708 -0.6917 -0.8562 -0.3868
  356MOL0     C47945   1.008   6.048   9.832 -0.8407  0.0517  1.1120
  356MOL0     C47946   1.113   6.137   9.895  0.2754  0.3741  0.0289
  356MOL0     C47947   1.162   6.251   9.797  0.6307 -0.4570  0.1418
  356MOL0     C47948   1.309   6.237   9.760 -0.2243 -0.9804  0.1794
  356MOL0     O47949   1.360   6.362   9.703 -0.5780 -0.0093 -0.4938
  356MOL0     C47950   1.393   6.353   9.570 -0.6069  0.3993  0.1585
  356MOL0     C47951   1.303   6.299   9.465 -0.2395 -0.5157 -1.1773
  356MOL0     C47952   1.339   6.294   9.337 -0.5828 -0.9917  0.4120
  356MOL0     C47953   1.225   6.251   9.243  0.0914  1.0114 -0.6887
  356MOL0     C47954   1.460   6.358   9.290 -0.2707  1.1251 -0.3321
  356MOL0     C47955   1.520   6.339   9.157  0.1465  1.2774  0.8734
  356MOL0     O47956   1.650   6.369   9.132  0.1879 -0.5999 -0.4215
  356MOL0     C47957   1.697   6.407   9.010 -0.2879 -0.5981  0.1297
  356MOL0     C47958   1.807   6.348   8.946  0.4717 -0.1851  0.4812
  356MOL0     C47959   1.853   6.400   8.829 -0.0691 -0.3323  0.3172
  356MOL0     C47960   1.797   6.513   8.769  0.3016  0.2006  0.1110
  356MOL0     O47961   1.842   6.532   8.644 -0.3877  0.1856 -0.0189
  356MOL0     C47962   1.777   6.628   8.566 -0.9113  1.5931  0.2772
  356MOL0     C47963   1.852   6.661   8.440  0.6233  0.3282  0.7600
  356MOL0     C47964   1.869   6.537   8.349 -0.8521 -0.6634  0.0198
  356MOL0     C47965   1.963   6.428   8.378 -0.3760  0.1125 -0.5162
  356MOL0     C47966   1.986   6.334   8.257 -0.3630 -0.4180  0.1541
  356MOL0     C47967   2.124   6.253   8.264  1.2355  0.0611 -0.6726
  356MOL0     C47968   2.150   6.214   8.122  0.0350 -0.0670  0.1146
  356MOL0     C47969   2.278   6.132   8.111 -0.8075 -0.1859 -0.2621
  356MOL0    Cl47970   2.435   6.224   8.078 -0.1487  0.4872 -0.1014
  356MOL0     C47971   1.689   6.574   8.832 -0.0680  0.3311  1.2008
  356MOL0     C47972   1.635   6.516   8.947 -0.0259  0.5659 -0.7838
  356MOL0     O47973   1.452   6.278   9.072 -0.0566  0.7292  0.2466
  356MOL0     C47974   1.533   6.427   9.384  0.1984  0.2855 -0.6570
  356MOL0     C47975   1.508   6.413   9.519  0.5204  0.5002  0.3806
  356MOL0     N47976   0.997   5.991   9.583 -0.1566 -0.5507  0.4731
  356MOL0     N47977   1.060   5.926   9.502 -0.3546 -0.1568  0.6161
  356MOL0     C47978   2.118   6.408   9.150 -0.1993  0.3111  1.5283
  356MOL0     C47979   2.219   6.479   9.082 -0.8736  1.1275  0.3118
  356MOL0     C47980   2.610   6.668   8.942  0.1957  0.8013 -0.3381
  356MOL0     C47981   2.626   6.771   8.849  1.0350 -0.0296  0.0028
  356MOL0     C47982   2.753   6.819   8.810  0.4143 -0.4315 -0.1095
  356MOL0     C47983   2.871   6.767   8.865 -0.4875  0.1304  0.3158
  356MOL0     O47984   3.000   6.806   8.821 -0.0414  0.6251 -0.4479
  356MOL0     C47985   3.009   6.907   8.728 -0.9459 -0.1905 -0.4207
  356MOL0     C47986   2.998   7.046   8.797  0.4480  0.2688 -0.6389
  356MOL0     C47987   2.998   7.166   8.699 -0.7675 -0.5757  0.3696
  356MOL0     C47988   2.851   7.208   8.662 -0.0567  0.8006 -0.2633
  356MOL0     C47989   2.755   7.226   8.771  0.5242  0.1168 -0.2335
  356MOL0     C47990   2.682   7.219   8.868 -0.2233  0.1491 -0.0440
  356MOL0     C47991   2.849   6.667   8.964 -0.1520  0.2420 -0.2573
  356MOL0     C47992   2.725   6.613   9.000  0.6575 -0.6013  0.5761
  356MOL0     H47993   2.461   6.238   9.128  1.1531  1.2315  3.3296
  356MOL0     H47994   2.275   6.138   9.267 -1.8183  0.6499  0.4356
  356MOL0     H47995   2.038   6.052   9.138  2.5890 -1.8009  1.3757
  356MOL0     H47996   2.068   6.027   9.313  1.5405 -1.7531 -1.8583
  356MOL0     H47997   1.820   6.101   9.159 -2.4185 -0.2765  1.0651
  356MOL0     H47998   1.851   5.938   9.216  0.6158 -0.1737 -2.6039
  356MOL0     H47999   1.833   6.046   9.452  3.1118  0.9984 -0.7015
  356MOL0     H48000   1.803   6.202   9.381  1.3220 -0.7996  1.2497
  356MOL0     H48001   1.578   6.151   9.396 -1.3862  0.4243 -1.0154
  356MOL0     H48002   1.610   6.057   9.261  0.6342  0.5421 -0.7759
  356MOL0     H48003   1.653   5.851   9.421  1.6267  0.0866  0.6232
  356MOL0     H48004   1.624   5.958   9.557  0.9851 -2.7310 -0.0846
  356MOL0     H48005   1.393   6.018   9.481 -0.0219  0.5596 -1.0741
  356MOL0     H48006   1.413   5.923   9.334 -1.2573  0.6233 -0.0223
  356MOL0     H48007   1.463   5.715   9.454  4.2457  2.6032 -0.4106
  356MOL0     H48008   1.447   5.788   9.608 -2.4164 -1.1461  1.4233
  356MOL0     H48009   1.228   5.677   9.549  0.5868 -2.8059 -2.1410
  356MOL0     H48010   1.227   5.771   9.399  1.4144  0.7834 -0.7739
  356MOL0     H48011   1.244   5.904   9.781 -2.4083 -2.6594  0.9843
  356MOL0     H48012   0.919   6.103   9.799 -0.9110 -1.3958 -1.2840
  356MOL0     H48013   0.990   5.967   9.904 -3.0245 -2.2800 -1.8141
  356MOL0     H48014   1.188   6.067   9.933 -0.9944  0.1444  2.2742
  356MOL0     H48015   1.064   6.187   9.979  0.8139  1.3352 -0.2186
  356MOL0     H48016   1.149   6.348   9.847 -1.6051 -0.4267 -0.4093
  356MOL0     H48017   1.103   6.257   9.705  1.0692 -0.9581 -0.1743
  356MOL0     H48018   1.316   6.153   9.691  3.9238  0.9339 -2.1289
  356MOL0     H48019   1.378   6.206   9.838 -0.1760 -3.1934 -0.6606
  356MOL0     H48020   1.202   6.278   9.499 -0.0973  0.8738  0.1992
  356MOL0     H48021   1.244   6.164   9.180 -2.2610 -1.2319  1.4707
  356MOL0     H48022   1.147   6.201   9.300  0.5961 -1.1368 -1.7909
  356MOL0     H48023   1.192   6.333   9.179  0.6826  2.5005  0.8191
  356MOL0     H48024   1.858   6.271   9.004  1.2121  2.3418  3.5093
  356MOL0     H48025   1.939   6.356   8.779 -0.6340  1.2548 -2.2943
  356MOL0     H48026   1.680   6.591   8.531  0.2022 -0.0454 -1.2849
  356MOL0     H48027   1.767   6.726   8.612  1.0537  3.4042 -2.8396
  356MOL0     H48028   1.799   6.735   8.380  0.1080  0.2496  1.1121
  356MOL0     H48029   1.949   6.705   8.466 -0.4458  1.7179  2.5951
  356MOL0     H48030   1.880   6.582   8.250  0.9500 -1.7730 -0.3388
  356MOL0     H48031   1.774   6.484   8.346 -0.9175 -0.6798  1.5626
  356MOL0     H48032   2.056   6.484   8.391 -1.6674  2.2352  0.2096
  356MOL0     H48033   1.931   6.370   8.465 -4.1298  1.6906 -0.6602
  356MOL0     H48034   1.981   6.390   8.163  2.0006 -0.5196 -0.1138
  356MOL0     H48035   1.908   6.258   8.260 -2.7624  1.9029  0.9892
  356MOL0     H48036   2.202   6.324   8.294 -2.2457  3.2785  1.5459
  356MOL0     H48037   2.109   6.164   8.325  0.9550  1.6671  1.7197
  356MOL0     H48038   2.177   6.297   8.056  0.0830 -1.0615 -1.1377
  356MOL0     H48039   2.055   6.167   8.095 -1.8623  0.4970  4.8682
  356MOL0     H48040   2.252   6.076   8.020  0.1172  3.3420 -2.8972
  356MOL0     H48041   2.293   6.062   8.194 -2.4654 -1.2340 -0.8039
  356MOL0     H48042   1.640   6.664   8.797 -3.0135 -1.8693 -0.7813
  356MOL0     H48043   1.550   6.565   8.995 -0.9812 -2.0716  0.4409
  356MOL0     H48044   1.616   6.491   9.354  0.1446  0.8183  0.3020
  356MOL0     H48045   1.582   6.451   9.590 -1.2837 -0.0952  2.7087
  356MOL0     H48046   2.017   6.450   9.146  0.0125  1.2920  4.2668
  356MOL0     H48047   2.190   6.574   9.039  0.9315  1.7065  0.2817
  356MOL0     H48048   2.537   6.819   8.810  1.8655  0.4856 -1.3750
  356MOL0     H48049   2.747   6.908   8.748  0.6639  0.8044  1.5683
  356MOL0     H48050   3.109   6.892   8.685  0.6631  1.0225  2.5800
  356MOL0     H48051   2.942   6.906   8.642 -0.6572  1.9669 -0.7156
  356MOL0     H48052   3.081   7.059   8.867 -1.1027 -0.0608  1.3295
  356MOL0     H48053   2.923   7.036   8.875  1.3380 -0.2649  0.1717
  356MOL0     H48054   3.075   7.149   8.623  1.9964 -3.3975  3.4924
  356MOL0     H48055   3.041   7.250   8.754 -2.3798 -0.4578  1.4933
  356MOL0     H48056   2.806   7.149   8.581 -0.5433  1.2634 -0.3380
  356MOL0     H48057   2.856   7.308   8.618  2.8834  0.6502 -0.4372
  356MOL0     H48058   2.606   7.219   8.944 -1.7570  1.3701 -1.5006
  356MOL0     H48059   2.935   6.623   9.013 -0.8681 -2.6321 -1.3604
  356MOL0     H48060   2.721   6.536   9.076 -0.9810  0.8804  2.0596
  357MOL0     O48061   8.290  10.016   7.277 -1.0092  1.1037  0.7204
  357MOL0     C48062   8.254   9.916   7.339  0.4646  0.4989 -0.4297
  357MOL0     O48063   8.122   9.870   7.353 -0.3185 -0.2819  0.6207
  357MOL0     C48064   8.031   9.910   7.269 -0.1893  0.1208 -1.1203
  357MOL0     C48065   8.043   9.892   7.130  0.1983 -0.6786  0.5618
  357MOL0     C48066   7.944   9.926   7.039  0.8317  0.2694 -0.3693
  357MOL0     C48067   7.817   9.974   7.095 -0.0452 -0.2517 -0.5594
  357MOL0     O48068   7.718   9.990   6.994 -0.0368 -0.1821 -0.5801
  357MOL0     C48069   7.573  10.007   7.023 -0.1443 -0.4393  0.9399
  357MOL0     C48070   7.502  10.037   6.897 -0.5653  0.1491  0.1712
  357MOL0     C48071   7.352  10.062   6.923  0.5122  0.1077  0.7461
  357MOL0     C48072   7.279  10.089   6.790 -0.0558  0.3883 -1.2000
  357MOL0     C48073   7.136  10.091   6.823  0.4391 -0.0445 -0.4787
  357MOL0     C48074   7.048  10.150   6.704  0.8212 -0.0848  1.0142
  357MOL0     C48075   7.056  10.077   6.575  1.2886  0.8850  0.4291
  357MOL0     C48076   6.977   9.937   6.570 -0.1897 -0.2762  0.2904
  357MOL0     N48077   6.998   9.898   6.426  0.2811 -0.5583  0.2020
  357MOL0     C48078   6.906   9.928   6.326 -0.9450  0.5614 -0.0044
  357MOL0     C48079   6.936   9.850   6.221 -1.0238  0.8826 -0.2016
  357MOL0     C48080   6.850   9.846   6.096 -0.0610 -0.5879  0.3180
  357MOL0     C48081   6.882   9.730   6.004 -0.0687 -0.0697  0.3230
  357MOL0     C48082   6.793   9.602   6.035 -0.5642  0.1772 -0.2386
  357MOL0     C48083   6.817   9.479   5.949  0.4021 -0.1600  0.2148
  357MOL0     O48084   6.745   9.503   5.827  0.6346 -0.8077 -0.1562
  357MOL0     C48085   6.771   9.416   5.728 -0.0995 -0.5460  0.0108
  357MOL0     C48086   6.726   9.284   5.720 -0.3725 -0.3574 -0.8495
  357MOL0     C48087   6.756   9.205   5.606 -0.0032  0.2716 -0.5284
  357MOL0     C48088   6.705   9.067   5.603 -0.3019  0.4562  0.7120
  357MOL0     C48089   6.814   9.259   5.489 -0.1091  0.5457  0.1149
  357MOL0     C48090   6.850   9.190   5.360  0.1387  0.5028  0.7405
  357MOL0     O48091   6.947   9.242   5.281 -0.8973  0.0580 -0.0555
  357MOL0     C48092   6.951   9.194   5.157  0.2020  0.6923 -0.6506
  357MOL0     C48093   7.025   9.078   5.138 -0.4449  0.8357 -0.7642
  357MOL0     C48094   7.051   9.036   5.006  0.4888 -0.1319 -0.5630
  357MOL0     C48095   6.991   9.102   4.904 -0.0990  0.2835 -0.4651
  357MOL0     O48096   6.979   9.050   4.774 -0.0406 -0.3573  0.4203
  357MOL0     C48097   7.054   8.933   4.727  0.7406 -0.5142 -0.0273
  357MOL0     C48098   7.212   8.947   4.719 -0.2868 -0.1429  0.0282
  357MOL0     C48099   7.256   9.087   4.669 -0.3999 -0.0781 -0.4308
  357MOL0     C48100   7.194   9.134   4.535 -0.4748  0.7137 -0.2661
  357MOL0     C48101   7.184   9.287   4.531  0.3424  0.7443 -0.4931
  357MOL0     C48102   7.172   9.361   4.401  0.0269 -0.1992 -0.2325
  357MOL0     C48103   7.296   9.329   4.308  0.1895  0.0664 -0.3881
  357MOL0     C48104   7.423   9.414   4.349  0.0768  0.3019 -0.0460
  357MOL0    Cl48105   7.389   9.601   4.345 -0.0927  0.0021  0.6264
  357MOL0     C48106   6.933   9.224   4.922  0.7450 -0.3902 -0.0456
  357MOL0     C48107   6.904   9.269   5.050 -0.3918 -0.6315  0.5096
  357MOL0     O48108   6.786   9.093   5.331 -0.9805  0.4738 -0.0899
  357MOL0     C48109   6.864   9.387   5.507  0.1751 -0.2806  0.8983
  357MOL0     C48110   6.841   9.460   5.618  0.0825 -0.3888  0.0352
  357MOL0     N48111   7.052   9.784   6.246 -0.2932 -0.0823 -0.3915
  357MOL0     N48112   7.078   9.794   6.372 -0.1802 -0.3405 -0.1224
  357MOL0     C48113   7.806   9.994   7.231 -0.0334  0.3042  0.3098
  357MOL0     C48114   7.909   9.957   7.315  0.6507  0.5159 -0.4217
  357MOL0     C48115   8.368   9.844   7.403  0.0874 -0.3023 -0.9896
  357MOL0     C48116   8.338   9.729   7.479 -0.4198 -0.0809 -0.6318
  357MOL0     C48117   8.432   9.657   7.563 -0.0806 -0.0688  0.1524
  357MOL0     C48118   8.568   9.679   7.548  0.0309 -0.5898 -1.5736
  357MOL0     O48119   8.659   9.595   7.610  0.3501  0.1352 -0.5346
  357MOL0     C48120   8.798   9.605   7.583 -0.3213 -0.4186 -0.4547
  357MOL0     C48121   8.873   9.506   7.665 -0.2647  0.6453  0.0366
  357MOL0     C48122   8.934   9.577   7.799  0.1040  0.2617  0.6885
  357MOL0     C48123   9.023   9.475   7.870  0.2421 -0.1099 -0.2400
  357MOL0     C48124   9.156   9.465   7.808  0.5461  0.3051  0.0655
  357MOL0     C48125   9.269   9.468   7.761  0.4907  0.7308 -0.8309
  357MOL0     C48126   8.603   9.792   7.464 -0.5234 -0.1591 -0.5694
  357MOL0     C48127   8.504   9.877   7.401 -0.0262 -0.2580  0.4132
  357MOL0     H48128   8.140   9.864   7.091  0.7110  1.6389  0.0313
  357MOL0     H48129   7.954   9.908   6.932 -2.4649  2.1630 -1.1322
  357MOL0     H48130   7.538   9.909   7.057 -2.1258  0.3123  1.2287
  357MOL0     H48131   7.556  10.089   7.093  4.3390  2.0463 -0.5115
  357MOL0     H48132   7.554  10.129   6.868  1.5840 -1.0343  0.1024
  357MOL0     H48133   7.510   9.961   6.819 -0.7331  1.0020 -0.7007
  357MOL0     H48134   7.313   9.975   6.978  0.4205  0.2856  0.9634
  357MOL0     H48135   7.340  10.149   6.988  1.4986  2.6378 -2.2472
  357MOL0     H48136   7.314  10.189   6.762  3.9017  0.2144  2.2097
  357MOL0     H48137   7.298  10.009   6.718 -3.3198 -4.0665  2.3326
  357MOL0     H48138   7.102   9.989   6.840 -1.3902  0.4236 -1.0114
  357MOL0     H48139   7.110  10.152   6.910 -1.3486 -0.4066 -0.7147
  357MOL0     H48140   6.943  10.158   6.734  0.8321  2.5239  0.5253
  357MOL0     H48141   7.084  10.251   6.686  1.2538  0.0484  2.4915
  357MOL0     H48142   7.013  10.138   6.494 -1.3435 -1.7029 -0.2884
  357MOL0     H48143   7.160  10.054   6.550  0.6548 -2.3472  0.3088
  357MOL0     H48144   6.876   9.932   6.612 -0.2756 -3.3641 -0.0383
  357MOL0     H48145   7.028   9.872   6.641  1.3237  0.6254  0.0736
  357MOL0     H48146   6.820   9.994   6.323 -0.5982  0.9730 -1.9744
  357MOL0     H48147   6.744   9.836   6.120  0.1062  1.6348  2.3235
  357MOL0     H48148   6.854   9.945   6.050 -0.3305 -0.6705  0.1099
  357MOL0     H48149   6.985   9.695   6.008 -0.0851  0.0163  2.4974
  357MOL0     H48150   6.864   9.753   5.898 -0.4783  1.0719  0.6297
  357MOL0     H48151   6.693   9.646   6.021 -0.1688  2.1337  2.2598
  357MOL0     H48152   6.802   9.564   6.137  1.2655 -0.2481 -0.5358
  357MOL0     H48153   6.777   9.389   5.997 -0.7039  1.3024  2.1861
  357MOL0     H48154   6.923   9.461   5.928  0.4775  0.0064  0.4455
  357MOL0     H48155   6.661   9.243   5.796 -3.1299 -0.0490 -2.8829
  357MOL0     H48156   6.615   9.070   5.540  0.2938  1.5221 -0.1331
  357MOL0     H48157   6.774   8.990   5.568 -1.1834  0.9193 -2.3696
  357MOL0     H48158   6.669   9.038   5.702 -1.0146  1.2962  0.7154
  357MOL0     H48159   7.060   9.024   5.225 -1.7333 -0.5937 -1.0942
  357MOL0     H48160   7.106   8.948   4.978  4.2125  1.8436 -0.0985
  357MOL0     H48161   7.021   8.836   4.764  2.0007 -1.6315 -1.6634
  357MOL0     H48162   7.010   8.920   4.628 -2.0118 -0.4233  1.0880
  357MOL0     H48163   7.258   8.935   4.818  0.5711  0.9598 -0.2160
  357MOL0     H48164   7.261   8.871   4.658 -0.7281 -2.7143  2.6226
  357MOL0     H48165   7.365   9.086   4.654 -0.0200 -2.3259  1.7247
  357MOL0     H48166   7.236   9.159   4.749  3.4546  0.7040  0.0450
  357MOL0     H48167   7.264   9.105   4.456  0.0490  2.0270 -0.3038
  357MOL0     H48168   7.094   9.092   4.521 -0.2089  0.0096 -0.1135
  357MOL0     H48169   7.269   9.317   4.594  0.0793 -0.5339  0.4969
  357MOL0     H48170   7.096   9.320   4.586  0.3263  2.9995 -1.7339
  357MOL0     H48171   7.078   9.327   4.358 -0.8414 -2.1401  2.8506
  357MOL0     H48172   7.168   9.467   4.428 -0.4795 -1.0406  3.7395
  357MOL0     H48173   7.266   9.364   4.208  0.9054  2.7622  0.2531
  357MOL0     H48174   7.325   9.224   4.311 -3.0204 -0.9011  1.0310
  357MOL0     H48175   7.502   9.396   4.276  0.8246 -1.3211  1.0810
  357MOL0     H48176   7.458   9.388   4.450 -1.7671  2.5883  1.2743
  357MOL0     H48177   6.902   9.276   4.832  1.1478  0.3454  0.2317
  357MOL0     H48178   6.849   9.361   5.064  2.9836  1.7630 -0.6534
  357MOL0     H48179   6.919   9.433   5.425 -0.1122  2.4914  2.1375
  357MOL0     H48180   6.853   9.568   5.614 -3.0450  0.0769  0.6303
  357MOL0     H48181   7.718  10.033   7.281 -1.0255  0.0571 -1.1560
  357MOL0     H48182   7.889   9.986   7.417  0.7587  2.9363 -1.0151
  357MOL0     H48183   8.238   9.689   7.476 -1.3072  2.0391 -0.6800
  357MOL0     H48184   8.403   9.564   7.611  0.4263 -1.1892 -1.6320
  357MOL0     H48185   8.823   9.579   7.479 -1.1696 -4.1007  0.1083
  357MOL0     H48186   8.842   9.702   7.608 -2.4259  0.5395 -0.2396
  357MOL0     H48187   8.957   9.458   7.615 -0.2543 -0.4396  1.0489
  357MOL0     H48188   8.815   9.416   7.684 -0.1495  0.7081  0.7257
  357MOL0     H48189   8.842   9.609   7.850 -0.2657  1.0631 -0.4437
  357MOL0     H48190   8.998   9.663   7.777 -2.0987  2.2991  1.7911
  357MOL0     H48191   8.986   9.373   7.858  1.9221 -0.6863 -0.6826
  357MOL0     H48192   9.032   9.494   7.978 -1.8999  0.9365 -0.2022
  357MOL0     H48193   9.372   9.483   7.737  0.6003  2.9713  0.6986
  357MOL0     H48194   8.709   9.807   7.446 -1.0281  2.1491 -1.9264
  357MOL0     H48195   8.532   9.970   7.353 -0.5070 -0.1630  0.3149
  358MOL0     O48196   5.396   5.492   9.149  0.2766 -0.1443  0.9220
  358MOL0     C48197   5.452   5.480   9.034  0.1887 -0.4753  0.2269
  358MOL0     O48198   5.588   5.491   9.017  0.6179 -0.3579 -0.8309
  358MOL0     C48199   5.665   5.552   9.120 -0.0083 -0.7512  0.5257
  358MOL0     C48200   5.636   5.682   9.174 -0.3695  0.5782 -0.3221
  358MOL0     C48201   5.709   5.735   9.274 -0.0556 -0.5506  0.6227
  358MOL0     C48202   5.825   5.674   9.305 -1.5631 -0.4868  0.3664
  358MOL0     O48203   5.901   5.744   9.389 -0.0973 -0.3654  0.5896
  358MOL0     C48204   5.876   5.712   9.525 -0.1169 -0.4403 -0.9768
  358MOL0     C48205   5.927   5.825   9.612  0.5745  0.1375 -0.2935
  358MOL0     C48206   5.951   5.772   9.757  0.1541 -0.4684  0.1543
  358MOL0     C48207   6.088   5.703   9.771  0.6477  0.7592 -1.1293
  358MOL0     C48208   6.129   5.639   9.915  1.2934 -0.1147  0.0255
  358MOL0     C48209   6.028   5.533   9.975  0.0565 -0.1676  0.1146
  358MOL0     C48210   6.101   5.460  10.080 -0.1409  0.6269  0.6799
  358MOL0     C48211   6.017   5.344  10.120 -0.6351  0.2139 -0.3697
  358MOL0     N48212   6.073   5.303  10.240  0.7567 -0.4162 -0.4829
  358MOL0     C48213   6.004   5.314  10.357  0.4269 -0.7722 -0.1540
  358MOL0     C48214   6.084   5.258  10.454  0.2852 -0.2778 -0.1384
  358MOL0     C48215   6.032   5.242  10.598 -0.2371  1.1971 -0.4051
  358MOL0     C48216   6.151   5.182  10.680 -0.4682 -0.6389  0.9771
  358MOL0     C48217   6.113   5.192  10.832  0.2783 -0.2546  1.1291
  358MOL0     C48218   6.235   5.136  10.915 -0.2014  0.5951  0.0469
  358MOL0     O48219   6.254   4.996  10.874 -0.3930 -0.7385  0.0972
  358MOL0     C48220   6.366   4.925  10.910  0.5329 -1.2760  0.2460
  358MOL0     C48221   6.475   4.982  10.987 -0.4573  0.0809  0.4042
  358MOL0     C48222   6.595   4.906  11.016  0.9450 -0.8941 -0.1279
  358MOL0     C48223   6.700   4.990  11.085 -0.2797  0.0179  0.5971
  358MOL0     C48224   6.597   4.770  10.968  0.2960 -0.2964  0.0764
  358MOL0     C48225   6.715   4.670  10.982  0.6593 -0.1125 -0.5905
  358MOL0     O48226   6.824   4.713  11.052 -0.5234  0.5582  0.1444
  358MOL0     C48227   6.935   4.627  11.059  0.0675 -0.3575 -0.4123
  358MOL0     C48228   6.947   4.532  11.164 -0.0727 -1.2511 -0.0356
  358MOL0     C48229   7.056   4.451  11.175 -0.0967  0.1421 -0.2154
  358MOL0     C48230   7.152   4.450  11.079 -0.2531 -0.1368  0.4026
  358MOL0     O48231   7.245   4.355  11.093  0.1423 -0.3839  0.3567
  358MOL0     C48232   7.380   4.388  11.048  0.0374 -0.5142  0.2831
  358MOL0     C48233   7.403   4.341  10.910  0.1548  1.0535  0.4533
  358MOL0     C48234   7.410   4.189  10.909  1.3343  0.0416  0.2377
  358MOL0     C48235   7.396   4.136  10.764  1.2753  0.9739 -0.0004
  358MOL0     C48236   7.501   4.184  10.677  0.0669  0.7517 -0.1945
  358MOL0     C48237   7.501   4.115  10.533 -0.4445 -0.6103 -1.2528
  358MOL0     C48238   7.623   4.179  10.452  0.1734  0.0852 -0.0195
  358MOL0     C48239   7.684   4.091  10.344 -0.0325 -0.7143 -0.4730
  358MOL0    Cl48240   7.557   4.000  10.255  0.1896  0.2746 -0.5112
  358MOL0     C48241   7.153   4.549  10.978  0.3577  0.6260 -0.3287
  358MOL0     C48242   7.038   4.623  10.963 -0.2265  0.3822 -0.2901
  358MOL0     O48243   6.714   4.573  10.902  0.3259  0.1963 -0.3974
  358MOL0     C48244   6.481   4.725  10.898  0.0573 -0.5969  1.0217
  358MOL0     C48245   6.372   4.800  10.868  1.2672 -0.0650  0.3903
  358MOL0     N48246   6.204   5.216  10.386 -0.6164  0.4260  0.6553
  358MOL0     N48247   6.196   5.240  10.258 -0.3548  0.1523  0.7947
  358MOL0     C48248   5.873   5.561   9.240  0.0740  0.7528 -0.0381
  358MOL0     C48249   5.783   5.490   9.148 -0.0575 -0.4895 -0.3881
  358MOL0     C48250   5.372   5.427   8.921 -0.3746 -0.4752  0.5656
  358MOL0     C48251   5.237   5.449   8.909  0.6467 -0.3450  0.5594
  358MOL0     C48252   5.158   5.399   8.803  0.6761 -0.0376  0.8053
  358MOL0     C48253   5.222   5.327   8.692 -0.2345  0.8368  0.3299
  358MOL0     O48254   5.155   5.259   8.588  0.1989  0.1123 -0.7421
  358MOL0     C48255   5.074   5.353   8.523  1.2141 -0.7690  0.5073
  358MOL0     C48256   5.143   5.443   8.423 -0.0821 -0.1159 -0.0070
  358MOL0     C48257   5.188   5.350   8.298  0.6472 -0.4982  0.3913
  358MOL0     C48258   5.317   5.257   8.344 -0.0577 -0.9586 -0.4395
  358MOL0     C48259   5.397   5.209   8.234  1.2676 -0.0040  0.2356
  358MOL0     C48260   5.476   5.197   8.147  0.5914  0.0249  0.2212
  358MOL0     C48261   5.363   5.307   8.715  0.2085  0.1162  0.4185
  358MOL0     C48262   5.435   5.353   8.823 -0.3637  0.3632 -0.9595
  358MOL0     H48263   5.552   5.740   9.138 -1.0892  1.8747  3.0507
  358MOL0     H48264   5.674   5.830   9.314  0.1121  0.3033 -1.1633
  358MOL0     H48265   5.773   5.690   9.553 -0.1885 -0.0259 -0.9116
  358MOL0     H48266   5.938   5.624   9.547  3.0078  1.2683 -2.2838
  358MOL0     H48267   6.022   5.866   9.578  0.2298  1.9525  0.8344
  358MOL0     H48268   5.860   5.912   9.608  1.5958  0.9334 -0.4128
  358MOL0     H48269   5.947   5.854   9.829  1.7335 -0.1314 -0.1030
  358MOL0     H48270   5.865   5.709   9.783 -0.1692 -0.2301 -0.3272
  358MOL0     H48271   6.091   5.623   9.697 -4.8355 -0.3381 -0.5900
  358MOL0     H48272   6.162   5.776   9.739  1.5800 -0.3515 -1.5963
  358MOL0     H48273   6.223   5.585   9.898  0.7387 -0.6798 -1.3527
  358MOL0     H48274   6.145   5.721   9.986 -1.4428  0.3324  0.2481
  358MOL0     H48275   5.931   5.575  10.006 -1.3251 -1.1385 -2.5751
  358MOL0     H48276   6.004   5.462   9.895  0.2204 -0.3018  0.1853
  358MOL0     H48277   6.192   5.414  10.040 -1.6533 -1.3251 -0.7480
  358MOL0     H48278   6.129   5.541  10.148 -0.1841  2.3786 -1.3100
  358MOL0     H48279   6.013   5.263  10.047 -0.9557  0.6920 -0.8904
  358MOL0     H48280   5.915   5.380  10.132 -0.7479 -0.2307  0.0225
  358MOL0     H48281   5.908   5.363  10.366  1.6647  1.4663  2.1026
  358MOL0     H48282   5.984   5.333  10.635 -1.0776  2.1036 -3.4197
  358MOL0     H48283   5.962   5.159  10.594  1.2576 -0.3184  2.3900
  358MOL0     H48284   6.246   5.234  10.668 -1.5544  1.1228 -0.4867
  358MOL0     H48285   6.166   5.078  10.650 -0.1176 -0.5688  0.9039
  358MOL0     H48286   6.014   5.146  10.833 -0.4945  1.3180  1.3082
  358MOL0     H48287   6.102   5.298  10.859 -1.4940 -0.1622  0.2111
  358MOL0     H48288   6.207   5.137  11.021 -3.8086 -0.5280 -0.7418
  358MOL0     H48289   6.321   5.202  10.904 -0.1041  0.8869  2.1343
  358MOL0     H48290   6.469   5.081  11.029 -3.4704  0.9727 -1.7108
  358MOL0     H48291   6.801   4.949  11.096 -0.2065  0.2356  0.7424
  358MOL0     H48292   6.701   5.085  11.031 -2.8134  0.2501  0.8486
  358MOL0     H48293   6.664   5.013  11.186  0.6008 -0.7781  1.1116
  358MOL0     H48294   6.868   4.530  11.239 -0.0680 -0.5842 -0.0080
  358MOL0     H48295   7.068   4.381  11.257  1.6026  0.5508 -0.0807
  358MOL0     H48296   7.396   4.496  11.046  0.1224 -0.4749  1.8723
  358MOL0     H48297   7.443   4.347  11.128 -0.7712  0.0021  1.2066
  358MOL0     H48298   7.330   4.385  10.840  2.7491  2.7588 -1.3729
  358MOL0     H48299   7.498   4.379  10.871  1.2090 -1.4100  0.4655
  358MOL0     H48300   7.333   4.144  10.971  4.9206 -1.3122  4.2197
  358MOL0     H48301   7.500   4.159  10.963  0.4760 -2.7774  0.2122
  358MOL0     H48302   7.383   4.028  10.769 -2.4072  1.2553 -0.3678
  358MOL0     H48303   7.295   4.160  10.730 -0.0147 -1.3006  1.9155
  358MOL0     H48304   7.598   4.174  10.727  0.5340  1.8000 -0.8690
  358MOL0     H48305   7.497   4.293  10.672 -2.7014  0.6965 -0.5574
  358MOL0     H48306   7.512   4.006  10.542 -1.0617 -0.5689  0.1833
  358MOL0     H48307   7.409   4.136  10.477 -1.9589 -4.0857 -0.3355
  358MOL0     H48308   7.706   4.213  10.515 -1.1297  1.7287  0.8878
  358MOL0     H48309   7.591   4.273  10.405  2.9820  1.7238  1.0956
  358MOL0     H48310   7.755   4.020  10.388  2.1868  0.4379 -1.9944
  358MOL0     H48311   7.740   4.152  10.272 -1.3268  0.3122 -0.6463
  358MOL0     H48312   7.216   4.556  10.890  2.2941  2.6536  1.0991
  358MOL0     H48313   7.020   4.698  10.886  1.9341  1.4982  0.2248
  358MOL0     H48314   6.490   4.628  10.852  0.9900  0.9674 -2.4125
  358MOL0     H48315   6.292   4.751  10.813  3.5597 -2.9022 -0.6851
  358MOL0     H48316   5.966   5.516   9.272 -0.7813 -0.3470  1.0159
  358MOL0     H48317   5.801   5.405   9.082 -2.8464  1.2194 -3.6948
  358MOL0     H48318   5.185   5.518   8.975  1.1729  0.0005  0.6196
  358MOL0     H48319   5.051   5.409   8.811  0.5751  1.2495 -1.4648
  358MOL0     H48320   5.001   5.297   8.464  3.2617 -3.4000  0.2979
  358MOL0     H48321   5.023   5.416   8.596 -0.4401  1.2815 -2.1918
  358MOL0     H48322   5.225   5.499   8.468 -2.5022  4.1706 -0.4142
  358MOL0     H48323   5.067   5.512   8.385  0.1277 -1.4620 -3.2331
  358MOL0     H48324   5.220   5.408   8.211  0.1827 -4.5784 -2.7962
  358MOL0     H48325   5.110   5.288   8.253  0.7724 -1.7100  1.7719
  358MOL0     H48326   5.282   5.169   8.399  1.3986 -0.2396  1.8210
  358MOL0     H48327   5.385   5.308   8.413 -2.4311 -1.4080  2.4745
  358MOL0     H48328   5.548   5.203   8.069 -2.0983 -4.4267 -3.0672
  358MOL0     H48329   5.402   5.235   8.645 -3.4714 -1.4969 -0.2008
  358MOL0     H48330   5.543   5.347   8.825 -0.2638  1.0314 -2.5467
  359MOL0     O48331   3.976   7.147   1.192  0.0297 -0.6435  0.2373
  359MOL0     C48332   3.989   7.028   1.218  0.2893  0.2451 -0.1390
  359MOL0     O48333   4.099   6.968   1.280  0.6504  0.1665 -0.3308
  359MOL0     C48334   4.210   7.040   1.277 -0.6092 -0.8838  0.9784
  359MOL0     C48335   4.308   7.006   1.191  0.4210 -0.2374  0.4088
  359MOL0     C48336   4.434   7.071   1.190 -1.0259  0.0761  0.3662
  359MOL0     C48337   4.461   7.167   1.285 -1.5478 -0.1954 -0.2131
  359MOL0     O48338   4.590   7.213   1.278 -0.2855 -1.3613 -0.1756
  359MOL0     C48339   4.653   7.273   1.390  0.0022 -0.6293 -0.2443
  359MOL0     C48340   4.808   7.272   1.388 -0.4907  0.8465  0.5116
  359MOL0     C48341   4.846   7.376   1.289  0.5148 -1.0184 -0.3877
  359MOL0     C48342   4.998   7.393   1.286 -0.3801  0.2193 -0.1851
  359MOL0     C48343   5.047   7.471   1.168  0.4105  0.7222  0.8964
  359MOL0     C48344   5.047   7.626   1.200  0.0112  0.3571  0.4336
  359MOL0     C48345   5.134   7.693   1.093 -0.9844  0.2600 -0.0971
  359MOL0     C48346   5.281   7.681   1.135 -0.3244 -1.0819  0.1833
  359MOL0     N48347   5.372   7.724   1.026  0.2847  0.1500 -0.4701
  359MOL0     C48348   5.377   7.848   0.974  0.0729 -1.0512  0.6278
  359MOL0     C48349   5.467   7.842   0.873 -0.3606 -0.0886 -0.0308
  359MOL0     C48350   5.529   7.951   0.799 -0.4141 -0.2086 -0.1999
  359MOL0     C48351   5.601   8.039   0.898 -0.0020  0.8897 -0.3622
  359MOL0     C48352   5.665   8.152   0.828 -0.4587 -0.0958 -0.6717
  359MOL0     C48353   5.820   8.124   0.802  0.4524 -0.8169  0.0410
  359MOL0     O48354   5.897   8.120   0.923  0.0075  0.5178 -0.0593
  359MOL0     C48355   5.990   8.211   0.951 -0.7035  1.0844 -0.2870
  359MOL0     C48356   6.002   8.243   1.090  0.4371 -0.5505  0.3111
  359MOL0     C48357   6.089   8.335   1.134  0.6726 -0.7954 -0.3110
  359MOL0     C48358   6.084   8.361   1.286 -0.3421  0.5602  0.0342
  359MOL0     C48359   6.183   8.399   1.044  0.8606  0.8456 -0.2897
  359MOL0     C48360   6.285   8.492   1.096 -0.6501  1.0231  0.5532
  359MOL0     O48361   6.382   8.515   0.998  0.2252 -0.2639 -0.5594
  359MOL0     C48362   6.478   8.615   1.005 -0.4089 -0.0180 -0.2070
  359MOL0     C48363   6.595   8.597   0.918  0.3336  0.6880  0.4866
  359MOL0     C48364   6.700   8.699   0.916  0.3177 -0.8441 -0.6002
  359MOL0     C48365   6.685   8.820   0.980  0.1920  0.8676 -0.7059
  359MOL0     O48366   6.788   8.906   0.962  0.4872  0.1824 -0.0601
  359MOL0     C48367   6.805   9.010   1.064 -0.0757  0.4318  0.8136
  359MOL0     C48368   6.732   9.135   1.029  0.3969  0.2103  0.4728
  359MOL0     C48369   6.783   9.261   1.091  0.3088 -0.0654  0.2021
  359MOL0     C48370   6.922   9.301   1.030  0.6707 -0.4792  0.1886
  359MOL0     C48371   6.960   9.431   1.081 -0.5450  1.1243  0.9671
  359MOL0     C48372   7.052   9.440   1.216  0.6814 -0.3260 -0.3565
  359MOL0     C48373   6.990   9.365   1.328  0.8223 -0.2773 -0.2166
  359MOL0     C48374   7.022   9.416   1.469 -0.9296 -0.5526 -0.1716
  359MOL0    Cl48375   7.141   9.308   1.552  0.1477  0.0848 -0.0908
  359MOL0     C48376   6.571   8.833   1.063  0.4049  0.4837 -0.7401
  359MOL0     C48377   6.470   8.732   1.076 -0.5347 -1.0184  0.1513
  359MOL0     O48378   6.287   8.535   1.207 -0.2503  0.5422 -0.4502
  359MOL0     C48379   6.164   8.363   0.906  0.9747 -0.4586 -0.5536
  359MOL0     C48380   6.075   8.276   0.859 -0.4042  0.0063  0.7816
  359MOL0     N48381   5.510   7.712   0.861  0.4360  0.0235 -0.1013
  359MOL0     N48382   5.456   7.639   0.953  0.0760 -0.2512  0.2314
  359MOL0     C48383   4.360   7.211   1.374 -0.5662 -0.9677 -0.0199
  359MOL0     C48384   4.232   7.145   1.370 -0.3309 -0.0629 -0.7857
  359MOL0     C48385   3.882   6.936   1.197  0.4708  0.0692  0.5641
  359MOL0     C48386   3.793   6.978   1.101  1.1847  0.1714  0.5477
  359MOL0     C48387   3.686   6.895   1.061 -0.1528 -0.2094  0.8259
  359MOL0     C48388   3.685   6.766   1.120 -1.0573  0.3615  0.0863
  359MOL0     O48389   3.600   6.665   1.064  0.0713  0.1890 -0.7268
  359MOL0     C48390   3.480   6.706   1.001  0.2777  0.3086  0.5623
  359MOL0     C48391   3.407   6.572   0.984  0.3821 -0.4283 -0.1567
  359MOL0     C48392   3.420   6.530   0.837  0.1134  1.3635 -0.1225
  359MOL0     C48393   3.365   6.383   0.807  0.3192  0.2715  0.0432
  359MOL0     C48394   3.419   6.342   0.681  0.1390  0.6474  0.1611
  359MOL0     C48395   3.457   6.294   0.575  0.2890  0.5287 -0.0012
  359MOL0     C48396   3.774   6.724   1.216  0.3613 -0.2823 -0.0074
  359MOL0     C48397   3.881   6.811   1.242 -0.0417 -0.2526  1.0563
  359MOL0     H48398   4.284   6.923   1.125  3.1608 -1.1760  0.4549
  359MOL0     H48399   4.518   7.042   1.128  0.2972  1.0022  1.6635
  359MOL0     H48400   4.616   7.376   1.403  1.5331 -0.2652  1.6263
  359MOL0     H48401   4.630   7.228   1.487  1.1089  3.3440  2.1135
  359MOL0     H48402   4.838   7.295   1.491  2.0335 -0.6398  0.1885
  359MOL0     H48403   4.860   7.180   1.360 -0.1423  1.3303 -0.4599
  359MOL0     H48404   4.818   7.344   1.188 -1.3016 -0.9771  0.0677
  359MOL0     H48405   4.801   7.473   1.310  2.5466 -0.6532  2.9668
  359MOL0     H48406   5.041   7.430   1.379  6.2986 -1.4390 -2.1022
  359MOL0     H48407   5.035   7.290   1.278 -1.9340 -0.4163  0.3970
  359MOL0     H48408   5.146   7.434   1.140  0.1662 -0.5844  1.6437
  359MOL0     H48409   4.977   7.468   1.084  0.1343  3.8255  0.9071
  359MOL0     H48410   4.943   7.659   1.194 -1.2743 -3.4471 -0.7753
  359MOL0     H48411   5.088   7.644   1.300 -0.3258 -0.0853  0.6529
  359MOL0     H48412   5.124   7.658   0.990 -0.5624 -0.6113  0.1487
  359MOL0     H48413   5.102   7.797   1.085 -2.5610 -0.1858 -0.0209
  359MOL0     H48414   5.307   7.577   1.157 -2.1134 -2.0457 -1.8894
  359MOL0     H48415   5.288   7.743   1.225  0.9541  1.9757 -1.8347
  359MOL0     H48416   5.329   7.942   1.002  1.7156 -0.1100  0.4295
  359MOL0     H48417   5.605   7.919   0.727 -2.2922 -2.4910 -1.2950
  359MOL0     H48418   5.448   8.012   0.758 -2.3073 -1.1954  1.8327
  359MOL0     H48419   5.686   7.980   0.936  2.4690  0.8875 -5.1301
  359MOL0     H48420   5.542   8.087   0.977 -1.0594  1.4334 -1.4610
  359MOL0     H48421   5.656   8.242   0.890  0.7841 -1.5455  1.7524
  359MOL0     H48422   5.618   8.172   0.731 -1.3364 -0.2648 -0.2850
  359MOL0     H48423   5.859   8.198   0.731 -3.1200 -0.3078 -1.6322
  359MOL0     H48424   5.825   8.028   0.750 -2.7317 -2.3031  2.1288
  359MOL0     H48425   5.930   8.192   1.154  0.5013 -0.1886  0.6752
  359MOL0     H48426   6.171   8.311   1.329  0.7710  2.6663  0.3882
  359MOL0     H48427   6.083   8.469   1.306  0.9444  0.1863  2.4318
  359MOL0     H48428   6.007   8.304   1.337  0.0143 -2.3333 -2.3616
  359MOL0     H48429   6.598   8.508   0.856 -0.4248  0.7198  0.3975
  359MOL0     H48430   6.777   8.686   0.841  0.6530 -1.0417 -0.2316
  359MOL0     H48431   6.786   8.960   1.159 -1.3045 -1.0288 -0.1570
  359MOL0     H48432   6.914   9.025   1.070  0.4135 -2.4170  0.2457
  359MOL0     H48433   6.733   9.145   0.920  1.8955  0.6375  0.4993
  359MOL0     H48434   6.630   9.123   1.067  1.7020  1.1954  4.7426
  359MOL0     H48435   6.801   9.223   1.192  0.0473  1.2065  0.7529
  359MOL0     H48436   6.707   9.338   1.103  0.4116 -0.2495  2.6104
  359MOL0     H48437   7.004   9.233   1.055  1.0169  0.5859  2.1134
  359MOL0     H48438   6.915   9.319   0.922 -0.5256  0.2342  0.3758
  359MOL0     H48439   6.881   9.506   1.090 -0.3116  1.3081  1.5354
  359MOL0     H48440   7.031   9.471   1.008 -1.4690 -0.5957 -0.9955
  359MOL0     H48441   7.142   9.382   1.194  0.3663 -0.6238 -0.8806
  359MOL0     H48442   7.083   9.542   1.240 -4.4811  1.2069  1.1440
  359MOL0     H48443   7.021   9.260   1.318  0.1623 -0.4747 -0.2672
  359MOL0     H48444   6.881   9.371   1.318  0.7214  1.1800  1.4480
  359MOL0     H48445   6.936   9.417   1.537  1.6377  0.0007  3.2895
  359MOL0     H48446   7.068   9.514   1.460 -1.2876 -0.4896 -1.6123
  359MOL0     H48447   6.549   8.927   1.113 -2.1583  0.2022 -1.2306
  359MOL0     H48448   6.380   8.757   1.131  1.7280 -2.9353  5.4866
  359MOL0     H48449   6.231   8.418   0.840  0.7090  0.9725  0.3321
  359MOL0     H48450   6.083   8.245   0.755  0.9246 -0.8866  1.1194
  359MOL0     H48451   4.376   7.293   1.443  0.6586  1.6194 -3.1020
  359MOL0     H48452   4.158   7.165   1.447 -0.4422 -0.2208 -0.8498
  359MOL0     H48453   3.794   7.071   1.045 -1.0895  0.2836  0.5905
  359MOL0     H48454   3.613   6.930   0.989 -2.3693 -0.1338  2.9983
  359MOL0     H48455   3.415   6.773   1.058  0.2187  2.0929 -1.4701
  359MOL0     H48456   3.503   6.755   0.905 -0.2342 -0.9798 -0.2435
  359MOL0     H48457   3.301   6.592   0.999  0.0682  2.3266 -4.2965
  359MOL0     H48458   3.459   6.507   1.054  0.0556  0.3135  0.7870
  359MOL0     H48459   3.526   6.541   0.813 -0.1321  2.1856 -0.8912
  359MOL0     H48460   3.379   6.603   0.767 -0.4504  1.6503  0.4968
  359MOL0     H48461   3.257   6.399   0.800  0.7861  3.3195 -2.8998
  359MOL0     H48462   3.388   6.308   0.883  0.1833  0.4810  0.2949
  359MOL0     H48463   3.481   6.247   0.482  1.3237  1.0845 -0.0337
  359MOL0     H48464   3.761   6.625   1.258 -0.4994 -0.1988 -0.0594
  359MOL0     H48465   3.961   6.773   1.306  0.5070  1.4098  1.4119
  360MOL0     O48466   1.440   9.768   7.911 -0.3127  0.4667  0.2823
  360MOL0     C48467   1.335   9.723   7.864  0.5216 -0.3781  0.4167
  360MOL0     O48468   1.249   9.620   7.914  0.6661 -0.0192 -0.2446
  360MOL0     C48469   1.242   9.577   8.042  0.1006  0.2046  0.3409
  360MOL0     C48470   1.295   9.637   8.155 -0.4445 -1.3519  0.9352
  360MOL0     C48471   1.285   9.584   8.283 -0.1213  0.2638  0.9705
  360MOL0     C48472   1.219   9.460   8.297 -0.1098 -1.3314  0.4323
  360MOL0     O48473   1.201   9.412   8.425 -0.2287 -0.1014 -0.6027
  360MOL0     C48474   1.255   9.285   8.457  0.5424  0.0050  0.0341
  360MOL0     C48475   1.276   9.257   8.598 -0.5750 -0.1778 -0.2461
  360MOL0     C48476   1.153   9.192   8.665 -0.5296 -0.8846 -0.8332
  360MOL0     C48477   1.154   9.042   8.699  0.9668  0.0045  0.2819
  360MOL0     C48478   1.014   8.975   8.719 -0.4069  0.4296  0.4089
  360MOL0     C48479   1.031   8.825   8.731  0.2190  0.2918 -0.7047
  360MOL0     C48480   1.075   8.752   8.598  0.7251 -0.6083 -0.1347
  360MOL0     C48481   1.053   8.605   8.618 -0.3922  0.7266 -0.0825
  360MOL0     N48482   1.141   8.549   8.718  0.5917  0.1064 -0.6974
  360MOL0     C48483   1.275   8.523   8.690  0.1774 -0.5395  0.0246
  360MOL0     C48484   1.315   8.477   8.812 -0.2012 -1.1975 -0.0342
  360MOL0     C48485   1.455   8.438   8.829  1.1387  0.7824  0.1943
  360MOL0     C48486   1.469   8.300   8.893 -0.5625  0.0844  0.0878
  360MOL0     C48487   1.409   8.179   8.820 -0.1103 -0.2123  0.1947
  360MOL0     C48488   1.481   8.047   8.851  0.7533  0.2635 -0.7779
  360MOL0     O48489   1.620   8.012   8.809  0.6642 -0.6544  0.6277
  360MOL0     C48490   1.645   7.951   8.688  0.7370  0.1782 -0.0705
  360MOL0     C48491   1.780   7.934   8.650  0.0241  0.4789 -0.5755
  360MOL0     C48492   1.821   7.862   8.534 -0.0687 -0.1358 -0.2854
  360MOL0     C48493   1.957   7.860   8.482 -0.5394 -1.0272  0.4924
  360MOL0     C48494   1.718   7.822   8.442  0.8990 -0.3257 -0.3815
  360MOL0     C48495   1.743   7.753   8.316 -0.3158 -0.6102  0.1178
  360MOL0     O48496   1.791   7.629   8.333  0.1862  0.6739 -0.1344
  360MOL0     C48497   1.842   7.557   8.227  0.6600  0.2503 -0.4511
  360MOL0     C48498   1.857   7.413   8.247 -0.0303 -0.3748 -0.1909
  360MOL0     C48499   1.901   7.335   8.139 -0.6449 -1.2060 -0.3812
  360MOL0     C48500   1.933   7.392   8.020 -0.2054  0.2153 -0.1312
  360MOL0     O48501   1.985   7.303   7.929 -0.8759  0.5826 -0.1883
  360MOL0     C48502   1.970   7.330   7.785  0.0279 -0.0209 -0.6777
  360MOL0     C48503   1.929   7.196   7.718 -0.6329  0.1398 -0.2597
  360MOL0     C48504   1.794   7.136   7.765 -0.0104  0.0174  0.8600
  360MOL0     C48505   1.672   7.214   7.707 -0.5424  0.7041  0.1800
  360MOL0     C48506   1.530   7.175   7.752  0.1737 -0.7505 -0.4692
  360MOL0     C48507   1.488   7.036   7.713  0.8112  0.3031 -0.2266
  360MOL0     C48508   1.348   6.998   7.747  0.4109 -0.4221  0.0000
  360MOL0     C48509   1.233   7.087   7.706 -0.7152  0.3219  0.6191
  360MOL0    Cl48510   1.211   7.106   7.530  0.1837 -0.4441  0.5713
  360MOL0     C48511   1.912   7.527   7.991 -0.2838  1.1171  0.2825
  360MOL0     C48512   1.879   7.610   8.102 -0.7808 -0.1175 -0.1064
  360MOL0     O48513   1.713   7.810   8.212  0.2649 -0.3392 -0.6526
  360MOL0     C48514   1.588   7.856   8.476  1.0150 -0.7095 -0.0925
  360MOL0     C48515   1.547   7.921   8.596  0.2985 -0.3037  0.8093
  360MOL0     N48516   1.207   8.469   8.908  0.7856  0.0718  1.0097
  360MOL0     N48517   1.104   8.523   8.848 -0.5417  0.0378  0.2678
  360MOL0     C48518   1.163   9.403   8.186 -0.3960 -0.0197 -0.4640
  360MOL0     C48519   1.177   9.458   8.061  0.4665 -1.4619 -0.3908
  360MOL0     C48520   1.293   9.771   7.731  1.0341  0.3473 -0.1501
  360MOL0     C48521   1.395   9.791   7.639  0.5641 -0.3590  0.6406
  360MOL0     C48522   1.376   9.829   7.512 -0.2589 -0.7254 -0.0628
  360MOL0     C48523   1.246   9.868   7.475 -0.7804 -1.1187  0.1809
  360MOL0     O48524   1.215   9.929   7.349 -0.4652  0.8821  0.5403
  360MOL0     C48525   1.326   9.982   7.273 -0.5792 -0.4438 -0.9300
  360MOL0     C48526   1.366  10.117   7.324 -0.3386  0.2819 -0.4348
  360MOL0     C48527   1.472  10.190   7.246 -0.4941  0.1454  0.5131
  360MOL0     C48528   1.610  10.134   7.213 -0.2551 -0.7624 -0.2710
  360MOL0     C48529   1.658  10.039   7.318  0.6383 -0.9147  0.7860
  360MOL0     C48530   1.721   9.968   7.389  0.1222  0.0365 -0.2142
  360MOL0     C48531   1.142   9.844   7.568 -0.3433  0.5166 -0.8120
  360MOL0     C48532   1.163   9.788   7.692  0.1041  0.1385 -0.3352
  360MOL0     H48533   1.342   9.733   8.138  0.8070 -1.7333  1.9998
  360MOL0     H48534   1.342   9.630   8.363  0.9459  3.4298 -1.4070
  360MOL0     H48535   1.183   9.213   8.414  2.6095 -2.1367 -0.0577
  360MOL0     H48536   1.348   9.281   8.400 -0.2662 -0.7959 -1.2985
  360MOL0     H48537   1.348   9.175   8.599 -2.2159 -1.7470 -2.2329
  360MOL0     H48538   1.308   9.346   8.652 -1.4995  0.4162 -0.6464
  360MOL0     H48539   1.138   9.233   8.765 -1.2967  1.0609 -1.6926
  360MOL0     H48540   1.056   9.216   8.621  0.8455  2.3046 -2.4556
  360MOL0     H48541   1.203   8.987   8.618 -0.8763 -4.8256  2.0591
  360MOL0     H48542   1.206   9.026   8.794  0.0158 -0.0422  0.7980
  360MOL0     H48543   0.976   9.016   8.813  1.5308  1.3200  0.8625
  360MOL0     H48544   0.956   8.994   8.629 -1.1850 -3.7445 -0.1660
  360MOL0     H48545   1.103   8.796   8.808  1.9058  3.3887 -0.9632
  360MOL0     H48546   0.933   8.789   8.761 -0.4105  1.3990 -1.3672
  360MOL0     H48547   1.009   8.790   8.519  1.8177  2.9888  0.5324
  360MOL0     H48548   1.178   8.783   8.580  0.6745 -0.2298  0.2308
  360MOL0     H48549   1.071   8.549   8.525 -2.5933  0.1033 -0.1979
  360MOL0     H48550   0.950   8.587   8.650 -0.5745  1.0713 -0.4781
  360MOL0     H48551   1.325   8.528   8.594 -0.4278 -4.7104 -0.7231
  360MOL0     H48552   1.509   8.435   8.734  0.7402  4.3327 -0.2623
  360MOL0     H48553   1.507   8.516   8.886  2.0640  1.1990 -1.1762
  360MOL0     H48554   1.425   8.308   8.993  1.2896  2.3633  0.8243
  360MOL0     H48555   1.577   8.281   8.898 -1.0462 -3.0232  0.7924
  360MOL0     H48556   1.406   8.189   8.712  0.2862  1.7494  0.3362
  360MOL0     H48557   1.302   8.179   8.843 -0.0826 -0.0797  0.3249
  360MOL0     H48558   1.418   7.967   8.811  1.1370  0.2576 -1.3823
  360MOL0     H48559   1.498   8.030   8.958  3.0883  0.0427 -1.1295
  360MOL0     H48560   1.859   7.982   8.706 -1.4587  3.3658 -0.8050
  360MOL0     H48561   1.975   7.774   8.417 -0.4316 -1.3937  0.9983
  360MOL0     H48562   1.995   7.957   8.452 -2.7401 -0.8686 -2.1491
  360MOL0     H48563   2.007   7.830   8.575  0.4281  2.3014  1.1475
  360MOL0     H48564   1.823   7.357   8.334  0.6280  0.4659  0.6323
  360MOL0     H48565   1.920   7.230   8.158  0.0580 -1.0599 -0.2504
  360MOL0     H48566   1.876   7.385   7.772 -1.6400 -2.4839  0.1925
  360MOL0     H48567   2.057   7.374   7.735 -0.4774  2.8827  0.7582
  360MOL0     H48568   1.935   7.223   7.613  1.5058  3.5408  0.5819
  360MOL0     H48569   1.998   7.115   7.746 -1.4675 -1.2321 -1.9456
  360MOL0     H48570   1.800   7.136   7.875  1.2644  1.5627  0.8301
  360MOL0     H48571   1.787   7.032   7.731 -1.7132 -0.1852  1.7388
  360MOL0     H48572   1.679   7.319   7.735 -0.4382  1.0588 -1.0966
  360MOL0     H48573   1.668   7.208   7.598  3.5276  1.3338 -0.1365
  360MOL0     H48574   1.456   7.249   7.721 -1.2920 -0.9122  2.3554
  360MOL0     H48575   1.521   7.182   7.861 -0.3545 -0.2549 -0.5364
  360MOL0     H48576   1.493   7.042   7.604  2.9370  0.1299 -0.1675
  360MOL0     H48577   1.565   6.962   7.738  0.4941 -0.1447 -0.5567
  360MOL0     H48578   1.342   6.976   7.854  0.1075  0.9319  0.2763
  360MOL0     H48579   1.321   6.899   7.708 -0.8260 -1.2323  2.6762
  360MOL0     H48580   1.244   7.187   7.749  3.3384  0.4666 -0.3754
  360MOL0     H48581   1.138   7.046   7.741 -0.7298 -0.8586 -0.6939
  360MOL0     H48582   1.914   7.557   7.887  1.2267  0.8619  0.2233
  360MOL0     H48583   1.881   7.717   8.089 -3.0934  0.2368  1.8414
  360MOL0     H48584   1.520   7.810   8.405  0.8332 -0.9624  0.2433
  360MOL0     H48585   1.447   7.963   8.594  0.8301  1.1353  2.4229
  360MOL0     H48586   1.109   9.309   8.198 -1.4340  0.3692 -1.8404
  360MOL0     H48587   1.112   9.420   7.983 -2.1083  0.6294  0.5574
  360MOL0     H48588   1.497   9.760   7.661 -0.8056 -5.3481  1.3679
  360MOL0     H48589   1.465   9.840   7.451 -0.2670 -1.2778 -0.1849
  360MOL0     H48590   1.410   9.915   7.291  0.4812  1.5463  2.1598
  360MOL0     H48591   1.297   9.985   7.167  0.2461 -2.4945 -1.2579
  360MOL0     H48592   1.405  10.102   7.425 -1.8017 -3.9491 -0.3032
  360MOL0     H48593   1.279  10.184   7.322 -0.2848  0.5831  2.4829
  360MOL0     H48594   1.489  10.292   7.283 -1.2557  0.1683  0.8177
  360MOL0     H48595   1.423  10.191   7.148 -0.9109 -4.4851  0.4853
  360MOL0     H48596   1.685  10.213   7.221 -0.9487 -0.3011  3.7635
  360MOL0     H48597   1.614  10.086   7.115 -0.4818 -0.0654 -0.6208
  360MOL0     H48598   1.759   9.894   7.456 -3.0113 -1.9638 -0.3945
  360MOL0     H48599   1.038   9.865   7.543 -0.7679  2.6109  2.2259
  360MOL0     H48600   1.081   9.761   7.757 -0.9691  0.3337 -1.5851
  361MOL0     O48601   8.552   0.785   2.978 -0.2737 -0.1325 -0.0099
  361MOL0     C48602   8.491   0.748   3.083 -1.4184  1.0483  0.1250
  361MOL0     O48603   8.451   0.620   3.115 -0.4781 -0.1304  0.1405
  361MOL0     C48604   8.435   0.529   3.014  0.3708  0.2821 -0.6582
  361MOL0     C48605   8.315   0.465   3.008 -0.2956 -0.4067  0.3581
  361MOL0     C48606   8.285   0.365   2.909 -0.0016 -0.1566  0.5642
  361MOL0     C48607   8.383   0.337   2.818 -0.5329  0.3668  0.7988
  361MOL0     O48608   8.348   0.245   2.720  0.8436 -0.4167 -0.4507
  361MOL0     C48609   8.449   0.155   2.677  0.4590  1.2236 -0.1241
  361MOL0     C48610   8.396   0.040   2.598 -0.0589  0.0444  0.3586
  361MOL0     C48611   8.347   0.070   2.452 -0.7759  1.0163  1.3226
  361MOL0     C48612   8.218   0.150   2.439 -0.9818 -0.3892  0.5697
  361MOL0     C48613   8.163   0.160   2.295  0.0613  1.1026  0.2247
  361MOL0     C48614   8.252   0.227   2.182  0.2043 -1.0846  0.0506
  361MOL0     C48615   8.186   0.247   2.045 -0.2866  0.1515  0.6813
  361MOL0     C48616   8.103   0.372   2.047  0.1794 -0.2622  0.3333
  361MOL0     N48617   8.185   0.485   2.012 -0.3661  0.0026  0.3395
  361MOL0     C48618   8.203   0.537   1.884  0.6557 -0.2457 -0.1115
  361MOL0     C48619   8.275   0.652   1.901  0.5597  1.1264  0.3887
  361MOL0     C48620   8.294   0.750   1.785  0.8759  0.8109  0.0193
  361MOL0     C48621   8.441   0.774   1.749 -0.1542 -0.0059  0.2313
  361MOL0     C48622   8.525   0.661   1.678  1.0111  0.4736 -0.1708
  361MOL0     C48623   8.501   0.640   1.523 -0.3598  0.0823  0.2929
  361MOL0     O48624   8.362   0.649   1.499 -0.2948  0.2271 -0.0040
  361MOL0     C48625   8.282   0.540   1.510 -0.2667  0.0216  0.1639
  361MOL0     C48626   8.312   0.415   1.556 -0.1612 -0.1315 -0.1543
  361MOL0     C48627   8.218   0.307   1.575  0.4040 -0.0150  0.8850
  361MOL0     C48628   8.264   0.171   1.631  0.1480 -1.4722  0.5624
  361MOL0     C48629   8.085   0.330   1.531  0.7436 -0.5121 -0.5158
  361MOL0     C48630   7.969   0.230   1.529 -0.1419  0.2762  0.3921
  361MOL0     O48631   7.988   0.105   1.591 -0.9619  0.0046  0.4651
  361MOL0     C48632   7.874   0.019   1.582 -1.2179 -0.1849  0.3029
  361MOL0     C48633   7.759   0.032   1.653 -0.2107 -0.3110 -1.0486
  361MOL0     C48634   7.651  -0.059   1.645 -0.2743  0.3723  0.1019
  361MOL0     C48635   7.656  -0.171   1.556  0.8514 -1.2506  0.3589
  361MOL0     O48636   7.558  -0.265   1.550  0.5742  0.3439  0.0737
  361MOL0     C48637   7.471  -0.278   1.665  0.5153  0.0391  0.5110
  361MOL0     C48638   7.362  -0.378   1.650 -0.3905 -2.0039  0.0478
  361MOL0     C48639   7.411  -0.526   1.669 -0.4736 -0.6482  0.1094
  361MOL0     C48640   7.308  -0.636   1.625 -0.3729 -0.2655 -0.1243
  361MOL0     C48641   7.379  -0.770   1.666  0.0201 -0.4169  0.5147
  361MOL0     C48642   7.277  -0.881   1.632  0.1365 -0.3159 -0.4077
  361MOL0     C48643   7.328  -1.011   1.697  0.7639  0.6443  0.0087
  361MOL0     C48644   7.238  -1.140   1.676  0.5493 -0.4981  0.4397
  361MOL0    Cl48645   7.079  -1.111   1.743 -0.1752  0.1789 -0.3239
  361MOL0     C48646   7.776  -0.178   1.492  0.4526  0.1081  0.8804
  361MOL0     C48647   7.886  -0.091   1.504  0.2113 -0.8545  0.5885
  361MOL0     O48648   7.861   0.261   1.468 -0.5529  0.3140 -0.2394
  361MOL0     C48649   8.052   0.457   1.480 -0.1304  0.3188  0.1753
  361MOL0     C48650   8.151   0.561   1.477  0.1564 -0.0944  0.6463
  361MOL0     N48651   8.300   0.663   2.037  0.5814 -0.2297  0.0589
  361MOL0     N48652   8.258   0.563   2.105 -0.6037  0.1504  0.4701
  361MOL0     C48653   8.509   0.401   2.819  0.1751  0.7605 -0.3289
  361MOL0     C48654   8.536   0.498   2.918  0.1730 -0.3984 -0.2595
  361MOL0     C48655   8.490   0.845   3.189 -0.5746  0.4281  0.0366
  361MOL0     C48656   8.411   0.843   3.307 -0.6250  0.0003  0.0914
  361MOL0     C48657   8.389   0.949   3.389  0.2451 -0.9201 -0.1663
  361MOL0     C48658   8.463   1.072   3.375  0.4403 -0.5907  0.4372
  361MOL0     O48659   8.436   1.180   3.457 -0.2334  0.4498  0.5672
  361MOL0     C48660   8.528   1.297   3.459 -0.1508 -1.3037  0.1439
  361MOL0     C48661   8.480   1.408   3.543 -0.3192 -0.5763 -0.6050
  361MOL0     C48662   8.563   1.537   3.530 -0.2036  0.1116 -0.2833
  361MOL0     C48663   8.499   1.640   3.624  0.0603 -0.7292 -0.3862
  361MOL0     C48664   8.551   1.776   3.585  1.0194  0.3099  0.4028
  361MOL0     C48665   8.584   1.878   3.537  0.0267  0.1696 -0.1526
  361MOL0     C48666   8.560   1.069   3.275 -0.8983 -0.4293  0.6027
  361MOL0     C48667   8.574   0.958   3.181  0.6567 -0.1825  0.5125
  361MOL0     H48668   8.236   0.489   3.077 -0.0692  0.8576  0.2002
  361MOL0     H48669   8.193   0.307   2.906 -0.4370  0.5541 -2.5767
  361MOL0     H48670   8.528   0.212   2.628  0.7523  1.4262  0.5740
  361MOL0     H48671   8.492   0.104   2.763 -2.1282 -1.1300 -0.0739
  361MOL0     H48672   8.473  -0.036   2.579  0.6484  1.0834 -1.1660
  361MOL0     H48673   8.308  -0.002   2.647  0.4792  0.9357  2.1548
  361MOL0     H48674   8.431   0.112   2.396 -0.7122 -1.9653 -1.0505
  361MOL0     H48675   8.333  -0.025   2.400 -0.4727  1.2469  0.8139
  361MOL0     H48676   8.150   0.095   2.504 -0.9364 -3.3215 -1.6411
  361MOL0     H48677   8.241   0.254   2.462  1.6332 -0.1892 -2.2534
  361MOL0     H48678   8.140   0.062   2.253 -0.2323 -0.2029  3.2012
  361MOL0     H48679   8.065   0.210   2.300 -1.9249 -2.3464 -0.7407
  361MOL0     H48680   8.291   0.322   2.220 -0.6844  0.0259 -1.6817
  361MOL0     H48681   8.339   0.161   2.171 -0.1248 -1.4524 -0.3478
  361MOL0     H48682   8.271   0.255   1.976  0.9641  3.5020  2.3902
  361MOL0     H48683   8.125   0.159   2.021  0.5644 -0.1180 -0.6233
  361MOL0     H48684   8.063   0.386   2.148  0.7662  0.2340  0.5037
  361MOL0     H48685   8.024   0.355   1.974 -0.3025 -0.4292  0.8907
  361MOL0     H48686   8.153   0.509   1.792  0.5727  3.7173 -1.4928
  361MOL0     H48687   8.233   0.721   1.699  1.0906  2.7512 -0.8470
  361MOL0     H48688   8.242   0.844   1.807 -2.1632 -1.7939  6.9163
  361MOL0     H48689   8.498   0.790   1.841  0.6325 -1.6069  0.0544
  361MOL0     H48690   8.457   0.864   1.689  2.4796 -0.9011 -0.5430
  361MOL0     H48691   8.503   0.567   1.730  0.2467  1.2140  0.8917
  361MOL0     H48692   8.631   0.685   1.686  0.8368  1.0055  0.7812
  361MOL0     H48693   8.548   0.544   1.500  0.9081  0.1051  2.5391
  361MOL0     H48694   8.542   0.720   1.461 -2.1095  1.3222  0.6486
  361MOL0     H48695   8.414   0.399   1.590 -0.2721 -0.8920 -0.1665
  361MOL0     H48696   8.365   0.155   1.669  0.0003 -0.4248  1.4431
  361MOL0     H48697   8.199   0.148   1.716 -1.1369 -0.9251 -0.2373
  361MOL0     H48698   8.253   0.091   1.557 -3.8162 -0.8714  0.2882
  361MOL0     H48699   7.762   0.113   1.726 -0.1360  1.6354 -3.1220
  361MOL0     H48700   7.566  -0.037   1.709 -0.3326 -1.4285  0.6930
  361MOL0     H48701   7.524  -0.289   1.761 -1.9580  2.2249  2.2771
  361MOL0     H48702   7.413  -0.187   1.682 -0.2513 -0.5066  0.8333
  361MOL0     H48703   7.281  -0.354   1.720 -0.4576 -3.1964  0.3975
  361MOL0     H48704   7.320  -0.371   1.550  0.1079 -1.0944 -0.1037
  361MOL0     H48705   7.446  -0.552   1.769  0.9767 -1.5302 -0.5953
  361MOL0     H48706   7.498  -0.538   1.603  0.4220 -1.4123  1.3880
  361MOL0     H48707   7.217  -0.616   1.683 -0.4718 -0.1740 -0.3125
  361MOL0     H48708   7.285  -0.642   1.519  1.1327 -2.5893 -0.3938
  361MOL0     H48709   7.390  -0.770   1.775  2.1116  1.8417  0.3854
  361MOL0     H48710   7.470  -0.780   1.605 -0.4237 -0.1735 -0.1900
  361MOL0     H48711   7.175  -0.869   1.669 -0.3389 -1.0847 -1.4225
  361MOL0     H48712   7.267  -0.881   1.523 -1.2560  1.3914 -0.3281
  361MOL0     H48713   7.339  -0.999   1.805  0.5786  2.9086 -0.1903
  361MOL0     H48714   7.429  -1.029   1.658 -0.0925  0.6340 -2.3425
  361MOL0     H48715   7.277  -1.226   1.731 -0.0715 -0.7006  0.5654
  361MOL0     H48716   7.218  -1.169   1.572 -1.4259  0.2942  0.5505
  361MOL0     H48717   7.793  -0.253   1.415  1.2678  1.8526 -0.7456
  361MOL0     H48718   7.965  -0.106   1.431  0.6159  2.4241  0.1752
  361MOL0     H48719   7.953   0.481   1.444 -0.2112 -0.7764 -0.3802
  361MOL0     H48720   8.138   0.665   1.447  2.9648  0.2181  0.2627
  361MOL0     H48721   8.586   0.380   2.745 -1.2287 -2.8191 -0.9311
  361MOL0     H48722   8.630   0.553   2.913  0.8266 -1.5452 -1.0228
  361MOL0     H48723   8.357   0.750   3.326  1.2150 -1.3638 -0.9646
  361MOL0     H48724   8.331   0.940   3.480 -0.5064 -1.9189 -0.7152
  361MOL0     H48725   8.621   1.256   3.501 -0.8971 -1.2250  1.9687
  361MOL0     H48726   8.544   1.337   3.358  0.4824  2.0424  1.4442
  361MOL0     H48727   8.484   1.374   3.646 -1.4198 -0.5440 -0.5366
  361MOL0     H48728   8.377   1.440   3.520 -0.6625 -0.9739  0.3397
  361MOL0     H48729   8.542   1.560   3.425  1.4343 -1.0377 -0.8976
  361MOL0     H48730   8.668   1.540   3.560  0.0604  2.0144 -1.2461
  361MOL0     H48731   8.519   1.622   3.729 -3.1238 -0.1232  0.4373
  361MOL0     H48732   8.391   1.650   3.608  0.1934  2.5638  0.0047
  361MOL0     H48733   8.620   1.963   3.483  0.2621  0.0942 -0.1186
  361MOL0     H48734   8.628   1.149   3.247  0.4941 -2.3171 -1.7138
  361MOL0     H48735   8.640   0.964   3.095 -1.0082 -0.5424 -0.8456
  362MOL0     O48736   3.939   3.541   2.618  0.1745  0.7046  0.1258
  362MOL0     C48737   3.856   3.560   2.709  1.2327  0.1086 -0.1174
  362MOL0     O48738   3.745   3.480   2.730 -0.1905  0.4425 -1.1468
  362MOL0     C48739   3.720   3.358   2.659 -0.1947 -0.4680 -0.5617
  362MOL0     C48740   3.598   3.293   2.690  0.7449 -0.7236  0.4025
  362MOL0     C48741   3.577   3.161   2.640  1.0923  0.5465 -0.1339
  362MOL0     C48742   3.669   3.096   2.564  0.0260  0.0577  0.3527
  362MOL0     O48743   3.633   2.973   2.507 -0.4398 -0.2363 -0.8076
  362MOL0     C48744   3.722   2.872   2.459 -0.4694  0.8591  0.7275
  362MOL0     C48745   3.761   2.797   2.585 -0.0979  0.1373  0.6737
  362MOL0     C48746   3.879   2.847   2.675  0.0907  0.3053  0.5325
  362MOL0     C48747   3.872   2.765   2.797 -0.1964  0.6414 -0.2755
  362MOL0     C48748   3.991   2.792   2.886 -0.2145 -0.1638  0.6662
  362MOL0     C48749   3.979   2.743   3.035  0.7480 -0.2102 -0.8429
  362MOL0     C48750   4.096   2.804   3.116  0.2089 -0.1193  0.7746
  362MOL0     C48751   4.194   2.705   3.149  0.1757 -0.7257  0.9539
  362MOL0     N48752   4.277   2.768   3.258 -0.0749 -0.1726 -0.1263
  362MOL0     C48753   4.353   2.884   3.242 -0.7613 -1.5205  0.4030
  362MOL0     C48754   4.429   2.901   3.351  0.8253 -0.5680  1.0133
  362MOL0     C48755   4.522   3.008   3.400 -0.4683 -0.1477 -0.4049
  362MOL0     C48756   4.639   3.043   3.314 -0.1789  0.3933  0.3523
  362MOL0     C48757   4.755   2.944   3.290  1.0030  0.3361  1.0771
  362MOL0     C48758   4.715   2.831   3.184  0.5476  0.5087  0.6807
  362MOL0     O48759   4.835   2.758   3.155  0.5117  0.4183  0.2381
  362MOL0     C48760   4.820   2.623   3.093 -0.5866  0.4881 -0.7260
  362MOL0     C48761   4.940   2.559   3.061 -0.3646  0.3316 -0.1882
  362MOL0     C48762   4.940   2.436   2.989  0.5536 -0.4220  1.0755
  362MOL0     C48763   5.086   2.396   2.959 -0.0879  0.5130 -0.8509
  362MOL0     C48764   4.822   2.370   2.953  0.8105 -0.7707 -0.3193
  362MOL0     C48765   4.820   2.231   2.903 -0.0036  0.2596  0.1442
  362MOL0     O48766   4.705   2.171   2.919  0.2500  0.1712 -0.1729
  362MOL0     C48767   4.688   2.039   2.923 -1.1594 -1.1422  0.5603
  362MOL0     C48768   4.565   1.984   2.890  0.0162  1.2416 -0.6803
  362MOL0     C48769   4.540   1.843   2.908 -0.4388  0.7827  0.3883
  362MOL0     C48770   4.640   1.759   2.952  0.4448  0.8329  0.0694
  362MOL0     O48771   4.626   1.626   2.968 -0.1129  0.5652 -0.7541
  362MOL0     C48772   4.516   1.583   3.039  0.0424 -0.2124 -0.8540
  362MOL0     C48773   4.517   1.430   3.051 -0.3323 -0.1904  0.4951
  362MOL0     C48774   4.421   1.361   3.145  0.2186 -0.4474  0.5696
  362MOL0     C48775   4.270   1.418   3.124  0.3256 -1.1142  0.8568
  362MOL0     C48776   4.178   1.334   3.213  0.5427 -0.0641  0.3371
  362MOL0     C48777   4.033   1.381   3.223 -0.3312 -0.1073 -0.7607
  362MOL0     C48778   3.981   1.446   3.089  1.2419  0.9539 -0.1876
  362MOL0     C48779   3.849   1.521   3.129 -0.2762 -0.3667  0.0793
  362MOL0    Cl48780   3.872   1.637   3.270 -0.3284 -0.3315  0.4519
  362MOL0     C48781   4.763   1.813   2.982 -0.2812  0.4126 -0.5283
  362MOL0     C48782   4.793   1.949   2.969  0.4955 -0.9990  0.8478
  362MOL0     O48783   4.916   2.174   2.850 -0.0633 -0.7649  0.4955
  362MOL0     C48784   4.695   2.439   2.980 -0.2079  0.3035 -0.9722
  362MOL0     C48785   4.700   2.554   3.063 -0.6735 -0.8754  0.0932
  362MOL0     N48786   4.402   2.797   3.433  0.3692  0.2972  0.6410
  362MOL0     N48787   4.316   2.714   3.379  0.4979 -0.2387  0.3879
  362MOL0     C48788   3.793   3.156   2.542 -0.4437  0.0266  0.1096
  362MOL0     C48789   3.817   3.280   2.592  0.3690 -0.1000  0.6093
  362MOL0     C48790   3.872   3.663   2.808 -0.4550 -0.0913  0.2632
  362MOL0     C48791   3.952   3.772   2.776 -0.3561  0.9462 -0.1063
  362MOL0     C48792   3.955   3.886   2.865  1.1817  0.3790  1.1015
  362MOL0     C48793   3.888   3.879   2.990  0.1388 -0.7888  0.2274
  362MOL0     O48794   3.898   3.979   3.089  0.2433  0.1205  0.3498
  362MOL0     C48795   3.959   4.100   3.060  0.4198  0.7003  0.2048
  362MOL0     C48796   3.874   4.188   2.965 -0.5128  1.6054 -0.1455
  362MOL0     C48797   3.930   4.332   2.961 -0.3650  0.3539  0.0383
  362MOL0     C48798   3.873   4.420   3.069 -0.2432  0.6480  0.8939
  362MOL0     C48799   3.734   4.455   3.063  0.1207 -0.2961 -0.6460
  362MOL0     C48800   3.620   4.506   3.057 -1.1351  1.5094 -0.5822
  362MOL0     C48801   3.833   3.761   3.031  0.1735 -0.8008  0.3350
  362MOL0     C48802   3.804   3.663   2.937 -0.0709  0.1120  0.9143
  362MOL0     H48803   3.524   3.353   2.742  0.1136 -1.5869  0.5076
  362MOL0     H48804   3.479   3.119   2.655  0.4521  1.7048 -0.9078
  362MOL0     H48805   3.684   2.792   2.395  0.2053  0.6524  0.5738
  362MOL0     H48806   3.809   2.912   2.406 -1.0689 -1.4734 -2.2816
  362MOL0     H48807   3.671   2.804   2.647  0.0286  0.1385  0.8580
  362MOL0     H48808   3.774   2.690   2.567  0.0003  0.5820 -2.4188
  362MOL0     H48809   3.981   2.839   2.634  0.4488  1.6103  1.1103
  362MOL0     H48810   3.879   2.952   2.704  0.6796  0.9475 -1.5794
  362MOL0     H48811   3.781   2.780   2.856 -0.4539 -2.2721  0.1877
  362MOL0     H48812   3.878   2.661   2.765 -1.1642 -0.1086  1.8351
  362MOL0     H48813   4.077   2.738   2.846  1.5630 -0.5183  4.5239
  362MOL0     H48814   4.009   2.900   2.882 -0.5781 -0.1272 -0.2613
  362MOL0     H48815   3.886   2.782   3.078  1.1667  1.9703 -1.7742
  362MOL0     H48816   3.977   2.633   3.038 -0.0223 -0.1919 -0.5072
  362MOL0     H48817   4.139   2.888   3.061 -0.9116  0.9009  1.3957
  362MOL0     H48818   4.055   2.838   3.212 -0.5559  0.9583  0.0908
  362MOL0     H48819   4.264   2.673   3.072 -0.3312 -0.9739  0.5919
  362MOL0     H48820   4.144   2.616   3.189  0.7337 -2.3019 -1.6353
  362MOL0     H48821   4.341   2.943   3.152  0.8822 -0.4003  0.8770
  362MOL0     H48822   4.465   3.101   3.392  1.2316  1.1601  1.6223
  362MOL0     H48823   4.544   2.998   3.507 -0.6515  1.0006 -0.2494
  362MOL0     H48824   4.675   3.130   3.370 -1.0344 -0.0434  1.6449
  362MOL0     H48825   4.601   3.071   3.216  1.7501 -0.4197 -0.6699
  362MOL0     H48826   4.778   2.891   3.383 -0.1953  0.3224  1.3922
  362MOL0     H48827   4.837   3.013   3.268  4.1089 -3.4610 -0.3468
  362MOL0     H48828   4.668   2.873   3.095 -1.6506  0.0066  1.5328
  362MOL0     H48829   4.637   2.767   3.227 -1.2412  2.3309  0.3162
  362MOL0     H48830   5.028   2.620   3.082 -0.0734 -0.4676  1.0325
  362MOL0     H48831   5.118   2.435   2.861  0.7980 -1.5376 -1.4335
  362MOL0     H48832   5.151   2.418   3.044  2.2147 -4.7732 -0.8791
  362MOL0     H48833   5.104   2.288   2.950  1.9895  0.9214 -2.2822
  362MOL0     H48834   4.473   2.037   2.868  0.5333  2.3961 -0.1574
  362MOL0     H48835   4.439   1.808   2.888 -2.0268  4.3401  1.3769
  362MOL0     H48836   4.525   1.631   3.137 -0.1947 -0.7418 -0.5749
  362MOL0     H48837   4.424   1.601   2.983  0.1971 -1.9422 -1.7185
  362MOL0     H48838   4.513   1.394   2.947  3.0835 -1.3127  0.6287
  362MOL0     H48839   4.616   1.389   3.071  0.1486 -0.6071 -2.2318
  362MOL0     H48840   4.454   1.394   3.244 -0.4699 -2.3568  1.4992
  362MOL0     H48841   4.423   1.251   3.150  4.8328 -0.4971  2.2496
  362MOL0     H48842   4.267   1.525   3.146  0.2735  0.0767 -3.7996
  362MOL0     H48843   4.255   1.410   3.016  1.3181  3.2259  0.2350
  362MOL0     H48844   4.221   1.343   3.313  1.0895  2.2568 -0.0298
  362MOL0     H48845   4.173   1.228   3.185  0.8380 -0.3877  1.4935
  362MOL0     H48846   3.969   1.297   3.252 -0.2858 -0.3731 -1.4144
  362MOL0     H48847   4.037   1.449   3.308  0.9267 -2.2460  0.9658
  362MOL0     H48848   3.955   1.371   3.014  1.0633 -2.7729  3.2572
  362MOL0     H48849   4.048   1.521   3.046  2.5884  0.2822  0.6836
  362MOL0     H48850   3.783   1.439   3.158  0.8079 -0.5838  2.1357
  362MOL0     H48851   3.794   1.568   3.047  1.0007  0.7123 -0.2074
  362MOL0     H48852   4.828   1.731   3.010  0.2111  1.0360  0.1869
  362MOL0     H48853   4.895   1.980   2.990  1.5930 -3.2505 -0.6688
  362MOL0     H48854   4.611   2.377   2.953 -1.0004  0.0900  1.6943
  362MOL0     H48855   4.604   2.594   3.095  1.0427  1.6348  2.6263
  362MOL0     H48856   3.869   3.107   2.483 -0.2053 -0.8910  1.1361
  362MOL0     H48857   3.921   3.307   2.582  1.7896 -4.1036  2.4917
  362MOL0     H48858   4.009   3.773   2.684 -2.4400  1.8297 -1.4674
  362MOL0     H48859   4.003   3.980   2.839  2.4519 -0.2734  0.9898
  362MOL0     H48860   3.978   4.147   3.157 -2.7567  1.7171  0.4836
  362MOL0     H48861   4.055   4.083   3.012  0.0437  0.6384 -0.5380
  362MOL0     H48862   3.770   4.178   2.997 -0.4503  1.3831 -0.0127
  362MOL0     H48863   3.865   4.154   2.862  1.2989  0.8024 -0.0888
  362MOL0     H48864   3.903   4.371   2.862 -3.9436  0.6609  1.0222
  362MOL0     H48865   4.039   4.322   2.962 -0.2664 -1.4188 -4.4937
  362MOL0     H48866   3.944   4.503   3.066  2.3839 -1.4879 -0.5827
  362MOL0     H48867   3.878   4.376   3.169  0.1099 -1.5586 -0.0288
  362MOL0     H48868   3.517   4.535   3.058 -1.4276  0.5273 -0.7284
  362MOL0     H48869   3.780   3.767   3.126 -4.8588  0.1377 -2.2040
  362MOL0     H48870   3.729   3.586   2.952 -1.0955  0.1908 -2.8711
  363MOL0     O48871  10.540   9.416   6.076  0.4798  0.3513  0.3745
  363MOL0     C48872  10.512   9.521   6.131 -0.6738  0.3653 -0.1239
  363MOL0     O48873  10.439   9.621   6.066 -0.5285  0.0812 -0.1189
  363MOL0     C48874  10.400   9.583   5.938  0.7545 -1.2336 -0.7863
  363MOL0     C48875  10.500   9.570   5.839  0.9123  0.4452 -0.7263
  363MOL0     C48876  10.460   9.557   5.707 -0.2600 -0.1770 -0.5267
  363MOL0     C48877  10.331   9.557   5.675  0.6519 -0.4354  0.2723
  363MOL0     O48878  10.292   9.559   5.540 -0.3997 -0.9548  0.1267
  363MOL0     C48879  10.357   9.661   5.459 -0.0043 -0.9445 -0.1107
  363MOL0     C48880  10.258   9.676   5.347  0.6117  0.4524  0.0089
  363MOL0     C48881  10.294   9.811   5.271  1.3618  0.8481  0.9272
  363MOL0     C48882  10.183   9.839   5.173 -0.7586  0.1959 -1.1429
  363MOL0     C48883  10.183   9.984   5.116  0.0007 -0.0974 -0.4533
  363MOL0     C48884  10.095   9.999   4.987  0.4271  0.7725 -0.3059
  363MOL0     C48885   9.957   9.942   5.021  0.2775 -0.3201 -0.3209
  363MOL0     C48886   9.834   9.997   4.952 -0.6912 -0.1243  1.2434
  363MOL0     N48887   9.718   9.928   5.012 -0.0902 -0.6267 -0.7025
  363MOL0     C48888   9.689   9.790   5.015  0.9050 -0.4260  0.3127
  363MOL0     C48889   9.563   9.777   5.056  0.0962 -0.7184 -0.1571
  363MOL0     C48890   9.484   9.650   5.059 -0.8474  0.1961  0.1054
  363MOL0     C48891   9.375   9.666   4.959  0.7735  0.0853  0.7576
  363MOL0     C48892   9.409   9.730   4.823  0.5275 -0.3816 -0.3576
  363MOL0     C48893   9.294   9.727   4.723 -0.0283 -0.7923 -1.4853
  363MOL0     O48894   9.342   9.788   4.606  0.8579 -0.4478  0.0836
  363MOL0     C48895   9.302   9.746   4.484 -0.6450 -0.5965 -0.4139
  363MOL0     C48896   9.195   9.668   4.460  0.9681 -0.4879 -0.6492
  363MOL0     C48897   9.150   9.619   4.331 -0.2520 -1.4150 -0.8215
  363MOL0     C48898   9.018   9.533   4.326 -0.9878 -0.0647  0.1637
  363MOL0     C48899   9.223   9.671   4.222  0.0441  1.4818 -0.0699
  363MOL0     C48900   9.204   9.608   4.084  0.5266 -0.3843 -0.0374
  363MOL0     O48901   9.276   9.675   3.988  0.0043  0.7021 -0.5508
  363MOL0     C48902   9.286   9.626   3.858  0.3516  0.3389 -0.1366
  363MOL0     C48903   9.309   9.491   3.823  0.3460  1.1160  0.5464
  363MOL0     C48904   9.332   9.446   3.697  0.1999 -0.3753 -0.7524
  363MOL0     C48905   9.339   9.533   3.592  0.7481 -0.5302  0.0009
  363MOL0     O48906   9.358   9.476   3.472  0.6543  0.1780 -0.6658
  363MOL0     C48907   9.447   9.534   3.372  0.1225 -0.3896  0.6526
  363MOL0     C48908   9.516   9.423   3.300 -1.0934  0.1964  0.1681
  363MOL0     C48909   9.598   9.459   3.172 -0.5917 -0.1535  0.0804
  363MOL0     C48910   9.555   9.582   3.092 -0.9086 -0.4588 -0.1035
  363MOL0     C48911   9.631   9.601   2.961  0.8051 -0.3116  0.6818
  363MOL0     C48912   9.785   9.582   2.976  0.5192 -0.0734 -0.0830
  363MOL0     C48913   9.851   9.640   2.843 -0.2046 -0.1412 -0.0358
  363MOL0     C48914   9.851   9.794   2.824 -0.4247  0.5076 -0.2214
  363MOL0    Cl48915   9.981   9.839   2.934 -0.5722  0.0702  0.1096
  363MOL0     C48916   9.316   9.672   3.615  0.5748 -0.4165  0.1113
  363MOL0     C48917   9.288   9.716   3.748  0.7610 -0.0873  0.2168
  363MOL0     O48918   9.142   9.504   4.074  0.3242  0.4237 -0.1520
  363MOL0     C48919   9.328   9.758   4.242 -0.3824  0.9111  1.1829
  363MOL0     C48920   9.369   9.795   4.372  0.7819  0.2674  0.5075
  363MOL0     N48921   9.524   9.903   5.104 -0.2719 -0.7794  0.8759
  363MOL0     N48922   9.613   9.993   5.071 -0.1397 -0.4497  0.3468
  363MOL0     C48923  10.233   9.565   5.773  0.1646 -0.0787 -0.0716
  363MOL0     C48924  10.262   9.582   5.905  0.4021  0.5112 -0.2038
  363MOL0     C48925  10.578   9.550   6.263 -0.3233  0.2437  0.0369
  363MOL0     C48926  10.549   9.668   6.334  0.8930  1.7922 -0.6040
  363MOL0     C48927  10.605   9.702   6.462 -0.4544 -0.2702  0.7835
  363MOL0     C48928  10.699   9.613   6.512  1.5752 -0.0816 -0.2494
  363MOL0     O48929  10.772   9.634   6.628  0.1830 -0.2498  0.6817
  363MOL0     C48930  10.735   9.741   6.715  0.2152 -0.4394 -0.0712
  363MOL0     C48931  10.829   9.742   6.830 -0.0595 -0.2583 -0.5759
  363MOL0     C48932  10.973   9.717   6.788  0.3529  0.2057  0.4153
  363MOL0     C48933  11.046   9.846   6.720 -0.3277 -0.3968  0.1477
  363MOL0     C48934  11.058   9.964   6.812  0.3417  0.4041  0.6144
  363MOL0     C48935  11.071  10.052   6.893 -1.0618  0.2161  0.4703
  363MOL0     C48936  10.735   9.499   6.442  0.2835  0.5767  0.9467
  363MOL0     C48937  10.673   9.467   6.322  0.6967 -0.5370 -0.2151
  363MOL0     H48938  10.603   9.588   5.869  1.1617  0.9785 -1.8642
  363MOL0     H48939  10.541   9.544   5.637 -1.8592 -1.8653 -2.1800
  363MOL0     H48940  10.360   9.755   5.515 -0.3340  1.6024 -4.0065
  363MOL0     H48941  10.461   9.641   5.433 -0.0547 -0.3269 -0.8244
  363MOL0     H48942  10.267   9.587   5.283 -0.0827 -1.3918  2.3456
  363MOL0     H48943  10.153   9.677   5.377  0.9599  1.9079  1.2851
  363MOL0     H48944  10.292   9.881   5.356  2.5144 -0.0556  1.7231
  363MOL0     H48945  10.388   9.820   5.216  1.9850  1.5871  2.0562
  363MOL0     H48946  10.197   9.775   5.086 -0.2249 -0.7288 -0.4043
  363MOL0     H48947  10.088   9.821   5.224  0.2755 -1.9817  0.1682
  363MOL0     H48948  10.140  10.060   5.182  1.2788  1.3744 -1.2613
  363MOL0     H48949  10.289  10.004   5.098 -0.1954  0.5149 -0.9538
  363MOL0     H48950  10.090  10.107   4.974 -1.5160  0.5862 -1.5217
  363MOL0     H48951  10.133   9.948   4.898 -0.5678 -0.0542 -0.2876
  363MOL0     H48952   9.963   9.833   5.011  1.8573 -0.1788 -1.2139
  363MOL0     H48953   9.933   9.963   5.126 -0.6045 -3.9891  0.3475
  363MOL0     H48954   9.837   9.980   4.844 -2.2050  0.9462  0.9992
  363MOL0     H48955   9.806  10.103   4.959 -0.0706  0.0801  0.7678
  363MOL0     H48956   9.741   9.704   4.973  0.6792 -0.9629  1.1063
  363MOL0     H48957   9.548   9.564   5.041 -0.6034 -0.3557  3.0801
  363MOL0     H48958   9.432   9.630   5.153 -2.1089 -2.6119 -1.0902
  363MOL0     H48959   9.309   9.738   5.009  1.4764  2.1574 -1.1743
  363MOL0     H48960   9.332   9.568   4.935  6.1579 -2.0732 -1.6852
  363MOL0     H48961   9.498   9.680   4.783  0.6059  0.1200 -0.8205
  363MOL0     H48962   9.438   9.834   4.840  1.3246 -0.7404  0.6002
  363MOL0     H48963   9.207   9.768   4.775  0.9268 -0.7802  0.1664
  363MOL0     H48964   9.279   9.622   4.699 -0.1576 -1.5088  1.3765
  363MOL0     H48965   9.131   9.619   4.533  2.2431 -2.1563 -0.5939
  363MOL0     H48966   8.948   9.565   4.248 -0.2317  1.8492  0.2394
  363MOL0     H48967   9.036   9.428   4.299  0.8729  0.4115 -0.5927
  363MOL0     H48968   8.956   9.554   4.413 -1.9760  0.2678 -0.5932
  363MOL0     H48969   9.326   9.424   3.907  1.2971  1.0988  0.3478
  363MOL0     H48970   9.351   9.339   3.691  0.6799 -0.2035 -3.8041
  363MOL0     H48971   9.379   9.573   3.296  0.8553  0.1814  0.2714
  363MOL0     H48972   9.512   9.615   3.407  2.0070 -0.4640 -2.3201
  363MOL0     H48973   9.593   9.393   3.371  0.3233 -1.8316 -2.0672
  363MOL0     H48974   9.448   9.342   3.269  1.6111 -1.3988 -2.1007
  363MOL0     H48975   9.584   9.373   3.107 -0.2565  1.0079 -1.5984
  363MOL0     H48976   9.706   9.458   3.185  0.6002  1.9303 -6.3919
  363MOL0     H48977   9.447   9.588   3.076 -0.7284  0.4511 -1.1043
  363MOL0     H48978   9.584   9.662   3.162  0.4988 -1.4259  0.4677
  363MOL0     H48979   9.598   9.689   2.904  2.2052  0.8485  1.5755
  363MOL0     H48980   9.597   9.522   2.894  1.0912  1.6691 -1.9906
  363MOL0     H48981   9.809   9.633   3.069 -5.1824  0.8713  1.2428
  363MOL0     H48982   9.807   9.475   2.982  2.0916  0.3243  2.4787
  363MOL0     H48983   9.810   9.602   2.749 -3.3166  1.1536  0.6914
  363MOL0     H48984   9.956   9.610   2.855  0.5332  1.6538 -1.5216
  363MOL0     H48985   9.752   9.831   2.852  1.1574  3.1237  2.5081
  363MOL0     H48986   9.876   9.815   2.720 -0.4461 -0.7950 -0.4980
  363MOL0     H48987   9.300   9.742   3.533  0.4418  0.9013  1.2290
  363MOL0     H48988   9.282   9.819   3.780 -3.3067 -0.0721 -0.1555
  363MOL0     H48989   9.393   9.770   4.156 -2.6335  2.1485 -0.4300
  363MOL0     H48990   9.454   9.858   4.396 -0.5014  1.7270  1.4141
  363MOL0     H48991  10.136   9.571   5.726  0.9057  3.5663 -1.3996
  363MOL0     H48992  10.182   9.589   5.978 -2.0543 -0.3434 -2.6434
  363MOL0     H48993  10.473   9.737   6.298 -3.1973 -2.3754 -0.8728
  363MOL0     H48994  10.585   9.797   6.510  2.6584  1.4056 -0.8984
  363MOL0     H48995  10.745   9.838   6.665 -0.3375 -0.0036  0.6426
  363MOL0     H48996  10.627   9.737   6.737  0.5878 -1.7787  1.7408
  363MOL0     H48997  10.792   9.667   6.900  0.9438  0.6612  0.9916
  363MOL0     H48998  10.829   9.840   6.877 -0.2553 -0.2975 -0.4935
  363MOL0     H48999  10.974   9.632   6.719 -2.6164 -1.0214  1.7107
  363MOL0     H49000  11.044   9.686   6.865 -0.5207 -2.7111  0.1979
  363MOL0     H49001  10.997   9.871   6.625  0.0603  2.2440  0.5714
  363MOL0     H49002  11.144   9.813   6.684  1.0326  2.6739  0.7504
  363MOL0     H49003  11.081  10.129   6.967  0.8531 -1.2563  1.8416
  363MOL0     H49004  10.815   9.429   6.467 -0.7621 -1.8768 -1.9342
  363MOL0     H49005  10.711   9.376   6.275 -1.6895 -0.6115 -2.1990
  364MOL0     O49006   1.730   6.031   6.275  0.7422 -1.1369 -0.5172
  364MOL0     C49007   1.771   6.088   6.170  0.5296 -1.2077  0.4626
  364MOL0     O49008   1.867   6.034   6.083 -0.5029 -0.1487 -0.2254
  364MOL0     C49009   1.918   5.909   6.103 -0.0630  0.2389  0.0905
  364MOL0     C49010   1.899   5.796   6.019  0.9295 -0.6773  0.6436
  364MOL0     C49011   1.966   5.680   6.043  0.7874  0.0152 -0.0620
  364MOL0     C49012   2.048   5.659   6.159  0.9797 -1.1731 -0.5335
  364MOL0     O49013   2.105   5.535   6.169 -0.1625 -0.8210 -0.3130
  364MOL0     C49014   2.212   5.524   6.263 -1.3065  0.4787  0.5200
  364MOL0     C49015   2.178   5.436   6.392  0.0733 -0.3766  0.4736
  364MOL0     C49016   2.129   5.286   6.360  0.2162  0.1851  0.0874
  364MOL0     C49017   2.239   5.181   6.341 -0.0645  0.3219 -0.4750
  364MOL0     C49018   2.169   5.045   6.364  0.3206  0.6775 -0.4420
  364MOL0     C49019   2.268   4.934   6.392 -0.7103  0.1194 -1.2322
  364MOL0     C49020   2.202   4.830   6.495  1.0912  0.4853 -0.2569
  364MOL0     C49021   2.220   4.863   6.642  0.7417  0.3306 -0.0655
  364MOL0     N49022   2.137   4.765   6.714 -0.3275  0.0210  0.3760
  364MOL0     C49023   2.191   4.652   6.771  0.8052  1.0342 -0.0426
  364MOL0     C49024   2.088   4.600   6.855  0.3137  0.2852 -0.1740
  364MOL0     C49025   2.080   4.463   6.933  0.6873 -0.2885  1.1218
  364MOL0     C49026   2.156   4.465   7.066 -0.1436  0.0977  0.5360
  364MOL0     C49027   2.098   4.557   7.169 -0.0825  0.1565  0.2685
  364MOL0     C49028   1.944   4.531   7.191  0.2149  0.7158 -0.5015
  364MOL0     O49029   1.910   4.592   7.321 -0.7505 -0.1641  1.0040
  364MOL0     C49030   1.827   4.697   7.302 -0.0469 -0.2284 -0.5908
  364MOL0     C49031   1.687   4.695   7.299  0.1393  0.2611  0.2710
  364MOL0     C49032   1.609   4.810   7.295 -1.0187 -0.0063  0.5145
  364MOL0     C49033   1.465   4.798   7.284  0.9833  0.0317 -0.1643
  364MOL0     C49034   1.677   4.942   7.296  0.7090  0.6153 -0.2656
  364MOL0     C49035   1.605   5.074   7.288  0.7052  0.4556  0.3033
  364MOL0     O49036   1.683   5.175   7.241 -0.4496  0.2119 -0.0030
  364MOL0     C49037   1.654   5.306   7.271  1.4838  0.1916  0.5846
  364MOL0     C49038   1.691   5.349   7.401  0.4674  0.0397  0.9101
  364MOL0     C49039   1.672   5.483   7.428 -0.3593  0.1830 -0.2099
  364MOL0     C49040   1.614   5.576   7.337  0.8480  0.2706  1.0953
  364MOL0     O49041   1.592   5.711   7.368  0.4901  0.2157 -0.5965
  364MOL0     C49042   1.587   5.750   7.504  0.1862 -0.3248 -0.6211
  364MOL0     C49043   1.538   5.894   7.528  0.2461 -0.5753 -0.1777
  364MOL0     C49044   1.381   5.917   7.517 -0.8347  0.0037  0.2349
  364MOL0     C49045   1.295   5.899   7.656  0.0861 -0.0048 -0.1532
  364MOL0     C49046   1.137   5.901   7.641  0.5238  0.3951 -0.0016
  364MOL0     C49047   1.088   6.045   7.635  0.4109 -0.3635 -0.7202
  364MOL0     C49048   0.934   6.053   7.637 -0.8117  0.1502 -0.0287
  364MOL0     C49049   0.893   6.201   7.614  0.3388 -0.6381 -0.2338
  364MOL0    Cl49050   0.947   6.285   7.759 -0.1390 -0.0094  0.1232
  364MOL0     C49051   1.585   5.534   7.202  0.3327 -0.0473  1.1390
  364MOL0     C49052   1.606   5.394   7.173 -0.9208  0.2757 -0.5337
  364MOL0     O49053   1.485   5.088   7.316  0.6741  0.0745  0.6815
  364MOL0     C49054   1.817   4.938   7.302  0.6959 -0.8490 -0.1822
  364MOL0     C49055   1.886   4.815   7.308  0.3380 -1.5893 -0.1921
  364MOL0     N49056   1.979   4.684   6.836  0.0967 -0.9217  0.7620
  364MOL0     N49057   2.014   4.785   6.762  0.3195  0.3007  0.0820
  364MOL0     C49058   2.056   5.762   6.249 -0.2829  0.3055 -0.6815
  364MOL0     C49059   2.008   5.885   6.218 -0.0728 -0.4909 -0.4174
  364MOL0     C49060   1.739   6.227   6.149 -0.3964  0.2729  0.2280
  364MOL0     C49061   1.660   6.293   6.242  0.1280  0.5441  0.1888
  364MOL0     C49062   1.640   6.428   6.228  0.3521  0.4990  0.5368
  364MOL0     C49063   1.685   6.503   6.118  0.0854 -0.6934 -0.4110
  364MOL0     O49064   1.650   6.635   6.075 -0.7099  0.4393 -0.0496
  364MOL0     C49065   1.510   6.657   6.091 -0.5901  0.1197  0.3777
  364MOL0     C49066   1.473   6.792   6.022  0.5621  0.6753 -0.0806
  364MOL0     C49067   1.487   6.786   5.867 -0.6932 -0.1158  0.6333
  364MOL0     C49068   1.426   6.906   5.796 -0.3966 -0.6345  0.5494
  364MOL0     C49069   1.499   7.020   5.844 -0.9689 -0.6782 -0.6523
  364MOL0     C49070   1.551   7.128   5.884  0.6767  0.6944 -0.1087
  364MOL0     C49071   1.771   6.426   6.027  0.0976 -0.1319  0.5710
  364MOL0     C49072   1.809   6.296   6.043 -0.5284 -0.2692  0.1240
  364MOL0     H49073   1.824   5.811   5.942 -1.9930  0.1832  3.4944
  364MOL0     H49074   1.940   5.596   5.980 -0.1407  2.4548 -3.1869
  364MOL0     H49075   2.276   5.454   6.208  0.8939  0.6593  2.7063
  364MOL0     H49076   2.268   5.615   6.287  2.2236 -1.5579  0.7159
  364MOL0     H49077   2.274   5.436   6.444  1.2009  1.3215 -1.4449
  364MOL0     H49078   2.100   5.489   6.447 -0.2080 -0.0241 -0.2586
  364MOL0     H49079   2.054   5.253   6.432  2.3293 -3.8158  0.7104
  364MOL0     H49080   2.074   5.286   6.265  3.1425  0.3683 -1.7435
  364MOL0     H49081   2.304   5.202   6.256  1.6232  1.4251  1.0245
  364MOL0     H49082   2.310   5.188   6.423 -1.0218 -2.4524  0.7057
  364MOL0     H49083   2.104   5.057   6.451 -1.1162  2.5930 -1.7024
  364MOL0     H49084   2.099   5.025   6.283  1.4145  2.6228 -1.9438
  364MOL0     H49085   2.300   4.883   6.300  3.6367  1.4804 -0.7001
  364MOL0     H49086   2.359   4.980   6.431 -2.0910  1.0513  1.1358
  364MOL0     H49087   2.104   4.794   6.463  2.7626 -4.5774 -0.5773
  364MOL0     H49088   2.263   4.739   6.497 -0.0576 -0.2952  0.3590
  364MOL0     H49089   2.174   4.960   6.663  1.2231  0.6998 -0.6670
  364MOL0     H49090   2.327   4.861   6.668  0.7486 -0.3739 -0.1428
  364MOL0     H49091   2.285   4.601   6.752  1.9073  3.2420 -0.9173
  364MOL0     H49092   1.981   4.417   6.936  1.3023 -1.6005  2.2998
  364MOL0     H49093   2.131   4.402   6.858  1.4497 -0.7926  2.0238
  364MOL0     H49094   2.262   4.491   7.056 -0.0421  0.0587  1.4602
  364MOL0     H49095   2.160   4.360   7.097 -1.1616  0.1646  0.9448
  364MOL0     H49096   2.118   4.659   7.135  3.6639 -1.0633 -1.7936
  364MOL0     H49097   2.152   4.545   7.263  3.8984 -0.5352 -1.8744
  364MOL0     H49098   1.916   4.426   7.179 -0.3857  1.1672 -3.6880
  364MOL0     H49099   1.889   4.583   7.112 -2.2166  2.5291  2.1846
  364MOL0     H49100   1.643   4.596   7.296 -0.2292  0.4459 -2.3672
  364MOL0     H49101   1.433   4.694   7.276 -0.2342  0.5015 -1.9701
  364MOL0     H49102   1.409   4.834   7.371  1.8157  0.8299  0.0512
  364MOL0     H49103   1.440   4.849   7.191  1.3969  0.7812  0.1290
  364MOL0     H49104   1.747   5.280   7.464  1.2728 -1.4768 -1.3458
  364MOL0     H49105   1.703   5.515   7.527 -0.2036 -0.0014 -0.1989
  364MOL0     H49106   1.529   5.687   7.572 -0.7255  2.4465  1.3603
  364MOL0     H49107   1.689   5.738   7.543 -1.0080  0.7373  3.2465
  364MOL0     H49108   1.564   5.934   7.627 -0.8810  1.7758 -0.7709
  364MOL0     H49109   1.599   5.957   7.464  1.4255  0.0203  1.4460
  364MOL0     H49110   1.329   5.850   7.447 -4.5760  0.2033  2.5192
  364MOL0     H49111   1.361   6.018   7.481  1.8143 -0.1813 -2.0394
  364MOL0     H49112   1.321   5.802   7.700 -2.0116 -0.6988 -0.3431
  364MOL0     H49113   1.332   5.977   7.723  2.6794  1.0253 -2.5808
  364MOL0     H49114   1.083   5.841   7.714  0.1934  0.8360  0.1166
  364MOL0     H49115   1.095   5.848   7.555 -1.2400  1.5733  0.0840
  364MOL0     H49116   1.129   6.109   7.715 -1.0521  3.2783 -2.6204
  364MOL0     H49117   1.123   6.094   7.544 -1.6139  2.7568 -0.0192
  364MOL0     H49118   0.883   6.002   7.720  1.7909 -1.6419  0.6167
  364MOL0     H49119   0.914   5.995   7.546  4.6822 -3.8337  0.7565
  364MOL0     H49120   0.784   6.202   7.616  0.3433 -0.1416  2.0215
  364MOL0     H49121   0.936   6.252   7.528 -2.0538 -2.3291 -2.5982
  364MOL0     H49122   1.544   5.612   7.137 -1.2884 -1.5753  0.2421
  364MOL0     H49123   1.591   5.360   7.071  3.4644 -1.2198 -0.8966
  364MOL0     H49124   1.877   5.026   7.321  0.2679  0.7150 -4.8383
  364MOL0     H49125   1.994   4.816   7.322  0.5039  1.9468 -0.8613
  364MOL0     H49126   2.111   5.760   6.343  1.6698 -0.6726 -1.7647
  364MOL0     H49127   2.022   5.962   6.294 -4.2065  1.0461 -0.9753
  364MOL0     H49128   1.600   6.225   6.301  0.7204 -0.4013 -0.2687
  364MOL0     H49129   1.578   6.479   6.301 -0.3338  1.3626 -0.6134
  364MOL0     H49130   1.455   6.572   6.050 -0.4949  1.4062 -2.6647
  364MOL0     H49131   1.474   6.665   6.194  0.6154  3.4606  0.6628
  364MOL0     H49132   1.540   6.865   6.069  0.2297  2.1979 -1.8392
  364MOL0     H49133   1.370   6.814   6.052  0.7870  2.0519 -0.2392
  364MOL0     H49134   1.443   6.691   5.837 -1.9791 -0.0254  2.1051
  364MOL0     H49135   1.594   6.775   5.849 -0.9243 -2.5083  0.4068
  364MOL0     H49136   1.319   6.905   5.817 -0.4849 -0.3003  0.1515
  364MOL0     H49137   1.444   6.926   5.689  1.3502  3.1225  1.3586
  364MOL0     H49138   1.580   7.220   5.930 -0.4849  2.5440 -2.8493
  364MOL0     H49139   1.808   6.464   5.932 -0.6145  0.6941  0.6107
  364MOL0     H49140   1.884   6.247   5.982 -0.5336 -0.2913  0.1352
  365MOL0     O49141   4.886   9.360   3.557 -0.0968  0.1344 -0.0610
  365MOL0     C49142   4.994   9.410   3.585  0.1797 -0.4049  0.1679
  365MOL0     O49143   5.021   9.544   3.595 -0.3002  0.8338 -0.2317
  365MOL0     C49144   4.927   9.631   3.552  0.8267  0.0309  0.7930
  365MOL0     C49145   4.800   9.638   3.612  0.4824 -0.0827 -0.9806
  365MOL0     C49146   4.714   9.752   3.595  0.4893  0.5192  0.7259
  365MOL0     C49147   4.755   9.850   3.494  0.2692 -0.1300 -0.7228
  365MOL0     O49148   4.684   9.958   3.462 -0.0830  0.4218  0.1941
  365MOL0     C49149   4.565   9.993   3.530 -0.3159 -0.8138  0.6342
  365MOL0     C49150   4.581  10.056   3.668  0.0790 -0.5774 -0.1274
  365MOL0     C49151   4.656  10.181   3.647 -0.8786 -0.0148 -0.6932
  365MOL0     C49152   4.633  10.273   3.772 -0.5428 -0.1494 -0.5575
  365MOL0     C49153   4.740  10.383   3.790 -0.1035  0.3376 -0.1092
  365MOL0     C49154   4.742  10.435   3.928 -0.4879  0.7990 -0.1688
  365MOL0     C49155   4.867  10.505   3.980 -0.0037  0.3111  0.8332
  365MOL0     C49156   4.982  10.407   4.014 -0.0627 -0.0890 -0.5275
  365MOL0     N49157   4.988  10.390   4.159 -0.1592 -0.5485  0.4001
  365MOL0     C49158   5.008  10.488   4.251  0.1930  0.5318  0.0536
  365MOL0     C49159   4.986  10.434   4.374 -0.3347 -1.1179  0.4199
  365MOL0     C49160   4.981  10.482   4.514 -0.2884  0.6855 -0.3388
  365MOL0     C49161   4.999  10.630   4.539 -0.4259  0.3236  0.2181
  365MOL0     C49162   5.006  10.648   4.690 -0.6221  0.0970  0.7737
  365MOL0     C49163   5.151  10.636   4.738  0.3183 -0.4519  0.2241
  365MOL0     O49164   5.146  10.650   4.883 -0.2755 -0.0371 -0.3325
  365MOL0     C49165   5.264  10.671   4.947 -0.0120 -0.1522  0.1615
  365MOL0     C49166   5.390  10.633   4.911  0.2472  0.1642 -0.3424
  365MOL0     C49167   5.502  10.653   4.988  0.7581  0.8519  0.4973
  365MOL0     C49168   5.637  10.628   4.917  0.1113  0.3199 -0.1641
  365MOL0     C49169   5.487  10.704   5.121  1.0906 -0.1476 -0.6053
  365MOL0     C49170   5.590  10.734   5.218 -0.3962 -0.6699 -0.0557
  365MOL0     O49171   5.556  10.796   5.332  0.4977  0.0054 -0.0950
  365MOL0     C49172   5.651  10.803   5.428 -0.0514 -0.6373 -0.9662
  365MOL0     C49173   5.741  10.908   5.445 -0.2745 -0.2840  0.0519
  365MOL0     C49174   5.835  10.911   5.541 -0.2470 -0.1830 -0.2402
  365MOL0     C49175   5.823  10.825   5.652 -1.0392  0.2099 -0.2668
  365MOL0     O49176   5.907  10.854   5.756  0.0708 -0.8048  0.0844
  365MOL0     C49177   5.957  10.750   5.847 -0.2904 -0.3798  0.5898
  365MOL0     C49178   6.067  10.674   5.765 -0.2435  1.2079 -0.6535
  365MOL0     C49179   6.170  10.781   5.723 -0.7165  0.0374  0.0032
  365MOL0     C49180   6.259  10.846   5.842  0.5849  0.4119  0.0984
  365MOL0     C49181   6.345  10.738   5.911  0.0888 -0.2854 -0.7644
  365MOL0     C49182   6.408  10.800   6.038 -0.6584  0.0882  0.7039
  365MOL0     C49183   6.550  10.740   6.071 -0.2573 -0.5941 -0.5643
  365MOL0     C49184   6.665  10.840   6.116 -0.4806  0.3610  1.8800
  365MOL0    Cl49185   6.623  10.913   6.261  0.4299  0.1266 -0.8696
  365MOL0     C49186   5.737  10.714   5.647  0.5577 -0.4405  0.4853
  365MOL0     C49187   5.662  10.704   5.529  0.3677 -0.0465  0.5035
  365MOL0     O49188   5.693  10.677   5.194 -0.2290  0.3526  0.2136
  365MOL0     C49189   5.358  10.746   5.155  1.5271  1.0094 -0.0139
  365MOL0     C49190   5.250  10.724   5.074  1.4427  0.7308 -0.1931
  365MOL0     N49191   4.980  10.298   4.347 -0.0275 -0.2280  0.2488
  365MOL0     N49192   4.971  10.275   4.225  0.0468 -0.4157 -0.3747
  365MOL0     C49193   4.859   9.825   3.411  0.3703  0.9820 -0.4406
  365MOL0     C49194   4.942   9.708   3.437  0.4906 -0.2265 -0.4659
  365MOL0     C49195   5.100   9.316   3.628  0.2109  0.0455  1.1433
  365MOL0     C49196   5.235   9.363   3.663 -0.4907  0.3560  0.5892
  365MOL0     C49197   5.343   9.269   3.691  0.4639  0.0070 -0.2127
  365MOL0     C49198   5.315   9.131   3.691 -1.4817 -0.6309  0.4013
  365MOL0     O49199   5.409   9.033   3.715  0.3049 -0.3358 -0.2996
  365MOL0     C49200   5.544   9.070   3.745 -0.6654  0.4120 -0.5816
  365MOL0     C49201   5.607   8.932   3.804  0.1271  0.3379 -0.1580
  365MOL0     C49202   5.590   8.808   3.719 -0.1660  0.7524 -0.0138
  365MOL0     C49203   5.648   8.678   3.773 -0.4388 -0.1347 -0.7463
  365MOL0     C49204   5.596   8.544   3.727 -0.2443 -0.0524  0.7817
  365MOL0     C49205   5.564   8.437   3.697 -0.9218 -0.0641  0.1577
  365MOL0     C49206   5.187   9.092   3.660  0.5000 -0.6645 -1.2065
  365MOL0     C49207   5.081   9.179   3.644 -0.0743 -0.2417 -0.5877
  365MOL0     H49208   4.764   9.565   3.684 -1.5031  0.0796 -1.7496
  365MOL0     H49209   4.623   9.777   3.650  1.7607  1.5146  2.4806
  365MOL0     H49210   4.525  10.062   3.455  1.8683 -0.8148 -0.6206
  365MOL0     H49211   4.502   9.906   3.550  0.5055 -0.9113  3.0062
  365MOL0     H49212   4.479  10.067   3.707  0.4176  2.3782  0.1708
  365MOL0     H49213   4.635   9.992   3.737 -0.8546 -1.0023  0.2193
  365MOL0     H49214   4.763  10.155   3.644 -0.8426 -0.1979  1.1807
  365MOL0     H49215   4.625  10.236   3.558 -0.9960 -0.6210 -1.0343
  365MOL0     H49216   4.530  10.305   3.755 -1.1061 -1.3095  0.5076
  365MOL0     H49217   4.633  10.213   3.864  1.2987  1.5300  0.6208
  365MOL0     H49218   4.841  10.355   3.757  0.9368  1.3051  2.0684
  365MOL0     H49219   4.707  10.462   3.722 -0.3527 -1.2758 -1.9407
  365MOL0     H49220   4.662  10.506   3.954 -0.9301 -0.2117  1.3896
  365MOL0     H49221   4.725  10.349   3.994 -2.0303 -0.5245 -2.1511
  365MOL0     H49222   4.898  10.578   3.905  1.2527 -0.3143  0.6991
  365MOL0     H49223   4.842  10.554   4.074  0.4606 -1.1237  1.7513
  365MOL0     H49224   5.081  10.450   3.998  0.7363 -1.5883  0.1796
  365MOL0     H49225   4.971  10.313   3.961 -0.0299 -0.7952  0.6752
  365MOL0     H49226   5.019  10.594   4.229  1.5849  0.8830  2.1570
  365MOL0     H49227   4.884  10.452   4.557  0.0588 -1.2822 -0.8340
  365MOL0     H49228   5.054  10.425   4.572  1.7631 -0.8888 -4.1604
  365MOL0     H49229   4.914  10.678   4.489 -1.7323 -1.8171  0.2572
  365MOL0     H49230   5.091  10.674   4.501 -0.8686  1.0856  0.0004
  365MOL0     H49231   4.944  10.577   4.744  1.1971 -3.3150 -1.2775
  365MOL0     H49232   4.966  10.748   4.711 -2.4054  0.2729 -2.6954
  365MOL0     H49233   5.206  10.720   4.696  0.5428  0.9921  3.1511
  365MOL0     H49234   5.196  10.539   4.717 -0.6800 -1.0726  0.8108
  365MOL0     H49235   5.405  10.572   4.822 -0.4754  3.4279 -2.9067
  365MOL0     H49236   5.711  10.704   4.942 -0.1592  0.2005  1.0359
  365MOL0     H49237   5.675  10.528   4.938 -3.4978 -1.2108 -0.1685
  365MOL0     H49238   5.617  10.640   4.810 -0.0891 -1.0998 -0.3127
  365MOL0     H49239   5.747  10.983   5.367  1.3152  0.2734  0.6751
  365MOL0     H49240   5.904  10.995   5.532 -1.3176  1.0268  2.0234
  365MOL0     H49241   6.004  10.793   5.936 -1.5638  3.1140 -0.2850
  365MOL0     H49242   5.883  10.674   5.877  1.0998 -2.5904 -1.2898
  365MOL0     H49243   6.116  10.597   5.826  1.5220  1.6495 -1.4621
  365MOL0     H49244   6.012  10.630   5.682  0.0297  1.1923 -0.8285
  365MOL0     H49245   6.122  10.868   5.678 -2.4983 -0.2853  1.1586
  365MOL0     H49246   6.232  10.741   5.643  2.5224 -1.4970  3.0292
  365MOL0     H49247   6.310  10.930   5.793  0.6505  0.6502  0.5681
  365MOL0     H49248   6.200  10.900   5.917  1.4590  1.0312  0.3661
  365MOL0     H49249   6.421  10.715   5.837 -1.8456 -0.7054 -2.7180
  365MOL0     H49250   6.294  10.644   5.936  1.7048 -1.2719 -1.0752
  365MOL0     H49251   6.405  10.909   6.031 -2.2498  0.1015  1.2330
  365MOL0     H49252   6.344  10.795   6.127 -0.7029 -1.6651  0.6060
  365MOL0     H49253   6.584  10.697   5.977  2.3640  0.3837 -0.1637
  365MOL0     H49254   6.537  10.664   6.148 -1.0667 -0.6555 -0.7539
  365MOL0     H49255   6.688  10.908   6.033 -0.6681 -0.2941  1.2883
  365MOL0     H49256   6.758  10.785   6.134  0.2827  0.0284 -2.1493
  365MOL0     H49257   5.726  10.637   5.723  0.1716  1.7144  2.7295
  365MOL0     H49258   5.591  10.622   5.517 -0.5370  0.5596  1.4866
  365MOL0     H49259   5.328  10.801   5.243 -1.3182 -0.3700 -0.0287
  365MOL0     H49260   5.148  10.752   5.097  1.9121  3.2202 -0.8925
  365MOL0     H49261   4.880   9.888   3.325 -0.0140 -0.5578 -1.7249
  365MOL0     H49262   5.037   9.699   3.385  0.2960  0.3357 -0.9213
  365MOL0     H49263   5.260   9.468   3.658  0.8647  0.0676  0.7129
  365MOL0     H49264   5.447   9.297   3.709  1.3850 -0.8413 -3.4701
  365MOL0     H49265   5.590   9.106   3.652 -1.5266  0.9237 -0.8131
  365MOL0     H49266   5.555   9.144   3.824 -0.4699 -0.0327 -0.1857
  365MOL0     H49267   5.564   8.909   3.902 -0.2868 -0.1169 -0.4446
  365MOL0     H49268   5.713   8.943   3.829 -0.1722  0.0493  1.3456
  365MOL0     H49269   5.638   8.821   3.621 -0.8953  0.4856 -0.4159
  365MOL0     H49270   5.486   8.790   3.692  0.3253 -0.0891 -1.5086
  365MOL0     H49271   5.618   8.672   3.878 -3.0729  2.4404 -1.2426
  365MOL0     H49272   5.755   8.690   3.754 -0.0489  0.3302  1.5010
  365MOL0     H49273   5.537   8.341   3.659 -0.5164  0.7406 -2.3401
  365MOL0     H49274   5.164   8.990   3.688  1.8692 -0.0699  2.5624
  365MOL0     H49275   4.988   9.124   3.634 -1.4674  2.3170 -3.2150
  366MOL0     O49276   3.841   5.221   2.314 -1.1292  0.8462 -0.4521
  366MOL0     C49277   3.871   5.277   2.204 -0.2324 -0.1273 -0.6007
  366MOL0     O49278   3.784   5.303   2.098 -0.0473  0.9004  0.0798
  366MOL0     C49279   3.654   5.261   2.097  0.2239  0.4459  0.6319
  366MOL0     C49280   3.587   5.301   1.976 -0.0530  0.3549 -0.7101
  366MOL0     C49281   3.453   5.258   1.947  0.5887  0.1374 -0.6398
  366MOL0     C49282   3.386   5.189   2.039  0.5972 -0.6740  0.2927
  366MOL0     O49283   3.257   5.131   2.033 -0.6967 -0.4590  0.0560
  366MOL0     C49284   3.186   5.161   1.913 -0.0044 -0.4827 -0.1220
  366MOL0     C49285   3.045   5.131   1.942  0.2070 -0.8039 -0.3512
  366MOL0     C49286   2.960   5.252   1.988 -0.1559 -0.7131  0.3349
  366MOL0     C49287   2.973   5.307   2.129 -0.4457 -0.0580  0.0190
  366MOL0     C49288   2.923   5.210   2.241 -0.2568 -0.3251 -0.0347
  366MOL0     C49289   2.789   5.143   2.219 -0.6654 -0.0834  0.4922
  366MOL0     C49290   2.678   5.252   2.202  0.0705  0.0988  0.5056
  366MOL0     C49291   2.662   5.351   2.322 -0.1952 -0.1220 -0.0450
  366MOL0     N49292   2.658   5.297   2.462 -0.9890  0.3388  1.0417
  366MOL0     C49293   2.598   5.180   2.499  0.9595 -0.0454  0.3432
  366MOL0     C49294   2.629   5.161   2.630 -0.3335  0.3400  0.5276
  366MOL0     C49295   2.553   5.069   2.719  0.0873  0.3125  0.0019
  366MOL0     C49296   2.654   4.986   2.797 -0.3274 -0.8022  0.8486
  366MOL0     C49297   2.604   4.864   2.875  0.0334 -0.0572  0.1567
  366MOL0     C49298   2.732   4.783   2.920 -0.0330  0.7601 -1.1295
  366MOL0     O49299   2.717   4.639   2.927 -0.3766 -0.4468  0.2383
  366MOL0     C49300   2.813   4.551   2.981  0.0134 -0.2167  0.5839
  366MOL0     C49301   2.940   4.598   3.010  0.6970  0.2126 -0.2985
  366MOL0     C49302   3.038   4.515   3.073  0.4996 -1.4365  0.0636
  366MOL0     C49303   3.165   4.592   3.112 -0.9740  0.9928 -0.4186
  366MOL0     C49304   3.014   4.380   3.104 -0.1519 -0.4470 -0.4417
  366MOL0     C49305   3.112   4.287   3.167 -0.8743  0.5000  0.5886
  366MOL0     O49306   3.234   4.331   3.174 -0.5411  0.9213  0.3850
  366MOL0     C49307   3.332   4.242   3.192 -0.1522 -0.4916 -0.5740
  366MOL0     C49308   3.356   4.208   3.326 -0.4820 -0.5193  0.3017
  366MOL0     C49309   3.440   4.104   3.366 -1.2406 -1.2785  0.9024
  366MOL0     C49310   3.527   4.041   3.264  0.5698 -0.7249  0.4010
  366MOL0     O49311   3.626   3.948   3.284  0.2805  0.4779 -0.2546
  366MOL0     C49312   3.690   3.969   3.408 -0.1824  0.0628 -0.4352
  366MOL0     C49313   3.813   3.887   3.432  0.2907 -0.0150 -0.6188
  366MOL0     C49314   3.803   3.746   3.496 -0.5034 -0.7295  0.2003
  366MOL0     C49315   3.719   3.727   3.623 -0.1446 -0.3459 -0.5852
  366MOL0     C49316   3.729   3.833   3.736  0.7877  0.9541  0.5944
  366MOL0     C49317   3.656   3.791   3.870  0.0472 -0.4288 -0.2713
  366MOL0     C49318   3.707   3.858   3.986  0.2614 -0.0742 -0.4508
  366MOL0     C49319   3.698   4.011   3.982 -0.6148  0.4164 -0.5652
  366MOL0    Cl49320   3.529   4.054   3.969  0.0001  0.0713  0.1047
  366MOL0     C49321   3.509   4.075   3.134 -0.0891 -0.2378  0.8347
  366MOL0     C49322   3.414   4.174   3.099 -0.0524  1.0142 -0.8183
  366MOL0     O49323   3.078   4.174   3.183 -0.5802  0.0166 -0.0204
  366MOL0     C49324   2.890   4.332   3.063  0.9290 -0.2380 -0.0275
  366MOL0     C49325   2.794   4.414   2.995  0.7882 -0.5645 -0.7082
  366MOL0     N49326   2.717   5.265   2.661 -0.1241  1.1114 -0.2593
  366MOL0     N49327   2.734   5.342   2.561  0.8722  0.4998  0.6755
  366MOL0     C49328   3.450   5.143   2.152  0.4963  0.2791 -0.2310
  366MOL0     C49329   3.584   5.173   2.180 -0.3265  0.0812  0.6795
  366MOL0     C49330   4.006   5.325   2.196 -0.0861 -0.9015 -1.4174
  366MOL0     C49331   4.042   5.460   2.210  0.5676 -0.0019  0.3473
  366MOL0     C49332   4.178   5.502   2.205 -0.8918  0.9358 -0.1594
  366MOL0     C49333   4.280   5.410   2.191 -0.8036  0.3451 -0.1860
  366MOL0     O49334   4.405   5.456   2.185 -0.0236 -0.1003  0.1000
  366MOL0     C49335   4.516   5.363   2.202  0.1220 -0.0399 -0.3936
  366MOL0     C49336   4.644   5.425   2.248  1.2129  0.2611  0.6884
  366MOL0     C49337   4.714   5.506   2.140  0.6115  0.9608 -0.6317
  366MOL0     C49338   4.669   5.652   2.133  0.2360  1.3408  0.1074
  366MOL0     C49339   4.724   5.705   2.012 -0.0978  0.3983 -0.5761
  366MOL0     C49340   4.752   5.744   1.907  0.2164 -1.2981 -0.6334
  366MOL0     C49341   4.239   5.277   2.168 -0.3682 -0.2061  0.4483
  366MOL0     C49342   4.113   5.235   2.170 -0.7460  0.2057 -0.2915
  366MOL0     H49343   3.652   5.354   1.908  0.4433  0.3638 -0.2329
  366MOL0     H49344   3.410   5.285   1.851  0.2251  1.2720 -0.1748
  366MOL0     H49345   3.209   5.262   1.877  1.3255 -1.7443 -3.1669
  366MOL0     H49346   3.220   5.094   1.833  3.3905 -1.1852  1.7174
  366MOL0     H49347   2.998   5.100   1.848 -1.1792  4.1011 -1.5816
  366MOL0     H49348   3.041   5.054   2.019  0.1259 -0.6948 -0.2461
  366MOL0     H49349   2.981   5.337   1.922 -2.3315  0.2586  0.8010
  366MOL0     H49350   2.857   5.221   1.967  0.3997 -1.4211 -1.6348
  366MOL0     H49351   3.078   5.330   2.146  0.4384 -2.0234 -2.2016
  366MOL0     H49352   2.914   5.400   2.133 -1.3767 -0.6572  0.7646
  366MOL0     H49353   3.004   5.138   2.258 -1.8745 -1.7853  2.0699
  366MOL0     H49354   2.915   5.277   2.327  0.6484  0.3151 -0.4339
  366MOL0     H49355   2.787   5.087   2.125  1.2600 -1.2861  1.1094
  366MOL0     H49356   2.771   5.081   2.307 -0.9479 -0.1386  0.3985
  366MOL0     H49357   2.689   5.308   2.109  1.6002 -2.3930 -0.9152
  366MOL0     H49358   2.584   5.196   2.201  0.7387 -1.4424  4.4645
  366MOL0     H49359   2.571   5.409   2.304 -2.3335 -3.1302  0.4800
  366MOL0     H49360   2.745   5.423   2.317 -1.7098  1.7588  0.6615
  366MOL0     H49361   2.521   5.129   2.442  1.1162 -1.3634  1.2510
  366MOL0     H49362   2.501   5.128   2.795  1.8982  1.9713  0.0399
  366MOL0     H49363   2.483   5.019   2.652  0.5667  2.7242 -2.4433
  366MOL0     H49364   2.706   5.037   2.878 -0.6516 -0.1328  0.6392
  366MOL0     H49365   2.718   4.954   2.715  0.1953 -0.0640  0.9610
  366MOL0     H49366   2.533   4.804   2.817  0.2700  0.2388 -0.4467
  366MOL0     H49367   2.550   4.892   2.966  0.2030  1.2246 -0.1191
  366MOL0     H49368   2.774   4.825   3.012  0.3415  0.8503 -1.3387
  366MOL0     H49369   2.804   4.798   2.839 -1.4179  0.9213 -2.3887
  366MOL0     H49370   2.968   4.700   2.987  0.3952  0.3850  0.0997
  366MOL0     H49371   3.261   4.555   3.073 -1.6283 -1.2362 -0.0622
  366MOL0     H49372   3.157   4.694   3.075 -0.1097  0.3159 -2.6042
  366MOL0     H49373   3.176   4.591   3.221 -1.4130  3.3363 -0.3099
  366MOL0     H49374   3.301   4.261   3.403 -2.3894 -1.5454 -0.3003
  366MOL0     H49375   3.464   4.082   3.470  1.5684 -1.7173  0.2469
  366MOL0     H49376   3.727   4.071   3.415 -2.0168  0.6625  2.5226
  366MOL0     H49377   3.615   3.948   3.486 -1.4648 -1.5954 -2.0013
  366MOL0     H49378   3.856   3.883   3.331  0.9513  2.1379 -0.4571
  366MOL0     H49379   3.879   3.945   3.497  1.4735 -3.4150  1.4892
  366MOL0     H49380   3.908   3.720   3.508  0.7322  1.4546 -3.9862
  366MOL0     H49381   3.766   3.673   3.423 -0.0831 -2.2243  1.4396
  366MOL0     H49382   3.613   3.721   3.596 -0.5094 -2.6873  1.0318
  366MOL0     H49383   3.745   3.631   3.669 -0.6440 -0.4196 -0.4445
  366MOL0     H49384   3.690   3.931   3.706  0.6218  0.5190 -0.6559
  366MOL0     H49385   3.835   3.836   3.760  1.2336 -0.6918 -0.9895
  366MOL0     H49386   3.549   3.810   3.855  0.1256  2.5227  2.0702
  366MOL0     H49387   3.653   3.683   3.885 -1.6949 -1.3585 -5.2723
  366MOL0     H49388   3.806   3.822   4.015 -0.0476 -0.4868  0.1181
  366MOL0     H49389   3.649   3.826   4.073  2.4078 -3.0190  0.0560
  366MOL0     H49390   3.760   4.057   3.904 -1.3966  2.4451 -0.0472
  366MOL0     H49391   3.749   4.049   4.071 -1.1966  0.2088 -0.1397
  366MOL0     H49392   3.567   4.033   3.052  0.5947  1.8663  0.1698
  366MOL0     H49393   3.417   4.208   2.996  1.2467  1.0856 -0.7734
  366MOL0     H49394   2.878   4.226   3.081 -1.4455 -0.5204 -2.6178
  366MOL0     H49395   2.701   4.373   2.958 -0.0568  0.7156 -0.0537
  366MOL0     H49396   3.393   5.076   2.216  3.3031 -0.1145  2.0782
  366MOL0     H49397   3.625   5.125   2.268  0.0968  0.7135  0.8312
  366MOL0     H49398   3.970   5.539   2.233 -0.6694 -1.6451  2.4772
  366MOL0     H49399   4.214   5.604   2.199  1.8005  0.2636  2.2507
  366MOL0     H49400   4.488   5.289   2.277 -2.2595  1.3395  0.1794
  366MOL0     H49401   4.539   5.307   2.112 -0.6398 -0.5854 -0.2574
  366MOL0     H49402   4.713   5.342   2.268 -0.7223 -1.3462  1.0145
  366MOL0     H49403   4.626   5.487   2.337 -0.5573  0.5774  0.1305
  366MOL0     H49404   4.696   5.458   2.043  0.0718 -2.1538  0.8964
  366MOL0     H49405   4.823   5.507   2.150  0.5623 -1.9637  1.3637
  366MOL0     H49406   4.693   5.716   2.218 -3.2088  0.4524  1.9612
  366MOL0     H49407   4.560   5.658   2.126  0.3852  2.4625 -2.0873
  366MOL0     H49408   4.799   5.781   1.818 -4.8632  2.1723 -2.3274
  366MOL0     H49409   4.314   5.208   2.130 -1.0938 -0.3465 -0.8012
  366MOL0     H49410   4.099   5.129   2.156  0.8664  0.0797 -1.2142
  367MOL0     O49411   4.147  10.383   8.860 -0.2592 -0.4712 -1.0443
  367MOL0     C49412   4.089  10.490   8.876 -0.4637  0.2761 -0.2908
  367MOL0     O49413   4.037  10.538   8.996 -1.1111  0.2556 -0.0843
  367MOL0     C49414   4.068  10.469   9.115  1.0538 -0.2728 -0.7361
  367MOL0     C49415   3.981  10.483   9.225  0.4966  0.1636  0.3205
  367MOL0     C49416   4.021  10.443   9.356 -0.3253  0.2807 -1.0034
  367MOL0     C49417   4.145  10.376   9.377  0.4730  0.3711 -0.3569
  367MOL0     O49418   4.172  10.338   9.511  0.5598 -0.4192  0.8366
  367MOL0     C49419   4.301  10.297   9.551 -0.9858  0.3869  0.2209
  367MOL0     C49420   4.313  10.331   9.695 -0.9190  0.3067  0.4022
  367MOL0     C49421   4.444  10.279   9.761  0.5413 -0.5731 -0.9275
  367MOL0     C49422   4.442  10.135   9.790 -0.0774 -0.5011  0.8207
  367MOL0     C49423   4.530  10.090   9.915 -0.1045 -0.2755 -0.1755
  367MOL0     C49424   4.480   9.944   9.946 -0.0431  0.5143  0.2178
  367MOL0     C49425   4.550   9.877  10.064 -0.3971  0.6088  0.2672
  367MOL0     C49426   4.677   9.805  10.036 -0.2345  0.5973 -0.0998
  367MOL0     N49427   4.736   9.753  10.163 -0.3656 -0.1191  0.2400
  367MOL0     C49428   4.730   9.621  10.201  0.1070 -0.4391  0.8585
  367MOL0     C49429   4.814   9.614  10.298 -0.3321 -0.7887 -1.2537
  367MOL0     C49430   4.833   9.494  10.380 -0.1306 -0.5394 -0.1269
  367MOL0     C49431   4.955   9.412  10.353 -0.9374  0.2844 -1.2890
  367MOL0     C49432   4.992   9.285  10.446 -1.0080 -0.0954 -0.3839
  367MOL0     C49433   5.124   9.210  10.402  0.1325 -0.2110  0.1721
  367MOL0     O49434   5.180   9.115  10.499  0.3559 -0.1952 -0.3365
  367MOL0     C49435   5.155   8.979  10.498  0.9740  0.4365  2.0029
  367MOL0     C49436   5.055   8.931  10.403  0.6008 -0.8393 -0.8168
  367MOL0     C49437   5.023   8.794  10.389  0.3498 -0.2209  0.1182
  367MOL0     C49438   4.928   8.755  10.270  0.8057  0.4030 -0.6062
  367MOL0     C49439   5.077   8.706  10.481 -0.1789 -0.0801 -0.4504
  367MOL0     C49440   5.042   8.566  10.482 -0.0373 -0.5062 -0.6637
  367MOL0     O49441   5.145   8.484  10.500  0.2320 -0.0084 -0.2916
  367MOL0     C49442   5.113   8.359  10.534 -0.2318  0.6621 -0.4485
  367MOL0     C49443   5.177   8.315  10.648  0.1978  0.7657  0.3243
  367MOL0     C49444   5.161   8.183  10.687  0.7807  0.0493  0.1070
  367MOL0     C49445   5.071   8.095  10.612 -0.6383  0.4878  0.3078
  367MOL0     O49446   5.054   7.961  10.637  0.0622  0.0621  0.2408
  367MOL0     C49447   5.150   7.879  10.699  0.6863  0.2472 -0.8069
  367MOL0     C49448   5.295   7.897  10.654  0.1595 -0.4013  0.3035
  367MOL0     C49449   5.375   7.799  10.745 -0.2544  0.7687  0.9399
  367MOL0     C49450   5.526   7.838  10.730  0.2460  0.4589  0.0643
  367MOL0     C49451   5.595   7.809  10.863 -0.1670  0.0574  0.0712
  367MOL0     C49452   5.742   7.864  10.865  0.2704 -0.4310  0.2120
  367MOL0     C49453   5.814   7.829  10.998  0.5737 -0.7553 -0.5107
  367MOL0     C49454   5.974   7.822  10.993  0.1741 -0.5990 -0.0793
  367MOL0    Cl49455   6.044   7.786  11.154 -0.1328 -0.1616  0.0380
  367MOL0     C49456   5.021   8.143  10.495  0.5532 -1.1765  1.0150
  367MOL0     C49457   5.035   8.273  10.452  0.7503  0.1540 -0.4629
  367MOL0     O49458   4.924   8.527  10.478 -0.0833  0.0285  0.1586
  367MOL0     C49459   5.181   8.749  10.571  0.0832  0.0470  0.2746
  367MOL0     C49460   5.206   8.892  10.587 -0.2417  1.1004 -0.1319
  367MOL0     N49461   4.874   9.736  10.328 -0.1576  0.3179 -0.0484
  367MOL0     N49462   4.826   9.818  10.239  0.1646  0.4840  0.2709
  367MOL0     C49463   4.233  10.373   9.270  0.2361  0.5015 -0.6763
  367MOL0     C49464   4.196  10.420   9.143 -0.0246 -0.0172 -0.2846
  367MOL0     C49465   4.074  10.573   8.752  0.3166 -0.2281 -0.3146
  367MOL0     C49466   3.969  10.679   8.740 -0.0466  0.1696 -0.5669
  367MOL0     C49467   3.955  10.754   8.627 -0.1087  0.3075 -0.5151
  367MOL0     C49468   4.039  10.733   8.522 -1.4607  0.3255 -0.4594
  367MOL0     O49469   4.046  10.804   8.408 -0.3579 -0.8250 -0.4525
  367MOL0     C49470   3.988  10.944   8.420 -0.6251 -0.2658 -0.5860
  367MOL0     C49471   4.006  11.007   8.285  0.5739 -0.5655 -0.1048
  367MOL0     C49472   3.951  10.915   8.180 -1.3038 -0.6627 -0.6620
  367MOL0     C49473   3.866  10.988   8.079  0.1492  0.4765  0.3569
  367MOL0     C49474   3.736  11.050   8.125 -0.4117  0.4549  0.0384
  367MOL0     C49475   3.628  11.085   8.163  0.1289 -1.4939  0.5398
  367MOL0     C49476   4.129  10.630   8.530 -0.1939 -0.4685  0.3568
  367MOL0     C49477   4.153  10.547   8.641 -0.1133  0.1009 -0.1810
  367MOL0     H49478   3.888  10.539   9.217  1.7248  2.2332 -0.4490
  367MOL0     H49479   3.964  10.469   9.445 -1.6740  0.9113 -2.0150
  367MOL0     H49480   4.306  10.190   9.529  1.3407  0.5039 -0.1170
  367MOL0     H49481   4.388  10.336   9.496  0.2903 -0.8112  1.3158
  367MOL0     H49482   4.318  10.440   9.692 -1.7560  0.3489 -2.0917
  367MOL0     H49483   4.230  10.291   9.753 -0.5996 -2.5591 -0.9517
  367MOL0     H49484   4.532  10.312   9.705  0.9417  0.3313  0.1883
  367MOL0     H49485   4.432  10.331   9.856 -0.6450 -2.6737  0.1335
  367MOL0     H49486   4.345  10.106   9.830 -0.6137 -3.0515 -2.0059
  367MOL0     H49487   4.463  10.084   9.696 -0.6882  1.9089 -0.7034
  367MOL0     H49488   4.637  10.105   9.896  0.1751  2.0260  2.4887
  367MOL0     H49489   4.499  10.152  10.000 -0.5297  1.7408 -1.7506
  367MOL0     H49490   4.373   9.947   9.968 -0.1476  0.0460 -0.2249
  367MOL0     H49491   4.502   9.874   9.865 -1.3227 -0.3981  0.6283
  367MOL0     H49492   4.564   9.955  10.140 -1.3008  0.4667  0.5870
  367MOL0     H49493   4.482   9.802  10.104 -0.9288 -0.8344 -3.0587
  367MOL0     H49494   4.733   9.885   9.986 -1.4839  0.4864 -1.7355
  367MOL0     H49495   4.669   9.720   9.967  1.8346 -1.3286  1.8342
  367MOL0     H49496   4.668   9.538  10.169 -3.3874  2.0869  0.4403
  367MOL0     H49497   4.845   9.531  10.482  0.5582 -3.1104  0.8067
  367MOL0     H49498   4.734   9.447  10.377  0.0909 -0.9981 -0.4502
  367MOL0     H49499   5.044   9.475  10.353  0.6327 -1.7178  1.0268
  367MOL0     H49500   4.951   9.369  10.252  2.5316  1.0439 -1.8524
  367MOL0     H49501   4.913   9.211  10.429  1.0678 -1.8170 -3.3571
  367MOL0     H49502   5.009   9.314  10.550  2.5670 -2.7638 -0.0622
  367MOL0     H49503   5.203   9.286  10.393 -1.4480  1.3835 -1.0702
  367MOL0     H49504   5.106   9.171  10.301 -1.3347 -3.3518  1.5403
  367MOL0     H49505   4.998   9.003  10.344  2.4483 -0.2955 -2.0290
  367MOL0     H49506   4.929   8.824  10.185  1.1878 -0.8013 -1.6160
  367MOL0     H49507   4.941   8.655  10.226 -3.4844 -0.7471  0.3253
  367MOL0     H49508   4.830   8.753  10.319 -0.0748 -1.4487 -2.2745
  367MOL0     H49509   5.237   8.374  10.717  0.3258  1.0689 -0.0416
  367MOL0     H49510   5.215   8.162  10.779  4.0549  3.0880 -0.8807
  367MOL0     H49511   5.145   7.884  10.808 -0.1195 -2.2246 -0.6624
  367MOL0     H49512   5.121   7.775  10.678  2.5214 -0.6425  0.7533
  367MOL0     H49513   5.312   7.869  10.550  0.5205 -0.8873  0.4887
  367MOL0     H49514   5.333   8.000  10.662  0.9267 -0.4565 -2.0413
  367MOL0     H49515   5.361   7.694  10.716 -1.0829  0.9782  0.5602
  367MOL0     H49516   5.351   7.794  10.852  0.5408 -1.2482  1.0685
  367MOL0     H49517   5.567   7.777  10.649 -0.7596  0.9294 -0.8218
  367MOL0     H49518   5.533   7.943  10.700  1.8277  0.9443  1.9050
  367MOL0     H49519   5.611   7.701  10.874 -0.7756  0.0255  0.7728
  367MOL0     H49520   5.535   7.845  10.948  1.8009  3.0613  0.3178
  367MOL0     H49521   5.802   7.816  10.787  0.3219 -3.5448  2.0058
  367MOL0     H49522   5.737   7.973  10.864  3.3355 -0.1862 -0.7168
  367MOL0     H49523   5.780   7.734  11.040 -2.8884 -0.4824 -2.3896
  367MOL0     H49524   5.791   7.910  11.068 -1.1273 -0.0439 -1.8250
  367MOL0     H49525   6.018   7.919  10.966 -4.2403  1.4667 -0.7601
  367MOL0     H49526   6.005   7.744  10.923  0.3837 -0.0310 -0.6278
  367MOL0     H49527   4.980   8.069  10.427  2.1300 -0.0480 -1.3232
  367MOL0     H49528   4.985   8.295  10.357 -0.8946 -1.3405 -0.0046
  367MOL0     H49529   5.233   8.689  10.645  3.2282  2.5717  0.3920
  367MOL0     H49530   5.273   8.927  10.664 -1.0113  1.2238  0.4931
  367MOL0     H49531   4.329  10.324   9.279 -0.5332 -1.3886 -2.0781
  367MOL0     H49532   4.272  10.432   9.067 -0.9539 -0.8125 -1.3636
  367MOL0     H49533   3.899  10.705   8.819 -1.1190  2.2374 -2.0848
  367MOL0     H49534   3.873  10.822   8.606 -1.8493 -2.2336 -2.6580
  367MOL0     H49535   3.879  10.943   8.430 -0.7112  1.3833 -1.1464
  367MOL0     H49536   4.030  11.001   8.502 -2.2206 -2.1449  1.6743
  367MOL0     H49537   4.114  11.017   8.266  1.4086  1.1475  4.2505
  367MOL0     H49538   3.950  11.101   8.287 -3.1891 -2.6166  0.1546
  367MOL0     H49539   3.885  10.840   8.224  0.9468 -3.3394 -1.5929
  367MOL0     H49540   4.033  10.860   8.132  1.2335  0.0832  2.4552
  367MOL0     H49541   3.843  10.911   8.006 -2.2208  0.7636  0.7258
  367MOL0     H49542   3.920  11.064   8.021 -0.3788  0.0743 -0.6740
  367MOL0     H49543   3.537  11.130   8.196  0.4568 -0.6519  0.3162
  367MOL0     H49544   4.196  10.604   8.447 -0.3216  2.8466 -0.9276
  367MOL0     H49545   4.233  10.474   8.642 -1.0444 -0.9581 -0.6431
  368MOL0     O49546   0.957   0.152  11.026 -0.2527 -0.5885  0.5083
  368MOL0     C49547   1.070   0.164  11.068 -0.5850  0.8627 -0.0871
  368MOL0     O49548   1.146   0.068  11.137 -0.2765  1.0764 -1.3138
  368MOL0     C49549   1.079  -0.017  11.228  0.7449 -0.4102  0.2510
  368MOL0     C49550   1.147  -0.133  11.255 -0.1034 -0.3237  0.0383
  368MOL0     C49551   1.099  -0.223  11.353 -0.0424 -0.3258 -0.1443
  368MOL0     C49552   0.986  -0.190  11.430 -0.5827  0.4894 -0.6199
  368MOL0     O49553   0.947  -0.280  11.528  0.6367 -0.5328 -0.4741
  368MOL0     C49554   1.060  -0.301  11.623  0.6003 -0.0674  0.3109
  368MOL0     C49555   0.985  -0.367  11.747 -0.1867  0.2482  0.7710
  368MOL0     C49556   1.085  -0.396  11.856  0.5131 -0.0793  0.3183
  368MOL0     C49557   1.113  -0.280  11.953 -0.1258  0.0459  0.8166
  368MOL0     C49558   1.187  -0.320  12.072 -0.6500  0.3546 -0.1933
  368MOL0     C49559   1.344  -0.300  12.053  0.0696  0.3896 -0.6084
  368MOL0     C49560   1.425  -0.334  12.184  0.8254  1.3335  0.4521
  368MOL0     C49561   1.408  -0.488  12.228 -0.2300  0.6283  0.1606
  368MOL0     N49562   1.463  -0.569  12.127 -0.1831  0.3580  0.0120
  368MOL0     C49563   1.596  -0.558  12.082 -0.3365  0.8800  0.7329
  368MOL0     C49564   1.620  -0.671  12.007 -0.3515 -1.0387  0.5082
  368MOL0     C49565   1.761  -0.720  11.966  0.3000  0.1176 -0.1675
  368MOL0     C49566   1.767  -0.763  11.821 -0.9977 -0.5810 -0.0988
  368MOL0     C49567   1.709  -0.901  11.798  0.0564  0.7426 -0.2904
  368MOL0     C49568   1.744  -0.955  11.654  0.6909  0.1382 -0.4647
  368MOL0     O49569   1.677  -1.079  11.652 -0.0374 -0.1396 -0.1157
  368MOL0     C49570   1.668  -1.149  11.531 -0.1564  0.1410  0.3486
  368MOL0     C49571   1.597  -1.269  11.532  0.0839 -0.2219 -0.2599
  368MOL0     C49572   1.579  -1.354  11.420  0.4354  0.7432  0.0292
  368MOL0     C49573   1.507  -1.487  11.423 -0.4808 -0.6146 -0.9930
  368MOL0     C49574   1.636  -1.315  11.299 -0.2459 -0.5916 -0.1107
  368MOL0     C49575   1.634  -1.406  11.180 -1.1146 -0.1136 -0.0615
  368MOL0     O49576   1.540  -1.382  11.085 -0.1936 -0.4343  0.9597
  368MOL0     C49577   1.555  -1.390  10.946 -1.3024  0.1754 -0.4736
  368MOL0     C49578   1.439  -1.393  10.873  0.6788 -0.6507 -0.0470
  368MOL0     C49579   1.451  -1.413  10.733 -0.5949  0.3556 -1.3722
  368MOL0     C49580   1.575  -1.401  10.666  0.2966 -0.3430  0.1890
  368MOL0     O49581   1.582  -1.419  10.531  0.2315  0.3309 -0.4760
  368MOL0     C49582   1.706  -1.390  10.460  0.6850  0.2221 -0.1236
  368MOL0     C49583   1.673  -1.359  10.311 -0.5062 -0.9202 -0.0299
  368MOL0     C49584   1.584  -1.453  10.233 -0.0000  0.5453 -0.8335
  368MOL0     C49585   1.569  -1.412  10.076  0.0127  0.9125 -0.8455
  368MOL0     C49586   1.488  -1.282  10.049 -0.1588  0.5377  0.1521
  368MOL0     C49587   1.466  -1.258   9.896 -0.1420  0.0522  1.0436
  368MOL0     C49588   1.363  -1.152   9.862  0.5586 -0.3210 -0.1758
  368MOL0     C49589   1.377  -1.121   9.718  0.0476 -0.2185  0.1942
  368MOL0    Cl49590   1.238  -1.023   9.657 -0.2622  0.2591  0.1700
  368MOL0     C49591   1.688  -1.397  10.749 -0.8016 -0.9705 -0.0256
  368MOL0     C49592   1.681  -1.384  10.887 -0.8272 -0.1362 -0.7361
  368MOL0     O49593   1.733  -1.482  11.169 -0.3460 -0.2523 -0.0445
  368MOL0     C49594   1.719  -1.203  11.300 -0.7317  0.2964 -0.6283
  368MOL0     C49595   1.737  -1.123  11.417 -0.1738  0.1804 -0.3851
  368MOL0     N49596   1.493  -0.734  11.996 -0.3469  0.1561  0.6075
  368MOL0     N49597   1.402  -0.677  12.075  0.2155  0.5751  0.4211
  368MOL0     C49598   0.920  -0.074  11.404  0.4657 -0.6998 -0.4360
  368MOL0     C49599   0.965   0.012  11.303 -0.6806  0.0874 -0.2149
  368MOL0     C49600   1.144   0.294  11.032 -1.2039  1.0408 -0.4117
  368MOL0     C49601   1.271   0.311  11.089  0.7896 -0.3238 -0.5318
  368MOL0     C49602   1.349   0.419  11.044  0.0948 -0.1932  0.0497
  368MOL0     C49603   1.310   0.488  10.923 -0.0408  0.2581 -0.0535
  368MOL0     O49604   1.392   0.589  10.876  0.3729 -0.1847  0.3873
  368MOL0     C49605   1.431   0.575  10.739 -0.7197 -1.0692  0.8149
  368MOL0     C49606   1.466   0.705  10.662 -0.5297 -0.2784 -0.5137
  368MOL0     C49607   1.505   0.675  10.516 -0.1149  0.3552 -1.1308
  368MOL0     C49608   1.520   0.803  10.429  0.6117 -0.0212  0.9225
  368MOL0     C49609   1.609   0.789  10.318 -0.7016 -0.5347 -0.4830
  368MOL0     C49610   1.699   0.797  10.224  0.0553 -0.8779 -0.0782
  368MOL0     C49611   1.189   0.451  10.857  0.2288  0.0659  0.5070
  368MOL0     C49612   1.102   0.361  10.909  0.4410  0.6887  0.3867
  368MOL0     H49613   1.233  -0.160  11.195  1.4088 -0.3857  2.1155
  368MOL0     H49614   1.163  -0.309  11.368  4.9393  3.2028  2.1048
  368MOL0     H49615   1.126  -0.370  11.570 -1.0862 -1.9112  0.4790
  368MOL0     H49616   1.123  -0.215  11.645  0.9261  0.0489 -1.0038
  368MOL0     H49617   0.904  -0.303  11.781 -0.4000  1.7569 -2.2758
  368MOL0     H49618   0.946  -0.460  11.704 -0.8378  0.9878 -0.2516
  368MOL0     H49619   1.041  -0.480  11.909  1.7654 -0.1040  1.3804
  368MOL0     H49620   1.182  -0.435  11.824  0.3978  0.3000 -0.5296
  368MOL0     H49621   1.170  -0.211  11.891 -1.1921 -0.6874 -1.0629
  368MOL0     H49622   1.015  -0.243  11.985  0.3407  0.6200  1.6234
  368MOL0     H49623   1.150  -0.269  12.162  0.8862  3.3314 -1.1174
  368MOL0     H49624   1.169  -0.428  12.076  1.1424  0.0373  0.3567
  368MOL0     H49625   1.378  -0.354  11.964  1.6854  1.4002 -0.6489
  368MOL0     H49626   1.367  -0.193  12.046  0.4402  0.7141  3.2182
  368MOL0     H49627   1.532  -0.310  12.187  1.5029 -1.4177  0.8168
  368MOL0     H49628   1.395  -0.274  12.270  0.9505 -0.0898  1.5331
  368MOL0     H49629   1.303  -0.519  12.229  0.8857 -3.8435  1.4874
  368MOL0     H49630   1.452  -0.519  12.323  0.2937 -3.5123 -1.2205
  368MOL0     H49631   1.677  -0.498  12.124  1.0004  0.3895 -1.0128
  368MOL0     H49632   1.838  -0.643  11.977  1.0354 -0.8966  2.4576
  368MOL0     H49633   1.790  -0.803  12.031 -0.1616  0.7816  0.9030
  368MOL0     H49634   1.871  -0.775  11.789 -0.7057 -1.7728  1.2226
  368MOL0     H49635   1.726  -0.686  11.754 -2.4048 -1.1066  0.1360
  368MOL0     H49636   1.602  -0.888  11.817 -0.0027  0.9678 -0.7641
  368MOL0     H49637   1.758  -0.965  11.873 -2.0384 -2.1139 -1.1697
  368MOL0     H49638   1.852  -0.973  11.649  0.3426 -3.2084  1.0149
  368MOL0     H49639   1.704  -0.891  11.576  1.0678  2.4769  1.1320
  368MOL0     H49640   1.565  -1.310  11.628  2.5293 -2.6790 -0.3654
  368MOL0     H49641   1.438  -1.509  11.341  0.5482 -0.9495 -1.8024
  368MOL0     H49642   1.585  -1.563  11.421  0.9996  0.6167  2.4591
  368MOL0     H49643   1.451  -1.500  11.516  2.3914  1.8505  1.2887
  368MOL0     H49644   1.344  -1.399  10.925  1.6667 -2.0747  1.6948
  368MOL0     H49645   1.357  -1.408  10.680 -2.3393 -0.5002  1.4236
  368MOL0     H49646   1.744  -1.298  10.505  3.1688 -0.1568 -1.2611
  368MOL0     H49647   1.781  -1.470  10.464  1.3450  0.7952 -0.6848
  368MOL0     H49648   1.608  -1.272  10.320 -0.3726 -0.7827 -0.3893
  368MOL0     H49649   1.767  -1.333  10.260 -0.4392  2.1396  1.4321
  368MOL0     H49650   1.487  -1.455  10.283  0.3558 -0.1715 -0.1468
  368MOL0     H49651   1.631  -1.551  10.228 -2.5219 -1.1038  2.9934
  368MOL0     H49652   1.664  -1.418  10.023 -0.6500 -3.2098 -1.9194
  368MOL0     H49653   1.507  -1.493  10.037  0.1704  0.7022 -0.6632
  368MOL0     H49654   1.533  -1.194  10.095 -0.4207  0.1273  1.2322
  368MOL0     H49655   1.400  -1.304  10.111 -0.5482  2.2981  0.2786
  368MOL0     H49656   1.559  -1.219   9.852 -0.6478 -0.7022 -0.7636
  368MOL0     H49657   1.432  -1.352   9.853  0.0196  0.2834  0.4084
  368MOL0     H49658   1.375  -1.057   9.914 -2.7964 -2.2167  4.8811
  368MOL0     H49659   1.260  -1.183   9.883  1.1958 -2.4987 -0.0003
  368MOL0     H49660   1.369  -1.221   9.674 -0.3041 -0.5139  0.9105
  368MOL0     H49661   1.469  -1.067   9.693 -1.0961  0.9216 -1.7392
  368MOL0     H49662   1.791  -1.390  10.714 -1.1991 -1.5446 -1.3750
  368MOL0     H49663   1.773  -1.381  10.944  0.0986 -2.1849 -1.9738
  368MOL0     H49664   1.771  -1.162  11.215 -1.5928  3.3175  0.1944
  368MOL0     H49665   1.815  -1.048  11.416  0.4856 -0.4627  0.6324
  368MOL0     H49666   0.826  -0.052  11.453  1.5797  0.4934  1.2835
  368MOL0     H49667   0.919   0.109  11.290 -0.1084  0.6385  1.6005
  368MOL0     H49668   1.310   0.241  11.163  0.0529 -2.0962 -1.7643
  368MOL0     H49669   1.443   0.433  11.096 -0.2888 -1.4824  1.1494
  368MOL0     H49670   1.522   0.515  10.734 -1.2701 -1.8983  0.6046
  368MOL0     H49671   1.355   0.531  10.674  0.5201 -0.3507 -1.2101
  368MOL0     H49672   1.543   0.759  10.717 -2.5277  1.4873  0.7432
  368MOL0     H49673   1.373   0.761  10.645 -1.1378 -1.5595 -1.6101
  368MOL0     H49674   1.433   0.601  10.477  0.1700 -0.2415 -0.5427
  368MOL0     H49675   1.600   0.622  10.523 -1.8082 -2.7666  1.2789
  368MOL0     H49676   1.557   0.883  10.495 -1.0859  2.0221 -0.4534
  368MOL0     H49677   1.425   0.843  10.392  1.2756  0.7425 -0.0089
  368MOL0     H49678   1.766   0.807  10.141 -0.8695 -0.1318 -0.7567
  368MOL0     H49679   1.143   0.491  10.767 -1.0283 -3.4637 -0.5624
  368MOL0     H49680   1.016   0.334  10.848  0.8445 -1.5777  0.7178
  369MOL0     O49681   3.987   0.979   0.644  0.0354 -0.2898  0.3689
  369MOL0     C49682   4.081   0.937   0.576 -0.0864  0.0441  0.5522
  369MOL0     O49683   4.070   0.828   0.490 -0.9408  0.1330  0.4194
  369MOL0     C49684   3.949   0.782   0.450  0.5079  0.3241 -0.3781
  369MOL0     C49685   3.932   0.647   0.467 -0.6328  1.0172  0.4843
  369MOL0     C49686   3.823   0.580   0.414  0.2907 -0.1803 -0.9488
  369MOL0     C49687   3.715   0.655   0.366  0.7870  0.2101 -0.3373
  369MOL0     O49688   3.602   0.585   0.322 -0.2584 -0.8042  0.1645
  369MOL0     C49689   3.500   0.668   0.263 -0.5416  0.2630 -0.1172
  369MOL0     C49690   3.399   0.576   0.196 -0.8836  0.0445  0.1885
  369MOL0     C49691   3.280   0.654   0.125 -0.0207 -0.2347  1.0751
  369MOL0     C49692   3.180   0.591   0.032  0.3117  1.0065  0.2647
  369MOL0     C49693   3.067   0.682  -0.018  0.1136  0.1313  0.2258
  369MOL0     C49694   2.965   0.592  -0.099 -0.8803 -0.7417 -0.6230
  369MOL0     C49695   2.869   0.662  -0.190  0.3283  0.8194  0.3544
  369MOL0     C49696   2.755   0.564  -0.240 -0.6885  0.1158  0.0019
  369MOL0     N49697   2.659   0.622  -0.323  0.4005 -0.9835 -0.3739
  369MOL0     C49698   2.576   0.734  -0.294  0.5862 -0.1321 -0.2618
  369MOL0     C49699   2.540   0.791  -0.414 -0.5575  0.3948  0.8693
  369MOL0     C49700   2.466   0.918  -0.440 -0.0908  1.3432 -0.0204
  369MOL0     C49701   2.453   1.018  -0.323  0.3066  1.3387 -0.6114
  369MOL0     C49702   2.363   1.132  -0.358  0.6472  0.2352 -0.7262
  369MOL0     C49703   2.371   1.252  -0.260 -0.3510 -0.3596 -0.6516
  369MOL0     O49704   2.270   1.351  -0.295  0.4562  0.1744 -0.6968
  369MOL0     C49705   2.151   1.337  -0.220 -0.6648 -0.7146  0.7047
  369MOL0     C49706   2.147   1.362  -0.082 -0.1732 -0.1095  0.4951
  369MOL0     C49707   2.031   1.339  -0.015  0.0183  1.6280 -0.7320
  369MOL0     C49708   2.037   1.381   0.125  0.9116  0.7999  0.4373
  369MOL0     C49709   1.913   1.285  -0.077  0.6259 -0.1078  0.0803
  369MOL0     C49710   1.779   1.270   0.002 -0.7409 -0.3926  0.0206
  369MOL0     O49711   1.677   1.281  -0.083 -0.5351  0.5327 -0.9529
  369MOL0     C49712   1.548   1.282  -0.031 -0.3793 -0.0048 -0.1527
  369MOL0     C49713   1.446   1.280  -0.128  0.3282  0.3582 -0.0620
  369MOL0     C49714   1.313   1.290  -0.096  0.1911  0.5982 -1.1219
  369MOL0     C49715   1.264   1.302   0.030 -0.6369  0.3938 -0.4748
  369MOL0     O49716   1.136   1.309   0.063 -0.2954  0.4176 -0.2988
  369MOL0     C49717   1.050   1.205   0.020  0.9917  0.1078  0.2014
  369MOL0     C49718   0.930   1.203   0.113 -0.5004  0.6304  0.4417
  369MOL0     C49719   0.810   1.136   0.047  0.4447 -0.6418  0.1905
  369MOL0     C49720   0.680   1.147   0.142 -0.0950 -1.0257  0.5530
  369MOL0     C49721   0.568   1.059   0.078 -0.0593 -0.1494 -0.4598
  369MOL0     C49722   0.582   0.910   0.142  0.1632 -0.6850 -0.5587
  369MOL0     C49723   0.458   0.834   0.110 -1.0689 -0.6665 -0.7418
  369MOL0     C49724   0.445   0.793  -0.032 -0.1165  0.3559  0.8883
  369MOL0    Cl49725   0.571   0.676  -0.074 -0.0289 -0.0591  0.5774
  369MOL0     C49726   1.366   1.310   0.135  0.8622 -0.3914 -0.8763
  369MOL0     C49727   1.504   1.312   0.098 -0.3266  0.2522 -0.7452
  369MOL0     O49728   1.774   1.231   0.118 -0.4154 -0.1124 -0.2987
  369MOL0     C49729   1.923   1.256  -0.219 -0.1817  0.0789 -0.2425
  369MOL0     C49730   2.039   1.282  -0.279  0.0409 -0.6041 -0.4837
  369MOL0     N49731   2.578   0.697  -0.513 -0.2262 -0.7296  0.1342
  369MOL0     N49732   2.652   0.608  -0.462  0.1641  0.4636 -0.4452
  369MOL0     C49733   3.727   0.797   0.359 -0.0346 -0.4372  0.2141
  369MOL0     C49734   3.841   0.862   0.405  1.6662  0.1533 -1.0838
  369MOL0     C49735   4.221   0.975   0.618  0.1814 -0.0642  0.8127
  369MOL0     C49736   4.337   0.912   0.558 -0.2206 -0.6199 -0.7464
  369MOL0     C49737   4.459   0.922   0.621  0.4731  0.2085  0.7031
  369MOL0     C49738   4.476   1.002   0.742  0.4316  0.4598  0.1425
  369MOL0     O49739   4.593   0.992   0.803  0.3415 -0.2002 -0.7489
  369MOL0     C49740   4.635   1.048   0.934 -0.5058 -0.4055  0.3181
  369MOL0     C49741   4.642   1.202   0.943 -0.4027 -0.1930 -0.4716
  369MOL0     C49742   4.767   1.246   0.858 -0.0718 -0.3761 -0.4257
  369MOL0     C49743   4.851   1.356   0.920  0.7998  1.1291  0.2861
  369MOL0     C49744   4.957   1.389   0.832 -0.0738 -0.4162  0.0780
  369MOL0     C49745   5.058   1.420   0.774 -0.1122  0.5188  0.0277
  369MOL0     C49746   4.359   1.057   0.800 -0.1917  0.4031 -0.6942
  369MOL0     C49747   4.234   1.046   0.735 -0.6303  0.4997  1.6791
  369MOL0     H49748   4.013   0.590   0.511 -3.7256 -2.0457  2.7217
  369MOL0     H49749   3.812   0.472   0.422  0.8878 -0.5316 -3.7759
  369MOL0     H49750   3.449   0.728   0.338  0.3092  0.2557  0.4891
  369MOL0     H49751   3.541   0.729   0.182 -1.8326 -1.4677 -2.1954
  369MOL0     H49752   3.441   0.508   0.122  0.1760  1.1419 -0.2470
  369MOL0     H49753   3.365   0.509   0.275  0.7445 -1.2626 -0.1830
  369MOL0     H49754   3.214   0.689   0.206 -3.0182  3.9960 -2.6659
  369MOL0     H49755   3.318   0.742   0.073 -2.9202 -0.1925 -1.2003
  369MOL0     H49756   3.233   0.549  -0.054 -1.9080 -0.4615 -0.4821
  369MOL0     H49757   3.124   0.515   0.088 -0.5906  0.6959 -1.0127
  369MOL0     H49758   3.021   0.741   0.062  0.7829 -0.1798  0.8516
  369MOL0     H49759   3.108   0.758  -0.085  0.3323  0.2288  0.4685
  369MOL0     H49760   3.017   0.529  -0.172  0.1590 -2.4039  1.4467
  369MOL0     H49761   2.912   0.523  -0.032 -0.1679 -0.3682  0.3407
  369MOL0     H49762   2.820   0.751  -0.152 -0.4994  1.3763 -1.8467
  369MOL0     H49763   2.923   0.694  -0.280 -1.2962  4.0108  0.3724
  369MOL0     H49764   2.700   0.530  -0.151 -1.5768 -0.3329 -0.7044
  369MOL0     H49765   2.802   0.484  -0.298  2.6314  3.0024 -1.6392
  369MOL0     H49766   2.534   0.754  -0.196  1.5832 -2.5996  0.7736
  369MOL0     H49767   2.514   0.977  -0.519 -3.0271 -1.2566 -4.1954
  369MOL0     H49768   2.363   0.899  -0.474  0.1261  0.2498 -0.0833
  369MOL0     H49769   2.546   1.048  -0.274 -0.4130 -1.8353  3.1978
  369MOL0     H49770   2.414   0.958  -0.240 -0.5858  2.0225 -0.5087
  369MOL0     H49771   2.260   1.096  -0.356  0.9624 -0.7004 -0.9801
  369MOL0     H49772   2.380   1.159  -0.463 -0.3992 -0.1894 -1.0240
  369MOL0     H49773   2.471   1.297  -0.269  1.7015 -4.2104  0.6583
  369MOL0     H49774   2.366   1.216  -0.157  0.1742  0.0101 -0.4887
  369MOL0     H49775   2.239   1.397  -0.036  2.0197 -2.7119 -1.5007
  369MOL0     H49776   1.935   1.382   0.165 -0.7993 -3.2385 -3.1281
  369MOL0     H49777   2.100   1.317   0.187  2.8767  2.2737  0.0663
  369MOL0     H49778   2.084   1.479   0.138 -0.0353  1.1906  1.0183
  369MOL0     H49779   1.472   1.291  -0.232 -0.9676 -0.1910 -0.4571
  369MOL0     H49780   1.241   1.308  -0.175  0.4013 -0.6957 -1.6428
  369MOL0     H49781   1.005   1.226  -0.077 -1.4283 -1.5290  0.8961
  369MOL0     H49782   1.118   1.120   0.028  0.5369 -0.2467  0.3553
  369MOL0     H49783   0.954   1.147   0.204 -1.6641 -0.8356 -0.1158
  369MOL0     H49784   0.897   1.306   0.128  0.6981  2.1104 -5.0277
  369MOL0     H49785   0.836   1.032   0.027  0.7921 -0.2628 -1.4612
  369MOL0     H49786   0.790   1.185  -0.049  0.2389  1.9875  1.4670
  369MOL0     H49787   0.705   1.103   0.239  2.3847  1.0738  0.9934
  369MOL0     H49788   0.648   1.251   0.155 -2.6749 -1.8105  0.9817
  369MOL0     H49789   0.578   1.049  -0.030 -2.0195  0.6115 -0.7512
  369MOL0     H49790   0.467   1.100   0.084  0.4037  1.0178  4.5363
  369MOL0     H49791   0.670   0.859   0.100  2.1796 -0.4163  2.9359
  369MOL0     H49792   0.595   0.903   0.251 -1.7219 -4.9037 -0.3769
  369MOL0     H49793   0.374   0.894   0.146 -1.6688 -0.6175 -2.1452
  369MOL0     H49794   0.455   0.744   0.172 -2.4729 -1.7217 -2.2574
  369MOL0     H49795   0.458   0.873  -0.105  1.5131 -1.4909 -0.9768
  369MOL0     H49796   0.350   0.738  -0.041 -0.5775  1.3943 -1.6183
  369MOL0     H49797   1.353   1.324   0.242  2.6055 -2.0970 -0.3808
  369MOL0     H49798   1.568   1.350   0.177  0.1737  0.0786 -1.0607
  369MOL0     H49799   1.843   1.231  -0.288  0.7007 -1.4363 -0.7477
  369MOL0     H49800   2.055   1.257  -0.384  0.4955  0.3320 -0.6422
  369MOL0     H49801   3.659   0.865   0.309 -1.6050 -3.6270 -2.3651
  369MOL0     H49802   3.856   0.969   0.399  0.7590  0.4345  0.8188
  369MOL0     H49803   4.335   0.858   0.464 -2.8018 -1.7390 -0.1253
  369MOL0     H49804   4.548   0.876   0.581 -0.0913 -1.2794  1.1145
  369MOL0     H49805   4.562   1.009   1.005  2.2593 -2.7636  2.0689
  369MOL0     H49806   4.730   1.009   0.970 -1.7030 -4.3613 -0.3451
  369MOL0     H49807   4.649   1.230   1.049 -0.9541 -2.6201  0.2719
  369MOL0     H49808   4.561   1.262   0.900 -0.5802 -0.7260 -0.8997
  369MOL0     H49809   4.730   1.277   0.760 -2.0452  0.3535  0.4859
  369MOL0     H49810   4.831   1.160   0.834 -4.0711 -3.8895  0.1611
  369MOL0     H49811   4.905   1.306   1.002  1.1135 -0.0321 -0.6045
  369MOL0     H49812   4.789   1.438   0.954 -2.0616 -1.0945  0.8064
  369MOL0     H49813   5.152   1.448   0.731 -0.6699  1.8405 -0.3801
  369MOL0     H49814   4.375   1.130   0.879  0.8261 -0.0161 -0.4920
  369MOL0     H49815   4.150   1.096   0.782 -0.2799  2.1146  0.6595
  370MOL0     O49816   1.431  10.715   5.280 -0.0069 -0.4061  0.0779
  370MOL0     C49817   1.548  10.674   5.280 -0.1281  0.0873 -0.2982
  370MOL0     O49818   1.664  10.744   5.332 -0.2317  0.2094 -0.8068
  370MOL0     C49819   1.642  10.880   5.370 -0.4966 -0.0670 -0.6425
  370MOL0     C49820   1.580  10.976   5.286 -0.2142  0.0989  0.6235
  370MOL0     C49821   1.558  11.104   5.329  0.5874  0.5723  0.1675
  370MOL0     C49822   1.588  11.143   5.456 -0.0269 -0.3703 -0.3016
  370MOL0     O49823   1.557  11.267   5.493 -0.2714 -0.0841 -0.3923
  370MOL0     C49824   1.681  11.337   5.531 -0.0035 -1.0505  0.0032
  370MOL0     C49825   1.671  11.384   5.672  0.1080  0.5005  1.1951
  370MOL0     C49826   1.808  11.402   5.730 -0.0312  0.8047 -0.3399
  370MOL0     C49827   1.795  11.453   5.873 -0.5239  0.3865  1.0816
  370MOL0     C49828   1.934  11.450   5.944  0.4129  0.9792  0.4316
  370MOL0     C49829   2.045  11.520   5.868  0.0800 -0.3755 -0.2520
  370MOL0     C49830   2.154  11.589   5.961  0.1561  0.1286  0.1004
  370MOL0     C49831   2.106  11.694   6.055  0.9706 -0.4318 -0.1443
  370MOL0     N49832   2.054  11.809   5.978 -0.4728  0.3012 -0.3575
  370MOL0     C49833   2.127  11.918   5.949 -0.0530 -0.8224 -0.1555
  370MOL0     C49834   2.043  11.998   5.885 -0.2342  0.0188 -1.1370
  370MOL0     C49835   2.085  12.136   5.829 -0.6618 -0.1546 -0.9034
  370MOL0     C49836   2.099  12.260   5.925 -0.0468  0.0260  0.1806
  370MOL0     C49837   2.229  12.326   5.934  0.2085 -0.0976  0.2027
  370MOL0     C49838   2.341  12.223   5.972  0.1604 -0.4566 -0.5518
  370MOL0     O49839   2.318  12.161   6.109  0.1397  0.9037 -0.3572
  370MOL0     C49840   2.406  12.204   6.203 -0.2150  0.0692  0.3341
  370MOL0     C49841   2.424  12.337   6.231  0.1705  0.5852  0.5959
  370MOL0     C49842   2.531  12.381   6.306 -0.0653  0.6119  0.1456
  370MOL0     C49843   2.574  12.525   6.294  0.1357 -0.0758 -0.0838
  370MOL0     C49844   2.612  12.289   6.375  0.6898  0.8835  0.4535
  370MOL0     C49845   2.727  12.325   6.476 -0.2116  0.0322 -0.1037
  370MOL0     O49846   2.811  12.217   6.498 -0.0895 -0.5694 -0.3745
  370MOL0     C49847   2.899  12.255   6.598  0.9048 -0.1748 -0.7317
  370MOL0     C49848   2.877  12.213   6.730  0.8278  0.3892  0.1176
  370MOL0     C49849   2.964  12.243   6.828  0.0587  0.9725 -0.5470
  370MOL0     C49850   3.077  12.312   6.799 -0.7160 -0.5035 -0.5659
  370MOL0     O49851   3.154  12.342   6.907 -0.2159  0.3038 -0.5977
  370MOL0     C49852   3.300  12.360   6.884  0.8581  0.0585  0.1854
  370MOL0     C49853   3.373  12.345   7.012 -0.9699  0.6292  0.1446
  370MOL0     C49854   3.520  12.347   6.981  0.7899 -0.4056  0.2761
  370MOL0     C49855   3.607  12.392   7.102 -0.3916 -0.2127  0.6985
  370MOL0     C49856   3.754  12.359   7.076 -0.5463 -0.2294  0.3686
  370MOL0     C49857   3.842  12.448   7.159 -0.6675  0.3577 -0.3427
  370MOL0     C49858   3.831  12.412   7.308 -0.3021  0.0465 -0.7430
  370MOL0     C49859   3.906  12.515   7.400  0.1715  0.6231  0.4513
  370MOL0    Cl49860   4.071  12.567   7.338  0.4356  0.7654  0.6245
  370MOL0     C49861   3.102  12.353   6.668  0.6106  0.3509  0.0293
  370MOL0     C49862   3.018  12.329   6.566  0.0047  1.0146  0.6084
  370MOL0     O49863   2.729  12.442   6.527  0.2285 -0.0238  0.8436
  370MOL0     C49864   2.582  12.152   6.358 -0.9432  1.9360 -0.0960
  370MOL0     C49865   2.487  12.107   6.265  0.3283  0.5693 -0.1268
  370MOL0     N49866   1.919  11.938   5.881 -0.3279 -0.2114 -0.2962
  370MOL0     N49867   1.928  11.830   5.947 -0.2070 -0.0565  0.6135
  370MOL0     C49868   1.651  11.057   5.543  0.7120  0.7830  0.4343
  370MOL0     C49869   1.678  10.924   5.502  1.1362  1.3641  1.0348
  370MOL0     C49870   1.587  10.560   5.204 -1.0080  0.9954  0.6799
  370MOL0     C49871   1.709  10.485   5.215 -0.2143  0.7028 -0.5423
  370MOL0     C49872   1.715  10.359   5.147 -0.4106 -0.1463  0.4048
  370MOL0     C49873   1.617  10.303   5.068  0.2655 -0.3416  0.9077
  370MOL0     O49874   1.643  10.176   5.016 -0.2997  0.2166  0.2180
  370MOL0     C49875   1.560  10.111   4.925 -0.5232 -0.0413  0.3843
  370MOL0     C49876   1.585  10.166   4.787 -0.2135 -0.0866 -0.2192
  370MOL0     C49877   1.539  10.069   4.678 -0.1061  0.4595  0.3660
  370MOL0     C49878   1.609  10.113   4.542 -0.3818 -0.0204  0.3900
  370MOL0     C49879   1.584  10.254   4.507  0.7909  0.0289 -0.5244
  370MOL0     C49880   1.569  10.378   4.498  0.3064  0.1576 -0.4860
  370MOL0     C49881   1.502  10.377   5.054 -0.0106 -0.5001  0.0363
  370MOL0     C49882   1.487  10.500   5.116 -0.1618 -0.2979 -0.8655
  370MOL0     H49883   1.566  10.970   5.179  1.8029  2.7347  0.0885
  370MOL0     H49884   1.513  11.167   5.253 -1.2572 -0.9327 -0.0537
  370MOL0     H49885   1.778  11.287   5.522  2.5462  3.5381 -1.7789
  370MOL0     H49886   1.691  11.427   5.469 -0.5207 -1.7598 -1.1351
  370MOL0     H49887   1.616  11.479   5.666 -0.6492  0.0136 -0.1405
  370MOL0     H49888   1.611  11.317   5.733 -2.6064  1.2930 -0.3927
  370MOL0     H49889   1.847  11.300   5.736 -1.3457  0.3375  1.0268
  370MOL0     H49890   1.880  11.461   5.672  1.8054  2.8512  3.6108
  370MOL0     H49891   1.755  11.555   5.865  0.4207  0.5868 -2.2946
  370MOL0     H49892   1.712  11.406   5.927 -0.4521 -2.5605 -1.1159
  370MOL0     H49893   1.914  11.492   6.043  1.7629  0.1363  1.0853
  370MOL0     H49894   1.957  11.345   5.965  3.9821  1.7388  0.9548
  370MOL0     H49895   2.086  11.452   5.793 -0.0571 -0.6014 -0.1212
  370MOL0     H49896   2.008  11.610   5.819 -2.0671 -0.7187  0.6391
  370MOL0     H49897   2.187  11.511   6.031 -5.1246 -1.4944  1.2363
  370MOL0     H49898   2.230  11.627   5.893  0.0356  0.5259  0.1837
  370MOL0     H49899   2.186  11.735   6.118  0.5423 -0.0705  0.1694
  370MOL0     H49900   2.023  11.665   6.119  1.4953  1.5220  1.5265
  370MOL0     H49901   2.231  11.924   5.977 -0.8867 -1.2053  3.4930
  370MOL0     H49902   2.178  12.120   5.773 -0.6304 -0.9538 -0.6301
  370MOL0     H49903   2.018  12.170   5.750 -1.6960  0.4948  0.2231
  370MOL0     H49904   2.070  12.229   6.026  1.5878  3.2020  1.7752
  370MOL0     H49905   2.031  12.333   5.880 -1.3995  0.5843  2.9380
  370MOL0     H49906   2.227  12.396   6.018  2.8207  0.9906 -0.5316
  370MOL0     H49907   2.258  12.372   5.839  5.1873 -2.5650  0.1738
  370MOL0     H49908   2.434  12.279   5.959 -1.7277  2.3664 -3.4295
  370MOL0     H49909   2.342  12.137   5.905 -1.6523 -1.7365  0.9572
  370MOL0     H49910   2.365  12.404   6.169 -0.3047 -1.5318 -1.3443
  370MOL0     H49911   2.682  12.524   6.273 -0.0602  1.4717 -1.3374
  370MOL0     H49912   2.512  12.551   6.209 -3.0598 -1.4418  1.6474
  370MOL0     H49913   2.564  12.589   6.382  2.1319  0.5305 -0.2454
  370MOL0     H49914   2.783  12.163   6.752  1.2379 -0.9002 -0.9451
  370MOL0     H49915   2.937  12.202   6.925  1.0825 -4.0103 -2.0679
  370MOL0     H49916   3.335  12.272   6.829  3.9242  0.1329  1.8494
  370MOL0     H49917   3.315  12.454   6.829 -3.9996  2.9275  3.0012
  370MOL0     H49918   3.354  12.434   7.072 -2.5568  0.3646  0.0795
  370MOL0     H49919   3.342  12.254   7.065  1.3091  0.4748  1.3127
  370MOL0     H49920   3.527  12.413   6.894 -1.1225  3.7917  2.9643
  370MOL0     H49921   3.542  12.241   6.967 -0.5914 -0.8161  1.0544
  370MOL0     H49922   3.597  12.500   7.119 -3.6317  0.2411 -2.8801
  370MOL0     H49923   3.579  12.326   7.185  0.9287 -0.7236  0.7609
  370MOL0     H49924   3.780  12.373   6.970  0.8286  0.4562  0.7624
  370MOL0     H49925   3.774  12.255   7.100  2.1661  0.3924  1.2185
  370MOL0     H49926   3.944  12.427   7.126 -0.0619 -1.2893  2.2313
  370MOL0     H49927   3.824  12.555   7.148  0.3989  1.0312  3.1535
  370MOL0     H49928   3.877  12.316   7.331 -2.0935 -0.3584  1.5139
  370MOL0     H49929   3.726  12.412   7.338 -1.2798 -1.6533 -3.7110
  370MOL0     H49930   3.913  12.474   7.501  2.3856  0.8978  0.4432
  370MOL0     H49931   3.846  12.607   7.397  0.0207  0.5938 -3.9891
  370MOL0     H49932   3.190  12.416   6.656  0.3671  1.2864  2.4872
  370MOL0     H49933   3.052  12.374   6.473  1.5243 -0.0210  0.6306
  370MOL0     H49934   2.667  12.094   6.390  1.4965  3.7909 -2.7483
  370MOL0     H49935   2.460  12.004   6.242 -0.3329  0.3399  1.5255
  370MOL0     H49936   1.684  11.092   5.640 -0.3790 -0.5902  1.3475
  370MOL0     H49937   1.731  10.851   5.562 -1.4892 -1.6102  0.0405
  370MOL0     H49938   1.791  10.516   5.278 -0.4050  3.7441 -1.6336
  370MOL0     H49939   1.806  10.300   5.157 -0.6297 -1.2082 -2.7059
  370MOL0     H49940   1.584  10.004   4.925  0.6401  0.2017  1.8812
  370MOL0     H49941   1.455  10.123   4.954 -0.7017 -1.5043  0.4434
  370MOL0     H49942   1.692  10.180   4.767 -0.7231 -1.1492 -4.8140
  370MOL0     H49943   1.534  10.260   4.767  0.6175  0.1882 -1.1575
  370MOL0     H49944   1.430  10.063   4.670 -0.2113  1.3558  0.9040
  370MOL0     H49945   1.565   9.963   4.687  1.1813  0.2548 -3.7317
  370MOL0     H49946   1.583  10.051   4.456  3.0598 -1.0549 -0.0718
  370MOL0     H49947   1.716  10.091   4.551  0.1701  2.0716 -0.5658
  370MOL0     H49948   1.559  10.484   4.489  1.8749  0.3084 -0.7597
  370MOL0     H49949   1.419  10.340   4.995  0.6188  0.0162 -1.2214
  370MOL0     H49950   1.394  10.555   5.109 -1.4694 -2.1046  1.3785
  371MOL0     O49951   0.651   9.956   6.787 -0.0667  0.7199  0.4235
  371MOL0     C49952   0.550   9.937   6.715  0.4380  0.1012 -0.8772
  371MOL0     O49953   0.556   9.890   6.590  0.9246 -0.1035 -0.0947
  371MOL0     C49954   0.677   9.865   6.521  0.6376  0.6743 -0.2400
  371MOL0     C49955   0.771   9.762   6.565  0.6081 -0.9456 -1.2661
  371MOL0     C49956   0.897   9.757   6.520 -0.0387  0.1092 -0.8841
  371MOL0     C49957   0.933   9.845   6.411  0.2863 -0.2174  0.3138
  371MOL0     O49958   1.052   9.822   6.357 -0.0340 -1.0178  0.7147
  371MOL0     C49959   1.134   9.941   6.351  0.0465 -0.1750  0.0992
  371MOL0     C49960   1.277   9.893   6.308 -0.1961  0.6401  0.8018
  371MOL0     C49961   1.333   9.788   6.406  0.0276  0.1636 -0.3869
  371MOL0     C49962   1.455   9.728   6.344 -0.9021 -0.2695 -0.2946
  371MOL0     C49963   1.543   9.644   6.442 -0.3135 -0.6571 -0.3180
  371MOL0     C49964   1.580   9.725   6.572 -0.3095  0.1134 -0.1534
  371MOL0     C49965   1.682   9.642   6.654 -0.2540  1.5054 -0.5571
  371MOL0     C49966   1.734   9.708   6.787  0.6618  0.2378 -0.3839
  371MOL0     N49967   1.625   9.738   6.883  0.7757  0.5602 -0.1166
  371MOL0     C49968   1.532   9.646   6.927  0.0230  0.5789  0.1621
  371MOL0     C49969   1.488   9.693   7.045  0.2418 -0.5759 -0.1598
  371MOL0     C49970   1.401   9.616   7.144 -0.1471  0.7285 -0.2908
  371MOL0     C49971   1.257   9.631   7.103 -0.0282  1.0614 -0.3535
  371MOL0     C49972   1.155   9.589   7.220 -0.6357 -0.6032 -0.3112
  371MOL0     C49973   1.015   9.647   7.177 -1.4310  0.3347  0.7135
  371MOL0     O49974   0.926   9.624   7.286 -0.2104 -0.4793 -0.3101
  371MOL0     C49975   0.865   9.504   7.305  0.2163 -0.4530 -1.0350
  371MOL0     C49976   0.874   9.399   7.213  0.4936  1.0239  1.4527
  371MOL0     C49977   0.807   9.268   7.224 -0.8264  0.0264  1.0274
  371MOL0     C49978   0.820   9.173   7.115  0.3385 -0.4442  0.1835
  371MOL0     C49979   0.728   9.245   7.334 -0.1129  1.0486 -1.3425
  371MOL0     C49980   0.664   9.109   7.369 -0.0090  0.4237 -0.2760
  371MOL0     O49981   0.648   9.078   7.500 -0.0310  0.2285 -0.2759
  371MOL0     C49982   0.562   8.993   7.559  0.3331 -0.3181  0.2918
  371MOL0     C49983   0.456   8.922   7.486  0.1239  0.0650  0.2516
  371MOL0     C49984   0.352   8.854   7.544  0.1507  1.2406  0.2487
  371MOL0     C49985   0.359   8.829   7.680  0.1311 -0.5673 -0.4983
  371MOL0     O49986   0.262   8.744   7.736  0.4359  0.3340  0.5621
  371MOL0     C49987   0.256   8.715   7.878  0.3761 -0.4786  0.3480
  371MOL0     C49988   0.140   8.615   7.894  0.4894  0.4308 -0.5913
  371MOL0     C49989   0.003   8.662   7.825 -0.0305 -0.1057 -0.1274
  371MOL0     C49990  -0.106   8.569   7.853 -0.0453 -0.1685  0.0842
  371MOL0     C49991  -0.153   8.571   8.002  0.5693 -0.6853  0.1997
  371MOL0     C49992  -0.300   8.553   8.020  0.6328 -0.9993 -0.1372
  371MOL0     C49993  -0.385   8.672   7.949 -0.6574 -1.1452  0.8409
  371MOL0     C49994  -0.493   8.737   8.036 -0.6294  1.0293  0.0570
  371MOL0    Cl49995  -0.612   8.608   8.079  0.1410 -0.0288  0.1231
  371MOL0     C49996   0.471   8.881   7.756  0.0877 -0.4392 -0.6618
  371MOL0     C49997   0.571   8.957   7.696  0.8653 -0.1241 -0.1913
  371MOL0     O49998   0.636   9.036   7.276  0.6741  0.5031 -0.0938
  371MOL0     C49999   0.718   9.351   7.420 -0.4058  0.4091  0.4047
  371MOL0     C50000   0.774   9.483   7.410  0.0701  0.4056 -0.9260
  371MOL0     N50001   1.527   9.821   7.062 -0.0019 -0.2518  0.3917
  371MOL0     N50002   1.606   9.846   6.964 -0.2404 -0.3838 -0.5984
  371MOL0     C50003   0.834   9.920   6.346 -0.2829 -0.2256  0.5859
  371MOL0     C50004   0.711   9.937   6.410 -0.6672  0.6215  0.8930
  371MOL0     C50005   0.425   9.971   6.785 -0.0243  1.4152  0.4189
  371MOL0     C50006   0.417  10.060   6.889 -0.5280 -0.4935  0.2024
  371MOL0     C50007   0.301  10.080   6.965 -0.2874 -0.1215  0.3264
  371MOL0     C50008   0.188   9.997   6.936 -0.3466  0.8341  0.2050
  371MOL0     O50009   0.068  10.003   6.997  0.3349 -0.2022 -0.5851
  371MOL0     C50010   0.043  10.079   7.125  0.4256 -0.1180 -0.1638
  371MOL0     C50011   0.118  10.017   7.233 -0.3168  0.4197  0.2348
  371MOL0     C50012   0.062  10.062   7.369 -0.0332  0.1965  0.1103
  371MOL0     C50013   0.122   9.971   7.472 -0.9283  0.1857  0.6785
  371MOL0     C50014   0.078  10.000   7.609 -0.1123 -0.2522 -0.3458
  371MOL0     C50015   0.034  10.039   7.720  1.6281 -0.4802 -0.4038
  371MOL0     C50016   0.185   9.909   6.826 -0.3347  0.8338 -0.5969
  371MOL0     C50017   0.312   9.893   6.761  0.5444 -0.1427  0.4040
  371MOL0     H50018   0.735   9.715   6.657  2.2171  0.1143 -0.0467
  371MOL0     H50019   0.970   9.695   6.570 -0.0347  1.7089  1.2389
  371MOL0     H50020   1.092  10.017   6.285  3.6801 -1.2608 -3.9228
  371MOL0     H50021   1.137   9.984   6.452  1.9366 -2.6427  1.2087
  371MOL0     H50022   1.258   9.835   6.217 -2.0310  1.2571  0.7344
  371MOL0     H50023   1.346   9.976   6.291  0.9341 -0.8746 -3.3979
  371MOL0     H50024   1.355   9.836   6.502 -0.9638 -0.4069  0.1404
  371MOL0     H50025   1.262   9.709   6.432  0.6245 -0.2538 -0.0104
  371MOL0     H50026   1.416   9.658   6.270 -1.8166 -0.6493  0.5366
  371MOL0     H50027   1.525   9.801   6.301  0.9428 -1.5567  0.4233
  371MOL0     H50028   1.492   9.553   6.478  1.3845 -0.2389  3.6070
  371MOL0     H50029   1.628   9.602   6.388  0.3631  1.1606 -0.7026
  371MOL0     H50030   1.608   9.829   6.554 -0.0793  0.1903  0.6331
  371MOL0     H50031   1.494   9.724   6.639  0.3787 -1.0290  0.7408
  371MOL0     H50032   1.635   9.545   6.675  0.3305  0.5658 -3.0985
  371MOL0     H50033   1.770   9.622   6.590 -1.2186 -0.5849 -1.3378
  371MOL0     H50034   1.792   9.796   6.759 -0.9622  1.4690 -0.0673
  371MOL0     H50035   1.797   9.641   6.847  3.4944  1.0268 -2.3175
  371MOL0     H50036   1.508   9.554   6.875 -0.1252  0.7457 -0.0673
  371MOL0     H50037   1.424   9.510   7.135 -1.6633  0.3679 -0.1818
  371MOL0     H50038   1.423   9.649   7.246  0.9345  0.1827 -0.3338
  371MOL0     H50039   1.221   9.570   7.019 -1.2502 -0.0666  0.9513
  371MOL0     H50040   1.240   9.733   7.067  0.7403  0.4123 -2.8292
  371MOL0     H50041   1.193   9.634   7.313  4.0928 -0.3181 -2.1058
  371MOL0     H50042   1.154   9.480   7.228 -0.9603 -0.5160  1.3868
  371MOL0     H50043   0.968   9.617   7.083 -2.0617  0.8083  0.8749
  371MOL0     H50044   1.022   9.756   7.170 -0.5239  0.2445  0.0435
  371MOL0     H50045   0.922   9.417   7.118  0.9956  1.8217  1.8515
  371MOL0     H50046   0.912   9.188   7.059  0.6708  0.6749  0.9786
  371MOL0     H50047   0.852   9.078   7.158  3.7916  0.0918 -0.9201
  371MOL0     H50048   0.734   9.175   7.048  0.1967  1.8171  0.3470
  371MOL0     H50049   0.433   8.934   7.381 -0.3941 -2.3945  0.0248
  371MOL0     H50050   0.280   8.798   7.484 -1.2064  2.1367  0.9901
  371MOL0     H50051   0.345   8.667   7.921 -1.2742 -2.0467  2.2529
  371MOL0     H50052   0.234   8.807   7.932  0.4929 -1.4568  2.1517
  371MOL0     H50053   0.178   8.520   7.856  2.1539  0.9293 -0.2419
  371MOL0     H50054   0.118   8.604   8.001 -0.1155 -3.2011 -0.9943
  371MOL0     H50055   0.025   8.664   7.718  0.4668 -0.4158 -0.0315
  371MOL0     H50056  -0.025   8.759   7.866 -2.0523 -1.1778  1.1933
  371MOL0     H50057  -0.186   8.592   7.781  0.7853  2.2543 -0.1497
  371MOL0     H50058  -0.062   8.473   7.824  1.8285  0.8271 -0.5690
  371MOL0     H50059  -0.116   8.661   8.052 -0.4554  0.5794 -1.1974
  371MOL0     H50060  -0.111   8.490   8.063 -0.7274  0.2686  2.4601
  371MOL0     H50061  -0.334   8.456   7.983 -0.0978 -0.2707 -1.4284
  371MOL0     H50062  -0.318   8.566   8.127 -0.9006 -1.2748 -0.3472
  371MOL0     H50063  -0.443   8.631   7.865  0.0955  1.5582 -1.1393
  371MOL0     H50064  -0.312   8.738   7.901  0.9940 -2.5941  1.2345
  371MOL0     H50065  -0.550   8.812   7.981 -0.9139 -0.0685 -1.2200
  371MOL0     H50066  -0.463   8.789   8.127 -1.2764 -0.9345  1.4865
  371MOL0     H50067   0.489   8.861   7.861  0.8560 -2.4394 -1.1247
  371MOL0     H50068   0.650   8.995   7.761  1.5757  1.5844 -1.9518
  371MOL0     H50069   0.647   9.328   7.498  0.6635  0.2596  1.3714
  371MOL0     H50070   0.749   9.560   7.483 -2.2162 -1.8957  0.9026
  371MOL0     H50071   0.856   9.984   6.261 -1.1060 -0.8174 -0.0869
  371MOL0     H50072   0.640  10.004   6.362  0.8035  0.7757 -1.2182
  371MOL0     H50073   0.498  10.131   6.903 -1.7823  0.9273  0.5509
  371MOL0     H50074   0.290  10.152   7.046  0.3249  0.6747 -0.2732
  371MOL0     H50075   0.073  10.184   7.117 -1.2673  0.5269  1.1008
  371MOL0     H50076  -0.063  10.072   7.152  0.8529  0.3867  1.7791
  371MOL0     H50077   0.227  10.023   7.226  0.1260 -1.8651  3.3967
  371MOL0     H50078   0.093   9.911   7.238 -1.6636  0.7976  2.7894
  371MOL0     H50079  -0.047  10.066   7.360 -0.0184 -2.0570 -2.0227
  371MOL0     H50080   0.111  10.157   7.393  0.6484  0.1796 -1.1491
  371MOL0     H50081   0.231   9.974   7.478 -0.8806 -0.9265  0.5849
  371MOL0     H50082   0.109   9.868   7.436  2.1593 -0.5225  1.2806
  371MOL0     H50083  -0.015  10.069   7.810 -0.9852  6.0362 -3.3480
  371MOL0     H50084   0.103   9.860   6.773  0.2281  3.0208 -3.8245
  371MOL0     H50085   0.318   9.818   6.683  2.7720 -0.5107  0.8592
  372MOL0     O50086   9.733   2.580   2.862 -0.9064 -0.2867  0.1896
  372MOL0     C50087   9.698   2.514   2.955 -0.6434 -0.5965 -0.0092
  372MOL0     O50088   9.703   2.548   3.087  0.0232 -0.7957  0.4526
  372MOL0     C50089   9.781   2.663   3.110 -1.4041  0.6314  0.5434
  372MOL0     C50090   9.914   2.687   3.060  0.2893  0.1225  0.4650
  372MOL0     C50091   9.989   2.797   3.099  0.0662 -0.1007 -0.1585
  372MOL0     C50092   9.932   2.898   3.189 -0.5725  0.4871  0.6962
  372MOL0     O50093   9.969   3.029   3.209  0.7223 -0.5185  0.1680
  372MOL0     C50094  10.111   3.048   3.223 -0.0766 -0.4336 -1.6578
  372MOL0     C50095  10.133   3.203   3.249 -0.8249 -0.5707 -0.1851
  372MOL0     C50096  10.283   3.228   3.298  0.2678 -1.1338  0.5343
  372MOL0     C50097  10.307   3.379   3.301 -0.5823 -0.2595 -0.1596
  372MOL0     C50098  10.446   3.417   3.349  0.5440 -0.3688  0.3173
  372MOL0     C50099  10.454   3.451   3.498  0.4373  0.3965  0.2732
  372MOL0     C50100  10.595   3.502   3.528  0.3383 -0.0190 -0.1379
  372MOL0     C50101  10.591   3.579   3.659 -1.4382  1.2082  0.0982
  372MOL0     N50102  10.730   3.608   3.697 -0.0214 -0.1563 -0.0285
  372MOL0     C50103  10.806   3.690   3.618 -1.2142 -0.8214 -0.0615
  372MOL0     C50104  10.919   3.710   3.694  0.2396 -0.5967 -0.1466
  372MOL0     C50105  11.026   3.808   3.666  0.2632  0.0708  0.0535
  372MOL0     C50106  11.158   3.748   3.617 -0.7078  0.7522  0.2927
  372MOL0     C50107  11.258   3.868   3.634 -0.7961 -0.9215  0.2311
  372MOL0     C50108  11.333   3.860   3.765  0.1480  0.8385  0.1313
  372MOL0     O50109  11.450   3.946   3.754 -0.1736 -0.0236 -0.6278
  372MOL0     C50110  11.455   4.070   3.803  0.0601 -0.0942  0.1380
  372MOL0     C50111  11.378   4.125   3.906  0.2128 -0.5830 -0.8524
  372MOL0     C50112  11.369   4.265   3.927  0.0751  1.5209  0.0880
  372MOL0     C50113  11.254   4.313   4.018  0.3724  0.7906 -0.2025
  372MOL0     C50114  11.454   4.351   3.853  0.0122  0.2608 -0.3431
  372MOL0     C50115  11.450   4.496   3.870  0.6060  0.6624 -0.1313
  372MOL0     O50116  11.435   4.559   3.989  1.2981  1.0048  0.0893
  372MOL0     C50117  11.480   4.689   4.020 -0.0845 -0.2049 -0.6728
  372MOL0     C50118  11.443   4.729   4.147  0.5750 -0.0926 -0.0061
  372MOL0     C50119  11.459   4.853   4.192 -0.5719  0.4599 -0.1964
  372MOL0     C50120  11.513   4.953   4.118  0.2494  0.1300 -0.1194
  372MOL0     O50121  11.529   5.080   4.151 -0.1326  0.2618 -0.3906
  372MOL0     C50122  11.565   5.111   4.291 -1.2237 -0.2921 -0.7305
  372MOL0     C50123  11.666   5.229   4.299  0.1870  0.1953  0.4238
  372MOL0     C50124  11.727   5.253   4.442 -0.1953 -0.5063  0.2931
  372MOL0     C50125  11.838   5.362   4.441  0.2177 -0.9468  0.1200
  372MOL0     C50126  11.914   5.361   4.582  0.2010  0.7360 -0.7406
  372MOL0     C50127  12.032   5.453   4.604 -0.4303  0.8221 -1.4365
  372MOL0     C50128  12.015   5.587   4.532 -0.0165  1.2266  0.0092
  372MOL0     C50129  12.115   5.702   4.571 -0.2660  0.0857 -0.2218
  372MOL0    Cl50130  12.280   5.648   4.603 -0.0123  0.0697 -0.1316
  372MOL0     C50131  11.540   4.920   3.990  0.1416 -0.1308  0.9319
  372MOL0     C50132  11.527   4.793   3.934 -0.3201  0.8022  0.2122
  372MOL0     O50133  11.455   4.556   3.760  0.0413 -0.9990 -0.2813
  372MOL0     C50134  11.527   4.299   3.746  0.1738  0.1548  0.3336
  372MOL0     C50135  11.521   4.155   3.727 -0.0872  0.7912 -0.1850
  372MOL0     N50136  10.896   3.641   3.811  0.1843 -0.0408 -0.5685
  372MOL0     N50137  10.790   3.582   3.819  0.2613  0.5782 -0.0180
  372MOL0     C50138   9.804   2.869   3.241  0.2765  0.6722  0.4464
  372MOL0     C50139   9.726   2.762   3.199 -0.7615 -0.0195 -0.7963
  372MOL0     C50140   9.639   2.385   2.923 -0.3910  0.3315 -0.1932
  372MOL0     C50141   9.569   2.357   2.803  0.2190  0.2027  0.1201
  372MOL0     C50142   9.502   2.236   2.783  0.0782  0.1952 -0.7113
  372MOL0     C50143   9.518   2.129   2.880 -1.4947 -0.1801 -0.5631
  372MOL0     O50144   9.452   2.014   2.877  0.3121 -0.0034 -0.3829
  372MOL0     C50145   9.391   1.974   2.751 -0.3208  0.8315 -0.1234
  372MOL0     C50146   9.503   1.911   2.671 -0.1897 -0.6598 -0.1165
  372MOL0     C50147   9.448   1.846   2.545 -0.2702  0.5930  0.7164
  372MOL0     C50148   9.559   1.753   2.486 -0.9525 -0.6925  0.8585
  372MOL0     C50149   9.570   1.627   2.560 -0.0360  0.6133  0.1957
  372MOL0     C50150   9.555   1.521   2.617  0.3692 -0.7342 -0.8853
  372MOL0     C50151   9.610   2.149   2.985  0.2662 -1.2092 -0.5140
  372MOL0     C50152   9.663   2.276   3.015  0.1086  0.9321 -0.1004
  372MOL0     H50153   9.959   2.617   2.990  2.2692  2.0738 -0.3344
  372MOL0     H50154  10.088   2.806   3.056  0.8751  0.1767  1.6731
  372MOL0     H50155  10.166   2.994   3.301 -2.1477  0.9475  0.9654
  372MOL0     H50156  10.165   3.032   3.129  2.2214  0.4667 -0.5859
  372MOL0     H50157  10.129   3.262   3.157  0.5416  0.9236  0.6512
  372MOL0     H50158  10.062   3.245   3.320 -0.4269 -1.4658  0.7582
  372MOL0     H50159  10.295   3.196   3.402  0.4406 -0.7660  0.6280
  372MOL0     H50160  10.352   3.183   3.225 -0.3233  0.0090 -0.7825
  372MOL0     H50161  10.281   3.409   3.199 -2.3664 -1.9909 -0.2721
  372MOL0     H50162  10.226   3.429   3.355 -1.9558 -1.9810 -0.5351
  372MOL0     H50163  10.516   3.338   3.322 -0.1550 -0.7048 -0.5517
  372MOL0     H50164  10.476   3.505   3.291  0.6582 -2.5132 -3.1708
  372MOL0     H50165  10.375   3.523   3.520  0.2501  0.7715 -1.4709
  372MOL0     H50166  10.428   3.371   3.568 -1.2691  3.0118  2.8603
  372MOL0     H50167  10.656   3.412   3.528 -1.2963 -1.1688 -0.6624
  372MOL0     H50168  10.628   3.571   3.449 -0.7591 -0.3717 -0.9376
  372MOL0     H50169  10.543   3.520   3.738  0.1487 -1.7115 -0.9639
  372MOL0     H50170  10.537   3.674   3.644  3.0056  4.0795  0.3682
  372MOL0     H50171  10.786   3.725   3.517  2.7007 -0.4824 -0.8700
  372MOL0     H50172  10.986   3.882   3.595 -1.2339 -1.1579 -0.4373
  372MOL0     H50173  11.045   3.862   3.759 -3.4521  1.5901  0.0958
  372MOL0     H50174  11.140   3.725   3.512 -3.4618  1.7829  0.4521
  372MOL0     H50175  11.184   3.662   3.679 -0.7117  0.6697  0.1785
  372MOL0     H50176  11.213   3.967   3.627  0.9035  0.1775  3.2322
  372MOL0     H50177  11.326   3.871   3.548 -3.2682  5.0691 -2.0231
  372MOL0     H50178  11.365   3.756   3.771 -1.6533  0.2103 -0.4038
  372MOL0     H50179  11.265   3.895   3.844 -2.0699  1.8476 -2.0712
  372MOL0     H50180  11.316   4.061   3.967 -1.9946  1.6728 -0.5714
  372MOL0     H50181  11.297   4.342   4.115  0.6307  0.1185 -0.1061
  372MOL0     H50182  11.189   4.391   3.978  0.6843  0.6322 -1.0313
  372MOL0     H50183  11.190   4.227   4.041 -3.4198  3.5540  0.5298
  372MOL0     H50184  11.407   4.650   4.211  1.1030  0.9596  1.6617
  372MOL0     H50185  11.432   4.880   4.294  1.7481 -2.8947  1.5104
  372MOL0     H50186  11.481   5.129   4.360 -0.3581 -0.0150  0.2740
  372MOL0     H50187  11.617   5.027   4.338 -1.3355  1.0205  1.9266
  372MOL0     H50188  11.746   5.219   4.225  0.6249  3.7784  0.1989
  372MOL0     H50189  11.608   5.318   4.272  0.8335  0.9064  1.3065
  372MOL0     H50190  11.768   5.154   4.463  2.8942 -0.2488 -3.3783
  372MOL0     H50191  11.658   5.286   4.520  3.2984 -0.3547  3.5784
  372MOL0     H50192  11.904   5.342   4.356 -1.3533 -1.5300 -1.0163
  372MOL0     H50193  11.794   5.462   4.434  1.2969 -0.3835  1.0870
  372MOL0     H50194  11.955   5.261   4.598  1.3681  1.3532  0.2500
  372MOL0     H50195  11.836   5.366   4.658  0.2856 -0.4881 -0.5553
  372MOL0     H50196  12.058   5.448   4.710 -3.0982  0.0941 -0.7490
  372MOL0     H50197  12.117   5.408   4.552 -0.9964  1.1767 -2.7161
  372MOL0     H50198  11.911   5.619   4.542 -1.2716 -2.4958  0.5679
  372MOL0     H50199  12.019   5.568   4.425 -0.3580  1.2422 -0.0069
  372MOL0     H50200  12.079   5.752   4.661  3.9840  2.6095  0.3108
  372MOL0     H50201  12.126   5.783   4.498  0.1148 -0.2961 -0.5930
  372MOL0     H50202  11.589   4.993   3.928  2.8152 -2.4897  0.0437
  372MOL0     H50203  11.561   4.755   3.838  0.3160 -0.0160  0.7470
  372MOL0     H50204  11.579   4.363   3.676 -0.3377  1.3009  0.9629
  372MOL0     H50205  11.587   4.130   3.644 -0.5373 -0.1906 -0.2570
  372MOL0     H50206   9.757   2.941   3.308  0.1550  1.0615 -0.0553
  372MOL0     H50207   9.627   2.738   3.238 -0.1137  0.0706  0.9817
  372MOL0     H50208   9.553   2.435   2.730  1.4516  1.0936  0.7617
  372MOL0     H50209   9.434   2.220   2.700  1.2594 -1.3125 -1.4404
  372MOL0     H50210   9.322   1.891   2.765  1.2641 -0.3565  0.9494
  372MOL0     H50211   9.332   2.048   2.695 -2.6852 -3.5217 -4.1047
  372MOL0     H50212   9.542   1.830   2.734 -0.6840 -0.4750  0.4404
  372MOL0     H50213   9.584   1.981   2.650  1.2746 -2.6052 -1.2817
  372MOL0     H50214   9.439   1.931   2.477  4.8398  0.9860  0.1444
  372MOL0     H50215   9.355   1.791   2.565  0.3163  0.4913  3.5277
  372MOL0     H50216   9.655   1.803   2.472  0.5145 -2.8006  2.6577
  372MOL0     H50217   9.532   1.720   2.385  1.3754 -1.6820  0.4996
  372MOL0     H50218   9.527   1.426   2.658 -2.9975 -0.0374 -1.3045
  372MOL0     H50219   9.625   2.064   3.051  1.6650 -0.4591  0.1692
  372MOL0     H50220   9.728   2.294   3.099 -0.4722 -1.2336  0.8879
  373MOL0     O50221   1.389  10.932   2.434  0.0532  0.2700 -0.4896
  373MOL0     C50222   1.345  10.888   2.541 -0.7558  0.6530  0.0242
  373MOL0     O50223   1.318  10.958   2.653 -0.3064 -0.0261  0.7263
  373MOL0     C50224   1.361  11.087   2.680 -1.0271 -0.2927 -0.1128
  373MOL0     C50225   1.393  11.188   2.577  0.1493  0.3945 -0.2638
  373MOL0     C50226   1.475  11.303   2.610  0.5496 -0.0342  0.5731
  373MOL0     C50227   1.514  11.323   2.742 -0.4756  1.5874 -0.5804
  373MOL0     O50228   1.604  11.420   2.754  0.4217  0.0220  0.2435
  373MOL0     C50229   1.688  11.428   2.876 -0.7806  1.2244 -1.0825
  373MOL0     C50230   1.793  11.540   2.857 -0.7022 -0.0709 -0.4641
  373MOL0     C50231   1.883  11.528   2.737  1.3498 -1.1100 -0.7900
  373MOL0     C50232   1.930  11.668   2.698  0.0830 -0.4465  0.5412
  373MOL0     C50233   1.814  11.752   2.640  0.1265 -0.8037  1.1383
  373MOL0     C50234   1.871  11.862   2.556 -1.0553  0.3684 -0.0217
  373MOL0     C50235   1.775  11.970   2.496  0.8341 -0.0388 -0.4795
  373MOL0     C50236   1.672  11.893   2.406 -0.5485  1.0749  0.7112
  373MOL0     N50237   1.593  11.973   2.301  0.4717 -0.0785 -0.2259
  373MOL0     C50238   1.551  12.101   2.331 -1.5790 -0.4729  0.2983
  373MOL0     C50239   1.501  12.143   2.216 -0.7090 -0.1591  0.3497
  373MOL0     C50240   1.430  12.271   2.206 -0.3058 -0.3116 -0.0706
  373MOL0     C50241   1.299  12.239   2.282 -0.4016  0.6353 -0.0905
  373MOL0     C50242   1.200  12.347   2.250 -0.0156 -0.1472 -0.4787
  373MOL0     C50243   1.084  12.354   2.348  0.4501 -0.7794 -0.3091
  373MOL0     O50244   1.040  12.235   2.413 -0.4036  0.2116  0.1805
  373MOL0     C50245   0.957  12.245   2.519  0.1833 -0.2847  0.0888
  373MOL0     C50246   0.923  12.367   2.586 -0.0605  0.4212  0.6701
  373MOL0     C50247   0.855  12.369   2.709 -0.6690 -0.1963  1.4323
  373MOL0     C50248   0.817  12.504   2.765 -0.2712 -0.3393  0.9840
  373MOL0     C50249   0.836  12.244   2.778  0.5144 -0.1611 -0.2711
  373MOL0     C50250   0.770  12.224   2.906  0.5271  0.9490  0.2766
  373MOL0     O50251   0.719  12.102   2.934 -0.1961  0.8146 -0.3198
  373MOL0     C50252   0.646  12.106   3.055  0.9499 -0.4942  0.1100
  373MOL0     C50253   0.524  12.182   3.062 -0.9490  0.6896  0.3692
  373MOL0     C50254   0.461  12.175   3.180  0.3036  0.7913  1.0438
  373MOL0     C50255   0.500  12.098   3.294  0.2633  0.8311 -0.2548
  373MOL0     O50256   0.430  12.111   3.412  0.3042  0.1755  0.0973
  373MOL0     C50257   0.507  12.119   3.528  0.1817  0.4141 -0.4134
  373MOL0     C50258   0.545  12.271   3.555  1.2954  0.1185  0.8707
  373MOL0     C50259   0.666  12.305   3.464 -0.4158  0.2069  0.0797
  373MOL0     C50260   0.752  12.415   3.530 -0.9013  1.2650  0.0194
  373MOL0     C50261   0.716  12.552   3.474  0.3842 -0.9372  0.0323
  373MOL0     C50262   0.832  12.645   3.523  0.6195  0.0657  0.3262
  373MOL0     C50263   0.856  12.768   3.430  0.7002  0.7085  0.7636
  373MOL0     C50264   0.722  12.839   3.399 -0.7087  0.3308  0.6012
  373MOL0    Cl50265   0.737  12.990   3.295  0.2601 -0.2541 -0.0511
  373MOL0     C50266   0.614  12.028   3.282  0.4988  0.5529 -0.4265
  373MOL0     C50267   0.685  12.023   3.165  0.4798  0.2714 -0.4026
  373MOL0     O50268   0.759  12.325   2.974 -0.0982  0.5201 -0.2995
  373MOL0     C50269   0.876  12.128   2.713 -0.2787  0.6035 -0.3395
  373MOL0     C50270   0.943  12.128   2.587  0.5650  0.1496 -0.7935
  373MOL0     N50271   1.513  12.043   2.118 -0.2908  0.2871 -0.6165
  373MOL0     N50272   1.567  11.942   2.171  0.2822 -0.4342 -0.7398
  373MOL0     C50273   1.467  11.241   2.843  0.7278  0.6059  0.4964
  373MOL0     C50274   1.387  11.125   2.813 -1.0823  0.4026  0.2243
  373MOL0     C50275   1.331  10.732   2.545 -1.1921  0.2566 -0.1291
  373MOL0     C50276   1.289  10.672   2.666 -0.4316 -0.3772  0.4845
  373MOL0     C50277   1.283  10.529   2.678 -0.3532  0.6185  0.4012
  373MOL0     C50278   1.321  10.452   2.567 -0.6395  0.3651 -0.1277
  373MOL0     O50279   1.312  10.320   2.584 -0.0396  0.9578  0.1084
  373MOL0     C50280   1.375  10.239   2.480  0.5940  0.3916 -0.3509
  373MOL0     C50281   1.388  10.099   2.548 -0.0609 -1.0735 -0.1208
  373MOL0     C50282   1.267  10.022   2.559 -0.1843  0.8721  0.1269
  373MOL0     C50283   1.309   9.891   2.629  0.3206  0.6450 -0.0513
  373MOL0     C50284   1.403   9.801   2.560 -0.9116 -0.3207  0.8064
  373MOL0     C50285   1.487   9.725   2.510 -0.4312  0.0771  0.6717
  373MOL0     C50286   1.340  10.515   2.448  0.2431  0.6311 -0.7005
  373MOL0     C50287   1.347  10.652   2.440 -0.2284  0.3296  0.7343
  373MOL0     H50288   1.376  11.182   2.470 -1.8301  3.0632 -0.2119
  373MOL0     H50289   1.515  11.373   2.537  1.0077 -0.8499  0.0260
  373MOL0     H50290   1.622  11.452   2.959 -0.3110 -3.4238  0.9316
  373MOL0     H50291   1.755  11.344   2.896  0.8083  1.7678 -3.6051
  373MOL0     H50292   1.739  11.635   2.863 -2.1909 -0.9494  3.0127
  373MOL0     H50293   1.860  11.537   2.944 -1.3859  0.6616  0.1036
  373MOL0     H50294   1.961  11.451   2.743  0.0254 -2.6879 -2.5679
  373MOL0     H50295   1.823  11.489   2.655  1.6463 -2.2801 -0.4719
  373MOL0     H50296   1.978  11.714   2.785  0.7928 -0.6980  0.2908
  373MOL0     H50297   2.008  11.650   2.624  0.2185 -2.4536  1.1075
  373MOL0     H50298   1.747  11.684   2.586  1.1710 -0.9166 -0.0675
  373MOL0     H50299   1.760  11.801   2.721 -0.1312  3.6462 -1.4116
  373MOL0     H50300   1.933  11.913   2.631 -2.0657 -1.9429  2.5346
  373MOL0     H50301   1.926  11.812   2.476  0.9810  1.8988  0.3451
  373MOL0     H50302   1.723  12.023   2.577 -0.3248 -3.4572  1.2374
  373MOL0     H50303   1.835  12.041   2.438 -1.0370  1.7490 -0.3226
  373MOL0     H50304   1.608  11.831   2.469  0.2469 -2.5594 -1.7120
  373MOL0     H50305   1.726  11.826   2.338  2.1773  3.3628  0.4436
  373MOL0     H50306   1.567  12.158   2.422  0.5976  1.8615 -1.3963
  373MOL0     H50307   1.484  12.352   2.257  0.6023 -0.0622 -1.3789
  373MOL0     H50308   1.416  12.295   2.101 -1.3171  4.0609  0.8573
  373MOL0     H50309   1.318  12.242   2.390 -1.1402 -3.4104  0.3246
  373MOL0     H50310   1.259  12.143   2.247  1.0013 -0.2575  0.6571
  373MOL0     H50311   1.160  12.344   2.148 -0.0841 -1.3580 -0.4246
  373MOL0     H50312   1.245  12.445   2.272 -0.3043 -0.5198  2.1419
  373MOL0     H50313   1.007  12.399   2.284 -1.1873 -0.9664  1.4443
  373MOL0     H50314   1.110  12.431   2.420 -2.4859 -2.3179  2.7181
  373MOL0     H50315   0.954  12.461   2.541 -0.9248  0.9956  1.2208
  373MOL0     H50316   0.851  12.509   2.869 -1.1032  1.5058  1.1918
  373MOL0     H50317   0.858  12.588   2.707  0.0759  0.0646  1.7933
  373MOL0     H50318   0.710  12.514   2.749  0.1365  1.0270 -1.4670
  373MOL0     H50319   0.489  12.242   2.979  0.6903 -1.8584 -2.3619
  373MOL0     H50320   0.378  12.243   3.197  0.2414  0.3291  2.7865
  373MOL0     H50321   0.436  12.084   3.604 -1.7288 -1.4054 -2.8935
  373MOL0     H50322   0.591  12.050   3.536  0.9131  1.4578  1.8418
  373MOL0     H50323   0.458  12.332   3.530  1.2046 -0.8420 -1.3328
  373MOL0     H50324   0.570  12.273   3.662  1.7282 -3.9178  1.0013
  373MOL0     H50325   0.628  12.345   3.370  0.2629  1.0102  0.1256
  373MOL0     H50326   0.731  12.225   3.427  0.9559  2.0940 -1.8911
  373MOL0     H50327   0.750  12.408   3.639  3.5524  5.8031  0.7630
  373MOL0     H50328   0.846  12.376   3.489 -0.1111  1.8555  1.2160
  373MOL0     H50329   0.620  12.589   3.511  0.4004 -1.7146  0.9076
  373MOL0     H50330   0.714  12.555   3.365  2.7813  0.9363 -0.0545
  373MOL0     H50331   0.807  12.678   3.624 -0.6196 -1.1198  0.4356
  373MOL0     H50332   0.929  12.595   3.515  1.3460  1.6862 -4.7600
  373MOL0     H50333   0.901  12.737   3.336  0.0910  0.8167  0.4279
  373MOL0     H50334   0.938  12.825   3.473  1.5360 -0.1788  0.3696
  373MOL0     H50335   0.666  12.874   3.486  1.4075 -0.1353  2.2470
  373MOL0     H50336   0.660  12.770   3.341 -0.0872  1.4371 -1.4756
  373MOL0     H50337   0.652  11.952   3.350 -1.3982 -0.9220 -0.9253
  373MOL0     H50338   0.780  11.972   3.173  1.5084  2.0231 -0.8765
  373MOL0     H50339   0.875  12.031   2.763 -1.1885 -0.2942 -2.0211
  373MOL0     H50340   0.986  12.039   2.541 -2.7660  0.1103 -4.3607
  373MOL0     H50341   1.507  11.264   2.941  0.3854  1.3963  0.4653
  373MOL0     H50342   1.358  11.043   2.877 -3.5181 -1.6521 -3.2043
  373MOL0     H50343   1.247  10.725   2.751  0.6325 -0.2475  0.9419
  373MOL0     H50344   1.254  10.478   2.770  3.7876 -0.0089  1.5677
  373MOL0     H50345   1.309  10.240   2.393 -0.6676 -1.1301  0.5383
  373MOL0     H50346   1.479  10.265   2.460  0.9584  0.2500  1.2458
  373MOL0     H50347   1.433  10.115   2.646 -0.1220 -0.7098 -0.1507
  373MOL0     H50348   1.447  10.042   2.476 -0.1876  1.5199 -2.4518
  373MOL0     H50349   1.232  10.001   2.458  1.9118 -1.7915 -0.1541
  373MOL0     H50350   1.193  10.067   2.626 -1.4531 -0.2803 -0.4525
  373MOL0     H50351   1.221   9.828   2.641  0.8208  0.0782  0.7489
  373MOL0     H50352   1.354   9.907   2.728  2.4169 -1.5004 -0.5661
  373MOL0     H50353   1.567   9.661   2.480 -0.6469 -0.2218  0.7312
  373MOL0     H50354   1.363  10.458   2.359  0.5891  1.2675 -1.0307
  373MOL0     H50355   1.381  10.703   2.350 -2.6052  1.9183  0.6561
  374MOL0     O50356   5.998   9.922   8.674  0.4989 -0.5080 -0.5598
  374MOL0     C50357   6.092   9.997   8.710 -0.7743 -0.6008 -0.7427
  374MOL0     O50358   6.099  10.126   8.698 -0.4218 -0.3861  0.3623
  374MOL0     C50359   5.992  10.191   8.654  0.2348  0.2009  0.5750
  374MOL0     C50360   6.000  10.283   8.545 -0.4735 -0.2237  0.3128
  374MOL0     C50361   5.887  10.363   8.506  0.4972 -0.5196 -0.3269
  374MOL0     C50362   5.772  10.358   8.576 -0.0048  0.3226 -0.0983
  374MOL0     O50363   5.661  10.432   8.530 -0.5014 -0.7784 -0.8495
  374MOL0     C50364   5.575  10.478   8.640 -0.0567 -0.9706  1.3945
  374MOL0     C50365   5.474  10.590   8.614 -0.4651  0.5087  0.7018
  374MOL0     C50366   5.537  10.727   8.603 -0.1614  0.4807 -0.3903
  374MOL0     C50367   5.436  10.848   8.616 -0.6899  0.7669 -0.7826
  374MOL0     C50368   5.511  10.971   8.576 -0.0273  0.1648 -0.0764
  374MOL0     C50369   5.449  11.105   8.621 -0.5204 -1.1456 -0.0136
  374MOL0     C50370   5.532  11.228   8.578  0.6771 -0.0951  0.1979
  374MOL0     C50371   5.454  11.359   8.598  0.2835 -0.1349 -0.3803
  374MOL0     N50372   5.482  11.398   8.745 -0.1692  0.3539  0.2537
  374MOL0     C50373   5.398  11.378   8.850  0.0361  0.3136 -0.6309
  374MOL0     C50374   5.452  11.449   8.955 -0.3151  0.2701  0.4450
  374MOL0     C50375   5.388  11.464   9.088 -0.6656  0.0493 -0.0704
  374MOL0     C50376   5.256  11.539   9.073  0.1385 -0.6266 -0.7242
  374MOL0     C50377   5.159  11.578   9.189 -1.2959 -0.0106  0.6738
  374MOL0     C50378   5.026  11.613   9.129  0.1949 -0.3623  1.1057
  374MOL0     O50379   4.940  11.502   9.106  0.4745  0.2280 -0.6510
  374MOL0     C50380   4.858  11.507   8.990 -0.5866 -1.0003 -0.8041
  374MOL0     C50381   4.798  11.387   8.937  0.2471  0.5954 -0.8686
  374MOL0     C50382   4.720  11.378   8.816  0.2351 -0.1085 -1.2782
  374MOL0     C50383   4.653  11.245   8.801 -0.3747 -0.5777  0.2816
  374MOL0     C50384   4.686  11.501   8.764  0.2068 -0.3202 -0.6622
  374MOL0     C50385   4.597  11.507   8.642 -0.2962  0.1202  0.2837
  374MOL0     O50386   4.532  11.622   8.629  0.9715 -0.2430  0.2427
  374MOL0     C50387   4.470  11.652   8.521 -0.2559 -0.0739  0.2505
  374MOL0     C50388   4.545  11.694   8.405  0.2465 -0.3843  0.1605
  374MOL0     C50389   4.490  11.732   8.286  0.3029  0.2028  0.8143
  374MOL0     C50390   4.357  11.705   8.259 -0.0470  1.1617 -0.5493
  374MOL0     O50391   4.283  11.737   8.147  0.4760 -0.1029  0.8076
  374MOL0     C50392   4.337  11.794   8.028  0.6035 -0.0710  1.0074
  374MOL0     C50393   4.280  11.941   7.986  0.1066  0.5984  0.3058
  374MOL0     C50394   4.338  12.059   8.079  0.0575 -0.5160  0.6102
  374MOL0     C50395   4.294  12.184   8.003 -0.1342 -0.0030  0.0343
  374MOL0     C50396   4.313  12.312   8.097  0.5478  0.2238  0.4789
  374MOL0     C50397   4.278  12.430   8.003 -0.5908  0.2537 -0.1179
  374MOL0     C50398   4.125  12.458   8.010 -0.1967  0.1823 -0.2900
  374MOL0     C50399   4.094  12.561   7.900 -0.3007  0.8673 -1.3963
  374MOL0    Cl50400   4.058  12.488   7.734 -0.0996 -0.2223 -0.3686
  374MOL0     C50401   4.270  11.668   8.373  0.7874 -0.0383  0.5288
  374MOL0     C50402   4.335  11.634   8.498  0.5315  0.8835  0.4544
  374MOL0     O50403   4.595  11.413   8.566 -0.0869 -0.0292  0.4376
  374MOL0     C50404   4.743  11.617   8.808  0.3732  0.1408 -0.6580
  374MOL0     C50405   4.834  11.621   8.915  0.6164  0.3835  0.0917
  374MOL0     N50406   5.575  11.501   8.908 -0.0279 -0.0064  0.1315
  374MOL0     N50407   5.590  11.465   8.786 -0.7025  0.3973 -0.3646
  374MOL0     C50408   5.767  10.274   8.691 -0.0649  0.2969  0.2039
  374MOL0     C50409   5.872  10.191   8.733 -0.4610 -0.5416  0.1310
  374MOL0     C50410   6.209   9.935   8.780 -0.0823  0.6052 -0.7683
  374MOL0     C50411   6.211   9.791   8.817 -0.3014  0.0507 -0.3447
  374MOL0     C50412   6.335   9.734   8.848 -0.7869  0.1626  0.4913
  374MOL0     C50413   6.452   9.812   8.870  0.7666  0.0944  0.7983
  374MOL0     O50414   6.574   9.776   8.911 -0.2345  0.2814  0.4756
  374MOL0     C50415   6.608   9.633   8.919  0.5794 -1.5265  0.4984
  374MOL0     C50416   6.751   9.635   8.965 -0.2919 -0.1670 -0.0058
  374MOL0     C50417   6.802   9.503   9.016 -0.4932 -0.2561  0.6609
  374MOL0     C50418   6.918   9.521   9.113  0.2121  0.0085 -0.0883
  374MOL0     C50419   7.052   9.469   9.073 -0.1492  0.0991 -0.0594
  374MOL0     C50420   7.165   9.449   9.044  0.7254 -0.1252  0.0954
  374MOL0     C50421   6.440   9.948   8.853  0.0263 -1.4713 -0.4451
  374MOL0     C50422   6.327  10.009   8.802 -1.0049 -0.2991 -0.7272
  374MOL0     H50423   6.089  10.295   8.484  2.6780  0.0438  4.4965
  374MOL0     H50424   5.888  10.439   8.429  0.6840  1.0408  1.1569
  374MOL0     H50425   5.514  10.396   8.680  0.3018 -0.7727  2.3867
  374MOL0     H50426   5.636  10.510   8.725 -0.3939  1.0883  0.8920
  374MOL0     H50427   5.416  10.561   8.526  0.9686 -6.3504  1.4648
  374MOL0     H50428   5.399  10.594   8.694 -0.1432 -0.4011  1.0618
  374MOL0     H50429   5.612  10.737   8.682  0.9330  2.2788 -1.5857
  374MOL0     H50430   5.589  10.737   8.508 -0.1592  1.1409 -0.3274
  374MOL0     H50431   5.352  10.831   8.548 -0.2361 -3.1466 -0.5985
  374MOL0     H50432   5.400  10.866   8.718  1.1244 -2.2139  0.5116
  374MOL0     H50433   5.613  10.970   8.617 -1.0273  0.2458  2.5938
  374MOL0     H50434   5.522  10.981   8.467  2.2878 -3.6757 -0.3752
  374MOL0     H50435   5.351  11.107   8.571 -0.6900 -1.4666  0.2936
  374MOL0     H50436   5.425  11.103   8.728  1.0325  1.3567  0.4508
  374MOL0     H50437   5.628  11.234   8.630  0.5108 -0.3511  0.5379
  374MOL0     H50438   5.559  11.217   8.472  1.4481  1.4023  0.2119
  374MOL0     H50439   5.348  11.352   8.573  0.7201  2.2991 -3.5264
  374MOL0     H50440   5.498  11.443   8.542  1.9600 -0.0102  1.0284
  374MOL0     H50441   5.299  11.333   8.857 -1.3025  2.7155 -2.5937
  374MOL0     H50442   5.373  11.364   9.130  1.0796 -0.9395 -1.6650
  374MOL0     H50443   5.456  11.519   9.155 -0.4848  1.6074 -1.4725
  374MOL0     H50444   5.195  11.479   9.005  0.1486 -2.2257  0.6039
  374MOL0     H50445   5.276  11.632   9.020  0.8983 -0.3122  0.0868
  374MOL0     H50446   5.195  11.667   9.241  2.6447 -0.6364 -0.6142
  374MOL0     H50447   5.156  11.492   9.257 -0.6288 -1.8188 -1.4486
  374MOL0     H50448   5.050  11.675   9.042 -0.2294 -1.8729 -0.1533
  374MOL0     H50449   4.958  11.657   9.202 -2.6595 -3.5231  0.6452
  374MOL0     H50450   4.819  11.299   8.998 -2.4000  1.2227  1.1235
  374MOL0     H50451   4.564  11.258   8.740  0.7050  1.5810 -0.9567
  374MOL0     H50452   4.725  11.172   8.764  1.5425  0.3036  2.0448
  374MOL0     H50453   4.625  11.221   8.904  0.9971  0.5987  0.9772
  374MOL0     H50454   4.652  11.701   8.420  0.4114  0.1983 -1.1429
  374MOL0     H50455   4.554  11.786   8.217 -1.7761  0.3966 -1.0641
  374MOL0     H50456   4.442  11.821   8.043  1.8162 -2.5164 -1.8961
  374MOL0     H50457   4.329  11.734   7.937  2.4488  1.1240  0.0007
  374MOL0     H50458   4.297  11.962   7.880 -2.6164  2.2790  0.1173
  374MOL0     H50459   4.172  11.942   7.996  0.0384  1.3188 -0.4126
  374MOL0     H50460   4.444  12.049   8.102 -0.2072 -3.0766  0.9418
  374MOL0     H50461   4.286  12.069   8.175  0.6385  1.4823  0.7770
  374MOL0     H50462   4.346  12.203   7.909 -0.3164  0.1836 -0.0310
  374MOL0     H50463   4.194  12.170   7.962 -0.6308  1.0079  0.8410
  374MOL0     H50464   4.417  12.316   8.130  0.5757  3.1215  0.3510
  374MOL0     H50465   4.236  12.309   8.174 -0.9796 -0.1884 -1.0154
  374MOL0     H50466   4.327  12.524   8.029  4.1181 -1.6870 -1.0564
  374MOL0     H50467   4.310  12.415   7.899 -2.4328 -0.4982 -0.6173
  374MOL0     H50468   4.094  12.499   8.106  1.0522  2.1664 -0.6485
  374MOL0     H50469   4.067  12.370   7.982 -4.4533  2.5549  0.2135
  374MOL0     H50470   4.169  12.640   7.902  2.8188 -1.8746  0.2430
  374MOL0     H50471   4.003  12.605   7.942  0.0289  3.4666 -3.1956
  374MOL0     H50472   4.163  11.653   8.370  1.2625 -4.4492 -1.1856
  374MOL0     H50473   4.280  11.583   8.576  2.3805  0.4330  1.5206
  374MOL0     H50474   4.717  11.711   8.759 -0.1874 -0.1043 -0.8390
  374MOL0     H50475   4.887  11.711   8.942 -1.3032  1.2192  1.3307
  374MOL0     H50476   5.685  10.275   8.761 -0.6449 -2.0058 -0.3555
  374MOL0     H50477   5.864  10.119   8.814  0.0173 -0.5272  0.1944
  374MOL0     H50478   6.126   9.725   8.802 -0.1581  0.4644 -3.8225
  374MOL0     H50479   6.331   9.627   8.867 -1.0209  0.4155  1.9427
  374MOL0     H50480   6.540   9.581   8.987  0.6462 -1.9199  0.2631
  374MOL0     H50481   6.599   9.587   8.820  0.4845 -0.9364  0.2250
  374MOL0     H50482   6.781   9.718   9.030  1.6200 -0.5497 -0.3403
  374MOL0     H50483   6.820   9.667   8.887 -0.4401 -2.5106 -1.1715
  374MOL0     H50484   6.847   9.444   8.935  1.4942 -0.0926  1.5921
  374MOL0     H50485   6.719   9.456   9.071 -1.2791 -0.2056 -0.4555
  374MOL0     H50486   6.893   9.461   9.202 -2.0245  0.2646 -0.4988
  374MOL0     H50487   6.926   9.622   9.153  0.7122 -0.2744  0.5612
  374MOL0     H50488   7.266   9.426   9.017  0.2434  0.3544 -2.3551
  374MOL0     H50489   6.531  10.000   8.881 -0.6119 -0.5345 -0.0815
  374MOL0     H50490   6.336  10.115   8.781  0.7192 -0.3272 -0.2867
  375MOL0     O50491   1.670   3.486   9.677  0.3966 -0.3321 -0.1853
  375MOL0     C50492   1.680   3.367   9.689  1.1748  0.0984 -0.2351
  375MOL0     O50493   1.591   3.267   9.649  0.3377 -0.8146  0.3524
  375MOL0     C50494   1.480   3.317   9.577  0.9023  0.7524  0.1682
  375MOL0     C50495   1.387   3.404   9.631  0.7258 -0.0804 -0.1768
  375MOL0     C50496   1.272   3.438   9.563 -0.3720  0.0686  0.5477
  375MOL0     C50497   1.256   3.390   9.435  0.0578  0.7622  0.1352
  375MOL0     O50498   1.143   3.440   9.374 -0.7273  0.0863 -0.0547
  375MOL0     C50499   1.126   3.409   9.233  0.1643  0.3658 -0.2444
  375MOL0     C50500   0.988   3.460   9.178  0.7711 -0.1546  0.4673
  375MOL0     C50501   0.862   3.401   9.251  0.2786 -0.3419 -0.2311
  375MOL0     C50502   0.735   3.426   9.178  1.2315  0.0815  0.6702
  375MOL0     C50503   0.650   3.530   9.249  1.4183  0.9555 -0.0428
  375MOL0     C50504   0.704   3.670   9.232 -0.0683 -0.5275 -0.1929
  375MOL0     C50505   0.590   3.759   9.264  0.3485 -0.2753  0.6660
  375MOL0     C50506   0.617   3.909   9.238  0.1973 -0.2421  0.2023
  375MOL0     N50507   0.663   3.934   9.101  0.2359  0.0344  0.5517
  375MOL0     C50508   0.790   3.940   9.061 -0.3474  0.1428 -0.0661
  375MOL0     C50509   0.793   3.962   8.931 -0.0917 -0.4372 -0.7564
  375MOL0     C50510   0.916   3.969   8.838 -0.1420  0.1354  0.1604
  375MOL0     C50511   0.933   4.124   8.800 -0.1313 -0.1841  0.4933
  375MOL0     C50512   1.043   4.137   8.688  0.5504 -0.0998 -0.8199
  375MOL0     C50513   1.112   4.273   8.705  0.4263 -0.6257 -0.8625
  375MOL0     O50514   1.243   4.246   8.769 -0.3694  0.0433  1.1286
  375MOL0     C50515   1.332   4.342   8.767  0.4711 -0.2794 -0.6373
  375MOL0     C50516   1.451   4.314   8.843 -0.1586 -0.4480  0.4224
  375MOL0     C50517   1.554   4.406   8.847 -0.3982  0.5052  0.8960
  375MOL0     C50518   1.672   4.359   8.929 -0.1666 -0.3451  0.1922
  375MOL0     C50519   1.546   4.530   8.778 -0.5657  0.2719  0.6851
  375MOL0     C50520   1.658   4.633   8.783 -0.5275  0.2691  0.3126
  375MOL0     O50521   1.728   4.655   8.667 -0.1450 -0.1981  0.0646
  375MOL0     C50522   1.730   4.777   8.594 -0.4639  0.1450 -0.3876
  375MOL0     C50523   1.672   4.898   8.632  0.4795 -0.4801 -0.0105
  375MOL0     C50524   1.661   5.005   8.536  0.6010  0.7663  0.6028
  375MOL0     C50525   1.723   4.987   8.409  0.1052  0.3108 -0.2877
  375MOL0     O50526   1.731   5.088   8.318 -0.3087 -0.1684  0.0326
  375MOL0     C50527   1.757   5.213   8.375  0.1880 -0.5430  0.5294
  375MOL0     C50528   1.854   5.291   8.277 -1.1662 -0.3601  0.1834
  375MOL0     C50529   1.781   5.347   8.157  0.2254 -0.0067 -0.2315
  375MOL0     C50530   1.866   5.412   8.053 -0.9916  0.2283  0.4808
  375MOL0     C50531   1.807   5.533   7.981 -0.6284  0.8474 -0.4307
  375MOL0     C50532   1.885   5.586   7.861  0.2556  0.4499 -0.1807
  375MOL0     C50533   1.884   5.493   7.733 -1.0357 -0.3334  0.6308
  375MOL0     C50534   2.014   5.407   7.720  0.8850 -0.0768  0.6858
  375MOL0    Cl50535   1.990   5.232   7.682  0.0207 -0.0598  0.4810
  375MOL0     C50536   1.772   4.861   8.380  0.1763 -0.4012  0.5678
  375MOL0     C50537   1.774   4.753   8.464  0.2193 -0.5598 -0.6000
  375MOL0     O50538   1.691   4.682   8.889 -0.1441 -0.0312 -0.8958
  375MOL0     C50539   1.428   4.559   8.706 -0.1370 -1.3478 -0.2217
  375MOL0     C50540   1.323   4.467   8.701  0.7634  0.8548 -0.5240
  375MOL0     N50541   0.656   3.959   8.889  0.7501 -0.7259 -0.0705
  375MOL0     N50542   0.581   3.941   8.993 -0.9386 -0.5997  0.7211
  375MOL0     C50543   1.347   3.304   9.374  0.7935  0.4988 -0.9117
  375MOL0     C50544   1.463   3.265   9.449  1.0711  0.7537 -0.0781
  375MOL0     C50545   1.800   3.315   9.757  1.2940 -1.1323 -0.5226
  375MOL0     C50546   1.815   3.181   9.778 -0.1340  0.3860  0.0726
  375MOL0     C50547   1.927   3.129   9.838  0.4783  0.3966  0.1587
  375MOL0     C50548   2.028   3.205   9.887  0.4398 -0.2727  0.1658
  375MOL0     O50549   2.138   3.143   9.943  0.1862 -0.8969  0.4619
  375MOL0     C50550   2.257   3.231   9.963 -0.0915  0.2589  0.1378
  375MOL0     C50551   2.372   3.161  10.022  0.2089 -1.1201 -0.5174
  375MOL0     C50552   2.444   3.044   9.947  0.7750  0.0729 -0.7016
  375MOL0     C50553   2.425   2.915  10.024 -0.2001  0.6358  0.4105
  375MOL0     C50554   2.452   2.796   9.941 -0.6471 -0.3376 -0.1686
  375MOL0     C50555   2.479   2.700   9.870  0.1840 -0.9612  0.6399
  375MOL0     C50556   2.005   3.346   9.885 -0.9550  0.4765 -0.1839
  375MOL0     C50557   1.890   3.400   9.824 -0.9734 -0.3451  1.0523
  375MOL0     H50558   1.393   3.454   9.727 -1.2351  3.4076 -1.6812
  375MOL0     H50559   1.198   3.510   9.597  0.9431  1.9022 -0.3446
  375MOL0     H50560   1.199   3.459   9.169  1.2721 -1.7171 -0.6626
  375MOL0     H50561   1.132   3.303   9.209  2.8043 -0.1568  2.1785
  375MOL0     H50562   0.972   3.568   9.185  0.5147 -0.2287  1.1167
  375MOL0     H50563   0.996   3.424   9.075  2.3570 -0.2905  0.6270
  375MOL0     H50564   0.878   3.293   9.246  3.3516  0.0387 -0.8308
  375MOL0     H50565   0.872   3.426   9.357  3.1884 -0.0036 -0.5034
  375MOL0     H50566   0.756   3.450   9.074 -0.6848  1.1585  0.4782
  375MOL0     H50567   0.678   3.332   9.185  0.5926  0.4524  0.5198
  375MOL0     H50568   0.553   3.524   9.198  1.6991  0.3991 -0.5135
  375MOL0     H50569   0.638   3.508   9.355  3.6816 -0.0192  0.0637
  375MOL0     H50570   0.787   3.687   9.300  0.8045  1.0624 -1.5681
  375MOL0     H50571   0.738   3.684   9.129 -0.1928 -0.0243 -0.1698
  375MOL0     H50572   0.516   3.727   9.190  0.0470 -0.3884  1.0125
  375MOL0     H50573   0.543   3.748   9.363 -0.1830 -1.1233  0.3277
  375MOL0     H50574   0.706   3.948   9.288  0.6128 -0.4356 -0.3689
  375MOL0     H50575   0.526   3.963   9.267 -0.3100 -0.4850 -0.8654
  375MOL0     H50576   0.869   3.929   9.136 -1.5097 -3.7129  0.8449
  375MOL0     H50577   1.002   3.943   8.901  0.0823  0.8221  0.1541
  375MOL0     H50578   0.908   3.895   8.758 -2.8685  1.5331 -0.9860
  375MOL0     H50579   0.960   4.162   8.899  0.1423 -1.4888  0.9408
  375MOL0     H50580   0.839   4.168   8.767 -0.8980 -0.4826  2.1453
  375MOL0     H50581   0.998   4.122   8.590  1.1276  2.1765 -1.5082
  375MOL0     H50582   1.113   4.054   8.700  1.0080  0.4076  0.2116
  375MOL0     H50583   1.064   4.343   8.773  1.6345 -0.6707  0.0727
  375MOL0     H50584   1.122   4.328   8.610  0.2090  0.6651 -0.1592
  375MOL0     H50585   1.464   4.216   8.886  1.4098 -0.7712 -0.6988
  375MOL0     H50586   1.639   4.357   9.033 -1.7909  0.2890 -0.2832
  375MOL0     H50587   1.712   4.265   8.890 -0.2252 -0.1704 -0.3004
  375MOL0     H50588   1.755   4.431   8.923 -0.9053  0.9531  3.6939
  375MOL0     H50589   1.627   4.904   8.730 -0.2357 -0.2503 -0.3446
  375MOL0     H50590   1.610   5.098   8.560 -3.3212 -0.4333 -2.0644
  375MOL0     H50591   1.660   5.262   8.385 -0.3574 -0.5061 -3.3101
  375MOL0     H50592   1.803   5.208   8.474 -0.3345  1.7371  0.9320
  375MOL0     H50593   1.912   5.364   8.334 -0.5448 -0.3484 -0.4446
  375MOL0     H50594   1.924   5.215   8.240 -0.5899  0.3171 -0.1342
  375MOL0     H50595   1.704   5.413   8.197 -0.4508 -1.7111  1.4444
  375MOL0     H50596   1.721   5.263   8.120  0.2169 -0.4215  0.7075
  375MOL0     H50597   1.965   5.430   8.096 -0.3310  0.0308 -0.9127
  375MOL0     H50598   1.874   5.339   7.972  1.4654 -0.1758  0.9892
  375MOL0     H50599   1.789   5.613   8.053 -0.6904  0.3061  0.1639
  375MOL0     H50600   1.711   5.489   7.951 -0.2388  0.1095 -0.6157
  375MOL0     H50601   1.837   5.680   7.832 -0.5686  0.7253  1.8288
  375MOL0     H50602   1.981   5.623   7.897 -0.1925  2.0624 -0.6002
  375MOL0     H50603   1.889   5.549   7.639  0.6421 -1.4960 -0.0255
  375MOL0     H50604   1.793   5.432   7.733 -2.2328  1.3720 -0.1424
  375MOL0     H50605   2.075   5.431   7.807  0.3927 -1.7933  1.5395
  375MOL0     H50606   2.075   5.457   7.643  1.9539  0.2197  1.6979
  375MOL0     H50607   1.826   4.847   8.286  1.9249  0.9086  1.3148
  375MOL0     H50608   1.835   4.672   8.424  2.3007  0.6896 -0.0948
  375MOL0     H50609   1.421   4.643   8.638  0.9657 -3.8056 -3.6640
  375MOL0     H50610   1.232   4.496   8.649  1.6663 -0.8350 -3.2184
  375MOL0     H50611   1.334   3.266   9.273  0.3722 -3.0508  0.3314
  375MOL0     H50612   1.528   3.190   9.405  0.4236 -2.0738  3.2834
  375MOL0     H50613   1.745   3.106   9.746  0.5104 -0.8561  1.4432
  375MOL0     H50614   1.945   3.022   9.836 -2.6558 -0.2656  0.7247
  375MOL0     H50615   2.273   3.281   9.867 -2.7450  2.1243  0.5500
  375MOL0     H50616   2.233   3.318  10.025  0.5577 -0.1821  1.0229
  375MOL0     H50617   2.336   3.134  10.122 -0.2974 -0.9242 -0.6441
  375MOL0     H50618   2.448   3.238  10.037 -1.2193 -0.0202  1.3844
  375MOL0     H50619   2.552   3.060   9.950  0.8171  0.0142 -1.7297
  375MOL0     H50620   2.410   3.044   9.843  1.4244  0.4396 -0.9193
  375MOL0     H50621   2.324   2.900  10.063  0.2674 -1.6346  0.9456
  375MOL0     H50622   2.490   2.912  10.112  0.9270 -2.9644 -0.3509
  375MOL0     H50623   2.524   2.626   9.807 -1.3219 -0.5485 -0.9946
  375MOL0     H50624   2.083   3.420   9.902  1.9845 -2.0423 -1.7446
  375MOL0     H50625   1.871   3.506   9.812 -1.0530 -0.4915 -0.1743
  376MOL0     O50626   7.778   7.757   5.025 -0.8684 -0.0444 -0.1221
  376MOL0     C50627   7.765   7.639   4.989 -0.1603 -0.5773 -0.2711
  376MOL0     O50628   7.806   7.585   4.871  0.3927  0.4366 -0.4437
  376MOL0     C50629   7.879   7.645   4.772 -0.3788 -1.5290 -0.4996
  376MOL0     C50630   7.983   7.586   4.713  0.2525 -0.0263 -0.0232
  376MOL0     C50631   8.071   7.635   4.613 -0.0167  0.6753  0.4018
  376MOL0     C50632   8.045   7.766   4.580 -0.1323 -0.6348  0.0746
  376MOL0     O50633   8.131   7.815   4.485 -0.2396 -0.8291 -0.2186
  376MOL0     C50634   8.060   7.889   4.392  0.5582 -0.0648  0.7076
  376MOL0     C50635   8.054   8.041   4.430 -0.4000 -0.8027  0.1636
  376MOL0     C50636   8.114   8.119   4.313 -0.1214 -0.4316 -0.4604
  376MOL0     C50637   8.005   8.143   4.206  0.4000 -0.1082 -0.3446
  376MOL0     C50638   8.056   8.240   4.094 -0.5919  0.1733 -0.6674
  376MOL0     C50639   8.160   8.175   4.004  0.4736 -0.4828 -0.0807
  376MOL0     C50640   8.231   8.296   3.942 -0.5735  0.3280  0.2307
  376MOL0     C50641   8.351   8.245   3.851  0.0304 -1.2484  0.8439
  376MOL0     N50642   8.401   8.368   3.784 -0.7453  0.3336  0.7551
  376MOL0     C50643   8.527   8.431   3.804  0.0000 -0.1646  0.3570
  376MOL0     C50644   8.542   8.522   3.703 -0.0451  1.1720  0.2479
  376MOL0     C50645   8.669   8.594   3.668 -0.1898 -0.4555  0.0954
  376MOL0     C50646   8.688   8.613   3.514  0.0317 -0.4032  0.1932
  376MOL0     C50647   8.710   8.764   3.471  0.5974  0.7022 -0.3123
  376MOL0     C50648   8.757   8.782   3.314 -0.4473  0.0439  0.0927
  376MOL0     O50649   8.895   8.747   3.289  0.2953  0.8097  0.1257
  376MOL0     C50650   8.931   8.792   3.167  0.1407 -0.6378  0.4683
  376MOL0     C50651   8.940   8.926   3.131 -0.1053 -0.2861  1.0174
  376MOL0     C50652   8.967   8.965   2.996 -0.2819  0.6328  0.0846
  376MOL0     C50653   9.009   9.110   2.980  0.7804 -0.6145  0.1217
  376MOL0     C50654   8.995   8.867   2.895  0.2554  0.2339 -0.1351
  376MOL0     C50655   9.031   8.888   2.754 -0.1513 -0.6333  0.2544
  376MOL0     O50656   9.013   8.785   2.663  0.0398  0.0548 -0.5905
  376MOL0     C50657   9.019   8.808   2.533  0.2247  0.7459  0.2786
  376MOL0     C50658   9.089   8.912   2.459 -0.5334 -0.9516 -0.2954
  376MOL0     C50659   9.090   8.907   2.322 -0.1757  0.1600 -0.0457
  376MOL0     C50660   9.017   8.809   2.255 -0.0887  0.7634  0.1582
  376MOL0     O50661   9.038   8.795   2.119  0.3037  0.3447 -0.8623
  376MOL0     C50662   8.983   8.682   2.048  0.3098 -0.5826 -0.3020
  376MOL0     C50663   8.968   8.700   1.895 -0.8071  0.7957 -0.0980
  376MOL0     C50664   8.857   8.799   1.863  0.4329  0.3255  1.4905
  376MOL0     C50665   8.843   8.810   1.706  0.6493  0.4626 -0.0292
  376MOL0     C50666   8.712   8.884   1.671  0.1130 -0.7717 -0.6566
  376MOL0     C50667   8.583   8.817   1.701  0.4217  0.2407  0.5753
  376MOL0     C50668   8.454   8.912   1.693 -0.1018  0.0396  0.4503
  376MOL0     C50669   8.333   8.819   1.738 -0.7700 -0.1327  0.4627
  376MOL0    Cl50670   8.279   8.707   1.604  0.3154  0.3505  0.5829
  376MOL0     C50671   8.953   8.706   2.331 -1.4695  0.0928 -0.3806
  376MOL0     C50672   8.948   8.705   2.465  0.6749 -0.8008  0.1699
  376MOL0     O50673   9.055   9.008   2.728 -0.0742  0.7518 -0.0448
  376MOL0     C50674   8.976   8.735   2.936  0.4558  0.3180  0.3077
  376MOL0     C50675   8.955   8.705   3.068 -0.5813 -0.1626 -0.2070
  376MOL0     N50676   8.423   8.522   3.640  0.2902  0.1532  0.2287
  376MOL0     N50677   8.346   8.429   3.685 -0.2228  0.2084  0.5255
  376MOL0     C50678   7.942   7.835   4.646  0.6696 -0.5955  0.8985
  376MOL0     C50679   7.857   7.780   4.738  0.0790  0.1316 -0.1523
  376MOL0     C50680   7.659   7.570   5.062  0.8062 -0.1805 -0.2935
  376MOL0     C50681   7.610   7.628   5.177  0.5065  0.1388 -0.1161
  376MOL0     C50682   7.510   7.564   5.252  0.8475  0.3364 -0.5809
  376MOL0     C50683   7.454   7.443   5.214  0.3148 -0.5567  0.1251
  376MOL0     O50684   7.348   7.376   5.271  0.3567  0.3418 -0.4914
  376MOL0     C50685   7.322   7.374   5.404  0.5116  0.8913 -0.2303
  376MOL0     C50686   7.247   7.245   5.435  0.6035 -0.2916  0.7715
  376MOL0     C50687   7.315   7.120   5.392  0.2982  1.0096 -0.3570
  376MOL0     C50688   7.227   6.998   5.420 -0.0289 -0.9704 -0.4941
  376MOL0     C50689   7.266   6.875   5.362 -0.2897 -0.4731 -0.8401
  376MOL0     C50690   7.319   6.779   5.306  0.4076  0.2180 -0.8434
  376MOL0     C50691   7.499   7.388   5.091 -0.0475  0.5946  0.2509
  376MOL0     C50692   7.600   7.445   5.015 -0.2121 -1.1002  0.2222
  376MOL0     H50693   7.995   7.487   4.756 -1.4933  0.0600  0.7494
  376MOL0     H50694   8.153   7.566   4.590 -0.9634  0.1820 -1.7340
  376MOL0     H50695   8.102   7.875   4.292  0.9045  0.9247  0.6979
  376MOL0     H50696   7.957   7.854   4.388  0.4007  0.4303 -2.0451
  376MOL0     H50697   7.955   8.080   4.454  0.6324  1.1984  1.4897
  376MOL0     H50698   8.103   8.056   4.526  0.9882 -1.1393 -0.4661
  376MOL0     H50699   8.139   8.217   4.356  0.9135 -0.9228  0.0990
  376MOL0     H50700   8.206   8.066   4.284  0.2624 -1.4681  2.3372
  376MOL0     H50701   7.985   8.045   4.162 -2.4273 -1.2358  3.0106
  376MOL0     H50702   7.910   8.180   4.244  0.4810  0.8437 -1.0412
  376MOL0     H50703   7.970   8.267   4.033  0.5973 -0.4945 -2.7311
  376MOL0     H50704   8.097   8.327   4.147  1.8544 -2.5807  2.4547
  376MOL0     H50705   8.228   8.126   4.074 -1.5213 -0.7397  1.7667
  376MOL0     H50706   8.109   8.109   3.933 -1.9041  0.2868  0.8169
  376MOL0     H50707   8.159   8.351   3.881 -1.6846  0.1327  1.3109
  376MOL0     H50708   8.265   8.373   4.012  1.4319 -1.2037  1.0229
  376MOL0     H50709   8.317   8.173   3.776  1.9317 -0.7190 -0.6364
  376MOL0     H50710   8.430   8.197   3.909 -1.3600 -0.8036  3.2080
  376MOL0     H50711   8.613   8.397   3.861  0.9075  1.2230 -0.1167
  376MOL0     H50712   8.657   8.692   3.716  0.7524  0.1941 -0.9347
  376MOL0     H50713   8.759   8.545   3.707  1.8486  1.4783 -1.8233
  376MOL0     H50714   8.599   8.575   3.464 -0.5039 -0.8827  1.4545
  376MOL0     H50715   8.781   8.559   3.492  0.8476  1.4609 -1.1806
  376MOL0     H50716   8.783   8.807   3.541 -1.0821 -0.5837  2.3736
  376MOL0     H50717   8.622   8.827   3.489  1.3304  1.3169  1.3956
  376MOL0     H50718   8.740   8.881   3.271  2.7050  0.8829  0.5349
  376MOL0     H50719   8.693   8.720   3.250 -1.3606  1.6103 -0.5493
  376MOL0     H50720   8.927   9.010   3.199 -3.1590 -0.5806  0.9207
  376MOL0     H50721   9.113   9.120   2.949 -0.9267  4.0918 -6.4677
  376MOL0     H50722   8.948   9.152   2.898 -2.9899 -0.9947  2.4785
  376MOL0     H50723   8.983   9.173   3.065 -1.5492  1.2592 -1.8049
  376MOL0     H50724   9.133   8.997   2.511 -2.6447 -0.5992  1.0662
  376MOL0     H50725   9.133   8.989   2.264 -0.2820  1.6098  1.8023
  376MOL0     H50726   9.052   8.607   2.087 -0.0590 -0.0352  1.4936
  376MOL0     H50727   8.880   8.662   2.078  0.1447  0.8451  0.1535
  376MOL0     H50728   9.055   8.750   1.850 -2.0281  1.3955 -1.8964
  376MOL0     H50729   8.956   8.606   1.839 -1.8869  0.1430  1.1798
  376MOL0     H50730   8.888   8.896   1.903  0.2409  0.8808  0.3419
  376MOL0     H50731   8.768   8.756   1.910  2.0999 -2.9502  1.8808
  376MOL0     H50732   8.933   8.856   1.662  0.7656  0.8647  0.6183
  376MOL0     H50733   8.831   8.710   1.662  2.2377 -0.7755  2.1606
  376MOL0     H50734   8.710   8.901   1.563 -2.3798 -0.1140 -0.5813
  376MOL0     H50735   8.719   8.980   1.723  3.1107 -0.8463 -0.7658
  376MOL0     H50736   8.575   8.728   1.639  1.6676 -0.6115  1.5886
  376MOL0     H50737   8.578   8.776   1.802 -3.3107 -1.9174 -0.2905
  376MOL0     H50738   8.444   8.940   1.588 -0.7416 -1.3060  0.1318
  376MOL0     H50739   8.464   8.992   1.766  0.0795 -0.9022  1.4923
  376MOL0     H50740   8.255   8.893   1.759 -1.1859 -0.8373  1.4573
  376MOL0     H50741   8.360   8.758   1.824  1.9487 -0.5876 -0.5946
  376MOL0     H50742   8.894   8.622   2.294 -1.4444 -0.2316  0.3009
  376MOL0     H50743   8.887   8.632   2.519  0.7800 -2.8446 -2.2851
  376MOL0     H50744   9.002   8.649   2.874 -0.7181 -0.0220  0.2695
  376MOL0     H50745   8.952   8.602   3.102 -0.0437  0.6209  2.4529
  376MOL0     H50746   7.910   7.937   4.626 -0.4736 -1.0046  0.5366
  376MOL0     H50747   7.777   7.839   4.782 -2.8121 -3.5230  0.0104
  376MOL0     H50748   7.653   7.715   5.227  1.5183  1.3195 -2.8836
  376MOL0     H50749   7.487   7.614   5.346  3.5568  1.0848 -0.2205
  376MOL0     H50750   7.416   7.371   5.461  1.8244 -1.6709 -2.2848
  376MOL0     H50751   7.260   7.459   5.433 -1.2154  0.0727 -1.3498
  376MOL0     H50752   7.153   7.248   5.380  0.7516 -0.0291  0.5293
  376MOL0     H50753   7.215   7.257   5.539 -2.5806 -0.2431 -0.1150
  376MOL0     H50754   7.401   7.109   5.458  0.1901  1.5825 -0.1143
  376MOL0     H50755   7.359   7.123   5.292  1.4051  2.2154  0.1447
  376MOL0     H50756   7.123   7.012   5.389 -0.2477 -1.2520  0.1071
  376MOL0     H50757   7.219   6.993   5.529  1.3961 -0.9454 -0.3688
  376MOL0     H50758   7.359   6.697   5.250  0.3360  0.3523 -1.0915
  376MOL0     H50759   7.451   7.302   5.046 -1.2983  1.9726 -1.1707
  376MOL0     H50760   7.639   7.407   4.922  1.3871 -0.0652  0.4236
  377MOL0     O50761   7.943   8.672  10.398 -0.0068 -0.5220 -0.2375
  377MOL0     C50762   7.956   8.558  10.453  0.3389 -0.7775  0.3571
  377MOL0     O50763   7.854   8.472  10.489  0.4371 -0.5251 -0.0678
  377MOL0     C50764   7.725   8.513  10.461  0.5857 -0.5120 -0.5377
  377MOL0     C50765   7.641   8.573  10.555 -1.2555 -0.0570  0.9016
  377MOL0     C50766   7.507   8.598  10.522  0.8219 -0.7438  0.9281
  377MOL0     C50767   7.447   8.555  10.405 -1.5293 -0.3437 -0.2615
  377MOL0     O50768   7.311   8.581  10.396  0.3242  1.2339  0.3695
  377MOL0     C50769   7.249   8.526  10.281  0.5839 -0.3253  0.4200
  377MOL0     C50770   7.212   8.372  10.262 -1.4922 -0.4399 -0.3586
  377MOL0     C50771   7.105   8.338  10.159 -0.0664  0.7762 -0.5425
  377MOL0     C50772   6.981   8.274  10.231 -0.4582 -0.9724  0.0115
  377MOL0     C50773   6.897   8.383  10.291  0.4406 -0.3278 -0.0180
  377MOL0     C50774   6.789   8.325  10.382 -0.1350 -0.4697 -0.0097
  377MOL0     C50775   6.687   8.438  10.420  0.1064  0.3962  0.2322
  377MOL0     C50776   6.593   8.413  10.527 -0.7414  0.1148  0.6681
  377MOL0     N50777   6.463   8.469  10.498 -0.1465  0.4697  0.2114
  377MOL0     C50778   6.351   8.389  10.463  1.1467  0.4157  0.6638
  377MOL0     C50779   6.256   8.488  10.447 -0.8119 -0.1555 -0.1331
  377MOL0     C50780   6.108   8.483  10.422  0.0063  0.7171 -0.1333
  377MOL0     C50781   6.077   8.452  10.279  0.5772 -0.8329  0.2536
  377MOL0     C50782   6.086   8.577  10.188 -0.7607 -0.0395 -0.8605
  377MOL0     C50783   6.045   8.551  10.044 -0.3235 -0.8822 -0.0382
  377MOL0     O50784   6.122   8.632   9.952  0.4197 -1.0658  0.0969
  377MOL0     C50785   6.057   8.752   9.928 -0.2495 -0.6868 -0.8951
  377MOL0     C50786   5.945   8.753   9.845  0.6716  0.1908  0.7116
  377MOL0     C50787   5.866   8.867   9.823 -0.5295 -0.8818 -0.2280
  377MOL0     C50788   5.737   8.857   9.754 -0.3882  0.2195  1.0733
  377MOL0     C50789   5.909   8.989   9.890  0.3147  0.4624 -0.0911
  377MOL0     C50790   5.846   9.126   9.877  1.1715 -0.3231  0.6562
  377MOL0     O50791   5.743   9.144   9.797  0.7802  0.1872 -0.3051
  377MOL0     C50792   5.710   9.275   9.767 -0.3997  0.2990 -0.0318
  377MOL0     C50793   5.798   9.341   9.682 -0.5596 -0.4086 -0.3639
  377MOL0     C50794   5.770   9.466   9.622 -1.2223 -0.5201  0.2072
  377MOL0     C50795   5.653   9.529   9.661 -0.7330  0.6861  0.3154
  377MOL0     O50796   5.611   9.649   9.610 -0.3330 -0.2315  0.8112
  377MOL0     C50797   5.667   9.698   9.491  0.2717 -0.8919 -0.1448
  377MOL0     C50798   5.631   9.843   9.491 -0.6333 -0.6075  0.4991
  377MOL0     C50799   5.477   9.870   9.463 -0.4501  0.2650 -0.4922
  377MOL0     C50800   5.449  10.027   9.449  0.7802 -0.0559 -0.1693
  377MOL0     C50801   5.297  10.048   9.452 -0.4854  0.2397  0.1724
  377MOL0     C50802   5.249  10.197   9.463  0.6584 -0.0024  0.1610
  377MOL0     C50803   5.342  10.306   9.392  0.2107  0.1139  0.0723
  377MOL0     C50804   5.294  10.443   9.445 -0.2895  0.2971  0.0311
  377MOL0    Cl50805   5.120  10.462   9.394 -0.6934  0.1839  0.1759
  377MOL0     C50806   5.567   9.462   9.755 -0.4568 -0.3895 -0.2152
  377MOL0     C50807   5.591   9.339   9.810 -0.3587 -0.1798 -0.3824
  377MOL0     O50808   5.929   9.210   9.918 -0.0553  0.2909  0.1623
  377MOL0     C50809   6.027   8.982   9.979  0.3842  1.0770 -0.4491
  377MOL0     C50810   6.089   8.862  10.001 -0.0143 -0.1418 -0.0387
  377MOL0     N50811   6.309   8.614  10.458  0.3506  0.3471 -0.3359
  377MOL0     N50812   6.431   8.600  10.482  0.1502  0.1791 -0.5775
  377MOL0     C50813   7.535   8.484  10.315 -0.3786 -0.3334 -0.1054
  377MOL0     C50814   7.673   8.470  10.340 -0.0276  0.1130 -0.7455
  377MOL0     C50815   8.092   8.523  10.506 -0.0192 -0.3124 -0.4455
  377MOL0     C50816   8.195   8.608  10.497  0.3101  0.7716 -0.7511
  377MOL0     C50817   8.323   8.583  10.547 -0.5626  0.4056 -0.9342
  377MOL0     C50818   8.349   8.469  10.624 -0.4531  0.0692  0.2877
  377MOL0     O50819   8.475   8.434  10.676  0.5850  0.2487 -1.1563
  377MOL0     C50820   8.593   8.520  10.661  1.1459 -0.5136 -1.0714
  377MOL0     C50821   8.721   8.445  10.697 -0.3893  0.4067  0.1476
  377MOL0     C50822   8.727   8.420  10.846  0.8027 -0.0119 -0.3668
  377MOL0     C50823   8.854   8.350  10.883  0.8691 -0.4317 -0.1950
  377MOL0     C50824   8.856   8.210  10.833  0.3148  0.9256  0.2857
  377MOL0     C50825   8.845   8.098  10.796  1.2932 -0.0724  0.0662
  377MOL0     C50826   8.242   8.373  10.639 -0.6424 -0.7596 -0.5094
  377MOL0     C50827   8.116   8.403  10.573 -1.2849  1.0797 -0.1902
  377MOL0     H50828   7.683   8.610  10.648  0.5677 -1.4215  0.6925
  377MOL0     H50829   7.440   8.648  10.591  1.5268  0.3484  0.8434
  377MOL0     H50830   7.156   8.584  10.278  2.1814  2.3468 -0.5523
  377MOL0     H50831   7.295   8.554  10.186 -3.1062 -4.2860 -2.9711
  377MOL0     H50832   7.306   8.319  10.242 -2.5488 -1.7484 -2.0807
  377MOL0     H50833   7.188   8.337  10.363 -0.6878 -2.3861 -0.7953
  377MOL0     H50834   7.063   8.419  10.098 -2.8875 -1.4162 -1.7783
  377MOL0     H50835   7.139   8.259  10.091 -1.6819 -1.4386  1.0705
  377MOL0     H50836   6.926   8.219  10.155  0.0954  0.0754 -1.1737
  377MOL0     H50837   7.011   8.207  10.313 -3.3265 -1.9524  0.4027
  377MOL0     H50838   6.954   8.459  10.344 -0.5607 -0.0824  0.7237
  377MOL0     H50839   6.856   8.454  10.218  0.8927  2.7909  2.5449
  377MOL0     H50840   6.738   8.230  10.362  1.2200 -1.8272  2.4763
  377MOL0     H50841   6.844   8.309  10.475  1.6083 -0.2627 -0.9775
  377MOL0     H50842   6.745   8.523  10.456 -2.4303  2.9945 -1.4294
  377MOL0     H50843   6.636   8.472  10.330  3.8154  2.1270 -1.4127
  377MOL0     H50844   6.632   8.452  10.621 -0.5522  0.8435  0.2969
  377MOL0     H50845   6.587   8.304  10.524  0.8236  0.0302 -1.1819
  377MOL0     H50846   6.349   8.281  10.453 -1.4528  0.4331  0.1047
  377MOL0     H50847   6.051   8.409  10.478  2.0587 -1.1567 -0.3934
  377MOL0     H50848   6.062   8.580  10.443  1.4124  0.9309  2.4912
  377MOL0     H50849   5.973   8.422  10.264 -0.3383  1.5172  1.4820
  377MOL0     H50850   6.143   8.372  10.242  1.2969 -0.6147  1.0384
  377MOL0     H50851   6.191   8.606  10.190 -1.2192  1.7320  0.9346
  377MOL0     H50852   6.031   8.660  10.234  0.5676 -0.0317  0.8088
  377MOL0     H50853   5.937   8.564  10.040 -0.3035 -0.5803  0.3364
  377MOL0     H50854   6.059   8.445  10.022 -2.4678 -1.4329  0.9396
  377MOL0     H50855   5.917   8.662   9.794 -0.3091  0.4912  0.6861
  377MOL0     H50856   5.742   8.922   9.665  0.2796 -1.2450 -0.0084
  377MOL0     H50857   5.737   8.759   9.705 -1.2693  1.4530 -1.5989
  377MOL0     H50858   5.650   8.867   9.818 -2.2427 -3.8064 -0.5375
  377MOL0     H50859   5.879   9.280   9.642  0.1226 -1.7451  2.7885
  377MOL0     H50860   5.843   9.511   9.556 -1.5540  2.0342  1.4169
  377MOL0     H50861   5.776   9.694   9.501  0.2829  0.5672  0.5646
  377MOL0     H50862   5.629   9.649   9.402 -0.9341  0.9436 -0.6865
  377MOL0     H50863   5.668   9.871   9.590 -1.1710 -2.1362  1.1716
  377MOL0     H50864   5.694   9.893   9.417 -0.4224  2.3242  2.4753
  377MOL0     H50865   5.427   9.845   9.558  1.5359  4.2253  1.8505
  377MOL0     H50866   5.430   9.806   9.388 -1.3438  0.3387 -0.0145
  377MOL0     H50867   5.486  10.071   9.542  1.8125  2.8727 -1.8282
  377MOL0     H50868   5.502  10.058   9.359  2.6706 -1.8310  0.2613
  377MOL0     H50869   5.268  10.003   9.547  1.5304  1.4124  1.4207
  377MOL0     H50870   5.246  10.000   9.368  0.1420  0.2981 -0.2528
  377MOL0     H50871   5.146  10.211   9.430  0.1485  1.2183  2.1500
  377MOL0     H50872   5.237  10.224   9.568 -2.5117  0.5531 -0.2447
  377MOL0     H50873   5.333  10.283   9.285  1.2825  0.2515 -0.0562
  377MOL0     H50874   5.448  10.306   9.420  0.1866  0.2514  0.1658
  377MOL0     H50875   5.339  10.523   9.386 -1.9979  1.1038 -0.2396
  377MOL0     H50876   5.310  10.460   9.552 -1.3262 -1.0467  0.4409
  377MOL0     H50877   5.477   9.510   9.794  1.0912 -0.0730  3.3990
  377MOL0     H50878   5.534   9.266   9.868 -2.4004  1.2662 -0.4822
  377MOL0     H50879   6.062   9.075  10.023 -3.1793  1.4329  2.0566
  377MOL0     H50880   6.158   8.851  10.085 -1.8515  0.0501  1.5527
  377MOL0     H50881   7.498   8.460  10.216  0.4391 -1.2133 -0.2190
  377MOL0     H50882   7.742   8.407  10.284 -1.0049 -1.3556 -0.3316
  377MOL0     H50883   8.170   8.708  10.462 -1.3958  1.5802  2.3813
  377MOL0     H50884   8.384   8.672  10.558  1.2136 -1.0545  2.5213
  377MOL0     H50885   8.606   8.568  10.563  0.1585  0.6948 -0.6413
  377MOL0     H50886   8.593   8.605  10.731 -0.1304 -0.0952 -1.5466
  377MOL0     H50887   8.799   8.515  10.666 -0.1287 -0.2315 -0.6706
  377MOL0     H50888   8.720   8.353  10.638 -3.4921  0.0844  0.5486
  377MOL0     H50889   8.635   8.365  10.867 -0.0075  0.5671 -2.1500
  377MOL0     H50890   8.719   8.518  10.895  0.1580 -0.7531  1.0715
  377MOL0     H50891   8.859   8.364  10.991 -0.2996  5.0449 -0.5420
  377MOL0     H50892   8.942   8.401  10.841  0.2993 -0.3927 -1.3703
  377MOL0     H50893   8.817   8.005  10.751  0.3992  0.0352  0.3823
  377MOL0     H50894   8.261   8.283  10.697  1.9700  0.5080  0.7985
  377MOL0     H50895   8.030   8.338  10.585 -1.2039  1.2261  1.4209
  378MOL0     O50896   2.393   9.332   5.539  0.3516  0.0184  0.0941
  378MOL0     C50897   2.496   9.308   5.478 -0.5634  0.5471 -0.3562
  378MOL0     O50898   2.615   9.360   5.510  0.3804  0.0803 -0.4500
  378MOL0     C50899   2.631   9.423   5.634  0.0584 -0.7983  0.5014
  378MOL0     C50900   2.659   9.351   5.748 -0.0294  0.3388 -0.4220
  378MOL0     C50901   2.686   9.419   5.873  0.3111  0.7762 -0.0983
  378MOL0     C50902   2.684   9.556   5.882  0.9468  0.0498 -0.6610
  378MOL0     O50903   2.708   9.625   5.997  0.0579  0.5795  0.3502
  378MOL0     C50904   2.608   9.639   6.097 -1.0091 -0.1749 -0.2711
  378MOL0     C50905   2.670   9.731   6.215  0.4266  1.0647  0.0640
  378MOL0     C50906   2.775   9.658   6.298 -0.3576 -1.9679  0.0040
  378MOL0     C50907   2.742   9.514   6.336  0.2430  0.8986 -0.2404
  378MOL0     C50908   2.842   9.453   6.425  0.2121  0.3487  0.8096
  378MOL0     C50909   2.822   9.301   6.455  0.2810  0.3733 -0.5015
  378MOL0     C50910   2.707   9.279   6.554 -0.4118 -1.1458  0.6428
  378MOL0     C50911   2.637   9.147   6.534 -0.1251  0.2951  0.0542
  378MOL0     N50912   2.690   9.031   6.607 -0.4709  0.3431 -0.3161
  378MOL0     C50913   2.670   9.008   6.739  0.5665 -0.4943  0.2870
  378MOL0     C50914   2.750   8.903   6.769  0.1933  0.7918 -0.1949
  378MOL0     C50915   2.754   8.830   6.899 -0.0186  0.0531  0.2451
  378MOL0     C50916   2.884   8.751   6.938 -0.1567  0.0878  0.2184
  378MOL0     C50917   2.988   8.847   6.982  1.0254  0.1526 -0.0765
  378MOL0     C50918   3.118   8.787   6.950  0.2969 -0.7452  0.5429
  378MOL0     O50919   3.229   8.874   6.980  0.4871 -0.7578  0.5460
  378MOL0     C50920   3.267   8.946   6.869 -0.4683  0.1082  0.2246
  378MOL0     C50921   3.327   9.072   6.892 -0.5068  0.4176  1.0646
  378MOL0     C50922   3.381   9.140   6.785 -0.2625  0.1869  0.4104
  378MOL0     C50923   3.435   9.278   6.823  0.2969  0.0648  0.1810
  378MOL0     C50924   3.367   9.097   6.641  0.0816 -0.4625 -0.7214
  378MOL0     C50925   3.419   9.177   6.524 -0.9468 -0.3518  0.9497
  378MOL0     O50926   3.454   9.106   6.415 -0.3834 -0.2694  0.3127
  378MOL0     C50927   3.527   9.161   6.323 -0.3920 -0.3307  0.3840
  378MOL0     C50928   3.476   9.148   6.195  0.4828 -0.0558 -0.4011
  378MOL0     C50929   3.533   9.212   6.085  0.0864 -0.6051  0.4246
  378MOL0     C50930   3.654   9.288   6.103  0.1029 -0.3020 -0.1738
  378MOL0     O50931   3.719   9.357   6.002 -0.1380  0.1266  0.2887
  378MOL0     C50932   3.639   9.454   5.935  0.0897 -0.0367  0.1948
  378MOL0     C50933   3.707   9.479   5.798 -0.3401 -0.5010  0.0252
  378MOL0     C50934   3.862   9.506   5.820  0.0494 -0.0407  0.3708
  378MOL0     C50935   3.916   9.587   5.705 -0.7611 -0.2589  0.4647
  378MOL0     C50936   4.072   9.582   5.688  0.5061  0.0271  0.3413
  378MOL0     C50937   4.136   9.647   5.813  0.4715 -1.1095  0.1316
  378MOL0     C50938   4.093   9.796   5.825 -0.2041  0.3983  0.0764
  378MOL0     C50939   4.107   9.831   5.981 -0.6806  1.2526  0.5991
  378MOL0    Cl50940   4.267   9.776   6.043  0.0017 -0.0215 -0.1278
  378MOL0     C50941   3.721   9.293   6.228  0.2066 -0.4790  0.1261
  378MOL0     C50942   3.662   9.221   6.335 -0.0269 -0.3220 -0.4363
  378MOL0     O50943   3.417   9.299   6.518 -0.2547  0.3384 -0.0542
  378MOL0     C50944   3.319   8.976   6.627  0.1260  0.7147 -0.2067
  378MOL0     C50945   3.269   8.906   6.735  0.8509  0.1744 -1.5392
  378MOL0     N50946   2.806   8.865   6.651 -0.0499 -0.2251  0.0305
  378MOL0     N50947   2.776   8.945   6.557  0.4794 -1.0682  0.1093
  378MOL0     C50948   2.652   9.627   5.766 -0.5248 -0.0199 -0.6753
  378MOL0     C50949   2.624   9.561   5.644 -0.0747 -0.7411 -0.2109
  378MOL0     C50950   2.487   9.232   5.351 -0.9424  0.9087  0.4914
  378MOL0     C50951   2.363   9.221   5.284 -0.3302  0.2011  0.5846
  378MOL0     C50952   2.355   9.169   5.152 -0.5915  0.2196  0.6976
  378MOL0     C50953   2.474   9.119   5.085 -0.5921 -1.2692 -0.2382
  378MOL0     O50954   2.468   9.065   4.964 -0.4274  0.1002  0.9752
  378MOL0     C50955   2.585   8.981   4.915 -0.1430 -0.5785 -1.3068
  378MOL0     C50956   2.563   8.885   4.800  0.1251  0.6347  0.7672
  378MOL0     C50957   2.471   8.765   4.831 -0.2051 -0.5421 -0.1919
  378MOL0     C50958   2.460   8.671   4.707  0.5409 -0.3929 -0.1898
  378MOL0     C50959   2.579   8.594   4.693 -1.2077 -0.0912 -0.4354
  378MOL0     C50960   2.687   8.541   4.696  0.0965  0.2283  0.1224
  378MOL0     C50961   2.598   9.128   5.154 -0.6513 -0.7005  0.0568
  378MOL0     C50962   2.606   9.176   5.288 -0.7250  0.6364 -0.9563
  378MOL0     H50963   2.642   9.245   5.737  0.3456  0.3646 -1.2710
  378MOL0     H50964   2.705   9.360   5.962 -3.1655  3.2097  2.5969
  378MOL0     H50965   2.517   9.688   6.061 -1.6942 -1.3366 -0.1617
  378MOL0     H50966   2.579   9.540   6.134  0.1802 -0.3428  0.2745
  378MOL0     H50967   2.696   9.833   6.187  3.0937  0.4071 -0.0604
  378MOL0     H50968   2.592   9.736   6.292 -0.2189 -5.2406  0.3415
  378MOL0     H50969   2.862   9.646   6.233 -1.4609 -0.1243 -1.9127
  378MOL0     H50970   2.797   9.716   6.388 -2.2670 -1.7072  0.3465
  378MOL0     H50971   2.644   9.514   6.385  0.1534 -0.9713 -0.3494
  378MOL0     H50972   2.736   9.456   6.243  1.5025  1.6045 -0.7818
  378MOL0     H50973   2.939   9.450   6.374 -0.7367  0.0737 -1.0632
  378MOL0     H50974   2.842   9.511   6.517 -1.1999  3.2635 -0.8990
  378MOL0     H50975   2.807   9.252   6.358  1.1679  1.4713 -1.2241
  378MOL0     H50976   2.909   9.260   6.509 -1.7711 -1.9738  1.3083
  378MOL0     H50977   2.742   9.286   6.657 -0.3991  0.4367  0.5568
  378MOL0     H50978   2.634   9.360   6.544  1.5626  0.3842 -3.3008
  378MOL0     H50979   2.649   9.113   6.431  0.9849  1.6948 -0.3021
  378MOL0     H50980   2.528   9.144   6.543 -0.3191 -4.2809 -0.9804
  378MOL0     H50981   2.598   9.056   6.803  0.8041  1.1720 -0.6423
  378MOL0     H50982   2.733   8.911   6.970  0.8317  1.9847 -1.5989
  378MOL0     H50983   2.682   8.749   6.893  2.0807 -2.0132  1.2772
  378MOL0     H50984   2.912   8.700   6.845 -2.4632  0.6449 -0.8382
  378MOL0     H50985   2.865   8.678   7.017  0.1630 -1.0479 -0.7175
  378MOL0     H50986   2.986   8.859   7.091 -0.3392  1.4287 -0.2050
  378MOL0     H50987   2.970   8.941   6.929  1.9484  1.4307  1.7453
  378MOL0     H50988   3.135   8.740   6.853  3.7586  0.3365  0.5050
  378MOL0     H50989   3.125   8.699   7.015  0.9019 -1.5844 -0.6171
  378MOL0     H50990   3.342   9.100   6.996  1.8816 -2.0942  1.5125
  378MOL0     H50991   3.482   9.334   6.741  1.0781 -1.6236 -0.5844
  378MOL0     H50992   3.359   9.349   6.854 -4.4139 -3.9672 -0.9299
  378MOL0     H50993   3.512   9.274   6.901 -0.6150 -1.8220  1.0470
  378MOL0     H50994   3.384   9.093   6.181  1.9195 -3.9298  3.1431
  378MOL0     H50995   3.479   9.206   5.991 -0.7246  2.1526  0.6360
  378MOL0     H50996   3.539   9.410   5.933  0.8975 -1.9813 -0.0746
  378MOL0     H50997   3.640   9.548   5.990  3.9703 -0.1629  0.5847
  378MOL0     H50998   3.685   9.389   5.740 -1.4948  0.0571 -0.4316
  378MOL0     H50999   3.643   9.558   5.757 -2.5038 -2.5440 -0.7631
  378MOL0     H51000   3.909   9.408   5.830  0.6356 -0.0339 -1.7760
  378MOL0     H51001   3.881   9.550   5.918  3.8204  2.8459 -1.4270
  378MOL0     H51002   3.882   9.546   5.609 -0.3134 -0.9506  0.5938
  378MOL0     H51003   3.878   9.689   5.716  1.0277  0.5499 -0.4456
  378MOL0     H51004   4.086   9.628   5.590  1.0322 -1.2945 -0.2241
  378MOL0     H51005   4.107   9.479   5.677  2.9465  0.8334 -0.1148
  378MOL0     H51006   4.118   9.591   5.905  3.0370 -1.1135  0.7099
  378MOL0     H51007   4.244   9.641   5.799  0.1093 -2.1428 -2.9163
  378MOL0     H51008   3.993   9.821   5.789 -0.2127  0.0751 -0.1394
  378MOL0     H51009   4.153   9.871   5.773  0.8555  1.9844  3.2995
  378MOL0     H51010   4.035   9.769   6.035 -1.2079  1.7873  0.5167
  378MOL0     H51011   4.096   9.935   6.014  4.7450  1.8098  1.5985
  378MOL0     H51012   3.816   9.344   6.240 -0.2179  1.2485 -2.8416
  378MOL0     H51013   3.707   9.245   6.431 -0.0591  0.5004 -0.6245
  378MOL0     H51014   3.323   8.918   6.536 -2.1825 -2.2505  1.3876
  378MOL0     H51015   3.235   8.807   6.705 -0.5486  0.4768 -1.0263
  378MOL0     H51016   2.630   9.732   5.751 -3.3383 -0.7852 -2.8049
  378MOL0     H51017   2.590   9.627   5.565  2.5280  4.1285  2.2623
  378MOL0     H51018   2.269   9.248   5.332 -0.0256  0.5982  0.9674
  378MOL0     H51019   2.273   9.180   5.082  1.6857  0.2447 -2.1473
  378MOL0     H51020   2.667   9.053   4.903  0.8378 -1.0376  1.8135
  378MOL0     H51021   2.617   8.917   4.998  2.2431 -0.4852 -2.0751
  378MOL0     H51022   2.664   8.852   4.774  0.6896  3.6323 -1.4809
  378MOL0     H51023   2.527   8.934   4.708 -1.3405 -1.4264  0.1891
  378MOL0     H51024   2.373   8.791   4.872 -0.0141  0.5959 -0.4325
  378MOL0     H51025   2.517   8.708   4.912 -1.5173 -2.0912 -0.4745
  378MOL0     H51026   2.437   8.737   4.622 -1.1541  0.7858  1.1180
  378MOL0     H51027   2.368   8.612   4.714 -0.2315  0.5622 -1.6587
  378MOL0     H51028   2.778   8.489   4.716 -0.2234 -0.7294 -0.8208
  378MOL0     H51029   2.687   9.077   5.117  0.4515  0.7017  0.6537
  378MOL0     H51030   2.704   9.209   5.321 -0.2816  1.3640 -2.8714
  379MOL0     O51031   7.403  10.388   7.035 -0.3584 -0.2390 -0.6255
  379MOL0     C51032   7.304  10.453   7.032  0.2666 -0.0372  0.0929
  379MOL0     O51033   7.222  10.483   7.139  0.2517 -0.4566 -0.1969
  379MOL0     C51034   7.257  10.449   7.268 -0.9822 -0.4180  0.6553
  379MOL0     C51035   7.241  10.318   7.314 -0.8469 -0.2386 -0.6169
  379MOL0     C51036   7.279  10.272   7.438 -0.6697 -0.1033 -0.6999
  379MOL0     C51037   7.362  10.354   7.516  0.0594 -0.4279  0.7050
  379MOL0     O51038   7.429  10.323   7.629 -0.2513 -0.1473 -0.7599
  379MOL0     C51039   7.503  10.203   7.627 -0.0958  0.3661 -0.7552
  379MOL0     C51040   7.610  10.207   7.729  0.4241  0.0094 -0.1707
  379MOL0     C51041   7.557  10.222   7.868 -0.0893 -0.4734  0.0102
  379MOL0     C51042   7.655  10.183   7.978 -1.1330  0.0995 -0.7228
  379MOL0     C51043   7.605  10.182   8.124  0.4647  0.1106 -0.6101
  379MOL0     C51044   7.713  10.155   8.215  0.3209  0.6098  0.2923
  379MOL0     C51045   7.754  10.000   8.212  0.2930 -0.8674 -1.0791
  379MOL0     C51046   7.860   9.987   8.323 -0.2821 -0.4112  0.3528
  379MOL0     N51047   7.983  10.059   8.299 -0.4146  1.1999  1.1038
  379MOL0     C51048   8.050  10.057   8.179 -0.2543  0.2755  0.6080
  379MOL0     C51049   8.140  10.156   8.183  0.7148 -0.1710  0.6204
  379MOL0     C51050   8.248  10.189   8.084 -0.2060  0.6099  0.6512
  379MOL0     C51051   8.352  10.276   8.158  0.5750 -0.4797 -0.0660
  379MOL0     C51052   8.489  10.297   8.091  0.1148 -0.0071 -0.1162
  379MOL0     C51053   8.577  10.370   8.189 -0.8321 -0.4122 -0.5657
  379MOL0     O51054   8.705  10.396   8.131  0.1533 -0.3714  0.0752
  379MOL0     C51055   8.782  10.500   8.187  0.5492  0.2381  0.2636
  379MOL0     C51056   8.781  10.633   8.134  0.3777  0.6271  1.6715
  379MOL0     C51057   8.859  10.723   8.189  0.2743 -0.5007 -0.2511
  379MOL0     C51058   8.835  10.853   8.132 -0.2386 -1.1084  0.5689
  379MOL0     C51059   8.943  10.699   8.300  0.0437  0.4642 -0.8507
  379MOL0     C51060   9.022  10.800   8.362 -0.1675 -0.0839  0.2454
  379MOL0     O51061   9.137  10.840   8.297 -0.4691  0.0591  0.1220
  379MOL0     C51062   9.220  10.922   8.371 -0.4724  0.1829 -0.2053
  379MOL0     C51063   9.292  10.883   8.480  0.3304  0.2107 -0.3297
  379MOL0     C51064   9.377  10.971   8.549  0.5232 -0.0137  0.4670
  379MOL0     C51065   9.385  11.105   8.498 -0.0694 -0.1900  0.1840
  379MOL0     O51066   9.466  11.206   8.556 -0.3727 -0.4195 -0.1831
  379MOL0     C51067   9.543  11.180   8.671  0.2875  0.9723  0.9343
  379MOL0     C51068   9.599  11.305   8.713 -0.6170  0.0745 -0.9905
  379MOL0     C51069   9.489  11.410   8.760  0.3731 -0.4187  0.0823
  379MOL0     C51070   9.452  11.509   8.656 -0.1232 -0.6228 -0.1562
  379MOL0     C51071   9.349  11.621   8.693  0.2130  0.4930 -0.9077
  379MOL0     C51072   9.308  11.708   8.573 -0.7010  0.2496 -0.8037
  379MOL0     C51073   9.180  11.790   8.612  0.6226  0.0226  0.0146
  379MOL0     C51074   9.192  11.893   8.720 -0.3529 -0.4947 -0.8542
  379MOL0    Cl51075   9.024  11.952   8.755 -0.1004  0.1169 -0.2410
  379MOL0     C51076   9.313  11.143   8.383  0.0776  0.4643  0.5657
  379MOL0     C51077   9.221  11.055   8.328 -0.7118 -0.2114  0.5179
  379MOL0     O51078   8.992  10.838   8.475 -0.1231 -0.2765 -0.3509
  379MOL0     C51079   8.942  10.575   8.363  0.5292 -0.3202 -0.0425
  379MOL0     C51080   8.857  10.483   8.305 -0.4554  0.2103  0.0485
  379MOL0     N51081   8.123  10.218   8.314  0.5412 -0.4102  0.9318
  379MOL0     N51082   8.027  10.165   8.372  0.1277 -0.3978 -0.1389
  379MOL0     C51083   7.380  10.489   7.474 -0.4908 -0.3078  0.1213
  379MOL0     C51084   7.326  10.532   7.356 -0.1121 -0.2632 -0.3010
  379MOL0     C51085   7.269  10.494   6.894  1.0185  1.2794 -0.1964
  379MOL0     C51086   7.333  10.450   6.774  0.5780  0.8495  0.3824
  379MOL0     C51087   7.278  10.474   6.650 -0.0499 -0.7966 -1.0845
  379MOL0     C51088   7.159  10.550   6.632 -0.1140  0.3110  0.5012
  379MOL0     O51089   7.091  10.576   6.513  0.1551 -0.2872  0.1886
  379MOL0     C51090   7.115  10.490   6.394 -0.2321 -0.2968  0.5514
  379MOL0     C51091   7.015  10.499   6.286 -0.0541  0.5140 -0.2814
  379MOL0     C51092   6.879  10.522   6.336  0.0208  0.2141 -0.2919
  379MOL0     C51093   6.768  10.448   6.256 -0.0860 -0.2817 -0.9177
  379MOL0     C51094   6.757  10.486   6.115 -0.4710  0.0748  0.1765
  379MOL0     C51095   6.740  10.513   6.000 -0.8526 -0.6240 -0.9790
  379MOL0     C51096   7.094  10.595   6.755  0.8826 -0.0913  0.0751
  379MOL0     C51097   7.146  10.564   6.878 -0.0883 -0.0720 -0.4709
  379MOL0     H51098   7.193  10.264   7.233  1.4414  0.3056 -2.4617
  379MOL0     H51099   7.259  10.169   7.466  0.8701 -0.4368 -0.6966
  379MOL0     H51100   7.432  10.121   7.639 -0.8907  1.2641  0.9290
  379MOL0     H51101   7.543  10.184   7.527 -1.4522 -3.2327 -0.7790
  379MOL0     H51102   7.669  10.116   7.715  1.7619  1.1611 -3.0127
  379MOL0     H51103   7.671  10.297   7.712  0.2123  0.1967  0.0686
  379MOL0     H51104   7.533  10.325   7.896 -1.3025 -1.7436  4.5581
  379MOL0     H51105   7.463  10.167   7.876 -0.0152 -0.5318  0.5252
  379MOL0     H51106   7.698  10.084   7.960 -1.1995 -0.1653  0.4547
  379MOL0     H51107   7.737  10.254   7.965  0.0564 -1.1327 -0.2285
  379MOL0     H51108   7.554  10.275   8.149  1.2417  0.6004 -0.8033
  379MOL0     H51109   7.526  10.107   8.139 -0.8255  1.5700  0.2353
  379MOL0     H51110   7.802  10.214   8.194  2.4209 -2.2774  0.5078
  379MOL0     H51111   7.675  10.175   8.316 -0.5219  3.4362 -0.4690
  379MOL0     H51112   7.672   9.935   8.244  2.5679 -2.2872  2.3631
  379MOL0     H51113   7.784   9.980   8.109 -0.4840  2.0333 -1.9608
  379MOL0     H51114   7.882   9.881   8.339  4.6451  0.0903 -1.5380
  379MOL0     H51115   7.825  10.037   8.414 -0.4885  0.7265 -0.3370
  379MOL0     H51116   8.055   9.999   8.087  4.2618  2.5587 -0.9196
  379MOL0     H51117   8.292  10.099   8.041 -1.2528  0.2964  0.2073
  379MOL0     H51118   8.222  10.247   7.995 -0.3308  4.4157  2.9491
  379MOL0     H51119   8.369  10.228   8.255  4.8544  2.5682  0.9795
  379MOL0     H51120   8.315  10.377   8.176  2.1211 -0.3002  2.7779
  379MOL0     H51121   8.472  10.356   8.000  0.8849  0.6253  0.1457
  379MOL0     H51122   8.541  10.205   8.060 -3.2006 -1.0346 -3.4849
  379MOL0     H51123   8.574  10.320   8.287 -0.2361 -1.6797 -1.1833
  379MOL0     H51124   8.543  10.473   8.207 -2.9723 -0.8538 -1.8195
  379MOL0     H51125   8.719  10.649   8.047 -1.9785  2.7524  3.6048
  379MOL0     H51126   8.733  10.874   8.098  0.7934  0.3482 -1.9044
  379MOL0     H51127   8.874  10.930   8.199  2.3699 -0.8058 -1.1407
  379MOL0     H51128   8.905  10.858   8.047  2.4235  1.4443  2.7103
  379MOL0     H51129   9.275  10.782   8.516 -3.2319  0.1682 -1.7237
  379MOL0     H51130   9.428  10.941   8.640 -1.1984 -1.9691  0.8683
  379MOL0     H51131   9.480  11.139   8.750 -1.0296 -0.0590 -0.5822
  379MOL0     H51132   9.617  11.104   8.642  0.7433  1.1760  1.5414
  379MOL0     H51133   9.662  11.271   8.796 -1.6250 -1.5528 -0.8523
  379MOL0     H51134   9.661  11.349   8.635  1.2945  2.5431  1.7148
  379MOL0     H51135   9.516  11.452   8.858  0.7182 -1.7363  0.5872
  379MOL0     H51136   9.398  11.356   8.787 -1.2173  2.3237  0.5756
  379MOL0     H51137   9.549  11.549   8.625 -1.1800  0.7623 -1.8769
  379MOL0     H51138   9.418  11.465   8.562 -0.2136  3.0991 -2.0461
  379MOL0     H51139   9.405  11.685   8.761  0.7276  1.3033 -2.0567
  379MOL0     H51140   9.261  11.591   8.751 -0.0599  1.8178 -0.6034
  379MOL0     H51141   9.395  11.770   8.551  1.8703 -1.8747  2.3834
  379MOL0     H51142   9.303  11.643   8.486  3.3391 -0.1909 -0.8952
  379MOL0     H51143   9.113  11.707   8.634 -0.2164  0.8088  0.4575
  379MOL0     H51144   9.139  11.846   8.528 -0.5671 -1.1330 -0.2160
  379MOL0     H51145   9.237  11.986   8.684 -1.5904  0.4279 -0.1205
  379MOL0     H51146   9.242  11.863   8.812 -1.3887  0.7352  0.1502
  379MOL0     H51147   9.324  11.247   8.353  3.0088  1.3334  3.9803
  379MOL0     H51148   9.158  11.072   8.241  1.0298 -1.1844 -1.0014
  379MOL0     H51149   8.987  10.551   8.458 -3.0256  1.7271  2.3830
  379MOL0     H51150   8.854  10.389   8.359  2.3644  0.9754  1.7099
  379MOL0     H51151   7.430  10.561   7.538  0.3249 -0.6008 -0.1730
  379MOL0     H51152   7.331  10.635   7.321 -0.0782 -0.4391 -0.8260
  379MOL0     H51153   7.410  10.375   6.788 -2.6697 -2.8155  0.6431
  379MOL0     H51154   7.334  10.433   6.567 -1.3756 -0.9308 -1.9397
  379MOL0     H51155   7.215  10.507   6.354  1.1149 -4.0236  1.9078
  379MOL0     H51156   7.119  10.386   6.426  0.9150 -0.7471 -0.9676
  379MOL0     H51157   7.025  10.401   6.238 -0.8270  0.3377 -0.1019
  379MOL0     H51158   7.042  10.570   6.208 -1.5198  1.2054 -0.2009
  379MOL0     H51159   6.857  10.629   6.333 -0.6813  0.0587 -1.0275
  379MOL0     H51160   6.861  10.497   6.441  1.4058  3.9587  0.9987
  379MOL0     H51161   6.677  10.480   6.308  0.9408  0.2064  0.6700
  379MOL0     H51162   6.781  10.340   6.266  0.9553 -0.0356  1.3000
  379MOL0     H51163   6.726  10.542   5.897 -3.4886 -2.3656 -1.2045
  379MOL0     H51164   7.000  10.646   6.741  0.1723 -0.5543  2.6294
  379MOL0     H51165   7.108  10.612   6.967  1.7439  1.7764 -0.5848
  380MOL0     O51166   1.544   3.154   9.024  0.2127 -1.0882 -0.4451
  380MOL0     C51167   1.576   3.084   9.119 -0.5154  0.3616 -0.7330
  380MOL0     O51168   1.510   2.969   9.167 -0.1524  0.1315 -0.5446
  380MOL0     C51169   1.416   2.899   9.090 -0.0943 -0.5873  0.2969
  380MOL0     C51170   1.414   2.763   9.090 -0.3221 -0.5377 -0.1353
  380MOL0     C51171   1.320   2.686   9.010 -0.7712  0.7304  0.3812
  380MOL0     C51172   1.220   2.746   8.936  0.6923  0.0611  0.1268
  380MOL0     O51173   1.138   2.675   8.850 -0.0555 -0.2600  0.2049
  380MOL0     C51174   1.190   2.565   8.781 -0.2015  0.7237 -0.2580
  380MOL0     C51175   1.089   2.497   8.691 -0.7883 -0.7084  0.2556
  380MOL0     C51176   1.044   2.590   8.587  1.0970  0.1093  0.2480
  380MOL0     C51177   0.984   2.506   8.476  0.8655  0.7543 -0.6568
  380MOL0     C51178   0.930   2.598   8.358  0.0415  1.0018  0.1732
  380MOL0     C51179   0.883   2.502   8.240  0.3195  0.0464  0.5553
  380MOL0     C51180   0.790   2.386   8.279 -0.8859  0.0220  0.2494
  380MOL0     C51181   0.694   2.357   8.172  0.6101 -0.2925  0.3615
  380MOL0     N51182   0.748   2.321   8.037 -0.7179  0.1202  0.0502
  380MOL0     C51183   0.691   2.353   7.922  0.3690  0.4412 -0.1644
  380MOL0     C51184   0.741   2.273   7.821 -0.2878 -0.5969  0.5131
  380MOL0     C51185   0.697   2.242   7.674  1.3882  0.3313 -0.1502
  380MOL0     C51186   0.562   2.177   7.671 -0.4980 -0.3682 -0.1550
  380MOL0     C51187   0.514   2.154   7.528  0.8109  0.3567  0.9944
  380MOL0     C51188   0.392   2.077   7.518  0.4668 -0.1003  0.0958
  380MOL0     O51189   0.414   1.947   7.577  0.6354  0.4695 -0.0133
  380MOL0     C51190   0.365   1.835   7.525 -0.2197 -0.1831 -0.0301
  380MOL0     C51191   0.245   1.847   7.447 -0.7944  0.0588  0.3915
  380MOL0     C51192   0.206   1.738   7.366 -0.6848  0.3864 -0.3581
  380MOL0     C51193   0.083   1.747   7.269 -0.0833 -0.6140  0.2609
  380MOL0     C51194   0.277   1.614   7.367  0.9582  0.6123 -0.0050
  380MOL0     C51195   0.236   1.491   7.293 -0.7453 -0.3881 -0.0692
  380MOL0     O51196   0.099   1.458   7.269 -0.0581  0.5196 -0.0831
  380MOL0     C51197   0.080   1.345   7.193  0.1915  0.6063  0.2671
  380MOL0     C51198  -0.013   1.353   7.092  0.5969 -0.1425  0.9184
  380MOL0     C51199  -0.056   1.237   7.027  0.4319 -0.7927 -1.7298
  380MOL0     C51200   0.003   1.111   7.065  0.4428  0.5222 -0.2779
  380MOL0     O51201  -0.048   0.994   7.003 -0.1713 -0.6076  0.0960
  380MOL0     C51202   0.006   0.972   6.867 -1.0357 -0.6476  1.0746
  380MOL0     C51203  -0.093   0.922   6.768  1.2863  0.5982  0.1787
  380MOL0     C51204  -0.176   0.800   6.823 -0.0371  0.5536  0.2883
  380MOL0     C51205  -0.285   0.743   6.728 -0.4207  0.1886 -0.2763
  380MOL0     C51206  -0.366   0.623   6.773 -0.7175  1.0440  0.6815
  380MOL0     C51207  -0.456   0.581   6.656 -0.4167 -0.4862 -0.0361
  380MOL0     C51208  -0.552   0.467   6.683  0.5802 -0.8507 -0.3635
  380MOL0     C51209  -0.686   0.494   6.735 -0.0293  0.3175 -0.3756
  380MOL0    Cl51210  -0.771   0.334   6.743 -0.4061 -0.0956 -0.2869
  380MOL0     C51211   0.109   1.099   7.151 -0.1866 -0.0507 -0.5695
  380MOL0     C51212   0.142   1.214   7.229  0.2011 -0.8876  0.0217
  380MOL0     O51213   0.333   1.424   7.255  0.4680 -0.3808 -0.2825
  380MOL0     C51214   0.395   1.614   7.445  0.1206 -0.0300  0.5582
  380MOL0     C51215   0.436   1.720   7.526  0.4841 -0.0163 -0.5800
  380MOL0     N51216   0.826   2.188   7.884  0.3110  0.6013 -0.0502
  380MOL0     N51217   0.831   2.210   8.008  0.2056 -0.0392 -0.5557
  380MOL0     C51218   1.211   2.884   8.947 -0.8524 -0.3524 -0.1964
  380MOL0     C51219   1.310   2.956   9.020  0.0070  0.0737  0.3640
  380MOL0     C51220   1.693   3.134   9.199  0.5650  0.9027  0.5824
  380MOL0     C51221   1.771   3.040   9.276  0.2162  0.1186 -1.0500
  380MOL0     C51222   1.885   3.078   9.345 -0.2614 -0.5360  0.4614
  380MOL0     C51223   1.922   3.212   9.338 -0.1101 -1.0719  0.7178
  380MOL0     O51224   2.023   3.285   9.392  0.2871  0.0407 -0.0410
  380MOL0     C51225   2.104   3.227   9.494 -1.2337  0.5100 -0.5970
  380MOL0     C51226   2.199   3.334   9.550 -0.2173 -0.0073  0.0407
  380MOL0     C51227   2.314   3.350   9.459  1.1861  0.0749  0.2399
  380MOL0     C51228   2.397   3.465   9.509 -0.3166  0.3584 -0.0449
  380MOL0     C51229   2.461   3.441   9.636  0.0221 -0.4862  0.3808
  380MOL0     C51230   2.512   3.419   9.744 -0.8729  0.2592 -0.6282
  380MOL0     C51231   1.855   3.296   9.250 -0.7755  0.5962 -0.0747
  380MOL0     C51232   1.740   3.261   9.182 -0.5655  0.8696 -1.0976
  380MOL0     H51233   1.481   2.699   9.147 -1.3281 -0.8482  0.7255
  380MOL0     H51234   1.347   2.581   9.013  3.3844  1.4002 -3.1574
  380MOL0     H51235   1.265   2.609   8.714 -0.6327  0.4116 -0.9543
  380MOL0     H51236   1.242   2.495   8.847 -1.8026  0.1769  0.4720
  380MOL0     H51237   1.123   2.403   8.647 -0.3972 -1.6129  2.3549
  380MOL0     H51238   0.998   2.455   8.736 -2.2630  0.8550 -1.1723
  380MOL0     H51239   0.964   2.654   8.625  0.8856 -1.1221  1.9747
  380MOL0     H51240   1.116   2.666   8.553  1.9228 -0.8489 -0.2128
  380MOL0     H51241   1.058   2.447   8.421  2.7211  1.4416  0.9483
  380MOL0     H51242   0.910   2.438   8.520  0.5809 -0.2431 -2.5924
  380MOL0     H51243   0.845   2.657   8.392 -2.0053 -1.9698  0.5550
  380MOL0     H51244   1.002   2.668   8.313  1.1321 -0.4271 -0.3810
  380MOL0     H51245   0.827   2.570   8.176 -0.4571  0.4408  1.6139
  380MOL0     H51246   0.964   2.447   8.192 -0.0974 -1.8572  1.8801
  380MOL0     H51247   0.854   2.298   8.286 -3.3511 -1.8805  0.5622
  380MOL0     H51248   0.743   2.396   8.378 -4.7231 -3.0363 -0.9967
  380MOL0     H51249   0.635   2.449   8.166  0.9315  0.0835  2.4080
  380MOL0     H51250   0.634   2.272   8.206  0.6052  0.7004  3.0932
  380MOL0     H51251   0.601   2.413   7.912  0.9692  1.0636 -2.2079
  380MOL0     H51252   0.674   2.333   7.618 -2.5785  0.0782  0.7633
  380MOL0     H51253   0.771   2.173   7.633  0.3626 -0.3886 -0.8678
  380MOL0     H51254   0.491   2.233   7.733 -1.4208 -3.8219  2.2405
  380MOL0     H51255   0.581   2.078   7.715 -1.8622 -0.8423 -0.5900
  380MOL0     H51256   0.591   2.103   7.469  0.0152  1.3045 -0.9560
  380MOL0     H51257   0.493   2.250   7.481  2.6931 -0.3445 -1.5152
  380MOL0     H51258   0.379   2.081   7.409 -0.4489  0.0795  0.2025
  380MOL0     H51259   0.302   2.121   7.562 -0.7248 -0.3909 -1.9225
  380MOL0     H51260   0.179   1.932   7.456 -2.4805 -1.2792  1.4108
  380MOL0     H51261   0.048   1.850   7.258  0.5476 -0.4169  0.0762
  380MOL0     H51262   0.119   1.718   7.170 -0.6255 -3.2209  0.7469
  380MOL0     H51263   0.004   1.674   7.291 -0.5805  0.3824  1.9593
  380MOL0     H51264  -0.052   1.449   7.059  2.6151 -0.1933 -2.0206
  380MOL0     H51265  -0.138   1.245   6.956 -0.5195 -0.8864 -0.6617
  380MOL0     H51266   0.049   1.068   6.834  0.9614 -0.4456  3.9403
  380MOL0     H51267   0.094   0.909   6.878 -0.4679 -0.0062  0.3416
  380MOL0     H51268  -0.158   1.003   6.731 -1.1067 -1.0131  0.6246
  380MOL0     H51269  -0.048   0.896   6.672 -0.2872  0.3731 -0.5338
  380MOL0     H51270  -0.220   0.833   6.918 -2.9923 -1.6157 -0.1767
  380MOL0     H51271  -0.104   0.720   6.845  1.5484  1.8387 -0.0338
  380MOL0     H51272  -0.358   0.820   6.706 -1.3764 -0.2930  1.0377
  380MOL0     H51273  -0.231   0.708   6.639 -0.2949 -0.0482 -0.1101
  380MOL0     H51274  -0.424   0.645   6.863 -0.1862 -0.0189  1.3078
  380MOL0     H51275  -0.293   0.544   6.793  0.3053  1.7183 -0.2358
  380MOL0     H51276  -0.501   0.676   6.627  1.9361  1.7031  2.8182
  380MOL0     H51277  -0.390   0.547   6.576  2.4720  0.7950  1.6252
  380MOL0     H51278  -0.497   0.397   6.746  0.2893  0.6153  1.6161
  380MOL0     H51279  -0.570   0.423   6.584 -1.1346  0.2397 -0.6019
  380MOL0     H51280  -0.739   0.564   6.671 -0.4564  0.8206  0.5116
  380MOL0     H51281  -0.687   0.543   6.832 -3.6721  0.8920 -0.5564
  380MOL0     H51282   0.146   1.000   7.174 -2.2484 -0.5995  0.7120
  380MOL0     H51283   0.200   1.204   7.321 -0.4488  0.3538  0.5862
  380MOL0     H51284   0.455   1.524   7.443 -0.2270 -0.3870  2.9935
  380MOL0     H51285   0.528   1.717   7.583  0.4814 -0.5646 -0.6064
  380MOL0     H51286   1.130   2.932   8.894  0.4312  0.2644 -1.6897
  380MOL0     H51287   1.307   3.064   9.027  0.4480  0.0128  1.8581
  380MOL0     H51288   1.738   2.936   9.272 -0.0289  0.2244 -2.8309
  380MOL0     H51289   1.926   3.008   9.418 -2.4517 -0.1725  2.1558
  380MOL0     H51290   2.040   3.212   9.581 -0.3956  5.3302  1.1053
  380MOL0     H51291   2.161   3.140   9.460 -2.6169  0.1603 -2.1932
  380MOL0     H51292   2.230   3.306   9.651  5.3361  0.5357 -1.1943
  380MOL0     H51293   2.150   3.432   9.558  0.5115  0.4386 -0.8177
  380MOL0     H51294   2.281   3.377   9.358  1.6562  1.2498  0.3788
  380MOL0     H51295   2.369   3.256   9.466  0.1398 -0.5019  1.0272
  380MOL0     H51296   2.338   3.557   9.507 -0.1846  0.4738  0.9114
  380MOL0     H51297   2.473   3.484   9.433 -0.5927  1.9605  0.0363
  380MOL0     H51298   2.556   3.384   9.836  2.5105 -1.0650 -2.5753
  380MOL0     H51299   1.890   3.395   9.225 -0.1623  0.3235 -0.3407
  380MOL0     H51300   1.695   3.342   9.126 -1.3895  2.4001  1.6167
  381MOL0     O51301   4.063   7.648   2.600 -0.5894  0.1588  0.2722
  381MOL0     C51302   4.154   7.570   2.567 -0.9765  0.7678 -0.4816
  381MOL0     O51303   4.209   7.472   2.648  0.1147  0.0835 -0.0837
  381MOL0     C51304   4.181   7.476   2.780  0.1818 -0.3212  0.0505
  381MOL0     C51305   4.212   7.350   2.844  0.1189  0.3524 -0.3315
  381MOL0     C51306   4.201   7.333   2.986 -0.9639  0.3444 -0.4168
  381MOL0     C51307   4.150   7.447   3.059  0.3430 -0.2097 -0.1991
  381MOL0     O51308   4.140   7.456   3.195 -0.0554 -0.1123 -0.6590
  381MOL0     C51309   4.112   7.333   3.258  1.0522  0.3720 -0.5786
  381MOL0     C51310   4.122   7.339   3.415 -0.3178 -0.2788  0.4993
  381MOL0     C51311   4.125   7.196   3.481  0.2780  0.8376  0.1773
  381MOL0     C51312   4.109   7.200   3.635 -0.3610 -0.2914 -0.1324
  381MOL0     C51313   4.237   7.224   3.705  0.5215  0.5366  0.1783
  381MOL0     C51314   4.226   7.242   3.869 -0.0432  0.6179 -0.4043
  381MOL0     C51315   4.172   7.381   3.916 -0.5497 -0.1744  0.8538
  381MOL0     C51316   4.152   7.393   4.069 -0.2475  0.0986 -0.6514
  381MOL0     N51317   4.272   7.400   4.159  0.1607 -0.2112 -0.0767
  381MOL0     C51318   4.357   7.514   4.168 -0.7369 -1.1557 -0.2572
  381MOL0     C51319   4.456   7.474   4.250 -1.1606 -0.1526  0.7069
  381MOL0     C51320   4.564   7.558   4.304  0.1484  0.0730  0.4095
  381MOL0     C51321   4.493   7.640   4.415 -0.4232  0.3020 -0.4501
  381MOL0     C51322   4.449   7.558   4.546 -0.3862 -0.7458  0.5464
  381MOL0     C51323   4.448   7.662   4.657 -1.5844  0.5601 -0.2044
  381MOL0     O51324   4.354   7.764   4.629 -0.1335 -0.1254  0.2427
  381MOL0     C51325   4.336   7.841   4.744  0.8079 -0.6000  0.2463
  381MOL0     C51326   4.252   7.802   4.847  0.1475  0.3448 -0.0901
  381MOL0     C51327   4.246   7.882   4.961 -0.2922  0.0129 -1.0114
  381MOL0     C51328   4.150   7.840   5.080  0.0372  0.4155  1.4596
  381MOL0     C51329   4.305   8.008   4.981 -0.4358 -1.0593  0.9622
  381MOL0     C51330   4.310   8.080   5.110 -0.2321  0.3071  0.6692
  381MOL0     O51331   4.327   8.006   5.225 -0.2073  0.3734  0.0456
  381MOL0     C51332   4.296   8.037   5.353 -0.7551 -0.4159 -0.8123
  381MOL0     C51333   4.341   7.953   5.462  0.8805 -0.7288  1.3239
  381MOL0     C51334   4.318   7.997   5.594 -1.9024  0.9718 -0.2577
  381MOL0     C51335   4.270   8.117   5.629  0.2553  0.9321 -0.4378
  381MOL0     O51336   4.272   8.153   5.759 -0.0313  0.1998 -0.1589
  381MOL0     C51337   4.241   8.288   5.791  0.5215  0.8948 -0.2774
  381MOL0     C51338   4.237   8.294   5.946  0.2071 -1.0102 -0.6002
  381MOL0     C51339   4.365   8.250   6.019 -0.5317 -0.3250 -0.1091
  381MOL0     C51340   4.370   8.244   6.174 -0.3688  0.1144 -0.3130
  381MOL0     C51341   4.514   8.226   6.225  0.2706  0.5731  0.0372
  381MOL0     C51342   4.537   8.269   6.368  0.5167  0.2258 -0.7377
  381MOL0     C51343   4.676   8.269   6.405 -0.5463 -0.3679 -0.9826
  381MOL0     C51344   4.710   8.194   6.536  0.0467  0.2572  0.7058
  381MOL0    Cl51345   4.637   8.271   6.683  0.2405  0.1598 -0.0132
  381MOL0     C51346   4.233   8.205   5.528  0.0133  0.5746  0.2096
  381MOL0     C51347   4.242   8.163   5.395  0.5367 -0.4796 -0.1915
  381MOL0     O51348   4.278   8.198   5.102  1.1400 -0.0221  0.4807
  381MOL0     C51349   4.381   8.063   4.871 -0.5817  0.2735  0.0370
  381MOL0     C51350   4.387   7.975   4.756 -0.0497  0.0074 -0.1634
  381MOL0     N51351   4.437   7.338   4.280 -0.3423  1.1370  0.3149
  381MOL0     N51352   4.330   7.297   4.225  0.4017 -0.1911 -0.5564
  381MOL0     C51353   4.142   7.573   2.998 -0.8528  0.4298  0.5940
  381MOL0     C51354   4.158   7.593   2.860  1.3480  0.0222 -0.1307
  381MOL0     C51355   4.211   7.579   2.429  0.5774 -0.3213 -0.3477
  381MOL0     C51356   4.168   7.680   2.341  0.4425  0.2378 -0.9171
  381MOL0     C51357   4.215   7.677   2.213 -0.0172  0.5833  0.3980
  381MOL0     C51358   4.271   7.562   2.166  0.4745  0.7390  0.5493
  381MOL0     O51359   4.285   7.563   2.031  0.8621  0.3528  0.3049
  381MOL0     C51360   4.245   7.443   1.966  0.1889  0.2688 -0.5919
  381MOL0     C51361   4.368   7.371   1.919  1.3815 -0.0879 -0.2747
  381MOL0     C51362   4.455   7.454   1.830  0.2315  0.7687 -0.0221
  381MOL0     C51363   4.577   7.379   1.792 -0.7135 -0.7960  0.3285
  381MOL0     C51364   4.667   7.476   1.714 -0.2691 -0.8950 -0.4394
  381MOL0     C51365   4.742   7.557   1.662  0.2251 -0.3178  0.5471
  381MOL0     C51366   4.321   7.468   2.249 -0.0228 -0.1550  0.0838
  381MOL0     C51367   4.296   7.471   2.380 -0.3591  0.1749  0.2702
  381MOL0     H51368   4.229   7.261   2.784 -1.6665 -0.2363 -0.0143
  381MOL0     H51369   4.227   7.238   3.030  1.4887  0.1276 -2.0993
  381MOL0     H51370   4.010   7.300   3.234  0.2034  1.0480  1.7301
  381MOL0     H51371   4.184   7.259   3.223  0.3319 -0.4403 -0.4024
  381MOL0     H51372   4.210   7.399   3.439  0.3609 -0.2952 -1.7215
  381MOL0     H51373   4.040   7.400   3.453 -0.4715  1.5637 -2.4948
  381MOL0     H51374   4.045   7.143   3.428  3.0291 -0.8125 -2.6884
  381MOL0     H51375   4.215   7.138   3.458 -0.6654 -0.8332  0.4909
  381MOL0     H51376   4.041   7.283   3.659 -0.6417  0.0897 -2.0922
  381MOL0     H51377   4.058   7.109   3.668 -4.0141  1.2928 -0.8715
  381MOL0     H51378   4.294   7.133   3.684  1.9181  0.2907  4.2337
  381MOL0     H51379   4.274   7.320   3.668 -2.3464  1.1967 -1.2763
  381MOL0     H51380   4.162   7.165   3.913  1.5566  0.0213  0.9821
  381MOL0     H51381   4.324   7.230   3.916  0.2311 -0.7815 -1.2535
  381MOL0     H51382   4.230   7.467   3.879 -0.7232  0.6326  2.3823
  381MOL0     H51383   4.080   7.387   3.857 -0.7129  1.0031  1.1877
  381MOL0     H51384   4.104   7.298   4.095  1.9936 -1.3871 -1.5454
  381MOL0     H51385   4.079   7.472   4.087  0.7950  1.4100 -1.9241
  381MOL0     H51386   4.335   7.614   4.133 -2.6460 -1.2259  0.6024
  381MOL0     H51387   4.647   7.495   4.338 -0.7233 -2.4289 -1.7842
  381MOL0     H51388   4.584   7.617   4.215 -4.1533 -0.1763 -0.9609
  381MOL0     H51389   4.414   7.699   4.369 -1.4452  0.4720  1.4434
  381MOL0     H51390   4.573   7.707   4.446  3.2931 -3.3862 -1.0776
  381MOL0     H51391   4.512   7.476   4.582  0.6671  0.6517  2.0336
  381MOL0     H51392   4.346   7.527   4.530 -1.2783  2.5182 -0.8191
  381MOL0     H51393   4.551   7.697   4.673 -0.6180 -1.8264 -0.7290
  381MOL0     H51394   4.426   7.613   4.752  1.9709  0.1503  0.5520
  381MOL0     H51395   4.200   7.707   4.846  0.0720  0.3873 -0.2611
  381MOL0     H51396   4.087   7.756   5.050  2.5461 -1.0314 -0.0927
  381MOL0     H51397   4.217   7.796   5.155  2.2075 -2.4720 -1.8517
  381MOL0     H51398   4.095   7.928   5.115  0.0458  2.5499 -3.2325
  381MOL0     H51399   4.400   7.865   5.439  0.9607 -0.2260 -0.5133
  381MOL0     H51400   4.352   7.929   5.672 -0.7206 -0.4619 -1.9407
  381MOL0     H51401   4.307   8.363   5.746 -0.3504  1.8366 -0.0393
  381MOL0     H51402   4.141   8.310   5.752 -0.3365 -2.1244 -0.0308
  381MOL0     H51403   4.205   8.390   5.987  0.7638 -1.5469  1.1667
  381MOL0     H51404   4.160   8.227   5.984  1.7270 -0.6082  3.7325
  381MOL0     H51405   4.442   8.313   5.974  0.2341 -2.6994 -2.4037
  381MOL0     H51406   4.392   8.152   5.978  0.3195  0.3176 -1.1459
  381MOL0     H51407   4.332   8.339   6.211  0.1648  0.2245 -0.0323
  381MOL0     H51408   4.295   8.171   6.206 -0.1307  0.5948  1.4064
  381MOL0     H51409   4.578   8.295   6.169  2.1856 -0.5753  0.7394
  381MOL0     H51410   4.547   8.124   6.204  0.2041  0.8470 -1.5642
  381MOL0     H51411   4.488   8.366   6.386 -1.2408 -1.1154  2.6704
  381MOL0     H51412   4.476   8.211   6.438 -1.0699  2.2741 -0.3154
  381MOL0     H51413   4.717   8.370   6.413  1.4865 -1.2393  0.2385
  381MOL0     H51414   4.731   8.226   6.321 -0.9395  0.9978 -1.9767
  381MOL0     H51415   4.817   8.179   6.554 -0.0586  0.7931  1.8681
  381MOL0     H51416   4.669   8.095   6.517 -2.2533  1.8890 -4.9818
  381MOL0     H51417   4.177   8.295   5.548  1.4173  0.9406  2.8653
  381MOL0     H51418   4.228   8.246   5.326 -0.2449  0.5688  1.1698
  381MOL0     H51419   4.429   8.160   4.862  2.5606 -1.0737  0.7567
  381MOL0     H51420   4.451   8.019   4.680  1.9179 -0.8225  0.9476
  381MOL0     H51421   4.140   7.660   3.063  1.5469 -0.2353  1.6801
  381MOL0     H51422   4.133   7.692   2.824  0.3218 -0.3170 -0.4032
  381MOL0     H51423   4.103   7.762   2.370  0.6201  0.4684 -1.1559
  381MOL0     H51424   4.188   7.752   2.140 -1.8438 -2.2975 -2.1541
  381MOL0     H51425   4.182   7.383   2.032 -0.1145  0.9814 -0.2230
  381MOL0     H51426   4.183   7.458   1.877  0.7233 -1.9241 -1.3987
  381MOL0     H51427   4.335   7.280   1.867 -1.5286 -0.2188  1.5540
  381MOL0     H51428   4.427   7.328   2.001  1.4500 -0.8939 -0.7288
  381MOL0     H51429   4.496   7.539   1.886  0.2328 -0.4443  1.9139
  381MOL0     H51430   4.391   7.482   1.746 -0.3388 -4.0089 -1.4808
  381MOL0     H51431   4.549   7.297   1.725  0.9189 -0.8828 -0.2949
  381MOL0     H51432   4.637   7.341   1.876  0.4864 -2.9618 -1.3775
  381MOL0     H51433   4.804   7.623   1.604  0.3313 -1.0810 -0.2242
  381MOL0     H51434   4.375   7.381   2.212 -2.6395 -1.7463 -0.2012
  381MOL0     H51435   4.319   7.392   2.450  1.7773  1.9119  1.6415
  382MOL0     O51436   0.419   3.190   3.108  0.6033  0.0755 -0.2553
  382MOL0     C51437   0.537   3.212   3.144 -0.1039 -0.4857  0.2162
  382MOL0     O51438   0.636   3.263   3.064 -0.2351  0.2581  0.2725
  382MOL0     C51439   0.620   3.339   2.953 -0.8238  0.1853  0.9492
  382MOL0     C51440   0.500   3.351   2.869 -0.0986 -0.4478  0.0994
  382MOL0     C51441   0.498   3.446   2.765 -0.7839 -0.0155  0.6371
  382MOL0     C51442   0.612   3.527   2.742  0.0561  0.3565  0.5595
  382MOL0     O51443   0.618   3.622   2.642  0.6691  0.0603  0.2872
  382MOL0     C51444   0.519   3.638   2.541 -0.0145  0.3037  0.7171
  382MOL0     C51445   0.551   3.767   2.453  0.3377 -0.1301  0.2283
  382MOL0     C51446   0.493   3.763   2.317 -0.0683 -0.0158  1.0904
  382MOL0     C51447   0.516   3.898   2.250 -0.6321 -0.4804  0.2817
  382MOL0     C51448   0.445   3.899   2.111 -0.9497  0.0123 -0.7105
  382MOL0     C51449   0.453   4.042   2.043  0.4668  0.9778 -0.3206
  382MOL0     C51450   0.399   4.034   1.899  0.3077 -0.2654 -0.8354
  382MOL0     C51451   0.405   4.177   1.835  0.4000 -0.3525  0.0900
  382MOL0     N51452   0.536   4.226   1.794  0.1572  0.1851  1.1039
  382MOL0     C51453   0.625   4.322   1.848 -0.8593 -0.0520  0.3671
  382MOL0     C51454   0.733   4.325   1.766  0.0024  0.6956  0.0032
  382MOL0     C51455   0.857   4.402   1.802 -0.4636  0.6348 -0.2371
  382MOL0     C51456   0.871   4.538   1.734 -0.0836 -0.2416  0.3818
  382MOL0     C51457   0.984   4.563   1.634 -0.1775 -0.4267  0.9636
  382MOL0     C51458   1.003   4.460   1.520  0.2289 -0.3778  0.4702
  382MOL0     O51459   0.910   4.472   1.409  0.6624  0.4457 -0.1439
  382MOL0     C51460   0.961   4.419   1.293 -0.4424 -0.9951 -0.3244
  382MOL0     C51461   1.068   4.333   1.271  0.2354  0.3928 -0.4826
  382MOL0     C51462   1.103   4.279   1.145  0.3542  0.1327  0.2309
  382MOL0     C51463   1.217   4.183   1.150 -0.8369 -0.3479 -0.3161
  382MOL0     C51464   1.027   4.316   1.032 -0.8590  1.0929  0.5175
  382MOL0     C51465   1.070   4.276   0.896 -0.9952 -0.4379  1.0384
  382MOL0     O51466   0.982   4.289   0.804 -0.1405 -0.2141  0.1512
  382MOL0     C51467   1.019   4.252   0.677  0.2210  0.9149 -0.3335
  382MOL0     C51468   1.061   4.351   0.599 -0.3959 -1.2928  0.2884
  382MOL0     C51469   1.082   4.346   0.455  0.7984 -0.8358 -0.6265
  382MOL0     C51470   1.043   4.228   0.386  0.1961  0.4082  0.3808
  382MOL0     O51471   1.063   4.227   0.250 -0.8530 -0.1070  0.9020
  382MOL0     C51472   1.013   4.119   0.168 -0.4051 -0.1302 -0.5137
  382MOL0     C51473   1.137   4.067   0.102 -0.1818  0.3922  0.8539
  382MOL0     C51474   1.198   4.173   0.006  0.6612 -0.1324  0.3841
  382MOL0     C51475   1.283   4.121  -0.100  0.0034  0.0283  0.1523
  382MOL0     C51476   1.356   4.230  -0.176  0.2273 -0.1617 -0.5200
  382MOL0     C51477   1.467   4.159  -0.263  0.6083  0.4614 -0.2290
  382MOL0     C51478   1.566   4.269  -0.299  0.1033  0.1731 -0.7277
  382MOL0     C51479   1.680   4.208  -0.383 -0.6208 -0.2521  0.4599
  382MOL0    Cl51480   1.778   4.084  -0.299 -0.0826  0.4170  0.0319
  382MOL0     C51481   0.998   4.114   0.469 -0.8686  0.4351  0.6902
  382MOL0     C51482   0.981   4.134   0.608  0.4754  0.0064 -0.0589
  382MOL0     O51483   1.182   4.236   0.876 -0.8848 -0.2975 -0.0473
  382MOL0     C51484   0.919   4.406   1.052 -1.1267  0.2282 -0.0693
  382MOL0     C51485   0.892   4.467   1.179 -0.1746 -0.0868  0.1200
  382MOL0     N51486   0.702   4.238   1.657 -0.7402  0.4400  0.8109
  382MOL0     N51487   0.580   4.188   1.671 -0.3953  0.4670  0.5139
  382MOL0     C51488   0.727   3.516   2.815  0.3760 -0.0038 -0.4947
  382MOL0     C51489   0.738   3.419   2.917  0.5136  0.0347 -0.4359
  382MOL0     C51490   0.582   3.158   3.277 -0.3628 -0.9530  0.7926
  382MOL0     C51491   0.716   3.172   3.322 -0.2475 -0.0915  0.0993
  382MOL0     C51492   0.756   3.105   3.440  1.1846  0.9172 -0.5663
  382MOL0     C51493   0.669   3.017   3.510  0.2243 -0.2887  0.3169
  382MOL0     O51494   0.729   2.949   3.611 -0.9096 -0.0268  0.9314
  382MOL0     C51495   0.677   2.819   3.634 -0.5681  0.6137  0.0502
  382MOL0     C51496   0.759   2.731   3.741 -0.1579 -0.4511  0.8402
  382MOL0     C51497   0.725   2.774   3.887  0.6726  0.0223 -0.3287
  382MOL0     C51498   0.847   2.723   3.967 -0.1314  0.1421  0.2123
  382MOL0     C51499   0.868   2.775   4.097  0.2378 -0.1043 -0.0945
  382MOL0     C51500   0.887   2.839   4.196 -0.2722 -0.8263 -1.1444
  382MOL0     C51501   0.531   3.001   3.465 -0.6819 -0.4077  0.4199
  382MOL0     C51502   0.500   3.069   3.348 -0.6353  0.0026 -0.0478
  382MOL0     H51503   0.413   3.290   2.888 -1.1016 -0.9792 -4.7881
  382MOL0     H51504   0.415   3.462   2.698 -0.3523  0.5207  0.2242
  382MOL0     H51505   0.518   3.550   2.477 -2.0331  2.7582 -3.0047
  382MOL0     H51506   0.412   3.637   2.565 -0.6936  1.4056 -1.8945
  382MOL0     H51507   0.510   3.854   2.503 -2.9916 -0.4625 -1.6077
  382MOL0     H51508   0.660   3.766   2.444  0.3274 -1.7164  0.0046
  382MOL0     H51509   0.538   3.687   2.252  0.7026  2.1714 -1.0482
  382MOL0     H51510   0.385   3.747   2.320 -0.1282 -0.2210 -0.9846
  382MOL0     H51511   0.471   3.979   2.308 -2.9794  0.0590 -2.0966
  382MOL0     H51512   0.624   3.913   2.244 -0.5238 -1.5409 -0.9933
  382MOL0     H51513   0.485   3.832   2.035  0.6876 -0.6610  0.6873
  382MOL0     H51514   0.342   3.863   2.116 -0.9835 -0.2575 -2.6154
  382MOL0     H51515   0.388   4.111   2.099 -0.0490  0.4188 -0.2226
  382MOL0     H51516   0.557   4.074   2.035  0.4146  0.5653 -4.7297
  382MOL0     H51517   0.459   3.973   1.830 -0.6190 -1.0337 -0.9822
  382MOL0     H51518   0.299   3.992   1.910  0.3556 -0.9004 -2.5164
  382MOL0     H51519   0.373   4.257   1.902  0.5735 -0.6609  0.5427
  382MOL0     H51520   0.346   4.183   1.743  4.1193  1.9695 -2.4141
  382MOL0     H51521   0.603   4.368   1.944 -1.3157 -2.7084  1.6272
  382MOL0     H51522   0.851   4.430   1.907 -0.3409 -1.7610  0.4521
  382MOL0     H51523   0.945   4.341   1.778 -1.6288 -1.6940  1.1226
  382MOL0     H51524   0.891   4.613   1.811  0.9242 -0.7107  0.5972
  382MOL0     H51525   0.768   4.554   1.700  0.3993 -0.6970 -1.4127
  382MOL0     H51526   1.071   4.569   1.700 -0.4092 -0.1873  1.2530
  382MOL0     H51527   0.968   4.664   1.594  3.4656  0.4205  1.3549
  382MOL0     H51528   0.998   4.362   1.567  1.4696  0.0184  1.4868
  382MOL0     H51529   1.099   4.471   1.469 -0.4729  0.5183 -0.6978
  382MOL0     H51530   1.115   4.285   1.357 -2.3105 -0.9901  0.2203
  382MOL0     H51531   1.276   4.191   1.242 -0.7284  2.4186 -0.5560
  382MOL0     H51532   1.189   4.079   1.127 -1.1446  0.3461 -3.5498
  382MOL0     H51533   1.289   4.234   1.086 -4.0802  2.1361 -2.3192
  382MOL0     H51534   1.069   4.444   0.655  0.8995  0.5979 -2.7705
  382MOL0     H51535   1.128   4.425   0.397  0.7347  1.3538  2.1358
  382MOL0     H51536   0.955   4.045   0.223  0.0154 -1.6620 -2.0174
  382MOL0     H51537   0.953   4.153   0.083  2.4614 -1.7068 -3.3775
  382MOL0     H51538   1.217   4.030   0.168 -0.6755 -0.0248  1.2208
  382MOL0     H51539   1.109   3.981   0.041  0.4993 -1.7689  3.3833
  382MOL0     H51540   1.257   4.236   0.074  1.9296  1.6646 -2.2285
  382MOL0     H51541   1.123   4.242  -0.031  0.0749  0.0569  1.8541
  382MOL0     H51542   1.367   4.074  -0.049  1.3440  1.4792 -0.6117
  382MOL0     H51543   1.220   4.053  -0.158 -1.1857 -0.5032  1.9961
  382MOL0     H51544   1.409   4.297  -0.108 -1.2331 -0.2925  0.8157
  382MOL0     H51545   1.288   4.283  -0.243  1.4344 -1.1661 -2.6253
  382MOL0     H51546   1.513   4.077  -0.207 -0.3493  0.8233  1.1518
  382MOL0     H51547   1.414   4.122  -0.351  0.9509  0.6944 -0.5370
  382MOL0     H51548   1.611   4.300  -0.204  0.6698  2.1100 -1.5874
  382MOL0     H51549   1.524   4.351  -0.358 -1.4297 -1.4151 -1.9572
  382MOL0     H51550   1.745   4.291  -0.408 -2.4963  1.4010  0.7912
  382MOL0     H51551   1.632   4.167  -0.473 -0.2824  1.0298 -0.3146
  382MOL0     H51552   0.977   4.009   0.448 -0.0575  0.0437  1.7527
  382MOL0     H51553   0.925   4.060   0.664 -2.0908  3.1008  1.8870
  382MOL0     H51554   0.868   4.445   0.965 -0.8148  2.6691  0.7460
  382MOL0     H51555   0.812   4.539   1.192 -1.5885 -1.7837  1.2458
  382MOL0     H51556   0.810   3.582   2.791  1.4197 -1.2833 -0.5219
  382MOL0     H51557   0.831   3.404   2.971 -1.2497 -0.0791  2.7655
  382MOL0     H51558   0.794   3.235   3.282 -0.8965 -1.7101 -4.1420
  382MOL0     H51559   0.860   3.114   3.468  1.5165  1.8715 -1.9897
  382MOL0     H51560   0.572   2.838   3.657 -1.4633 -1.1192 -2.1765
  382MOL0     H51561   0.694   2.766   3.540  0.2734 -0.0773  0.5733
  382MOL0     H51562   0.864   2.745   3.713  0.9988 -1.3187  4.1926
  382MOL0     H51563   0.727   2.631   3.711  0.9844 -0.0209 -2.1123
  382MOL0     H51564   0.642   2.712   3.921  0.4644  0.9713  0.9666
  382MOL0     H51565   0.698   2.879   3.901 -1.4215 -0.3729 -1.0452
  382MOL0     H51566   0.938   2.738   3.909 -0.3911 -0.7861 -0.4486
  382MOL0     H51567   0.845   2.615   3.985  3.5971 -0.4948 -2.0988
  382MOL0     H51568   0.875   2.896   4.286  0.5848 -0.8062 -1.0349
  382MOL0     H51569   0.455   2.949   3.523 -2.6096  0.5173 -1.1432
  382MOL0     H51570   0.394   3.060   3.323 -1.0550  2.3982  0.6268
  383MOL0     O51571   8.787   9.224   5.591 -0.4306 -0.0786  0.4457
  383MOL0     C51572   8.753   9.103   5.577  0.0358 -0.4072 -0.1015
  383MOL0     O51573   8.680   9.065   5.460 -0.4636  0.6957 -0.1099
  383MOL0     C51574   8.624   9.163   5.385  0.3878  0.3053  0.2274
  383MOL0     C51575   8.542   9.266   5.447  0.2292 -0.0796 -0.9212
  383MOL0     C51576   8.465   9.349   5.363 -0.2299  0.4375  1.0545
  383MOL0     C51577   8.472   9.338   5.228  0.2113  0.1302 -0.2621
  383MOL0     O51578   8.385   9.414   5.156  0.7548  0.2254 -0.3624
  383MOL0     C51579   8.441   9.499   5.058 -0.1551 -0.6295  0.7417
  383MOL0     C51580   8.420   9.650   5.082  0.4704 -0.3563 -1.5472
  383MOL0     C51581   8.532   9.691   5.180 -0.0567 -0.4152 -0.3760
  383MOL0     C51582   8.666   9.721   5.106  0.9640 -0.4244 -0.2302
  383MOL0     C51583   8.789   9.708   5.198  0.2901  0.0090  0.5390
  383MOL0     C51584   8.827   9.557   5.222 -0.4331  1.2665  0.0452
  383MOL0     C51585   8.908   9.501   5.105 -0.3530  0.0900  0.0775
  383MOL0     C51586   8.964   9.360   5.138  0.4924 -0.7409 -0.6203
  383MOL0     N51587   9.069   9.358   5.247  0.2587 -0.7715  1.2820
  383MOL0     C51588   9.047   9.310   5.375 -0.1129 -0.5519  0.5258
  383MOL0     C51589   9.173   9.312   5.429  0.0356  0.7099 -0.2385
  383MOL0     C51590   9.206   9.263   5.572  0.0137  0.3257  0.7315
  383MOL0     C51591   9.345   9.307   5.616 -0.5370 -0.8400 -0.3307
  383MOL0     C51592   9.366   9.277   5.765 -0.3531 -0.8802 -0.3637
  383MOL0     C51593   9.392   9.405   5.833 -0.8138  0.5459 -1.2206
  383MOL0     O51594   9.386   9.394   5.976 -0.1182  0.7183  0.6707
  383MOL0     C51595   9.357   9.508   6.050 -0.0257  0.0385  0.3305
  383MOL0     C51596   9.334   9.495   6.190  0.0452  0.5213 -0.3656
  383MOL0     C51597   9.294   9.603   6.269  0.7924 -0.4207  1.3610
  383MOL0     C51598   9.261   9.579   6.411 -0.4771  1.1284 -0.8015
  383MOL0     C51599   9.293   9.737   6.207 -0.2822  0.3176  0.2353
  383MOL0     C51600   9.237   9.865   6.277  0.4210  0.2659  1.0300
  383MOL0     O51601   9.237   9.993   6.206 -0.3113  0.4129 -0.0029
  383MOL0     C51602   9.170  10.098   6.274 -0.1329 -0.3734  0.8208
  383MOL0     C51603   9.230  10.222   6.289 -0.0769  0.4600  0.7012
  383MOL0     C51604   9.166  10.329   6.351 -0.1409  0.5702 -0.5328
  383MOL0     C51605   9.042  10.295   6.418  0.0691  0.4658 -0.9337
  383MOL0     O51606   8.977  10.403   6.467  0.0706 -0.4622  0.2963
  383MOL0     C51607   8.917  10.385   6.592 -0.4373 -0.6066  0.4565
  383MOL0     C51608   9.020  10.405   6.705 -0.4530 -0.6223 -0.0301
  383MOL0     C51609   9.040  10.291   6.800 -0.2561  0.6242 -0.6849
  383MOL0     C51610   9.133  10.329   6.913 -1.2331 -0.5334  0.4836
  383MOL0     C51611   9.168  10.209   7.001 -0.2301 -0.1666  0.4889
  383MOL0     C51612   9.281  10.237   7.098  0.1678 -0.6636  0.9400
  383MOL0     C51613   9.266  10.155   7.221  0.2403 -0.5203 -0.2120
  383MOL0     C51614   9.382  10.180   7.312  0.6970  0.6465  0.0178
  383MOL0    Cl51615   9.359  10.307   7.420  0.0086 -0.6531 -0.0744
  383MOL0     C51616   8.980  10.174   6.393 -0.4834 -0.0010 -0.0952
  383MOL0     C51617   9.036  10.077   6.317  0.1933 -0.2177  0.5379
  383MOL0     O51618   9.212   9.848   6.398 -1.0787 -0.5571  0.6510
  383MOL0     C51619   9.320   9.750   6.072  0.1562 -0.0208  0.4012
  383MOL0     C51620   9.351   9.636   5.996  0.0165 -1.3088  0.4917
  383MOL0     N51621   9.271   9.348   5.338 -0.5013 -1.0081  0.4093
  383MOL0     N51622   9.208   9.380   5.232  0.1982  0.1078  0.4916
  383MOL0     C51623   8.560   9.248   5.162  0.6133 -0.7622 -0.5737
  383MOL0     C51624   8.631   9.156   5.238  0.4781 -0.2036 -0.7221
  383MOL0     C51625   8.770   9.012   5.692 -0.8428  0.2848  0.0707
  383MOL0     C51626   8.730   8.879   5.670 -0.6038 -0.1182 -0.3046
  383MOL0     C51627   8.754   8.788   5.769 -0.6569 -1.3005  0.1031
  383MOL0     C51628   8.810   8.817   5.897  0.3504  1.2255 -0.4326
  383MOL0     O51629   8.847   8.717   5.993  0.8946 -0.7269  0.0385
  383MOL0     C51630   8.879   8.775   6.124  0.4003  1.2345 -0.5446
  383MOL0     C51631   8.885   8.653   6.212  1.0497  0.5095 -0.2614
  383MOL0     C51632   8.911   8.691   6.359  0.1866  0.8657  0.1576
  383MOL0     C51633   8.894   8.562   6.442  0.1339 -0.4977 -0.5753
  383MOL0     C51634   8.753   8.503   6.459 -0.4994  0.1389  0.2905
  383MOL0     C51635   8.644   8.459   6.460  0.2503 -0.2489 -0.3227
  383MOL0     C51636   8.843   8.956   5.913  0.4963  1.3951 -0.1987
  383MOL0     C51637   8.826   9.050   5.816 -1.0573  0.4600 -0.3321
  383MOL0     H51638   8.524   9.268   5.554  1.6175  0.1291 -0.6682
  383MOL0     H51639   8.382   9.409   5.400 -1.9554 -2.3321  1.9633
  383MOL0     H51640   8.547   9.475   5.049 -0.0940 -0.4012  0.8358
  383MOL0     H51641   8.397   9.467   4.963  1.3503 -1.5393  0.3165
  383MOL0     H51642   8.431   9.700   4.985  2.5346 -0.1873 -1.2714
  383MOL0     H51643   8.321   9.657   5.127  1.0544 -1.5020  0.0177
  383MOL0     H51644   8.509   9.782   5.236  2.2466  0.5646 -0.9488
  383MOL0     H51645   8.554   9.611   5.253  0.4183 -1.2901 -1.4512
  383MOL0     H51646   8.676   9.656   5.019 -1.5219  2.1830 -2.6693
  383MOL0     H51647   8.668   9.824   5.068  3.2932 -0.1268  0.5448
  383MOL0     H51648   8.880   9.744   5.148  0.6897 -2.4543 -0.6773
  383MOL0     H51649   8.772   9.765   5.290  0.2592  3.2358 -1.3046
  383MOL0     H51650   8.877   9.540   5.318 -1.1850  0.3918  0.2926
  383MOL0     H51651   8.738   9.494   5.229  0.1374  0.5931  1.7401
  383MOL0     H51652   8.840   9.505   5.019  0.4052 -4.3019 -1.0136
  383MOL0     H51653   8.988   9.567   5.071 -0.6639  0.1514 -0.5495
  383MOL0     H51654   9.010   9.314   5.051  1.6211 -1.1227  0.1596
  383MOL0     H51655   8.897   9.281   5.174  2.6466 -0.7171  4.3075
  383MOL0     H51656   8.954   9.267   5.411 -0.1772 -0.2394  0.7353
  383MOL0     H51657   9.128   9.302   5.638 -2.8064  0.0097 -2.1455
  383MOL0     H51658   9.190   9.156   5.584 -1.1914  0.5018  0.8523
  383MOL0     H51659   9.354   9.414   5.598  1.5278 -0.6667  1.3986
  383MOL0     H51660   9.424   9.258   5.557  3.1801 -1.3330  4.4011
  383MOL0     H51661   9.441   9.199   5.782  2.3710  1.3505 -1.4955
  383MOL0     H51662   9.272   9.244   5.810  0.1432  1.3143  2.5201
  383MOL0     H51663   9.311   9.473   5.805 -2.1227 -0.2974  0.3267
  383MOL0     H51664   9.491   9.447   5.814  0.9690 -1.9540  1.6470
  383MOL0     H51665   9.331   9.395   6.233  1.9092  2.0382  3.7814
  383MOL0     H51666   9.158   9.595   6.443 -0.7987 -0.4911 -0.8914
  383MOL0     H51667   9.285   9.475   6.435  2.4320  0.8379 -4.0048
  383MOL0     H51668   9.329   9.634   6.477 -2.7074 -0.2615  2.9582
  383MOL0     H51669   9.331  10.233   6.251 -0.7902  0.2819 -1.3541
  383MOL0     H51670   9.200  10.432   6.357  2.1471 -0.2096  1.9124
  383MOL0     H51671   8.841  10.461   6.613 -1.4013 -1.6482  0.8576
  383MOL0     H51672   8.867  10.288   6.596 -1.6821 -0.0280 -0.2290
  383MOL0     H51673   9.111  10.443   6.657 -0.8461  1.5438  0.8228
  383MOL0     H51674   8.975  10.487   6.762  0.9524 -1.1197  1.8735
  383MOL0     H51675   9.065  10.201   6.743 -3.3053 -1.9475  1.6466
  383MOL0     H51676   8.940  10.261   6.833  0.5681  1.9858  3.5688
  383MOL0     H51677   9.225  10.377   6.878  1.2794 -3.2539  2.7497
  383MOL0     H51678   9.078  10.405   6.968  0.2007  0.0902  1.1109
  383MOL0     H51679   9.200  10.122   6.943  2.8507  2.3336 -1.9205
  383MOL0     H51680   9.079  10.178   7.056 -1.7002  3.1475  0.2224
  383MOL0     H51681   9.372  10.205   7.045  1.2771 -1.0211  2.9774
  383MOL0     H51682   9.297  10.342   7.122 -1.6903 -0.5832  2.0198
  383MOL0     H51683   9.286  10.049   7.203  2.4829  0.1296 -2.1858
  383MOL0     H51684   9.169  10.182   7.263  0.9602  1.7523  0.1424
  383MOL0     H51685   9.472  10.198   7.252  2.3351 -2.3387  1.3455
  383MOL0     H51686   9.406  10.098   7.381  0.6758 -0.1125 -0.8626
  383MOL0     H51687   8.877  10.170   6.426  0.2431 -1.3884  2.2211
  383MOL0     H51688   8.992   9.980   6.295  0.7295 -0.6706  1.3826
  383MOL0     H51689   9.320   9.850   6.031  0.6957  0.5782  1.8232
  383MOL0     H51690   9.386   9.645   5.894 -0.6692  0.3926  0.3772
  383MOL0     H51691   8.572   9.249   5.054  4.1575  0.7563 -0.3251
  383MOL0     H51692   8.699   9.085   5.192  0.6937 -1.2759  1.1499
  383MOL0     H51693   8.693   8.845   5.574  1.7820  0.9476 -1.6942
  383MOL0     H51694   8.727   8.689   5.733  0.1020 -0.2274 -3.9212
  383MOL0     H51695   8.978   8.821   6.124 -0.4071  3.1127  0.9063
  383MOL0     H51696   8.803   8.849   6.152 -1.8829 -1.2029  0.1245
  383MOL0     H51697   8.963   8.584   6.179  1.4193 -0.3635  2.2213
  383MOL0     H51698   8.793   8.595   6.213  0.3120  1.6445 -0.0376
  383MOL0     H51699   8.836   8.765   6.389  2.5927  3.4308  0.2337
  383MOL0     H51700   9.011   8.731   6.374  1.1392 -0.4521 -2.1913
  383MOL0     H51701   8.934   8.575   6.542  0.3933 -1.1628 -0.5850
  383MOL0     H51702   8.962   8.480   6.416  0.9979 -0.3113  0.9982
  383MOL0     H51703   8.545   8.419   6.465  0.2086 -0.0398  0.5871
  383MOL0     H51704   8.901   8.989   5.999 -1.2865  1.6495  0.9638
  383MOL0     H51705   8.848   9.156   5.823 -1.5246  0.5657 -0.4205
  384MOL0     O51706   1.079   0.732   8.832  0.0968 -0.9789 -0.4423
  384MOL0     C51707   0.968   0.701   8.869 -0.4507 -0.6077  0.0619
  384MOL0     O51708   0.932   0.648   8.991  0.3877 -0.4542  0.6051
  384MOL0     C51709   1.026   0.627   9.088 -0.7417 -0.5226  0.2406
  384MOL0     C51710   1.019   0.521   9.171  0.2337  0.2884 -0.7225
  384MOL0     C51711   1.112   0.501   9.272 -0.0184 -0.1624 -1.5915
  384MOL0     C51712   1.216   0.593   9.303  0.7354 -0.1244 -0.8274
  384MOL0     O51713   1.289   0.597   9.417 -0.2463 -0.7279  0.0984
  384MOL0     C51714   1.336   0.476   9.466  0.3218 -0.2823 -0.1773
  384MOL0     C51715   1.468   0.509   9.533 -0.6352  0.2590  0.2592
  384MOL0     C51716   1.517   0.408   9.628  0.0534  1.4731  0.7246
  384MOL0     C51717   1.670   0.410   9.647 -0.0037  0.0379  0.3598
  384MOL0     C51718   1.741   0.333   9.538 -0.1065  0.4370  0.2295
  384MOL0     C51719   1.884   0.320   9.567 -0.5677  0.2970 -0.7550
  384MOL0     C51720   1.966   0.253   9.455 -0.5752  0.1239  1.0278
  384MOL0     C51721   2.092   0.184   9.498 -0.3086 -0.1893 -0.8722
  384MOL0     N51722   2.168   0.119   9.383  0.4464  0.5781 -0.4432
  384MOL0     C51723   2.181   0.176   9.264  0.3107 -0.4586  0.3442
  384MOL0     C51724   2.297   0.138   9.212  0.5508  0.7780  0.3384
  384MOL0     C51725   2.364   0.183   9.081 -0.1940  0.0531 -1.1057
  384MOL0     C51726   2.369   0.066   8.990  0.6934 -0.9053  0.4078
  384MOL0     C51727   2.405   0.111   8.845 -0.0146  0.7924  0.4445
  384MOL0     C51728   2.444  -0.006   8.748  0.3197 -0.0997 -0.3301
  384MOL0     O51729   2.559  -0.086   8.777  0.4161 -0.0593  0.7480
  384MOL0     C51730   2.680  -0.024   8.766  0.0991 -0.3821 -0.1844
  384MOL0     C51731   2.708   0.108   8.705  0.9175 -0.2503 -0.0588
  384MOL0     C51732   2.836   0.159   8.707 -0.1991  0.1260  0.2523
  384MOL0     C51733   2.860   0.284   8.612  0.2513  0.3957 -0.3818
  384MOL0     C51734   2.947   0.091   8.758 -0.9180  0.0426 -0.1421
  384MOL0     C51735   3.080   0.143   8.752 -0.0199  0.2065 -0.5901
  384MOL0     O51736   3.160   0.044   8.694 -1.1057  0.6277 -0.5901
  384MOL0     C51737   3.303   0.072   8.692  0.4853 -0.6710  0.3489
  384MOL0     C51738   3.383   0.011   8.596  0.3158  0.5867 -1.6066
  384MOL0     C51739   3.522   0.038   8.605 -0.7031 -0.0678  0.2485
  384MOL0     C51740   3.587   0.124   8.699  1.0068 -0.3836  0.2619
  384MOL0     O51741   3.719   0.148   8.683  0.3667 -0.0356 -0.6258
  384MOL0     C51742   3.765   0.272   8.621 -0.1087 -0.0224 -0.6641
  384MOL0     C51743   3.910   0.297   8.639 -0.2434  0.5505  0.4271
  384MOL0     C51744   3.954   0.266   8.789 -0.9459  0.2979 -0.5635
  384MOL0     C51745   3.893   0.341   8.897 -0.9301  0.1430  0.4537
  384MOL0     C51746   3.929   0.275   9.036 -0.5298  0.7198  0.4335
  384MOL0     C51747   3.859   0.359   9.143 -0.2020 -0.0353 -0.0329
  384MOL0     C51748   3.849   0.302   9.284  0.3007  0.3226 -0.0754
  384MOL0     C51749   3.993   0.289   9.346  0.0354  1.0068  0.7037
  384MOL0    Cl51750   4.082   0.441   9.315 -0.2812 -0.0252 -0.2635
  384MOL0     C51751   3.503   0.167   8.801  0.0747 -0.4202 -0.5544
  384MOL0     C51752   3.365   0.141   8.794 -0.6648  0.6804  0.2865
  384MOL0     O51753   3.121   0.255   8.788  1.0195 -0.2202  0.2411
  384MOL0     C51754   2.925  -0.032   8.824  1.6506 -0.6340 -0.0640
  384MOL0     C51755   2.794  -0.091   8.817 -0.0325 -0.3945 -0.4619
  384MOL0     N51756   2.345   0.036   9.293  0.1113 -0.1891  0.8623
  384MOL0     N51757   2.274   0.035   9.404  0.2762 -0.0215  0.2702
  384MOL0     C51758   1.223   0.703   9.218 -0.3385  0.0541 -0.2795
  384MOL0     C51759   1.130   0.717   9.111  0.1053 -1.1250  0.3521
  384MOL0     C51760   0.864   0.719   8.772  0.8295 -0.2732  0.2753
  384MOL0     C51761   0.881   0.716   8.633 -0.1383 -0.0718  0.3603
  384MOL0     C51762   0.778   0.752   8.543 -0.1355 -0.4707 -0.6001
  384MOL0     C51763   0.649   0.786   8.590 -0.6624  0.6049 -0.4503
  384MOL0     O51764   0.547   0.832   8.516 -0.3727 -0.9618  0.1887
  384MOL0     C51765   0.582   0.890   8.382  0.0779  0.4022  0.9150
  384MOL0     C51766   0.584   0.773   8.284 -0.5864  0.5193 -0.0128
  384MOL0     C51767   0.442   0.715   8.268  0.8298  0.5489  0.6315
  384MOL0     C51768   0.430   0.560   8.277 -0.1711 -0.1405 -0.8456
  384MOL0     C51769   0.292   0.523   8.288  0.4329  0.2044 -0.6470
  384MOL0     C51770   0.169   0.486   8.303  0.1077 -0.0500 -0.1237
  384MOL0     C51771   0.628   0.792   8.731 -0.5652 -0.1473 -1.0014
  384MOL0     C51772   0.734   0.751   8.817 -0.1346  0.2080  0.4117
  384MOL0     H51773   0.948   0.440   9.158  1.6705 -0.6689 -3.4192
  384MOL0     H51774   1.102   0.415   9.337 -2.3666  0.2256 -1.3760
  384MOL0     H51775   1.259   0.424   9.524 -2.7804  2.0006 -1.9870
  384MOL0     H51776   1.366   0.412   9.382  2.6802  1.9231 -1.1316
  384MOL0     H51777   1.530   0.533   9.446 -0.6639  0.3986  0.2769
  384MOL0     H51778   1.455   0.596   9.599  2.0201  0.3874  0.7438
  384MOL0     H51779   1.478   0.426   9.729  1.4313  0.6862  1.4220
  384MOL0     H51780   1.487   0.306   9.603  0.9314 -0.0863  5.1450
  384MOL0     H51781   1.701   0.514   9.656 -0.6314  0.1196  2.0485
  384MOL0     H51782   1.693   0.373   9.748  0.1012  3.2900  1.6624
  384MOL0     H51783   1.697   0.235   9.521 -0.5647  0.2456  2.2388
  384MOL0     H51784   1.726   0.392   9.447 -4.1523 -0.2006  0.2966
  384MOL0     H51785   1.927   0.418   9.590 -0.0224 -0.4709  1.8195
  384MOL0     H51786   1.899   0.265   9.660 -1.1129  0.8938 -0.3057
  384MOL0     H51787   1.905   0.179   9.403 -1.0710 -0.7655  2.8165
  384MOL0     H51788   2.005   0.328   9.385 -0.4124 -0.2896  0.6740
  384MOL0     H51789   2.068   0.109   9.574 -2.7131 -1.3817 -2.6236
  384MOL0     H51790   2.161   0.255   9.544 -2.1143  0.5570  0.8268
  384MOL0     H51791   2.113   0.244   9.212  1.8956 -2.5967 -5.2898
  384MOL0     H51792   2.291   0.256   9.046 -2.7710 -0.4118  2.6605
  384MOL0     H51793   2.462   0.230   9.095  0.2059 -0.9944 -0.2050
  384MOL0     H51794   2.269   0.025   8.974  0.6166 -0.3769 -0.5458
  384MOL0     H51795   2.436  -0.017   9.016 -1.1969 -2.3793  0.8213
  384MOL0     H51796   2.476   0.194   8.840  0.3644  0.5727  1.8612
  384MOL0     H51797   2.310   0.155   8.814  0.7694  1.0088 -1.8599
  384MOL0     H51798   2.451   0.047   8.652  3.4841 -0.4847 -0.4459
  384MOL0     H51799   2.358  -0.073   8.741 -0.1112  0.5382 -1.3359
  384MOL0     H51800   2.640   0.169   8.646 -2.2398 -0.3955  3.0711
  384MOL0     H51801   2.892   0.257   8.512  1.0516  0.0360 -0.0364
  384MOL0     H51802   2.760   0.326   8.600  1.4214  2.6969 -3.3948
  384MOL0     H51803   2.934   0.354   8.653 -1.5715  1.8819  0.5003
  384MOL0     H51804   3.353  -0.060   8.519 -1.6205 -0.2075 -0.2096
  384MOL0     H51805   3.596  -0.001   8.536 -1.5503  0.8388 -1.2220
  384MOL0     H51806   3.736   0.275   8.516 -0.5391  3.3986 -0.5400
  384MOL0     H51807   3.709   0.355   8.664  1.1035 -0.7606  2.6053
  384MOL0     H51808   3.967   0.225   8.579  1.3973  2.4067 -0.3339
  384MOL0     H51809   3.932   0.398   8.603 -0.9124  1.2283  1.8621
  384MOL0     H51810   4.062   0.277   8.801 -0.4338 -3.1791 -0.9076
  384MOL0     H51811   3.936   0.160   8.809 -0.0002  0.6518  2.6433
  384MOL0     H51812   3.915   0.447   8.883  0.2409  0.5456  4.2472
  384MOL0     H51813   3.784   0.333   8.895 -0.8845 -0.4654  0.0480
  384MOL0     H51814   4.038   0.271   9.051 -0.1207 -0.7575 -2.3429
  384MOL0     H51815   3.885   0.175   9.037  1.6969 -0.3341  1.5054
  384MOL0     H51816   3.909   0.456   9.139 -0.0062 -0.1723 -2.8857
  384MOL0     H51817   3.757   0.366   9.107 -1.1803 -1.8325  2.1314
  384MOL0     H51818   3.791   0.208   9.283  1.1106 -0.1938  0.3739
  384MOL0     H51819   3.791   0.368   9.348  1.7907  1.6901 -0.1011
  384MOL0     H51820   4.050   0.206   9.302  0.5803  1.6471  0.1791
  384MOL0     H51821   3.986   0.262   9.452 -1.3730 -2.6237 -0.1660
  384MOL0     H51822   3.537   0.225   8.886 -1.3083 -0.0216 -0.2560
  384MOL0     H51823   3.298   0.159   8.878 -3.0681  1.8349 -1.7396
  384MOL0     H51824   3.004  -0.078   8.882  2.6553 -2.4049 -2.6423
  384MOL0     H51825   2.776  -0.179   8.878  0.2002  0.1058  0.3406
  384MOL0     H51826   1.295   0.781   9.242 -1.5791  1.1742 -0.0242
  384MOL0     H51827   1.139   0.803   9.045  0.4441 -1.1335  0.3891
  384MOL0     H51828   0.980   0.705   8.591 -0.3477  1.5962 -0.6702
  384MOL0     H51829   0.806   0.764   8.439  1.6031  0.1829 -0.1026
  384MOL0     H51830   0.507   0.965   8.355  1.0996  1.1441  0.0998
  384MOL0     H51831   0.676   0.944   8.396 -0.7833  1.5491  2.7294
  384MOL0     H51832   0.654   0.693   8.310 -0.1820  1.3115  1.4115
  384MOL0     H51833   0.611   0.810   8.185 -0.5528  1.6718  0.4125
  384MOL0     H51834   0.397   0.751   8.174  2.4384 -1.5533 -1.0277
  384MOL0     H51835   0.386   0.759   8.351  1.6087  2.8208  0.0294
  384MOL0     H51836   0.479   0.527   8.369 -2.2398 -2.9687 -0.6360
  384MOL0     H51837   0.488   0.527   8.190 -0.8931  0.9730 -1.7717
  384MOL0     H51838   0.068   0.450   8.310  0.9275 -2.1319  3.1164
  384MOL0     H51839   0.536   0.839   8.763  0.4165  0.8631  0.4855
  384MOL0     H51840   0.723   0.777   8.922  0.8574 -1.4748  0.9648
  385MOL0     O51841   5.674   8.261   0.070 -0.2677  0.1938  0.2298
  385MOL0     C51842   5.611   8.339   0.138  0.2001  0.6114  0.5535
  385MOL0     O51843   5.624   8.357   0.273 -0.2871  0.7780  0.2280
  385MOL0     C51844   5.711   8.281   0.334  0.6927 -0.3624 -0.0931
  385MOL0     C51845   5.849   8.307   0.312  0.7017  0.6596 -0.3519
  385MOL0     C51846   5.943   8.231   0.374 -0.5106  0.5251  1.1139
  385MOL0     C51847   5.913   8.119   0.446 -0.0727 -0.3350  0.5190
  385MOL0     O51848   6.005   8.041   0.499 -0.3310 -0.0318 -0.5657
  385MOL0     C51849   6.016   7.911   0.433  0.6704  0.3647 -0.2761
  385MOL0     C51850   6.066   7.824   0.543 -0.0178 -0.7334 -1.2755
  385MOL0     C51851   6.219   7.838   0.578  0.9651  0.0795 -0.4181
  385MOL0     C51852   6.270   7.734   0.678 -0.2090 -0.6571 -0.9981
  385MOL0     C51853   6.383   7.791   0.762 -0.1989  1.2629  0.1154
  385MOL0     C51854   6.336   7.893   0.875 -0.9546 -0.4380 -0.5209
  385MOL0     C51855   6.271   7.819   0.999 -0.7231 -0.3895 -0.0574
  385MOL0     C51856   6.225   7.919   1.105 -0.6751 -0.3995 -0.7948
  385MOL0     N51857   6.341   7.983   1.169  0.3995 -0.1187 -1.0899
  385MOL0     C51858   6.405   8.093   1.119 -0.1101 -1.4041 -1.0285
  385MOL0     C51859   6.466   8.154   1.223 -0.0025  0.6043  0.3816
  385MOL0     C51860   6.533   8.283   1.218 -0.1963 -0.4772 -0.3433
  385MOL0     C51861   6.685   8.268   1.228  0.0251 -0.3477 -0.1882
  385MOL0     C51862   6.760   8.310   1.097 -0.2116 -0.6679  0.3594
  385MOL0     C51863   6.746   8.220   0.980 -0.7826  0.0236 -0.0318
  385MOL0     O51864   6.611   8.233   0.925 -0.1054 -0.3807  0.7606
  385MOL0     C51865   6.575   8.173   0.807  1.4939  0.2108  0.1631
  385MOL0     C51866   6.464   8.232   0.757 -0.6590 -0.3356 -0.4190
  385MOL0     C51867   6.420   8.195   0.625  0.4424  0.5305  0.4472
  385MOL0     C51868   6.319   8.296   0.565  0.8283 -0.6106 -0.1749
  385MOL0     C51869   6.477   8.091   0.556 -0.0915  0.3828  0.6200
  385MOL0     C51870   6.441   8.051   0.416 -0.2410  0.2263 -0.5453
  385MOL0     O51871   6.544   8.016   0.328 -0.2086  0.2477  0.7265
  385MOL0     C51872   6.522   7.977   0.194  0.1723 -0.4592  0.1070
  385MOL0     C51873   6.594   8.018   0.081  0.2504  0.0600  0.4390
  385MOL0     C51874   6.575   7.971  -0.050  0.1981 -0.4480  0.9054
  385MOL0     C51875   6.485   7.874  -0.073  0.3183 -0.6917 -0.2399
  385MOL0     O51876   6.467   7.843  -0.209 -0.4061 -0.2815 -0.4141
  385MOL0     C51877   6.386   7.727  -0.229 -0.2121 -0.5230 -0.3085
  385MOL0     C51878   6.383   7.685  -0.376  0.0322 -0.6561 -0.4207
  385MOL0     C51879   6.290   7.558  -0.374 -0.5762  0.7583  0.6729
  385MOL0     C51880   6.257   7.523  -0.523 -0.2413 -0.3158 -0.8999
  385MOL0     C51881   6.150   7.424  -0.525  0.0487 -0.2756  0.1787
  385MOL0     C51882   6.082   7.404  -0.665  0.2893 -0.8233 -0.2802
  385MOL0     C51883   5.929   7.355  -0.653  0.2004  0.6179  0.2197
  385MOL0     C51884   5.868   7.289  -0.777  0.3461 -0.5085 -0.2894
  385MOL0    Cl51885   5.843   7.414  -0.908 -0.0889  0.4682 -0.0165
  385MOL0     C51886   6.411   7.824   0.036 -0.1383  0.5955 -0.0415
  385MOL0     C51887   6.429   7.880   0.167  0.6415  0.3910  0.3072
  385MOL0     O51888   6.320   8.051   0.391 -0.0810 -1.1836 -0.0880
  385MOL0     C51889   6.597   8.043   0.613  1.0646  0.7094  0.7085
  385MOL0     C51890   6.650   8.085   0.733  0.4385  0.2305  0.3893
  385MOL0     N51891   6.448   8.084   1.329 -0.2331  0.6981 -0.2861
  385MOL0     N51892   6.377   7.980   1.303  0.1637  0.5145  0.1413
  385MOL0     C51893   5.781   8.082   0.459  0.4952 -0.6263 -0.3523
  385MOL0     C51894   5.682   8.170   0.412 -0.3399 -0.0458 -0.0384
  385MOL0     C51895   5.509   8.426   0.069  0.4142  0.2743  0.5419
  385MOL0     C51896   5.439   8.522   0.146 -0.4183  1.4513 -0.9168
  385MOL0     C51897   5.365   8.619   0.075  0.5350 -0.3044 -0.5283
  385MOL0     C51898   5.357   8.617  -0.064  0.4527  0.9166  0.7451
  385MOL0     O51899   5.280   8.694  -0.146  0.7020  0.2733 -0.6273
  385MOL0     C51900   5.164   8.758  -0.084  0.5188  0.5002  0.9721
  385MOL0     C51901   5.093   8.834  -0.188 -0.1689  0.8619  0.4568
  385MOL0     C51902   4.957   8.885  -0.126 -0.0580 -1.0822  0.7057
  385MOL0     C51903   4.877   8.961  -0.235  0.3205  0.5858  0.1566
  385MOL0     C51904   4.756   9.024  -0.187  0.3808  0.1516  0.1277
  385MOL0     C51905   4.666   9.088  -0.141 -0.6616 -0.0100  0.2070
  385MOL0     C51906   5.420   8.517  -0.131  0.0638  0.2238 -0.2175
  385MOL0     C51907   5.499   8.420  -0.069 -0.1661 -0.1469 -0.2259
  385MOL0     H51908   5.866   8.389   0.243 -0.2174 -2.4905 -4.7893
  385MOL0     H51909   6.047   8.253   0.355 -0.7965  1.2649  0.3185
  385MOL0     H51910   5.922   7.871   0.395  0.3250  1.7380 -0.9449
  385MOL0     H51911   6.075   7.929   0.343  0.8563  1.9503  0.1168
  385MOL0     H51912   5.997   7.844   0.626 -1.3167  1.5157 -2.7937
  385MOL0     H51913   6.052   7.721   0.510  2.2451 -0.5295 -3.0972
  385MOL0     H51914   6.266   7.826   0.479 -0.1876 -0.7988 -0.8867
  385MOL0     H51915   6.227   7.937   0.623  0.3169  0.2497 -0.6718
  385MOL0     H51916   6.197   7.702   0.752  1.5715  0.3361  1.3136
  385MOL0     H51917   6.309   7.646   0.625 -0.8564 -0.1707 -2.3324
  385MOL0     H51918   6.438   7.711   0.811 -0.3091  0.4656 -1.0292
  385MOL0     H51919   6.456   7.825   0.689 -0.1923 -1.1621 -1.0952
  385MOL0     H51920   6.420   7.953   0.909  0.5554 -2.4347 -0.5511
  385MOL0     H51921   6.261   7.955   0.825 -1.5218  0.5481  1.4356
  385MOL0     H51922   6.189   7.753   0.970 -0.6558 -0.6125  0.2484
  385MOL0     H51923   6.348   7.770   1.060  0.7952  3.0136  0.9915
  385MOL0     H51924   6.163   7.877   1.185 -0.5643  0.6566 -0.1278
  385MOL0     H51925   6.166   7.996   1.053 -0.9570 -0.8265 -1.1112
  385MOL0     H51926   6.370   8.135   1.026  1.4165 -1.1140 -1.4965
  385MOL0     H51927   6.515   8.349   1.133  3.6258 -0.6223 -1.4628
  385MOL0     H51928   6.506   8.344   1.305  1.1488  1.3083 -1.1190
  385MOL0     H51929   6.715   8.172   1.271  1.3583 -0.3451 -1.0746
  385MOL0     H51930   6.722   8.335   1.306  0.4889  1.0003 -1.5173
  385MOL0     H51931   6.867   8.315   1.116 -0.1777  1.0054 -0.1296
  385MOL0     H51932   6.729   8.411   1.070  0.2235 -0.4106  0.8086
  385MOL0     H51933   6.776   8.118   1.007  1.8710  0.8190  0.2574
  385MOL0     H51934   6.823   8.247   0.907  0.2696  2.2970  1.7886
  385MOL0     H51935   6.407   8.308   0.811 -0.1105 -0.7622  0.7940
  385MOL0     H51936   6.352   8.321   0.464 -2.0956  0.7700 -0.8802
  385MOL0     H51937   6.217   8.256   0.568 -0.0523  0.9929 -3.7723
  385MOL0     H51938   6.318   8.393   0.614 -1.8715 -0.3311 -0.6363
  385MOL0     H51939   6.667   8.098   0.094  0.2208  0.5286 -1.8838
  385MOL0     H51940   6.635   8.008  -0.132  0.0517 -0.1665  0.9248
  385MOL0     H51941   6.423   7.647  -0.163 -0.3924 -1.7176 -1.5983
  385MOL0     H51942   6.289   7.762  -0.193 -0.4243 -1.0734 -0.3317
  385MOL0     H51943   6.353   7.769  -0.439  1.7351  0.8676  0.6714
  385MOL0     H51944   6.484   7.648  -0.397  0.2824 -1.0398  1.3218
  385MOL0     H51945   6.197   7.585  -0.324 -2.1154 -0.5244 -1.3395
  385MOL0     H51946   6.339   7.477  -0.319  0.3798  2.0237  1.7507
  385MOL0     H51947   6.225   7.616  -0.571  1.7818  0.2216 -1.3447
  385MOL0     H51948   6.342   7.479  -0.577 -0.8904 -2.9992  0.1154
  385MOL0     H51949   6.071   7.455  -0.455  0.6759  0.5395  0.5342
  385MOL0     H51950   6.191   7.327  -0.493 -0.8014  0.1251  2.7187
  385MOL0     H51951   6.080   7.497  -0.722  3.6902 -0.4859 -0.0610
  385MOL0     H51952   6.143   7.330  -0.717 -1.5306 -2.7008  0.1739
  385MOL0     H51953   5.862   7.440  -0.636  0.5387  1.2415 -1.3890
  385MOL0     H51954   5.922   7.279  -0.575 -2.1362 -2.1709 -2.4874
  385MOL0     H51955   5.777   7.238  -0.744 -0.2096 -0.9914 -2.4544
  385MOL0     H51956   5.935   7.213  -0.817 -0.0800  0.0327 -2.1027
  385MOL0     H51957   6.342   7.741   0.022  0.7711 -0.9978  3.6903
  385MOL0     H51958   6.371   7.839   0.249 -1.7846  0.4977 -1.2329
  385MOL0     H51959   6.632   7.956   0.559 -3.9480  0.2517 -2.4089
  385MOL0     H51960   6.734   8.029   0.773 -2.6039 -2.2522  3.9785
  385MOL0     H51961   5.754   7.998   0.522 -0.3186  1.1720  1.8601
  385MOL0     H51962   5.583   8.140   0.443 -1.8423  1.1155 -3.2979
  385MOL0     H51963   5.455   8.533   0.253  0.4816 -2.4218 -0.4982
  385MOL0     H51964   5.316   8.697   0.133  0.3576 -1.5555  1.0768
  385MOL0     H51965   5.107   8.676  -0.038 -0.4963  0.7550  0.2145
  385MOL0     H51966   5.190   8.831  -0.008  0.1712  4.1715 -2.1553
  385MOL0     H51967   5.082   8.781  -0.283  1.1202  1.3879 -0.0227
  385MOL0     H51968   5.156   8.919  -0.217  1.4018  0.5619  2.6920
  385MOL0     H51969   4.984   8.948  -0.041  2.9057  0.5952 -1.2767
  385MOL0     H51970   4.904   8.797  -0.090  1.4511 -1.5198  2.0010
  385MOL0     H51971   4.851   8.882  -0.306 -0.2843  2.7522 -2.1722
  385MOL0     H51972   4.943   9.024  -0.296 -0.6746 -0.6417 -2.3235
  385MOL0     H51973   4.586   9.139  -0.091 -1.6759  0.9599 -2.2352
  385MOL0     H51974   5.401   8.517  -0.238 -1.6569 -3.9721 -0.0852
  385MOL0     H51975   5.543   8.336  -0.123 -0.8648  0.1709 -1.3318
  386MOL0     O51976   3.909   4.933   2.114  0.0286 -0.1967  0.0045
  386MOL0     C51977   3.966   4.820   2.127 -1.0250 -0.6007  0.1945
  386MOL0     O51978   3.905   4.704   2.155  0.2580 -0.0245 -0.2911
  386MOL0     C51979   3.775   4.718   2.189  0.0930  0.8833  0.3501
  386MOL0     C51980   3.712   4.807   2.286  0.0916  0.4116 -0.0694
  386MOL0     C51981   3.570   4.809   2.287 -1.0428  0.6361  0.0836
  386MOL0     C51982   3.502   4.715   2.220  0.2542  0.5823  1.4604
  386MOL0     O51983   3.370   4.704   2.236  1.2317 -0.7286 -0.4780
  386MOL0     C51984   3.296   4.776   2.135 -0.9616 -0.3492  0.1930
  386MOL0     C51985   3.140   4.762   2.146  0.3785  0.4971 -0.1753
  386MOL0     C51986   3.080   4.625   2.170  0.1637 -0.4586 -0.2767
  386MOL0     C51987   3.133   4.520   2.064 -0.0465 -0.3016 -0.1715
  386MOL0     C51988   3.071   4.383   2.083 -0.0488 -0.6290 -0.3158
  386MOL0     C51989   3.094   4.284   1.969  0.9200  0.5524  0.5251
  386MOL0     C51990   3.028   4.152   1.993 -0.1899  0.0025 -0.6661
  386MOL0     C51991   3.075   4.057   1.884  0.5366 -0.3535 -0.1563
  386MOL0     N51992   2.969   3.963   1.844  0.8763  0.3814  0.2649
  386MOL0     C51993   2.919   3.875   1.926 -0.1865  0.6126  0.1817
  386MOL0     C51994   2.797   3.836   1.869 -0.4674  0.2320 -0.1213
  386MOL0     C51995   2.695   3.737   1.946 -0.1689  0.0278 -0.6832
  386MOL0     C51996   2.570   3.696   1.871 -0.3900  0.5672 -1.0263
  386MOL0     C51997   2.455   3.634   1.962 -0.0194 -1.0997 -0.9295
  386MOL0     C51998   2.509   3.517   2.048  0.3102  0.2059 -0.1469
  386MOL0     O51999   2.397   3.453   2.108  0.0074 -0.5444 -0.0778
  386MOL0     C52000   2.403   3.353   2.199 -0.7436 -0.3112 -0.6345
  386MOL0     C52001   2.512   3.267   2.217 -0.1763  0.4981 -0.0368
  386MOL0     C52002   2.515   3.152   2.303  0.2260 -0.2255 -0.1541
  386MOL0     C52003   2.637   3.061   2.295  0.3055 -0.1436  0.3632
  386MOL0     C52004   2.411   3.147   2.391  0.2887 -0.0772 -0.7837
  386MOL0     C52005   2.411   3.043   2.501  0.4787  0.1700 -0.2040
  386MOL0     O52006   2.513   3.034   2.601  0.0482 -0.5342  0.5103
  386MOL0     C52007   2.487   2.968   2.714 -0.6712  0.0695  1.3305
  386MOL0     C52008   2.441   2.835   2.722  0.4402 -0.3673  0.2988
  386MOL0     C52009   2.420   2.780   2.846 -0.7968 -0.7231  0.1748
  386MOL0     C52010   2.448   2.852   2.970 -0.7968 -0.2831 -0.7932
  386MOL0     O52011   2.430   2.817   3.099  0.0240  0.4286 -0.3902
  386MOL0     C52012   2.301   2.747   3.128  0.3186 -0.9621 -0.1990
  386MOL0     C52013   2.326   2.654   3.248 -0.0099 -0.0002 -1.0323
  386MOL0     C52014   2.361   2.517   3.208 -1.0648  1.4671 -0.5119
  386MOL0     C52015   2.381   2.432   3.335 -0.0516  0.0122  0.1503
  386MOL0     C52016   2.424   2.287   3.298 -0.3668  0.3451  0.6553
  386MOL0     C52017   2.377   2.183   3.413 -0.0456 -0.2648 -0.6737
  386MOL0     C52018   2.425   2.232   3.549 -0.0317 -0.3630  0.3196
  386MOL0     C52019   2.374   2.143   3.657  0.1555  0.2841 -0.3383
  386MOL0    Cl52020   2.442   2.207   3.811 -0.3759  0.1282 -0.0856
  386MOL0     C52021   2.488   2.989   2.950 -0.0307  0.8821 -0.5309
  386MOL0     C52022   2.506   3.043   2.826 -0.3931 -0.4736 -0.4848
  386MOL0     O52023   2.301   2.981   2.503 -0.1264 -0.4557 -0.1405
  386MOL0     C52024   2.304   3.240   2.393  0.4084  0.0729  0.4608
  386MOL0     C52025   2.304   3.346   2.299 -0.0013  0.4323  0.3518
  386MOL0     N52026   2.780   3.900   1.747 -0.3020 -0.5196  0.6211
  386MOL0     N52027   2.883   3.978   1.738 -0.1448 -0.1243 -0.6894
  386MOL0     C52028   3.561   4.619   2.130  0.0039  0.7336 -0.0932
  386MOL0     C52029   3.699   4.630   2.109 -0.7643  0.3958  0.1841
  386MOL0     C52030   4.113   4.815   2.098 -0.2783 -0.2296 -0.1558
  386MOL0     C52031   4.191   4.712   2.152 -0.3256  0.0400 -0.7026
  386MOL0     C52032   4.330   4.701   2.122 -0.7735 -0.5444  0.1108
  386MOL0     C52033   4.386   4.800   2.038  0.0176 -0.2765 -0.1650
  386MOL0     O52034   4.519   4.798   2.003  0.6104  0.8652  0.2047
  386MOL0     C52035   4.616   4.769   2.098  0.4078  0.6663  0.1221
  386MOL0     C52036   4.759   4.823   2.054  0.5177 -0.5450 -0.1260
  386MOL0     C52037   4.866   4.764   2.145 -0.2198 -0.1920 -0.0637
  386MOL0     C52038   5.010   4.793   2.105  0.0904  0.2064  0.1774
  386MOL0     C52039   5.049   4.761   1.966  0.5750  0.0130 -0.6026
  386MOL0     C52040   5.067   4.740   1.850 -0.5017 -0.6819  0.3504
  386MOL0     C52041   4.310   4.900   1.983 -0.7592 -0.7516  0.7053
  386MOL0     C52042   4.174   4.907   2.007  0.3508 -0.4544 -0.5441
  386MOL0     H52043   3.770   4.867   2.356  1.3314 -0.2978 -0.4562
  386MOL0     H52044   3.512   4.877   2.349 -2.6432  2.0684 -2.8141
  386MOL0     H52045   3.322   4.882   2.144  4.3852 -1.3573  0.1817
  386MOL0     H52046   3.345   4.745   2.042  1.9481  0.3195  1.4061
  386MOL0     H52047   3.099   4.832   2.219 -2.0477  2.4724 -3.1563
  386MOL0     H52048   3.091   4.792   2.053 -1.0964  2.1909  1.0846
  386MOL0     H52049   3.105   4.597   2.272  1.7641  3.0401  0.4628
  386MOL0     H52050   2.971   4.625   2.158  0.1026 -1.0122  0.2538
  386MOL0     H52051   3.117   4.558   1.963  1.5051 -0.6508 -0.5740
  386MOL0     H52052   3.239   4.504   2.086 -0.3231 -1.7196  0.2126
  386MOL0     H52053   3.104   4.333   2.174  0.6312 -0.4951 -0.4843
  386MOL0     H52054   2.961   4.383   2.084 -0.0619 -1.0819 -1.0706
  386MOL0     H52055   3.073   4.335   1.874  3.8372  0.4636 -0.2820
  386MOL0     H52056   3.202   4.268   1.976  0.6691 -0.5931  2.8035
  386MOL0     H52057   3.060   4.111   2.089 -2.1793  2.4545  1.2053
  386MOL0     H52058   2.921   4.167   2.010 -0.0874 -0.1645  0.1546
  386MOL0     H52059   3.165   4.011   1.925  1.3575  2.1846  1.1345
  386MOL0     H52060   3.115   4.118   1.803 -0.0846  0.4121  0.0987
  386MOL0     H52061   2.955   3.842   2.023  0.5826 -1.1325 -0.6348
  386MOL0     H52062   2.751   3.651   1.985  0.1475  0.5831  0.1123
  386MOL0     H52063   2.662   3.795   2.032  3.9382  0.1507  1.0245
  386MOL0     H52064   2.585   3.635   1.782  0.2274 -0.6465 -0.1150
  386MOL0     H52065   2.533   3.786   1.823 -0.1274  0.9797 -0.4757
  386MOL0     H52066   2.382   3.598   1.889 -0.6282 -0.4301 -0.6568
  386MOL0     H52067   2.401   3.718   2.006  3.2327  0.2120  0.9007
  386MOL0     H52068   2.564   3.560   2.133 -2.0230 -0.9221  2.0348
  386MOL0     H52069   2.584   3.459   1.993  2.0710  3.5875 -1.6529
  386MOL0     H52070   2.595   3.284   2.149 -0.6085 -1.2763 -1.0707
  386MOL0     H52071   2.703   3.070   2.208  2.7791 -1.9020  1.9336
  386MOL0     H52072   2.703   3.093   2.376 -0.9812  1.6383  0.7780
  386MOL0     H52073   2.616   2.954   2.288  0.0124 -0.0104 -1.2092
  386MOL0     H52074   2.426   2.786   2.626  0.0704  2.5774 -1.2407
  386MOL0     H52075   2.386   2.677   2.847 -0.9635 -0.6675  0.2289
  386MOL0     H52076   2.226   2.822   3.156 -0.0592 -2.4374  3.2814
  386MOL0     H52077   2.265   2.691   3.041  0.9948  2.4041 -2.8663
  386MOL0     H52078   2.395   2.687   3.326 -0.9812 -2.9900  1.2759
  386MOL0     H52079   2.233   2.650   3.305 -0.1875 -0.6367 -1.3631
  386MOL0     H52080   2.453   2.527   3.150 -0.2703  2.7152  0.8844
  386MOL0     H52081   2.273   2.488   3.150 -0.9673 -1.1943  0.5497
  386MOL0     H52082   2.468   2.470   3.388  0.0219  2.5802 -1.6106
  386MOL0     H52083   2.290   2.438   3.395 -0.3310 -4.6571  0.5501
  386MOL0     H52084   2.531   2.277   3.277  0.4254  0.4470  4.0417
  386MOL0     H52085   2.364   2.267   3.208 -3.4965  2.0235  2.1931
  386MOL0     H52086   2.268   2.181   3.411 -0.0609  0.4408 -0.6244
  386MOL0     H52087   2.417   2.082   3.398  0.7279  0.0652 -0.8610
  386MOL0     H52088   2.417   2.337   3.578 -0.1803  0.1092 -1.3370
  386MOL0     H52089   2.534   2.221   3.553  0.1536  1.6180  1.5685
  386MOL0     H52090   2.393   2.037   3.634  1.8293  0.1687  1.3432
  386MOL0     H52091   2.266   2.158   3.659  0.0771 -0.1502  1.9226
  386MOL0     H52092   2.504   3.040   3.045 -2.5217 -0.1634  0.5641
  386MOL0     H52093   2.525   3.150   2.823 -2.0216  0.0216  2.4730
  386MOL0     H52094   2.221   3.237   2.463  0.7019  0.8130  0.8571
  386MOL0     H52095   2.228   3.423   2.308  0.3439  1.0404 -1.4788
  386MOL0     H52096   3.504   4.539   2.083 -1.5597  1.1815  0.9583
  386MOL0     H52097   3.748   4.582   2.025  0.3922  0.2220  0.9384
  386MOL0     H52098   4.148   4.640   2.220  2.9175 -1.6353 -0.2210
  386MOL0     H52099   4.396   4.625   2.164 -1.4948 -0.2935  1.7860
  386MOL0     H52100   4.596   4.820   2.192 -0.0049 -0.1832  0.4978
  386MOL0     H52101   4.621   4.660   2.107  1.0449  0.7370  0.7034
  386MOL0     H52102   4.775   4.931   2.059  3.9191 -0.9910  1.9201
  386MOL0     H52103   4.766   4.798   1.948 -1.1385 -1.5178 -0.0423
  386MOL0     H52104   4.851   4.657   2.156  3.0541 -0.6272  1.5147
  386MOL0     H52105   4.862   4.810   2.244  0.5816  0.6004 -0.3836
  386MOL0     H52106   5.073   4.739   2.177 -1.8656 -0.0797  1.7563
  386MOL0     H52107   5.035   4.900   2.111 -1.2087  0.6477 -1.4122
  386MOL0     H52108   5.103   4.706   1.755 -3.7855 -1.9313 -0.5841
  386MOL0     H52109   4.359   4.963   1.909  1.3616  0.8032  3.2369
  386MOL0     H52110   4.096   4.975   1.972 -0.3523 -0.2352  1.3170
  387MOL0     O52111   8.057   0.996   9.339 -0.4862 -0.9864 -0.1404
  387MOL0     C52112   8.104   0.893   9.301  0.5806 -0.3665 -0.1574
  387MOL0     O52113   8.037   0.780   9.253  0.1695 -0.1640  1.0441
  387MOL0     C52114   7.913   0.762   9.299 -0.1305 -0.5040  0.0530
  387MOL0     C52115   7.876   0.766   9.432  0.3521 -0.0678 -0.5317
  387MOL0     C52116   7.747   0.742   9.470  0.8422 -0.2966  0.1021
  387MOL0     C52117   7.652   0.724   9.380 -0.4863  0.5599 -0.1176
  387MOL0     O52118   7.524   0.682   9.420 -0.4562  0.0225 -0.4767
  387MOL0     C52119   7.427   0.773   9.381  0.8011  0.0984  0.1958
  387MOL0     C52120   7.283   0.752   9.440  0.6197  0.1087  0.3973
  387MOL0     C52121   7.153   0.784   9.359  0.2294 -0.7920  0.7537
  387MOL0     C52122   7.144   0.717   9.221  0.2352 -0.1181 -0.5687
  387MOL0     C52123   7.013   0.724   9.156 -0.4014  0.3832  1.2259
  387MOL0     C52124   6.938   0.863   9.160  0.1943  0.7281  0.9328
  387MOL0     C52125   7.004   0.964   9.063  0.0780  0.1120  0.0382
  387MOL0     C52126   6.947   0.952   8.924 -0.1447 -0.2725 -0.2361
  387MOL0     N52127   6.802   0.976   8.917  0.6826  0.7262 -0.4364
  387MOL0     C52128   6.744   1.075   8.980 -0.3139  0.8936 -0.3937
  387MOL0     C52129   6.611   1.059   8.941 -0.2162 -0.0852 -0.5482
  387MOL0     C52130   6.480   1.141   8.966 -0.7549 -0.1499  0.0169
  387MOL0     C52131   6.470   1.251   8.859 -0.2298 -0.9566 -0.3966
  387MOL0     C52132   6.541   1.384   8.913 -0.3081  0.6856 -0.8272
  387MOL0     C52133   6.470   1.505   8.848  0.4469 -0.5229  0.5543
  387MOL0     O52134   6.341   1.516   8.898 -0.8880 -0.2455 -0.5218
  387MOL0     C52135   6.268   1.631   8.860  0.2228 -0.2863 -0.1933
  387MOL0     C52136   6.314   1.737   8.782 -0.3951 -0.1055 -0.0988
  387MOL0     C52137   6.224   1.840   8.751 -0.6394 -0.7351  0.0127
  387MOL0     C52138   6.288   1.953   8.669 -0.7761  0.1818 -0.6361
  387MOL0     C52139   6.088   1.841   8.786  0.5960  0.1484 -0.3179
  387MOL0     C52140   5.982   1.939   8.747 -0.7352  0.0399 -0.8007
  387MOL0     O52141   5.855   1.902   8.760  0.2526 -0.2610 -0.6050
  387MOL0     C52142   5.751   1.990   8.743 -0.0242 -0.0434 -0.0895
  387MOL0     C52143   5.749   2.072   8.631  0.8073  0.3324  0.5689
  387MOL0     C52144   5.639   2.159   8.611 -0.2205  0.2989  0.3969
  387MOL0     C52145   5.530   2.140   8.683  0.7078 -1.5229 -0.3124
  387MOL0     O52146   5.409   2.205   8.670  0.2693  0.9380  0.4087
  387MOL0     C52147   5.385   2.298   8.567 -0.7692  0.6939  0.2496
  387MOL0     C52148   5.249   2.357   8.601  0.6388 -0.1993  0.1102
  387MOL0     C52149   5.237   2.446   8.725 -0.1442 -0.0540  1.0640
  387MOL0     C52150   5.102   2.518   8.716 -0.1336 -0.1847  0.2057
  387MOL0     C52151   5.050   2.578   8.842  0.1622 -0.6310 -0.5585
  387MOL0     C52152   5.149   2.691   8.905  0.2958  0.4892  1.0149
  387MOL0     C52153   5.106   2.732   9.049  0.0391  0.3911  0.3592
  387MOL0     C52154   5.217   2.823   9.106  0.4101  0.7525 -0.4650
  387MOL0    Cl52155   5.206   2.840   9.293 -0.0818 -0.7348 -0.0464
  387MOL0     C52156   5.538   2.068   8.801  0.3298  0.8215  0.3184
  387MOL0     C52157   5.643   1.985   8.829 -0.1411  0.9514  0.1397
  387MOL0     O52158   6.018   2.056   8.727 -0.1190 -0.0212 -0.3950
  387MOL0     C52159   6.042   1.728   8.866  0.5201  0.4858 -0.1237
  387MOL0     C52160   6.129   1.634   8.913 -0.6576  0.7837  0.2393
  387MOL0     N52161   6.599   0.953   8.852  0.3630  0.0481 -0.0122
  387MOL0     N52162   6.714   0.910   8.833 -0.0473 -0.1715 -1.1179
  387MOL0     C52163   7.686   0.734   9.242 -0.8663  0.0460  0.1209
  387MOL0     C52164   7.814   0.743   9.199  0.2363 -0.5406 -0.6120
  387MOL0     C52165   8.251   0.875   9.307 -0.0458  0.4443  0.0636
  387MOL0     C52166   8.328   0.984   9.343  0.3234  0.3374  0.9260
  387MOL0     C52167   8.468   0.977   9.359  0.2302 -0.5698  0.8972
  387MOL0     C52168   8.538   0.855   9.335 -0.8085 -0.0640  0.1157
  387MOL0     O52169   8.678   0.855   9.365  0.1784  0.4862  0.5814
  387MOL0     C52170   8.728   0.755   9.458 -0.7393 -0.6254 -0.7046
  387MOL0     C52171   8.870   0.779   9.495 -0.1040 -1.0391  1.3758
  387MOL0     C52172   8.886   0.929   9.503 -0.1165 -0.3839  0.0814
  387MOL0     C52173   9.033   0.976   9.552  0.0961  0.6539  0.2160
  387MOL0     C52174   9.146   0.929   9.466 -0.4630 -0.1522 -0.0353
  387MOL0     C52175   9.235   0.879   9.400  0.5887 -0.3362  0.1242
  387MOL0     C52176   8.459   0.758   9.278 -0.3752  0.0491 -1.1137
  387MOL0     C52177   8.328   0.763   9.265 -0.2189 -0.1826  0.0733
  387MOL0     H52178   7.945   0.788   9.512  0.5781 -2.1520 -0.1023
  387MOL0     H52179   7.727   0.733   9.576  3.3040  3.3418  1.0756
  387MOL0     H52180   7.467   0.871   9.408  0.6735  0.3073 -0.3594
  387MOL0     H52181   7.402   0.765   9.275 -0.0563 -3.2421  0.5278
  387MOL0     H52182   7.272   0.645   9.462 -0.4361 -0.0654 -0.8450
  387MOL0     H52183   7.277   0.801   9.538  1.7970 -2.1174  1.6589
  387MOL0     H52184   7.073   0.754   9.427  0.1128  0.7356  1.3261
  387MOL0     H52185   7.141   0.892   9.355  1.2384 -0.6544  1.1385
  387MOL0     H52186   7.219   0.754   9.151  0.1296  1.3841  0.0614
  387MOL0     H52187   7.176   0.614   9.241 -0.1449 -0.2530 -0.6654
  387MOL0     H52188   7.036   0.696   9.053 -0.1784 -0.8862  1.6041
  387MOL0     H52189   6.947   0.646   9.194  0.6901 -0.9565  0.4771
  387MOL0     H52190   6.834   0.847   9.131  0.3233  1.2486  0.1351
  387MOL0     H52191   6.931   0.897   9.264  0.8173  0.7881  0.9564
  387MOL0     H52192   6.981   1.067   9.092  0.5427  0.2156  0.0436
  387MOL0     H52193   7.113   0.960   9.066  0.1113 -1.0165 -1.3614
  387MOL0     H52194   6.969   0.853   8.885 -1.5043 -1.2326  1.2933
  387MOL0     H52195   6.989   1.036   8.867 -0.0470  1.0617  1.6975
  387MOL0     H52196   6.797   1.150   9.038  2.4460 -0.1572 -1.3463
  387MOL0     H52197   6.390   1.078   8.972 -3.1479  3.1212  0.8966
  387MOL0     H52198   6.487   1.192   9.062 -4.8203  0.6157  0.1013
  387MOL0     H52199   6.362   1.271   8.857  0.2000  1.9022  0.6619
  387MOL0     H52200   6.521   1.231   8.764  1.0342  1.8267 -0.4015
  387MOL0     H52201   6.644   1.384   8.877  0.1660 -0.4533  0.4707
  387MOL0     H52202   6.548   1.384   9.022  2.7659 -1.1129 -0.9243
  387MOL0     H52203   6.472   1.497   8.739 -0.5037  0.2742  0.4697
  387MOL0     H52204   6.520   1.599   8.872 -1.2697  1.8096 -3.9118
  387MOL0     H52205   6.420   1.735   8.762  0.4639  1.0023  3.5296
  387MOL0     H52206   6.234   1.956   8.574  0.0954  0.8498 -1.1203
  387MOL0     H52207   6.275   2.045   8.728 -1.8887  1.2820 -2.5011
  387MOL0     H52208   6.392   1.927   8.651 -0.6049 -0.3004  0.8922
  387MOL0     H52209   5.830   2.072   8.559 -0.3591 -0.4415 -0.7858
  387MOL0     H52210   5.631   2.225   8.526 -1.4152  1.6623  1.5172
  387MOL0     H52211   5.470   2.367   8.562 -0.3047  0.1998  1.0734
  387MOL0     H52212   5.382   2.248   8.470  1.8221  1.4642 -0.3179
  387MOL0     H52213   5.204   2.406   8.515  1.0042 -1.6833 -0.9634
  387MOL0     H52214   5.191   2.266   8.618  0.2248  0.3990  2.1379
  387MOL0     H52215   5.323   2.514   8.722  0.1100 -0.3928  0.5276
  387MOL0     H52216   5.254   2.390   8.818 -0.8313  1.1959  1.9632
  387MOL0     H52217   5.127   2.604   8.653  0.4488 -2.0531 -2.2350
  387MOL0     H52218   5.025   2.453   8.675  0.3940 -1.6657  1.4469
  387MOL0     H52219   5.040   2.499   8.917 -0.2240 -0.7769 -0.7631
  387MOL0     H52220   4.948   2.612   8.824  0.6078  0.3372 -1.3525
  387MOL0     H52221   5.250   2.651   8.915 -0.7145 -3.1261 -1.3778
  387MOL0     H52222   5.156   2.779   8.840  2.1359 -1.6743 -2.0164
  387MOL0     H52223   5.091   2.639   9.104  2.0550 -0.8431 -1.0297
  387MOL0     H52224   5.008   2.781   9.045 -0.2026  0.0546 -5.0023
  387MOL0     H52225   5.211   2.921   9.058  1.0669  0.6217 -0.8170
  387MOL0     H52226   5.312   2.774   9.085 -0.5709 -1.2203 -0.5164
  387MOL0     H52227   5.442   2.069   8.852  1.0966 -0.1073  1.8326
  387MOL0     H52228   5.639   1.912   8.909 -1.7652  0.9883  0.1174
  387MOL0     H52229   5.937   1.731   8.892  0.1258 -1.1329 -1.3770
  387MOL0     H52230   6.099   1.572   8.996 -0.5669  1.2673  0.6356
  387MOL0     H52231   7.611   0.706   9.168  2.3098 -0.8887 -2.9907
  387MOL0     H52232   7.849   0.757   9.097  2.1416  2.5726  0.3339
  387MOL0     H52233   8.288   1.084   9.358  1.4528  0.6178  2.2483
  387MOL0     H52234   8.519   1.061   9.406  0.9841 -0.2475 -0.4608
  387MOL0     H52235   8.680   0.768   9.555  2.8569 -0.5264  1.2222
  387MOL0     H52236   8.711   0.657   9.412 -1.9619 -0.4001 -0.7744
  387MOL0     H52237   8.935   0.733   9.419  0.1930 -2.4671  2.4475
  387MOL0     H52238   8.871   0.736   9.596 -3.0372  1.5800  2.6855
  387MOL0     H52239   8.814   0.987   9.561 -3.4611 -0.4920 -3.5158
  387MOL0     H52240   8.867   0.963   9.400 -0.7383 -2.6223 -0.5962
  387MOL0     H52241   9.049   0.966   9.659  1.0284  0.7779  0.0945
  387MOL0     H52242   9.038   1.085   9.540  3.8466  0.4354 -2.0632
  387MOL0     H52243   9.306   0.833   9.335 -2.5904 -2.4858 -2.1165
  387MOL0     H52244   8.504   0.665   9.244 -0.9414 -1.1253  1.1292
  387MOL0     H52245   8.277   0.680   9.217 -1.2448  0.8489 -0.6675
  388MOL0     O52246   9.878   2.988   5.054  0.1166  0.2182 -0.7542
  388MOL0     C52247   9.927   2.934   4.959 -0.4662 -0.6787  0.1572
  388MOL0     O52248  10.055   2.878   4.957 -0.2125  0.0076 -0.0646
  388MOL0     C52249  10.133   2.924   5.064 -0.3722  0.0351  0.2579
  388MOL0     C52250  10.253   2.986   5.045 -0.3854  0.0485  0.5848
  388MOL0     C52251  10.347   3.008   5.150 -0.2894 -0.9643  0.7260
  388MOL0     C52252  10.315   2.976   5.283  0.2793  0.0161  0.7602
  388MOL0     O52253  10.395   3.020   5.381  0.1168 -0.0961  0.3113
  388MOL0     C52254  10.331   3.107   5.479 -0.1066 -0.0251 -0.0121
  388MOL0     C52255  10.423   3.185   5.570 -0.1533 -0.4028 -0.2507
  388MOL0     C52256  10.360   3.292   5.645  1.1654 -0.4155  0.4723
  388MOL0     C52257  10.290   3.405   5.557 -0.3633 -0.1843 -0.8949
  388MOL0     C52258  10.261   3.523   5.643 -0.4756  1.0445 -0.7201
  388MOL0     C52259  10.183   3.628   5.553 -0.0400  0.2981  0.1723
  388MOL0     C52260  10.135   3.739   5.641 -0.2405  0.2011  0.5404
  388MOL0     C52261  10.248   3.836   5.667  0.1128  0.1606  0.1689
  388MOL0     N52262  10.198   3.960   5.728  0.3054  0.2621  0.0667
  388MOL0     C52263  10.232   4.074   5.680 -0.1471 -0.4713  0.1287
  388MOL0     C52264  10.161   4.172   5.737 -0.5553 -0.8835 -0.0473
  388MOL0     C52265  10.183   4.322   5.706 -1.6715  0.2092 -0.5157
  388MOL0     C52266  10.166   4.404   5.835 -0.9550  0.6156  0.9868
  388MOL0     C52267  10.189   4.553   5.807 -0.3994  0.5151  0.1449
  388MOL0     C52268  10.199   4.639   5.927 -0.0103 -0.4608  0.0356
  388MOL0     O52269  10.238   4.764   5.889  0.5526 -0.5696 -0.3635
  388MOL0     C52270  10.271   4.856   5.987 -0.3771  0.8628 -0.1386
  388MOL0     C52271  10.306   4.985   5.944  0.0217  0.4868  0.9944
  388MOL0     C52272  10.336   5.094   6.033  0.0578 -0.2234 -0.7638
  388MOL0     C52273  10.383   5.230   5.972 -0.1618 -0.2233  0.4488
  388MOL0     C52274  10.336   5.070   6.174 -0.1546 -0.5397  0.5169
  388MOL0     C52275  10.360   5.168   6.283 -0.2215 -0.2390 -0.1788
  388MOL0     O52276  10.346   5.118   6.418  0.4750 -0.6312  0.0512
  388MOL0     C52277  10.360   5.202   6.524 -0.3236 -0.2574 -1.1706
  388MOL0     C52278  10.298   5.173   6.649  0.9559  0.8553 -0.8386
  388MOL0     C52279  10.317   5.248   6.767 -0.1410  0.0921  0.1456
  388MOL0     C52280  10.384   5.368   6.752 -0.4320 -0.4292 -0.8861
  388MOL0     O52281  10.376   5.444   6.868 -0.0816 -0.0985 -0.1088
  388MOL0     C52282  10.455   5.557   6.871  0.2484 -0.4765  0.4994
  388MOL0     C52283  10.485   5.613   7.011  0.4038  0.5422 -0.7279
  388MOL0     C52284  10.545   5.502   7.102  0.1962  0.5145 -1.2008
  388MOL0     C52285  10.536   5.539   7.248  0.0336  0.0036 -0.0249
  388MOL0     C52286  10.576   5.431   7.343 -0.4927  1.2052 -0.6016
  388MOL0     C52287  10.571   5.491   7.483 -0.3930  0.6137 -0.1106
  388MOL0     C52288  10.437   5.478   7.548  0.6050  0.4118 -0.1095
  388MOL0     C52289  10.421   5.543   7.684 -0.6310  0.5246 -0.6054
  388MOL0    Cl52290  10.303   5.466   7.779 -0.2821 -0.4050  0.4752
  388MOL0     C52291  10.444   5.404   6.633 -0.0624  0.0201  1.2711
  388MOL0     C52292  10.442   5.318   6.524  0.6061  0.3859 -0.2745
  388MOL0     O52293  10.362   5.284   6.246  0.1699  0.3756  0.4557
  388MOL0     C52294  10.296   4.936   6.215 -1.3766 -0.6082  0.7369
  388MOL0     C52295  10.261   4.838   6.129 -0.5971 -0.4682  0.4713
  388MOL0     N52296  10.075   4.115   5.828  0.2993  0.7097 -0.9539
  388MOL0     N52297  10.094   3.978   5.821  0.4297 -0.2174 -0.7598
  388MOL0     C52298  10.192   2.912   5.303  1.0536  0.5845  0.0684
  388MOL0     C52299  10.104   2.884   5.198  0.0478  0.0309 -0.7785
  388MOL0     C52300   9.840   2.928   4.838 -1.3950 -0.0039  0.1893
  388MOL0     C52301   9.891   2.890   4.709  0.8663 -0.3322 -0.2447
  388MOL0     C52302   9.821   2.925   4.591 -0.0635 -1.2464  0.7918
  388MOL0     C52303   9.687   2.976   4.599 -0.9408  1.1681  0.0180
  388MOL0     O52304   9.606   3.015   4.494  0.3128 -0.8038  0.1831
  388MOL0     C52305   9.635   2.994   4.364  0.5136 -0.1665 -0.2777
  388MOL0     C52306   9.761   3.081   4.318  0.5581 -0.0043 -0.5100
  388MOL0     C52307   9.814   3.021   4.177  0.0848  0.2830  0.7171
  388MOL0     C52308   9.935   2.926   4.187  0.7113  0.3173 -0.4115
  388MOL0     C52309  10.036   2.984   4.281 -0.7511  0.1289 -0.0174
  388MOL0     C52310  10.107   3.025   4.375 -0.8808 -0.3689 -0.4586
  388MOL0     C52311   9.637   3.005   4.721  0.6468 -0.2549  0.5154
  388MOL0     C52312   9.710   2.979   4.837  0.9091  0.8661 -0.3268
  388MOL0     H52313  10.291   3.012   4.947 -1.1096  3.7183  1.1519
  388MOL0     H52314  10.451   3.026   5.124  0.1489 -4.1491 -0.1340
  388MOL0     H52315  10.260   3.169   5.424 -0.4829  1.4825  2.0936
  388MOL0     H52316  10.268   3.045   5.543 -0.9493 -1.2051 -1.8840
  388MOL0     H52317  10.465   3.114   5.642 -0.1394  1.2730  1.4804
  388MOL0     H52318  10.504   3.237   5.519 -0.8668  0.4133 -0.5723
  388MOL0     H52319  10.287   3.248   5.713 -2.5047  1.8234 -1.6923
  388MOL0     H52320  10.434   3.335   5.714 -3.0115  1.6707  4.1064
  388MOL0     H52321  10.341   3.427   5.463 -0.9563 -0.8628 -1.3896
  388MOL0     H52322  10.192   3.365   5.528 -0.4927 -1.1311  0.7206
  388MOL0     H52323  10.207   3.482   5.728  0.9072  0.0561 -0.2784
  388MOL0     H52324  10.356   3.559   5.683 -0.9108 -0.5185  1.9406
  388MOL0     H52325  10.243   3.670   5.472  2.8200 -0.9468  1.5041
  388MOL0     H52326  10.096   3.579   5.508  1.1963 -0.9809 -0.9189
  388MOL0     H52327  10.056   3.791   5.587  2.3033  0.9637 -2.7847
  388MOL0     H52328  10.095   3.703   5.737 -1.2158  1.5808  0.6879
  388MOL0     H52329  10.312   3.852   5.579  0.5795  2.1349  0.8129
  388MOL0     H52330  10.317   3.799   5.744  0.6875  1.1548  0.1583
  388MOL0     H52331  10.309   4.088   5.605 -0.7260 -3.6156 -1.1835
  388MOL0     H52332  10.286   4.337   5.673 -1.1497 -1.8618  0.0603
  388MOL0     H52333  10.120   4.356   5.624 -0.2623  0.6340 -1.4637
  388MOL0     H52334  10.230   4.351   5.906 -1.2840  0.2619  1.0194
  388MOL0     H52335  10.060   4.389   5.858 -0.9053  0.3698  1.0580
  388MOL0     H52336  10.107   4.588   5.744 -0.4236 -2.8342 -1.9116
  388MOL0     H52337  10.283   4.562   5.753  0.6448 -0.0451  1.7830
  388MOL0     H52338  10.262   4.592   6.003 -0.8998 -1.4053  0.2193
  388MOL0     H52339  10.102   4.639   5.979 -0.6597 -0.7890 -1.1292
  388MOL0     H52340  10.308   4.998   5.836 -0.3546  0.2087  0.9516
  388MOL0     H52341  10.341   5.325   6.007 -1.8134 -0.6661 -0.2279
  388MOL0     H52342  10.493   5.231   5.968 -0.0991 -1.9268  0.8833
  388MOL0     H52343  10.348   5.209   5.871  0.6595  2.0818 -0.3726
  388MOL0     H52344  10.244   5.082   6.675 -1.1715  1.7940 -1.7474
  388MOL0     H52345  10.272   5.215   6.860  1.7867 -0.1110  1.0622
  388MOL0     H52346  10.553   5.516   6.844 -0.0706 -0.9144 -0.0079
  388MOL0     H52347  10.422   5.636   6.803  2.0525 -1.6817 -1.9498
  388MOL0     H52348  10.565   5.688   7.007  2.8870 -1.5260  3.4281
  388MOL0     H52349  10.387   5.644   7.047  0.1101 -1.0668 -0.0549
  388MOL0     H52350  10.650   5.490   7.073  1.0524 -0.9280  1.9960
  388MOL0     H52351  10.495   5.406   7.085  2.8414 -1.3019  0.4167
  388MOL0     H52352  10.592   5.633   7.254 -1.7300  1.0825  0.1398
  388MOL0     H52353  10.431   5.555   7.271  0.0503  1.2920 -0.7557
  388MOL0     H52354  10.684   5.420   7.330 -0.1701  2.7530  0.4050
  388MOL0     H52355  10.524   5.335   7.348 -0.0330  0.9827  0.2461
  388MOL0     H52356  10.642   5.444   7.551 -0.7250 -2.6541 -1.8530
  388MOL0     H52357  10.588   5.598   7.499 -0.9358  0.5231  1.1744
  388MOL0     H52358  10.418   5.372   7.570  0.1182  0.7862  1.4637
  388MOL0     H52359  10.361   5.525   7.485  0.2000  2.2647  1.6363
  388MOL0     H52360  10.404   5.649   7.665  0.4991  0.8635  0.1657
  388MOL0     H52361  10.502   5.526   7.755 -1.8776 -0.0717  0.7299
  388MOL0     H52362  10.485   5.504   6.622  0.4404 -0.2117  1.0007
  388MOL0     H52363  10.501   5.345   6.437 -0.6298 -1.4680 -1.7578
  388MOL0     H52364  10.292   4.919   6.322  3.6731  0.6719  1.3769
  388MOL0     H52365  10.225   4.749   6.180  3.0819 -2.0312  0.7038
  388MOL0     H52366  10.171   2.897   5.409  0.9293  2.3564  0.3197
  388MOL0     H52367  10.008   2.838   5.217  0.4359 -0.4649  0.0075
  388MOL0     H52368   9.992   2.852   4.709 -0.3822 -4.0437 -0.0670
  388MOL0     H52369   9.869   2.910   4.495 -1.2719  0.8269 -0.2290
  388MOL0     H52370   9.646   2.887   4.347 -1.1721 -0.2509 -1.0050
  388MOL0     H52371   9.555   3.016   4.293  0.6276 -0.3924 -0.4742
  388MOL0     H52372   9.837   3.072   4.396 -0.4825  0.2945  0.5718
  388MOL0     H52373   9.733   3.186   4.307 -1.9924 -0.7835 -2.5389
  388MOL0     H52374   9.850   3.105   4.117 -0.8292  0.1506 -0.0339
  388MOL0     H52375   9.731   2.967   4.130 -0.4863 -0.0694  2.0546
  388MOL0     H52376   9.980   2.917   4.088  0.7536  0.8532 -0.4404
  388MOL0     H52377   9.881   2.840   4.228 -1.3696  0.9875 -1.5961
  388MOL0     H52378  10.174   3.070   4.445 -2.1949  1.8414 -0.5141
  388MOL0     H52379   9.540   3.055   4.721  1.0650  0.6409 -1.5396
  388MOL0     H52380   9.658   3.005   4.928  0.0754  1.9961 -1.0921
  389MOL0     O52381   1.615   8.127   2.040 -0.0899 -0.5983 -0.2713
  389MOL0     C52382   1.508   8.128   2.102 -0.7105  0.1769  0.2269
  389MOL0     O52383   1.418   8.028   2.104  0.3634  0.0679 -0.1897
  389MOL0     C52384   1.463   7.909   2.064  0.1314  0.5483 -0.3834
  389MOL0     C52385   1.578   7.853   2.128 -0.5127  0.5366 -0.3558
  389MOL0     C52386   1.633   7.733   2.073 -0.2405 -0.3989 -0.7347
  389MOL0     C52387   1.569   7.657   1.983 -0.2645  1.0711  0.0342
  389MOL0     O52388   1.617   7.539   1.939 -0.5886 -0.7389  0.4623
  389MOL0     C52389   1.698   7.459   2.022 -0.1787  0.9411 -1.1387
  389MOL0     C52390   1.654   7.439   2.170  0.2210  0.3506 -0.3317
  389MOL0     C52391   1.509   7.372   2.191  0.2059  0.2911 -1.3770
  389MOL0     C52392   1.444   7.391   2.338 -0.3625  0.0004 -0.0185
  389MOL0     C52393   1.292   7.389   2.356 -0.8983  0.8446  0.8397
  389MOL0     C52394   1.218   7.274   2.277  0.0264  0.3927 -0.0218
  389MOL0     C52395   1.252   7.140   2.332  0.5052  1.5281  0.3055
  389MOL0     C52396   1.151   7.090   2.436 -0.6292 -0.5454  0.0222
  389MOL0     N52397   1.169   6.947   2.463  0.5859 -0.9100 -0.6512
  389MOL0     C52398   1.233   6.897   2.573 -0.4643 -0.2164  0.3262
  389MOL0     C52399   1.252   6.765   2.545  0.6213 -1.1726  0.1839
  389MOL0     C52400   1.307   6.658   2.633  0.0159 -0.6746  0.6623
  389MOL0     C52401   1.440   6.615   2.583 -1.2615 -0.3234  0.2021
  389MOL0     C52402   1.553   6.710   2.639 -0.3535  0.3747 -0.3061
  389MOL0     C52403   1.696   6.670   2.625 -0.1826 -0.5224 -0.8704
  389MOL0     O52404   1.737   6.639   2.493  0.1075 -0.7312  0.4640
  389MOL0     C52405   1.868   6.635   2.456 -0.0763  0.5016  0.4385
  389MOL0     C52406   1.973   6.613   2.538  0.0764 -0.9317 -1.4214
  389MOL0     C52407   2.104   6.627   2.491 -0.8195  0.5497 -0.8172
  389MOL0     C52408   2.206   6.573   2.588  0.7533 -0.1219 -0.5549
  389MOL0     C52409   2.127   6.653   2.347 -0.7518 -0.1092 -1.0580
  389MOL0     C52410   2.267   6.668   2.297 -0.8355  0.6578 -0.1793
  389MOL0     O52411   2.346   6.748   2.377 -0.2550 -0.1990  0.0276
  389MOL0     C52412   2.467   6.800   2.336  0.0329  0.4768  0.4352
  389MOL0     C52413   2.485   6.880   2.220  0.3714 -0.3019  0.4606
  389MOL0     C52414   2.614   6.942   2.199 -0.0500 -0.2961  0.4420
  389MOL0     C52415   2.722   6.922   2.288  0.4436  0.3193 -0.0405
  389MOL0     O52416   2.844   6.969   2.257 -0.2985 -0.7101  0.1435
  389MOL0     C52417   2.963   6.901   2.308 -0.1132 -0.3422 -1.3926
  389MOL0     C52418   2.969   6.749   2.260  0.3033  0.0474 -0.4227
  389MOL0     C52419   2.966   6.740   2.099 -0.4947  0.7487 -1.1664
  389MOL0     C52420   3.034   6.614   2.048  0.5245 -0.6171 -0.2519
  389MOL0     C52421   3.060   6.635   1.905  0.0486 -0.2475 -0.2339
  389MOL0     C52422   3.129   6.523   1.840  0.6086 -0.0879 -0.2226
  389MOL0     C52423   3.260   6.483   1.918 -0.0141 -0.5848  0.4551
  389MOL0     C52424   3.360   6.600   1.926 -0.5992  1.0880  0.0232
  389MOL0    Cl52425   3.386   6.692   1.768  0.1711 -0.4159 -0.3470
  389MOL0     C52426   2.694   6.853   2.405  0.1790  0.9598 -0.2039
  389MOL0     C52427   2.566   6.794   2.425 -0.4332  0.1135  0.3473
  389MOL0     O52428   2.308   6.608   2.198  0.1487  0.6760  0.3691
  389MOL0     C52429   2.017   6.654   2.259 -0.3544  0.2797 -0.5073
  389MOL0     C52430   1.890   6.651   2.315  0.3702  0.2622 -0.1805
  389MOL0     N52431   1.195   6.746   2.419 -0.3718  0.0147  0.0985
  389MOL0     N52432   1.141   6.851   2.372  0.3204  0.5815  0.3987
  389MOL0     C52433   1.444   7.705   1.929 -0.0047 -1.1541 -0.9780
  389MOL0     C52434   1.395   7.835   1.966  0.1316  0.2517 -1.0757
  389MOL0     C52435   1.466   8.249   2.171 -0.4133 -0.4204  0.4017
  389MOL0     C52436   1.521   8.287   2.295 -0.2436 -0.5226 -0.1652
  389MOL0     C52437   1.478   8.408   2.355 -0.5204  0.1064 -0.4602
  389MOL0     C52438   1.364   8.470   2.311  0.0955  0.7469 -0.6117
  389MOL0     O52439   1.333   8.578   2.386  0.1652 -0.4111  0.2539
  389MOL0     C52440   1.318   8.692   2.305 -0.3168 -0.2806 -0.3381
  389MOL0     C52441   1.176   8.738   2.277 -0.2489 -0.8060 -0.2186
  389MOL0     C52442   1.171   8.879   2.196 -0.1785  0.1949  0.6257
  389MOL0     C52443   1.187   9.000   2.293  0.4402  0.8457 -0.2559
  389MOL0     C52444   1.112   9.117   2.249  0.9170 -0.0428 -0.0334
  389MOL0     C52445   1.046   9.194   2.183 -0.2642  0.2106 -0.5941
  389MOL0     C52446   1.292   8.416   2.205  1.1792 -0.3650 -0.4443
  389MOL0     C52447   1.343   8.305   2.135  0.3448  0.1992 -0.5580
  389MOL0     H52448   1.630   7.912   2.203 -0.2463  0.5824 -0.5743
  389MOL0     H52449   1.724   7.698   2.122 -0.8013 -1.4842 -0.4250
  389MOL0     H52450   1.680   7.367   1.967 -0.4594 -0.1067  0.6274
  389MOL0     H52451   1.802   7.494   2.017  1.2890 -2.6118  0.6163
  389MOL0     H52452   1.718   7.364   2.217 -1.3370 -0.5100  0.4821
  389MOL0     H52453   1.662   7.526   2.235  0.5073  1.0783 -1.3104
  389MOL0     H52454   1.448   7.423   2.116 -0.7886 -1.1340 -1.5783
  389MOL0     H52455   1.510   7.265   2.168 -1.2248 -0.2840  0.9371
  389MOL0     H52456   1.499   7.315   2.394  2.5747 -0.4724 -3.1356
  389MOL0     H52457   1.472   7.484   2.387 -1.9689  0.0667  0.8216
  389MOL0     H52458   1.252   7.365   2.455 -1.8352  0.4153  0.3700
  389MOL0     H52459   1.264   7.487   2.318 -0.0136  0.0278 -2.1622
  389MOL0     H52460   1.112   7.295   2.292  0.6368  1.2480  4.5855
  389MOL0     H52461   1.242   7.275   2.170 -3.5857 -0.2492 -0.9725
  389MOL0     H52462   1.258   7.060   2.257  3.8832  0.2798  1.7394
  389MOL0     H52463   1.359   7.145   2.355  0.8076 -1.8906  0.1352
  389MOL0     H52464   1.050   7.125   2.416 -0.0895  1.5177  0.6461
  389MOL0     H52465   1.179   7.142   2.528  0.2449  1.6798 -1.4073
  389MOL0     H52466   1.257   6.956   2.660 -3.4991  2.7775 -0.6512
  389MOL0     H52467   1.321   6.693   2.736  0.1007 -1.8902  1.0820
  389MOL0     H52468   1.240   6.572   2.633 -0.9681  0.0346 -1.3447
  389MOL0     H52469   1.432   6.610   2.474 -2.1261 -0.4364  0.2596
  389MOL0     H52470   1.451   6.510   2.612 -3.0212 -0.3166  1.0349
  389MOL0     H52471   1.546   6.713   2.748  0.8366 -0.8601 -0.1727
  389MOL0     H52472   1.538   6.805   2.587 -1.7789 -0.2478 -1.0833
  389MOL0     H52473   1.728   6.583   2.682  1.7053 -0.9293 -2.4433
  389MOL0     H52474   1.766   6.745   2.661  0.8501 -2.7960  2.2371
  389MOL0     H52475   1.958   6.583   2.641  0.8750  1.4680 -0.5294
  389MOL0     H52476   2.168   6.518   2.675 -0.6315  1.6136 -0.0059
  389MOL0     H52477   2.278   6.515   2.528  1.7262  1.3409 -0.8490
  389MOL0     H52478   2.253   6.660   2.635  0.4848 -1.0397  1.5327
  389MOL0     H52479   2.415   6.886   2.137  2.2985  1.4060 -1.1401
  389MOL0     H52480   2.615   6.983   2.098 -0.4472 -1.2641  0.0359
  389MOL0     H52481   3.052   6.955   2.274  0.3149  0.1262  0.3669
  389MOL0     H52482   2.968   6.913   2.416  1.2268  3.4435 -1.7261
  389MOL0     H52483   3.057   6.701   2.305 -0.3751  1.7557  3.0267
  389MOL0     H52484   2.876   6.699   2.287 -0.7353  1.8934 -0.4749
  389MOL0     H52485   3.012   6.828   2.053  2.5835  0.4018  0.9548
  389MOL0     H52486   2.861   6.736   2.069 -0.8131  0.8734 -0.1080
  389MOL0     H52487   3.121   6.595   2.110  0.6390  2.0579  0.5481
  389MOL0     H52488   2.970   6.528   2.069  0.6290 -0.3769  1.1022
  389MOL0     H52489   3.122   6.724   1.889  0.6883 -0.7779 -0.7990
  389MOL0     H52490   2.969   6.653   1.848  1.3212  0.6156 -2.1020
  389MOL0     H52491   3.053   6.446   1.822  1.5089 -1.1523  0.3838
  389MOL0     H52492   3.149   6.575   1.746 -1.7944  1.2016 -0.1101
  389MOL0     H52493   3.309   6.402   1.864  0.0982 -0.6180  0.6078
  389MOL0     H52494   3.239   6.445   2.018 -2.8521  2.3091  1.1572
  389MOL0     H52495   3.458   6.567   1.962 -0.8055  0.1293 -0.2749
  389MOL0     H52496   3.307   6.658   2.002 -1.4948 -1.6304  1.5961
  389MOL0     H52497   2.773   6.846   2.478 -0.1954  1.7204  0.2830
  389MOL0     H52498   2.543   6.732   2.511  1.0271  1.0987  1.4903
  389MOL0     H52499   2.040   6.678   2.156  3.3139  0.1783  0.1540
  389MOL0     H52500   1.813   6.650   2.237  0.5561 -3.4465 -0.4938
  389MOL0     H52501   1.394   7.643   1.855 -1.9345 -1.8197  0.7822
  389MOL0     H52502   1.311   7.885   1.919  1.4372 -0.0613 -4.0260
  389MOL0     H52503   1.606   8.237   2.341  0.7222  1.3876  0.2372
  389MOL0     H52504   1.513   8.446   2.451  0.9769 -0.4865 -0.7325
  389MOL0     H52505   1.348   8.773   2.372 -2.9047 -1.5780  2.5842
  389MOL0     H52506   1.374   8.695   2.211 -1.3395  1.5660 -0.9608
  389MOL0     H52507   1.131   8.748   2.376  1.8289 -1.1894  0.8239
  389MOL0     H52508   1.113   8.666   2.223 -1.5359  0.1509 -0.0423
  389MOL0     H52509   1.073   8.869   2.149 -0.1938 -0.8867  0.8685
  389MOL0     H52510   1.251   8.892   2.122  1.2256 -1.4014  1.7750
  389MOL0     H52511   1.293   9.022   2.300  0.5341  0.0299  1.1229
  389MOL0     H52512   1.161   8.978   2.397 -3.1938  1.6161 -0.8437
  389MOL0     H52513   0.988   9.260   2.121 -0.8202  1.3238  1.0409
  389MOL0     H52514   1.208   8.468   2.160  0.1008 -2.2797 -0.7749
  389MOL0     H52515   1.304   8.278   2.037  3.5454 -2.9389 -1.2010
  390MOL0     O52516   9.284   3.613   6.797 -1.1692 -0.2656  0.2027
  390MOL0     C52517   9.283   3.515   6.869 -0.2590 -0.8317 -1.3409
  390MOL0     O52518   9.357   3.403   6.852 -0.0851  0.1849 -0.5359
  390MOL0     C52519   9.414   3.387   6.727 -0.9576 -0.5630 -0.3871
  390MOL0     C52520   9.346   3.331   6.614  0.3226 -0.7323 -0.5144
  390MOL0     C52521   9.410   3.300   6.497  0.0774  0.6855  0.3187
  390MOL0     C52522   9.551   3.305   6.492 -0.7679 -0.5596  0.4131
  390MOL0     O52523   9.611   3.262   6.382  0.1439 -0.0069 -0.3464
  390MOL0     C52524   9.588   3.126   6.335 -0.1961 -0.8245 -0.1669
  390MOL0     C52525   9.574   3.107   6.182 -0.1467  0.6273  0.6518
  390MOL0     C52526   9.445   3.156   6.117 -0.3070  0.5412 -0.0195
  390MOL0     C52527   9.473   3.206   5.977 -0.9588 -0.5711  0.1976
  390MOL0     C52528   9.362   3.222   5.875  0.2375 -0.0054 -0.1684
  390MOL0     C52529   9.420   3.273   5.746  0.5156 -0.8591  0.3769
  390MOL0     C52530   9.299   3.313   5.650  1.0783  0.9273  0.4773
  390MOL0     C52531   9.258   3.197   5.545  0.2978  0.3453  0.2160
  390MOL0     N52532   9.354   3.158   5.438  0.1247 -0.5040  0.3098
  390MOL0     C52533   9.448   3.234   5.386 -0.4082  0.9355 -0.1245
  390MOL0     C52534   9.504   3.151   5.292 -0.3065 -0.1593  0.6494
  390MOL0     C52535   9.620   3.193   5.214  0.3606  0.3885  0.2160
  390MOL0     C52536   9.597   3.324   5.129  0.0919 -0.4442 -0.6242
  390MOL0     C52537   9.468   3.308   5.048  1.2812  0.3973  0.2198
  390MOL0     C52538   9.443   3.415   4.959 -1.2291 -1.5438  0.7492
  390MOL0     O52539   9.422   3.539   5.042 -0.7164  0.0777 -0.3169
  390MOL0     C52540   9.347   3.640   4.994  0.8532  0.2625  0.4969
  390MOL0     C52541   9.300   3.724   5.091  0.5154 -0.7737 -0.4945
  390MOL0     C52542   9.199   3.829   5.064 -0.4058  1.0523  0.1323
  390MOL0     C52543   9.133   3.893   5.181  0.3674 -0.0271 -0.1442
  390MOL0     C52544   9.174   3.845   4.917 -0.1893 -0.0170 -1.1335
  390MOL0     C52545   9.086   3.957   4.861 -0.7176 -0.3682  1.2241
  390MOL0     O52546   8.974   3.987   4.936 -0.5119  0.7286 -0.1599
  390MOL0     C52547   8.890   4.083   4.896  0.4161 -0.3575 -0.0292
  390MOL0     C52548   8.815   4.133   4.999  1.7212  0.1846 -0.7449
  390MOL0     C52549   8.737   4.246   4.972  0.3921  0.2913  0.1690
  390MOL0     C52550   8.717   4.310   4.848 -0.9321  0.7791  0.5820
  390MOL0     O52551   8.642   4.417   4.824  0.1772 -1.0337 -0.0955
  390MOL0     C52552   8.555   4.388   4.718 -0.1417  0.4404 -0.2878
  390MOL0     C52553   8.435   4.475   4.735 -0.6149  0.7627  0.4460
  390MOL0     C52554   8.474   4.623   4.719 -0.0630 -0.1622 -0.1027
  390MOL0     C52555   8.352   4.721   4.712 -0.2910 -0.4146  0.1018
  390MOL0     C52556   8.412   4.877   4.717  0.2970 -0.7113 -1.0130
  390MOL0     C52557   8.472   4.904   4.862 -0.1211  0.4685 -0.5627
  390MOL0     C52558   8.497   5.048   4.889 -0.5248 -0.5957  0.4710
  390MOL0     C52559   8.438   5.104   5.017 -1.1583  0.6554 -0.7559
  390MOL0    Cl52560   8.259   5.104   5.039  0.3895 -0.4294 -0.1292
  390MOL0     C52561   8.795   4.264   4.753 -0.9534  1.0298  0.7142
  390MOL0     C52562   8.879   4.149   4.772 -0.0957  0.4509  0.5420
  390MOL0     O52563   9.097   3.987   4.747 -0.7767 -0.6186  0.1199
  390MOL0     C52564   9.230   3.761   4.821  0.3699 -0.0293 -0.4847
  390MOL0     C52565   9.313   3.659   4.853  0.3955  0.4168 -0.6486
  390MOL0     N52566   9.455   3.020   5.301 -0.0809 -0.8298  0.4925
  390MOL0     N52567   9.352   3.039   5.374  0.5412 -0.0152 -0.2423
  390MOL0     C52568   9.621   3.343   6.605  0.1548 -0.7615  0.9805
  390MOL0     C52569   9.558   3.385   6.722  0.0065  0.5668 -0.0624
  390MOL0     C52570   9.217   3.538   7.001  0.0262  0.1969  0.1943
  390MOL0     C52571   9.228   3.436   7.101 -0.3470  0.3399 -0.2915
  390MOL0     C52572   9.172   3.453   7.226  0.3339 -0.4123  0.7349
  390MOL0     C52573   9.114   3.578   7.260  0.4082  0.5988  0.1126
  390MOL0     O52574   9.063   3.598   7.381  1.0775 -0.1313 -0.0822
  390MOL0     C52575   9.064   3.492   7.487  0.5460 -0.0184  0.2074
  390MOL0     C52576   9.056   3.561   7.626 -0.1133 -0.2274 -0.2372
  390MOL0     C52577   8.945   3.664   7.643 -0.8666 -0.3131 -0.4286
  390MOL0     C52578   8.933   3.708   7.791  0.3865  0.2268 -0.2316
  390MOL0     C52579   8.873   3.604   7.873 -0.5851  0.9340 -0.3526
  390MOL0     C52580   8.844   3.499   7.934 -0.0977 -0.0089  0.1421
  390MOL0     C52581   9.097   3.677   7.170  0.5211 -0.3292  0.1560
  390MOL0     C52582   9.151   3.663   7.036  0.2421 -0.3415 -0.2840
  390MOL0     H52583   9.239   3.340   6.629  0.4503  1.1456 -0.4966
  390MOL0     H52584   9.346   3.270   6.415  3.0298 -0.1997 -1.7932
  390MOL0     H52585   9.667   3.063   6.376 -1.3000 -0.6982  2.3375
  390MOL0     H52586   9.503   3.068   6.374  0.7520 -2.9536 -1.0686
  390MOL0     H52587   9.666   3.153   6.146  1.7144 -3.9204 -1.2501
  390MOL0     H52588   9.581   3.003   6.148 -1.0812  0.6627  0.3234
  390MOL0     H52589   9.366   3.081   6.113 -0.7278  0.7174  2.7963
  390MOL0     H52590   9.421   3.247   6.173  1.8177  1.4009 -0.4048
  390MOL0     H52591   9.532   3.298   5.980 -1.7198 -0.0401 -0.7571
  390MOL0     H52592   9.543   3.129   5.943 -0.5375 -0.9501  1.8351
  390MOL0     H52593   9.313   3.126   5.855  0.9945 -0.3932 -0.2074
  390MOL0     H52594   9.290   3.296   5.912  0.4602  1.0565 -1.8005
  390MOL0     H52595   9.465   3.370   5.767  0.3837  0.2260 -3.5748
  390MOL0     H52596   9.496   3.205   5.708  1.4187 -2.1465  4.0784
  390MOL0     H52597   9.208   3.342   5.703 -0.3394  1.0277 -1.8506
  390MOL0     H52598   9.319   3.401   5.587  2.2674  0.8609  0.7345
  390MOL0     H52599   9.164   3.223   5.496  1.2143 -0.3192 -1.9968
  390MOL0     H52600   9.245   3.107   5.606  0.9810  2.6155  4.0362
  390MOL0     H52601   9.468   3.338   5.409  2.7765  0.7030 -1.2754
  390MOL0     H52602   9.701   3.216   5.284  1.0556 -0.2658 -0.3553
  390MOL0     H52603   9.645   3.116   5.140 -0.3829  1.3304 -1.0565
  390MOL0     H52604   9.681   3.345   5.062  0.3267 -0.1447 -0.2456
  390MOL0     H52605   9.600   3.409   5.198  1.7424 -2.3776  1.8748
  390MOL0     H52606   9.375   3.307   5.106  0.3339 -2.7668 -1.1232
  390MOL0     H52607   9.475   3.215   4.991  0.9340  0.1938  0.5068
  390MOL0     H52608   9.359   3.398   4.890  1.0054 -1.2309 -2.2930
  390MOL0     H52609   9.521   3.420   4.882 -1.1855 -0.4734  0.8488
  390MOL0     H52610   9.322   3.710   5.196 -0.3751  2.8777  0.3444
  390MOL0     H52611   9.126   4.002   5.172  0.7485 -0.0075 -0.2198
  390MOL0     H52612   9.034   3.850   5.198 -0.2503  1.1978 -0.4969
  390MOL0     H52613   9.186   3.875   5.275 -1.9778  1.8581  1.6777
  390MOL0     H52614   8.814   4.081   5.095  1.2304 -3.3042 -2.4773
  390MOL0     H52615   8.690   4.288   5.060 -3.3564  0.2270 -1.6063
  390MOL0     H52616   8.586   4.404   4.614 -1.2921 -2.4482 -1.1918
  390MOL0     H52617   8.529   4.282   4.718  0.8286  0.1947 -0.6695
  390MOL0     H52618   8.371   4.442   4.652 -2.2448  0.3365  1.8067
  390MOL0     H52619   8.376   4.454   4.825  0.2173 -0.2766  0.7595
  390MOL0     H52620   8.520   4.633   4.621  2.8529 -2.1603  0.9207
  390MOL0     H52621   8.545   4.655   4.797  2.4426  4.1932 -3.6660
  390MOL0     H52622   8.298   4.721   4.617 -1.6895 -1.3461  0.8589
  390MOL0     H52623   8.275   4.696   4.786 -1.5037  1.5505 -0.4324
  390MOL0     H52624   8.320   4.937   4.721  0.3776 -0.6121 -0.5884
  390MOL0     H52625   8.486   4.890   4.638  2.4888 -0.4703  0.9623
  390MOL0     H52626   8.406   4.864   4.939  1.3067  0.9290  0.9639
  390MOL0     H52627   8.567   4.853   4.881 -0.9058 -1.2516 -1.1527
  390MOL0     H52628   8.457   5.112   4.810  3.6465  0.4231 -1.0730
  390MOL0     H52629   8.605   5.065   4.887 -0.7946  2.1483 -3.5668
  390MOL0     H52630   8.480   5.204   5.030 -1.6705  0.6812  0.9347
  390MOL0     H52631   8.480   5.039   5.094  1.2776  2.1758 -0.6913
  390MOL0     H52632   8.809   4.317   4.660  0.7425 -1.5279 -0.6114
  390MOL0     H52633   8.920   4.121   4.676  1.6493  0.8762  1.1125
  390MOL0     H52634   9.197   3.774   4.719  1.8173 -1.9655 -1.2658
  390MOL0     H52635   9.345   3.590   4.775  0.8183 -0.9910  0.7047
  390MOL0     H52636   9.729   3.347   6.600  0.2853 -2.6741  1.7089
  390MOL0     H52637   9.617   3.424   6.804 -0.5319  2.3684 -0.4839
  390MOL0     H52638   9.289   3.347   7.084  1.8043  1.2635  1.9231
  390MOL0     H52639   9.196   3.375   7.298  1.7102 -0.8700 -0.1764
  390MOL0     H52640   8.975   3.431   7.470  1.3290 -2.2202  3.2550
  390MOL0     H52641   9.148   3.422   7.491 -1.6003 -2.7735  0.2342
  390MOL0     H52642   9.145   3.612   7.662  0.4997 -0.5518 -1.2730
  390MOL0     H52643   9.028   3.475   7.688 -1.7023 -0.0496 -0.6576
  390MOL0     H52644   8.857   3.614   7.603  0.7030 -1.3652 -2.7794
  390MOL0     H52645   8.968   3.749   7.577 -0.5738 -0.3632 -0.3924
  390MOL0     H52646   8.855   3.784   7.784  0.0657 -0.1584 -0.9973
  390MOL0     H52647   9.023   3.754   7.833 -1.7905  2.5439  2.1954
  390MOL0     H52648   8.793   3.410   7.966  0.3710 -1.0181 -1.7385
  390MOL0     H52649   9.057   3.773   7.201  0.3740 -0.1136 -0.6697
  390MOL0     H52650   9.137   3.745   6.967 -1.4270  2.6046  3.2036
  391MOL0     O52651   1.892   9.104   8.141 -0.0522 -0.7039 -0.2663
  391MOL0     C52652   1.858   9.191   8.217  0.1083 -0.1815  0.7111
  391MOL0     O52653   1.873   9.324   8.192  0.0897 -0.5550  0.3718
  391MOL0     C52654   1.956   9.374   8.094 -1.0927 -0.1629 -0.5610
  391MOL0     C52655   2.049   9.474   8.144  0.1210  0.0098  1.1481
  391MOL0     C52656   2.136   9.534   8.055  0.8600 -0.5062 -0.1392
  391MOL0     C52657   2.124   9.517   7.916  0.0735  0.4094 -1.2245
  391MOL0     O52658   2.215   9.589   7.842 -0.2751 -0.5366 -0.7740
  391MOL0     C52659   2.267   9.537   7.719  0.5542  0.0583  0.0243
  391MOL0     C52660   2.418   9.510   7.758 -0.7167 -0.2023  0.1146
  391MOL0     C52661   2.486   9.412   7.648 -0.0976 -0.0410 -0.1832
  391MOL0     C52662   2.634   9.362   7.691 -0.5641  0.4997  0.0721
  391MOL0     C52663   2.621   9.263   7.799  0.2028 -0.4457  0.1052
  391MOL0     C52664   2.757   9.209   7.839 -0.9089  1.0440  0.2805
  391MOL0     C52665   2.737   9.116   7.958  0.3512  0.0972  0.7037
  391MOL0     C52666   2.862   9.032   7.976 -0.3238 -0.4859  0.1948
  391MOL0     N52667   2.979   9.113   7.977  1.1511 -0.3702 -0.0487
  391MOL0     C52668   3.008   9.185   8.097 -0.8075 -0.0707  0.6997
  391MOL0     C52669   3.134   9.235   8.091 -0.7533 -0.0221  0.8340
  391MOL0     C52670   3.206   9.329   8.176  0.0008  0.1282  0.0458
  391MOL0     C52671   3.154   9.333   8.321  0.3993  0.1958  0.2077
  391MOL0     C52672   3.145   9.199   8.398 -0.1096  0.8179 -0.3352
  391MOL0     C52673   3.285   9.147   8.446  0.3012  0.6595  0.6931
  391MOL0     O52674   3.370   9.113   8.338 -0.1111  0.5781 -0.0996
  391MOL0     C52675   3.500   9.074   8.374 -0.7224 -0.6431  0.8620
  391MOL0     C52676   3.574   9.071   8.258 -0.6160  0.3618 -0.6268
  391MOL0     C52677   3.709   9.039   8.270 -0.1676 -0.0670 -0.1496
  391MOL0     C52678   3.796   8.999   8.149  0.6799 -0.3479 -0.4821
  391MOL0     C52679   3.772   9.017   8.396 -0.1674 -0.4799 -0.2576
  391MOL0     C52680   3.915   9.002   8.418 -0.3608 -0.2189 -0.0725
  391MOL0     O52681   4.004   9.103   8.379  0.3002  0.3192  0.5993
  391MOL0     C52682   4.139   9.069   8.389 -1.3738  0.0098 -1.0368
  391MOL0     C52683   4.204   8.967   8.315  0.5868 -0.7263  0.1058
  391MOL0     C52684   4.334   8.928   8.352 -0.0540 -1.6232  0.5956
  391MOL0     C52685   4.412   9.000   8.440  0.2937 -0.2052 -0.6058
  391MOL0     O52686   4.545   8.958   8.467  0.2703 -0.4292  0.3579
  391MOL0     C52687   4.628   9.042   8.554  0.5762  0.1051 -0.5587
  391MOL0     C52688   4.772   9.008   8.590  0.7232  0.4154 -0.4947
  391MOL0     C52689   4.785   8.865   8.632 -0.0747 -0.5240  0.0153
  391MOL0     C52690   4.932   8.852   8.660  0.4500 -0.1502 -0.2554
  391MOL0     C52691   4.961   8.714   8.723  0.0663  0.0411 -0.3446
  391MOL0     C52692   4.896   8.685   8.863 -0.6590  0.5628 -0.2211
  391MOL0     C52693   4.926   8.545   8.919 -0.9291 -0.8271  0.0098
  391MOL0     C52694   4.907   8.530   9.066  0.1270  0.3535 -0.2402
  391MOL0    Cl52695   4.969   8.380   9.116  0.2619 -0.0378 -0.2019
  391MOL0     C52696   4.347   9.111   8.506 -1.4714  0.1530  0.4549
  391MOL0     C52697   4.214   9.141   8.487  0.5265  0.2624  0.3071
  391MOL0     O52698   3.946   8.890   8.441 -0.0382  0.6533 -0.7577
  391MOL0     C52699   3.691   9.013   8.518 -0.9798 -0.2205 -0.0643
  391MOL0     C52700   3.555   9.043   8.504  0.0300  0.1765 -0.2082
  391MOL0     N52701   3.178   9.185   7.966 -0.0479 -0.0549  0.1288
  391MOL0     N52702   3.090   9.121   7.898  0.3951 -0.3718  0.4862
  391MOL0     C52703   2.005   9.449   7.871  0.0361  1.2537  0.8071
  391MOL0     C52704   1.929   9.366   7.955  2.0205  0.2332  0.5067
  391MOL0     C52705   1.778   9.149   8.333 -0.2989  0.9890  0.7040
  391MOL0     C52706   1.764   9.013   8.370 -0.1053  0.4196  0.5517
  391MOL0     C52707   1.700   8.974   8.484  0.1177  0.2692  1.2207
  391MOL0     C52708   1.640   9.075   8.569 -0.1013 -0.9092  0.4643
  391MOL0     O52709   1.557   9.054   8.669 -0.4602  0.8833 -0.2441
  391MOL0     C52710   1.618   8.961   8.765 -0.1141  0.0765  0.6030
  391MOL0     C52711   1.509   8.886   8.844  0.2847  0.6196 -0.0159
  391MOL0     C52712   1.563   8.810   8.969 -0.3275  0.1391 -0.5585
  391MOL0     C52713   1.458   8.774   9.074 -0.6731 -0.3955 -0.3934
  391MOL0     C52714   1.525   8.693   9.178  0.5670  0.2188  0.5309
  391MOL0     C52715   1.580   8.611   9.249 -0.3111 -0.3400  0.7171
  391MOL0     C52716   1.652   9.211   8.527 -0.2662  1.0404  0.1017
  391MOL0     C52717   1.713   9.245   8.405  0.0509  0.7190 -0.6021
  391MOL0     H52718   2.059   9.489   8.251  1.9212  2.9332  0.6941
  391MOL0     H52719   2.205   9.612   8.084 -2.7665  1.8878  3.0016
  391MOL0     H52720   2.222   9.439   7.698  2.4657 -0.5718 -1.3700
  391MOL0     H52721   2.255   9.603   7.633 -2.1704 -0.5934 -0.1992
  391MOL0     H52722   2.473   9.604   7.762  0.1984 -0.3847 -3.8325
  391MOL0     H52723   2.429   9.460   7.855 -2.0400 -1.4307 -0.3333
  391MOL0     H52724   2.422   9.324   7.640 -0.0691  0.0074 -1.0435
  391MOL0     H52725   2.480   9.461   7.551 -2.4479 -2.7211 -1.5317
  391MOL0     H52726   2.689   9.310   7.612  0.8051 -1.3885  2.1524
  391MOL0     H52727   2.693   9.448   7.722 -0.1097 -0.3194  1.6022
  391MOL0     H52728   2.588   9.325   7.883  2.0095  1.2908 -0.3895
  391MOL0     H52729   2.544   9.191   7.770  0.0626  0.1159 -0.9773
  391MOL0     H52730   2.802   9.163   7.751  1.4320  3.7122 -0.0826
  391MOL0     H52731   2.824   9.294   7.856  1.5804 -1.2153  2.8607
  391MOL0     H52732   2.725   9.188   8.040  2.2796  1.2306  0.0701
  391MOL0     H52733   2.645   9.057   7.960  0.0555  0.5753  1.5395
  391MOL0     H52734   2.863   8.956   7.897 -1.4217 -2.3691  1.9196
  391MOL0     H52735   2.858   8.988   8.076  3.0433 -1.2444  0.1222
  391MOL0     H52736   2.947   9.199   8.186 -2.2126 -1.7395  0.0681
  391MOL0     H52737   3.311   9.301   8.180 -0.2807 -0.9769 -0.0190
  391MOL0     H52738   3.192   9.426   8.128 -0.9080 -1.1933 -2.5099
  391MOL0     H52739   3.051   9.370   8.317 -0.1898 -1.4147 -0.2969
  391MOL0     H52740   3.221   9.397   8.379 -0.5858  1.4526 -0.0005
  391MOL0     H52741   3.095   9.127   8.332  2.1618 -3.4317  2.1208
  391MOL0     H52742   3.086   9.202   8.490 -0.0496 -3.9585  0.1068
  391MOL0     H52743   3.268   9.059   8.508  3.8557 -0.2277  0.5935
  391MOL0     H52744   3.343   9.228   8.490 -0.7407  1.2006  1.1146
  391MOL0     H52745   3.516   9.073   8.166 -1.3527 -1.6600 -0.2667
  391MOL0     H52746   3.740   9.023   8.059  0.3783 -0.5601 -0.3500
  391MOL0     H52747   3.890   9.055   8.141 -1.1034  2.8573 -0.5146
  391MOL0     H52748   3.807   8.891   8.163  4.2732 -0.0613 -0.1029
  391MOL0     H52749   4.143   8.912   8.244  0.8215 -0.4214 -0.3388
  391MOL0     H52750   4.382   8.847   8.298  0.5513 -1.0353  0.2313
  391MOL0     H52751   4.635   9.140   8.505  3.6005 -0.1791 -0.9023
  391MOL0     H52752   4.579   9.041   8.652  2.0535 -0.6332  0.1961
  391MOL0     H52753   4.819   9.006   8.491 -2.1351 -0.4538 -1.9241
  391MOL0     H52754   4.821   9.087   8.648  0.7579  0.6467 -0.8307
  391MOL0     H52755   4.754   8.798   8.552  0.9334  0.5225 -1.3029
  391MOL0     H52756   4.726   8.862   8.724 -0.4295 -2.4421 -0.2498
  391MOL0     H52757   4.998   8.863   8.574  2.5404 -3.0945  0.8067
  391MOL0     H52758   4.959   8.934   8.728  0.4644 -1.8850  1.9365
  391MOL0     H52759   5.070   8.713   8.734  0.2740 -0.1840 -2.0582
  391MOL0     H52760   4.919   8.637   8.657 -1.8285 -0.6837  1.6190
  391MOL0     H52761   4.928   8.752   8.943 -2.1530  1.1830 -0.1088
  391MOL0     H52762   4.790   8.703   8.842  0.2117  3.2824 -3.1710
  391MOL0     H52763   5.032   8.524   8.900 -0.8382 -0.2801 -0.1253
  391MOL0     H52764   4.866   8.476   8.860 -2.6481  1.5671 -1.1924
  391MOL0     H52765   4.802   8.540   9.094 -0.1005 -2.8721  0.3663
  391MOL0     H52766   4.971   8.604   9.115 -1.7309  2.0878 -0.3057
  391MOL0     H52767   4.416   9.176   8.559 -2.6953  1.1340  0.8976
  391MOL0     H52768   4.177   9.228   8.539 -1.2156  1.2310 -2.3203
  391MOL0     H52769   3.734   8.986   8.614 -2.4197 -0.3745  0.5591
  391MOL0     H52770   3.491   9.066   8.589  0.7702  2.6071 -0.2397
  391MOL0     H52771   1.982   9.443   7.765  2.6446  2.5299  0.0734
  391MOL0     H52772   1.857   9.296   7.913  2.3236  1.7424 -2.8851
  391MOL0     H52773   1.815   8.937   8.310  0.3380  1.1568 -0.0225
  391MOL0     H52774   1.679   8.869   8.501 -1.0843  0.1783 -0.5446
  391MOL0     H52775   1.689   8.894   8.715 -3.1354 -1.7624 -1.5568
  391MOL0     H52776   1.671   9.015   8.844 -1.0188  1.6827  0.1390
  391MOL0     H52777   1.472   8.809   8.776 -0.7352  0.1872  0.9920
  391MOL0     H52778   1.440   8.967   8.865  1.2997  1.2858  0.8672
  391MOL0     H52779   1.641   8.869   9.017 -4.2104  4.7573  0.9038
  391MOL0     H52780   1.617   8.720   8.940  1.6278  1.0095  0.2193
  391MOL0     H52781   1.372   8.730   9.023 -0.9747 -1.5571  1.0715
  391MOL0     H52782   1.421   8.866   9.119 -0.6883 -1.1081  1.1123
  391MOL0     H52783   1.633   8.536   9.303  0.6709 -0.6969 -0.6837
  391MOL0     H52784   1.608   9.267   8.609 -1.9930 -3.3360  2.5877
  391MOL0     H52785   1.709   9.349   8.373  2.1257 -0.0793 -4.0113
  392MOL0     O52786   1.041   8.559   1.201 -0.0736  0.4954 -0.2008
  392MOL0     C52787   1.116   8.525   1.106 -0.1923  0.1289 -0.7271
  392MOL0     O52788   1.254   8.523   1.107  0.7700 -0.5441  0.2058
  392MOL0     C52789   1.336   8.565   1.207  0.1970  0.5183  0.0473
  392MOL0     C52790   1.361   8.488   1.322 -0.2119 -0.0330  0.9950
  392MOL0     C52791   1.435   8.550   1.425 -0.2565 -0.3199  0.1957
  392MOL0     C52792   1.486   8.679   1.419 -1.0848  1.0973  0.0678
  392MOL0     O52793   1.559   8.731   1.525  0.7039  0.4817  0.4664
  392MOL0     C52794   1.632   8.856   1.508 -0.0474 -0.1662 -0.1384
  392MOL0     C52795   1.709   8.900   1.640 -1.0271  0.3949 -1.2779
  392MOL0     C52796   1.779   8.788   1.705 -0.0077  0.2980 -0.3847
  392MOL0     C52797   1.861   8.840   1.827 -0.0568  0.2769  0.2117
  392MOL0     C52798   1.937   8.721   1.894 -0.8845 -0.5972 -0.8328
  392MOL0     C52799   1.836   8.619   1.946 -0.2316 -0.5918  0.1793
  392MOL0     C52800   1.902   8.494   1.997 -0.3088 -0.7275 -0.2551
  392MOL0     C52801   1.790   8.405   2.060 -1.1837 -0.2624 -1.0295
  392MOL0     N52802   1.852   8.314   2.153 -0.2421 -0.4885  0.4757
  392MOL0     C52803   1.907   8.199   2.126  0.5174 -0.3044  1.1623
  392MOL0     C52804   1.923   8.130   2.240 -0.2626 -0.7491 -0.1042
  392MOL0     C52805   1.967   7.983   2.251  0.5399 -1.1506  0.1561
  392MOL0     C52806   1.958   7.925   2.394 -0.9079  0.5127  0.5552
  392MOL0     C52807   1.973   7.771   2.409 -0.5278 -0.6021 -0.0737
  392MOL0     C52808   2.005   7.708   2.543 -0.6410 -0.3777  0.4258
  392MOL0     O52809   2.058   7.812   2.628 -0.7657  0.3291 -0.4129
  392MOL0     C52810   2.104   7.776   2.746 -0.8010  0.4128 -0.0756
  392MOL0     C52811   2.155   7.648   2.792  0.4488 -0.5660  0.6527
  392MOL0     C52812   2.226   7.627   2.917 -0.9113  0.9722  1.1071
  392MOL0     C52813   2.270   7.478   2.942  0.0790 -0.1338 -0.2287
  392MOL0     C52814   2.261   7.737   2.997 -0.0985  0.0543  0.5896
  392MOL0     C52815   2.332   7.731   3.123  0.0317 -0.6646  0.1058
  392MOL0     O52816   2.322   7.847   3.192  0.4485  1.0806 -0.0665
  392MOL0     C52817   2.372   7.865   3.317 -0.1119 -0.0977 -0.0658
  392MOL0     C52818   2.502   7.820   3.344 -0.2167  0.3458 -0.1704
  392MOL0     C52819   2.553   7.822   3.472 -0.7468 -0.1799  0.0639
  392MOL0     C52820   2.479   7.885   3.578 -0.8279 -0.0724 -0.1884
  392MOL0     O52821   2.517   7.886   3.708 -0.1928  0.1520 -0.6557
  392MOL0     C52822   2.649   7.835   3.747  0.5053 -0.1437  0.5448
  392MOL0     C52823   2.647   7.813   3.897 -1.1704 -0.4481  0.1478
  392MOL0     C52824   2.607   7.945   3.976  0.3921  1.0930  0.7322
  392MOL0     C52825   2.672   7.944   4.110  0.1853 -0.5169 -0.8124
  392MOL0     C52826   2.647   8.072   4.207 -0.4185  0.2708 -0.5102
  392MOL0     C52827   2.713   8.043   4.340 -0.1125 -0.5036  0.0749
  392MOL0     C52828   2.690   8.168   4.439  0.4181  0.3318 -0.0905
  392MOL0     C52829   2.756   8.142   4.575 -0.3356 -0.6627 -0.1055
  392MOL0    Cl52830   2.938   8.155   4.590  0.4014  0.0667  0.1119
  392MOL0     C52831   2.359   7.946   3.548  0.2459 -0.2998 -0.0510
  392MOL0     C52832   2.304   7.932   3.420 -0.8719 -1.1774 -0.0159
  392MOL0     O52833   2.397   7.633   3.157 -0.7507 -0.1226 -0.1320
  392MOL0     C52834   2.215   7.858   2.952  0.1471  0.3424 -0.0653
  392MOL0     C52835   2.138   7.879   2.835  1.0511 -1.6753 -0.5075
  392MOL0     N52836   1.892   8.214   2.338 -0.3195 -0.3209  0.7545
  392MOL0     N52837   1.845   8.323   2.288  0.1784  0.7072 -0.5518
  392MOL0     C52838   1.476   8.742   1.297 -0.1452 -1.7867  0.1187
  392MOL0     C52839   1.399   8.689   1.199 -0.2068  1.4193  0.2370
  392MOL0     C52840   1.054   8.486   0.980  0.9099  0.7197  1.0892
  392MOL0     C52841   1.130   8.409   0.887  0.1946  0.1889 -0.0419
  392MOL0     C52842   1.066   8.365   0.769  0.0181 -0.7687 -0.1612
  392MOL0     C52843   0.937   8.414   0.740 -0.3656 -0.0989  1.1089
  392MOL0     O52844   0.882   8.363   0.623 -0.0511  0.5885 -0.3872
  392MOL0     C52845   0.737   8.389   0.591 -0.4703  0.1474 -0.0157
  392MOL0     C52846   0.697   8.305   0.476  0.7953 -0.4178  0.0864
  392MOL0     C52847   0.756   8.330   0.341  1.0308 -0.0497  0.2624
  392MOL0     C52848   0.769   8.475   0.290  0.4632  1.0473  0.9188
  392MOL0     C52849   0.635   8.534   0.268 -1.2899 -0.2729  0.5872
  392MOL0     C52850   0.528   8.591   0.261  0.2300 -0.1366 -0.4120
  392MOL0     C52851   0.864   8.487   0.826  0.2925 -0.6516  0.1819
  392MOL0     C52852   0.918   8.511   0.952  0.0196 -0.8443  0.5493
  392MOL0     H52853   1.328   8.385   1.332  0.3581 -0.0448  3.2636
  392MOL0     H52854   1.436   8.498   1.520 -1.2094  1.5113  1.2689
  392MOL0     H52855   1.700   8.832   1.426 -1.5427  0.6170 -1.6640
  392MOL0     H52856   1.562   8.936   1.482 -1.4579 -2.2217 -3.1376
  392MOL0     H52857   1.786   8.976   1.625  0.5851  0.1571  3.8700
  392MOL0     H52858   1.642   8.948   1.711 -0.2277  2.4770 -1.8816
  392MOL0     H52859   1.714   8.702   1.722  1.7803 -1.8975 -3.4319
  392MOL0     H52860   1.844   8.746   1.626 -1.4301 -5.5016  1.0710
  392MOL0     H52861   1.935   8.914   1.794 -2.2330  1.4867 -2.3804
  392MOL0     H52862   1.784   8.887   1.889  1.7393  0.1496  2.6733
  392MOL0     H52863   2.000   8.677   1.817  2.7076 -1.0583  2.1260
  392MOL0     H52864   1.988   8.770   1.977 -3.4905  0.5540  0.1999
  392MOL0     H52865   1.771   8.663   2.022  0.8042 -1.2186  1.4769
  392MOL0     H52866   1.773   8.583   1.864 -1.4329 -0.7497  1.1474
  392MOL0     H52867   1.952   8.449   1.911  0.0381 -2.6860  0.9109
  392MOL0     H52868   1.977   8.524   2.072 -0.5092 -0.1009 -0.3052
  392MOL0     H52869   1.739   8.345   1.984 -0.6916 -2.9297  0.6403
  392MOL0     H52870   1.716   8.468   2.111 -0.3247  0.0565 -0.1575
  392MOL0     H52871   1.929   8.165   2.025 -0.4395  0.1954  0.7726
  392MOL0     H52872   1.902   7.917   2.192  1.0898 -1.6443  0.0861
  392MOL0     H52873   2.071   7.989   2.217 -0.0378  1.0956 -1.4890
  392MOL0     H52874   1.856   7.954   2.423 -0.8026  1.3698  0.1020
  392MOL0     H52875   2.020   7.982   2.464 -2.0791  0.9525  1.2697
  392MOL0     H52876   2.052   7.745   2.338 -0.5913  2.1927 -1.2933
  392MOL0     H52877   1.882   7.718   2.381 -1.3650 -0.0371  1.4700
  392MOL0     H52878   2.074   7.629   2.513  0.7149  0.4082  1.3488
  392MOL0     H52879   1.924   7.656   2.595  0.7952  0.7257  4.0969
  392MOL0     H52880   2.148   7.557   2.734  3.1991  0.4356 -1.4704
  392MOL0     H52881   2.225   7.397   2.885  3.3653 -3.0586  0.9914
  392MOL0     H52882   2.377   7.465   2.923  0.7394  1.9127  1.5969
  392MOL0     H52883   2.253   7.441   3.043 -0.4630 -0.6160 -0.4849
  392MOL0     H52884   2.566   7.772   3.270 -0.2212 -0.1388  0.1364
  392MOL0     H52885   2.651   7.777   3.488 -1.3618 -2.0431 -1.2125
  392MOL0     H52886   2.669   7.746   3.685  0.2631  0.3137 -0.1961
  392MOL0     H52887   2.727   7.908   3.724  0.0098  0.3568  0.4512
  392MOL0     H52888   2.573   7.735   3.919 -2.3626  0.5762 -0.1469
  392MOL0     H52889   2.744   7.772   3.928 -1.8108 -1.1235  1.3097
  392MOL0     H52890   2.499   7.935   3.993  0.2916  1.5694  0.3954
  392MOL0     H52891   2.630   8.031   3.912  2.7895 -1.0012 -1.4151
  392MOL0     H52892   2.634   7.858   4.165  0.6843 -0.0264  0.3269
  392MOL0     H52893   2.779   7.919   4.105 -0.0414 -2.5206  1.9428
  392MOL0     H52894   2.538   8.077   4.221 -0.2100 -1.8254  3.1683
  392MOL0     H52895   2.696   8.161   4.166  0.9264  0.6338  1.7308
  392MOL0     H52896   2.661   7.955   4.379  2.5215 -0.6535  3.7547
  392MOL0     H52897   2.815   8.006   4.335 -0.8785 -2.5457 -1.9609
  392MOL0     H52898   2.582   8.171   4.451 -0.0365  1.8839 -3.4255
  392MOL0     H52899   2.731   8.257   4.390  3.5036 -2.0413 -2.3104
  392MOL0     H52900   2.726   8.043   4.608 -3.3474  1.3816  4.1712
  392MOL0     H52901   2.707   8.209   4.646  0.8608 -0.8410  0.9229
  392MOL0     H52902   2.289   7.993   3.617 -0.5456 -2.1240  0.4427
  392MOL0     H52903   2.225   7.994   3.376  0.5721 -0.5844 -1.9339
  392MOL0     H52904   2.233   7.945   3.015  0.6403  1.6697 -1.9685
  392MOL0     H52905   2.120   7.978   2.794  0.0528 -2.0925 -1.1157
  392MOL0     H52906   1.541   8.828   1.286 -0.5629 -1.2318  1.7697
  392MOL0     H52907   1.394   8.742   1.104  1.1169  1.9524  0.4438
  392MOL0     H52908   1.234   8.383   0.904 -0.2177 -0.9509  0.8490
  392MOL0     H52909   1.117   8.291   0.707  0.6555  2.1864 -3.5054
  392MOL0     H52910   0.668   8.368   0.674 -1.6294  0.3886 -0.8801
  392MOL0     H52911   0.720   8.496   0.574 -4.5252  0.1754  2.6286
  392MOL0     H52912   0.589   8.312   0.463  0.6454 -0.3373  1.3419
  392MOL0     H52913   0.715   8.201   0.502  1.9953 -1.0379 -2.7929
  392MOL0     H52914   0.711   8.262   0.268 -1.0239  2.4386 -0.9203
  392MOL0     H52915   0.860   8.295   0.346  0.9444 -0.6087 -1.3880
  392MOL0     H52916   0.823   8.487   0.196 -0.8320  0.9849  0.1463
  392MOL0     H52917   0.821   8.539   0.362 -2.9251  3.8834  1.1232
  392MOL0     H52918   0.427   8.626   0.271  0.0271 -1.1623  1.9330
  392MOL0     H52919   0.766   8.523   0.795  1.3866 -0.2579 -3.2690
  392MOL0     H52920   0.859   8.575   1.017  1.5869  1.4266 -0.1509
  393MOL0     O52921   0.205   2.235   4.461  0.7144  0.0881 -0.2223
  393MOL0     C52922   0.307   2.307   4.478  0.1410 -1.0113  1.1174
  393MOL0     O52923   0.316   2.443   4.449  0.2461  0.2890 -0.7211
  393MOL0     C52924   0.232   2.520   4.382 -0.0405  0.4117  0.1416
  393MOL0     C52925   0.103   2.491   4.333 -0.1662 -1.0647  0.8650
  393MOL0     C52926   0.017   2.593   4.280 -1.0879  0.0594 -0.1175
  393MOL0     C52927   0.060   2.722   4.272  0.6372 -0.7014 -0.0055
  393MOL0     O52928  -0.021   2.816   4.212 -0.0325  0.2898 -0.0535
  393MOL0     C52929   0.049   2.920   4.140 -0.3381 -0.7786 -0.4665
  393MOL0     C52930  -0.044   3.012   4.065  0.1874  0.0067 -0.9290
  393MOL0     C52931  -0.127   2.930   3.963 -1.2136  0.2083  0.8668
  393MOL0     C52932  -0.203   3.007   3.855  0.1598  1.2537  0.5827
  393MOL0     C52933  -0.138   2.990   3.715 -0.0165 -0.6725 -0.3176
  393MOL0     C52934  -0.145   2.843   3.654 -0.4915 -0.3199 -0.5529
  393MOL0     C52935  -0.152   2.824   3.506  1.1699 -0.1131 -0.2980
  393MOL0     C52936  -0.293   2.873   3.451 -0.7676 -0.4088  1.0271
  393MOL0     N52937  -0.409   2.799   3.512 -0.0001  0.6133 -0.1516
  393MOL0     C52938  -0.437   2.670   3.505 -0.0390 -0.2729  1.2591
  393MOL0     C52939  -0.533   2.641   3.588  0.0167 -0.5708  0.0778
  393MOL0     C52940  -0.624   2.518   3.612  0.5318  0.6041  0.4304
  393MOL0     C52941  -0.766   2.574   3.589  0.4427  0.4656 -0.3002
  393MOL0     C52942  -0.866   2.457   3.598 -0.4996  0.0496 -0.4680
  393MOL0     C52943  -1.003   2.516   3.646  1.0230 -0.4072 -0.2388
  393MOL0     O52944  -1.107   2.415   3.625 -0.7596  0.3991 -0.2638
  393MOL0     C52945  -1.229   2.418   3.689  0.3617 -0.5758 -0.2216
  393MOL0     C52946  -1.266   2.530   3.763  0.0950  0.3027  0.1615
  393MOL0     C52947  -1.400   2.527   3.820 -0.0323 -0.2948  0.0617
  393MOL0     C52948  -1.424   2.660   3.894 -0.1771 -0.7098  0.4115
  393MOL0     C52949  -1.490   2.411   3.806 -0.0234  0.4599  1.4978
  393MOL0     C52950  -1.630   2.390   3.856 -0.0636 -0.4099 -0.2982
  393MOL0     O52951  -1.714   2.503   3.844 -0.0093  0.4176 -0.1961
  393MOL0     C52952  -1.841   2.478   3.891 -0.3543  0.2575  0.1260
  393MOL0     C52953  -1.927   2.400   3.812 -0.0958 -1.1324  0.3500
  393MOL0     C52954  -2.055   2.363   3.864 -0.6218 -0.2769 -0.8892
  393MOL0     C52955  -2.096   2.423   3.986 -0.0759  0.2731  0.6603
  393MOL0     O52956  -2.215   2.397   4.050  0.0852  1.1657  0.1724
  393MOL0     C52957  -2.264   2.263   4.021 -0.5769 -0.6287  0.1425
  393MOL0     C52958  -2.379   2.226   4.122 -0.3061 -0.6647  0.5378
  393MOL0     C52959  -2.424   2.078   4.108 -0.4616 -0.7522 -0.7358
  393MOL0     C52960  -2.478   2.053   3.960 -0.5027 -0.3871 -0.0614
  393MOL0     C52961  -2.611   2.122   3.932 -0.3959 -0.2903  0.2355
  393MOL0     C52962  -2.712   2.060   3.829  0.6336  0.1458 -0.6586
  393MOL0     C52963  -2.829   2.153   3.788 -0.6597  0.1140 -0.8852
  393MOL0     C52964  -2.939   2.151   3.888  0.0509 -0.5361  0.7059
  393MOL0    Cl52965  -2.924   2.277   4.015 -0.1163 -0.1554 -0.0428
  393MOL0     C52966  -2.027   2.518   4.051 -0.1508 -0.4411  0.9673
  393MOL0     C52967  -1.893   2.548   4.006  0.6050  0.3124  0.2231
  393MOL0     O52968  -1.646   2.291   3.930  0.0009 -0.6303  0.0283
  393MOL0     C52969  -1.444   2.301   3.726  0.8397 -0.7302 -0.7633
  393MOL0     C52970  -1.317   2.311   3.669 -0.2030  0.1307  0.7489
  393MOL0     N52971  -0.557   2.760   3.661  0.7234 -1.1139 -0.0150
  393MOL0     N52972  -0.475   2.849   3.620  0.5797  0.6884  0.9835
  393MOL0     C52973   0.191   2.754   4.315  0.1659 -0.4704  0.2896
  393MOL0     C52974   0.269   2.649   4.368  0.0380 -0.4266 -0.3014
  393MOL0     C52975   0.428   2.249   4.536 -0.6676 -0.3061 -0.0906
  393MOL0     C52976   0.436   2.118   4.550  0.1780 -0.4505 -0.6129
  393MOL0     C52977   0.535   2.055   4.623 -0.4365 -0.6100 -0.0533
  393MOL0     C52978   0.641   2.127   4.676 -0.4777  0.5215  0.1665
  393MOL0     O52979   0.712   2.060   4.771 -1.0809  0.0147  0.7526
  393MOL0     C52980   0.846   2.113   4.787  0.4023  0.0887  0.0338
  393MOL0     C52981   0.937   1.999   4.772  0.2871  0.7122 -0.3361
  393MOL0     C52982   0.956   1.931   4.909 -0.1355 -0.4685  0.3509
  393MOL0     C52983   1.060   1.826   4.918 -0.0605 -0.1396 -0.0612
  393MOL0     C52984   1.199   1.858   4.882 -0.2382 -0.5666  0.3371
  393MOL0     C52985   1.306   1.898   4.842  0.2099 -0.6729  0.7053
  393MOL0     C52986   0.642   2.268   4.648 -0.2084  0.7278 -0.1904
  393MOL0     C52987   0.537   2.327   4.577 -0.0283  0.0906 -0.2649
  393MOL0     H52988   0.062   2.391   4.342 -3.4401  0.2809  2.6259
  393MOL0     H52989  -0.082   2.565   4.246 -2.4459 -0.8089  3.9633
  393MOL0     H52990   0.115   2.972   4.209  3.1312 -2.8055 -2.0025
  393MOL0     H52991   0.125   2.876   4.074 -1.5090 -3.8457  0.0549
  393MOL0     H52992  -0.118   3.069   4.122 -0.2891  0.3934 -1.8989
  393MOL0     H52993   0.017   3.084   4.009  0.7767 -0.0959 -0.4343
  393MOL0     H52994  -0.046   2.867   3.923 -2.3282 -1.8069  1.6174
  393MOL0     H52995  -0.196   2.857   4.007  0.5853 -2.7099 -0.8504
  393MOL0     H52996  -0.299   2.962   3.829 -0.2872  3.7151 -2.6395
  393MOL0     H52997  -0.211   3.114   3.877  1.6059  1.1551  1.7769
  393MOL0     H52998  -0.165   3.063   3.638 -0.2872 -0.2002  0.2183
  393MOL0     H52999  -0.030   3.005   3.716 -0.1993  0.7280  1.0121
  393MOL0     H53000  -0.048   2.796   3.676 -0.6384 -1.9663 -3.0867
  393MOL0     H53001  -0.227   2.784   3.694 -0.9720  0.8314  0.2075
  393MOL0     H53002  -0.069   2.873   3.455  0.2925  1.1083 -0.6236
  393MOL0     H53003  -0.152   2.718   3.482 -0.8752 -0.1283 -0.4652
  393MOL0     H53004  -0.312   2.871   3.343 -2.0969 -1.1548  1.2522
  393MOL0     H53005  -0.283   2.980   3.473 -0.7815 -0.3915  0.9484
  393MOL0     H53006  -0.391   2.586   3.454 -1.8836 -0.4091 -0.2930
  393MOL0     H53007  -0.607   2.443   3.534  0.1282  2.2041 -1.2929
  393MOL0     H53008  -0.607   2.467   3.707  1.1394 -2.4928 -1.1930
  393MOL0     H53009  -0.766   2.619   3.489 -1.0228 -1.2822 -1.1244
  393MOL0     H53010  -0.792   2.643   3.670 -0.9565 -1.9681  1.4551
  393MOL0     H53011  -0.834   2.383   3.673 -0.5498 -1.0171 -1.4773
  393MOL0     H53012  -0.861   2.413   3.499  1.2585  1.7283 -1.1889
  393MOL0     H53013  -1.024   2.611   3.594  1.7562 -1.3952 -2.4758
  393MOL0     H53014  -0.991   2.548   3.749 -2.1830 -1.8486  0.7160
  393MOL0     H53015  -1.194   2.610   3.771 -0.0545  0.4080  0.4988
  393MOL0     H53016  -1.443   2.740   3.823 -1.5185 -2.5910 -1.4937
  393MOL0     H53017  -1.515   2.650   3.954 -0.6823  2.1404  0.2615
  393MOL0     H53018  -1.343   2.682   3.964 -0.1156  0.8533 -0.1252
  393MOL0     H53019  -1.900   2.359   3.715  0.2114  0.9008 -0.4763
  393MOL0     H53020  -2.109   2.279   3.821 -3.5017 -0.4478  2.6203
  393MOL0     H53021  -2.303   2.263   3.919  2.6938 -2.0003 -1.2619
  393MOL0     H53022  -2.183   2.190   4.030 -0.5473 -0.5248  0.8133
  393MOL0     H53023  -2.332   2.235   4.220  3.3187  1.2149 -1.1722
  393MOL0     H53024  -2.460   2.299   4.122  0.5282  0.3153 -0.7567
  393MOL0     H53025  -2.503   2.057   4.181  1.7971 -2.5368  1.3720
  393MOL0     H53026  -2.331   2.023   4.124 -0.7373 -0.6667  1.4874
  393MOL0     H53027  -2.401   2.077   3.886  0.7764 -3.2804  0.1599
  393MOL0     H53028  -2.476   1.944   3.950 -1.7600 -0.1916 -4.2846
  393MOL0     H53029  -2.592   2.220   3.887 -0.4788  0.2635  1.3720
  393MOL0     H53030  -2.667   2.139   4.024 -2.6798  4.5111 -1.6973
  393MOL0     H53031  -2.654   2.039   3.739 -0.0883  3.5431 -2.0699
  393MOL0     H53032  -2.747   1.964   3.867 -1.7891 -0.3921 -3.7804
  393MOL0     H53033  -2.862   2.120   3.689 -2.8074  0.0469 -0.1837
  393MOL0     H53034  -2.794   2.257   3.788  0.5857 -0.2788  0.1186
  393MOL0     H53035  -2.951   2.052   3.934  0.6542 -0.0098  2.0555
  393MOL0     H53036  -3.023   2.183   3.827  1.6342  2.9340  0.0717
  393MOL0     H53037  -2.058   2.570   4.141  3.4695  1.8738  1.0986
  393MOL0     H53038  -1.828   2.620   4.055  0.4755  1.7036 -1.5265
  393MOL0     H53039  -1.505   2.212   3.711 -1.6094  0.9103 -1.1016
  393MOL0     H53040  -1.279   2.231   3.606  0.1742  0.6751  0.2820
  393MOL0     H53041   0.233   2.854   4.321  0.4437 -0.4368 -1.6635
  393MOL0     H53042   0.367   2.664   4.414 -0.0562  0.6306 -0.4084
  393MOL0     H53043   0.358   2.057   4.506 -4.0649  2.1475  2.5378
  393MOL0     H53044   0.506   1.951   4.636 -1.8952 -0.6276 -2.6900
  393MOL0     H53045   0.856   2.184   4.704 -2.0546 -0.6026 -0.9535
  393MOL0     H53046   0.860   2.179   4.873 -0.1975  0.7806 -0.3816
  393MOL0     H53047   1.025   2.040   4.721  0.4385  4.2358  2.3901
  393MOL0     H53048   0.904   1.925   4.699 -0.0643 -1.1000  1.5704
  393MOL0     H53049   0.857   1.897   4.941 -1.1807  0.5924 -1.5842
  393MOL0     H53050   0.976   2.008   4.984 -1.9006 -0.5229  0.9341
  393MOL0     H53051   1.031   1.739   4.857  2.0360 -0.2541 -0.9997
  393MOL0     H53052   1.073   1.797   5.023  2.3282  2.9293  0.6360
  393MOL0     H53053   1.405   1.919   4.807  0.2808 -0.5942  0.9504
  393MOL0     H53054   0.717   2.328   4.699  1.2479 -1.0654 -0.1001
  393MOL0     H53055   0.527   2.433   4.557 -2.5047 -0.1980 -0.8313
  394MOL0     O53056   3.332   0.721   1.421  0.2549 -0.8165  0.5187
  394MOL0     C53057   3.325   0.789   1.317  0.4358 -1.4145 -1.2634
  394MOL0     O53058   3.311   0.743   1.187 -0.6584  0.4696 -0.6443
  394MOL0     C53059   3.341   0.605   1.175  0.6760 -0.9737  0.3709
  394MOL0     C53060   3.239   0.509   1.173 -0.1999 -0.2518 -1.1317
  394MOL0     C53061   3.275   0.376   1.206 -0.2499  0.0696 -0.6202
  394MOL0     C53062   3.414   0.339   1.215 -0.0925  0.0588 -0.6259
  394MOL0     O53063   3.448   0.212   1.250  0.4269 -0.2074  0.2427
  394MOL0     C53064   3.438   0.116   1.143  1.3698 -0.3132 -0.2286
  394MOL0     C53065   3.559   0.034   1.122  0.2671  0.3596  0.0625
  394MOL0     C53066   3.596  -0.083   1.220  0.3534  0.1068 -0.3441
  394MOL0     C53067   3.479  -0.184   1.242 -0.0002 -0.0613 -0.7130
  394MOL0     C53068   3.509  -0.293   1.349  0.3855  0.6668  1.1312
  394MOL0     C53069   3.393  -0.394   1.372 -1.1041 -1.1515 -0.2033
  394MOL0     C53070   3.350  -0.467   1.241 -0.5902  0.2435  0.0346
  394MOL0     C53071   3.288  -0.596   1.277  0.6861 -0.0493 -0.1825
  394MOL0     N53072   3.161  -0.571   1.354 -0.1843 -0.5448  0.5331
  394MOL0     C53073   3.158  -0.606   1.488  1.0478  0.7563 -0.1800
  394MOL0     C53074   3.052  -0.531   1.535 -0.1561 -1.1235  0.7125
  394MOL0     C53075   3.027  -0.491   1.669 -1.1718  0.0597 -0.5113
  394MOL0     C53076   3.135  -0.408   1.727 -1.1461 -0.0344  0.0501
  394MOL0     C53077   3.138  -0.262   1.664  0.0727 -0.8648 -0.3640
  394MOL0     C53078   3.019  -0.173   1.708 -0.4042 -0.0301 -0.1420
  394MOL0     O53079   3.029  -0.144   1.848  0.2343  0.3046 -0.1301
  394MOL0     C53080   2.920  -0.055   1.879  1.0028  0.0716 -0.4408
  394MOL0     C53081   2.919  -0.024   2.010 -0.6054  0.1717 -0.6243
  394MOL0     C53082   2.820   0.059   2.067 -0.3248 -0.9938  0.2637
  394MOL0     C53083   2.852   0.107   2.206 -0.4419 -0.2693  0.5283
  394MOL0     C53084   2.721   0.113   1.987  0.0592  0.1598  0.2092
  394MOL0     C53085   2.614   0.201   2.039 -0.0872  0.2734 -0.8296
  394MOL0     O53086   2.654   0.304   2.111 -0.3284  0.2533  0.6141
  394MOL0     C53087   2.571   0.413   2.125  0.2586  0.5304 -0.0207
  394MOL0     C53088   2.488   0.469   2.025  0.3886  0.2117  0.2559
  394MOL0     C53089   2.419   0.592   2.046 -0.4616  0.6481 -0.9903
  394MOL0     C53090   2.427   0.647   2.176 -0.1375  0.1576  0.7541
  394MOL0     O53091   2.368   0.769   2.222 -0.2096 -0.2248  0.6314
  394MOL0     C53092   2.290   0.843   2.133  0.0492 -0.3314 -0.3647
  394MOL0     C53093   2.267   0.981   2.196  0.0172  0.1431 -0.6544
  394MOL0     C53094   2.210   0.978   2.339  0.6609 -0.6284 -1.0714
  394MOL0     C53095   2.176   1.116   2.390 -0.2713 -0.5766 -0.8875
  394MOL0     C53096   2.119   1.117   2.535 -0.6218 -0.6007 -0.2878
  394MOL0     C53097   2.204   1.053   2.642  0.9875  0.0996  1.3035
  394MOL0     C53098   2.344   1.097   2.650  0.7869 -0.1419  0.9621
  394MOL0     C53099   2.423   1.002   2.730 -0.0102  0.7693 -0.2758
  394MOL0    Cl53100   2.444   0.838   2.666 -0.1701  0.4908  0.2234
  394MOL0     C53101   2.490   0.582   2.278  0.4070  0.8673 -0.0165
  394MOL0     C53102   2.558   0.464   2.252 -0.0758  0.4647  0.3630
  394MOL0     O53103   2.502   0.176   2.005 -0.2251 -0.2811 -0.1248
  394MOL0     C53104   2.718   0.075   1.852  0.1763 -0.6863 -0.1354
  394MOL0     C53105   2.813  -0.014   1.800 -0.1967 -0.1685  0.0524
  394MOL0     N53106   2.989  -0.463   1.428  0.5585  1.3704 -0.6231
  394MOL0     N53107   3.055  -0.499   1.319 -0.6039 -0.1329 -0.0817
  394MOL0     C53108   3.518   0.434   1.201  0.3261 -0.6093 -0.2763
  394MOL0     C53109   3.475   0.567   1.192 -0.1432 -0.3016  0.5146
  394MOL0     C53110   3.345   0.938   1.331  1.0678 -0.1924  0.8804
  394MOL0     C53111   3.336   1.018   1.219  0.7917  0.0635  0.2216
  394MOL0     C53112   3.347   1.156   1.228 -0.1267 -0.1783  0.1066
  394MOL0     C53113   3.376   1.227   1.351 -1.1433 -0.5776  0.8277
  394MOL0     O53114   3.371   1.363   1.363  0.6644 -0.4061 -0.1005
  394MOL0     C53115   3.428   1.434   1.474 -0.8561  0.5727  0.4297
  394MOL0     C53116   3.549   1.514   1.450 -0.1499 -0.5217  0.8609
  394MOL0     C53117   3.518   1.634   1.373  0.0545 -1.0227 -0.1167
  394MOL0     C53118   3.638   1.699   1.298 -0.6744 -0.5527 -0.0228
  394MOL0     C53119   3.717   1.610   1.205 -0.3035  0.2746 -0.0809
  394MOL0     C53120   3.803   1.565   1.140 -0.3651  1.4510  0.7859
  394MOL0     C53121   3.390   1.145   1.468 -0.2619 -1.1252 -0.7946
  394MOL0     C53122   3.372   1.002   1.458 -0.1836  0.7991  0.1095
  394MOL0     H53123   3.134   0.533   1.178 -0.8043 -2.7676  3.6939
  394MOL0     H53124   3.203   0.298   1.227  0.6049 -0.0487  2.3817
  394MOL0     H53125   3.348   0.055   1.160 -1.2358  3.2177 -0.2717
  394MOL0     H53126   3.409   0.163   1.049 -0.5136  0.6785  0.7851
  394MOL0     H53127   3.542  -0.015   1.026 -1.4067  2.2565 -0.6857
  394MOL0     H53128   3.646   0.099   1.104 -1.2139  1.7908 -2.8340
  394MOL0     H53129   3.682  -0.142   1.187 -0.8125 -0.6896 -2.1312
  394MOL0     H53130   3.622  -0.041   1.318  0.1825 -0.1483 -0.1884
  394MOL0     H53131   3.394  -0.128   1.282  1.4897  0.8214  1.4612
  394MOL0     H53132   3.453  -0.229   1.146 -1.1446  0.9486 -0.9103
  394MOL0     H53133   3.599  -0.347   1.318  0.2932 -0.2713  2.4339
  394MOL0     H53134   3.531  -0.238   1.441  1.7739  1.6035  0.2761
  394MOL0     H53135   3.423  -0.468   1.448  1.8098 -2.2123 -2.1901
  394MOL0     H53136   3.313  -0.329   1.407  2.1800  2.2557  1.6626
  394MOL0     H53137   3.284  -0.409   1.175 -0.6937 -0.5194 -0.5420
  394MOL0     H53138   3.439  -0.498   1.185 -0.8045 -3.6042  1.5694
  394MOL0     H53139   3.356  -0.652   1.342 -1.0858 -0.9742  0.9614
  394MOL0     H53140   3.269  -0.647   1.183  3.5581 -1.1759 -0.2633
  394MOL0     H53141   3.245  -0.640   1.544  0.9548  1.2980  0.2965
  394MOL0     H53142   2.937  -0.429   1.660 -1.2074 -0.0462 -0.9164
  394MOL0     H53143   3.023  -0.579   1.733  3.0640 -0.8533 -1.2172
  394MOL0     H53144   3.233  -0.456   1.717 -1.0054 -0.1777  1.8291
  394MOL0     H53145   3.116  -0.398   1.834 -0.5609  2.0153  0.0090
  394MOL0     H53146   3.127  -0.270   1.555  1.0444 -1.2688 -0.4420
  394MOL0     H53147   3.234  -0.215   1.685  0.3557 -0.8953 -1.4903
  394MOL0     H53148   2.924  -0.219   1.681  0.8175 -0.1421 -5.2633
  394MOL0     H53149   3.009  -0.085   1.644  0.0055 -1.2352 -1.9533
  394MOL0     H53150   2.997  -0.053   2.080 -1.8273  0.3648  0.8718
  394MOL0     H53151   2.913   0.038   2.265 -0.8038 -0.4183  0.7350
  394MOL0     H53152   2.905   0.202   2.201  4.4885 -2.7654 -1.2286
  394MOL0     H53153   2.755   0.120   2.256 -1.3314  1.7804 -1.5353
  394MOL0     H53154   2.476   0.419   1.929 -4.1971  1.2741  0.0642
  394MOL0     H53155   2.360   0.621   1.959  1.2909 -1.3621 -2.9679
  394MOL0     H53156   2.352   0.847   2.043 -2.7946 -0.8972 -2.5083
  394MOL0     H53157   2.201   0.788   2.099  1.2433 -1.9371 -1.0428
  394MOL0     H53158   2.365   1.031   2.188 -1.2408  2.8182 -0.5916
  394MOL0     H53159   2.193   1.019   2.125 -1.1926  1.2756  1.1276
  394MOL0     H53160   2.283   0.940   2.410 -0.2581  0.2744  0.4212
  394MOL0     H53161   2.133   0.900   2.342  0.3060 -0.2992 -1.4065
  394MOL0     H53162   2.273   1.166   2.395  0.6418 -2.0807 -2.3490
  394MOL0     H53163   2.118   1.182   2.324 -2.3167  0.0342  1.3920
  394MOL0     H53164   2.031   1.053   2.539 -1.0388 -0.0190 -0.0410
  394MOL0     H53165   2.101   1.223   2.552  2.1570 -0.1080  0.1675
  394MOL0     H53166   2.160   1.082   2.738 -1.2671  1.5260 -0.0688
  394MOL0     H53167   2.199   0.943   2.636  0.1568 -0.0688  3.8539
  394MOL0     H53168   2.348   1.194   2.700  0.6175  1.5503 -2.0615
  394MOL0     H53169   2.391   1.105   2.551 -2.2045  1.5144 -0.4603
  394MOL0     H53170   2.367   0.994   2.824 -0.7166  1.5179 -0.6189
  394MOL0     H53171   2.518   1.052   2.752 -0.0185  0.3991  0.6585
  394MOL0     H53172   2.501   0.626   2.377  0.9561 -0.3934  0.5086
  394MOL0     H53173   2.605   0.408   2.332 -0.4155  0.3370  0.4747
  394MOL0     H53174   2.638   0.105   1.784  0.1476 -2.2364 -0.8276
  394MOL0     H53175   2.803  -0.044   1.696  1.3276  2.9076 -1.1078
  394MOL0     H53176   3.623   0.409   1.200  0.4188 -0.2978  0.4970
  394MOL0     H53177   3.546   0.650   1.196 -0.8719  0.4782 -1.3152
  394MOL0     H53178   3.333   0.978   1.118  0.2916 -0.4258  0.4274
  394MOL0     H53179   3.341   1.216   1.137 -1.3437 -1.5532 -0.7575
  394MOL0     H53180   3.350   1.501   1.511 -0.1853  1.2806  0.5829
  394MOL0     H53181   3.459   1.367   1.554 -2.6069 -0.6273  0.1865
  394MOL0     H53182   3.626   1.457   1.396  0.3019 -1.2350  2.2229
  394MOL0     H53183   3.601   1.543   1.542  1.9983 -1.9023  0.1795
  394MOL0     H53184   3.471   1.716   1.430  1.8870  0.1961 -0.2737
  394MOL0     H53185   3.443   1.615   1.296  1.6820 -1.7997 -1.5650
  394MOL0     H53186   3.709   1.750   1.363  0.5818  1.1859 -2.6114
  394MOL0     H53187   3.604   1.776   1.229  0.6140  1.0400  1.0610
  394MOL0     H53188   3.887   1.555   1.074  0.4293  2.0737  1.6732
  394MOL0     H53189   3.399   1.189   1.567  1.4837 -1.7583 -0.6322
  394MOL0     H53190   3.371   0.957   1.557 -0.6193  4.9157  2.2115
  395MOL0     O53191  10.245   1.279   1.747 -0.1592 -0.2905 -1.1501
  395MOL0     C53192  10.322   1.370   1.786 -1.4076 -0.5443  0.1897
  395MOL0     O53193  10.432   1.344   1.855  0.0396 -0.4545 -0.1584
  395MOL0     C53194  10.480   1.210   1.866  0.2292  0.0656 -0.5499
  395MOL0     C53195  10.488   1.128   1.748  0.6010  0.0270  0.5402
  395MOL0     C53196  10.541   1.002   1.748  0.7404  0.7928 -1.2290
  395MOL0     C53197  10.595   0.953   1.872 -0.7776 -0.6600  0.1050
  395MOL0     O53198  10.650   0.832   1.892  0.2287  0.0437  0.1254
  395MOL0     C53199  10.659   0.742   1.775 -0.9691  1.1000 -0.6175
  395MOL0     C53200  10.695   0.600   1.826 -0.4091  0.4721 -0.4571
  395MOL0     C53201  10.572   0.513   1.852 -0.2276 -0.0742 -0.2383
  395MOL0     C53202  10.588   0.371   1.904 -0.2664 -0.2974 -0.5457
  395MOL0     C53203  10.637   0.349   2.043  1.2388 -0.8574 -0.7165
  395MOL0     C53204  10.616   0.199   2.077  0.4014  0.0928  1.3479
  395MOL0     C53205  10.681   0.186   2.209  0.0755  0.4624 -0.4424
  395MOL0     C53206  10.691   0.044   2.251  0.0693 -0.1925  0.2585
  395MOL0     N53207  10.732   0.023   2.385 -1.3494 -0.1588 -1.2825
  395MOL0     C53208  10.722  -0.091   2.464  0.8893 -0.1363 -0.6452
  395MOL0     C53209  10.801  -0.065   2.567  0.5669 -0.8006  0.2236
  395MOL0     C53210  10.846  -0.156   2.671  0.1288 -0.2546  0.6425
  395MOL0     C53211  10.882  -0.090   2.810  0.6903 -0.3130 -0.3934
  395MOL0     C53212  10.878  -0.192   2.925 -0.3739  0.4970  0.0688
  395MOL0     C53213  10.960  -0.142   3.045 -0.6270 -0.2810 -0.4624
  395MOL0     O53214  11.102  -0.154   3.019 -0.7328 -0.5652 -0.5819
  395MOL0     C53215  11.175  -0.088   3.116  0.3505 -0.2296  1.0379
  395MOL0     C53216  11.293  -0.020   3.085 -0.0403  1.0226  0.1445
  395MOL0     C53217  11.381   0.054   3.171  0.4617 -0.1318  0.4558
  395MOL0     C53218  11.500   0.107   3.101  0.2168 -0.1824 -0.3929
  395MOL0     C53219  11.339   0.074   3.309 -0.4825  1.7374  0.5897
  395MOL0     C53220  11.437   0.135   3.416  0.2390  0.4409 -0.0183
  395MOL0     O53221  11.380   0.160   3.535  0.4610  0.5177  0.2633
  395MOL0     C53222  11.453   0.164   3.651 -0.1478  0.0525  0.2836
  395MOL0     C53223  11.504   0.047   3.716  0.5312 -1.0591 -0.4901
  395MOL0     C53224  11.579   0.061   3.834  0.1418 -0.6192 -1.4990
  395MOL0     C53225  11.597   0.176   3.899  1.0850 -0.1481 -0.0230
  395MOL0     O53226  11.681   0.166   4.008  0.0636  0.1867 -0.0964
  395MOL0     C53227  11.734   0.282   4.064  0.7471 -0.0012  0.0111
  395MOL0     C53228  11.848   0.230   4.148  0.3370 -0.1602 -0.2891
  395MOL0     C53229  11.969   0.192   4.064  0.1970  1.1023 -0.2704
  395MOL0     C53230  12.052   0.306   4.029  0.0268 -0.3713 -0.2840
  395MOL0     C53231  12.097   0.296   3.887  0.1906 -0.2166  0.0151
  395MOL0     C53232  12.220   0.385   3.849 -0.1772  0.8075 -0.3697
  395MOL0     C53233  12.256   0.354   3.709 -0.6849 -0.7636 -0.3829
  395MOL0     C53234  12.383   0.420   3.663  0.4891  0.1934  0.2147
  395MOL0    Cl53235  12.376   0.597   3.631  0.0783  0.2383  0.4126
  395MOL0     C53236  11.557   0.296   3.827 -1.0749 -0.5944  0.1002
  395MOL0     C53237  11.480   0.293   3.704 -0.3573  1.2167  0.3633
  395MOL0     O53238  11.557   0.164   3.390  0.4275  0.1493 -0.7565
  395MOL0     C53239  11.219   0.003   3.340 -0.2956 -0.0873  0.1924
  395MOL0     C53240  11.140  -0.080   3.250 -0.4620 -0.0374  0.1578
  395MOL0     N53241  10.873   0.047   2.545 -0.4974  0.3010 -0.3720
  395MOL0     N53242  10.827   0.103   2.447 -0.3370 -0.2223  1.2378
  395MOL0     C53243  10.580   1.033   1.986  0.6338  0.3387  0.6889
  395MOL0     C53244  10.524   1.157   1.985 -0.6206  0.6547 -0.5270
  395MOL0     C53245  10.286   1.519   1.762 -0.5960 -0.8724 -0.5776
  395MOL0     C53246  10.360   1.630   1.830 -0.0967 -0.7668  0.3716
  395MOL0     C53247  10.336   1.758   1.785 -0.8479  0.1338 -0.3959
  395MOL0     C53248  10.233   1.783   1.698 -0.4929  0.4624  0.5236
  395MOL0     O53249  10.222   1.907   1.646  0.2439  0.5345  0.3475
  395MOL0     C53250  10.316   2.015   1.677 -0.0012 -0.1671 -0.7710
  395MOL0     C53251  10.270   2.140   1.594  0.0622  0.1784  0.0117
  395MOL0     C53252  10.151   2.207   1.667 -0.6332  0.1466  1.1087
  395MOL0     C53253  10.082   2.300   1.562 -0.8064 -0.9478 -0.2006
  395MOL0     C53254  10.170   2.410   1.519  0.5394 -0.6508 -1.3654
  395MOL0     C53255  10.246   2.499   1.494  0.1388  0.4732  0.0497
  395MOL0     C53256  10.149   1.685   1.637 -0.4878  0.3595 -0.9918
  395MOL0     C53257  10.185   1.557   1.676  0.3710  0.4325  0.4883
  395MOL0     H53258  10.457   1.173   1.654  2.6649  2.0675  0.7373
  395MOL0     H53259  10.536   0.942   1.658 -1.4046  0.1182 -0.7259
  395MOL0     H53260  10.564   0.734   1.721 -2.8644 -2.4379  2.7538
  395MOL0     H53261  10.728   0.787   1.702  2.6008 -0.3940  1.5706
  395MOL0     H53262  10.758   0.544   1.756  0.6996  0.3867  0.5550
  395MOL0     H53263  10.751   0.604   1.920  0.9823  2.6154 -1.2941
  395MOL0     H53264  10.520   0.570   1.930 -0.8632 -3.9075  2.3921
  395MOL0     H53265  10.516   0.521   1.759  0.4755  2.6489 -0.5404
  395MOL0     H53266  10.490   0.323   1.896  0.3891 -1.8523  0.3543
  395MOL0     H53267  10.644   0.303   1.839 -0.4733 -1.1974  0.1843
  395MOL0     H53268  10.739   0.386   2.055  0.2602  1.3569  1.8382
  395MOL0     H53269  10.575   0.413   2.107  0.3347 -2.8093  0.4422
  395MOL0     H53270  10.509   0.183   2.090  0.5122 -1.0784  0.9538
  395MOL0     H53271  10.642   0.122   2.004 -3.9803  0.5021 -0.9269
  395MOL0     H53272  10.782   0.229   2.210 -1.0941  3.5624 -1.3738
  395MOL0     H53273  10.616   0.230   2.285  0.0450  1.5139 -1.0548
  395MOL0     H53274  10.758  -0.006   2.181  0.7891  1.1202 -0.0218
  395MOL0     H53275  10.588   0.008   2.249 -0.6308  1.7558 -2.0504
  395MOL0     H53276  10.661  -0.177   2.440 -0.4022  0.2351  1.0857
  395MOL0     H53277  10.772  -0.235   2.688  0.4896 -1.0173 -1.1252
  395MOL0     H53278  10.932  -0.213   2.635 -1.7048 -2.3758 -0.6795
  395MOL0     H53279  10.805  -0.015   2.830  1.5622  0.7913 -1.0099
  395MOL0     H53280  10.981  -0.043   2.808 -0.5931  3.0009  2.9294
  395MOL0     H53281  10.931  -0.279   2.885  0.7831  0.5366  1.4530
  395MOL0     H53282  10.772  -0.204   2.948 -1.3559 -1.2397 -4.3018
  395MOL0     H53283  10.938  -0.205   3.132  2.1136  0.0852  0.5912
  395MOL0     H53284  10.942  -0.035   3.053 -1.1824 -0.3312 -1.0198
  395MOL0     H53285  11.317  -0.036   2.981 -1.5597  2.7313 -0.5273
  395MOL0     H53286  11.527   0.203   3.145  0.7470  0.3420 -1.8309
  395MOL0     H53287  11.592   0.049   3.111  0.6620  0.8657  4.0702
  395MOL0     H53288  11.466   0.133   3.001  0.4740  2.2874  0.1105
  395MOL0     H53289  11.483  -0.053   3.679 -2.1021 -1.3178  1.3335
  395MOL0     H53290  11.627  -0.024   3.880 -2.2327 -0.4716  1.5827
  395MOL0     H53291  11.763   0.360   3.992 -0.2427  1.5026  1.1805
  395MOL0     H53292  11.663   0.340   4.122  0.0799 -0.8434  0.0546
  395MOL0     H53293  11.878   0.298   4.228 -0.8630 -2.4245  2.2875
  395MOL0     H53294  11.814   0.139   4.200 -2.1863  0.7897 -0.1601
  395MOL0     H53295  11.931   0.146   3.972  1.0659  0.5343 -0.3610
  395MOL0     H53296  12.030   0.116   4.114 -0.8478 -0.5658 -1.4184
  395MOL0     H53297  12.000   0.402   4.036  0.2114 -0.3427  0.9794
  395MOL0     H53298  12.143   0.299   4.089 -0.6725  2.2222  1.2526
  395MOL0     H53299  12.021   0.304   3.809  2.8849  2.5928 -2.5912
  395MOL0     H53300  12.123   0.190   3.883 -3.7729 -1.3700  0.2309
  395MOL0     H53301  12.189   0.490   3.845  2.3663  1.6246 -0.1398
  395MOL0     H53302  12.303   0.369   3.917 -0.6381  1.7721  0.4483
  395MOL0     H53303  12.181   0.389   3.637 -0.9612 -1.4774 -0.4525
  395MOL0     H53304  12.266   0.245   3.709 -0.3189 -0.7691  1.6435
  395MOL0     H53305  12.414   0.368   3.571  1.7820 -1.8812  1.7281
  395MOL0     H53306  12.462   0.393   3.734  1.1058  0.6855 -0.2688
  395MOL0     H53307  11.567   0.394   3.870 -0.9597 -2.3104  4.4671
  395MOL0     H53308  11.451   0.387   3.660  1.3380  0.1188 -3.5745
  395MOL0     H53309  11.199   0.001   3.447 -0.2909 -2.2672  0.1927
  395MOL0     H53310  11.070  -0.152   3.291  0.4053 -0.6670  0.5577
  395MOL0     H53311  10.609   0.981   2.076  0.6431 -1.5093 -0.3264
  395MOL0     H53312  10.530   1.221   2.073  3.8496  2.2905 -1.7704
  395MOL0     H53313  10.440   1.601   1.897 -0.2303 -0.9120  0.4689
  395MOL0     H53314  10.392   1.839   1.830 -2.6016  1.1837 -0.0057
  395MOL0     H53315  10.321   2.047   1.781  0.8061 -5.8553  1.2748
  395MOL0     H53316  10.412   1.981   1.636 -0.3102 -2.4645  0.2913
  395MOL0     H53317  10.246   2.095   1.497  1.8856 -3.2382  0.9819
  395MOL0     H53318  10.353   2.211   1.583  0.7459 -0.6535 -0.2577
  395MOL0     H53319  10.175   2.271   1.752 -6.1164  2.3401  1.3791
  395MOL0     H53320  10.078   2.135   1.703 -2.0180 -0.5799 -2.6497
  395MOL0     H53321   9.991   2.343   1.606 -0.6046  0.2486 -0.9095
  395MOL0     H53322  10.050   2.244   1.474 -1.4132 -1.0019  0.0465
  395MOL0     H53323  10.310   2.583   1.478  2.0660 -0.8442  0.5013
  395MOL0     H53324  10.065   1.717   1.576 -2.4982  0.3547  1.5814
  395MOL0     H53325  10.129   1.476   1.630 -1.5273  1.3301  1.1346
  396MOL0     O53326   1.935  10.704   9.332  0.8365 -0.6749  0.3687
  396MOL0     C53327   2.042  10.747   9.374  0.5474  0.3221  0.7989
  396MOL0     O53328   2.091  10.729   9.502  0.1310 -0.2002  0.8195
  396MOL0     C53329   2.006  10.687   9.600  0.3778 -0.2464  0.2122
  396MOL0     C53330   1.869  10.714   9.622  0.6845 -0.0513  0.8459
  396MOL0     C53331   1.800  10.647   9.716  0.8763  0.8299  0.5579
  396MOL0     C53332   1.856  10.554   9.801 -0.5641  0.1219 -0.7945
  396MOL0     O53333   1.786  10.510   9.912 -0.4300  0.2879  0.1984
  396MOL0     C53334   1.871  10.484  10.030 -0.3153 -0.8945  0.5773
  396MOL0     C53335   1.778  10.460  10.151 -0.2471  0.3933  0.9206
  396MOL0     C53336   1.857  10.479  10.272 -0.3899 -0.3916 -0.3709
  396MOL0     C53337   1.785  10.477  10.409 -0.0387  0.3998 -0.7231
  396MOL0     C53338   1.876  10.480  10.530  1.1044 -0.3908 -0.8785
  396MOL0     C53339   1.789  10.509  10.656 -0.0404 -0.1063 -0.4119
  396MOL0     C53340   1.878  10.492  10.779 -0.8477  0.1866 -0.3819
  396MOL0     C53341   1.799  10.522  10.911  0.1563 -0.3363  1.0029
  396MOL0     N53342   1.896  10.549  11.018 -0.1645  0.0654 -0.7762
  396MOL0     C53343   2.006  10.475  11.054  0.4141  0.6895 -0.1734
  396MOL0     C53344   2.042  10.524  11.169 -0.1411 -0.1877  0.3889
  396MOL0     C53345   2.161  10.485  11.260 -0.1415 -0.6374  1.0827
  396MOL0     C53346   2.124  10.470  11.405 -0.2633 -0.8297 -0.3810
  396MOL0     C53347   2.254  10.492  11.487 -0.1165 -0.4603 -0.4785
  396MOL0     C53348   2.229  10.472  11.631 -0.2742 -0.6638  0.2354
  396MOL0     O53349   2.116  10.546  11.683  0.6347  0.2427 -0.4295
  396MOL0     C53350   2.104  10.534  11.818  0.2700  0.5656  0.2011
  396MOL0     C53351   2.120  10.649  11.891  0.1336  0.5259  0.7068
  396MOL0     C53352   2.141  10.648  12.033  0.3308  0.0131 -0.1341
  396MOL0     C53353   2.182  10.785  12.095  0.8935 -0.4490 -0.6827
  396MOL0     C53354   2.147  10.517  12.100 -0.4772  0.0118  0.9057
  396MOL0     C53355   2.172  10.503  12.243  0.1470 -0.0535  0.0909
  396MOL0     O53356   2.237  10.382  12.279  0.3179  0.1832  0.0357
  396MOL0     C53357   2.285  10.381  12.411 -0.4629 -0.0334  0.6066
  396MOL0     C53358   2.411  10.439  12.428  0.0216 -0.1044 -0.0299
  396MOL0     C53359   2.481  10.421  12.554  0.0307 -0.2263  0.0129
  396MOL0     C53360   2.422  10.344  12.655 -0.5722  0.7490 -0.3199
  396MOL0     O53361   2.471  10.309  12.785 -0.0063 -0.0518  0.7583
  396MOL0     C53362   2.601  10.347  12.816 -0.3665 -0.0161  0.3007
  396MOL0     C53363   2.694  10.235  12.766  0.0325  0.1076  0.2869
  396MOL0     C53364   2.650  10.096  12.822 -0.7135 -0.1762 -1.2564
  396MOL0     C53365   2.577  10.008  12.718  0.1294 -0.6683  0.6413
  396MOL0     C53366   2.509   9.890  12.776 -0.3591 -0.1105  0.8372
  396MOL0     C53367   2.440   9.804  12.666 -0.5087  0.0596 -0.1063
  396MOL0     C53368   2.366   9.686  12.718 -0.4456  0.7362 -0.2527
  396MOL0     C53369   2.269   9.631  12.606 -0.2401  0.3800 -1.4473
  396MOL0    Cl53370   2.379   9.556  12.491  0.2227  0.3867  0.3535
  396MOL0     C53371   2.287  10.301  12.640  0.5876 -0.3623  0.1180
  396MOL0     C53372   2.223  10.313  12.517 -0.4222  0.1569 -0.0217
  396MOL0     O53373   2.158  10.593  12.330  0.6603 -0.4553  0.0489
  396MOL0     C53374   2.132  10.404  12.022 -1.1057  0.7951  0.7266
  396MOL0     C53375   2.106  10.413  11.888 -0.1210  0.0929 -0.2474
  396MOL0     N53376   1.961  10.632  11.208 -0.1614  0.3277  0.5511
  396MOL0     N53377   1.873  10.642  11.108 -0.3246 -0.8850 -0.2944
  396MOL0     C53378   1.990  10.519   9.783  0.2168 -0.7148  0.2793
  396MOL0     C53379   2.059  10.584   9.676 -0.0861 -0.8830 -0.3082
  396MOL0     C53380   2.141  10.780   9.273 -0.2985 -0.2683 -0.9922
  396MOL0     C53381   2.115  10.782   9.139  0.3867  0.0944  1.3940
  396MOL0     C53382   2.227  10.786   9.052 -0.0413  0.5904  1.4131
  396MOL0     C53383   2.361  10.798   9.090 -0.6171 -0.6311 -0.7634
  396MOL0     O53384   2.460  10.800   8.995  0.6378 -0.4192  0.3994
  396MOL0     C53385   2.595  10.825   9.026 -0.1812 -0.1906 -0.5623
  396MOL0     C53386   2.686  10.818   8.901 -0.2339  1.1708  0.7966
  396MOL0     C53387   2.622  10.897   8.782 -0.7061  0.4374  0.4551
  396MOL0     C53388   2.592  11.044   8.811 -0.5162 -0.4257 -0.6889
  396MOL0     C53389   2.510  11.100   8.705 -0.5751 -0.8248  0.0754
  396MOL0     C53390   2.442  11.161   8.624  0.6087 -0.4839 -0.6076
  396MOL0     C53391   2.380  10.818   9.229 -0.3862 -0.7402 -0.0229
  396MOL0     C53392   2.273  10.797   9.319  0.2139 -0.2961  0.0736
  396MOL0     H53393   1.818  10.790   9.563  2.0329  0.1712 -0.0750
  396MOL0     H53394   1.702  10.693   9.727 -0.0352  0.1637 -3.2249
  396MOL0     H53395   1.945  10.403  10.022 -0.8272 -1.2200 -1.6751
  396MOL0     H53396   1.923  10.580  10.039 -1.6175 -0.0751 -0.3182
  396MOL0     H53397   1.691  10.526  10.148  1.5459  2.9784  2.2148
  396MOL0     H53398   1.751  10.355  10.136  1.6637  0.2921 -3.2652
  396MOL0     H53399   1.936  10.403  10.274 -1.0010 -1.0238  0.7883
  396MOL0     H53400   1.894  10.579  10.248 -0.5755 -0.3752 -0.5846
  396MOL0     H53401   1.717  10.562  10.420  1.3989  1.2762  2.6847
  396MOL0     H53402   1.728  10.384  10.424  3.2868 -1.5337  0.8956
  396MOL0     H53403   1.922  10.381  10.535  1.0494 -0.5150 -2.3281
  396MOL0     H53404   1.948  10.561  10.512 -0.6972  1.5624  0.2468
  396MOL0     H53405   1.752  10.611  10.658  0.3458  0.0657 -1.3257
  396MOL0     H53406   1.702  10.443  10.658 -0.6708  0.7242  1.5375
  396MOL0     H53407   1.919  10.391  10.782 -0.4710  0.1954 -2.9035
  396MOL0     H53408   1.958  10.565  10.767 -1.0872  0.2434 -1.8154
  396MOL0     H53409   1.737  10.435  10.932  1.0319 -1.5029 -0.9805
  396MOL0     H53410   1.739  10.614  10.907 -0.8681 -0.9646  1.5843
  396MOL0     H53411   2.051  10.403  10.986 -0.6923 -0.4600  0.2794
  396MOL0     H53412   2.200  10.385  11.238  1.5035  0.5308 -1.8647
  396MOL0     H53413   2.238  10.561  11.242 -0.7387 -0.1213  0.6483
  396MOL0     H53414   2.069  10.376  11.422 -0.8982 -0.3330  0.3717
  396MOL0     H53415   2.051  10.547  11.433  0.6988  0.1867 -0.6047
  396MOL0     H53416   2.296  10.592  11.476  0.0694 -0.1388  2.4004
  396MOL0     H53417   2.320  10.412  11.452 -0.3762 -1.4346  1.1138
  396MOL0     H53418   2.320  10.515  11.674 -0.1278  1.4248 -1.9501
  396MOL0     H53419   2.223  10.366  11.661 -1.1740 -0.6036  0.3007
  396MOL0     H53420   2.116  10.743  11.837 -1.8784 -1.9485 -4.0174
  396MOL0     H53421   2.267  10.766  12.162 -0.2156 -0.2247  0.8415
  396MOL0     H53422   2.210  10.856  12.017 -1.9473  1.3160 -0.2304
  396MOL0     H53423   2.103  10.833  12.154  2.7023 -0.1982  1.7089
  396MOL0     H53424   2.456  10.465  12.332  0.0956 -3.3278 -1.0026
  396MOL0     H53425   2.580  10.462  12.570  0.4032 -1.7421  1.9730
  396MOL0     H53426   2.623  10.442  12.767 -1.0142 -0.4999 -0.9584
  396MOL0     H53427   2.618  10.366  12.922  4.0306  1.9727 -0.5429
  396MOL0     H53428   2.690  10.240  12.657 -1.4974  1.0330  0.3521
  396MOL0     H53429   2.797  10.265  12.787  1.1034  0.2544 -4.1351
  396MOL0     H53430   2.583  10.125  12.903 -1.3118  0.7413 -2.0731
  396MOL0     H53431   2.738  10.041  12.859  0.3382  2.2491  0.1282
  396MOL0     H53432   2.499  10.063  12.664  0.8488 -3.0666 -3.2411
  396MOL0     H53433   2.652   9.983  12.642  1.8037 -0.1932  2.0848
  396MOL0     H53434   2.437   9.924  12.850 -0.4520  3.3365 -0.6714
  396MOL0     H53435   2.583   9.821  12.820 -0.4278  0.6703  2.2163
  396MOL0     H53436   2.385   9.870  12.599 -0.7038 -1.7811 -1.8673
  396MOL0     H53437   2.530   9.787  12.607 -0.1065 -0.0913  0.5422
  396MOL0     H53438   2.303   9.721  12.801  1.7649 -0.0057  1.8834
  396MOL0     H53439   2.431   9.604  12.750 -1.4315 -0.3586 -0.9877
  396MOL0     H53440   2.210   9.710  12.560  0.5974  2.3293  0.6386
  396MOL0     H53441   2.204   9.558  12.656  0.4246  1.4867  1.1986
  396MOL0     H53442   2.234  10.255  12.723 -1.4961  1.6791  0.0464
  396MOL0     H53443   2.121  10.279  12.503 -0.8795  2.2748 -2.7239
  396MOL0     H53444   2.143  10.305  12.065  0.7163  1.6596  2.4192
  396MOL0     H53445   2.110  10.320  11.832  0.3436  1.4799 -2.6729
  396MOL0     H53446   2.057  10.458   9.844  0.7461 -2.3620 -1.8520
  396MOL0     H53447   2.165  10.567   9.661  0.4660 -0.5060  2.6052
  396MOL0     H53448   2.012  10.778   9.105  0.2935 -1.9024  1.8121
  396MOL0     H53449   2.206  10.780   8.945  1.4148  1.0151  1.0897
  396MOL0     H53450   2.594  10.924   9.073  2.2628 -0.0030 -0.8101
  396MOL0     H53451   2.627  10.752   9.100 -2.6847 -1.6055 -0.7591
  396MOL0     H53452   2.699  10.716   8.864  0.9392  2.0101 -1.2690
  396MOL0     H53453   2.783  10.864   8.918  0.7100  0.9214 -3.0037
  396MOL0     H53454   2.534  10.841   8.750  0.6255 -2.2292  1.1692
  396MOL0     H53455   2.686  10.887   8.693 -1.6736  1.2190 -0.3544
  396MOL0     H53456   2.678  11.110   8.799 -2.0848  2.0725  0.7618
  396MOL0     H53457   2.545  11.062   8.909 -0.2727  0.6600 -0.7653
  396MOL0     H53458   2.382  11.202   8.545 -1.0231  0.0941  0.8694
  396MOL0     H53459   2.484  10.833   9.257  0.5629 -1.7101 -2.7118
  396MOL0     H53460   2.296  10.786   9.425 -0.3401 -2.2421  0.0235
  397MOL0     O53461   8.122   9.826   8.549  0.3513 -0.5171 -0.1142
  397MOL0     C53462   8.194   9.922   8.580  0.4223  0.4593  0.3009
  397MOL0     O53463   8.165  10.009   8.685  0.4861 -0.2333  0.3227
  397MOL0     C53464   8.055   9.984   8.764  0.6467  1.1171  0.7628
  397MOL0     C53465   7.929  10.017   8.710  0.2022 -0.6326 -0.5731
  397MOL0     C53466   7.810   9.996   8.784 -1.6471 -0.7586  0.2596
  397MOL0     C53467   7.816   9.930   8.903 -0.0824  0.0491  0.2856
  397MOL0     O53468   7.702   9.918   8.971 -0.4728  0.1260 -0.3699
  397MOL0     C53469   7.664   9.786   9.009  0.4244  0.2733  0.3542
  397MOL0     C53470   7.513   9.785   9.054 -0.8511  0.0234  0.9066
  397MOL0     C53471   7.427   9.872   8.961 -0.1104 -0.5338  0.1281
  397MOL0     C53472   7.283   9.827   8.987  0.7819  0.5634 -1.1006
  397MOL0     C53473   7.176   9.886   8.894  0.5012 -0.4489 -0.0662
  397MOL0     C53474   7.052   9.803   8.904 -0.5280  0.0098 -0.4908
  397MOL0     C53475   6.947   9.873   8.809 -0.0408 -0.0773 -0.1385
  397MOL0     C53476   6.962   9.826   8.660  0.1188  0.6938 -0.2196
  397MOL0     N53477   6.846   9.856   8.580  0.0910  0.1697  0.2941
  397MOL0     C53478   6.775   9.771   8.499  0.7547 -0.3439  0.1867
  397MOL0     C53479   6.662   9.837   8.454 -0.4669  0.7857  0.0366
  397MOL0     C53480   6.545   9.778   8.377 -0.2084 -1.0357 -0.2510
  397MOL0     C53481   6.401   9.844   8.411 -0.1717 -0.0699  0.3073
  397MOL0     C53482   6.380   9.988   8.370 -0.3867 -0.4543  0.0178
  397MOL0     C53483   6.356   9.999   8.223  0.3628 -1.4139  0.1434
  397MOL0     O53484   6.282  10.121   8.176 -0.1678 -0.3218  0.2419
  397MOL0     C53485   6.145  10.133   8.193  0.2997 -0.5162 -0.0975
  397MOL0     C53486   6.088  10.260   8.183 -0.1335 -1.0382 -0.6822
  397MOL0     C53487   5.949  10.281   8.196  1.1472 -0.9141 -0.3567
  397MOL0     C53488   5.907  10.414   8.153  0.3035  0.2956 -0.2195
  397MOL0     C53489   5.863  10.179   8.230  0.8132  0.2502  0.3339
  397MOL0     C53490   5.710  10.193   8.221  0.4876 -0.2570  0.1184
  397MOL0     O53491   5.648  10.106   8.305 -1.0817  0.2007 -0.1228
  397MOL0     C53492   5.518  10.111   8.347 -0.2923 -0.0126 -0.2251
  397MOL0     C53493   5.409  10.136   8.258 -0.8027  0.3574 -1.3787
  397MOL0     C53494   5.280  10.135   8.307 -1.0074 -0.1712  0.3380
  397MOL0     C53495   5.260  10.123   8.448  0.6536  0.4218  0.6558
  397MOL0     O53496   5.137  10.115   8.514  0.8005  0.1608  0.2725
  397MOL0     C53497   5.021  10.177   8.452 -0.0283  0.6946  0.6706
  397MOL0     C53498   4.904  10.202   8.546 -0.1093  0.6869 -0.2559
  397MOL0     C53499   4.817  10.295   8.472  0.2904 -1.5419  0.2332
  397MOL0     C53500   4.686  10.308   8.559  1.6328  0.7983 -0.7619
  397MOL0     C53501   4.581  10.390   8.493  0.7156  0.0908 -0.1566
  397MOL0     C53502   4.607  10.535   8.475  1.0036 -0.5591 -0.4573
  397MOL0     C53503   4.481  10.597   8.413  0.5697 -0.0158 -0.3172
  397MOL0     C53504   4.474  10.753   8.439 -0.5067 -1.1729 -0.0223
  397MOL0    Cl53505   4.488  10.809   8.620  0.6968 -0.3772  0.3203
  397MOL0     C53506   5.374  10.107   8.534 -0.6752  0.0928 -0.3441
  397MOL0     C53507   5.499  10.109   8.485 -0.1762 -0.6431 -0.2825
  397MOL0     O53508   5.647  10.270   8.147 -0.3950 -0.6250  1.2718
  397MOL0     C53509   5.928  10.063   8.274  0.9234 -1.1938  0.3178
  397MOL0     C53510   6.058  10.037   8.245 -1.0958  0.7107 -0.4209
  397MOL0     N53511   6.684   9.969   8.499 -0.8442 -0.6635  0.8199
  397MOL0     N53512   6.788   9.977   8.561 -1.1416  1.2252  0.3692
  397MOL0     C53513   7.938   9.884   8.954  0.4960  0.3138 -0.3751
  397MOL0     C53514   8.060   9.913   8.889  0.0470  0.8909 -0.1105
  397MOL0     C53515   8.312   9.941   8.504 -0.2847 -0.3305  0.1310
  397MOL0     C53516   8.423  10.015   8.549 -0.1390  0.2666  0.6850
  397MOL0     C53517   8.540  10.009   8.477 -0.2592 -0.5126  0.7225
  397MOL0     C53518   8.549   9.944   8.351  0.5614 -0.7385 -0.1846
  397MOL0     O53519   8.663   9.946   8.276 -0.0388 -0.0185 -0.0583
  397MOL0     C53520   8.747  10.054   8.274 -0.2189 -0.9553  0.4467
  397MOL0     C53521   8.841  10.042   8.143 -0.1720  0.1399 -0.3338
  397MOL0     C53522   8.966  10.121   8.172 -0.2969  0.2196 -0.4681
  397MOL0     C53523   9.044  10.135   8.044  0.0627  0.5029 -0.5190
  397MOL0     C53524   9.175  10.192   8.077 -0.7375  1.4782 -0.2894
  397MOL0     C53525   9.290  10.221   8.104  0.6935 -0.8005 -1.3970
  397MOL0     C53526   8.435   9.881   8.302 -0.1096  1.0260  0.3579
  397MOL0     C53527   8.320   9.877   8.382 -0.1764 -0.3576  0.2261
  397MOL0     H53528   7.906  10.082   8.626  0.1116  2.7825  1.8754
  397MOL0     H53529   7.717  10.036   8.744 -1.1548  0.4710  0.2889
  397MOL0     H53530   7.687   9.705   8.939  0.7810  2.1018 -1.7485
  397MOL0     H53531   7.721   9.767   9.100  2.1397 -1.0083 -0.9220
  397MOL0     H53532   7.494   9.678   9.041  0.1464 -0.1994  1.1849
  397MOL0     H53533   7.506   9.823   9.156  1.0519 -0.8564  1.4194
  397MOL0     H53534   7.447   9.979   8.974 -0.6541  0.2017 -3.8171
  397MOL0     H53535   7.448   9.848   8.857  0.2356 -3.4298  0.7809
  397MOL0     H53536   7.279   9.719   8.972 -1.0986 -0.4062  4.2758
  397MOL0     H53537   7.240   9.835   9.087 -1.8788  2.8117 -2.2986
  397MOL0     H53538   7.148   9.987   8.926 -0.7871  0.0769 -2.6029
  397MOL0     H53539   7.212   9.890   8.791 -1.2918 -2.5457 -0.8461
  397MOL0     H53540   7.072   9.700   8.876  1.1055  0.3553 -0.6733
  397MOL0     H53541   7.019   9.803   9.008  0.7097  0.1950 -0.0871
  397MOL0     H53542   6.845   9.863   8.848  0.7872  1.5105  2.7139
  397MOL0     H53543   6.960   9.981   8.809 -0.7825  0.0575 -1.9279
  397MOL0     H53544   6.983   9.719   8.656 -1.8676  0.3072 -2.1587
  397MOL0     H53545   7.043   9.882   8.612 -1.6182  1.0873 -2.8567
  397MOL0     H53546   6.795   9.667   8.477  0.5657  0.2332 -3.1912
  397MOL0     H53547   6.559   9.792   8.269  0.6678  2.4765  0.2154
  397MOL0     H53548   6.536   9.671   8.399 -1.3070 -0.5000  2.1588
  397MOL0     H53549   6.389   9.830   8.519  0.5896  0.6289  0.4954
  397MOL0     H53550   6.325   9.784   8.361  0.5365  0.4398 -1.4424
  397MOL0     H53551   6.461  10.052   8.405 -2.5288 -0.0616  5.2071
  397MOL0     H53552   6.289  10.023   8.421  0.8993  0.4911  1.7820
  397MOL0     H53553   6.310   9.909   8.181  2.2558 -1.6489 -1.6015
  397MOL0     H53554   6.449   9.989   8.166 -1.2227 -1.7996 -2.5502
  397MOL0     H53555   6.150  10.345   8.158 -1.8588  1.8574  3.7852
  397MOL0     H53556   5.876  10.407   8.048 -0.0391 -1.9683 -0.0289
  397MOL0     H53557   5.809  10.437   8.196  1.7139  1.2956  2.7211
  397MOL0     H53558   5.978  10.488   8.189 -0.6918  1.2054 -0.0786
  397MOL0     H53559   5.421  10.153   8.152 -0.4842  0.3737 -1.3423
  397MOL0     H53560   5.187  10.154   8.255 -1.6749  1.3070  1.9721
  397MOL0     H53561   5.061  10.270   8.410  1.9613 -0.0569  0.7626
  397MOL0     H53562   4.994  10.109   8.371 -1.7518 -0.4147  2.0884
  397MOL0     H53563   4.852  10.107   8.560 -0.8838  0.2709 -4.5554
  397MOL0     H53564   4.945  10.238   8.641  3.0119 -0.3480 -1.1102
  397MOL0     H53565   4.802  10.267   8.367  1.7596 -1.1781 -0.0918
  397MOL0     H53566   4.867  10.393   8.477  3.0939 -2.8728  0.2173
  397MOL0     H53567   4.644  10.209   8.575  2.7127  0.7061  2.0847
  397MOL0     H53568   4.719  10.347   8.656  0.4295  0.2475 -0.1134
  397MOL0     H53569   4.498  10.369   8.561  0.2651 -0.2061 -0.7859
  397MOL0     H53570   4.569  10.326   8.405 -0.5499  0.4087 -0.2382
  397MOL0     H53571   4.621  10.590   8.568  2.6495  2.3849 -2.2685
  397MOL0     H53572   4.693  10.550   8.408 -0.9672  3.5094 -2.4480
  397MOL0     H53573   4.403  10.553   8.476 -0.1249 -1.3994 -2.0590
  397MOL0     H53574   4.460  10.575   8.308 -1.0701 -2.4230  0.4275
  397MOL0     H53575   4.377  10.783   8.399  0.3300  0.6045 -0.8102
  397MOL0     H53576   4.544  10.810   8.379 -1.8881  1.0013  0.3250
  397MOL0     H53577   5.366  10.096   8.642  2.6496 -0.7169 -0.0815
  397MOL0     H53578   5.577  10.090   8.558 -1.1350  1.6724  1.4823
  397MOL0     H53579   5.878   9.987   8.333  0.9931 -1.6994 -0.2578
  397MOL0     H53580   6.102   9.944   8.278 -0.6447  0.9876 -0.2279
  397MOL0     H53581   7.925   9.834   9.049 -0.2340  3.2631  1.2043
  397MOL0     H53582   8.156   9.887   8.933  0.8449  1.0730 -1.6746
  397MOL0     H53583   8.414  10.057   8.648  3.1887 -2.8894  2.5580
  397MOL0     H53584   8.632  10.054   8.514 -0.2477 -1.2529  1.6501
  397MOL0     H53585   8.691  10.147   8.272  1.5807  0.1817 -0.3343
  397MOL0     H53586   8.810  10.059   8.363  3.0366  2.3428 -1.7076
  397MOL0     H53587   8.798  10.088   8.053 -0.6999  1.4669  0.5550
  397MOL0     H53588   8.872   9.938   8.129 -0.9591 -0.0094 -1.0890
  397MOL0     H53589   9.026  10.072   8.250  0.0809  0.5137 -0.5719
  397MOL0     H53590   8.932  10.219   8.206  0.4602  0.0544  0.8359
  397MOL0     H53591   9.000  10.193   7.962 -0.1591  0.3945 -0.4787
  397MOL0     H53592   9.056  10.032   8.010 -1.0194 -0.7032  2.4786
  397MOL0     H53593   9.389  10.255   8.126  1.1005 -2.0160 -1.2729
  397MOL0     H53594   8.440   9.835   8.204 -2.3942  3.4060 -0.9858
  397MOL0     H53595   8.240   9.811   8.354 -1.1514  0.6675  0.5035
  398MOL0     O53596   9.607   1.115   7.255  0.4624 -1.0252  0.6581
  398MOL0     C53597   9.649   1.047   7.347 -0.0803 -0.0597 -0.0020
  398MOL0     O53598   9.695   1.087   7.468 -0.0670  0.2505 -0.1462
  398MOL0     C53599   9.722   1.222   7.475  0.1421  0.5372  0.2932
  398MOL0     C53600   9.838   1.275   7.438 -0.2473  0.4005 -0.3319
  398MOL0     C53601   9.852   1.414   7.429 -0.1709  0.0791 -0.2637
  398MOL0     C53602   9.750   1.493   7.463 -0.2382  0.0004 -0.3362
  398MOL0     O53603   9.756   1.626   7.469  0.4333  0.2136 -0.3876
  398MOL0     C53604   9.868   1.708   7.451  0.3165 -0.0959 -0.0878
  398MOL0     C53605   9.905   1.789   7.575 -0.2264 -0.5872  0.1763
  398MOL0     C53606   9.806   1.899   7.605 -0.0495 -0.3165 -0.8984
  398MOL0     C53607   9.869   2.008   7.690 -0.1785  0.1074  0.4985
  398MOL0     C53608   9.767   2.056   7.793  0.6933 -0.7207  0.1319
  398MOL0     C53609   9.647   2.135   7.725  0.2170 -0.0962  0.0187
  398MOL0     C53610   9.684   2.267   7.657 -0.1025  0.5980 -0.2613
  398MOL0     C53611   9.657   2.379   7.758  0.1454 -0.5498  0.8864
  398MOL0     N53612   9.712   2.518   7.726 -0.7726  0.1093  0.9521
  398MOL0     C53613   9.846   2.543   7.720 -0.6298  0.9662  0.0778
  398MOL0     C53614   9.864   2.677   7.697  1.0689 -0.6167  0.5877
  398MOL0     C53615   9.993   2.738   7.671 -0.3571 -0.5836  0.0305
  398MOL0     C53616  10.089   2.716   7.789  0.0195 -0.7946  0.0227
  398MOL0     C53617  10.047   2.768   7.929 -0.5239  0.3702 -1.0622
  398MOL0     C53618  10.031   2.922   7.926 -0.2841 -0.8314 -0.0851
  398MOL0     O53619  10.154   2.986   7.872 -0.1204  0.6071 -0.1538
  398MOL0     C53620  10.258   3.000   7.964 -0.5154  1.1579 -0.1018
  398MOL0     C53621  10.386   3.009   7.908  0.9648  0.3690  0.0763
  398MOL0     C53622  10.508   3.010   7.979  0.5350 -1.0055  0.3619
  398MOL0     C53623  10.628   3.042   7.898  0.2911  0.9805 -0.1229
  398MOL0     C53624  10.499   2.996   8.125  1.4299 -0.2670  0.3205
  398MOL0     C53625  10.616   2.991   8.208  0.0151  0.5587  0.2946
  398MOL0     O53626  10.595   2.975   8.342  0.7624  0.7663 -0.6446
  398MOL0     C53627  10.700   2.918   8.412  1.6914 -0.0860 -0.3487
  398MOL0     C53628  10.767   2.800   8.382  0.0038  0.1945 -0.3109
  398MOL0     C53629  10.881   2.764   8.462  0.0904  0.9474  0.7066
  398MOL0     C53630  10.913   2.828   8.585  0.1768 -0.1946 -0.2404
  398MOL0     O53631  11.010   2.805   8.685  0.0220  0.0231 -0.0709
  398MOL0     C53632  11.082   2.676   8.666  0.6590  0.3285  0.5598
  398MOL0     C53633  11.175   2.683   8.792 -0.2965 -0.6018  0.3419
  398MOL0     C53634  11.295   2.792   8.763  0.0207  0.6050  0.0419
  398MOL0     C53635  11.409   2.738   8.690 -0.1886  0.7514 -0.1551
  398MOL0     C53636  11.509   2.845   8.648  0.1052  0.0125  0.1507
  398MOL0     C53637  11.651   2.784   8.654 -0.3235  0.5187 -1.3768
  398MOL0     C53638  11.761   2.896   8.657 -0.1677  0.0735 -0.1161
  398MOL0     C53639  11.869   2.841   8.762 -0.4752 -0.3645  0.3143
  398MOL0    Cl53640  11.997   2.957   8.786 -0.6446  0.0594 -0.3778
  398MOL0     C53641  10.832   2.940   8.619 -0.1295  0.1675 -0.2615
  398MOL0     C53642  10.726   2.976   8.537 -0.9991 -1.0807  0.0830
  398MOL0     O53643  10.723   2.987   8.156 -0.2903  0.4769 -0.0906
  398MOL0     C53644  10.368   2.986   8.180 -0.0200  0.1379  0.3392
  398MOL0     C53645  10.254   2.992   8.102 -0.2726  0.1526 -0.0641
  398MOL0     N53646   9.736   2.738   7.707  0.4073 -0.8461  0.5689
  398MOL0     N53647   9.643   2.642   7.723  0.1149 -0.8214  0.4117
  398MOL0     C53648   9.634   1.443   7.511  0.1654  0.7314  0.5977
  398MOL0     C53649   9.616   1.303   7.518  0.0369 -0.3685 -0.3467
  398MOL0     C53650   9.683   0.906   7.319  0.0326 -0.7161 -0.0051
  398MOL0     C53651   9.704   0.806   7.420  0.4235 -0.6754  0.3983
  398MOL0     C53652   9.758   0.685   7.392 -0.4478  0.3116  0.0300
  398MOL0     C53653   9.784   0.644   7.263 -0.2454  0.0671 -0.8411
  398MOL0     O53654   9.831   0.518   7.242  0.0674 -0.3287  0.3602
  398MOL0     C53655   9.879   0.476   7.112 -0.5277  0.0289  0.2129
  398MOL0     C53656   9.981   0.367   7.139 -0.1406  0.3923  0.9495
  398MOL0     C53657  10.121   0.428   7.152 -0.5556 -0.3867 -0.5985
  398MOL0     C53658  10.244   0.328   7.164  0.1056 -0.4031  0.1675
  398MOL0     C53659  10.316   0.325   7.032 -0.3882 -0.9324 -0.5788
  398MOL0     C53660  10.357   0.335   6.923 -0.1423  0.5381 -0.0314
  398MOL0     C53661   9.768   0.741   7.160  0.5954  0.6684 -1.0483
  398MOL0     C53662   9.730   0.870   7.188  0.2872  0.2573  0.8525
  398MOL0     H53663   9.923   1.211   7.418 -0.4258 -0.4329  1.4180
  398MOL0     H53664   9.941   1.453   7.380 -0.0221 -0.9471 -0.8392
  398MOL0     H53665   9.954   1.650   7.418 -1.2299 -2.1219 -0.7625
  398MOL0     H53666   9.849   1.784   7.374 -1.9760  0.6048  1.0830
  398MOL0     H53667   9.903   1.721   7.660 -0.4705 -0.6365  0.1317
  398MOL0     H53668  10.009   1.821   7.559 -0.0932 -0.3960  1.3544
  398MOL0     H53669   9.765   1.947   7.515 -1.8066  0.8200  0.4332
  398MOL0     H53670   9.717   1.856   7.652 -0.3897 -1.8167 -2.7995
  398MOL0     H53671   9.954   1.970   7.749  0.7119 -3.0428 -2.4632
  398MOL0     H53672   9.919   2.085   7.631 -0.7817 -1.9435 -2.9561
  398MOL0     H53673   9.728   1.973   7.853  3.2783 -1.7109  0.5663
  398MOL0     H53674   9.815   2.123   7.865 -1.7866 -0.3745  1.6018
  398MOL0     H53675   9.610   2.073   7.643 -0.0686 -0.5860  0.5126
  398MOL0     H53676   9.563   2.153   7.793 -2.0202 -0.1484 -2.5933
  398MOL0     H53677   9.790   2.277   7.631 -0.0494  1.3528  0.2110
  398MOL0     H53678   9.627   2.281   7.565 -1.4536  1.2622  0.6506
  398MOL0     H53679   9.714   2.351   7.847  1.3719 -0.8731  0.0256
  398MOL0     H53680   9.550   2.387   7.778  0.1187 -1.0895  0.9816
  398MOL0     H53681   9.920   2.463   7.724  0.7082  1.8154 -3.5721
  398MOL0     H53682  10.035   2.691   7.581 -0.5985 -1.5644  0.4209
  398MOL0     H53683   9.977   2.845   7.654  0.5166 -0.2154  1.3762
  398MOL0     H53684  10.181   2.771   7.765 -0.3145 -0.0791  0.3605
  398MOL0     H53685  10.123   2.614   7.805 -0.2446 -1.2762 -2.2239
  398MOL0     H53686  10.123   2.740   8.003 -0.1631  2.5664 -0.5339
  398MOL0     H53687   9.954   2.715   7.947 -0.3558  0.3279 -0.3071
  398MOL0     H53688   9.994   2.956   8.022  0.1895  0.1493 -0.2375
  398MOL0     H53689   9.953   2.957   7.858  0.8811 -0.4193 -1.2706
  398MOL0     H53690  10.378   3.015   7.800  0.0896 -0.6453  0.0640
  398MOL0     H53691  10.685   2.952   7.877 -2.5029 -0.7104 -0.9943
  398MOL0     H53692  10.601   3.090   7.803  0.6822  1.4040 -0.0269
  398MOL0     H53693  10.690   3.116   7.949 -0.8830  1.8071  0.1603
  398MOL0     H53694  10.756   2.757   8.283 -0.3453  0.9688 -0.6140
  398MOL0     H53695  10.931   2.686   8.406 -2.4642 -1.0799  1.0901
  398MOL0     H53696  11.014   2.590   8.662 -0.6474  1.3622 -0.1910
  398MOL0     H53697  11.148   2.676   8.579  0.6538  0.1190  0.5549
  398MOL0     H53698  11.127   2.727   8.880  2.9507 -3.0510  3.6440
  398MOL0     H53699  11.217   2.588   8.826  2.3498 -0.0834 -1.1751
  398MOL0     H53700  11.328   2.811   8.865 -0.6979  1.4078  0.1347
  398MOL0     H53701  11.253   2.882   8.719  0.6719 -0.2079 -2.4204
  398MOL0     H53702  11.444   2.660   8.759 -0.2734  0.0715 -0.8669
  398MOL0     H53703  11.380   2.699   8.592 -0.9003 -0.6163  0.5857
  398MOL0     H53704  11.513   2.925   8.722  1.4474  1.8014 -1.7605
  398MOL0     H53705  11.496   2.881   8.546  2.6690 -2.6367 -1.2589
  398MOL0     H53706  11.651   2.733   8.751 -2.6740 -1.3456 -2.2712
  398MOL0     H53707  11.668   2.713   8.573  2.0260 -0.7227  0.0973
  398MOL0     H53708  11.728   2.987   8.707 -0.0437  0.1400 -0.1551
  398MOL0     H53709  11.799   2.916   8.557  3.1618 -1.1113  0.7600
  398MOL0     H53710  11.906   2.748   8.719  0.4962 -0.0636  0.4810
  398MOL0     H53711  11.822   2.822   8.859 -0.5808  1.9579  0.7972
  398MOL0     H53712  10.870   2.997   8.703 -0.2829  0.8170 -0.6288
  398MOL0     H53713  10.676   3.071   8.557  3.4853  1.8387 -1.0515
  398MOL0     H53714  10.370   2.965   8.286 -2.1842 -0.6306  0.2795
  398MOL0     H53715  10.165   2.976   8.162 -0.0706  2.8893  1.1295
  398MOL0     H53716   9.544   1.495   7.543  0.2289 -0.1630  2.3825
  398MOL0     H53717   9.514   1.264   7.524 -1.1015  1.9634 -2.7454
  398MOL0     H53718   9.679   0.834   7.522  0.5006  0.1481  0.1982
  398MOL0     H53719   9.758   0.602   7.461 -0.2002  1.2933  1.2575
  398MOL0     H53720   9.798   0.438   7.050  0.6274 -0.3619 -1.0883
  398MOL0     H53721   9.918   0.557   7.050  1.4331 -2.0616 -1.4002
  398MOL0     H53722   9.980   0.310   7.046 -4.5765  1.1331  0.3285
  398MOL0     H53723   9.956   0.297   7.219  1.2664  1.9240  2.8266
  398MOL0     H53724  10.103   0.474   7.249  2.5244 -1.3403  0.5309
  398MOL0     H53725  10.143   0.510   7.083  0.8808  2.0427  2.5190
  398MOL0     H53726  10.196   0.230   7.174  0.5457 -1.5418 -5.2844
  398MOL0     H53727  10.309   0.346   7.250 -0.5550 -1.9997  1.0361
  398MOL0     H53728  10.415   0.340   6.833  0.5301 -1.7056  0.2340
  398MOL0     H53729   9.785   0.704   7.060 -2.0303 -0.9931 -0.9858
  398MOL0     H53730   9.740   0.931   7.099 -2.1433 -0.3985  0.0356
  399MOL0     O53731   9.575   5.493   1.432 -0.7946 -0.1785 -0.3561
  399MOL0     C53732   9.584   5.380   1.384 -0.6505 -0.3540 -0.5802
  399MOL0     O53733   9.478   5.293   1.350  0.7957  0.0372  0.4315
  399MOL0     C53734   9.362   5.367   1.348 -0.1100 -0.0371  0.4080
  399MOL0     C53735   9.329   5.489   1.280  1.1940 -0.1636 -0.0859
  399MOL0     C53736   9.191   5.530   1.271 -0.1130  0.3907 -0.6879
  399MOL0     C53737   9.092   5.459   1.330  0.6580 -1.1769  0.1634
  399MOL0     O53738   8.963   5.498   1.303  0.1418 -0.3815 -0.0647
  399MOL0     C53739   8.879   5.463   1.411 -0.1541 -0.1799  0.1461
  399MOL0     C53740   8.754   5.555   1.409 -0.2900 -0.2300 -0.3995
  399MOL0     C53741   8.797   5.695   1.410  0.3336 -0.4095 -0.2186
  399MOL0     C53742   8.670   5.784   1.438  0.7442  0.1158 -0.0201
  399MOL0     C53743   8.705   5.908   1.512 -0.1828  0.6495 -0.0938
  399MOL0     C53744   8.591   5.979   1.583  0.3593 -0.6918  0.4913
  399MOL0     C53745   8.647   6.087   1.681  0.0795 -0.1968 -0.3323
  399MOL0     C53746   8.532   6.150   1.754  0.2155  0.4326  0.7668
  399MOL0     N53747   8.590   6.233   1.871 -0.5444  0.0290 -0.5075
  399MOL0     C53748   8.678   6.337   1.857 -0.1067  0.8222 -0.0467
  399MOL0     C53749   8.692   6.400   1.981 -0.3756  1.2819  0.9628
  399MOL0     C53750   8.765   6.527   2.001 -1.4552  1.2289 -0.0311
  399MOL0     C53751   8.911   6.493   2.016  0.0841 -0.7160  0.3117
  399MOL0     C53752   8.975   6.497   2.160  0.0579 -0.1043  0.0425
  399MOL0     C53753   8.895   6.408   2.246  0.7052 -0.0910 -0.8199
  399MOL0     O53754   8.987   6.382   2.359 -0.0709  0.0891 -0.6089
  399MOL0     C53755   8.927   6.374   2.478  0.3497 -0.1787 -0.3550
  399MOL0     C53756   8.788   6.338   2.505  0.3638 -0.6635 -0.5635
  399MOL0     C53757   8.734   6.325   2.636  0.2586  0.3048 -0.5753
  399MOL0     C53758   8.599   6.269   2.648  0.0505 -0.1171 -0.3673
  399MOL0     C53759   8.822   6.350   2.745  0.3343  1.1022 -1.3751
  399MOL0     C53760   8.773   6.341   2.891 -0.1405  0.0049  0.1594
  399MOL0     O53761   8.883   6.352   2.985  0.4649  0.0830 -0.4487
  399MOL0     C53762   8.854   6.379   3.122 -0.5679  0.3920 -0.4163
  399MOL0     C53763   8.736   6.438   3.166 -0.4654 -0.5504 -0.1434
  399MOL0     C53764   8.716   6.453   3.304  0.9869 -0.0012 -0.1174
  399MOL0     C53765   8.812   6.405   3.399  0.0578 -0.5087 -0.1025
  399MOL0     O53766   8.773   6.422   3.525 -0.0694  0.0474 -0.4524
  399MOL0     C53767   8.857   6.386   3.635 -0.2952 -0.7391 -0.3037
  399MOL0     C53768   8.813   6.471   3.748  0.0046 -0.2274 -0.4236
  399MOL0     C53769   8.837   6.616   3.720 -0.0643  0.3883 -0.2446
  399MOL0     C53770   8.991   6.644   3.735 -0.1883 -0.8872  0.8801
  399MOL0     C53771   9.028   6.788   3.693 -0.5793  0.1799  0.6526
  399MOL0     C53772   8.942   6.897   3.734  0.1721  0.2012  0.7474
  399MOL0     C53773   8.923   6.917   3.879  0.5392  0.3553  0.2688
  399MOL0     C53774   8.796   7.004   3.905  0.1235 -0.5097  0.3956
  399MOL0    Cl53775   8.640   6.913   3.873  0.2049 -0.1869  0.5032
  399MOL0     C53776   8.930   6.347   3.353  0.5487  0.0682  0.2777
  399MOL0     C53777   8.952   6.332   3.217  0.6621 -0.4749  0.4141
  399MOL0     O53778   8.653   6.327   2.914 -0.6811  0.1971 -0.4381
  399MOL0     C53779   8.954   6.403   2.718 -0.1105 -0.4803 -0.7504
  399MOL0     C53780   9.006   6.409   2.590  0.3031 -0.3269 -0.6019
  399MOL0     N53781   8.610   6.335   2.070  0.7510  0.8599  0.5659
  399MOL0     N53782   8.548   6.237   2.001  0.6982  0.7771 -1.0893
  399MOL0     C53783   9.130   5.347   1.412  0.3192  0.5022 -0.3612
  399MOL0     C53784   9.262   5.305   1.417  0.6398 -0.1130  0.1723
  399MOL0     C53785   9.719   5.313   1.403 -0.2134  0.2780  0.3254
  399MOL0     C53786   9.745   5.184   1.358 -0.0696  0.8158  0.3885
  399MOL0     C53787   9.866   5.124   1.398  0.0953 -1.1129 -0.5736
  399MOL0     C53788   9.956   5.187   1.475  0.2074 -0.1512 -1.5047
  399MOL0     O53789  10.072   5.121   1.523 -0.0330 -0.4445 -0.4171
  399MOL0     C53790  10.121   5.002   1.468 -0.6465  0.8127 -0.3261
  399MOL0     C53791  10.195   4.941   1.579 -0.6213  0.3756  0.4746
  399MOL0     C53792  10.247   4.795   1.544 -1.0408  0.1874  0.1909
  399MOL0     C53793  10.371   4.743   1.626  0.2988 -0.6529  0.7020
  399MOL0     C53794  10.408   4.612   1.589  0.4132 -0.1957  0.3191
  399MOL0     C53795  10.431   4.499   1.565 -0.2818  0.6383  0.4915
  399MOL0     C53796   9.937   5.322   1.509 -0.0189 -0.6500 -0.4441
  399MOL0     C53797   9.818   5.384   1.468 -1.2223 -0.7516  0.6873
  399MOL0     H53798   9.411   5.528   1.220  2.9789 -4.1505 -0.5365
  399MOL0     H53799   9.160   5.616   1.211  1.7742  0.3385 -1.7913
  399MOL0     H53800   8.837   5.363   1.401  0.9394 -0.4309 -3.1377
  399MOL0     H53801   8.931   5.474   1.507 -2.2547  0.3245  1.2911
  399MOL0     H53802   8.699   5.534   1.317  0.9900 -1.2690 -0.9528
  399MOL0     H53803   8.684   5.526   1.488 -0.7403 -1.3846 -1.1902
  399MOL0     H53804   8.870   5.713   1.490 -0.0747  2.3722 -0.3626
  399MOL0     H53805   8.835   5.736   1.316  0.0200  1.1286  0.2979
  399MOL0     H53806   8.617   5.808   1.345 -0.5799 -0.1876  0.6361
  399MOL0     H53807   8.600   5.736   1.506  1.7142  1.2800  1.8824
  399MOL0     H53808   8.784   5.884   1.583 -0.7417  0.5571  0.5024
  399MOL0     H53809   8.746   5.968   1.429 -2.3176  1.2263 -0.7937
  399MOL0     H53810   8.530   6.029   1.507  0.1238 -1.9464 -0.1729
  399MOL0     H53811   8.532   5.906   1.638 -2.2353 -1.2075 -2.6958
  399MOL0     H53812   8.708   6.037   1.756 -1.1200 -1.8056 -0.3659
  399MOL0     H53813   8.709   6.150   1.618  2.3317 -2.7198 -0.8373
  399MOL0     H53814   8.449   6.091   1.793 -1.3043  1.7178 -0.4046
  399MOL0     H53815   8.482   6.223   1.691 -0.5952 -2.8197 -2.7288
  399MOL0     H53816   8.726   6.346   1.760 -1.2013  0.1633 -0.6762
  399MOL0     H53817   8.748   6.581   1.908 -1.1985 -1.0750 -1.4886
  399MOL0     H53818   8.728   6.581   2.089 -3.9986  1.0734 -0.9366
  399MOL0     H53819   8.963   6.572   1.961 -1.2873  1.4020  1.9303
  399MOL0     H53820   8.935   6.400   1.963  1.9244  0.7746 -1.6388
  399MOL0     H53821   8.967   6.599   2.200  0.8206 -0.3209  0.7694
  399MOL0     H53822   9.082   6.474   2.155  0.7605  2.4580  1.1832
  399MOL0     H53823   8.880   6.314   2.193 -0.1943  0.6246 -1.8914
  399MOL0     H53824   8.796   6.450   2.268  0.1536 -1.5487 -0.3979
  399MOL0     H53825   8.733   6.321   2.412 -0.2732 -2.7906  0.1304
  399MOL0     H53826   8.565   6.228   2.553  0.5456  1.5001 -1.2930
  399MOL0     H53827   8.603   6.183   2.716  0.8745 -0.3138 -0.6538
  399MOL0     H53828   8.522   6.342   2.674 -0.6161 -0.0149 -2.4793
  399MOL0     H53829   8.655   6.474   3.104  0.0273 -0.3383 -0.6763
  399MOL0     H53830   8.626   6.510   3.326  1.4048  1.2254 -1.4320
  399MOL0     H53831   8.838   6.283   3.667 -0.2674 -1.1753 -1.6380
  399MOL0     H53832   8.964   6.401   3.618 -0.5812  1.0078 -0.7543
  399MOL0     H53833   8.705   6.457   3.759  0.0411 -1.2485 -1.2192
  399MOL0     H53834   8.847   6.439   3.847 -4.2708  0.5527  1.4962
  399MOL0     H53835   8.787   6.672   3.800  2.3525  2.6115 -0.1446
  399MOL0     H53836   8.793   6.655   3.628 -2.5683 -1.7187 -0.0669
  399MOL0     H53837   9.028   6.628   3.837  2.8250 -0.5768 -0.0750
  399MOL0     H53838   9.057   6.585   3.671 -0.5759  1.3661 -1.7922
  399MOL0     H53839   9.021   6.786   3.583  2.1390  1.9679  0.3412
  399MOL0     H53840   9.134   6.807   3.711  0.1879  0.6869 -3.3229
  399MOL0     H53841   8.994   6.984   3.691  3.1671 -2.5756 -1.8552
  399MOL0     H53842   8.844   6.894   3.686 -0.4380 -0.4486  1.9995
  399MOL0     H53843   9.014   6.966   3.915  0.1905  0.4670  1.0161
  399MOL0     H53844   8.918   6.821   3.931 -0.9726 -1.2856 -2.6882
  399MOL0     H53845   8.805   7.088   3.835  3.3882 -1.0964 -0.0797
  399MOL0     H53846   8.786   7.046   4.006 -3.3866 -0.7047  0.2390
  399MOL0     H53847   8.999   6.314   3.431 -2.1198  0.8686  3.1507
  399MOL0     H53848   9.044   6.284   3.187  0.8666 -0.2270  0.6428
  399MOL0     H53849   9.020   6.445   2.794  0.5825 -1.4096 -0.8205
  399MOL0     H53850   9.111   6.437   2.591 -0.1261  1.7990 -3.4738
  399MOL0     H53851   9.053   5.284   1.455  1.2167 -0.6227 -0.3830
  399MOL0     H53852   9.274   5.215   1.475 -3.1199  0.2917  1.8497
  399MOL0     H53853   9.663   5.137   1.305  0.8550  0.7596 -1.0757
  399MOL0     H53854   9.884   5.019   1.378  1.0817 -0.4884 -3.2969
  399MOL0     H53855  10.050   4.927   1.431  0.7406  0.0795 -1.6145
  399MOL0     H53856  10.186   5.024   1.382  1.3994 -1.2297  0.5859
  399MOL0     H53857  10.130   4.936   1.666 -4.0935 -3.4930 -1.9219
  399MOL0     H53858  10.273   5.014   1.602 -1.9733  1.4995  1.7028
  399MOL0     H53859  10.283   4.793   1.440  2.5977 -2.3696  1.2862
  399MOL0     H53860  10.168   4.720   1.537 -2.3584  1.5926 -0.4467
  399MOL0     H53861  10.340   4.735   1.731  0.2774 -3.5152  0.5600
  399MOL0     H53862  10.443   4.826   1.624 -0.6331  0.1576 -0.4957
  399MOL0     H53863  10.473   4.403   1.542  0.5523  1.7793 -3.5307
  399MOL0     H53864  10.017   5.368   1.566 -0.0609 -0.8397 -0.2329
  399MOL0     H53865   9.814   5.490   1.487 -1.5658 -0.9628  1.9363
  400MOL0     O53866   2.128   4.520   5.324  0.1844  0.1976  1.0328
  400MOL0     C53867   2.024   4.581   5.340 -0.7767 -0.4248 -0.1234
  400MOL0     O53868   2.010   4.703   5.393  0.3836 -0.0841 -0.6417
  400MOL0     C53869   2.103   4.786   5.442 -0.5772  0.2830 -0.4308
  400MOL0     C53870   2.237   4.763   5.473  0.0745 -0.0048 -0.7519
  400MOL0     C53871   2.315   4.877   5.511 -0.1480 -0.3319 -0.8668
  400MOL0     C53872   2.254   4.992   5.552 -0.5791 -0.5437 -0.2279
  400MOL0     O53873   2.342   5.094   5.586 -0.6846  0.2886 -0.2613
  400MOL0     C53874   2.290   5.229   5.602 -0.3581  0.9348 -0.3919
  400MOL0     C53875   2.410   5.321   5.608  0.3618 -0.3154  0.0230
  400MOL0     C53876   2.513   5.298   5.497 -0.7745 -0.1314  0.7384
  400MOL0     C53877   2.638   5.391   5.525  0.3758  0.7437  0.6398
  400MOL0     C53878   2.739   5.398   5.409  0.5715  0.4689  0.6861
  400MOL0     C53879   2.813   5.270   5.384 -0.0875 -0.3492  0.5273
  400MOL0     C53880   2.916   5.287   5.276 -0.7690 -0.1398 -0.8310
  400MOL0     C53881   2.975   5.156   5.218 -0.3560  0.3124 -0.9665
  400MOL0     N53882   2.892   5.081   5.136  0.8970  0.4069 -0.2926
  400MOL0     C53883   2.827   5.137   5.030  0.1858 -0.1405 -0.3980
  400MOL0     C53884   2.826   5.043   4.934  0.3172  0.1372  0.2736
  400MOL0     C53885   2.762   5.059   4.800  0.3579  0.5456 -0.1872
  400MOL0     C53886   2.826   5.155   4.692 -0.5565 -0.6774 -0.1884
  400MOL0     C53887   2.848   5.300   4.735 -0.4462 -1.2745 -0.5252
  400MOL0     C53888   2.904   5.385   4.624  0.6206  0.8428 -0.5234
  400MOL0     O53889   2.997   5.472   4.688  0.2966 -0.0619  0.2249
  400MOL0     C53890   3.006   5.597   4.626  0.0853  0.2613 -0.5988
  400MOL0     C53891   2.995   5.623   4.490 -0.1135  0.4668  0.1182
  400MOL0     C53892   3.013   5.742   4.429 -0.9578 -1.4622 -1.0620
  400MOL0     C53893   3.002   5.745   4.282 -0.3006 -0.4052 -0.1292
  400MOL0     C53894   3.042   5.852   4.514  0.7684  0.0336 -0.2301
  400MOL0     C53895   3.067   5.994   4.468 -0.1831 -1.3854 -0.6559
  400MOL0     O53896   3.023   6.089   4.561 -0.3204  0.2994 -0.9723
  400MOL0     C53897   3.003   6.208   4.498 -0.4574 -0.3228 -0.1315
  400MOL0     C53898   2.883   6.238   4.441  0.8028 -1.1987 -0.0502
  400MOL0     C53899   2.856   6.364   4.373  0.0196  0.5898  0.0577
  400MOL0     C53900   2.952   6.463   4.365 -0.1512 -0.3529 -0.2832
  400MOL0     O53901   2.917   6.585   4.310 -0.5560 -0.3841  0.0931
  400MOL0     C53902   3.015   6.685   4.264 -0.2519  0.3592  0.4286
  400MOL0     C53903   2.954   6.831   4.271 -0.7365  1.1148 -0.1487
  400MOL0     C53904   2.876   6.865   4.148 -0.7387 -0.2162 -0.0993
  400MOL0     C53905   2.797   7.000   4.148 -0.1802  0.0665 -0.5716
  400MOL0     C53906   2.692   7.007   4.040 -0.2103  0.0365 -0.5321
  400MOL0     C53907   2.581   7.108   4.072  1.2292  0.0553 -0.0765
  400MOL0     C53908   2.628   7.254   4.095 -1.3562  0.1502  0.4306
  400MOL0     C53909   2.695   7.322   3.972  0.2182  0.4571  0.5363
  400MOL0    Cl53910   2.765   7.489   4.015 -0.4601 -0.2739 -0.1860
  400MOL0     C53911   3.074   6.431   4.422  0.7870 -0.4857  0.3893
  400MOL0     C53912   3.103   6.307   4.480  0.8878  0.2163 -0.6184
  400MOL0     O53913   3.113   6.022   4.356  0.1108 -0.2711  0.3311
  400MOL0     C53914   3.048   5.840   4.649  0.8137  0.7765 -0.3773
  400MOL0     C53915   3.036   5.710   4.711 -0.2599  0.5637 -0.3047
  400MOL0     N53916   2.873   4.925   4.985 -1.0775  0.1960 -0.3523
  400MOL0     N53917   2.917   4.952   5.104 -0.4334  0.2842  0.1147
  400MOL0     C53918   2.119   5.004   5.540 -0.2723  0.8157 -0.1076
  400MOL0     C53919   2.046   4.900   5.490  1.3586 -0.5081 -0.0137
  400MOL0     C53920   1.885   4.522   5.313 -0.1170 -0.6575  0.4641
  400MOL0     C53921   1.872   4.383   5.293 -0.4412  0.6629  0.0332
  400MOL0     C53922   1.743   4.325   5.266  0.4702  0.5588 -0.2248
  400MOL0     C53923   1.627   4.411   5.281 -0.1235 -0.0899  0.4870
  400MOL0     O53924   1.506   4.355   5.241  0.0626 -0.5299 -0.3496
  400MOL0     C53925   1.456   4.237   5.294  0.6950  0.4667  0.6280
  400MOL0     C53926   1.321   4.257   5.346 -0.9126 -0.6507  0.3672
  400MOL0     C53927   1.224   4.299   5.243  0.0427  0.3691  1.0812
  400MOL0     C53928   1.096   4.210   5.248 -0.2153  0.5205  0.6582
  400MOL0     C53929   0.982   4.259   5.174 -0.5615 -0.3411 -0.6988
  400MOL0     C53930   0.896   4.307   5.115 -0.1345 -0.8916  0.1329
  400MOL0     C53931   1.641   4.550   5.306 -0.7162  0.0643 -0.0175
  400MOL0     C53932   1.769   4.605   5.327 -0.0630  0.0578  0.3282
  400MOL0     H53933   2.271   4.661   5.463 -3.5244 -1.3192 -1.1393
  400MOL0     H53934   2.423   4.870   5.523  0.2083 -1.1968 -3.7953
  400MOL0     H53935   2.221   5.263   5.525  2.3854  2.4508 -2.3664
  400MOL0     H53936   2.226   5.226   5.690 -2.0621 -3.5608 -1.5312
  400MOL0     H53937   2.366   5.422   5.612  0.7504  0.0002 -2.2690
  400MOL0     H53938   2.455   5.308   5.706  2.4867  0.2469 -0.8263
  400MOL0     H53939   2.530   5.190   5.497 -2.2082 -0.4014  1.8499
  400MOL0     H53940   2.463   5.335   5.407 -0.8554 -0.8138  0.4929
  400MOL0     H53941   2.605   5.492   5.552 -1.5788  0.6310 -1.0302
  400MOL0     H53942   2.685   5.337   5.608 -3.1938  0.2834  2.5267
  400MOL0     H53943   2.678   5.425   5.322 -0.4921 -0.2015  1.1963
  400MOL0     H53944   2.804   5.481   5.439  0.1053  0.3890  1.9965
  400MOL0     H53945   2.878   5.255   5.471  1.0170  3.7129  0.6157
  400MOL0     H53946   2.746   5.187   5.358 -0.0914 -0.2677  0.2755
  400MOL0     H53947   2.864   5.346   5.201 -0.7066  2.8223  1.3058
  400MOL0     H53948   2.999   5.351   5.308  0.2625 -1.2266 -1.2498
  400MOL0     H53949   3.003   5.092   5.302 -0.9519  1.3249  0.0389
  400MOL0     H53950   3.068   5.173   5.163 -1.1088  1.2271 -2.0010
  400MOL0     H53951   2.794   5.240   5.023  0.7704  0.2702  1.9862
  400MOL0     H53952   2.745   4.961   4.756 -1.5077  0.5038  0.5119
  400MOL0     H53953   2.659   5.086   4.828  0.8689  0.1037  2.3593
  400MOL0     H53954   2.761   5.159   4.604 -2.6199 -1.6549  1.2164
  400MOL0     H53955   2.919   5.111   4.655 -0.2440  0.4051 -0.7059
  400MOL0     H53956   2.906   5.300   4.828 -2.1919 -4.0508  0.6679
  400MOL0     H53957   2.754   5.353   4.751  1.0436  1.6753 -0.7295
  400MOL0     H53958   2.830   5.428   4.555  1.8646  1.0263 -1.7960
  400MOL0     H53959   2.965   5.327   4.554 -1.6242 -0.2529 -1.6953
  400MOL0     H53960   2.965   5.544   4.421  1.5881  0.4141 -0.6012
  400MOL0     H53961   3.060   5.825   4.235  0.7448 -1.8575 -1.4361
  400MOL0     H53962   3.056   5.656   4.248  0.8212  0.8744 -1.8356
  400MOL0     H53963   2.900   5.735   4.245  0.3163  1.0089 -2.3508
  400MOL0     H53964   2.807   6.160   4.442 -0.1742 -0.2602  0.3064
  400MOL0     H53965   2.755   6.379   4.337 -1.1569 -0.6128  2.5742
  400MOL0     H53966   3.087   6.688   4.346  0.6211 -1.1228 -0.2353
  400MOL0     H53967   3.073   6.662   4.175 -2.2245 -0.0428 -0.8156
  400MOL0     H53968   2.880   6.835   4.352  0.2394 -2.3019  1.0906
  400MOL0     H53969   3.038   6.900   4.283  0.7881 -0.7200  0.1830
  400MOL0     H53970   2.802   6.787   4.130 -1.8901  0.7634  0.2410
  400MOL0     H53971   2.945   6.866   4.064 -1.2405 -0.5726 -0.5213
  400MOL0     H53972   2.754   7.009   4.248  1.8626 -2.6158  0.6463
  400MOL0     H53973   2.862   7.088   4.140 -0.1022  0.3182  2.0761
  400MOL0     H53974   2.640   6.911   4.033  0.5815 -0.5536  1.2620
  400MOL0     H53975   2.736   7.032   3.943 -1.3335  3.8896 -0.2324
  400MOL0     H53976   2.504   7.101   3.995 -0.0038 -2.0838  1.2509
  400MOL0     H53977   2.540   7.078   4.169 -1.1690 -0.8838 -1.2948
  400MOL0     H53978   2.703   7.250   4.175 -1.1169 -0.6279  0.1775
  400MOL0     H53979   2.542   7.308   4.136 -0.8885  2.0058 -0.9066
  400MOL0     H53980   2.614   7.324   3.898  1.4290  0.3608 -0.8236
  400MOL0     H53981   2.775   7.255   3.941 -0.0335 -0.8855  2.5861
  400MOL0     H53982   3.146   6.512   4.420  0.9608 -0.5329 -3.4586
  400MOL0     H53983   3.200   6.282   4.522  0.1748 -1.2618  0.2359
  400MOL0     H53984   3.052   5.924   4.718 -0.7132 -0.4023  1.2348
  400MOL0     H53985   3.049   5.684   4.816  0.5885  0.8780 -0.3308
  400MOL0     H53986   2.064   5.095   5.562 -1.1318  0.2802  0.0067
  400MOL0     H53987   1.939   4.899   5.471  1.6207 -0.9686 -1.6350
  400MOL0     H53988   1.965   4.334   5.268 -1.7456 -1.1135 -1.7081
  400MOL0     H53989   1.722   4.224   5.231  1.6519  0.1294  0.2454
  400MOL0     H53990   1.448   4.172   5.207 -2.7748  4.2137 -2.2736
  400MOL0     H53991   1.517   4.196   5.375 -1.2115 -3.1383  0.3954
  400MOL0     H53992   1.335   4.316   5.437  1.2835 -2.4330  1.2883
  400MOL0     H53993   1.296   4.162   5.395  0.4325 -1.4209 -0.3752
  400MOL0     H53994   1.263   4.283   5.142  0.1877 -2.3936  1.5034
  400MOL0     H53995   1.197   4.405   5.250  0.6535  0.6624 -0.5295
  400MOL0     H53996   1.076   4.178   5.350  0.0522  0.4008  0.6738
  400MOL0     H53997   1.131   4.130   5.182 -2.9928  0.9965 -1.5852
  400MOL0     H53998   0.811   4.356   5.071 -0.8677 -1.0710  1.3182
  400MOL0     H53999   1.559   4.621   5.316 -0.1169  0.6938  0.5518
  400MOL0     H54000   1.774   4.711   5.351 -2.8875  0.4431 -0.5060
  401MOL0     O54001   6.843   1.250   3.351  0.2736 -0.6582  0.1104
  401MOL0     C54002   6.824   1.191   3.246 -0.8515  0.7451 -0.1267
  401MOL0     O54003   6.905   1.205   3.131  0.0115  0.0176 -0.2303
  401MOL0     C54004   7.009   1.292   3.153 -0.0152  1.0117 -0.3009
  401MOL0     C54005   6.988   1.432   3.164 -0.7393 -0.0673 -0.0507
  401MOL0     C54006   7.089   1.511   3.204 -0.2136 -0.6563  0.4619
  401MOL0     C54007   7.219   1.462   3.235  0.1225  0.3479  0.4551
  401MOL0     O54008   7.308   1.554   3.275  0.4760  0.3316  0.1022
  401MOL0     C54009   7.441   1.520   3.310  0.2847 -0.4558  0.0883
  401MOL0     C54010   7.530   1.498   3.189 -0.0985 -1.0966 -0.3442
  401MOL0     C54011   7.619   1.621   3.185  0.7259  0.2086  0.4796
  401MOL0     C54012   7.669   1.643   3.040 -0.3297  0.2201  0.9090
  401MOL0     C54013   7.760   1.765   3.034  0.4053 -1.1860 -0.2272
  401MOL0     C54014   7.793   1.816   2.893 -0.5220  0.3069  1.1791
  401MOL0     C54015   7.882   1.727   2.810  0.3942  0.1104 -1.1883
  401MOL0     C54016   8.030   1.722   2.856 -0.8076 -0.1572 -0.1629
  401MOL0     N54017   8.079   1.856   2.873 -0.1990  0.3574  0.4076
  401MOL0     C54018   8.089   1.962   2.779 -0.2659  0.6266  0.2203
  401MOL0     C54019   8.137   2.065   2.847 -0.5847  0.9644 -0.1864
  401MOL0     C54020   8.169   2.199   2.776 -0.3246  0.2053 -0.6254
  401MOL0     C54021   8.030   2.258   2.719  0.5177  0.7490 -0.8682
  401MOL0     C54022   8.070   2.407   2.678 -1.2840  0.8641  0.5181
  401MOL0     C54023   7.960   2.486   2.619  0.3559  0.2476  0.4114
  401MOL0     O54024   7.924   2.415   2.494 -0.0807  0.0546 -0.2210
  401MOL0     C54025   7.806   2.445   2.431  0.3223 -0.2796  0.2838
  401MOL0     C54026   7.734   2.555   2.453  1.0311 -0.4617 -0.0820
  401MOL0     C54027   7.616   2.592   2.379  0.5361  0.7354  0.3350
  401MOL0     C54028   7.547   2.727   2.408  0.3603 -0.4995 -0.4518
  401MOL0     C54029   7.565   2.495   2.284 -0.1750 -0.0824  0.4402
  401MOL0     C54030   7.443   2.514   2.199  0.8341 -1.1078 -0.2406
  401MOL0     O54031   7.361   2.627   2.215  0.2546 -0.3583  0.5606
  401MOL0     C54032   7.323   2.702   2.101 -0.9415 -0.4224  1.0017
  401MOL0     C54033   7.339   2.658   1.962  0.8355  0.0263  0.2143
  401MOL0     C54034   7.311   2.758   1.858 -0.2686  0.4441 -0.0613
  401MOL0     C54035   7.276   2.890   1.896 -0.9643  0.2192  0.2263
  401MOL0     O54036   7.254   2.980   1.791 -0.3846 -0.1323 -0.0786
  401MOL0     C54037   7.146   3.072   1.786  0.3785  0.3562 -0.3054
  401MOL0     C54038   7.133   3.123   1.650  1.0990 -0.1750  0.2918
  401MOL0     C54039   7.065   3.014   1.563 -0.6329  0.4361  0.1575
  401MOL0     C54040   6.908   3.016   1.548  0.4789 -0.6872 -0.6815
  401MOL0     C54041   6.864   2.949   1.425  0.4635 -0.3120 -0.6420
  401MOL0     C54042   6.721   2.992   1.403  0.0062  0.2055  0.6899
  401MOL0     C54043   6.658   2.946   1.273  0.6110 -0.0142 -1.1264
  401MOL0     C54044   6.507   2.953   1.269  0.1232  0.0803  0.1402
  401MOL0    Cl54045   6.470   2.930   1.101 -0.0669 -0.2834  0.0173
  401MOL0     C54046   7.258   2.923   2.032 -0.5211  0.1802 -0.4722
  401MOL0     C54047   7.283   2.833   2.129 -1.8093  0.4146  0.0519
  401MOL0     O54048   7.411   2.426   2.122 -0.2266  0.0350  0.4902
  401MOL0     C54049   7.644   2.378   2.259  0.7957  0.0333 -0.0417
  401MOL0     C54050   7.764   2.358   2.327  1.0096 -0.3854 -0.4720
  401MOL0     N54051   8.159   2.029   2.980  0.1746  0.3929  0.4760
  401MOL0     N54052   8.124   1.907   2.993  0.0618  0.1079  0.2751
  401MOL0     C54053   7.239   1.324   3.219 -0.7048  0.3897  0.1035
  401MOL0     C54054   7.135   1.238   3.181 -0.6613 -0.2864  1.1318
  401MOL0     C54055   6.705   1.105   3.240 -0.3034 -0.0233 -0.6396
  401MOL0     C54056   6.606   1.126   3.345  0.4320  0.4090  1.3419
  401MOL0     C54057   6.496   1.036   3.346 -0.0707 -0.0111  0.4785
  401MOL0     C54058   6.493   0.925   3.257 -0.5343  0.2920  0.1386
  401MOL0     O54059   6.380   0.838   3.260 -0.6702  0.6237 -0.3442
  401MOL0     C54060   6.297   0.836   3.384  0.0896 -0.6770  1.5135
  401MOL0     C54061   6.192   0.728   3.361  0.0647  0.8937 -1.0655
  401MOL0     C54062   6.165   0.664   3.497 -0.9927  1.0634  0.3085
  401MOL0     C54063   6.052   0.569   3.479 -0.7904  0.1325 -0.6494
  401MOL0     C54064   5.909   0.618   3.474  0.2478 -0.4808  0.4535
  401MOL0     C54065   5.799   0.671   3.473 -0.4443 -0.4543  0.8898
  401MOL0     C54066   6.588   0.910   3.157  0.1755 -0.8127 -0.5322
  401MOL0     C54067   6.695   0.998   3.142  0.5327 -0.1098  0.3610
  401MOL0     H54068   6.886   1.464   3.146 -1.3972 -2.2038 -0.4362
  401MOL0     H54069   7.072   1.618   3.199 -1.2418 -0.7019  2.2905
  401MOL0     H54070   7.474   1.605   3.370 -1.6161 -0.0587  0.6412
  401MOL0     H54071   7.443   1.433   3.377  2.5748  0.2456  1.0205
  401MOL0     H54072   7.602   1.416   3.191  1.1411 -0.0548 -0.4902
  401MOL0     H54073   7.461   1.479   3.106 -1.8331  0.1688  0.7309
  401MOL0     H54074   7.565   1.710   3.221 -1.3975 -0.8647  0.1079
  401MOL0     H54075   7.713   1.614   3.241  1.2982  0.4122 -0.4352
  401MOL0     H54076   7.729   1.559   3.004  0.3156  1.5182 -1.2211
  401MOL0     H54077   7.585   1.658   2.970 -0.0744 -2.4248 -0.0759
  401MOL0     H54078   7.706   1.849   3.079  2.1135 -1.2456  2.1373
  401MOL0     H54079   7.854   1.758   3.089  1.4771  2.6902 -1.2484
  401MOL0     H54080   7.692   1.818   2.852 -0.7287 -1.1437  1.5683
  401MOL0     H54081   7.834   1.918   2.901  2.0598 -0.5502  0.0759
  401MOL0     H54082   7.835   1.629   2.805  3.9354 -1.7510 -1.7244
  401MOL0     H54083   7.880   1.766   2.707  0.4275  1.5962 -0.6580
  401MOL0     H54084   8.085   1.666   2.779 -0.0044 -1.9419  1.6144
  401MOL0     H54085   8.031   1.668   2.951  3.1497  0.5311  0.3631
  401MOL0     H54086   8.069   1.969   2.672 -2.6223 -1.0045  0.4650
  401MOL0     H54087   8.210   2.275   2.843  1.3201  0.2954 -1.6470
  401MOL0     H54088   8.257   2.176   2.714  0.0236 -3.4676  0.9945
  401MOL0     H54089   7.961   2.259   2.803  1.6548  1.1730  0.0848
  401MOL0     H54090   7.980   2.201   2.639 -1.4917 -0.3756  1.0711
  401MOL0     H54091   8.155   2.405   2.610 -0.4089  0.2982  1.6004
  401MOL0     H54092   8.100   2.467   2.764 -2.9221  1.0136  1.0233
  401MOL0     H54093   7.988   2.591   2.611 -3.6811  1.3600 -1.1266
  401MOL0     H54094   7.865   2.491   2.673 -0.2000  0.3897 -0.5578
  401MOL0     H54095   7.758   2.625   2.532 -1.7132 -0.2719  0.7055
  401MOL0     H54096   7.571   2.764   2.509 -0.6968 -0.1098 -0.3306
  401MOL0     H54097   7.557   2.807   2.335  1.4368  0.5319  0.7635
  401MOL0     H54098   7.443   2.701   2.430  0.0145  1.8518  1.1167
  401MOL0     H54099   7.352   2.553   1.939  1.1030  0.0907  0.0644
  401MOL0     H54100   7.301   2.740   1.751  0.3284 -1.9512  0.2301
  401MOL0     H54101   7.048   3.028   1.810  1.2980 -1.2700  0.6114
  401MOL0     H54102   7.155   3.158   1.852 -1.5865  0.5845 -0.2742
  401MOL0     H54103   7.081   3.219   1.655  3.0196  0.8713  2.2350
  401MOL0     H54104   7.235   3.136   1.615  2.0994 -0.9423  2.6754
  401MOL0     H54105   7.094   2.912   1.593 -0.4651 -0.4792 -2.7607
  401MOL0     H54106   7.104   3.022   1.461  0.8681  1.4393  0.7774
  401MOL0     H54107   6.862   2.968   1.635  1.2458 -3.7184 -1.8460
  401MOL0     H54108   6.885   3.123   1.551  1.8022 -0.3881  1.4893
  401MOL0     H54109   6.869   2.840   1.425  0.9789 -0.4961  4.0360
  401MOL0     H54110   6.920   2.989   1.340 -1.0776  2.7273 -0.3748
  401MOL0     H54111   6.662   2.944   1.482 -1.4383  0.5487 -0.1476
  401MOL0     H54112   6.710   3.100   1.416 -3.5405 -0.2414  2.9472
  401MOL0     H54113   6.700   2.851   1.239  0.0011 -0.3924 -0.8364
  401MOL0     H54114   6.693   3.023   1.203 -0.5812  2.6916  1.0493
  401MOL0     H54115   6.475   3.056   1.291 -3.5114 -0.6988 -0.8130
  401MOL0     H54116   6.466   2.878   1.337 -2.0057 -2.1661 -3.3367
  401MOL0     H54117   7.227   3.026   2.047 -0.1706 -0.1008  2.7771
  401MOL0     H54118   7.291   2.862   2.234  2.4777 -1.4935  0.4377
  401MOL0     H54119   7.600   2.305   2.191  0.4220  0.3765 -0.1776
  401MOL0     H54120   7.810   2.262   2.310  0.1957 -0.8962  0.1277
  401MOL0     H54121   7.337   1.279   3.232 -1.3682 -0.4111  3.2989
  401MOL0     H54122   7.154   1.131   3.188 -0.4726 -0.3566 -0.2663
  401MOL0     H54123   6.604   1.213   3.411  1.5469  0.0556  1.8635
  401MOL0     H54124   6.407   1.052   3.407 -0.7933 -1.0635 -0.2565
  401MOL0     H54125   6.363   0.815   3.468  1.0327 -0.0388  0.9491
  401MOL0     H54126   6.248   0.933   3.399  2.3567  0.8253 -0.1012
  401MOL0     H54127   6.245   0.655   3.299  0.2869 -0.1629  0.3183
  401MOL0     H54128   6.098   0.775   3.332 -1.6623  1.1869  4.0504
  401MOL0     H54129   6.143   0.734   3.578 -0.1593  2.5119 -0.6519
  401MOL0     H54130   6.246   0.596   3.524 -1.4775  0.8345  1.2018
  401MOL0     H54131   6.063   0.502   3.564  2.1680  0.9089 -0.3299
  401MOL0     H54132   6.073   0.513   3.387  3.4566  0.7970 -0.2778
  401MOL0     H54133   5.696   0.698   3.475 -0.2764  0.1688  1.6205
  401MOL0     H54134   6.579   0.819   3.099 -1.8851 -1.4549  0.6963
  401MOL0     H54135   6.772   0.980   3.068 -0.9459  0.4393 -1.3788
  402MOL0     O54136   1.340   4.179   8.463 -0.5210  1.2425  0.0732
  402MOL0     C54137   1.451   4.230   8.473  0.3295  0.4597  0.5787
  402MOL0     O54138   1.479   4.356   8.430 -0.7739  0.4980 -0.4021
  402MOL0     C54139   1.401   4.431   8.348 -0.2983 -0.2545  0.1315
  402MOL0     C54140   1.269   4.406   8.307 -0.2736 -0.1023  0.0429
  402MOL0     C54141   1.215   4.484   8.201  0.2466  1.1075 -0.0379
  402MOL0     C54142   1.280   4.591   8.145 -0.0503  0.1718 -0.3992
  402MOL0     O54143   1.215   4.676   8.048 -0.7444  0.3756 -0.1943
  402MOL0     C54144   1.299   4.701   7.938  0.4439 -0.0480 -0.6427
  402MOL0     C54145   1.220   4.782   7.838  1.1688  0.0368 -0.2153
  402MOL0     C54146   1.153   4.903   7.907  0.5114 -1.4786  0.0816
  402MOL0     C54147   1.099   5.013   7.807 -0.4642 -0.0243  0.5834
  402MOL0     C54148   0.947   5.047   7.848 -0.2156  0.5637  0.0562
  402MOL0     C54149   0.858   5.112   7.744 -0.4192 -0.1470 -0.4556
  402MOL0     C54150   0.877   5.263   7.725  0.4966 -0.8061  0.1337
  402MOL0     C54151   0.735   5.330   7.719  0.6468 -1.1753  0.5868
  402MOL0     N54152   0.665   5.306   7.595 -0.3575  0.0890  0.4135
  402MOL0     C54153   0.591   5.197   7.549 -0.2204 -0.0020  0.3108
  402MOL0     C54154   0.548   5.223   7.426 -0.0805 -0.1246 -0.8484
  402MOL0     C54155   0.453   5.140   7.341  0.1266  0.2079 -0.2934
  402MOL0     C54156   0.517   5.014   7.307 -0.6550  0.8347  0.4896
  402MOL0     C54157   0.440   4.904   7.220  0.1353 -0.4633 -0.5437
  402MOL0     C54158   0.465   4.940   7.068  0.5065 -0.6977  0.3610
  402MOL0     O54159   0.385   4.837   6.997 -0.0353 -0.3501 -0.8597
  402MOL0     C54160   0.441   4.725   6.945 -0.1627  0.3424  0.7641
  402MOL0     C54161   0.568   4.674   6.979  0.6730  0.4998  0.3970
  402MOL0     C54162   0.610   4.548   6.930 -0.3827 -0.6620  0.4673
  402MOL0     C54163   0.740   4.494   6.989  0.7614 -0.1135 -0.7540
  402MOL0     C54164   0.536   4.487   6.824  0.6212  0.6411 -0.5841
  402MOL0     C54165   0.569   4.355   6.761 -0.1185  0.0576 -0.6196
  402MOL0     O54166   0.670   4.282   6.820 -0.5222  0.1712  0.0038
  402MOL0     C54167   0.684   4.145   6.797 -0.3025 -1.1853  0.3617
  402MOL0     C54168   0.677   4.090   6.668 -0.4840 -0.2668  0.2267
  402MOL0     C54169   0.712   3.951   6.660 -0.1406 -0.4748 -0.1686
  402MOL0     C54170   0.766   3.874   6.763  0.3575 -1.3596  0.6788
  402MOL0     O54171   0.790   3.743   6.741  0.1349 -0.6216  0.3544
  402MOL0     C54172   0.899   3.671   6.802 -0.1898  0.6469  0.4576
  402MOL0     C54173   0.871   3.511   6.801  0.6286 -1.4684  0.5415
  402MOL0     C54174   0.737   3.482   6.864  0.0524  0.3431  0.1233
  402MOL0     C54175   0.709   3.329   6.901  0.2604 -0.8632  0.3585
  402MOL0     C54176   0.564   3.284   6.888  0.5339  0.3955 -1.3364
  402MOL0     C54177   0.542   3.144   6.955 -0.8898  0.3301 -0.5980
  402MOL0     C54178   0.421   3.073   6.904  0.4162  0.6261 -0.1952
  402MOL0     C54179   0.439   2.922   6.905 -0.1411 -0.7918  0.0637
  402MOL0    Cl54180   0.499   2.857   6.747 -0.2956  0.1369  0.0308
  402MOL0     C54181   0.779   3.938   6.888 -0.3187 -0.1047  0.3598
  402MOL0     C54182   0.730   4.067   6.899 -0.0761 -0.9389 -0.5123
  402MOL0     O54183   0.499   4.327   6.667 -0.4721 -0.0975 -0.1453
  402MOL0     C54184   0.413   4.551   6.779  0.5544  0.7269 -1.0558
  402MOL0     C54185   0.362   4.656   6.850 -0.4365  0.6705 -0.4478
  402MOL0     N54186   0.601   5.348   7.386  0.2064  0.3344 -0.3909
  402MOL0     N54187   0.666   5.393   7.491 -0.2481 -0.2656  0.2784
  402MOL0     C54188   1.404   4.629   8.200  0.1734  0.6803  0.0877
  402MOL0     C54189   1.464   4.549   8.296 -0.8285  1.3731 -0.2386
  402MOL0     C54190   1.551   4.148   8.536 -0.1842 -0.1170 -0.6055
  402MOL0     C54191   1.521   4.025   8.590  0.2779 -0.4598 -0.0577
  402MOL0     C54192   1.609   3.947   8.663  0.2589  0.5769 -0.7223
  402MOL0     C54193   1.748   3.993   8.681  0.1069  0.0656 -0.2759
  402MOL0     O54194   1.842   3.931   8.747 -1.5065  0.1289 -0.4924
  402MOL0     C54195   1.830   3.843   8.860  1.2270  0.3242  0.2830
  402MOL0     C54196   1.795   3.910   8.991 -0.3849 -0.5762  0.9514
  402MOL0     C54197   1.897   4.016   9.030  0.4776  0.5815 -0.6513
  402MOL0     C54198   2.045   3.969   8.987 -0.4501 -0.6228 -0.0581
  402MOL0     C54199   2.151   4.052   9.058  0.2586  0.3004 -0.8593
  402MOL0     C54200   2.233   4.120   9.107 -0.3401  0.5069  0.1646
  402MOL0     C54201   1.778   4.118   8.621 -0.3291 -0.6129 -0.0711
  402MOL0     C54202   1.681   4.194   8.554 -0.3422  0.4691  0.7416
  402MOL0     H54203   1.210   4.327   8.351  0.6699  0.7824  3.0910
  402MOL0     H54204   1.121   4.461   8.152  0.8085  0.3621 -0.7905
  402MOL0     H54205   1.393   4.750   7.965  1.6593 -2.0725 -0.9544
  402MOL0     H54206   1.318   4.611   7.878  2.7301 -0.9649  1.2866
  402MOL0     H54207   1.276   4.820   7.751  2.6056 -1.6221 -0.0859
  402MOL0     H54208   1.143   4.710   7.806  2.3755 -0.9910 -0.9207
  402MOL0     H54209   1.071   4.882   7.977  0.1337  0.6061  0.3362
  402MOL0     H54210   1.230   4.952   7.966 -1.1884 -2.1362  3.0691
  402MOL0     H54211   1.162   5.102   7.811 -2.3009  1.3746 -0.0314
  402MOL0     H54212   1.108   4.983   7.702  1.4924  1.9304  0.1233
  402MOL0     H54213   0.908   4.945   7.860 -2.0174  1.4419  2.6848
  402MOL0     H54214   0.944   5.085   7.951 -2.2292 -0.9057  0.6103
  402MOL0     H54215   0.874   5.058   7.650  0.4782 -0.2091 -0.2821
  402MOL0     H54216   0.751   5.097   7.757 -0.2722 -3.1542 -1.7167
  402MOL0     H54217   0.928   5.296   7.816  0.7531  2.2378 -0.9901
  402MOL0     H54218   0.948   5.283   7.644 -0.5425 -1.5359 -0.9989
  402MOL0     H54219   0.751   5.437   7.740  1.9905 -1.4416  1.0468
  402MOL0     H54220   0.680   5.283   7.801 -0.7476  0.8656  0.8975
  402MOL0     H54221   0.564   5.117   7.617 -0.8543  3.0760  4.0171
  402MOL0     H54222   0.362   5.116   7.397  1.5658  0.2106  2.2249
  402MOL0     H54223   0.424   5.194   7.251 -2.3113  1.6684  1.2713
  402MOL0     H54224   0.569   4.966   7.390  1.5872  0.0757 -1.2514
  402MOL0     H54225   0.604   5.037   7.244  0.5362 -1.4436  1.2062
  402MOL0     H54226   0.333   4.908   7.240  0.4952 -0.5136  1.6420
  402MOL0     H54227   0.492   4.808   7.236 -4.6377 -3.2913 -0.1480
  402MOL0     H54228   0.573   4.938   7.051  0.1976 -1.0663 -1.8508
  402MOL0     H54229   0.424   5.038   7.045  2.8479  0.3605  0.4715
  402MOL0     H54230   0.625   4.731   7.053 -2.1443  4.9554 -0.4759
  402MOL0     H54231   0.812   4.488   6.907 -0.6183 -0.1341 -1.9960
  402MOL0     H54232   0.771   4.556   7.074 -3.2474 -0.2542  0.9975
  402MOL0     H54233   0.727   4.392   7.027 -1.3822  0.1427 -0.6796
  402MOL0     H54234   0.650   4.146   6.579  0.5016 -0.0975  0.0201
  402MOL0     H54235   0.720   3.898   6.565  3.1886 -1.3605  0.4789
  402MOL0     H54236   0.986   3.684   6.737  1.0395 -1.6977  1.4939
  402MOL0     H54237   0.918   3.708   6.903  2.1754 -0.5432  0.4989
  402MOL0     H54238   0.873   3.489   6.694  0.1508 -0.7918  0.3847
  402MOL0     H54239   0.943   3.451   6.857  0.8971 -1.3183  0.3577
  402MOL0     H54240   0.665   3.504   6.785 -1.0574 -2.0779  0.3714
  402MOL0     H54241   0.734   3.541   6.955  1.2285  0.9987 -0.2412
  402MOL0     H54242   0.765   3.272   6.826 -0.3936 -0.8418 -0.1534
  402MOL0     H54243   0.741   3.307   7.004  1.4225 -0.6323  0.0673
  402MOL0     H54244   0.538   3.273   6.782 -2.4785  2.2014 -0.8774
  402MOL0     H54245   0.491   3.350   6.934  0.8643 -1.4522  2.1582
  402MOL0     H54246   0.635   3.091   6.932  0.5519  2.2295  0.5862
  402MOL0     H54247   0.527   3.158   7.062 -1.3477  2.2645 -0.8845
  402MOL0     H54248   0.402   3.110   6.803  0.1055 -0.0434 -0.3848
  402MOL0     H54249   0.336   3.110   6.962 -0.0848  1.3956 -1.3858
  402MOL0     H54250   0.345   2.873   6.930 -0.2989 -2.9292 -3.9425
  402MOL0     H54251   0.509   2.888   6.982  2.4717  1.6149 -1.0399
  402MOL0     H54252   0.812   3.889   6.979  2.4640  3.0705  1.2579
  402MOL0     H54253   0.744   4.111   6.998  0.5960  1.4270 -1.5822
  402MOL0     H54254   0.337   4.506   6.716 -0.4830  1.5396 -0.4311
  402MOL0     H54255   0.270   4.698   6.810  1.1055  3.8171 -0.9461
  402MOL0     H54256   1.466   4.711   8.165  3.3805 -2.7087 -3.0540
  402MOL0     H54257   1.562   4.570   8.337  1.2984 -3.1440 -2.2334
  402MOL0     H54258   1.426   3.979   8.566  0.5167 -0.6299 -0.6897
  402MOL0     H54259   1.571   3.861   8.717  3.0503 -0.8619 -0.8583
  402MOL0     H54260   1.742   3.783   8.833  0.3993  2.3278 -1.7351
  402MOL0     H54261   1.907   3.766   8.873 -1.1275 -1.7217  3.8801
  402MOL0     H54262   1.790   3.832   9.068 -0.2840  0.6118  2.2027
  402MOL0     H54263   1.697   3.957   8.988 -0.5604 -0.8813 -2.5700
  402MOL0     H54264   1.887   4.034   9.137  1.9120 -2.7546  0.1561
  402MOL0     H54265   1.869   4.115   8.992 -1.6770  0.7201  1.1299
  402MOL0     H54266   2.059   3.967   8.879 -0.8447 -2.0857 -0.1003
  402MOL0     H54267   2.053   3.867   9.027  1.5849 -0.3081  0.4473
  402MOL0     H54268   2.302   4.179   9.163  0.0961  0.9595 -0.8206
  402MOL0     H54269   1.881   4.151   8.634 -0.7828  0.0242  2.3453
  402MOL0     H54270   1.713   4.292   8.522  2.1793 -0.7183 -0.6891
  403MOL0     O54271   7.771   9.663   5.692  0.4057 -0.7347 -0.0519
  403MOL0     C54272   7.851   9.591   5.756  0.8276  0.8203  0.2095
  403MOL0     O54273   7.932   9.625   5.855  0.1258 -0.1586 -0.1503
  403MOL0     C54274   7.965   9.759   5.893  0.9064 -0.1838  0.1561
  403MOL0     C54275   8.080   9.770   5.966 -0.6432 -0.6885  0.8223
  403MOL0     C54276   8.116   9.899   6.011 -0.2492 -1.5134  0.3837
  403MOL0     C54277   8.033  10.011   5.997 -0.3372  0.4525  0.0437
  403MOL0     O54278   8.061  10.135   6.043  0.8954 -0.3698  0.9942
  403MOL0     C54279   8.154  10.157   6.153  0.2680  0.3098 -0.0767
  403MOL0     C54280   8.088  10.134   6.292 -0.3705  0.6688 -0.2669
  403MOL0     C54281   7.934  10.147   6.299 -0.9279 -0.3331  0.3379
  403MOL0     C54282   7.867  10.273   6.229 -0.4696  0.1975 -0.2851
  403MOL0     C54283   7.890  10.405   6.300 -0.5913 -0.5056 -0.0215
  403MOL0     C54284   7.806  10.520   6.245 -0.6280 -0.6120  0.0714
  403MOL0     C54285   7.830  10.644   6.345 -0.7157  0.0363 -0.2803
  403MOL0     C54286   7.757  10.774   6.286  0.0150  0.4909  0.3309
  403MOL0     N54287   7.620  10.785   6.352 -0.2241  1.1351 -0.2432
  403MOL0     C54288   7.567  10.872   6.441  0.1149 -0.7780 -0.1688
  403MOL0     C54289   7.464  10.808   6.496  1.3691 -0.3148 -0.0172
  403MOL0     C54290   7.373  10.857   6.604  0.6358  0.1435  0.1280
  403MOL0     C54291   7.454  10.900   6.725  0.5381  0.1931 -1.0514
  403MOL0     C54292   7.553  10.787   6.785 -0.2091  0.0761 -0.0265
  403MOL0     C54293   7.585  10.810   6.933  0.3997 -0.5724  0.2369
  403MOL0     O54294   7.602  10.680   7.014 -0.7847 -0.2940 -0.0970
  403MOL0     C54295   7.630  10.687   7.151  0.1827 -0.2787  0.9984
  403MOL0     C54296   7.644  10.805   7.220 -0.6372 -0.0848  0.6847
  403MOL0     C54297   7.693  10.803   7.350  0.3807  0.2161  0.3969
  403MOL0     C54298   7.733  10.934   7.417  0.6839 -0.8086  0.8367
  403MOL0     C54299   7.708  10.677   7.413  0.2346  0.4049 -0.3241
  403MOL0     C54300   7.746  10.647   7.549 -1.0732  0.0306 -0.5587
  403MOL0     O54301   7.651  10.652   7.647  0.1396 -0.3905 -0.4504
  403MOL0     C54302   7.686  10.646   7.786  0.4168  0.1446  0.0885
  403MOL0     C54303   7.588  10.583   7.867 -0.4833 -0.2320  0.7056
  403MOL0     C54304   7.601  10.574   8.004  1.1261 -0.5001 -0.1501
  403MOL0     C54305   7.694  10.648   8.074  0.5671  0.4953  0.4141
  403MOL0     O54306   7.702  10.646   8.216 -0.7117 -0.1212  0.0495
  403MOL0     C54307   7.627  10.563   8.299  0.1732  0.2726 -1.0606
  403MOL0     C54308   7.664  10.589   8.446  0.0369 -0.2562 -0.7458
  403MOL0     C54309   7.797  10.520   8.470 -0.3982 -0.3362  0.6467
  403MOL0     C54310   7.833  10.518   8.623  0.4247  0.5145 -0.0449
  403MOL0     C54311   7.987  10.512   8.645 -0.1078  0.6904 -0.8486
  403MOL0     C54312   8.066  10.388   8.591  0.4101  0.4379  0.3042
  403MOL0     C54313   8.213  10.379   8.626 -1.1563 -0.6195 -0.1381
  403MOL0     C54314   8.299  10.453   8.522  0.3111  0.2096  0.0700
  403MOL0    Cl54315   8.469  10.435   8.569 -0.2525 -0.2673  0.1346
  403MOL0     C54316   7.791  10.703   8.000 -1.2970 -0.4799  0.3807
  403MOL0     C54317   7.802  10.699   7.856 -0.4750 -0.2531  0.2525
  403MOL0     O54318   7.865  10.620   7.563  0.6783  0.3110 -1.1679
  403MOL0     C54319   7.673  10.560   7.343 -0.0354 -0.5517  0.1057
  403MOL0     C54320   7.639  10.562   7.207 -0.0840  0.8708  0.4000
  403MOL0     N54321   7.426  10.701   6.411  0.5784  0.5416  0.4162
  403MOL0     N54322   7.525  10.684   6.327 -0.8084 -0.0171 -0.5105
  403MOL0     C54323   7.928   9.996   5.911  1.4820  0.0505 -0.0406
  403MOL0     C54324   7.880   9.875   5.870 -0.2992  0.7236  0.5389
  403MOL0     C54325   7.832   9.443   5.736 -0.0512 -0.0365  0.2636
  403MOL0     C54326   7.747   9.386   5.645 -0.4558  1.2252  1.1269
  403MOL0     C54327   7.721   9.247   5.641  0.3747 -0.2742  0.5216
  403MOL0     C54328   7.789   9.155   5.723 -0.2311  0.2196  0.2735
  403MOL0     O54329   7.776   9.020   5.719  0.5816  0.5424  0.5737
  403MOL0     C54330   7.714   8.953   5.597 -0.3523  0.1198 -0.3585
  403MOL0     C54331   7.805   8.863   5.521 -0.8093 -0.3967 -0.8155
  403MOL0     C54332   7.922   8.943   5.455 -0.1440 -0.3742 -1.0484
  403MOL0     C54333   8.015   8.864   5.370  0.0263  0.3078 -1.0168
  403MOL0     C54334   8.116   8.949   5.307 -1.1169  0.2868  0.7685
  403MOL0     C54335   8.209   9.008   5.256 -0.6103  1.0384 -0.1455
  403MOL0     C54336   7.880   9.221   5.810  0.1926  0.7983 -0.5937
  403MOL0     C54337   7.907   9.357   5.818  0.0223 -0.2605 -0.0123
  403MOL0     H54338   8.155   9.692   5.977 -0.2520 -0.5296 -0.4969
  403MOL0     H54339   8.209   9.904   6.065  0.0086 -1.0917 -0.0900
  403MOL0     H54340   8.243  10.096   6.136  0.8798  0.5980  1.9159
  403MOL0     H54341   8.173  10.264   6.144 -3.8081  1.4063  1.9668
  403MOL0     H54342   8.125  10.033   6.311  1.8831  1.3003 -1.0168
  403MOL0     H54343   8.145  10.199   6.358 -0.8547  0.8951 -0.0696
  403MOL0     H54344   7.889  10.061   6.248 -1.3176 -0.7689  1.3799
  403MOL0     H54345   7.903  10.143   6.404 -1.8757 -1.3197  0.0443
  403MOL0     H54346   7.901  10.283   6.125 -0.7022 -2.0882 -0.6417
  403MOL0     H54347   7.763  10.240   6.219 -0.6884 -0.3010  2.8223
  403MOL0     H54348   7.862  10.400   6.406  0.2118  2.1912  0.3926
  403MOL0     H54349   7.996  10.431   6.292 -0.5407 -0.9235 -0.8160
  403MOL0     H54350   7.858  10.545   6.152  0.4014  1.5145  1.1274
  403MOL0     H54351   7.700  10.495   6.246 -0.8079  0.0367 -1.1018
  403MOL0     H54352   7.793  10.618   6.445 -2.9250  2.9517 -0.2186
  403MOL0     H54353   7.934  10.671   6.365 -1.0982  0.8620  0.7156
  403MOL0     H54354   7.755  10.770   6.177  0.3426  1.5559  0.2713
  403MOL0     H54355   7.805  10.867   6.318 -2.8336  1.8076  1.1146
  403MOL0     H54356   7.617  10.961   6.475  1.9855 -2.8526  3.0162
  403MOL0     H54357   7.303  10.938   6.580  1.3571  0.5915 -0.5012
  403MOL0     H54358   7.313  10.769   6.629  0.9692 -0.1409 -0.0605
  403MOL0     H54359   7.388  10.920   6.810 -1.1363  1.8913 -2.6666
  403MOL0     H54360   7.519  10.981   6.690  0.9479 -0.3352 -1.5206
  403MOL0     H54361   7.642  10.788   6.721  1.8934 -2.9414  2.5537
  403MOL0     H54362   7.508  10.689   6.771 -0.4273  0.1834 -0.0794
  403MOL0     H54363   7.499  10.861   6.977  0.4906  2.5235 -2.7394
  403MOL0     H54364   7.663  10.885   6.946 -0.1886  0.3099 -1.1125
  403MOL0     H54365   7.622  10.896   7.164  0.5123 -0.5533 -0.5670
  403MOL0     H54366   7.712  10.919   7.523  0.1740 -3.4639  0.4336
  403MOL0     H54367   7.838  10.960   7.397 -0.1450  1.2194 -1.5184
  403MOL0     H54368   7.676  11.020   7.383  2.0365 -0.4436 -0.6696
  403MOL0     H54369   7.498  10.543   7.820  0.6048 -0.0309 -1.6397
  403MOL0     H54370   7.515  10.535   8.057 -0.5356 -2.0964 -3.6811
  403MOL0     H54371   7.520  10.583   8.292  0.5052  2.4628 -0.5341
  403MOL0     H54372   7.643  10.458   8.274  1.8291  0.6348 -1.6483
  403MOL0     H54373   7.672  10.696   8.467  2.3984 -0.2122 -1.5771
  403MOL0     H54374   7.580  10.561   8.510 -0.5419  3.2263  0.2686
  403MOL0     H54375   7.865  10.590   8.422 -0.3954  0.4911  1.7957
  403MOL0     H54376   7.791  10.423   8.421 -1.6203 -0.5034  1.0758
  403MOL0     H54377   7.781  10.596   8.679 -0.9793 -0.0841 -0.4682
  403MOL0     H54378   7.796  10.420   8.655 -0.2632  1.2909  1.6650
  403MOL0     H54379   8.008  10.505   8.752  0.3888  0.9733 -0.9258
  403MOL0     H54380   8.030  10.603   8.603 -1.6556  0.1598 -3.8660
  403MOL0     H54381   8.009  10.300   8.621 -1.8617  1.0908 -1.7372
  403MOL0     H54382   8.060  10.398   8.482  0.4655 -1.0466  0.1430
  403MOL0     H54383   8.249  10.276   8.632  0.7698  0.0635  1.2420
  403MOL0     H54384   8.224  10.431   8.722 -2.1150  1.0668 -0.9056
  403MOL0     H54385   8.287  10.560   8.541 -2.4007 -0.2228  1.2885
  403MOL0     H54386   8.270  10.427   8.420 -2.0293  0.5492  0.5779
  403MOL0     H54387   7.874  10.746   8.056 -2.1958  1.9619 -0.0229
  403MOL0     H54388   7.887  10.748   7.810 -0.7610 -2.1234 -2.4773
  403MOL0     H54389   7.673  10.464   7.394  1.5676 -1.5214 -1.6039
  403MOL0     H54390   7.609  10.474   7.151 -0.7003  0.0896  1.8773
  403MOL0     H54391   7.882  10.094   5.901  2.2108  0.6513  2.0113
  403MOL0     H54392   7.789   9.865   5.811  0.4873  2.3946 -1.0594
  403MOL0     H54393   7.692   9.444   5.572  0.0703  0.4125  0.0607
  403MOL0     H54394   7.634   9.219   5.583  1.3489 -1.9526 -0.2004
  403MOL0     H54395   7.654   8.883   5.656  2.4397 -0.9522  1.4088
  403MOL0     H54396   7.655   9.018   5.531  0.7388 -0.5113 -2.0509
  403MOL0     H54397   7.749   8.806   5.447 -0.2678 -1.8167 -0.1650
  403MOL0     H54398   7.858   8.798   5.591  1.6943  2.4572  0.1857
  403MOL0     H54399   7.984   8.996   5.528  1.7527 -2.8715 -0.7187
  403MOL0     H54400   7.866   9.012   5.390 -1.8337 -2.4364 -1.8949
  403MOL0     H54401   7.946   8.827   5.293 -2.5877  0.3741  1.1371
  403MOL0     H54402   8.058   8.792   5.440 -1.4550  0.8838  0.5609
  403MOL0     H54403   8.292   9.068   5.223  1.6504 -1.8731 -0.2326
  403MOL0     H54404   7.928   9.164   5.889 -0.1068  1.4766  0.0898
  403MOL0     H54405   7.970   9.396   5.897 -0.8213  1.2828 -0.0544
  404MOL0     O54406   6.419  11.072   3.714  0.4802  0.3965 -0.0236
  404MOL0     C54407   6.452  11.174   3.764 -0.8359  0.2891  0.4447
  404MOL0     O54408   6.443  11.198   3.896 -0.4544 -0.0566 -0.2003
  404MOL0     C54409   6.350  11.143   3.979 -0.4479 -0.2240 -0.8850
  404MOL0     C54410   6.374  11.134   4.117  0.3271 -0.0672  1.0560
  404MOL0     C54411   6.276  11.081   4.209  0.4131 -0.4001 -0.2434
  404MOL0     C54412   6.150  11.031   4.163  0.1281  0.4170  0.2373
  404MOL0     O54413   6.072  10.958   4.246 -0.8670 -0.0828  0.3345
  404MOL0     C54414   5.934  10.938   4.214  0.2469  0.0195 -0.9679
  404MOL0     C54415   5.847  10.886   4.317  0.4004 -0.1879 -0.4792
  404MOL0     C54416   5.896  10.745   4.357  0.5628  0.5357 -0.9060
  404MOL0     C54417   5.795  10.665   4.441 -0.0795  0.4768 -0.5349
  404MOL0     C54418   5.815  10.513   4.458 -0.7835  0.8747 -0.5662
  404MOL0     C54419   5.847  10.474   4.605 -0.0386 -0.1625  0.0806
  404MOL0     C54420   5.872  10.327   4.607 -0.3416  1.0270 -1.0667
  404MOL0     C54421   5.874  10.275   4.755 -0.1843  0.1881 -0.0512
  404MOL0     N54422   5.846  10.140   4.771  0.1827  0.1364 -0.4775
  404MOL0     C54423   5.873  10.040   4.687 -0.0127 -0.5149  0.0726
  404MOL0     C54424   5.845   9.921   4.740 -0.6562 -0.0122  0.3887
  404MOL0     C54425   5.890   9.794   4.673 -0.2239 -0.2016 -0.3715
  404MOL0     C54426   5.761   9.726   4.619 -0.3495 -0.6626 -0.0369
  404MOL0     C54427   5.766   9.643   4.493  1.0347  0.8180  0.7293
  404MOL0     C54428   5.628   9.580   4.475 -0.0713 -0.6761  0.0431
  404MOL0     O54429   5.625   9.529   4.343  0.4644  0.9641 -0.1419
  404MOL0     C54430   5.509   9.494   4.282  0.9383 -0.2229 -1.8718
  404MOL0     C54431   5.395   9.473   4.348 -0.2592 -0.9413  0.1217
  404MOL0     C54432   5.279   9.452   4.288  0.1195 -1.3161 -0.0428
  404MOL0     C54433   5.164   9.437   4.379 -0.5680  0.9104 -0.0506
  404MOL0     C54434   5.271   9.452   4.145 -0.3754  0.3165 -0.1730
  404MOL0     C54435   5.150   9.423   4.070  0.4672  1.2577 -0.1296
  404MOL0     O54436   5.054   9.332   4.121  0.3406  0.1848  0.4124
  404MOL0     C54437   4.942   9.333   4.041  0.2032  0.2913  0.4190
  404MOL0     C54438   4.842   9.426   4.056 -0.0190  0.6183 -0.5861
  404MOL0     C54439   4.717   9.413   3.992  0.0282  0.0005  0.6889
  404MOL0     C54440   4.696   9.321   3.896  0.2397 -1.1991  1.0300
  404MOL0     O54441   4.572   9.322   3.835  0.3129 -0.1502  0.0341
  404MOL0     C54442   4.567   9.303   3.695  0.5442  0.7331  0.5034
  404MOL0     C54443   4.430   9.332   3.629  0.3694 -0.5797  0.7666
  404MOL0     C54444   4.336   9.209   3.664 -0.5678 -0.1639  0.4288
  404MOL0     C54445   4.201   9.248   3.667  0.7132  0.5282 -0.4566
  404MOL0     C54446   4.129   9.217   3.535  0.1089 -0.1433 -0.6273
  404MOL0     C54447   3.976   9.233   3.534  1.1399  0.4017 -0.3990
  404MOL0     C54448   3.901   9.144   3.633 -0.3855  0.3228  0.2998
  404MOL0     C54449   3.946   9.002   3.620 -0.0957 -0.8127 -0.6607
  404MOL0    Cl54450   3.822   8.902   3.715 -0.1517 -0.6600  0.4310
  404MOL0     C54451   4.798   9.230   3.876  0.1711  0.2259 -0.0221
  404MOL0     C54452   4.918   9.240   3.945 -0.0371 -0.2610 -0.5146
  404MOL0     O54453   5.140   9.490   3.968  0.2933 -0.3365 -0.6727
  404MOL0     C54454   5.386   9.467   4.074  0.1131 -0.0368  0.0954
  404MOL0     C54455   5.509   9.481   4.149 -0.0411  0.0829  0.1409
  404MOL0     N54456   5.783   9.948   4.860  0.1950 -0.1968 -0.6659
  404MOL0     N54457   5.786  10.073   4.874  0.6076  0.0153 -0.0461
  404MOL0     C54458   6.137  11.031   4.026 -0.8982 -0.3190  0.8857
  404MOL0     C54459   6.226  11.093   3.941 -0.6475  0.2534 -0.7404
  404MOL0     C54460   6.509  11.266   3.666 -1.1386  0.6264  0.4579
  404MOL0     C54461   6.556  11.231   3.535  0.3247  0.1452 -0.3783
  404MOL0     C54462   6.606  11.333   3.450 -0.6202 -0.2550  0.1224
  404MOL0     C54463   6.630  11.459   3.502 -1.1710  0.1592 -0.0280
  404MOL0     O54464   6.683  11.554   3.412 -0.0042 -0.2508  0.3233
  404MOL0     C54465   6.775  11.654   3.472  0.0730  0.1494 -0.1691
  404MOL0     C54466   6.858  11.715   3.362  0.1427  0.0887 -0.2487
  404MOL0     C54467   6.996  11.736   3.409  0.3762 -0.3018  0.7080
  404MOL0     C54468   7.096  11.755   3.286 -0.1356 -0.2549 -0.6449
  404MOL0     C54469   7.073  11.870   3.207 -0.4544 -0.3186 -0.6121
  404MOL0     C54470   7.072  11.972   3.137  0.4301  0.6735  0.0585
  404MOL0     C54471   6.611  11.496   3.634 -0.7974  0.1930  0.2913
  404MOL0     C54472   6.535  11.404   3.709  1.7994  0.1507 -1.3470
  404MOL0     H54473   6.467  11.173   4.156  0.2754 -0.1970  1.3101
  404MOL0     H54474   6.302  11.082   4.314 -0.3187  0.4654 -0.0553
  404MOL0     H54475   5.894  11.035   4.184 -2.2118  0.1783  2.2160
  404MOL0     H54476   5.919  10.863   4.136  0.2145 -1.5817  0.5125
  404MOL0     H54477   5.850  10.933   4.416 -0.6689 -2.2790  0.5993
  404MOL0     H54478   5.744  10.882   4.281 -0.2615 -0.1416  1.3347
  404MOL0     H54479   5.922  10.695   4.263 -4.0770  0.8616 -2.6058
  404MOL0     H54480   5.983  10.762   4.421 -3.3656  0.8733  5.1352
  404MOL0     H54481   5.799  10.711   4.539 -0.0550  0.6246 -0.6052
  404MOL0     H54482   5.693  10.679   4.404 -0.1103  1.6002 -0.0648
  404MOL0     H54483   5.728  10.464   4.414 -1.2111  0.7982  0.3357
  404MOL0     H54484   5.899  10.478   4.398 -0.4706 -2.8499  1.7076
  404MOL0     H54485   5.940  10.528   4.625  0.9361 -0.8922 -2.2188
  404MOL0     H54486   5.783  10.510   4.687 -0.5768 -1.2308  0.1464
  404MOL0     H54487   5.787  10.279   4.557 -0.2310 -0.1949 -0.1446
  404MOL0     H54488   5.974  10.301   4.577  0.7503  2.9060  0.7036
  404MOL0     H54489   5.801  10.324   4.820 -2.8483 -1.0754 -1.9081
  404MOL0     H54490   5.972  10.296   4.798 -1.4123 -3.4454  5.7231
  404MOL0     H54491   5.914  10.041   4.586 -2.6603 -0.0222 -1.0877
  404MOL0     H54492   5.963   9.827   4.597 -1.2070 -0.7070 -1.5678
  404MOL0     H54493   5.943   9.722   4.736  0.3571  0.8699  0.4103
  404MOL0     H54494   5.693   9.806   4.590  2.4141  2.4937  1.5140
  404MOL0     H54495   5.711   9.680   4.705 -0.9723 -0.3374 -0.2180
  404MOL0     H54496   5.844   9.568   4.512 -1.0628 -1.9535 -0.8465
  404MOL0     H54497   5.785   9.700   4.402  3.4109 -0.1950  0.5119
  404MOL0     H54498   5.549   9.654   4.481 -2.3363 -2.9365 -0.1828
  404MOL0     H54499   5.601   9.507   4.552  0.0775  2.4739  3.3420
  404MOL0     H54500   5.406   9.481   4.456 -1.5312  5.5353  0.1343
  404MOL0     H54501   5.181   9.469   4.482 -2.9941  1.9311  0.0950
  404MOL0     H54502   5.082   9.501   4.346 -0.7643 -0.7132 -3.0852
  404MOL0     H54503   5.136   9.331   4.378  1.2264  0.3487  1.5596
  404MOL0     H54504   4.856   9.497   4.138  0.5468 -1.6649  1.4018
  404MOL0     H54505   4.646   9.489   4.023  1.4453  2.4810 -1.7173
  404MOL0     H54506   4.632   9.380   3.653  1.5451 -1.8012 -3.0356
  404MOL0     H54507   4.617   9.212   3.662  3.6120  2.8756 -1.2462
  404MOL0     H54508   4.386   9.428   3.657 -0.3635 -1.3878  2.5030
  404MOL0     H54509   4.447   9.333   3.521 -3.6005 -2.0180 -0.0347
  404MOL0     H54510   4.359   9.180   3.767  0.0920 -0.3111  0.2420
  404MOL0     H54511   4.354   9.128   3.593 -2.7416 -0.3246 -0.0189
  404MOL0     H54512   4.159   9.178   3.740  0.4626 -1.3280 -2.2905
  404MOL0     H54513   4.181   9.350   3.702  2.5862 -0.0978  2.8363
  404MOL0     H54514   4.147   9.120   3.489 -1.2425 -0.5755 -0.3111
  404MOL0     H54515   4.168   9.283   3.457  0.2934 -0.2031 -0.5862
  404MOL0     H54516   3.957   9.341   3.537  1.3779  0.4762 -1.2911
  404MOL0     H54517   3.940   9.191   3.440 -1.6450 -0.4706  0.9475
  404MOL0     H54518   3.794   9.154   3.613 -1.1979 -0.4043  3.6729
  404MOL0     H54519   3.920   9.185   3.733  2.4774  2.8060 -1.0859
  404MOL0     H54520   4.038   9.005   3.680  0.1831 -1.7106 -1.0310
  404MOL0     H54521   3.943   8.967   3.517 -1.9629 -1.8237 -0.3152
  404MOL0     H54522   4.789   9.149   3.805  0.4819 -1.4871  1.7830
  404MOL0     H54523   5.003   9.179   3.918  1.4485  2.4185 -2.3209
  404MOL0     H54524   5.394   9.454   3.966 -2.5327  1.4149 -0.3549
  404MOL0     H54525   5.602   9.489   4.094 -0.1225  4.0668  0.3068
  404MOL0     H54526   6.063  10.970   3.975  1.5940 -0.8507 -2.4228
  404MOL0     H54527   6.206  11.105   3.835 -2.0351  4.2315 -0.1826
  404MOL0     H54528   6.547  11.131   3.494  1.7575  0.9403 -2.7946
  404MOL0     H54529   6.629  11.307   3.347  0.2971 -3.7804  1.0687
  404MOL0     H54530   6.718  11.732   3.524  0.0772 -1.9243  3.2367
  404MOL0     H54531   6.830  11.605   3.553  0.0413  1.3524  0.6091
  404MOL0     H54532   6.807  11.804   3.325  0.7705  0.5253 -0.0723
  404MOL0     H54533   6.865  11.643   3.279  3.4267 -1.3586  1.1109
  404MOL0     H54534   7.023  11.652   3.473 -0.6000 -1.1283  0.0735
  404MOL0     H54535   7.006  11.830   3.464 -1.1320  1.0082 -1.0921
  404MOL0     H54536   7.081  11.666   3.224  3.1517 -0.9869 -0.5362
  404MOL0     H54537   7.199  11.752   3.323 -0.0354  0.5247 -0.8414
  404MOL0     H54538   7.068  12.063   3.080  1.6621  1.1760  0.7443
  404MOL0     H54539   6.626  11.593   3.679 -0.5392 -0.2465  1.1657
  404MOL0     H54540   6.507  11.449   3.804 -0.5593 -2.9443 -0.4039
  405MOL0     O54541   3.045   5.483   0.854  0.2524  0.2214 -0.2910
  405MOL0     C54542   3.155   5.460   0.804 -0.1606 -0.3992  0.1379
  405MOL0     O54543   3.193   5.349   0.732  0.2573  0.0507 -0.2291
  405MOL0     C54544   3.112   5.242   0.716  0.0135  0.0164 -0.7862
  405MOL0     C54545   3.001   5.203   0.786  0.6130 -0.0623 -0.8961
  405MOL0     C54546   2.941   5.080   0.757 -0.0736  0.8651 -0.7017
  405MOL0     C54547   2.975   4.996   0.653 -0.2464 -0.1141  0.5746
  405MOL0     O54548   2.922   4.868   0.633 -0.6695  0.4850 -0.7618
  405MOL0     C54549   2.931   4.801   0.505  0.9148  0.5847  0.0788
  405MOL0     C54550   2.847   4.675   0.507 -0.9293  0.3580  0.2416
  405MOL0     C54551   2.879   4.591   0.639 -0.3976 -0.1129  0.7182
  405MOL0     C54552   2.832   4.445   0.621 -0.0742 -0.6143  0.6817
  405MOL0     C54553   2.945   4.348   0.644 -0.2763 -1.0207 -0.2914
  405MOL0     C54554   2.909   4.203   0.611 -0.8048  0.0564 -0.2568
  405MOL0     C54555   3.029   4.107   0.635 -0.1273 -0.1067  0.3159
  405MOL0     C54556   3.023   3.979   0.554  0.3652  0.8067  0.6271
  405MOL0     N54557   3.085   3.872   0.615  0.1992 -0.1917 -0.1465
  405MOL0     C54558   3.217   3.830   0.601  0.1035  0.0065 -0.1692
  405MOL0     C54559   3.215   3.698   0.644  0.1403  0.3714  1.1502
  405MOL0     C54560   3.322   3.586   0.627 -0.0853  0.8718 -0.3461
  405MOL0     C54561   3.454   3.616   0.697 -0.2671 -0.6769  0.4734
  405MOL0     C54562   3.438   3.605   0.849 -0.7133 -0.3865  0.5961
  405MOL0     C54563   3.541   3.696   0.923  0.1440 -0.4799 -0.2990
  405MOL0     O54564   3.478   3.738   1.047 -0.1448  0.9938 -0.7461
  405MOL0     C54565   3.535   3.851   1.108  0.4736  0.0348  0.2363
  405MOL0     C54566   3.662   3.909   1.064  0.3729  0.5017 -0.6884
  405MOL0     C54567   3.703   4.026   1.123 -0.7106 -0.1855 -0.5685
  405MOL0     C54568   3.849   4.072   1.094 -0.2059 -0.0894 -1.1943
  405MOL0     C54569   3.628   4.098   1.220 -0.3032  0.2376  0.1239
  405MOL0     C54570   3.659   4.237   1.279 -0.7836  0.3084  0.1097
  405MOL0     O54571   3.764   4.312   1.227 -0.1651 -0.0084  0.0082
  405MOL0     C54572   3.829   4.405   1.300  0.5961 -0.0466 -0.4263
  405MOL0     C54573   3.817   4.423   1.445 -0.1607 -0.3618 -0.1682
  405MOL0     C54574   3.884   4.533   1.499 -0.6320 -1.0144  0.3643
  405MOL0     C54575   3.975   4.615   1.420 -0.1945 -0.0003 -0.1849
  405MOL0     O54576   4.041   4.710   1.485  0.4308 -0.0148  0.5504
  405MOL0     C54577   4.130   4.669   1.596 -0.0158 -0.0632 -0.2718
  405MOL0     C54578   4.251   4.585   1.550 -0.2535 -0.3703 -0.3096
  405MOL0     C54579   4.356   4.560   1.660  0.7298 -0.1001 -0.1879
  405MOL0     C54580   4.479   4.481   1.602  0.1654  0.5039 -0.3516
  405MOL0     C54581   4.594   4.487   1.706  0.3162 -0.2446  0.6338
  405MOL0     C54582   4.576   4.403   1.835  0.6563 -0.2572  0.5123
  405MOL0     C54583   4.690   4.410   1.934  0.1868 -0.6777 -0.3941
  405MOL0     C54584   4.665   4.375   2.088 -0.0745 -0.2385  0.6722
  405MOL0    Cl54585   4.832   4.348   2.163 -0.1240  0.4924  0.3696
  405MOL0     C54586   3.983   4.592   1.279 -0.4573  0.4521  0.0491
  405MOL0     C54587   3.906   4.490   1.223 -0.0980 -1.0339 -0.3885
  405MOL0     O54588   3.585   4.269   1.372 -0.3816 -0.1278 -0.0567
  405MOL0     C54589   3.510   4.037   1.260  0.1313 -0.4854  0.5261
  405MOL0     C54590   3.467   3.916   1.200 -0.2121 -1.0268 -0.7394
  405MOL0     N54591   3.092   3.679   0.710 -0.1306 -0.5543  0.7645
  405MOL0     N54592   3.011   3.781   0.693 -0.6270 -0.4752 -0.4061
  405MOL0     C54593   3.086   5.037   0.577  0.1434  0.5527 -0.3768
  405MOL0     C54594   3.149   5.154   0.617  0.0895  0.6751 -0.0696
  405MOL0     C54595   3.249   5.566   0.797  0.6100 -0.1878 -0.0277
  405MOL0     C54596   3.218   5.694   0.851 -0.4651 -0.6050  0.4623
  405MOL0     C54597   3.308   5.803   0.846 -0.4539 -1.0888  0.4587
  405MOL0     C54598   3.441   5.783   0.798 -0.8206  0.4519  0.6199
  405MOL0     O54599   3.545   5.871   0.797 -0.4462 -0.1760  0.0204
  405MOL0     C54600   3.534   6.002   0.853  0.7745 -0.1739 -0.0322
  405MOL0     C54601   3.663   6.081   0.858  0.2475  0.6832  0.5999
  405MOL0     C54602   3.744   6.075   0.727  0.2719 -0.3992 -0.4280
  405MOL0     C54603   3.881   6.138   0.746  0.7908  0.2656 -0.5453
  405MOL0     C54604   3.946   6.166   0.617 -0.7210  0.1767 -0.3769
  405MOL0     C54605   3.989   6.176   0.503  0.4673  0.0895 -0.1709
  405MOL0     C54606   3.469   5.658   0.747  0.3571  0.0307  0.3952
  405MOL0     C54607   3.379   5.547   0.750 -0.4630 -0.1159  0.6631
  405MOL0     H54608   2.965   5.260   0.871 -1.8259  0.2408 -2.0593
  405MOL0     H54609   2.863   5.046   0.825 -1.8700  0.9833 -2.5881
  405MOL0     H54610   2.884   4.868   0.433 -1.8158  1.3619  2.4273
  405MOL0     H54611   3.034   4.773   0.480  2.1738  2.7494  2.4512
  405MOL0     H54612   2.739   4.690   0.503 -0.6851  2.6367  0.7217
  405MOL0     H54613   2.875   4.622   0.416 -1.0971  1.6956 -0.6197
  405MOL0     H54614   2.988   4.583   0.646 -0.2327  0.8959 -0.3498
  405MOL0     H54615   2.830   4.629   0.730 -0.1698  1.5368  0.1956
  405MOL0     H54616   2.754   4.433   0.696  1.6993  2.5468  3.2868
  405MOL0     H54617   2.777   4.435   0.527 -0.0427  1.6317  0.3594
  405MOL0     H54618   3.028   4.373   0.577  1.0882 -1.2668  1.2390
  405MOL0     H54619   2.968   4.356   0.751 -5.0538 -0.2956  0.9127
  405MOL0     H54620   2.819   4.178   0.667 -1.6964  1.1526 -1.1531
  405MOL0     H54621   2.881   4.186   0.506  0.2375 -1.5878 -0.3067
  405MOL0     H54622   3.126   4.157   0.623  0.4590 -1.2208  0.3000
  405MOL0     H54623   3.010   4.092   0.742 -1.0513 -4.4304 -0.2614
  405MOL0     H54624   3.073   4.005   0.460 -1.9738  4.3722  0.1998
  405MOL0     H54625   2.918   3.967   0.528  1.0651 -0.1227 -2.2424
  405MOL0     H54626   3.300   3.880   0.554  1.2626  1.2336  2.9192
  405MOL0     H54627   3.280   3.494   0.669  1.2568  0.5957  0.4304
  405MOL0     H54628   3.343   3.567   0.521  0.1635 -3.2513  0.2742
  405MOL0     H54629   3.484   3.718   0.672  0.3132 -0.5878  1.5072
  405MOL0     H54630   3.537   3.558   0.656 -1.1715 -0.9125 -1.1157
  405MOL0     H54631   3.455   3.501   0.880  0.3016 -0.3392  0.2195
  405MOL0     H54632   3.337   3.637   0.876 -1.5428 -0.4899 -2.1137
  405MOL0     H54633   3.561   3.788   0.866 -3.2301  0.4300 -0.2245
  405MOL0     H54634   3.630   3.638   0.949 -1.5766 -4.2405 -2.1076
  405MOL0     H54635   3.730   3.851   1.002 -1.7760 -0.1761 -2.5226
  405MOL0     H54636   3.853   4.158   1.026 -3.3285 -1.8730 -3.9709
  405MOL0     H54637   3.907   4.105   1.180  0.6602  3.6581 -3.0120
  405MOL0     H54638   3.904   3.995   1.039 -0.3959 -0.4802 -0.8390
  405MOL0     H54639   3.764   4.351   1.506  2.1059 -2.3480 -0.3896
  405MOL0     H54640   3.881   4.553   1.605  1.0868 -3.9033  1.0891
  405MOL0     H54641   4.182   4.760   1.630  0.7514 -1.3660  2.2932
  405MOL0     H54642   4.072   4.623   1.676 -1.7837  0.4480 -1.2156
  405MOL0     H54643   4.216   4.490   1.510  0.2014 -0.0952 -1.3891
  405MOL0     H54644   4.310   4.634   1.472  1.0502 -0.8452  0.3455
  405MOL0     H54645   4.317   4.514   1.751  1.4160  1.0701  0.7178
  405MOL0     H54646   4.394   4.657   1.693  1.0883 -1.0750  2.5216
  405MOL0     H54647   4.464   4.374   1.588  3.0491  0.4357 -4.9371
  405MOL0     H54648   4.514   4.515   1.504 -0.6698 -0.9042 -1.1644
  405MOL0     H54649   4.610   4.592   1.736  0.6906  0.2883 -1.3100
  405MOL0     H54650   4.687   4.448   1.663  0.2198 -1.0911  1.1826
  405MOL0     H54651   4.490   4.451   1.884  1.1356  4.0392 -2.3310
  405MOL0     H54652   4.561   4.300   1.801  1.3299  0.4517 -2.0910
  405MOL0     H54653   4.739   4.505   1.910 -0.1636 -1.4236 -4.8636
  405MOL0     H54654   4.760   4.330   1.908  1.0990 -0.5415  1.4432
  405MOL0     H54655   4.609   4.282   2.098 -0.5083 -0.2923 -1.7011
  405MOL0     H54656   4.619   4.458   2.143  0.1511 -0.5429  1.3415
  405MOL0     H54657   4.047   4.649   1.213  0.9457 -0.3697  0.6446
  405MOL0     H54658   3.921   4.484   1.115  1.4634  4.7135 -0.8286
  405MOL0     H54659   3.448   4.080   1.338  2.9423  2.0767  1.5501
  405MOL0     H54660   3.374   3.866   1.227 -0.1078 -0.2330  1.2250
  405MOL0     H54661   3.138   4.982   0.498 -0.2278  1.0514 -0.9805
  405MOL0     H54662   3.233   5.185   0.555  1.7794  3.0134  3.1205
  405MOL0     H54663   3.122   5.716   0.896 -0.4471 -0.3344  0.3718
  405MOL0     H54664   3.282   5.909   0.848  1.0732 -0.6465 -0.7800
  405MOL0     H54665   3.460   6.051   0.789  2.0309  1.2473 -0.4605
  405MOL0     H54666   3.491   6.008   0.953  0.1373 -0.7703 -0.2621
  405MOL0     H54667   3.726   6.048   0.940  0.7383  0.4085  0.1158
  405MOL0     H54668   3.619   6.180   0.877 -1.4599  0.0567  0.1499
  405MOL0     H54669   3.685   6.129   0.653 -0.5326 -4.0576 -2.6915
  405MOL0     H54670   3.763   5.968   0.710 -2.1401 -0.6675 -1.8967
  405MOL0     H54671   3.940   6.064   0.800  0.0027  1.9762  2.9460
  405MOL0     H54672   3.871   6.227   0.809 -1.2096  0.2076 -0.7223
  405MOL0     H54673   4.017   6.177   0.400 -0.2692  0.8811 -0.3685
  405MOL0     H54674   3.568   5.637   0.710  0.7477  1.2219  0.7486
  405MOL0     H54675   3.404   5.454   0.699 -0.6150  0.6992 -0.9625
  406MOL0     O54676   0.747   0.327   8.604  0.8515  0.0096 -0.3315
  406MOL0     C54677   0.639   0.273   8.576 -0.2693 -0.4180 -0.4676
  406MOL0     O54678   0.626   0.161   8.511  0.0463 -0.0603 -0.0420
  406MOL0     C54679   0.743   0.109   8.466  0.6606 -0.4665  0.0421
  406MOL0     C54680   0.779   0.137   8.333  0.4692  0.7096  0.4651
  406MOL0     C54681   0.900   0.078   8.293 -0.4263  0.1867 -0.1375
  406MOL0     C54682   0.987   0.006   8.376  0.2551  0.8245  0.0648
  406MOL0     O54683   1.097  -0.055   8.324 -0.0227  0.2615 -0.2821
  406MOL0     C54684   1.222  -0.043   8.402 -0.4770 -0.6369 -0.3106
  406MOL0     C54685   1.343  -0.061   8.309 -0.1788  0.1484  0.4023
  406MOL0     C54686   1.322   0.017   8.172  0.5282  0.6426  0.4314
  406MOL0     C54687   1.457   0.037   8.090  0.4833 -0.8043 -0.4983
  406MOL0     C54688   1.441   0.089   7.942  1.0345  0.5562  0.7386
  406MOL0     C54689   1.406   0.240   7.944  0.6719  0.6738  0.9249
  406MOL0     C54690   1.350   0.270   7.799  0.0350  0.2002 -0.4048
  406MOL0     C54691   1.318   0.420   7.775 -1.0326 -0.8090 -0.7413
  406MOL0     N54692   1.199   0.466   7.844  0.4253  1.4211 -0.5895
  406MOL0     C54693   1.118   0.384   7.922 -0.2955  0.1140 -0.3988
  406MOL0     C54694   1.023   0.470   7.969 -1.0371 -0.2532  0.0793
  406MOL0     C54695   0.893   0.424   8.038 -0.4781  0.4995  0.1642
  406MOL0     C54696   0.834   0.535   8.125 -0.1607 -1.0229 -0.5427
  406MOL0     C54697   0.932   0.564   8.236  1.5088  0.0896  0.4503
  406MOL0     C54698   0.938   0.444   8.343 -0.2726  0.9337 -0.3252
  406MOL0     O54699   1.018   0.472   8.461 -0.4864  0.4161  0.2618
  406MOL0     C54700   1.138   0.409   8.458 -0.2034 -0.9828 -0.2561
  406MOL0     C54701   1.229   0.421   8.352 -0.0548 -0.2021 -0.5673
  406MOL0     C54702   1.367   0.375   8.354 -0.0087  0.3805  0.3631
  406MOL0     C54703   1.444   0.412   8.226  0.6279  0.2911 -0.1033
  406MOL0     C54704   1.402   0.295   8.470 -0.0632 -0.4632  0.6714
  406MOL0     C54705   1.534   0.221   8.485  0.1393 -0.5123  0.8309
  406MOL0     O54706   1.554   0.129   8.591 -0.0410 -0.2524  0.4128
  406MOL0     C54707   1.668   0.059   8.602 -0.4637  0.3599 -1.4060
  406MOL0     C54708   1.666  -0.083   8.574 -0.1654 -0.6184 -0.4129
  406MOL0     C54709   1.781  -0.153   8.592  0.8747  0.6265 -0.6030
  406MOL0     C54710   1.905  -0.091   8.625  0.6023  0.2894  0.2888
  406MOL0     O54711   2.023  -0.166   8.622 -0.4929  0.3045  0.4418
  406MOL0     C54712   2.019  -0.306   8.609  0.4777 -0.1675 -0.2966
  406MOL0     C54713   1.989  -0.374   8.741  0.2827  0.5440 -0.2929
  406MOL0     C54714   2.083  -0.311   8.851  0.1614 -0.4923  0.2302
  406MOL0     C54715   2.039  -0.375   8.979 -0.7013 -0.1246 -0.5654
  406MOL0     C54716   2.102  -0.314   9.103 -0.2717 -0.1620 -1.0425
  406MOL0     C54717   2.016  -0.347   9.231 -0.3283 -0.5261 -0.0574
  406MOL0     C54718   2.094  -0.296   9.356  0.0914 -0.7688  0.5715
  406MOL0     C54719   2.034  -0.322   9.484 -0.2493  0.0638 -0.6857
  406MOL0    Cl54720   1.867  -0.248   9.467 -0.2611 -0.4808  0.3231
  406MOL0     C54721   1.908   0.046   8.642  0.0634  0.0935  0.3138
  406MOL0     C54722   1.789   0.121   8.636  0.2413 -0.6995 -0.3734
  406MOL0     O54723   1.614   0.256   8.406 -0.2882 -0.2248  0.4750
  406MOL0     C54724   1.307   0.266   8.566  0.2174 -0.3744 -0.1672
  406MOL0     C54725   1.172   0.321   8.561 -0.2664 -1.0130  0.8487
  406MOL0     N54726   1.051   0.599   7.918 -0.0066  0.0004  0.1590
  406MOL0     N54727   1.164   0.593   7.856 -0.3045  0.5467  0.3410
  406MOL0     C54728   0.950  -0.005   8.508 -0.0345  0.3269 -0.0821
  406MOL0     C54729   0.843   0.055   8.554  0.0019  0.2042 -0.3910
  406MOL0     C54730   0.511   0.338   8.625  0.5752  0.2546  0.3491
  406MOL0     C54731   0.515   0.463   8.680  0.3589  0.0518  0.4877
  406MOL0     C54732   0.400   0.526   8.719  0.7376 -0.8763  0.9353
  406MOL0     C54733   0.273   0.472   8.710  0.0489 -0.4287 -0.2337
  406MOL0     O54734   0.153   0.536   8.728  0.1133  0.6394  0.0367
  406MOL0     C54735   0.141   0.670   8.668 -0.2740  0.2614 -0.7507
  406MOL0     C54736   0.010   0.738   8.677  1.5155 -0.9379 -0.1154
  406MOL0     C54737  -0.083   0.690   8.567 -0.4086  0.3972  0.1413
  406MOL0     C54738  -0.218   0.757   8.551  0.0045 -0.1991 -0.5399
  406MOL0     C54739  -0.283   0.703   8.433 -0.7646  0.1295 -0.0152
  406MOL0     C54740  -0.353   0.654   8.349  0.2872  0.2514 -0.3902
  406MOL0     C54741   0.273   0.335   8.670 -0.1417 -0.2654  0.5134
  406MOL0     C54742   0.390   0.269   8.624 -0.8633 -0.2460 -0.0159
  406MOL0     H54743   0.700   0.188   8.278 -0.6014 -1.7713 -0.4883
  406MOL0     H54744   0.925   0.088   8.188 -2.7968  1.9779 -0.6204
  406MOL0     H54745   1.222   0.063   8.430 -0.1432 -0.6317 -0.3186
  406MOL0     H54746   1.233  -0.104   8.492  1.4662  1.3399  0.8915
  406MOL0     H54747   1.440  -0.038   8.353 -0.4290  1.8709  0.1274
  406MOL0     H54748   1.342  -0.169   8.295  0.5873 -0.0568  1.7775
  406MOL0     H54749   1.264  -0.043   8.101  1.5561  0.9681 -0.7171
  406MOL0     H54750   1.269   0.111   8.188 -0.6952 -0.4144  3.1940
  406MOL0     H54751   1.522   0.097   8.154 -0.0685 -1.6278  0.8910
  406MOL0     H54752   1.504  -0.061   8.077 -2.4838 -2.0872 -2.9894
  406MOL0     H54753   1.532   0.057   7.890  1.4567 -2.8928  3.2182
  406MOL0     H54754   1.361   0.030   7.895  2.7872 -2.1482  0.8922
  406MOL0     H54755   1.325   0.260   8.014 -2.4014 -0.3680 -2.0332
  406MOL0     H54756   1.499   0.291   7.971  1.8835 -1.4394  1.0020
  406MOL0     H54757   1.426   0.242   7.726 -1.4381 -0.8175 -1.6224
  406MOL0     H54758   1.265   0.203   7.781  2.8367 -3.3844 -1.4341
  406MOL0     H54759   1.305   0.439   7.668  2.2694  1.0324 -0.9657
  406MOL0     H54760   1.413   0.465   7.805 -0.3056 -1.6776 -1.6545
  406MOL0     H54761   1.118   0.276   7.931 -1.9842  0.0027 -1.3167
  406MOL0     H54762   0.819   0.393   7.964 -0.1916  0.7522 -0.2269
  406MOL0     H54763   0.911   0.334   8.098  2.2208 -2.4830 -4.5156
  406MOL0     H54764   0.733   0.508   8.157  0.4730 -1.1435  1.4459
  406MOL0     H54765   0.817   0.623   8.063  0.0858  0.9247  2.0006
  406MOL0     H54766   0.909   0.657   8.288  1.9303  0.4108  0.0708
  406MOL0     H54767   1.025   0.600   8.191  0.2907  1.1845 -1.3272
  406MOL0     H54768   0.979   0.357   8.291  2.1916  1.3246  0.8079
  406MOL0     H54769   0.837   0.422   8.380  0.6800 -0.4352  1.6450
  406MOL0     H54770   1.187   0.487   8.277 -1.5059  0.4668  0.7892
  406MOL0     H54771   1.516   0.336   8.193  2.9745  2.8360 -1.2534
  406MOL0     H54772   1.383   0.436   8.139  0.7139  0.1717 -0.1979
  406MOL0     H54773   1.511   0.492   8.258 -0.2104  0.9821 -0.0579
  406MOL0     H54774   1.571  -0.129   8.549 -1.5902  1.6362  0.5414
  406MOL0     H54775   1.774  -0.258   8.569  3.7876 -0.3726  2.2346
  406MOL0     H54776   1.948  -0.335   8.531  0.7580 -0.1559 -0.5579
  406MOL0     H54777   2.107  -0.347   8.558  1.0060  1.6396 -0.9326
  406MOL0     H54778   1.890  -0.341   8.774  0.6685  1.1025  0.3174
  406MOL0     H54779   1.989  -0.483   8.730 -1.3318  0.3511  1.2483
  406MOL0     H54780   2.071  -0.203   8.854  1.0831 -0.4089  1.8228
  406MOL0     H54781   2.189  -0.323   8.826  0.1890  0.8079 -0.3372
  406MOL0     H54782   1.933  -0.351   8.992 -0.2898  0.9060  1.2708
  406MOL0     H54783   2.051  -0.483   8.984 -0.7741 -0.1304 -0.5141
  406MOL0     H54784   2.108  -0.206   9.085  1.5402 -0.4528 -2.4901
  406MOL0     H54785   2.206  -0.347   9.108  0.5672  2.0285 -2.2027
  406MOL0     H54786   1.922  -0.293   9.212  0.2638  0.4862 -0.2156
  406MOL0     H54787   1.982  -0.450   9.239  2.4600 -1.6883 -1.7148
  406MOL0     H54788   2.090  -0.186   9.352 -0.4027 -0.6500  2.8113
  406MOL0     H54789   2.198  -0.328   9.357  0.5097  0.4521 -0.7298
  406MOL0     H54790   2.076  -0.254   9.559 -2.3642  1.1479 -0.4138
  406MOL0     H54791   2.036  -0.426   9.518 -0.7267  0.0238 -0.7731
  406MOL0     H54792   2.001   0.097   8.662  0.5441  0.2680 -2.0872
  406MOL0     H54793   1.783   0.229   8.650 -0.4806 -0.8452  0.6039
  406MOL0     H54794   1.338   0.218   8.659  2.0435  0.2591 -0.4073
  406MOL0     H54795   1.100   0.295   8.638 -0.1672  2.3426  2.2453
  406MOL0     H54796   1.010  -0.066   8.575  1.8938  0.9273 -1.1952
  406MOL0     H54797   0.818   0.028   8.656  2.5380 -0.8261  0.0315
  406MOL0     H54798   0.603   0.525   8.686  0.9762 -0.9299  2.1243
  406MOL0     H54799   0.414   0.629   8.752 -0.9592  0.7566 -2.8261
  406MOL0     H54800   0.206   0.725   8.736 -2.4070 -1.3249  2.8599
  406MOL0     H54801   0.169   0.686   8.563  1.1747  0.1364 -0.4017
  406MOL0     H54802   0.033   0.845   8.677  1.7401 -0.9291  2.0719
  406MOL0     H54803  -0.039   0.716   8.773  0.6562  0.8193 -0.1052
  406MOL0     H54804  -0.098   0.587   8.601  3.2554 -0.5471 -0.7430
  406MOL0     H54805  -0.023   0.693   8.476  1.3003 -0.8140  1.1766
  406MOL0     H54806  -0.207   0.866   8.551 -1.7293  0.0025 -0.3089
  406MOL0     H54807  -0.279   0.732   8.638 -1.4012 -0.6456 -1.6215
  406MOL0     H54808  -0.400   0.601   8.268 -3.0250  2.1697  0.0852
  406MOL0     H54809   0.177   0.289   8.691  1.3465 -4.2560 -0.6202
  406MOL0     H54810   0.391   0.170   8.581  2.9175  0.0868 -1.0790
  407MOL0     O54811   0.628   5.321   8.904 -0.2163 -0.5514 -0.0135
  407MOL0     C54812   0.647   5.434   8.855  0.3412 -0.8965  0.2020
  407MOL0     O54813   0.704   5.538   8.931 -0.7635  0.0775 -0.6067
  407MOL0     C54814   0.728   5.528   9.066  0.0080 -0.1762  0.3730
  407MOL0     C54815   0.856   5.555   9.109  0.1682 -0.3979 -0.3269
  407MOL0     C54816   0.899   5.520   9.241 -0.6300 -0.5978  0.2230
  407MOL0     C54817   0.815   5.460   9.338 -0.0963 -0.5004 -0.1545
  407MOL0     O54818   0.866   5.418   9.461  0.0562  0.0302 -0.0879
  407MOL0     C54819   0.921   5.283   9.469  0.3314  0.1862  0.3739
  407MOL0     C54820   1.038   5.264   9.569  0.2293  0.0379 -0.7235
  407MOL0     C54821   1.152   5.366   9.549  0.1871  0.1782 -0.6039
  407MOL0     C54822   1.273   5.326   9.634  0.1347  0.2409  0.0690
  407MOL0     C54823   1.393   5.410   9.617 -0.0767 -0.9377  0.1653
  407MOL0     C54824   1.441   5.428   9.470 -1.2579  0.8103 -0.4662
  407MOL0     C54825   1.592   5.464   9.445 -0.3203  0.1364  0.7092
  407MOL0     C54826   1.618   5.481   9.292  0.1092 -0.4205  0.6466
  407MOL0     N54827   1.754   5.519   9.258 -0.1643 -0.2616  0.0463
  407MOL0     C54828   1.855   5.437   9.219 -1.0021  0.4570  0.2775
  407MOL0     C54829   1.972   5.510   9.235 -0.3272  0.3373  0.9743
  407MOL0     C54830   2.099   5.441   9.224 -0.3415 -0.1128 -0.2778
  407MOL0     C54831   2.163   5.470   9.093 -0.8842  0.6995 -0.1048
  407MOL0     C54832   2.281   5.376   9.067  0.4071 -0.5770 -1.1433
  407MOL0     C54833   2.362   5.414   8.942 -0.8593  0.1902 -0.3713
  407MOL0     O54834   2.285   5.458   8.824 -0.9920 -0.3321 -0.7471
  407MOL0     C54835   2.358   5.538   8.733 -1.3032 -0.4881  0.4295
  407MOL0     C54836   2.275   5.614   8.645  0.0353  0.2040  0.3877
  407MOL0     C54837   2.331   5.684   8.536 -0.3529  0.0070  0.4296
  407MOL0     C54838   2.255   5.770   8.453 -0.0881 -0.3831 -0.3198
  407MOL0     C54839   2.467   5.658   8.509  0.1090  0.1525 -0.1543
  407MOL0     C54840   2.544   5.722   8.398 -0.0572 -0.3481  0.6718
  407MOL0     O54841   2.674   5.736   8.415  0.0295  0.4931  0.3183
  407MOL0     C54842   2.749   5.773   8.305 -0.1768 -0.5703  0.0455
  407MOL0     C54843   2.875   5.722   8.295 -0.1946  0.9093  0.2237
  407MOL0     C54844   2.974   5.777   8.212  0.7226  0.0582 -0.8857
  407MOL0     C54845   2.941   5.894   8.142 -0.2415 -0.0735  0.1431
  407MOL0     O54846   3.039   5.934   8.047 -0.1614 -0.6886 -0.4574
  407MOL0     C54847   3.061   6.075   8.010 -0.8736 -0.2019  0.1900
  407MOL0     C54848   3.049   6.082   7.854 -0.0763  0.2382 -1.2795
  407MOL0     C54849   3.059   6.225   7.791  0.2088 -0.9116 -0.3106
  407MOL0     C54850   3.188   6.298   7.832  0.5706 -0.0202  0.0354
  407MOL0     C54851   3.169   6.390   7.950 -0.1229  0.5115  0.4064
  407MOL0     C54852   3.101   6.523   7.906 -0.2286  0.4019 -1.3178
  407MOL0     C54853   3.146   6.638   7.998 -0.5204 -0.9857  0.1795
  407MOL0     C54854   3.047   6.762   7.993  0.3868 -0.0694 -0.5787
  407MOL0    Cl54855   3.068   6.833   7.831  0.2200 -0.0692 -0.0794
  407MOL0     C54856   2.811   5.951   8.158 -0.4086  0.5996 -0.2947
  407MOL0     C54857   2.713   5.887   8.231 -0.5238  0.7766 -0.2935
  407MOL0     O54858   2.485   5.728   8.286 -0.0223  0.1787 -0.2358
  407MOL0     C54859   2.543   5.577   8.590  0.3207  0.1436 -0.6816
  407MOL0     C54860   2.492   5.527   8.703  0.4913  0.4727 -0.5312
  407MOL0     N54861   1.936   5.633   9.283  0.8717  0.0782 -0.3847
  407MOL0     N54862   1.810   5.638   9.292 -0.9217 -0.0011 -0.1776
  407MOL0     C54863   0.682   5.448   9.303  0.3527  0.4191 -0.2162
  407MOL0     C54864   0.644   5.471   9.163  0.6000  0.4537 -0.1683
  407MOL0     C54865   0.616   5.462   8.719  0.6705 -0.4600  0.8150
  407MOL0     C54866   0.662   5.580   8.652 -0.4168 -0.3872 -0.7261
  407MOL0     C54867   0.640   5.593   8.513 -0.4610 -0.8811  0.8705
  407MOL0     C54868   0.561   5.511   8.435 -0.5308 -0.1407 -0.7069
  407MOL0     O54869   0.520   5.539   8.301  0.5554 -0.1415  0.3777
  407MOL0     C54870   0.551   5.662   8.243  0.3792  0.2318 -0.0480
  407MOL0     C54871   0.695   5.656   8.193  1.0240 -0.3553 -0.4034
  407MOL0     C54872   0.716   5.556   8.091 -0.6353  0.2371  0.6688
  407MOL0     C54873   0.865   5.540   8.063 -0.1347 -0.3516 -0.1525
  407MOL0     C54874   0.904   5.659   7.982  1.2229 -0.0762  0.7287
  407MOL0     C54875   0.895   5.749   7.894  0.5523  0.7015  0.1429
  407MOL0     C54876   0.510   5.399   8.502 -0.7148 -0.2052  0.4295
  407MOL0     C54877   0.535   5.374   8.637  0.4746  0.1177 -0.4900
  407MOL0     H54878   0.927   5.599   9.039  1.6983 -0.5616  1.0510
  407MOL0     H54879   1.002   5.505   9.269 -0.3123  0.7327 -0.1715
  407MOL0     H54880   0.856   5.197   9.489 -2.8487  1.2306 -3.9269
  407MOL0     H54881   0.956   5.261   9.367  1.9561  0.9525  0.7298
  407MOL0     H54882   0.999   5.284   9.669 -3.6081  3.7262 -2.6243
  407MOL0     H54883   1.069   5.160   9.559 -2.8316 -1.0216 -0.4627
  407MOL0     H54884   1.179   5.374   9.444 -0.0564  0.6124 -0.6378
  407MOL0     H54885   1.119   5.463   9.587 -3.4443 -1.1419 -0.0350
  407MOL0     H54886   1.232   5.329   9.735 -0.7497 -2.6105 -0.1065
  407MOL0     H54887   1.294   5.224   9.600 -1.0517 -0.4031  1.1815
  407MOL0     H54888   1.366   5.509   9.655 -0.1592 -0.9067  0.0256
  407MOL0     H54889   1.475   5.367   9.675  1.0207  0.4438 -0.3018
  407MOL0     H54890   1.432   5.326   9.432 -1.0785  0.4290  0.4797
  407MOL0     H54891   1.378   5.494   9.410  0.8202  1.8272 -1.6283
  407MOL0     H54892   1.600   5.563   9.490 -0.4102  1.4902 -2.0074
  407MOL0     H54893   1.660   5.388   9.484 -0.0677 -0.6274 -1.1093
  407MOL0     H54894   1.557   5.554   9.239  0.8333 -0.2618  0.0137
  407MOL0     H54895   1.600   5.385   9.243  2.2205 -1.1390  1.1534
  407MOL0     H54896   1.851   5.338   9.174  1.5149  1.4313 -2.4469
  407MOL0     H54897   2.166   5.483   9.299  0.6779  0.0658 -1.2661
  407MOL0     H54898   2.093   5.332   9.236  1.6906 -0.2005  0.2051
  407MOL0     H54899   2.189   5.576   9.095  1.2754  0.2165  1.6158
  407MOL0     H54900   2.093   5.460   9.009 -0.6587 -1.8493 -0.0824
  407MOL0     H54901   2.258   5.270   9.052 -3.8192  0.1608 -1.1987
  407MOL0     H54902   2.352   5.380   9.150 -0.1699 -0.8972 -0.6218
  407MOL0     H54903   2.424   5.329   8.913  1.9797  1.6788  0.8978
  407MOL0     H54904   2.435   5.487   8.978 -0.3464 -0.7536  0.5649
  407MOL0     H54905   2.170   5.615   8.671 -0.7890 -0.4272 -2.5661
  407MOL0     H54906   2.220   5.716   8.365 -3.3613  1.5390 -0.3642
  407MOL0     H54907   2.175   5.799   8.522  0.4101  0.4665 -0.0728
  407MOL0     H54908   2.305   5.864   8.424 -0.8126 -0.1799 -0.9354
  407MOL0     H54909   2.894   5.633   8.353 -0.6960 -0.8275 -2.1251
  407MOL0     H54910   3.063   5.726   8.176 -0.1439 -3.0009  0.8953
  407MOL0     H54911   2.986   6.137   8.059  3.1978  2.0531  4.3143
  407MOL0     H54912   3.160   6.111   8.039 -1.2365 -0.0907  1.3539
  407MOL0     H54913   3.114   6.010   7.804  1.7522  0.3850  0.7178
  407MOL0     H54914   2.944   6.054   7.847  0.8058 -4.4221  0.7734
  407MOL0     H54915   2.974   6.286   7.827 -1.3999 -3.5567  0.6740
  407MOL0     H54916   3.044   6.209   7.684  3.6260  0.4293 -1.1088
  407MOL0     H54917   3.261   6.218   7.846 -0.0476 -0.7883 -1.0136
  407MOL0     H54918   3.207   6.359   7.743 -2.3071  3.4287  1.5244
  407MOL0     H54919   3.266   6.408   7.998  0.9217 -2.4317 -0.3884
  407MOL0     H54920   3.120   6.340   8.034 -1.2633 -0.0533 -0.5556
  407MOL0     H54921   3.131   6.550   7.804  2.1477  2.8671 -0.0584
  407MOL0     H54922   2.992   6.513   7.914 -0.0730  0.1127  1.2275
  407MOL0     H54923   3.245   6.671   7.965 -1.4533  4.6603  1.9571
  407MOL0     H54924   3.150   6.607   8.103  1.9165  2.7116  1.3827
  407MOL0     H54925   3.065   6.834   8.073 -1.3767 -0.2569  0.0282
  407MOL0     H54926   2.942   6.734   8.005  0.2799  0.6576  0.3121
  407MOL0     H54927   2.798   6.042   8.100  0.5236  1.9531  1.5040
  407MOL0     H54928   2.617   5.934   8.246 -0.4969  0.6247  0.4156
  407MOL0     H54929   2.647   5.548   8.573  0.4222 -1.4883  2.1104
  407MOL0     H54930   2.559   5.464   8.761  2.1295  2.4239 -0.1771
  407MOL0     H54931   0.614   5.407   9.376 -2.3881  2.6005 -1.3870
  407MOL0     H54932   0.542   5.455   9.128  0.5588  0.1256  0.0972
  407MOL0     H54933   0.720   5.658   8.701  1.1195 -0.1333 -2.7817
  407MOL0     H54934   0.693   5.680   8.476  0.5403 -2.1620 -0.8233
  407MOL0     H54935   0.485   5.683   8.159  0.3495  1.3477  0.2309
  407MOL0     H54936   0.542   5.747   8.311  0.5919 -1.3107  2.0070
  407MOL0     H54937   0.760   5.648   8.280 -1.2407  5.0278  2.2888
  407MOL0     H54938   0.702   5.755   8.147 -3.8311 -0.8576 -2.9016
  407MOL0     H54939   0.665   5.578   7.997  0.4976  2.8596  0.5804
  407MOL0     H54940   0.679   5.457   8.119  1.9082 -0.6985  1.0466
  407MOL0     H54941   0.893   5.450   8.007 -1.6971 -1.2798  0.5093
  407MOL0     H54942   0.922   5.540   8.156  0.9704 -3.6737 -0.7081
  407MOL0     H54943   0.860   5.806   7.810  2.8437 -0.9221 -2.0818
  407MOL0     H54944   0.461   5.320   8.447  0.4938 -0.1618 -0.7653
  407MOL0     H54945   0.503   5.281   8.682  1.1025 -0.0134 -0.3006
  408MOL0     O54946   4.447  10.065   4.682  0.1108  0.2551  0.2659
  408MOL0     C54947   4.322  10.038   4.674  0.6837  0.0852  0.1491
  408MOL0     O54948   4.234   9.991   4.769 -1.2991  0.5224 -0.3117
  408MOL0     C54949   4.273   9.917   4.879 -0.9995  1.1430  0.5195
  408MOL0     C54950   4.175   9.911   4.974 -0.5480  0.3219 -1.0233
  408MOL0     C54951   4.197   9.842   5.095  0.4593 -0.5953  0.5336
  408MOL0     C54952   4.313   9.775   5.115  0.3151 -0.5447 -0.8933
  408MOL0     O54953   4.326   9.696   5.224  0.4560 -0.5429 -0.8177
  408MOL0     C54954   4.257   9.734   5.355 -0.3068  0.0007 -0.0357
  408MOL0     C54955   4.330   9.852   5.415 -0.9533 -0.0727  0.2759
  408MOL0     C54956   4.456   9.816   5.485 -0.1751  0.3951  0.1800
  408MOL0     C54957   4.536   9.940   5.541  1.3743  0.5794  0.7346
  408MOL0     C54958   4.668   9.920   5.630 -0.0260  0.6609  1.0403
  408MOL0     C54959   4.771   9.838   5.553  0.2622  0.4122 -0.1030
  408MOL0     C54960   4.909   9.827   5.610  0.2777  0.1042  0.2168
  408MOL0     C54961   4.914   9.769   5.750  0.8203  0.4131 -0.7418
  408MOL0     N54962   5.051   9.736   5.788  0.3800 -0.1060  0.1969
  408MOL0     C54963   5.142   9.817   5.838  0.9396 -0.4330  0.3834
  408MOL0     C54964   5.253   9.738   5.855 -0.0195  0.4542 -1.0186
  408MOL0     C54965   5.388   9.788   5.899 -0.6019 -0.4563  0.6233
  408MOL0     C54966   5.408   9.923   5.969  0.1347  1.1709  0.7649
  408MOL0     C54967   5.558   9.973   5.988 -0.0839 -0.7505  0.0607
  408MOL0     C54968   5.647   9.878   6.068 -0.3949 -0.4885  0.7669
  408MOL0     O54969   5.699   9.777   5.974 -0.7959  0.0126 -0.5136
  408MOL0     C54970   5.818   9.814   5.922  1.1524  0.2937  0.7187
  408MOL0     C54971   5.827   9.826   5.784  0.1334 -0.5324  0.2162
  408MOL0     C54972   5.953   9.852   5.724  0.2442 -0.7810  0.0139
  408MOL0     C54973   5.960   9.860   5.571 -0.3408  0.1674  0.1831
  408MOL0     C54974   6.073   9.848   5.810 -0.2055 -0.3329  0.6682
  408MOL0     C54975   6.211   9.864   5.750  1.2237  0.1663  0.3127
  408MOL0     O54976   6.239   9.781   5.642  0.3079 -0.3405  0.4977
  408MOL0     C54977   6.356   9.797   5.578  0.1466 -0.6178  0.4960
  408MOL0     C54978   6.355   9.801   5.436 -0.0100 -0.8935  0.0214
  408MOL0     C54979   6.479   9.806   5.366  0.4000 -0.7101  0.3748
  408MOL0     C54980   6.600   9.795   5.435 -0.3438 -0.4032  0.0357
  408MOL0     O54981   6.723   9.786   5.374 -0.0470 -0.3169  0.0023
  408MOL0     C54982   6.752   9.896   5.277  0.2798  0.3623 -0.5837
  408MOL0     C54983   6.890   9.903   5.224 -0.2482  0.9696 -0.0421
  408MOL0     C54984   6.956   9.766   5.221 -0.3026  0.3824  0.8411
  408MOL0     C54985   7.085   9.764   5.143 -0.6237 -0.7417  0.8223
  408MOL0     C54986   7.139   9.617   5.148 -0.5099 -0.0235 -0.2472
  408MOL0     C54987   7.246   9.586   5.045 -0.7890  0.7405 -0.2167
  408MOL0     C54988   7.260   9.435   5.017  0.4016  0.0832  0.6080
  408MOL0     C54989   7.389   9.395   4.955  0.5888 -0.4830  0.2399
  408MOL0    Cl54990   7.404   9.457   4.787  0.0456 -0.0808  0.0554
  408MOL0     C54991   6.600   9.782   5.581  0.2057  0.1530  0.0231
  408MOL0     C54992   6.480   9.794   5.649  1.0992 -0.6785 -0.1223
  408MOL0     O54993   6.292   9.927   5.818  0.1164 -0.1207 -0.2854
  408MOL0     C54994   6.055   9.834   5.950  0.2516  0.2935 -0.5003
  408MOL0     C54995   5.927   9.822   6.003 -0.3299  0.2574 -0.1762
  408MOL0     N54996   5.221   9.605   5.828 -0.1083 -0.2290 -0.8666
  408MOL0     N54997   5.095   9.604   5.798 -0.1611  0.5883  0.3530
  408MOL0     C54998   4.417   9.787   5.023  0.8575  0.6612  0.6978
  408MOL0     C54999   4.393   9.851   4.900  0.5202 -0.0595 -0.8449
  408MOL0     C55000   4.258  10.073   4.546  1.0558 -0.2676  0.5108
  408MOL0     C55001   4.118  10.112   4.536 -0.2035 -0.2338 -0.1554
  408MOL0     C55002   4.069  10.150   4.408  0.1788 -0.5182  0.5605
  408MOL0     C55003   4.157  10.158   4.296  0.1113 -0.3770  0.4731
  408MOL0     O55004   4.117  10.198   4.173  0.6011  0.1695 -0.1616
  408MOL0     C55005   3.991  10.273   4.157 -0.6904 -0.7537 -0.4694
  408MOL0     C55006   3.980  10.349   4.030  0.9041 -1.2744  0.4705
  408MOL0     C55007   4.069  10.474   4.021  0.0724  0.1174 -0.5740
  408MOL0     C55008   4.072  10.543   3.894 -0.7439  0.2602 -0.3699
  408MOL0     C55009   3.935  10.585   3.871  0.0159  0.1782  0.2672
  408MOL0     C55010   3.818  10.628   3.882 -0.4776  0.2152 -0.4557
  408MOL0     C55011   4.284  10.116   4.302 -1.6624  0.4275 -1.3270
  408MOL0     C55012   4.333  10.070   4.432  1.3260  0.4902  0.7773
  408MOL0     H55013   4.080   9.955   4.944 -0.8401 -0.4820 -1.3023
  408MOL0     H55014   4.111   9.865   5.157 -0.0577 -3.5558  1.0691
  408MOL0     H55015   4.148   9.744   5.351 -0.5094 -1.5924  0.7940
  408MOL0     H55016   4.264   9.648   5.422  0.7751  0.4751  0.4851
  408MOL0     H55017   4.341   9.922   5.332 -1.3167 -2.0114 -1.4728
  408MOL0     H55018   4.269   9.910   5.485 -3.3900  0.5786 -2.1890
  408MOL0     H55019   4.422   9.744   5.560 -1.7129 -1.6306 -2.3092
  408MOL0     H55020   4.523   9.764   5.416 -0.0978 -2.0780  1.9784
  408MOL0     H55021   4.554   9.996   5.448 -2.8271  3.1927  1.2313
  408MOL0     H55022   4.477  10.008   5.603  3.2458  2.8576  0.1534
  408MOL0     H55023   4.702  10.022   5.650  0.2184  0.9044 -0.4301
  408MOL0     H55024   4.647   9.885   5.731  1.5381  0.3853  1.2947
  408MOL0     H55025   4.726   9.739   5.552  1.0523  0.0153  1.2779
  408MOL0     H55026   4.781   9.874   5.450  0.6409 -1.2839 -0.6887
  408MOL0     H55027   4.968   9.751   5.557 -0.8635 -0.9841  0.4506
  408MOL0     H55028   4.961   9.923   5.601 -0.1539  0.7675  3.4802
  408MOL0     H55029   4.866   9.671   5.746  1.0031  0.1257  2.1545
  408MOL0     H55030   4.859   9.832   5.821 -2.0333 -0.2002 -2.2325
  408MOL0     H55031   5.125   9.923   5.859 -2.8010 -1.4073  3.5698
  408MOL0     H55032   5.420   9.705   5.963  0.4668 -0.3840  0.2075
  408MOL0     H55033   5.461   9.789   5.817  1.0154 -0.6551  2.0164
  408MOL0     H55034   5.363   9.921   6.069 -0.7629  0.7972  0.3612
  408MOL0     H55035   5.350  10.001   5.920 -0.6807  0.1115 -0.0192
  408MOL0     H55036   5.560  10.063   6.050  0.1143 -1.7244  1.5199
  408MOL0     H55037   5.600  10.002   5.891 -0.8655  2.9057  0.6779
  408MOL0     H55038   5.587   9.829   6.145 -0.1854  1.2723  2.1260
  408MOL0     H55039   5.728   9.934   6.117 -2.8593  1.8637  2.4614
  408MOL0     H55040   5.732   9.817   5.733  0.7199  0.6414 -1.1512
  408MOL0     H55041   6.051   9.907   5.532  1.4568 -3.1895 -0.1079
  408MOL0     H55042   5.961   9.756   5.539 -0.7855  0.3441 -0.4053
  408MOL0     H55043   5.873   9.918   5.539  1.4358  0.7076 -4.4424
  408MOL0     H55044   6.263   9.806   5.378 -0.1357  2.7901  0.2967
  408MOL0     H55045   6.481   9.820   5.259  1.8886  1.0885  0.5893
  408MOL0     H55046   6.693   9.872   5.188 -0.4772 -0.5415  0.1315
  408MOL0     H55047   6.713   9.990   5.317  0.4734 -0.6538  2.2061
  408MOL0     H55048   6.897   9.956   5.129 -0.0375  1.1631  0.0800
  408MOL0     H55049   6.932   9.961   5.307  0.2648  0.1279  0.3001
  408MOL0     H55050   6.894   9.697   5.163  1.5546 -0.3754 -0.3687
  408MOL0     H55051   6.974   9.731   5.322 -3.3455 -0.7013  1.1149
  408MOL0     H55052   7.059   9.798   5.042  1.9435  0.9413  0.6200
  408MOL0     H55053   7.148   9.842   5.186 -3.7234  1.3810  1.8135
  408MOL0     H55054   7.068   9.535   5.136  1.5171 -1.5774 -2.6780
  408MOL0     H55055   7.177   9.601   5.249  1.9723  0.5865 -0.9985
  408MOL0     H55056   7.225   9.627   4.946 -1.5956  1.1874  0.1292
  408MOL0     H55057   7.346   9.624   5.066 -0.7639  1.4172 -1.4878
  408MOL0     H55058   7.187   9.398   4.944  1.3431  0.2379 -0.4331
  408MOL0     H55059   7.245   9.384   5.114 -3.2742 -2.2184 -0.9230
  408MOL0     H55060   7.398   9.286   4.950  3.9345 -0.4042  1.8156
  408MOL0     H55061   7.469   9.447   5.008  1.2345  1.8585 -2.7559
  408MOL0     H55062   6.693   9.777   5.637  1.1558  0.5332 -1.4886
  408MOL0     H55063   6.481   9.794   5.757  3.1186 -0.6622 -0.1024
  408MOL0     H55064   6.139   9.852   6.016  0.3778 -0.7909 -0.3535
  408MOL0     H55065   5.916   9.797   6.108  1.1999 -1.9219 -0.4774
  408MOL0     H55066   4.510   9.735   5.044 -0.2603 -3.0378 -2.4124
  408MOL0     H55067   4.474   9.857   4.827  3.5523  1.7145  2.3368
  408MOL0     H55068   4.051  10.120   4.622 -1.4839 -0.7767 -1.0684
  408MOL0     H55069   3.965  10.177   4.395  0.1843 -1.1595 -1.0381
  408MOL0     H55070   3.902  10.211   4.175 -0.7118 -0.8347 -0.8547
  408MOL0     H55071   3.976  10.348   4.236  1.6061 -1.1107  0.3828
  408MOL0     H55072   3.878  10.387   4.029  2.4330  3.6384 -1.5549
  408MOL0     H55073   4.000  10.282   3.945  0.9492  0.3852 -0.8737
  408MOL0     H55074   4.170  10.442   4.048 -0.4406 -1.9957 -0.9895
  408MOL0     H55075   4.044  10.547   4.098  0.6343 -0.2503 -0.0219
  408MOL0     H55076   4.113  10.488   3.809 -1.4117 -0.7463 -0.0650
  408MOL0     H55077   4.135  10.631   3.909 -3.1063  2.3503 -1.9766
  408MOL0     H55078   3.716  10.660   3.872 -0.5137 -0.1567 -1.2594
  408MOL0     H55079   4.365  10.120   4.229 -0.5427 -1.8811 -0.3327
  408MOL0     H55080   4.440  10.054   4.440  1.7200  1.4346 -1.6167
  409MOL0     O55081   9.362   3.655   1.539  0.4288  0.6156 -0.4052
  409MOL0     C55082   9.446   3.730   1.589 -0.3559  0.4188  0.3197
  409MOL0     O55083   9.441   3.791   1.710 -0.1400  0.2450  0.4142
  409MOL0     C55084   9.332   3.786   1.794 -0.4661  0.6087 -1.0104
  409MOL0     C55085   9.201   3.742   1.758 -0.5335  1.0172 -0.7110
  409MOL0     C55086   9.099   3.762   1.860  0.7987  0.4074  0.9663
  409MOL0     C55087   9.117   3.812   1.989 -0.2305 -0.7160 -0.4641
  409MOL0     O55088   9.014   3.820   2.076  0.2026  0.2943  0.2377
  409MOL0     C55089   8.989   3.945   2.137  0.0713 -0.8205  0.1352
  409MOL0     C55090   8.882   3.928   2.237  0.2051 -0.4504  0.4403
  409MOL0     C55091   8.845   4.058   2.293 -0.7685 -1.5675 -0.8124
  409MOL0     C55092   8.921   4.099   2.410 -0.6951 -1.4350  0.0973
  409MOL0     C55093   8.866   4.230   2.466 -1.4690  0.6115 -0.2906
  409MOL0     C55094   8.935   4.343   2.388  0.2767  0.6024  0.0671
  409MOL0     C55095   8.913   4.474   2.478  0.3950 -0.9441  0.3944
  409MOL0     C55096   9.012   4.496   2.599  1.3846 -0.0882  0.0214
  409MOL0     N55097   8.995   4.633   2.661  0.6045  0.1626  0.7910
  409MOL0     C55098   9.062   4.734   2.623  0.3055  0.0138 -0.1195
  409MOL0     C55099   9.016   4.846   2.687  0.0726  0.6293 -0.2799
  409MOL0     C55100   9.066   4.985   2.672  0.0906 -0.6297  0.7165
  409MOL0     C55101   9.192   5.024   2.739 -1.1657 -0.3700 -0.5332
  409MOL0     C55102   9.286   4.916   2.766 -0.2210 -0.5032 -0.2369
  409MOL0     C55103   9.404   4.953   2.862 -0.4121  0.2881 -0.2582
  409MOL0     O55104   9.511   4.998   2.785 -0.2395 -0.0821 -0.0652
  409MOL0     C55105   9.623   5.021   2.850  0.4291  0.1228 -0.4688
  409MOL0     C55106   9.636   5.033   2.987 -0.2315  0.7605 -0.6453
  409MOL0     C55107   9.761   5.032   3.052  0.1815  0.4693  0.2715
  409MOL0     C55108   9.752   4.990   3.199 -0.4586 -0.4710  0.7178
  409MOL0     C55109   9.882   5.043   2.984  0.7590  0.4893  0.1570
  409MOL0     C55110  10.021   5.040   3.044 -0.1774  0.3463 -0.1772
  409MOL0     O55111  10.114   5.019   2.954  0.0507 -0.7246 -0.2550
  409MOL0     C55112  10.243   5.061   2.972  0.7502  0.5410 -0.4856
  409MOL0     C55113  10.322   5.008   3.075  0.0907 -0.4855  0.1777
  409MOL0     C55114  10.455   5.054   3.083  0.2749 -0.0206 -0.0212
  409MOL0     C55115  10.514   5.143   2.992  0.3914 -0.1675  0.5930
  409MOL0     O55116  10.648   5.174   3.015 -0.1250 -0.0712  0.6729
  409MOL0     C55117  10.718   5.256   2.924  1.2271  0.8557 -0.6805
  409MOL0     C55118  10.869   5.247   2.917  0.6518 -0.4555 -0.0699
  409MOL0     C55119  10.930   5.300   3.054 -0.5164 -0.1831 -0.3422
  409MOL0     C55120  11.072   5.254   3.081 -0.5602  0.1962  0.0031
  409MOL0     C55121  11.122   5.358   3.181 -0.5439  1.1340  1.2922
  409MOL0     C55122  11.268   5.322   3.223 -0.1351 -0.2157 -0.0055
  409MOL0     C55123  11.311   5.410   3.338  0.0167 -0.1464  0.4129
  409MOL0     C55124  11.302   5.559   3.307  0.4685 -0.2801 -0.5550
  409MOL0    Cl55125  11.139   5.637   3.336 -0.0916  0.1429 -0.0305
  409MOL0     C55126  10.428   5.202   2.900  0.4542 -0.9453  0.6207
  409MOL0     C55127  10.294   5.161   2.894 -0.5835  0.2860 -0.2189
  409MOL0     O55128  10.036   5.045   3.165  0.0615  0.5704 -0.3224
  409MOL0     C55129   9.875   5.049   2.843  0.4718 -0.6872 -0.5611
  409MOL0     C55130   9.751   5.040   2.775  0.6946  0.0565 -0.5292
  409MOL0     N55131   8.888   4.811   2.733 -0.2066  0.0990  1.2031
  409MOL0     N55132   8.879   4.680   2.717 -0.0490  0.0595 -0.6513
  409MOL0     C55133   9.247   3.843   2.021 -0.6566 -0.2516 -0.5497
  409MOL0     C55134   9.355   3.825   1.928  0.2233 -0.1845  0.2385
  409MOL0     C55135   9.572   3.739   1.510 -0.2914  0.3259  0.3008
  409MOL0     C55136   9.560   3.737   1.373  0.2855 -0.3954  1.1486
  409MOL0     C55137   9.674   3.742   1.297  0.2043  1.3074 -1.2049
  409MOL0     C55138   9.807   3.751   1.361 -0.6503  0.6709  0.3052
  409MOL0     O55139   9.914   3.758   1.271 -0.5225  0.3796  0.6034
  409MOL0     C55140  10.047   3.754   1.325 -0.1631  0.1251 -0.5360
  409MOL0     C55141  10.138   3.762   1.204 -0.3337  0.1214 -0.9499
  409MOL0     C55142  10.174   3.618   1.166  0.3395  0.1624  0.6741
  409MOL0     C55143  10.256   3.613   1.027 -0.0736  0.6062 -0.1011
  409MOL0     C55144  10.395   3.574   1.063  0.3109 -0.5755  0.4545
  409MOL0     C55145  10.503   3.535   1.098  1.5288 -0.7920 -0.8689
  409MOL0     C55146   9.815   3.747   1.497 -0.9070 -0.6916 -0.3220
  409MOL0     C55147   9.696   3.745   1.575 -0.4894  0.1343  0.7430
  409MOL0     H55148   9.182   3.717   1.655  1.4498 -1.2712 -0.6194
  409MOL0     H55149   8.999   3.724   1.841  0.4072  1.4127  0.9781
  409MOL0     H55150   9.078   3.983   2.189 -0.9664  0.6808  0.8967
  409MOL0     H55151   8.961   4.016   2.059  0.1198 -2.5466 -1.5219
  409MOL0     H55152   8.788   3.894   2.191  0.0240 -0.0697  0.5274
  409MOL0     H55153   8.908   3.871   2.327 -1.1700  0.3334  1.3618
  409MOL0     H55154   8.851   4.147   2.230 -0.0601 -0.1867  1.1148
  409MOL0     H55155   8.739   4.057   2.317 -0.5433  0.0020  0.4360
  409MOL0     H55156   8.921   4.016   2.482  0.2300 -2.1032 -0.6522
  409MOL0     H55157   9.027   4.114   2.385 -0.8361 -0.2508  0.1239
  409MOL0     H55158   8.758   4.235   2.456 -1.4655 -1.8997 -2.8131
  409MOL0     H55159   8.891   4.232   2.573  0.3443  0.5381 -0.6829
  409MOL0     H55160   9.041   4.318   2.382  0.0019 -0.2707 -2.6697
  409MOL0     H55161   8.894   4.354   2.287 -1.6220 -1.3572  0.5594
  409MOL0     H55162   8.934   4.559   2.412  0.6429 -1.5712 -0.3552
  409MOL0     H55163   8.807   4.481   2.503  0.7875  2.9666  1.6367
  409MOL0     H55164   9.115   4.492   2.562  1.5449  0.5064  0.3952
  409MOL0     H55165   8.986   4.425   2.678 -2.4419  0.7042 -0.3019
  409MOL0     H55166   9.161   4.741   2.578  0.0967  1.9328 -0.3606
  409MOL0     H55167   9.090   4.992   2.566  1.8212 -2.1952  0.9593
  409MOL0     H55168   8.983   5.050   2.703 -0.3771 -1.4829  1.3059
  409MOL0     H55169   9.173   5.067   2.838  1.4129 -2.8062  1.1615
  409MOL0     H55170   9.238   5.103   2.678  2.9778  0.6729  3.4442
  409MOL0     H55171   9.326   4.877   2.672 -2.8944  0.6214 -1.9355
  409MOL0     H55172   9.232   4.843   2.827  0.4174  1.6841  3.2271
  409MOL0     H55173   9.444   4.867   2.916 -1.0232 -0.0426 -0.3141
  409MOL0     H55174   9.370   5.025   2.937  2.6989 -0.4483  2.0463
  409MOL0     H55175   9.551   5.017   3.052  0.1813  1.3550  0.0472
  409MOL0     H55176   9.766   5.078   3.262 -7.3727  0.7944  1.3371
  409MOL0     H55177   9.655   4.946   3.226 -2.0343  2.7647  0.8699
  409MOL0     H55178   9.825   4.912   3.218  1.0493  0.8154  0.4150
  409MOL0     H55179  10.286   4.943   3.154 -0.0913  0.5936  0.9965
  409MOL0     H55180  10.526   5.001   3.146 -2.0788 -0.9274  2.0051
  409MOL0     H55181  10.679   5.231   2.825 -2.1400  2.3662  0.1167
  409MOL0     H55182  10.679   5.355   2.951 -0.5156 -0.0808  0.4302
  409MOL0     H55183  10.902   5.149   2.883  0.5532 -0.3715 -0.4062
  409MOL0     H55184  10.898   5.309   2.831  0.0581 -2.4055 -1.7325
  409MOL0     H55185  10.866   5.260   3.133 -1.5007 -3.3132 -2.5059
  409MOL0     H55186  10.927   5.409   3.057  3.2164  0.0905 -1.0078
  409MOL0     H55187  11.080   5.154   3.125 -0.9955  0.8533  1.6532
  409MOL0     H55188  11.118   5.254   2.982 -0.8361 -1.5320 -0.1586
  409MOL0     H55189  11.051   5.341   3.262  0.0469 -0.2193  1.5555
  409MOL0     H55190  11.101   5.455   3.136 -0.0257  0.8037  0.2795
  409MOL0     H55191  11.263   5.217   3.254  0.6172 -0.8956 -2.0236
  409MOL0     H55192  11.344   5.334   3.146 -0.2593  1.5912  0.1105
  409MOL0     H55193  11.414   5.385   3.364  0.1012 -1.4439 -1.0368
  409MOL0     H55194  11.240   5.389   3.419 -0.3474 -0.7356 -0.0506
  409MOL0     H55195  11.319   5.564   3.199 -0.3173 -1.1550 -0.7272
  409MOL0     H55196  11.378   5.619   3.358  0.9654  0.6224 -2.2772
  409MOL0     H55197  10.462   5.285   2.839 -2.2504 -0.3957 -0.2700
  409MOL0     H55198  10.221   5.197   2.822  0.9933 -3.0503 -3.8683
  409MOL0     H55199   9.967   5.055   2.785  2.9129 -3.1189  2.7188
  409MOL0     H55200   9.740   5.035   2.668 -1.4287 -0.0169 -0.3531
  409MOL0     H55201   9.284   3.875   2.117  0.6292 -1.8812 -0.4645
  409MOL0     H55202   9.450   3.872   1.948 -0.6361  1.9826 -0.5017
  409MOL0     H55203   9.460   3.743   1.330  0.0520  2.7356  1.9115
  409MOL0     H55204   9.665   3.734   1.190 -0.2596  0.8477 -1.1338
  409MOL0     H55205  10.064   3.837   1.394  0.2578  0.1893 -0.7149
  409MOL0     H55206  10.076   3.660   1.372  1.8643 -0.8825 -3.5017
  409MOL0     H55207  10.231   3.815   1.226  1.2949 -1.6028 -3.2088
  409MOL0     H55208  10.098   3.816   1.118 -0.8197  1.1354 -0.1151
  409MOL0     H55209  10.082   3.561   1.149  1.7366 -1.4654 -1.9511
  409MOL0     H55210  10.243   3.581   1.242 -0.5751  0.3966  1.6514
  409MOL0     H55211  10.256   3.712   0.981 -1.8235  0.1227 -1.2609
  409MOL0     H55212  10.196   3.546   0.963 -6.2592  5.4245 -0.3212
  409MOL0     H55213  10.605   3.509   1.116  1.9192 -0.5985 -2.6020
  409MOL0     H55214   9.911   3.771   1.543  0.3213 -0.3714 -2.8785
  409MOL0     H55215   9.706   3.745   1.683  0.8634 -1.5462  0.6664
  410MOL0     O55216   0.139   9.406   3.359  0.0761  0.0546  0.3548
  410MOL0     C55217   0.043   9.358   3.310  0.4274 -0.7014  0.2337
  410MOL0     O55218  -0.051   9.284   3.382 -0.5778  0.0446  0.6761
  410MOL0     C55219  -0.022   9.272   3.521 -0.1030  0.0896  0.5335
  410MOL0     C55220   0.078   9.182   3.569 -0.5706 -0.0975 -0.8047
  410MOL0     C55221   0.120   9.185   3.706  0.2628 -0.0777  0.2107
  410MOL0     C55222   0.073   9.276   3.793 -0.0573  0.6059 -1.1650
  410MOL0     O55223   0.099   9.284   3.927 -0.0028  0.1367  0.0833
  410MOL0     C55224   0.186   9.187   3.996 -0.4205 -0.2529 -0.3316
  410MOL0     C55225   0.193   9.265   4.135  0.4706  0.3335  0.5323
  410MOL0     C55226   0.287   9.378   4.134 -0.2938  0.0684 -0.3836
  410MOL0     C55227   0.430   9.327   4.144  0.8515  0.8034 -0.2770
  410MOL0     C55228   0.519   9.446   4.180 -0.1205 -0.4279  0.3647
  410MOL0     C55229   0.676   9.414   4.185  0.3506  0.4448 -0.0757
  410MOL0     C55230   0.735   9.415   4.045  0.5958  0.2366 -0.6669
  410MOL0     C55231   0.890   9.427   4.044  0.0616 -0.6586 -0.0958
  410MOL0     N55232   0.957   9.388   3.918 -0.6047 -0.4548  0.7820
  410MOL0     C55233   0.932   9.435   3.793 -0.3631 -0.1006  0.8402
  410MOL0     C55234   1.036   9.400   3.718 -0.4307 -0.3932 -0.2372
  410MOL0     C55235   1.074   9.444   3.578 -0.3501  0.4691 -0.6295
  410MOL0     C55236   1.039   9.589   3.548  0.1881  0.2336 -0.3285
  410MOL0     C55237   1.108   9.644   3.424 -0.2393 -0.5596  0.0764
  410MOL0     C55238   1.247   9.684   3.449 -0.5291 -0.9409  0.2342
  410MOL0     O55239   1.281   9.788   3.362 -0.0091 -0.9691 -0.3490
  410MOL0     C55240   1.266   9.922   3.404 -0.4471 -0.6956 -0.0958
  410MOL0     C55241   1.190   9.968   3.506  0.4775 -0.4776  0.3274
  410MOL0     C55242   1.192  10.099   3.553  0.1085  0.3818 -0.5931
  410MOL0     C55243   1.095  10.140   3.667  0.5359  0.4166  0.0017
  410MOL0     C55244   1.286  10.184   3.495  0.1443 -0.3359 -0.4975
  410MOL0     C55245   1.316  10.320   3.540 -0.0528  0.2813 -0.0862
  410MOL0     O55246   1.418  10.381   3.495  0.4458 -0.2700  0.0514
  410MOL0     C55247   1.454  10.508   3.538  0.1615 -0.2009  0.9714
  410MOL0     C55248   1.527  10.533   3.648 -0.3564  0.2632  0.2039
  410MOL0     C55249   1.555  10.662   3.699 -0.0266  0.1638 -1.0764
  410MOL0     C55250   1.510  10.769   3.623 -0.9966 -0.3038  0.6984
  410MOL0     O55251   1.551  10.889   3.653 -0.1754  0.1503 -0.4084
  410MOL0     C55252   1.468  10.947   3.757 -0.5951 -1.3355 -0.6863
  410MOL0     C55253   1.510  11.093   3.787  0.5225  0.4635  0.7613
  410MOL0     C55254   1.487  11.140   3.935 -0.6965  0.2459 -0.0404
  410MOL0     C55255   1.563  11.269   3.964 -0.5304 -0.2387  0.3320
  410MOL0     C55256   1.531  11.305   4.109 -0.1020  0.9544 -0.6376
  410MOL0     C55257   1.549  11.454   4.145  0.0103 -0.6352 -0.1613
  410MOL0     C55258   1.687  11.504   4.111 -0.2332 -0.2806  0.9479
  410MOL0     C55259   1.704  11.587   3.981 -0.4776 -0.2058  1.3624
  410MOL0    Cl55260   1.644  11.765   4.014 -0.5750  0.2555  0.3486
  410MOL0     C55261   1.422  10.747   3.512  0.1931  0.1414  0.9982
  410MOL0     C55262   1.393  10.614   3.466 -0.2689  0.2330 -0.4453
  410MOL0     O55263   1.230  10.380   3.604 -0.9441  0.2647 -0.0317
  410MOL0     C55264   1.352  10.146   3.379 -0.0010 -0.4877 -1.5662
  410MOL0     C55265   1.340  10.018   3.340 -0.1151  0.1338 -0.4085
  410MOL0     N55266   1.103   9.294   3.783 -0.1084 -0.1585 -0.1692
  410MOL0     N55267   1.063   9.299   3.907 -0.1334  1.3022  0.0983
  410MOL0     C55268  -0.031   9.369   3.744  0.3551 -0.7045  1.0730
  410MOL0     C55269  -0.071   9.372   3.611 -0.7155 -0.1152  0.3822
  410MOL0     C55270   0.005   9.389   3.167 -0.3022  0.1956 -0.0045
  410MOL0     C55271  -0.100   9.310   3.103 -0.6817  0.1454  0.0483
  410MOL0     C55272  -0.129   9.344   2.968 -0.3776 -0.9001  0.9994
  410MOL0     C55273  -0.066   9.449   2.897  0.1952  0.6015 -0.3343
  410MOL0     O55274  -0.122   9.472   2.771 -0.0715 -0.4275 -0.1289
  410MOL0     C55275  -0.063   9.575   2.696  0.8006 -0.0691  0.5194
  410MOL0     C55276  -0.137   9.566   2.557  0.4273  0.4658 -0.0022
  410MOL0     C55277  -0.106   9.434   2.484  0.5735  0.1466  0.5303
  410MOL0     C55278  -0.215   9.323   2.507 -0.3624 -0.8681  0.5338
  410MOL0     C55279  -0.157   9.194   2.473  0.6622  0.8943  0.6738
  410MOL0     C55280  -0.121   9.082   2.430  0.4970  0.2995 -0.4288
  410MOL0     C55281   0.033   9.530   2.961  0.5742 -0.0249 -0.4529
  410MOL0     C55282   0.078   9.487   3.094  0.0958  0.0736  0.7983
  410MOL0     H55283   0.124   9.105   3.507 -3.1829 -2.7226  0.2492
  410MOL0     H55284   0.179   9.103   3.747  0.3419 -0.4863 -0.6938
  410MOL0     H55285   0.135   9.090   4.001  1.7094 -1.4941 -1.5269
  410MOL0     H55286   0.290   9.175   3.965  0.9992 -4.0175  4.6319
  410MOL0     H55287   0.091   9.302   4.149 -0.4222  0.2374 -4.0960
  410MOL0     H55288   0.224   9.191   4.210  1.1999 -0.7169 -0.7630
  410MOL0     H55289   0.266   9.433   4.042 -3.9064 -1.8831 -0.9204
  410MOL0     H55290   0.265   9.429   4.228  0.6142 -1.5406  0.7386
  410MOL0     H55291   0.436   9.259   4.229  2.0190  1.4452  0.1740
  410MOL0     H55292   0.462   9.273   4.054  0.6520 -1.6225  1.0192
  410MOL0     H55293   0.498   9.537   4.123 -4.5667  0.1219  2.4652
  410MOL0     H55294   0.495   9.485   4.280  1.8790  2.9146 -0.2691
  410MOL0     H55295   0.728   9.487   4.247  2.0341 -0.7761  0.0002
  410MOL0     H55296   0.696   9.319   4.234  2.6214  0.1293 -1.5040
  410MOL0     H55297   0.698   9.321   4.003  2.9894 -1.4258  0.7085
  410MOL0     H55298   0.692   9.493   3.981 -2.8370  0.9977  2.2308
  410MOL0     H55299   0.940   9.362   4.117  0.1808 -0.5928 -0.1212
  410MOL0     H55300   0.915   9.532   4.062  0.1739 -0.0847 -3.0928
  410MOL0     H55301   0.848   9.497   3.763 -1.2300 -1.6003  0.0176
  410MOL0     H55302   1.181   9.422   3.575 -0.2040  0.7369  1.4689
  410MOL0     H55303   1.016   9.381   3.511  0.1605 -1.5327  0.7390
  410MOL0     H55304   1.044   9.665   3.627 -1.2454  1.5462 -1.4337
  410MOL0     H55305   0.935   9.584   3.515  1.3204  0.6797 -4.5140
  410MOL0     H55306   1.047   9.720   3.374 -1.1534 -2.3383 -1.6182
  410MOL0     H55307   1.106   9.564   3.350  0.4310 -0.6958  0.2004
  410MOL0     H55308   1.311   9.600   3.419  2.0143  0.0866  2.4240
  410MOL0     H55309   1.261   9.707   3.555 -2.0082 -2.0393  0.7007
  410MOL0     H55310   1.137   9.889   3.559  0.2323 -1.2638 -1.0332
  410MOL0     H55311   1.062  10.240   3.637  0.7558  0.3043 -0.6328
  410MOL0     H55312   1.005  10.077   3.673 -0.0984  1.2184 -0.7186
  410MOL0     H55313   1.136  10.135   3.768 -0.0222 -0.1046  0.2130
  410MOL0     H55314   1.561  10.444   3.699 -1.5812  0.5455  1.5923
  410MOL0     H55315   1.625  10.658   3.782  1.0523  0.2850 -1.9603
  410MOL0     H55316   1.367  10.947   3.714 -0.5441  0.7437 -0.8886
  410MOL0     H55317   1.482  10.893   3.851  0.3245  0.9498  0.5539
  410MOL0     H55318   1.617  11.095   3.767  0.3982  0.4007  0.0445
  410MOL0     H55319   1.450  11.153   3.718 -1.1351 -0.7501  1.0884
  410MOL0     H55320   1.512  11.064   4.009 -2.0606  0.9963  1.2611
  410MOL0     H55321   1.379  11.159   3.944 -1.1022 -2.0898  0.6822
  410MOL0     H55322   1.670  11.266   3.941 -0.7142 -0.0994 -0.5856
  410MOL0     H55323   1.514  11.341   3.898 -0.2477  3.3440  3.7039
  410MOL0     H55324   1.602  11.245   4.167  1.1528 -0.8305 -3.7279
  410MOL0     H55325   1.431  11.270   4.135 -1.0012  2.3120 -2.0420
  410MOL0     H55326   1.477  11.518   4.093 -2.0958 -1.2846  1.7837
  410MOL0     H55327   1.536  11.457   4.254  2.7117  3.5241  0.2768
  410MOL0     H55328   1.757  11.420   4.103 -0.2121 -0.1382 -0.6842
  410MOL0     H55329   1.732  11.559   4.195  2.6832  0.2708 -0.7993
  410MOL0     H55330   1.646  11.554   3.895  1.0556  2.1921 -0.7535
  410MOL0     H55331   1.806  11.590   3.941 -1.5653  0.6619 -1.6118
  410MOL0     H55332   1.386  10.828   3.450  0.3451 -0.8946 -0.4885
  410MOL0     H55333   1.343  10.587   3.374  0.2068 -5.2070  0.5958
  410MOL0     H55334   1.421  10.215   3.331  0.7588 -0.4528 -0.4655
  410MOL0     H55335   1.388   9.983   3.249 -0.7929 -0.7981 -0.4229
  410MOL0     H55336  -0.063   9.454   3.803  2.9854  1.6483 -0.6402
  410MOL0     H55337  -0.142   9.438   3.560  1.2837  1.4617 -0.4882
  410MOL0     H55338  -0.136   9.218   3.147 -0.3653 -1.7110 -3.1936
  410MOL0     H55339  -0.211   9.305   2.909 -3.5293  6.7284 -0.8591
  410MOL0     H55340  -0.060   9.672   2.745 -1.0392  0.8580 -1.0773
  410MOL0     H55341   0.044   9.558   2.686  0.7710 -1.3897  1.9121
  410MOL0     H55342  -0.110   9.650   2.492  0.3964  1.3448  1.0819
  410MOL0     H55343  -0.244   9.576   2.578  0.4363 -0.6147  0.5926
  410MOL0     H55344  -0.014   9.402   2.533  0.6683  1.4438  1.2504
  410MOL0     H55345  -0.070   9.439   2.381  0.3114 -1.0448  0.3623
  410MOL0     H55346  -0.294   9.340   2.432 -0.6155 -0.5870  0.8612
  410MOL0     H55347  -0.249   9.328   2.611  5.5231 -0.8447  2.8275
  410MOL0     H55348  -0.080   8.995   2.382  0.7081 -1.6370  2.9337
  410MOL0     H55349   0.097   9.597   2.905 -1.4392  0.7004 -2.0348
  410MOL0     H55350   0.157   9.541   3.146  0.3549 -1.0134  1.5677
  411MOL0     O55351  11.253   1.818   4.015 -0.6317  0.6606  0.2510
  411MOL0     C55352  11.367   1.772   4.026  0.6378  0.1854  0.6363
  411MOL0     O55353  11.464   1.789   3.933 -0.0967 -0.1065 -0.0272
  411MOL0     C55354  11.440   1.822   3.801  0.5976 -0.3164 -0.5500
  411MOL0     C55355  11.554   1.869   3.733  0.6690 -0.0980 -1.1572
  411MOL0     C55356  11.545   1.921   3.611 -0.8571  0.2742 -0.2413
  411MOL0     C55357  11.429   1.905   3.537 -0.3786 -0.0849 -0.8253
  411MOL0     O55358  11.416   1.927   3.406 -0.1068 -0.0691 -0.2591
  411MOL0     C55359  11.523   1.980   3.330 -0.1101  1.2323  0.0846
  411MOL0     C55360  11.499   1.934   3.184  0.0017  0.3216  0.2618
  411MOL0     C55361  11.620   1.961   3.100 -0.6598  0.8031  0.0266
  411MOL0     C55362  11.619   1.898   2.949 -0.3769 -1.1170 -1.2152
  411MOL0     C55363  11.755   1.944   2.883 -0.5603  0.3314  0.4093
  411MOL0     C55364  11.774   1.882   2.746 -0.7100 -0.4870 -0.6943
  411MOL0     C55365  11.829   1.744   2.762 -0.5557  0.9611 -0.7407
  411MOL0     C55366  11.982   1.746   2.759 -0.2426  0.0038 -0.6274
  411MOL0     N55367  12.045   1.616   2.766 -0.7073  0.1570  0.6717
  411MOL0     C55368  12.098   1.548   2.879  1.4446  0.5662  0.8577
  411MOL0     C55369  12.109   1.423   2.834 -1.1447  0.1093 -0.3121
  411MOL0     C55370  12.144   1.309   2.921 -1.0017 -0.6744 -0.0532
  411MOL0     C55371  12.016   1.269   3.002  0.0136  0.0337 -0.2735
  411MOL0     C55372  12.071   1.164   3.095 -0.0842 -0.7380  0.4828
  411MOL0     C55373  11.975   1.091   3.171 -0.4076  0.1877  0.3537
  411MOL0     O55374  11.913   1.187   3.263 -0.6792  0.6333  0.3788
  411MOL0     C55375  11.844   1.128   3.365 -0.0597  0.8195 -0.6581
  411MOL0     C55376  11.762   1.021   3.349 -0.3331  0.5826  0.9354
  411MOL0     C55377  11.698   0.952   3.454  1.7037 -0.2266 -0.5406
  411MOL0     C55378  11.612   0.825   3.428  0.2960 -0.8237  1.7109
  411MOL0     C55379  11.707   1.009   3.587  0.4446  0.3833  0.3965
  411MOL0     C55380  11.645   0.956   3.707  0.7998 -0.0294 -0.2283
  411MOL0     O55381  11.631   0.817   3.717 -0.4302 -0.0679  0.5729
  411MOL0     C55382  11.545   0.765   3.805  0.5877  0.4402  0.0535
  411MOL0     C55383  11.414   0.761   3.763  0.6389 -1.0012  0.3135
  411MOL0     C55384  11.313   0.719   3.857 -0.1644  0.4846  0.6979
  411MOL0     C55385  11.348   0.659   3.987 -0.1233 -0.2951 -0.2620
  411MOL0     O55386  11.269   0.596   4.071  0.2342  0.4294 -0.2466
  411MOL0     C55387  11.134   0.651   4.072  0.6314  0.5348 -0.9818
  411MOL0     C55388  11.049   0.598   4.183  1.0711 -0.6636 -0.5816
  411MOL0     C55389  10.924   0.686   4.211  0.0599  0.2631  0.0261
  411MOL0     C55390  10.845   0.618   4.329  0.2329 -0.7238  0.2875
  411MOL0     C55391  10.704   0.609   4.287  0.1502  0.0435 -0.1106
  411MOL0     C55392  10.614   0.578   4.416 -0.9255  0.5134  0.1024
  411MOL0     C55393  10.477   0.538   4.369 -0.7301 -0.2028 -0.1007
  411MOL0     C55394  10.401   0.473   4.485  0.4390  0.2340 -0.0222
  411MOL0    Cl55395  10.261   0.376   4.443  0.5725  0.6844 -0.3354
  411MOL0     C55396  11.488   0.654   4.022  0.3075  0.7494 -0.2791
  411MOL0     C55397  11.579   0.726   3.934 -0.0016  0.2125 -0.2677
  411MOL0     O55398  11.597   1.040   3.786  0.3028  0.2953  0.1463
  411MOL0     C55399  11.771   1.131   3.602 -0.1317 -1.0525  0.0099
  411MOL0     C55400  11.849   1.181   3.490  0.4875 -0.1485  1.7162
  411MOL0     N55401  12.102   1.413   2.694  0.0242  0.5781 -0.7568
  411MOL0     N55402  12.060   1.531   2.660  0.9366 -0.0615  0.1880
  411MOL0     C55403  11.311   1.858   3.598  0.0737  0.5361 -0.2561
  411MOL0     C55404  11.317   1.819   3.731 -0.0824  0.7433  0.4638
  411MOL0     C55405  11.394   1.690   4.137  0.2442 -0.1671 -0.3284
  411MOL0     C55406  11.513   1.618   4.141  0.0237 -0.6199  0.0286
  411MOL0     C55407  11.535   1.531   4.247 -0.4594  0.7059 -0.1212
  411MOL0     C55408  11.428   1.511   4.347  0.8278 -0.8725  0.2366
  411MOL0     O55409  11.420   1.426   4.452 -0.4333  0.5874 -0.4338
  411MOL0     C55410  11.543   1.391   4.511 -0.4980  0.4729  0.2372
  411MOL0     C55411  11.528   1.301   4.635  1.1443  0.1416 -0.3004
  411MOL0     C55412  11.463   1.162   4.605 -0.3585  0.2105  0.4480
  411MOL0     C55413  11.486   1.045   4.700  1.4065 -0.0801  0.5395
  411MOL0     C55414  11.458   1.056   4.843  0.8895 -1.1737 -0.6693
  411MOL0     C55415  11.429   1.066   4.963  0.1954  0.0704 -0.3308
  411MOL0     C55416  11.310   1.582   4.337 -0.8420 -0.4156  0.5711
  411MOL0     C55417  11.292   1.676   4.237 -0.4745  1.5115  0.3923
  411MOL0     H55418  11.644   1.882   3.792  0.9463  1.2903 -1.8286
  411MOL0     H55419  11.637   1.959   3.567 -0.6829  2.3655  1.6940
  411MOL0     H55420  11.542   2.087   3.345  1.6536  1.1665 -1.2965
  411MOL0     H55421  11.613   1.931   3.368 -0.5564  2.5938  3.2342
  411MOL0     H55422  11.483   1.826   3.173  3.1894 -0.0344 -2.8507
  411MOL0     H55423  11.411   1.980   3.139 -0.2055  0.2312  0.5666
  411MOL0     H55424  11.618   2.070   3.095 -1.8291  0.9978  2.8175
  411MOL0     H55425  11.708   1.919   3.150 -2.1409 -2.6808  0.0015
  411MOL0     H55426  11.620   1.789   2.964 -4.0540 -1.0021  1.1160
  411MOL0     H55427  11.533   1.920   2.886 -0.4893 -1.8821 -1.3336
  411MOL0     H55428  11.752   2.051   2.857 -4.4386 -0.5150 -4.1050
  411MOL0     H55429  11.841   1.913   2.943  3.3179  6.8938 -0.7129
  411MOL0     H55430  11.686   1.894   2.682 -0.9530 -0.2907 -0.3286
  411MOL0     H55431  11.848   1.940   2.690 -0.5090  1.9781  1.8735
  411MOL0     H55432  11.776   1.687   2.840  0.2044  3.0633  1.4349
  411MOL0     H55433  11.802   1.681   2.677  0.6990 -1.7461  0.7444
  411MOL0     H55434  12.019   1.809   2.840 -2.8284  1.2285 -0.3160
  411MOL0     H55435  12.020   1.791   2.666 -1.7665  0.4904 -1.0444
  411MOL0     H55436  12.102   1.585   2.981  1.7030  0.3450  0.9289
  411MOL0     H55437  12.157   1.217   2.863 -0.1273  0.3015 -1.4632
  411MOL0     H55438  12.230   1.325   2.986  0.3206  2.6633 -2.3417
  411MOL0     H55439  11.945   1.225   2.932  1.1912  0.0373 -1.5077
  411MOL0     H55440  11.982   1.348   3.069  1.2995  0.5196 -0.1628
  411MOL0     H55441  12.150   1.190   3.166 -2.7288  2.8395  2.4089
  411MOL0     H55442  12.111   1.070   3.055  0.1000 -1.6620  2.6866
  411MOL0     H55443  12.039   1.016   3.218  3.4128  3.9326  1.7776
  411MOL0     H55444  11.893   1.059   3.105 -1.1821  3.8376 -0.6787
  411MOL0     H55445  11.757   0.985   3.247 -0.1363  4.9512 -0.8207
  411MOL0     H55446  11.644   0.725   3.458  0.1545 -1.0558  1.1010
  411MOL0     H55447  11.512   0.846   3.466  0.0999 -2.5747  2.2673
  411MOL0     H55448  11.602   0.823   3.320  0.3502  2.6721  1.5169
  411MOL0     H55449  11.379   0.793   3.665  0.5183 -0.5970  0.4869
  411MOL0     H55450  11.207   0.718   3.832 -0.2298 -0.8518  0.9816
  411MOL0     H55451  11.133   0.761   4.074  0.4518  0.5326  0.9109
  411MOL0     H55452  11.078   0.615   3.985 -1.2017  1.3643 -0.2064
  411MOL0     H55453  11.015   0.497   4.159  2.3321 -1.8971  2.3820
  411MOL0     H55454  11.117   0.601   4.269  1.1889 -3.5050 -0.4959
  411MOL0     H55455  10.865   0.712   4.123 -0.1725 -1.2452 -0.2893
  411MOL0     H55456  10.959   0.784   4.244  1.1416 -0.2985  0.6220
  411MOL0     H55457  10.886   0.520   4.354 -1.5285 -1.5711 -0.0318
  411MOL0     H55458  10.857   0.678   4.421  0.8477  0.6119 -0.6266
  411MOL0     H55459  10.684   0.527   4.217 -1.2122  2.4650 -2.7369
  411MOL0     H55460  10.663   0.697   4.239 -1.5698 -0.0407  1.1382
  411MOL0     H55461  10.657   0.500   4.480  0.6810  4.2592  4.1324
  411MOL0     H55462  10.603   0.659   4.489  2.4630  2.7504 -1.5599
  411MOL0     H55463  10.495   0.469   4.286  1.6803  1.4436 -1.0315
  411MOL0     H55464  10.424   0.618   4.317  1.0405  0.7580 -0.4879
  411MOL0     H55465  10.382   0.547   4.563 -0.9171  1.1218 -1.1409
  411MOL0     H55466  10.462   0.395   4.532  0.9252  1.2252  1.0489
  411MOL0     H55467  11.517   0.604   4.113  0.7581 -2.6083 -2.0779
  411MOL0     H55468  11.679   0.746   3.971 -1.1833  0.0435  3.4030
  411MOL0     H55469  11.792   1.179   3.697 -1.2475 -2.9521  1.2672
  411MOL0     H55470  11.918   1.265   3.493 -1.2100  1.8670 -3.6659
  411MOL0     H55471  11.215   1.855   3.548  0.0692 -1.2530 -0.2161
  411MOL0     H55472  11.224   1.788   3.778 -1.0543  3.2967  0.3576
  411MOL0     H55473  11.588   1.620   4.063  1.4275 -1.5110  1.2905
  411MOL0     H55474  11.624   1.472   4.262 -2.8910 -3.4689 -0.4890
  411MOL0     H55475  11.595   1.337   4.431 -3.1693 -2.6606  0.3995
  411MOL0     H55476  11.589   1.485   4.542  0.3334 -0.4054  1.7696
  411MOL0     H55477  11.463   1.351   4.707  0.6731 -0.2003 -0.4814
  411MOL0     H55478  11.621   1.273   4.685 -0.5571 -3.4926  1.2215
  411MOL0     H55479  11.487   1.132   4.503 -0.1407  0.9501  0.2756
  411MOL0     H55480  11.354   1.167   4.595 -0.6014 -4.5523 -1.8231
  411MOL0     H55481  11.590   1.012   4.686  2.3841  2.7160  0.5072
  411MOL0     H55482  11.414   0.965   4.682 -0.6402  1.3820  1.9350
  411MOL0     H55483  11.419   1.080   5.068  0.2180  3.5626 -0.6662
  411MOL0     H55484  11.234   1.553   4.408 -0.4505 -0.3501  1.0229
  411MOL0     H55485  11.211   1.747   4.247 -1.6767  0.0640  1.2456
  412MOL0     O55486   9.777   4.358  10.502  0.4631 -0.4692 -0.5784
  412MOL0     C55487   9.753   4.250  10.461  0.0786  1.0923  1.3901
  412MOL0     O55488   9.828   4.136  10.490  0.1848 -0.4892 -0.3906
  412MOL0     C55489   9.943   4.163  10.560 -0.3356 -0.3117  0.2584
  412MOL0     C55490  10.067   4.126  10.501 -0.4008  0.1526 -0.5421
  412MOL0     C55491  10.184   4.169  10.558 -1.3156 -0.0365  0.4406
  412MOL0     C55492  10.185   4.239  10.685  1.1569  0.1946  0.3309
  412MOL0     O55493  10.303   4.281  10.747  0.0210  0.1479  0.1147
  412MOL0     C55494  10.420   4.221  10.707 -0.8399 -0.6825  0.3808
  412MOL0     C55495  10.529   4.291  10.795  0.5440 -0.2489  0.3955
  412MOL0     C55496  10.660   4.235  10.782  0.1308 -0.5787  0.1923
  412MOL0     C55497  10.753   4.273  10.901 -0.0309 -0.0136  0.0649
  412MOL0     C55498  10.901   4.253  10.880  0.0358  0.5686 -0.2992
  412MOL0     C55499  10.943   4.110  10.917  0.5784  0.5669  0.1538
  412MOL0     C55500  10.952   4.068  11.067  0.2161  0.2993  0.2269
  412MOL0     C55501  10.931   3.915  11.061  0.6898  1.1201 -0.3393
  412MOL0     N55502  10.953   3.870  11.200  1.0468 -0.1550  0.0088
  412MOL0     C55503  11.077   3.832  11.246 -0.1098  0.0126  1.1544
  412MOL0     C55504  11.067   3.757  11.361  0.1346 -0.1912 -0.0502
  412MOL0     C55505  11.174   3.687  11.423 -0.5624  0.2442  0.5454
  412MOL0     C55506  11.261   3.769  11.519  0.3395 -0.2998 -1.1425
  412MOL0     C55507  11.200   3.810  11.655 -0.3063 -0.3656  0.2418
  412MOL0     C55508  11.305   3.803  11.772  0.4592 -0.8232 -0.5669
  412MOL0     O55509  11.243   3.831  11.899  0.2127 -0.0902 -0.3353
  412MOL0     C55510  11.303   3.787  12.018 -0.9394  0.2786 -0.0586
  412MOL0     C55511  11.431   3.740  12.035 -0.1988  0.3173  0.6246
  412MOL0     C55512  11.485   3.693  12.158  0.9280 -0.0404 -0.6127
  412MOL0     C55513  11.626   3.646  12.156  0.1278  0.0487 -0.6511
  412MOL0     C55514  11.399   3.689  12.274 -1.6947 -0.6830 -0.4800
  412MOL0     C55515  11.436   3.635  12.410  0.0967 -0.6058  0.3277
  412MOL0     O55516  11.348   3.660  12.512  0.5921 -0.9993 -0.0793
  412MOL0     C55517  11.374   3.595  12.638 -0.2097 -0.3602  0.5984
  412MOL0     C55518  11.273   3.503  12.682 -0.7586 -0.8383  0.0509
  412MOL0     C55519  11.293   3.443  12.805  1.0336 -0.5151 -0.3880
  412MOL0     C55520  11.411   3.462  12.884  0.5145  0.1665  1.4425
  412MOL0     O55521  11.417   3.394  13.003 -0.6190 -0.1950 -0.3088
  412MOL0     C55522  11.499   3.284  13.027  0.5780  0.3823  1.4241
  412MOL0     C55523  11.468   3.210  13.154 -0.0065  1.3105 -0.3330
  412MOL0     C55524  11.313   3.201  13.183 -0.2940  0.9037 -0.1950
  412MOL0     C55525  11.296   3.172  13.330  0.4958  0.2424 -0.8087
  412MOL0     C55526  11.148   3.174  13.354  0.0016  0.4875  0.2983
  412MOL0     C55527  11.099   3.081  13.471  0.4086  0.2730 -0.6718
  412MOL0     C55528  11.188   3.107  13.593 -0.2994 -0.1751  0.2389
  412MOL0     C55529  11.135   3.017  13.715 -0.4418 -0.9534 -0.2282
  412MOL0    Cl55530  11.241   3.027  13.853  0.1205 -0.0699 -0.3369
  412MOL0     C55531  11.503   3.557  12.839 -0.1366 -0.6017  0.4106
  412MOL0     C55532  11.486   3.624  12.715 -0.5537 -0.1252  0.2864
  412MOL0     O55533  11.540   3.574  12.424 -0.2536 -0.3742 -0.3246
  412MOL0     C55534  11.267   3.738  12.252 -0.5304  0.7435  0.1854
  412MOL0     C55535  11.221   3.774  12.130  0.2536 -0.5992  0.3304
  412MOL0     N55536  10.934   3.744  11.385  0.8734 -0.2914 -0.7484
  412MOL0     N55537  10.864   3.814  11.289  0.1783 -0.0502 -0.7788
  412MOL0     C55538  10.063   4.265  10.751  0.0811  0.3368 -0.6315
  412MOL0     C55539   9.940   4.228  10.685  0.6329 -0.1132 -0.1059
  412MOL0     C55540   9.641   4.222  10.356  0.3212 -0.3858 -0.6815
  412MOL0     C55541   9.573   4.328  10.288 -0.0379  0.3498 -0.7478
  412MOL0     C55542   9.490   4.306  10.182  0.0831 -1.1920  0.1874
  412MOL0     C55543   9.454   4.178  10.145 -0.6211  0.3007 -0.0086
  412MOL0     O55544   9.379   4.145  10.039 -0.1872 -0.4427 -0.5687
  412MOL0     C55545   9.261   4.220  10.031  0.0392 -1.2194  0.1802
  412MOL0     C55546   9.138   4.126   9.989 -0.5459  0.1039  0.1470
  412MOL0     C55547   9.116   4.035  10.106 -0.0175  0.2988 -0.2545
  412MOL0     C55548   8.994   3.949  10.069  0.1649 -0.9847  0.6608
  412MOL0     C55549   8.869   4.018  10.081 -0.2325  0.0379  0.5547
  412MOL0     C55550   8.778   4.094  10.101 -0.9397 -0.3831 -0.3546
  412MOL0     C55551   9.519   4.078  10.207 -0.6723 -0.3508  0.4149
  412MOL0     C55552   9.598   4.092  10.317 -0.0032  0.5503 -0.0998
  412MOL0     H55553  10.073   4.060  10.415  3.0333  0.9435 -1.0622
  412MOL0     H55554  10.278   4.155  10.505 -1.1407 -1.2207  1.0274
  412MOL0     H55555  10.420   4.116  10.737  1.9324 -1.3476 -1.5889
  412MOL0     H55556  10.446   4.234  10.602 -1.3254 -1.4854  0.1536
  412MOL0     H55557  10.534   4.393  10.756 -2.2706  0.9435  2.8174
  412MOL0     H55558  10.494   4.298  10.899 -0.8989  3.2026 -0.1991
  412MOL0     H55559  10.651   4.129  10.758  0.6037 -0.0034 -3.0921
  412MOL0     H55560  10.711   4.273  10.692  1.6704 -4.4334 -0.7697
  412MOL0     H55561  10.747   4.380  10.923 -2.4789 -0.6468  3.2063
  412MOL0     H55562  10.730   4.213  10.989  0.8497 -1.9840 -1.0001
  412MOL0     H55563  10.918   4.262  10.773  1.6304  0.8931 -0.0418
  412MOL0     H55564  10.959   4.327  10.937 -1.0106 -0.9335  3.0104
  412MOL0     H55565  10.868   4.048  10.868  1.1249 -3.0143  3.3583
  412MOL0     H55566  11.042   4.087  10.877  1.0761 -0.8655  2.0056
  412MOL0     H55567  11.053   4.079  11.109  0.7170 -3.8348  0.5355
  412MOL0     H55568  10.881   4.113  11.137 -0.8405 -2.5654  1.1286
  412MOL0     H55569  10.997   3.870  10.986 -0.4795 -0.7581 -0.3287
  412MOL0     H55570  10.829   3.894  11.028  1.0200 -1.6616  0.1409
  412MOL0     H55571  11.166   3.842  11.185 -0.5351  0.8270  0.6579
  412MOL0     H55572  11.134   3.609  11.488 -0.7088  1.1736  1.5902
  412MOL0     H55573  11.228   3.649  11.336 -2.5898  0.9778 -1.1353
  412MOL0     H55574  11.303   3.847  11.455 -0.9618 -1.4436 -3.5437
  412MOL0     H55575  11.344   3.706  11.552  4.1963  3.8591 -1.8500
  412MOL0     H55576  11.116   3.744  11.679 -1.5545  0.1948 -2.2898
  412MOL0     H55577  11.150   3.907  11.649  1.1425  0.3373 -1.8001
  412MOL0     H55578  11.389   3.873  11.761 -0.7743  0.5318 -1.7845
  412MOL0     H55579  11.341   3.701  11.760  0.5322 -1.3524  3.1000
  412MOL0     H55580  11.495   3.749  11.947 -2.1431  0.7237 -0.7959
  412MOL0     H55581  11.688   3.694  12.232 -1.1716 -0.3108  0.6794
  412MOL0     H55582  11.625   3.539  12.179  0.4636  0.0040 -0.8372
  412MOL0     H55583  11.670   3.668  12.058  0.6197  2.2368  0.0232
  412MOL0     H55584  11.180   3.491  12.627 -1.1682  0.8871  0.3061
  412MOL0     H55585  11.221   3.373  12.847  1.4065 -0.0669  1.0540
  412MOL0     H55586  11.495   3.225  12.935 -2.8563  0.0681  1.6334
  412MOL0     H55587  11.602   3.316  13.043  0.0454  0.8651  4.6315
  412MOL0     H55588  11.499   3.111  13.119  1.5317  2.0047 -1.0432
  412MOL0     H55589  11.533   3.238  13.237  0.6300 -0.0169 -0.3480
  412MOL0     H55590  11.272   3.123  13.118  1.5809 -1.0342  0.8330
  412MOL0     H55591  11.268   3.296  13.154 -1.0479  0.1659 -1.5232
  412MOL0     H55592  11.348   3.077  13.349  0.9175  0.6449  0.0948
  412MOL0     H55593  11.333   3.252  13.394 -1.2190  0.8283 -0.5206
  412MOL0     H55594  11.094   3.135  13.268 -1.0627  1.2856  0.5839
  412MOL0     H55595  11.118   3.277  13.375 -1.5743 -0.1257  1.2158
  412MOL0     H55596  10.994   3.093  13.500  0.6000  0.1072  0.1259
  412MOL0     H55597  11.114   2.979  13.435 -0.0270 -1.2161  2.9339
  412MOL0     H55598  11.191   3.215  13.603 -1.7269 -0.1417  0.3982
  412MOL0     H55599  11.292   3.080  13.569 -0.4429  1.2881 -2.4768
  412MOL0     H55600  11.122   2.914  13.680  1.4493 -0.6594 -1.9872
  412MOL0     H55601  11.033   3.053  13.733 -1.1138 -1.4035 -2.6907
  412MOL0     H55602  11.588   3.584  12.901  0.2031 -1.2510  0.2415
  412MOL0     H55603  11.557   3.696  12.678 -0.4156 -0.7176 -0.6459
  412MOL0     H55604  11.191   3.736  12.329  0.0007  0.8808  0.7199
  412MOL0     H55605  11.119   3.803  12.107  0.7933  0.2971 -1.0640
  412MOL0     H55606  10.067   4.326  10.841  1.6566  1.1946 -1.2420
  412MOL0     H55607   9.850   4.235  10.746  1.9024  0.4051  1.7954
  412MOL0     H55608   9.605   4.427  10.316  1.0024  0.3061 -1.7105
  412MOL0     H55609   9.462   4.393  10.124  0.8028 -0.3402  1.0930
  412MOL0     H55610   9.231   4.271  10.123  0.2114 -0.6640 -0.0671
  412MOL0     H55611   9.272   4.301   9.958  0.5467 -4.1204 -3.2229
  412MOL0     H55612   9.165   4.073   9.897 -1.8733  3.0457 -2.1070
  412MOL0     H55613   9.046   4.182   9.973 -0.1254  1.3044  1.7227
  412MOL0     H55614   9.103   4.089  10.200 -2.2907 -3.8411  2.1342
  412MOL0     H55615   9.207   3.978  10.124  0.7705  1.9188  1.0534
  412MOL0     H55616   8.987   3.867  10.142  1.4598 -1.6634  0.0652
  412MOL0     H55617   9.007   3.914   9.966 -1.3887  2.0644 -0.6910
  412MOL0     H55618   8.687   4.136  10.139 -1.6565  0.4906 -2.8693
  412MOL0     H55619   9.490   3.978  10.176 -1.5265  0.0856 -0.2103
  412MOL0     H55620   9.635   4.007  10.374 -2.9824  0.7861  2.5177
  413MOL0     O55621   8.562   9.478   9.509  1.0488  0.0753 -0.0244
  413MOL0     C55622   8.581   9.362   9.521  0.0657 -0.0784  0.1312
  413MOL0     O55623   8.539   9.285   9.628  0.4963 -0.2733  0.3103
  413MOL0     C55624   8.456   9.346   9.717 -0.2528 -0.3497 -0.2095
  413MOL0     C55625   8.321   9.359   9.686  0.3626  0.5504 -0.0719
  413MOL0     C55626   8.233   9.439   9.764 -0.5586  0.0315  0.0122
  413MOL0     C55627   8.281   9.496   9.891  0.0379 -0.5177  0.2467
  413MOL0     O55628   8.203   9.569   9.974  0.5152 -0.1343 -0.0385
  413MOL0     C55629   8.061   9.594   9.939 -0.2753  0.6417 -0.1021
  413MOL0     C55630   7.978   9.475   9.976 -0.2671  0.9445  0.5991
  413MOL0     C55631   7.965   9.476  10.127 -0.7597 -0.3726  0.0608
  413MOL0     C55632   7.916   9.341  10.164  0.1000  0.3428  0.2160
  413MOL0     C55633   7.888   9.327  10.315 -0.2074  0.5302 -0.7714
  413MOL0     C55634   8.021   9.301  10.396 -0.6663 -0.0043  0.1701
  413MOL0     C55635   7.999   9.202  10.520  0.0618 -0.5542  0.3764
  413MOL0     C55636   8.133   9.166  10.593 -0.0330 -0.2353 -0.5070
  413MOL0     N55637   8.112   9.077  10.712  0.0296 -0.3662  0.2451
  413MOL0     C55638   8.162   8.954  10.708 -0.1024  0.8052 -0.7271
  413MOL0     C55639   8.156   8.915  10.835 -0.0952  0.2937  0.4988
  413MOL0     C55640   8.204   8.779  10.887  0.5045 -0.6459  0.1609
  413MOL0     C55641   8.353   8.782  10.912  0.0445  0.5326 -0.8931
  413MOL0     C55642   8.405   8.663  11.003  0.3574 -0.1660 -0.4094
  413MOL0     C55643   8.386   8.698  11.153 -0.1807 -0.5345 -0.0067
  413MOL0     O55644   8.508   8.768  11.173  0.2830 -0.1710  0.0418
  413MOL0     C55645   8.616   8.707  11.231  0.7365 -0.1549 -0.0535
  413MOL0     C55646   8.727   8.785  11.256  0.2604 -1.8221 -0.2109
  413MOL0     C55647   8.845   8.740  11.318 -0.9196 -0.4320  0.0186
  413MOL0     C55648   8.968   8.827  11.358  0.4225  0.2624 -0.1150
  413MOL0     C55649   8.853   8.605  11.346  1.0418 -0.2431  0.5434
  413MOL0     C55650   8.965   8.539  11.417  0.8674 -0.1781 -0.3107
  413MOL0     O55651   8.984   8.561  11.548 -0.0751  0.8595  0.1590
  413MOL0     C55652   9.091   8.515  11.618 -0.5312  0.1776  0.7597
  413MOL0     C55653   9.161   8.592  11.708  0.7699 -0.3201 -0.0432
  413MOL0     C55654   9.258   8.558  11.791  0.2909 -0.8107 -0.4868
  413MOL0     C55655   9.314   8.425  11.792 -1.4095 -0.0854  0.5681
  413MOL0     O55656   9.421   8.397  11.873 -0.4490  0.0304  0.1480
  413MOL0     C55657   9.384   8.373  12.005 -0.1294 -0.5236  0.3938
  413MOL0     C55658   9.514   8.304  12.070 -0.0088 -0.7076  0.8806
  413MOL0     C55659   9.503   8.171  12.138  0.4716  0.4578 -0.9257
  413MOL0     C55660   9.650   8.132  12.183  0.3843  0.4017  0.5918
  413MOL0     C55661   9.687   8.165  12.330 -0.6323  0.2353  0.3448
  413MOL0     C55662   9.834   8.122  12.345  1.5217  0.0564 -0.3365
  413MOL0     C55663   9.887   8.148  12.492 -0.3081  0.2766  0.6972
  413MOL0     C55664  10.016   8.074  12.524 -1.0809  0.3700 -0.4998
  413MOL0    Cl55665  10.154   8.169  12.446  0.2186  0.1324  0.0733
  413MOL0     C55666   9.262   8.343  11.696 -0.4444  0.6859  0.2886
  413MOL0     C55667   9.151   8.383  11.617 -0.4072  0.4314  0.5886
  413MOL0     O55668   9.043   8.478  11.342  0.1114 -0.4781  1.0893
  413MOL0     C55669   8.742   8.520  11.311 -0.4584 -0.0378 -0.0483
  413MOL0     C55670   8.626   8.574  11.250 -0.0081  0.1605 -0.7153
  413MOL0     N55671   8.106   9.016  10.911  0.5021 -0.6019 -0.4249
  413MOL0     N55672   8.086   9.118  10.840  0.9989 -0.5657 -1.1415
  413MOL0     C55673   8.415   9.475   9.929 -0.5564 -0.3706  0.1561
  413MOL0     C55674   8.499   9.399   9.843 -0.6099  0.1137  0.9505
  413MOL0     C55675   8.686   9.296   9.437  0.2366  0.3131  0.2538
  413MOL0     C55676   8.683   9.156   9.399 -0.0997 -0.4876  0.1173
  413MOL0     C55677   8.782   9.101   9.306  1.1672  0.3015 -0.1280
  413MOL0     C55678   8.877   9.184   9.237  0.2046 -0.1916  0.0367
  413MOL0     O55679   8.981   9.135   9.167  0.5057 -0.7031  0.1324
  413MOL0     C55680   8.978   9.001   9.114  0.4188  0.1242  0.1799
  413MOL0     C55681   8.904   9.001   8.979 -0.4194 -0.0070 -0.2796
  413MOL0     C55682   8.939   8.870   8.907  1.3554 -0.1569  0.2862
  413MOL0     C55683   8.902   8.879   8.757  0.4312  0.4460 -0.9292
  413MOL0     C55684   8.996   8.960   8.689 -0.3090 -0.8110 -1.9152
  413MOL0     C55685   9.093   9.032   8.644  0.2632 -0.3978  0.0759
  413MOL0     C55686   8.866   9.319   9.269  0.1385  0.0925 -0.1382
  413MOL0     C55687   8.775   9.376   9.359 -0.2256 -0.1035  0.1598
  413MOL0     H55688   8.293   9.318   9.589 -0.1167 -1.4889  0.8810
  413MOL0     H55689   8.127   9.447   9.739 -0.8394 -0.8155  0.8760
  413MOL0     H55690   8.018   9.672  10.002  1.6001  3.4175 -2.0496
  413MOL0     H55691   8.043   9.622   9.835 -2.6921  2.8776  0.7972
  413MOL0     H55692   7.882   9.475   9.923  0.1654 -1.4484 -0.3145
  413MOL0     H55693   8.026   9.381   9.947  0.7370  1.4535  0.5514
  413MOL0     H55694   8.061   9.498  10.174  0.1090  1.7077 -2.4193
  413MOL0     H55695   7.898   9.558  10.155 -0.2041 -0.9297  3.3864
  413MOL0     H55696   7.820   9.335  10.112 -1.5009  3.7492  2.3680
  413MOL0     H55697   7.986   9.262  10.136 -1.7961 -0.9517 -1.1477
  413MOL0     H55698   7.838   9.419  10.346  0.1964  2.2197 -4.5728
  413MOL0     H55699   7.807   9.257  10.335 -3.9390  4.6604  0.1191
  413MOL0     H55700   8.103   9.261  10.335  2.1039  1.1089  2.9247
  413MOL0     H55701   8.048   9.400  10.435  0.3944  0.1483 -0.8910
  413MOL0     H55702   7.922   9.240  10.587  0.7916 -1.4779  1.7763
  413MOL0     H55703   7.954   9.114  10.474 -0.4019 -0.1853  0.1114
  413MOL0     H55704   8.177   9.259  10.630 -0.0464 -0.7003  0.7113
  413MOL0     H55705   8.208   9.124  10.526 -0.8961  1.1077 -2.4358
  413MOL0     H55706   8.208   8.903  10.625 -1.6562  3.0984 -3.1812
  413MOL0     H55707   8.157   8.747  10.980 -1.0267  1.5880  0.2331
  413MOL0     H55708   8.185   8.703  10.811 -0.8769  0.4907 -0.6978
  413MOL0     H55709   8.397   8.874  10.951 -3.8632  1.7426  1.2063
  413MOL0     H55710   8.394   8.766  10.811 -5.3244 -0.6993 -3.2363
  413MOL0     H55711   8.511   8.639  10.990  1.3268  3.2765  0.0790
  413MOL0     H55712   8.351   8.571  10.981 -2.2793  0.3628  3.0469
  413MOL0     H55713   8.383   8.598  11.196 -1.2002  0.6280  2.8577
  413MOL0     H55714   8.294   8.750  11.183 -0.7349 -0.6746 -1.4123
  413MOL0     H55715   8.730   8.887  11.220 -4.8598 -1.1082  0.6003
  413MOL0     H55716   9.049   8.810  11.288 -0.4140 -3.1500 -0.4064
  413MOL0     H55717   8.937   8.932  11.351  1.5874  0.6040 -0.2874
  413MOL0     H55718   8.999   8.800  11.460 -0.8747  1.2186  0.5746
  413MOL0     H55719   9.137   8.697  11.720 -1.6730 -1.0451  2.5580
  413MOL0     H55720   9.310   8.635  11.848  1.0196 -2.2578  0.8956
  413MOL0     H55721   9.360   8.467  12.056  2.2790 -0.4123  1.4586
  413MOL0     H55722   9.302   8.304  12.029 -1.9139  1.8848  1.6532
  413MOL0     H55723   9.589   8.311  11.991 -3.4275 -0.9147 -2.7266
  413MOL0     H55724   9.538   8.373  12.151  1.3188  2.1372 -1.7288
  413MOL0     H55725   9.464   8.097  12.067  1.0006  1.5821 -2.4505
  413MOL0     H55726   9.437   8.192  12.222  0.7842  0.6148 -0.7195
  413MOL0     H55727   9.659   8.023  12.174 -3.9229 -0.2275  1.7802
  413MOL0     H55728   9.722   8.176  12.114  0.0380  1.7796  1.0764
  413MOL0     H55729   9.639   8.098  12.402  2.0532  0.0479  2.1006
  413MOL0     H55730   9.668   8.269  12.355 -0.2632  0.3678  0.0847
  413MOL0     H55731   9.834   8.016  12.318  0.4047 -0.3284  1.0043
  413MOL0     H55732   9.897   8.183  12.280  3.0409 -0.7884  0.2877
  413MOL0     H55733   9.809   8.125  12.565 -0.7553  2.0290  0.8172
  413MOL0     H55734   9.910   8.255  12.501  2.5049 -0.4684  4.6127
  413MOL0     H55735  10.018   7.969  12.494  5.5327  0.8994 -3.9030
  413MOL0     H55736  10.029   8.083  12.632 -2.7169  4.1008 -0.4701
  413MOL0     H55737   9.300   8.241  11.696 -0.2438  0.7466  1.5757
  413MOL0     H55738   9.115   8.309  11.546  1.8330 -0.8260  0.6771
  413MOL0     H55739   8.755   8.415  11.336  0.7370  0.0523 -0.2565
  413MOL0     H55740   8.560   8.494  11.217 -1.1008  0.9798 -0.5445
  413MOL0     H55741   8.454   9.512  10.024 -0.9491  2.1221 -0.5744
  413MOL0     H55742   8.600   9.375   9.876 -0.3933 -0.6536 -0.2117
  413MOL0     H55743   8.623   9.087   9.457  1.3407 -0.4209  1.7802
  413MOL0     H55744   8.784   8.993   9.300 -1.2895  0.2511 -1.1535
  413MOL0     H55745   9.080   8.963   9.107  1.5507  1.8250  4.1636
  413MOL0     H55746   8.944   8.934   9.193  1.1414  0.4464  0.7823
  413MOL0     H55747   8.921   9.092   8.921  1.3761 -1.5328 -2.2931
  413MOL0     H55748   8.797   9.007   9.002  0.4673 -1.3243  5.7770
  413MOL0     H55749   8.887   8.788   8.958  2.0670 -0.4300  0.5757
  413MOL0     H55750   9.044   8.845   8.922  0.3580 -5.8469  0.1314
  413MOL0     H55751   8.802   8.919   8.736 -0.1944 -0.7081 -0.2220
  413MOL0     H55752   8.901   8.778   8.717 -0.4039  0.3202 -0.6019
  413MOL0     H55753   9.175   9.064   8.583  1.1580 -3.8117 -0.6783
  413MOL0     H55754   8.929   9.382   9.208 -1.2171 -0.3259 -2.0725
  413MOL0     H55755   8.785   9.484   9.371 -1.6966 -0.1485  2.4760
  414MOL0     O55756   4.562   0.576   5.348 -0.6205 -0.5789  0.9239
  414MOL0     C55757   4.531   0.545   5.461 -0.9024  0.0538  0.6947
  414MOL0     O55758   4.505   0.628   5.560 -0.1881  0.3463 -0.3611
  414MOL0     C55759   4.533   0.761   5.558  0.3222  0.1464 -0.2877
  414MOL0     C55760   4.660   0.817   5.514  0.1235  0.6964  0.1976
  414MOL0     C55761   4.677   0.957   5.512  1.4042 -0.4030  0.2165
  414MOL0     C55762   4.573   1.047   5.557 -0.0588  0.6563 -0.8604
  414MOL0     O55763   4.586   1.181   5.559  0.5702 -0.1110  0.4414
  414MOL0     C55764   4.644   1.234   5.673 -0.4106  0.0013 -1.0571
  414MOL0     C55765   4.635   1.386   5.638  0.7519 -0.5457 -0.3620
  414MOL0     C55766   4.624   1.476   5.765  1.5874  0.0395  0.5904
  414MOL0     C55767   4.663   1.618   5.749 -0.8597 -0.0517  0.8687
  414MOL0     C55768   4.622   1.714   5.861  0.2975 -0.0459 -0.2802
  414MOL0     C55769   4.643   1.857   5.825 -0.3349  0.0762  0.0291
  414MOL0     C55770   4.792   1.900   5.797 -0.3976  0.5339  0.3309
  414MOL0     C55771   4.806   2.059   5.789 -0.2513 -0.1607  0.0991
  414MOL0     N55772   4.941   2.098   5.775 -0.7868 -0.3337 -0.7523
  414MOL0     C55773   5.015   2.121   5.656  0.0063 -0.4517  0.5599
  414MOL0     C55774   5.118   2.191   5.686 -0.2026 -0.5583  0.1081
  414MOL0     C55775   5.222   2.226   5.594  0.1106 -0.0922 -0.6065
  414MOL0     C55776   5.179   2.345   5.501 -1.1804 -0.0569  0.8364
  414MOL0     C55777   5.288   2.366   5.389  0.3684 -0.4244  0.9751
  414MOL0     C55778   5.433   2.388   5.443  0.2189  0.0280  0.8015
  414MOL0     O55779   5.452   2.525   5.418  0.0249  0.3634 -0.2458
  414MOL0     C55780   5.575   2.587   5.430  0.4297  0.4312 -0.0971
  414MOL0     C55781   5.687   2.520   5.472  1.2527 -0.1785 -0.6908
  414MOL0     C55782   5.799   2.588   5.478  0.9998 -0.0470  0.3621
  414MOL0     C55783   5.911   2.500   5.530  0.8022  0.2418  0.9858
  414MOL0     C55784   5.812   2.725   5.460  1.0484  0.3329 -0.0184
  414MOL0     C55785   5.937   2.803   5.482  0.0554 -0.4112 -0.4819
  414MOL0     O55786   5.920   2.935   5.463  0.0925 -0.0740 -0.6033
  414MOL0     C55787   6.016   3.037   5.483  0.4067 -0.0625 -0.0513
  414MOL0     C55788   5.970   3.152   5.564  0.1094  0.0159  0.6968
  414MOL0     C55789   6.062   3.256   5.583 -0.9612 -0.1848  0.4790
  414MOL0     C55790   6.196   3.248   5.547  0.7320 -0.5538 -0.1351
  414MOL0     O55791   6.276   3.349   5.558  0.5540 -0.2235  0.2569
  414MOL0     C55792   6.225   3.480   5.542 -0.2162  0.5642  0.8741
  414MOL0     C55793   6.349   3.571   5.544 -0.2135 -0.1406  0.5895
  414MOL0     C55794   6.424   3.554   5.670 -0.6434  0.6231  0.4356
  414MOL0     C55795   6.538   3.657   5.683  0.0423  0.3256  0.1001
  414MOL0     C55796   6.600   3.654   5.822 -0.5280 -0.6239 -0.5765
  414MOL0     C55797   6.718   3.754   5.832  0.1485  0.5770  0.1341
  414MOL0     C55798   6.783   3.749   5.973 -0.7448  0.2630 -0.0642
  414MOL0     C55799   6.933   3.777   5.975 -0.0697  0.9603 -0.3479
  414MOL0    Cl55800   6.962   3.956   5.929  0.3297  0.3628 -0.2784
  414MOL0     C55801   6.240   3.129   5.474  0.3398  0.8302 -0.7632
  414MOL0     C55802   6.151   3.023   5.449 -0.2488  0.7501  0.3165
  414MOL0     O55803   6.036   2.753   5.541  0.8608  0.4043  0.0494
  414MOL0     C55804   5.698   2.798   5.419  0.2792 -0.2897  0.7560
  414MOL0     C55805   5.580   2.721   5.397 -0.7860 -1.1699  0.6933
  414MOL0     N55806   5.123   2.218   5.825  0.1996  0.0833 -0.5514
  414MOL0     N55807   5.015   2.161   5.877  0.3937  0.3071 -0.4710
  414MOL0     C55808   4.459   0.983   5.618  0.2869 -0.7832 -0.5886
  414MOL0     C55809   4.435   0.847   5.613 -0.0381 -0.3304  0.0762
  414MOL0     C55810   4.512   0.395   5.469  0.8183 -0.0502  0.2309
  414MOL0     C55811   4.510   0.328   5.594 -0.6657 -0.2659 -0.3534
  414MOL0     C55812   4.508   0.180   5.600  0.1219 -0.2025  0.3746
  414MOL0     C55813   4.490   0.112   5.473 -0.6679  0.1061 -0.7014
  414MOL0     O55814   4.479  -0.018   5.475  0.1854  0.3157 -0.8812
  414MOL0     C55815   4.565  -0.106   5.388  0.3367  0.1358 -0.8694
  414MOL0     C55816   4.483  -0.176   5.285 -0.4765 -0.0044  0.8421
  414MOL0     C55817   4.412  -0.298   5.334  0.3759  0.0753 -0.2697
  414MOL0     C55818   4.331  -0.358   5.225  0.2293 -0.2601 -0.4058
  414MOL0     C55819   4.207  -0.273   5.203  0.3125  0.2777 -0.3040
  414MOL0     C55820   4.106  -0.207   5.203 -0.7911  0.5819 -0.9024
  414MOL0     C55821   4.477   0.183   5.358  0.0497  0.1141 -0.2227
  414MOL0     C55822   4.482   0.316   5.350  0.5670  0.1684 -0.5172
  414MOL0     H55823   4.725   0.744   5.467  1.0749  2.2641 -1.0237
  414MOL0     H55824   4.763   1.003   5.464  0.8832  1.7028  1.1865
  414MOL0     H55825   4.596   1.206   5.767  3.0868  2.6751  1.8140
  414MOL0     H55826   4.750   1.212   5.660 -0.5810  0.7103 -4.4182
  414MOL0     H55827   4.723   1.424   5.586  0.1072  0.4980 -0.7173
  414MOL0     H55828   4.559   1.418   5.567  2.5145  0.7690 -1.7534
  414MOL0     H55829   4.520   1.474   5.801  1.0894  3.4648 -0.3616
  414MOL0     H55830   4.677   1.432   5.850 -0.7434 -1.3061  1.4509
  414MOL0     H55831   4.769   1.623   5.722 -0.6470  0.8718  1.8387
  414MOL0     H55832   4.619   1.651   5.655  1.0671 -1.1568 -0.4843
  414MOL0     H55833   4.515   1.698   5.881  0.0708  2.5358  1.0618
  414MOL0     H55834   4.665   1.694   5.960 -3.5144  1.8483  2.0444
  414MOL0     H55835   4.591   1.881   5.731  0.0092  1.1043  0.0869
  414MOL0     H55836   4.596   1.926   5.895 -0.6393  2.3913 -2.3028
  414MOL0     H55837   4.843   1.853   5.882 -2.4507 -0.3565  1.1109
  414MOL0     H55838   4.848   1.873   5.707  0.0618  0.2589  0.6941
  414MOL0     H55839   4.767   2.114   5.875 -0.3846  1.0984 -0.7353
  414MOL0     H55840   4.751   2.101   5.705 -0.0737  1.0324  0.5642
  414MOL0     H55841   4.994   2.079   5.558  0.2597 -0.1337  0.3690
  414MOL0     H55842   5.304   2.261   5.658  0.6886  1.1022 -1.9700
  414MOL0     H55843   5.261   2.140   5.538 -1.4111 -2.2234  1.3600
  414MOL0     H55844   5.179   2.439   5.557 -1.3703  2.3456 -2.8092
  414MOL0     H55845   5.082   2.322   5.455 -0.5113 -3.3421  0.7915
  414MOL0     H55846   5.269   2.453   5.326  3.4406 -1.3486 -1.4741
  414MOL0     H55847   5.295   2.275   5.328 -1.1883 -0.4555  0.7911
  414MOL0     H55848   5.510   2.322   5.401 -0.1704 -0.9275  1.5647
  414MOL0     H55849   5.441   2.365   5.549 -1.7435  0.7901  1.1490
  414MOL0     H55850   5.684   2.419   5.511  3.0895 -0.4522 -1.2054
  414MOL0     H55851   6.003   2.519   5.475 -0.2865  0.4633 -0.8718
  414MOL0     H55852   5.933   2.520   5.635 -0.3384 -0.0516  1.3017
  414MOL0     H55853   5.892   2.392   5.525 -2.6246  0.7334  0.7417
  414MOL0     H55854   5.865   3.159   5.590  0.6949  0.3493  3.2093
  414MOL0     H55855   6.022   3.338   5.642  1.9650  0.4420  1.7613
  414MOL0     H55856   6.164   3.480   5.451 -1.6341 -1.3706  1.7600
  414MOL0     H55857   6.169   3.504   5.633  1.7079  2.0268  1.7504
  414MOL0     H55858   6.419   3.539   5.466  1.1553 -1.1877  2.1560
  414MOL0     H55859   6.315   3.672   5.522 -0.5965 -0.1780  0.9891
  414MOL0     H55860   6.459   3.450   5.673 -3.2463 -0.3458  0.3914
  414MOL0     H55861   6.351   3.566   5.751 -0.7509  0.7379  0.3216
  414MOL0     H55862   6.604   3.655   5.596 -2.6069  0.4948 -2.0617
  414MOL0     H55863   6.492   3.757   5.678 -0.9980 -0.1459  0.0408
  414MOL0     H55864   6.639   3.556   5.852 -1.0268  0.2554  3.6507
  414MOL0     H55865   6.519   3.681   5.891  0.0491  0.9357 -0.4580
  414MOL0     H55866   6.792   3.724   5.757  2.6957  0.9529  2.3483
  414MOL0     H55867   6.678   3.851   5.798 -0.2409  0.5579  0.5272
  414MOL0     H55868   6.767   3.647   6.007 -1.8784 -0.2490 -1.9511
  414MOL0     H55869   6.725   3.824   6.027  1.8463  2.1374  0.3251
  414MOL0     H55870   6.994   3.722   5.902 -0.7933  0.3590 -0.5133
  414MOL0     H55871   6.969   3.754   6.076 -0.0247  1.5562 -0.2282
  414MOL0     H55872   6.345   3.123   5.447  1.7355 -0.8045  4.0373
  414MOL0     H55873   6.176   2.929   5.401  1.7178  1.3782  0.0239
  414MOL0     H55874   5.697   2.905   5.407 -2.7916 -0.1403  1.4992
  414MOL0     H55875   5.489   2.770   5.366  0.4643  0.8664  0.0467
  414MOL0     H55876   4.390   1.050   5.668  1.7606  0.0668  0.4047
  414MOL0     H55877   4.341   0.803   5.646 -1.4768  1.2032 -1.7207
  414MOL0     H55878   4.521   0.378   5.689 -1.5590 -0.5525 -0.0897
  414MOL0     H55879   4.497   0.129   5.695  1.2865  0.8354  1.0935
  414MOL0     H55880   4.640  -0.049   5.333 -0.1894 -1.1307 -2.9945
  414MOL0     H55881   4.615  -0.174   5.458  0.5929  3.7718  2.8664
  414MOL0     H55882   4.551  -0.213   5.208  2.1095 -1.3907  3.5922
  414MOL0     H55883   4.413  -0.104   5.242 -0.3839  0.4722  1.4655
  414MOL0     H55884   4.352  -0.271   5.421  0.6211  0.2555 -0.1530
  414MOL0     H55885   4.498  -0.362   5.357  0.2722 -0.2599 -0.7917
  414MOL0     H55886   4.302  -0.462   5.246 -2.8459  0.2325 -1.5714
  414MOL0     H55887   4.389  -0.360   5.132 -2.1256  1.4998 -2.0351
  414MOL0     H55888   4.036  -0.126   5.206  0.7315  1.9153  1.7927
  414MOL0     H55889   4.451   0.120   5.274 -0.9913 -1.7977  1.4254
  414MOL0     H55890   4.494   0.376   5.260  1.8649 -0.6826 -0.9321
  415MOL0     O55891   7.443   0.119   7.369  0.5186 -0.0478 -1.1832
  415MOL0     C55892   7.495   0.015   7.418  1.0264 -0.3239  0.6589
  415MOL0     O55893   7.420  -0.080   7.485  0.0556  0.2454 -0.0058
  415MOL0     C55894   7.285  -0.059   7.522  0.7567  0.4537  0.0851
  415MOL0     C55895   7.186  -0.059   7.425  0.3232  0.7316  0.6151
  415MOL0     C55896   7.056  -0.058   7.456  0.0902 -0.3019  0.9386
  415MOL0     C55897   7.010  -0.069   7.590  0.3063  0.0851  0.4667
  415MOL0     O55898   6.877  -0.074   7.620  1.5381 -0.4406 -0.3484
  415MOL0     C55899   6.799  -0.169   7.532 -0.4760 -1.2754 -0.2422
  415MOL0     C55900   6.662  -0.192   7.597 -0.4151 -0.4597  0.1328
  415MOL0     C55901   6.626  -0.332   7.639 -0.2143  0.2969 -1.0077
  415MOL0     C55902   6.483  -0.351   7.686  1.0979 -0.8380 -0.3994
  415MOL0     C55903   6.466  -0.491   7.744  0.0270 -0.5533  0.1124
  415MOL0     C55904   6.477  -0.600   7.634  0.5331 -0.0929  0.2073
  415MOL0     C55905   6.414  -0.729   7.681  0.5418 -0.3130 -0.3993
  415MOL0     C55906   6.416  -0.832   7.569 -0.1344 -0.2257 -0.0978
  415MOL0     N55907   6.301  -0.837   7.490  0.9687 -0.1459 -0.4072
  415MOL0     C55908   6.199  -0.927   7.507 -0.0317 -0.0439  0.0305
  415MOL0     C55909   6.097  -0.885   7.428  0.1499  0.1317  0.5839
  415MOL0     C55910   5.959  -0.946   7.404  0.3180  0.1700 -0.6303
  415MOL0     C55911   5.882  -1.001   7.531 -0.4287  0.3797 -0.0252
  415MOL0     C55912   5.763  -0.917   7.572  0.5569 -1.6736  0.5990
  415MOL0     C55913   5.687  -0.965   7.693 -1.1528  0.4982 -0.3588
  415MOL0     O55914   5.558  -0.901   7.709 -0.4688  1.3413  0.2708
  415MOL0     C55915   5.446  -0.961   7.647  0.1267 -0.5620 -0.4048
  415MOL0     C55916   5.444  -1.040   7.529 -0.2584 -0.7064  0.0592
  415MOL0     C55917   5.323  -1.101   7.488  0.3282 -0.4939  0.7061
  415MOL0     C55918   5.331  -1.194   7.361  0.4712 -0.6404 -1.1097
  415MOL0     C55919   5.191  -1.061   7.535  0.1904  0.4197 -0.4813
  415MOL0     C55920   5.060  -1.104   7.480  0.7506 -0.1969  0.1623
  415MOL0     O55921   4.959  -1.023   7.513 -0.1318 -0.6509  0.1243
  415MOL0     C55922   4.838  -1.038   7.461  1.3951  0.2426  0.2050
  415MOL0     C55923   4.779  -0.914   7.431  0.6180 -0.2871  0.3511
  415MOL0     C55924   4.638  -0.903   7.384  0.2494 -0.1205 -0.6386
  415MOL0     C55925   4.566  -1.015   7.353  0.8450  0.9659  0.6114
  415MOL0     O55926   4.444  -0.992   7.300  0.7546  0.2306  0.1244
  415MOL0     C55927   4.344  -1.087   7.310 -0.5535 -0.6887  0.2875
  415MOL0     C55928   4.216  -0.991   7.301 -0.0680  0.4983 -0.4793
  415MOL0     C55929   4.074  -1.047   7.277 -1.0280  0.3202 -0.0298
  415MOL0     C55930   4.061  -1.134   7.147 -0.3317  0.6972 -0.4234
  415MOL0     C55931   3.920  -1.196   7.140  0.9470  0.1340 -0.3278
  415MOL0     C55932   3.894  -1.262   7.004  0.3034  0.1781 -0.3796
  415MOL0     C55933   3.959  -1.398   7.015 -0.4399 -0.5640  0.7764
  415MOL0     C55934   3.981  -1.461   6.871 -0.0834 -0.1713 -0.3268
  415MOL0    Cl55935   3.827  -1.539   6.811  0.2350  0.1016  0.0352
  415MOL0     C55936   4.626  -1.140   7.377  0.2310  0.1890 -0.4250
  415MOL0     C55937   4.757  -1.152   7.429 -0.0587 -0.5110 -0.5365
  415MOL0     O55938   5.049  -1.215   7.433  0.1480  0.5902  0.3132
  415MOL0     C55939   5.201  -0.973   7.645 -0.6731  0.0800 -1.0348
  415MOL0     C55940   5.324  -0.932   7.707 -0.0130  0.0556  0.2995
  415MOL0     N55941   6.135  -0.761   7.367  0.6483  0.1269 -0.2155
  415MOL0     N55942   6.259  -0.740   7.402  0.4287  0.0630 -0.3951
  415MOL0     C55943   7.109  -0.062   7.691 -0.9264  0.3932 -0.7624
  415MOL0     C55944   7.242  -0.066   7.654 -0.1200 -0.1416 -0.4076
  415MOL0     C55945   7.639  -0.025   7.391 -0.3198 -0.4493 -0.9426
  415MOL0     C55946   7.703  -0.142   7.442 -0.8242 -0.0261 -0.1977
  415MOL0     C55947   7.844  -0.158   7.432 -0.1047 -0.2450 -0.2407
  415MOL0     C55948   7.925  -0.050   7.386 -0.4587  0.5267 -0.0100
  415MOL0     O55949   8.066  -0.055   7.393  0.3469 -0.3453  0.2310
  415MOL0     C55950   8.127  -0.181   7.363 -0.3853  0.3137 -0.2143
  415MOL0     C55951   8.278  -0.179   7.369 -0.0870  0.3416 -0.1479
  415MOL0     C55952   8.350  -0.064   7.312  0.1376 -0.6315  0.7791
  415MOL0     C55953   8.345  -0.080   7.156  0.4607 -0.1645 -0.9609
  415MOL0     C55954   8.426   0.030   7.101  0.2298  0.4092  0.4948
  415MOL0     C55955   8.493   0.120   7.054 -0.4564  0.6964  0.1038
  415MOL0     C55956   7.859   0.057   7.327 -0.7949 -0.2768  0.5523
  415MOL0     C55957   7.726   0.062   7.329 -0.3638  0.7056 -0.0750
  415MOL0     H55958   7.217  -0.062   7.321 -2.9706 -1.4553 -0.4364
  415MOL0     H55959   6.992  -0.040   7.371 -2.2056 -2.1243  2.1843
  415MOL0     H55960   6.792  -0.130   7.430  2.7357 -0.2150 -0.1572
  415MOL0     H55961   6.856  -0.262   7.533 -0.4996 -1.3858  2.9102
  415MOL0     H55962   6.657  -0.135   7.690  3.1441 -5.0016  3.5948
  415MOL0     H55963   6.584  -0.153   7.531 -0.3482  0.0499  0.3491
  415MOL0     H55964   6.647  -0.402   7.557 -3.0630 -0.6208 -1.0474
  415MOL0     H55965   6.690  -0.357   7.724 -2.3653  0.9153  0.8734
  415MOL0     H55966   6.454  -0.288   7.770 -0.3523 -1.7168 -0.2028
  415MOL0     H55967   6.405  -0.348   7.609  0.4814 -1.7297  0.1767
  415MOL0     H55968   6.537  -0.502   7.826  0.8432 -1.9063 -0.7395
  415MOL0     H55969   6.366  -0.495   7.788 -0.2910  2.9357 -0.0275
  415MOL0     H55970   6.432  -0.564   7.540 -0.6273  2.0556  1.5151
  415MOL0     H55971   6.585  -0.610   7.626  0.6741  0.0566  1.6904
  415MOL0     H55972   6.445  -0.773   7.776 -1.6205  1.4886  1.2483
  415MOL0     H55973   6.313  -0.701   7.713  1.0360 -0.0053  0.9612
  415MOL0     H55974   6.438  -0.935   7.599  0.4235 -0.9521 -2.7844
  415MOL0     H55975   6.499  -0.821   7.498 -2.6763  1.5333 -3.0265
  415MOL0     H55976   6.215  -1.009   7.576  1.8700 -0.6040 -1.0107
  415MOL0     H55977   5.899  -0.867   7.358  1.2113 -0.2125 -2.5493
  415MOL0     H55978   5.955  -1.016   7.320  1.2488  1.3664 -1.7151
  415MOL0     H55979   5.958  -0.990   7.608  0.9003 -0.2255 -1.2153
  415MOL0     H55980   5.846  -1.099   7.498  1.7708  0.1429 -2.0253
  415MOL0     H55981   5.695  -0.931   7.488  1.1679 -0.7528 -0.0658
  415MOL0     H55982   5.784  -0.810   7.576 -3.5988 -0.7263  2.7389
  415MOL0     H55983   5.754  -0.931   7.772 -2.0891 -1.0781  1.1870
  415MOL0     H55984   5.683  -1.075   7.697  7.1378 -0.4376 -0.5259
  415MOL0     H55985   5.531  -1.059   7.468 -2.1091 -2.0781 -2.3599
  415MOL0     H55986   5.432  -1.199   7.319  1.6958 -0.4520  1.6246
  415MOL0     H55987   5.309  -1.291   7.405  0.9938 -0.2340  0.0915
  415MOL0     H55988   5.262  -1.153   7.286 -0.5132 -1.3598 -0.6099
  415MOL0     H55989   4.824  -0.817   7.450  1.0051  0.4050 -3.3890
  415MOL0     H55990   4.578  -0.814   7.393 -0.7293 -0.9785  2.9716
  415MOL0     H55991   4.350  -1.152   7.222  0.8485 -0.9504  0.5590
  415MOL0     H55992   4.344  -1.158   7.394 -2.2578 -3.5310 -1.9050
  415MOL0     H55993   4.193  -0.924   7.385 -0.4460  1.2596 -1.1810
  415MOL0     H55994   4.237  -0.926   7.215 -0.2179  0.3436 -0.6317
  415MOL0     H55995   4.002  -0.966   7.270 -1.8864 -0.2242  1.8257
  415MOL0     H55996   4.059  -1.094   7.375 -0.0403  1.0576  0.4892
  415MOL0     H55997   4.081  -1.081   7.053  2.7935 -2.3150 -1.7152
  415MOL0     H55998   4.137  -1.212   7.162 -1.0417  0.4409  2.1620
  415MOL0     H55999   3.838  -1.125   7.153 -0.5308 -0.8775 -3.1232
  415MOL0     H56000   3.908  -1.263   7.226 -1.4295 -1.3376 -1.6682
  415MOL0     H56001   3.785  -1.268   6.992  0.1171  1.4180  0.5144
  415MOL0     H56002   3.941  -1.203   6.925 -0.2998 -0.5130 -1.2921
  415MOL0     H56003   3.904  -1.465   7.081  0.4321 -1.4847  0.5926
  415MOL0     H56004   4.058  -1.394   7.061 -0.6318 -2.1727  1.3917
  415MOL0     H56005   4.059  -1.537   6.886 -0.5607 -0.7476 -0.7170
  415MOL0     H56006   4.021  -1.384   6.805 -1.1345  0.0869 -0.6871
  415MOL0     H56007   4.564  -1.225   7.351 -1.5186  1.3363 -0.1816
  415MOL0     H56008   4.805  -1.248   7.447 -1.0075 -1.3755 -2.3207
  415MOL0     H56009   5.113  -0.940   7.700  1.2864 -0.3300  2.6752
  415MOL0     H56010   5.315  -0.856   7.784 -0.2824  0.9784 -0.6304
  415MOL0     H56011   7.094  -0.088   7.795  0.2784  3.9889  0.4402
  415MOL0     H56012   7.311  -0.067   7.737 -0.2366  2.9529 -0.1495
  415MOL0     H56013   7.650  -0.226   7.486  0.1914 -1.3011 -1.3535
  415MOL0     H56014   7.891  -0.238   7.487  3.2860  0.9237 -1.2120
  415MOL0     H56015   8.087  -0.258   7.430 -0.1320 -0.1356 -0.5714
  415MOL0     H56016   8.107  -0.212   7.260  0.9408 -0.0125 -0.3946
  415MOL0     H56017   8.322  -0.273   7.334 -0.6959  0.2861 -0.7854
  415MOL0     H56018   8.294  -0.190   7.476 -1.5245 -1.0482 -0.0550
  415MOL0     H56019   8.447  -0.061   7.362  0.4348 -1.2394  0.2531
  415MOL0     H56020   8.298   0.027   7.345 -0.9085 -2.0006  3.1913
  415MOL0     H56021   8.245  -0.090   7.113 -2.0140  1.1240  3.7756
  415MOL0     H56022   8.382  -0.177   7.122  2.1033 -0.1842  0.7120
  415MOL0     H56023   8.546   0.193   6.997  0.2501 -0.6900 -1.0643
  415MOL0     H56024   7.923   0.128   7.276  0.1003 -0.6744  1.0925
  415MOL0     H56025   7.670   0.140   7.278 -0.3798  2.1546  1.9973
  416MOL0     O56026   9.317   0.523  10.130  0.5724  0.3715  0.3232
  416MOL0     C56027   9.291   0.576  10.239 -0.8556 -0.4160 -0.2562
  416MOL0     O56028   9.176   0.650  10.270  0.9808  0.0698 -0.5785
  416MOL0     C56029   9.073   0.667  10.175  0.0520  0.0945  0.0123
  416MOL0     C56030   9.019   0.794  10.156  0.5079 -0.2339 -0.0727
  416MOL0     C56031   8.910   0.808  10.067 -0.6267 -0.6277 -0.0421
  416MOL0     C56032   8.850   0.697  10.012  0.3581 -0.5655  0.0711
  416MOL0     O56033   8.737   0.693   9.928  0.5531 -1.1756 -0.4225
  416MOL0     C56034   8.680   0.820   9.886  1.1009 -0.8147 -0.0486
  416MOL0     C56035   8.534   0.805   9.830  0.6420 -1.0224 -0.1810
  416MOL0     C56036   8.466   0.934   9.792  0.0384 -0.1013 -0.8469
  416MOL0     C56037   8.348   0.905   9.703 -0.3921  0.4339  0.2595
  416MOL0     C56038   8.259   1.026   9.666  0.7011  0.3160 -0.4385
  416MOL0     C56039   8.206   1.106   9.786  0.1680  1.1686  0.2303
  416MOL0     C56040   8.143   1.022   9.897  1.3248 -0.9815 -0.5211
  416MOL0     C56041   8.028   0.939   9.849 -0.8192  0.4897  0.1729
  416MOL0     N56042   8.007   0.840   9.959  1.2693  0.1732  0.4049
  416MOL0     C56043   8.071   0.722   9.986 -0.4566 -0.0134  0.6000
  416MOL0     C56044   8.042   0.679  10.115  0.0628 -0.4799  0.0437
  416MOL0     C56045   8.100   0.564  10.194  0.1294  0.2554 -0.6388
  416MOL0     C56046   8.175   0.450  10.107  0.2345  0.4629  0.2936
  416MOL0     C56047   8.091   0.366   9.999  0.1984  0.3989 -0.2454
  416MOL0     C56048   8.159   0.227   9.981 -0.1698 -0.5085 -1.0937
  416MOL0     O56049   8.045   0.135   9.983  0.2267  1.3344 -0.3710
  416MOL0     C56050   8.080   0.000   9.963  0.0399  0.6286 -0.7179
  416MOL0     C56051   7.980  -0.099   9.956 -0.5001  0.7077 -0.3572
  416MOL0     C56052   8.013  -0.235   9.952  0.1506 -1.6451  0.1632
  416MOL0     C56053   7.891  -0.318   9.970  0.9860 -0.0068 -0.5815
  416MOL0     C56054   8.153  -0.275   9.944 -0.6476 -0.2386  0.2614
  416MOL0     C56055   8.198  -0.412   9.931 -0.3069  0.3547  0.0413
  416MOL0     O56056   8.318  -0.448   9.976  0.4830  0.1753  0.4771
  416MOL0     C56057   8.377  -0.558   9.921 -1.0185 -1.3298 -0.1166
  416MOL0     C56058   8.467  -0.538   9.814 -0.1436 -0.0568 -0.1113
  416MOL0     C56059   8.533  -0.650   9.748  0.0876 -0.1812  0.5451
  416MOL0     C56060   8.513  -0.777   9.792 -0.2326 -0.4911  0.1424
  416MOL0     O56061   8.595  -0.878   9.757  0.6447 -0.3395  0.0437
  416MOL0     C56062   8.529  -0.992   9.692 -0.9836  0.1914  0.0601
  416MOL0     C56063   8.640  -1.097   9.670  0.2579 -0.8013  0.6625
  416MOL0     C56064   8.577  -1.239   9.616 -0.2460 -0.1542  0.3977
  416MOL0     C56065   8.624  -1.345   9.719 -0.3429  0.3099 -1.2384
  416MOL0     C56066   8.593  -1.477   9.652 -1.3392  0.5513 -0.3406
  416MOL0     C56067   8.443  -1.506   9.662  0.0911  0.5790  0.3078
  416MOL0     C56068   8.409  -1.653   9.609 -0.2563 -0.8141  0.3008
  416MOL0     C56069   8.264  -1.651   9.549  0.1045  0.6544  0.6654
  416MOL0    Cl56070   8.282  -1.552   9.398  0.2368  1.0156 -0.2732
  416MOL0     C56071   8.416  -0.800   9.887 -0.4181 -0.3477 -0.2600
  416MOL0     C56072   8.359  -0.695   9.955 -0.4701  0.4178  0.4149
  416MOL0     O56073   8.130  -0.483   9.856 -0.6897 -0.6893 -0.3597
  416MOL0     C56074   8.250  -0.176   9.933 -0.4779 -0.6794 -0.7901
  416MOL0     C56075   8.214  -0.041   9.949  0.5104 -0.3520  0.0405
  416MOL0     N56076   7.948   0.770  10.164  0.4713  0.5831  0.1447
  416MOL0     N56077   7.934   0.863  10.072  0.1221 -0.7002  0.1647
  416MOL0     C56078   8.915   0.582  10.019  0.3782  0.0080 -0.4645
  416MOL0     C56079   9.029   0.558  10.098  0.1357 -0.2691 -0.6863
  416MOL0     C56080   9.392   0.580  10.342 -0.7533 -0.6074  0.5503
  416MOL0     C56081   9.361   0.630  10.468 -0.3866 -0.7184 -0.5000
  416MOL0     C56082   9.467   0.633  10.567  0.0812  0.1622  0.2613
  416MOL0     C56083   9.598   0.601  10.535 -1.3612 -1.6054  0.6182
  416MOL0     O56084   9.695   0.617  10.625 -0.5017  0.4174  0.7526
  416MOL0     C56085   9.787   0.506  10.638  0.2683  0.1874  0.5036
  416MOL0     C56086   9.780   0.441  10.776 -0.8958 -0.1362  0.4615
  416MOL0     C56087   9.650   0.368  10.808 -0.6690 -0.3766  0.5904
  416MOL0     C56088   9.635   0.237  10.730 -0.0361  0.3131 -0.1235
  416MOL0     C56089   9.567   0.264  10.601  0.0408 -0.3572  0.3406
  416MOL0     C56090   9.508   0.298  10.499  0.1704  0.1571 -0.7952
  416MOL0     C56091   9.625   0.564  10.397  0.6166  0.6585 -0.3561
  416MOL0     C56092   9.523   0.541  10.304 -0.1045 -0.5552 -0.7113
  416MOL0     H56093   9.064   0.885  10.194 -1.6225  0.9827 -0.2985
  416MOL0     H56094   8.886   0.909  10.035  2.6548 -0.0946 -1.2473
  416MOL0     H56095   8.667   0.881   9.976  0.2787 -0.2019 -0.5795
  416MOL0     H56096   8.734   0.880   9.813  2.3304  0.4257  1.7862
  416MOL0     H56097   8.531   0.730   9.750 -4.2405 -0.2132 -1.0641
  416MOL0     H56098   8.480   0.758   9.913  2.7602  0.2890  2.0924
  416MOL0     H56099   8.427   0.979   9.884 -3.3023 -0.2758 -2.0195
  416MOL0     H56100   8.545   0.997   9.750  2.3821  0.6154  3.9649
  416MOL0     H56101   8.404   0.867   9.617  3.3133  0.5245  2.4073
  416MOL0     H56102   8.292   0.820   9.744 -0.1729  1.1166  2.0403
  416MOL0     H56103   8.310   1.091   9.594  1.2096 -0.8221 -1.1233
  416MOL0     H56104   8.179   0.992   9.599  0.6515  3.8814 -2.4467
  416MOL0     H56105   8.293   1.165   9.816  2.6925 -2.1644 -0.0179
  416MOL0     H56106   8.130   1.170   9.740  1.5948  1.1393 -2.3302
  416MOL0     H56107   8.220   0.962   9.948 -0.0890 -2.8121 -0.4356
  416MOL0     H56108   8.103   1.081   9.980  0.6672  0.1698 -1.6209
  416MOL0     H56109   8.056   0.894   9.753 -0.1699 -0.9626  0.9986
  416MOL0     H56110   7.939   1.001   9.836  0.0912  1.3063 -2.9825
  416MOL0     H56111   8.153   0.690   9.922  0.4049  2.3974  0.4004
  416MOL0     H56112   8.176   0.603  10.262  0.8292  0.9948 -1.8097
  416MOL0     H56113   8.020   0.525  10.258 -1.5929  3.0729 -0.9175
  416MOL0     H56114   8.217   0.380  10.180 -0.3050 -2.4400 -1.9684
  416MOL0     H56115   8.264   0.492  10.059  0.0301 -0.1989 -0.6999
  416MOL0     H56116   8.077   0.423   9.908  0.2984 -0.1265 -0.5942
  416MOL0     H56117   7.991   0.358  10.044  0.7744 -3.1313  0.6992
  416MOL0     H56118   8.216   0.210  10.073 -2.6412  0.7858  0.7939
  416MOL0     H56119   8.232   0.218   9.899  1.9311 -3.6149  0.8607
  416MOL0     H56120   7.875  -0.072   9.962 -0.7274 -0.2723  0.3390
  416MOL0     H56121   7.804  -0.261   9.938  0.2998 -0.6023  0.1894
  416MOL0     H56122   7.906  -0.399   9.899  1.7032 -1.1204  0.7779
  416MOL0     H56123   7.892  -0.360  10.072  2.5747  2.4642  0.5248
  416MOL0     H56124   8.493  -0.436   9.790  0.8783 -0.0895  0.7639
  416MOL0     H56125   8.598  -0.623   9.665 -1.5381  1.7390 -0.2061
  416MOL0     H56126   8.460  -1.044   9.760 -0.0437  1.7826  2.3849
  416MOL0     H56127   8.487  -0.967   9.595 -0.0915  0.8980 -0.1544
  416MOL0     H56128   8.709  -1.057   9.596  2.3793  1.0054  3.4022
  416MOL0     H56129   8.702  -1.108   9.760  0.2715  2.3486  1.1378
  416MOL0     H56130   8.621  -1.262   9.518 -0.6242  1.4239 -0.1792
  416MOL0     H56131   8.470  -1.221   9.611  0.0284  1.8595  1.0170
  416MOL0     H56132   8.732  -1.334   9.730 -0.0949 -0.3550 -2.7206
  416MOL0     H56133   8.574  -1.340   9.816  2.0536  2.3496 -0.0006
  416MOL0     H56134   8.654  -1.550   9.706 -3.3327  0.2543  1.6161
  416MOL0     H56135   8.631  -1.486   9.549 -1.5477 -0.2215 -0.3549
  416MOL0     H56136   8.428  -1.509   9.771  0.8776  0.5809  0.4199
  416MOL0     H56137   8.382  -1.425   9.620  0.3721  0.6702  0.0766
  416MOL0     H56138   8.421  -1.710   9.701  2.1532  2.0186  1.9059
  416MOL0     H56139   8.478  -1.688   9.532  0.3255 -3.6050  1.9625
  416MOL0     H56140   8.186  -1.615   9.616 -0.5812  0.6787 -0.1302
  416MOL0     H56141   8.246  -1.757   9.531  2.2726  0.4030 -0.2776
  416MOL0     H56142   8.404  -0.899   9.930 -1.0453  0.8121  2.4363
  416MOL0     H56143   8.306  -0.721  10.046  3.4985  0.3462  2.9676
  416MOL0     H56144   8.354  -0.204   9.917 -0.1048  0.3412 -0.1785
  416MOL0     H56145   8.295   0.032   9.946 -1.3780  1.8266 -0.7338
  416MOL0     H56146   8.870   0.501   9.962  1.4887 -1.4619  0.6549
  416MOL0     H56147   9.069   0.458  10.107 -4.5851 -2.3263  0.3574
  416MOL0     H56148   9.264   0.660  10.506  0.1292  1.2343 -0.6203
  416MOL0     H56149   9.438   0.647  10.671  0.3972  2.6313  0.0739
  416MOL0     H56150   9.783   0.435  10.555  1.2446  1.9770 -1.1648
  416MOL0     H56151   9.879   0.562  10.618 -3.3419  5.4985 -3.9989
  416MOL0     H56152   9.784   0.522  10.850 -0.8320  0.9753 -0.7391
  416MOL0     H56153   9.872   0.384  10.790 -0.1074  1.7405  4.6560
  416MOL0     H56154   9.566   0.436  10.791  0.8563  0.8049 -3.3488
  416MOL0     H56155   9.661   0.341  10.913  1.0373  0.3811  0.6422
  416MOL0     H56156   9.570   0.175  10.792  0.9034 -1.1677 -0.5713
  416MOL0     H56157   9.736   0.194  10.727 -0.7008 -1.3482  0.1796
  416MOL0     H56158   9.455   0.302  10.406 -1.3331  0.1686  0.0375
  416MOL0     H56159   9.724   0.525  10.375 -0.0890 -0.6414 -1.3622
  416MOL0     H56160   9.547   0.502  10.205 -5.1482 -1.6063 -1.8182
  417MOL0     O56161  10.025   3.146   8.473 -0.2050  0.0844 -0.0257
  417MOL0     C56162  10.053   3.030   8.445  0.0283 -0.1643 -0.9104
  417MOL0     O56163   9.972   2.948   8.368 -0.3682  0.3724  0.0824
  417MOL0     C56164   9.857   2.999   8.309 -0.3359  1.4124  0.4291
  417MOL0     C56165   9.823   3.130   8.277 -0.2094  0.2599  0.4160
  417MOL0     C56166   9.707   3.163   8.200 -0.6253  0.3896 -0.4843
  417MOL0     C56167   9.633   3.062   8.135  0.2427 -0.9145 -0.5032
  417MOL0     O56168   9.516   3.103   8.096 -0.2151 -0.8221  0.5177
  417MOL0     C56169   9.403   3.015   8.110  0.5870  0.1031  0.3043
  417MOL0     C56170   9.279   3.080   8.036  0.4097 -0.1211 -0.5215
  417MOL0     C56171   9.297   3.108   7.883  0.3411  0.4576  0.6648
  417MOL0     C56172   9.167   3.113   7.790  1.2004 -0.2956 -0.3724
  417MOL0     C56173   9.182   3.165   7.644  0.0126  0.9754 -0.5744
  417MOL0     C56174   9.293   3.079   7.577 -0.7333 -0.1462 -0.1619
  417MOL0     C56175   9.255   2.931   7.578 -1.1238  1.5205  0.3138
  417MOL0     C56176   9.143   2.899   7.488  0.2228  0.0881  0.4186
  417MOL0     N56177   9.152   2.962   7.355 -1.0165 -0.2393  0.3135
  417MOL0     C56178   9.247   2.932   7.259 -0.1058  0.2437  0.6868
  417MOL0     C56179   9.231   3.018   7.164  0.4212 -0.2512  0.6671
  417MOL0     C56180   9.330   3.052   7.053 -0.4307  0.3479 -0.0194
  417MOL0     C56181   9.249   3.012   6.930 -0.4074  0.0174 -0.5348
  417MOL0     C56182   9.335   3.017   6.805 -0.6285  0.3944  0.6072
  417MOL0     C56183   9.234   2.976   6.692 -0.4289 -0.8160  0.4059
  417MOL0     O56184   9.305   2.959   6.566 -0.6329 -0.5279  0.1736
  417MOL0     C56185   9.228   2.945   6.452  0.0424  1.0620 -0.7300
  417MOL0     C56186   9.298   2.869   6.347 -0.5313  0.0727 -0.3973
  417MOL0     C56187   9.234   2.835   6.231  0.0342  0.3220  0.8064
  417MOL0     C56188   9.322   2.772   6.121 -0.7787 -0.2961  0.5945
  417MOL0     C56189   9.100   2.882   6.204  0.2284 -0.7331  0.1852
  417MOL0     C56190   9.030   2.848   6.074  0.3104  0.6774 -1.2172
  417MOL0     O56191   9.032   2.947   5.976 -0.2810  0.5041 -0.0958
  417MOL0     C56192   8.982   2.927   5.847  1.8825 -1.0337  0.4148
  417MOL0     C56193   8.992   3.042   5.767 -0.5875 -0.1549 -0.0227
  417MOL0     C56194   8.943   3.047   5.636  0.3385  0.4927  0.1652
  417MOL0     C56195   8.877   2.927   5.587 -0.7187 -0.6684 -1.1993
  417MOL0     O56196   8.818   2.908   5.458 -0.7350  0.1227 -0.2503
  417MOL0     C56197   8.868   2.983   5.348 -1.3358 -0.2750  0.2295
  417MOL0     C56198   8.759   3.088   5.304  0.1527 -0.3826 -0.4349
  417MOL0     C56199   8.629   3.016   5.255  0.5207 -0.7468  0.3749
  417MOL0     C56200   8.533   3.106   5.187  0.1536 -0.1747  0.2602
  417MOL0     C56201   8.431   3.041   5.090  0.4749  1.0268 -0.5760
  417MOL0     C56202   8.338   3.137   5.015  0.7916  0.2033  1.0357
  417MOL0     C56203   8.279   3.235   5.111 -0.6185 -0.7713  1.1168
  417MOL0     C56204   8.209   3.349   5.024  0.6916  0.3390 -0.1947
  417MOL0    Cl56205   8.144   3.461   5.130 -0.2152 -0.3366  0.2107
  417MOL0     C56206   8.854   2.813   5.674 -0.3835 -0.5196  0.8888
  417MOL0     C56207   8.902   2.814   5.803  0.4324  0.0810  0.1682
  417MOL0     O56208   8.971   2.738   6.072 -0.2540 -0.1832  0.5275
  417MOL0     C56209   9.030   2.960   6.310 -0.2911 -0.3003 -0.7583
  417MOL0     C56210   9.096   2.982   6.433 -0.0811  0.9778  0.2077
  417MOL0     N56211   9.127   3.102   7.199  1.1199 -0.4379  0.1166
  417MOL0     N56212   9.073   3.062   7.310 -0.4450  0.5373 -0.5633
  417MOL0     C56213   9.675   2.930   8.162  0.1507 -0.1021 -0.2694
  417MOL0     C56214   9.779   2.902   8.249 -0.3670 -0.4104  0.4536
  417MOL0     C56215  10.167   2.967   8.514 -0.8242 -0.0724 -0.8965
  417MOL0     C56216  10.275   3.046   8.565 -0.7510  0.0439 -0.8050
  417MOL0     C56217  10.385   2.988   8.633  0.6354  0.2046 -0.6011
  417MOL0     C56218  10.394   2.852   8.648  0.4660 -0.7070  0.3614
  417MOL0     O56219  10.489   2.796   8.720  0.0879  1.0260 -0.0563
  417MOL0     C56220  10.463   2.809   8.865  0.2030 -0.1796 -0.0270
  417MOL0     C56221  10.360   2.718   8.933  0.3557 -0.1103 -0.1665
  417MOL0     C56222  10.344   2.727   9.088 -0.6128  1.0369 -0.3062
  417MOL0     C56223  10.289   2.595   9.153 -0.9580 -0.2345 -0.3149
  417MOL0     C56224  10.149   2.580   9.116 -0.1579  0.2275 -0.0071
  417MOL0     C56225  10.038   2.571   9.066 -0.9526 -0.4832 -0.1114
  417MOL0     C56226  10.291   2.765   8.589  0.5912 -0.1925  1.0045
  417MOL0     C56227  10.177   2.818   8.518  0.0886 -0.3177 -0.3970
  417MOL0     H56228   9.885   3.213   8.309  3.3635 -1.0689 -2.2944
  417MOL0     H56229   9.684   3.269   8.199  0.5835  0.6873  0.4873
  417MOL0     H56230   9.416   2.914   8.070  0.2975  0.7096 -1.3899
  417MOL0     H56231   9.382   3.020   8.218 -0.1199  1.9928  0.1271
  417MOL0     H56232   9.199   3.006   8.042 -0.6041  1.0676  1.9849
  417MOL0     H56233   9.237   3.167   8.089 -0.6978 -1.2794  0.5845
  417MOL0     H56234   9.338   3.209   7.870  1.3040  0.0023  0.0509
  417MOL0     H56235   9.370   3.034   7.851  0.7079  1.4488 -0.9396
  417MOL0     H56236   9.118   3.017   7.774 -1.7532  1.4236 -2.7421
  417MOL0     H56237   9.102   3.180   7.848 -1.3436 -2.3950 -0.6086
  417MOL0     H56238   9.094   3.148   7.582 -0.9887  1.8691  0.5435
  417MOL0     H56239   9.201   3.273   7.636 -4.1463  1.9052 -0.0850
  417MOL0     H56240   9.310   3.108   7.473 -1.3617 -0.2131 -0.2913
  417MOL0     H56241   9.383   3.093   7.637 -0.0578  2.4547 -1.6636
  417MOL0     H56242   9.341   2.872   7.545 -4.0855 -2.5087 -0.9645
  417MOL0     H56243   9.245   2.886   7.677 -2.5853 -0.0193 -0.4706
  417MOL0     H56244   9.055   2.948   7.531  1.8711  2.1948  1.5988
  417MOL0     H56245   9.133   2.790   7.496  1.2745  0.0861  2.2929
  417MOL0     H56246   9.331   2.864   7.257 -1.5741 -1.6918 -1.0842
  417MOL0     H56247   9.357   3.158   7.047 -0.9865  0.4767 -0.2819
  417MOL0     H56248   9.424   2.996   7.055 -0.2131  0.7253  0.7388
  417MOL0     H56249   9.165   3.080   6.914 -3.5359 -2.7326  2.3965
  417MOL0     H56250   9.212   2.909   6.938  1.7997 -0.7337  0.8884
  417MOL0     H56251   9.417   2.945   6.802 -0.1236  0.8702  2.3253
  417MOL0     H56252   9.385   3.110   6.776  1.7314 -0.7767  0.7186
  417MOL0     H56253   9.157   3.054   6.689  1.1579  0.8247  0.6756
  417MOL0     H56254   9.177   2.886   6.717  1.5850 -1.6405  2.2373
  417MOL0     H56255   9.400   2.836   6.362 -1.1483 -2.3260 -1.0036
  417MOL0     H56256   9.312   2.837   6.033 -1.9318  0.9829  1.6169
  417MOL0     H56257   9.424   2.753   6.156  1.3074  0.4348 -4.3001
  417MOL0     H56258   9.289   2.673   6.088  1.8009 -0.4646 -1.8195
  417MOL0     H56259   9.027   3.133   5.813 -3.6443  1.2293 -0.1492
  417MOL0     H56260   8.951   3.145   5.590  0.3367  3.0740  5.0001
  417MOL0     H56261   8.962   3.032   5.376 -2.3037  0.2700  2.8677
  417MOL0     H56262   8.890   2.919   5.262  0.9559  0.2823  0.3611
  417MOL0     H56263   8.733   3.148   5.391 -0.8302  0.2278 -1.1326
  417MOL0     H56264   8.796   3.153   5.224 -1.1600  0.1744 -0.6082
  417MOL0     H56265   8.570   2.964   5.330 -3.3343  0.3080 -1.6120
  417MOL0     H56266   8.661   2.939   5.184 -3.5507 -0.7821 -1.7354
  417MOL0     H56267   8.485   3.161   5.268 -2.3919  2.1886 -2.5890
  417MOL0     H56268   8.598   3.173   5.130 -0.5129  2.1049  2.0586
  417MOL0     H56269   8.364   2.978   5.148  0.7227  1.5510  0.3100
  417MOL0     H56270   8.480   2.982   5.012  2.2747  1.8645 -0.1485
  417MOL0     H56271   8.387   3.181   4.927 -0.9852 -2.7228 -1.6495
  417MOL0     H56272   8.252   3.079   4.979  1.6388 -0.4782  0.0565
  417MOL0     H56273   8.349   3.284   5.179 -1.1847  1.2323  0.3408
  417MOL0     H56274   8.216   3.182   5.182 -1.4361 -0.4843  0.6252
  417MOL0     H56275   8.118   3.312   4.976 -0.5088  0.2183  2.0426
  417MOL0     H56276   8.273   3.405   4.955  1.2457  0.5000  0.4381
  417MOL0     H56277   8.794   2.729   5.638  1.3615 -1.7219  0.6684
  417MOL0     H56278   8.891   2.718   5.852  1.1652  0.5905  1.3620
  417MOL0     H56279   8.937   3.007   6.279 -0.2828  1.0430  1.0769
  417MOL0     H56280   9.034   3.023   6.511  0.9503  1.8028  0.6128
  417MOL0     H56281   9.617   2.849   8.119 -0.4269 -0.3293  0.9152
  417MOL0     H56282   9.795   2.797   8.271 -0.3423 -1.7576 -4.7035
  417MOL0     H56283  10.275   3.154   8.569 -1.9734  0.0504  2.5570
  417MOL0     H56284  10.468   3.043   8.675  2.5355 -3.3995  0.8750
  417MOL0     H56285  10.554   2.781   8.919  0.6058 -1.1201 -1.1570
  417MOL0     H56286  10.428   2.911   8.883  0.8237 -0.3020  2.0828
  417MOL0     H56287  10.386   2.614   8.910 -1.7831 -1.1023  1.5161
  417MOL0     H56288  10.267   2.737   8.879  1.3752  1.4541 -1.4690
  417MOL0     H56289  10.288   2.817   9.115 -0.8174  0.5225  1.1109
  417MOL0     H56290  10.445   2.726   9.130 -0.5066 -0.2597 -0.5699
  417MOL0     H56291  10.299   2.606   9.262 -0.2909 -0.5111 -0.3445
  417MOL0     H56292  10.352   2.512   9.119  2.2411  1.3843  1.2162
  417MOL0     H56293   9.946   2.556   9.014 -0.8367  3.1175 -1.7091
  417MOL0     H56294  10.302   2.657   8.583  0.9071 -0.2280  2.0932
  417MOL0     H56295  10.099   2.755   8.475  0.1771  0.4125 -1.6845
  418MOL0     O56296   8.634   2.054   2.888  0.9951  0.1219  0.1826
  418MOL0     C56297   8.590   2.106   2.783  0.3330 -0.4543 -0.3547
  418MOL0     O56298   8.567   2.236   2.771 -0.1251  0.1504 -0.7752
  418MOL0     C56299   8.600   2.310   2.881  0.2625  0.0559  0.3077
  418MOL0     C56300   8.513   2.318   2.990  0.6581  0.1696 -0.3066
  418MOL0     C56301   8.538   2.409   3.096  0.3723  1.5732  1.1661
  418MOL0     C56302   8.661   2.481   3.094  0.0880  0.3940  0.7091
  418MOL0     O56303   8.713   2.555   3.193 -0.0896 -0.4964 -0.6130
  418MOL0     C56304   8.632   2.593   3.305 -0.2428  0.4207  0.8198
  418MOL0     C56305   8.677   2.730   3.346  0.0566  0.0103 -0.0103
  418MOL0     C56306   8.611   2.771   3.486 -0.3682 -0.7308 -0.1879
  418MOL0     C56307   8.646   2.917   3.521 -0.3440 -0.0197  0.2426
  418MOL0     C56308   8.790   2.942   3.569 -0.1637  0.4111 -0.1581
  418MOL0     C56309   8.811   3.086   3.618  0.0611  0.6403  0.1192
  418MOL0     C56310   8.824   3.202   3.517 -1.2246 -0.0709  0.1584
  418MOL0     C56311   8.893   3.332   3.564  0.1684  0.0326  0.1429
  418MOL0     N56312   8.860   3.447   3.481  0.6183 -0.3159 -0.6284
  418MOL0     C56313   8.759   3.528   3.488  0.7349  0.1986 -0.6719
  418MOL0     C56314   8.782   3.627   3.398  0.4487  1.1077 -0.8086
  418MOL0     C56315   8.697   3.746   3.405  0.4333 -1.6954 -0.3045
  418MOL0     C56316   8.733   3.854   3.298 -0.7215  0.1669  0.0053
  418MOL0     C56317   8.660   3.825   3.161  0.5068 -0.6857 -0.3401
  418MOL0     C56318   8.670   3.947   3.072  1.3069 -0.3378 -0.1269
  418MOL0     O56319   8.551   3.989   3.023  1.0435  0.1487  0.2486
  418MOL0     C56320   8.472   3.898   2.949 -0.8927 -0.5413 -0.0885
  418MOL0     C56321   8.535   3.807   2.861  0.9854  0.0479 -0.0369
  418MOL0     C56322   8.451   3.733   2.777 -0.6860  0.0820 -0.6896
  418MOL0     C56323   8.533   3.626   2.705  0.2982  0.1455  0.2138
  418MOL0     C56324   8.312   3.738   2.776  0.9945  0.1474 -0.4284
  418MOL0     C56325   8.228   3.663   2.675  0.9591  0.7737 -0.2982
  418MOL0     O56326   8.122   3.594   2.738 -1.1186 -0.2604  0.6966
  418MOL0     C56327   8.025   3.555   2.655  0.5161 -0.9825 -0.7689
  418MOL0     C56328   8.056   3.461   2.553 -0.4084  0.6336 -1.2450
  418MOL0     C56329   7.953   3.404   2.475 -0.5649  0.1305 -0.4741
  418MOL0     C56330   7.825   3.454   2.494  1.1265  0.8520  0.6694
  418MOL0     O56331   7.720   3.416   2.405 -0.5391  0.0558 -0.9271
  418MOL0     C56332   7.719   3.283   2.353 -0.5221  0.7242  0.1407
  418MOL0     C56333   7.579   3.220   2.325 -0.5132  0.3968 -0.0605
  418MOL0     C56334   7.510   3.177   2.451  0.1656 -0.0863 -0.4055
  418MOL0     C56335   7.375   3.141   2.416  0.7483 -0.1555  0.7080
  418MOL0     C56336   7.289   3.103   2.540  0.0342  0.2107  0.4005
  418MOL0     C56337   7.201   3.223   2.587  0.1814  0.0919 -0.0335
  418MOL0     C56338   7.080   3.256   2.486 -1.0771  0.2959 -0.0740
  418MOL0     C56339   6.946   3.197   2.532  0.0926 -0.5333  0.0788
  418MOL0    Cl56340   6.819   3.245   2.422  0.0882  0.6883  0.3199
  418MOL0     C56341   7.797   3.546   2.591  0.1639 -1.0354 -0.1404
  418MOL0     C56342   7.899   3.595   2.677 -0.8960 -1.1360  0.2381
  418MOL0     O56343   8.253   3.674   2.551 -0.8647 -0.0959 -0.3805
  418MOL0     C56344   8.250   3.832   2.853  0.1261 -0.7417 -0.7199
  418MOL0     C56345   8.331   3.912   2.939  0.8217 -0.0087  0.3190
  418MOL0     N56346   8.894   3.592   3.322  0.5667  0.6462  1.2926
  418MOL0     N56347   8.936   3.477   3.372  0.2516 -0.2794  0.3195
  418MOL0     C56348   8.749   2.467   2.990 -0.1311 -0.9361  0.6718
  418MOL0     C56349   8.717   2.384   2.883  0.0967 -0.3623 -0.5071
  418MOL0     C56350   8.547   2.026   2.669  0.9092  0.4684  0.2383
  418MOL0     C56351   8.524   2.086   2.543 -0.0978  0.3237 -0.2304
  418MOL0     C56352   8.479   2.007   2.432 -0.0191  0.7054  0.3395
  418MOL0     C56353   8.484   1.868   2.438 -0.3606  0.4889  0.5653
  418MOL0     O56354   8.472   1.798   2.322  0.6912  0.4858 -0.0127
  418MOL0     C56355   8.418   1.664   2.338  0.1684  1.2517  0.2757
  418MOL0     C56356   8.399   1.592   2.197 -0.3341 -0.9254 -0.4882
  418MOL0     C56357   8.421   1.443   2.206  0.2326  0.2013  0.9682
  418MOL0     C56358   8.565   1.392   2.253 -0.8454 -0.4185  0.3931
  418MOL0     C56359   8.647   1.377   2.135 -0.6029  0.0531 -0.4465
  418MOL0     C56360   8.730   1.353   2.049 -0.9040  0.2995 -0.2284
  418MOL0     C56361   8.504   1.810   2.560  0.0638  0.2399 -0.3964
  418MOL0     C56362   8.545   1.888   2.677  0.1799  0.0285 -0.6603
  418MOL0     H56363   8.425   2.255   2.982  0.9624  0.0358 -4.0562
  418MOL0     H56364   8.468   2.400   3.178  0.0785 -1.0805  0.7006
  418MOL0     H56365   8.526   2.588   3.277 -0.9264 -2.4923  3.3427
  418MOL0     H56366   8.648   2.525   3.390 -0.2548  0.9444  1.2420
  418MOL0     H56367   8.787   2.734   3.344  0.2104 -1.7245  1.5761
  418MOL0     H56368   8.644   2.797   3.266  2.2859  3.4307  1.6884
  418MOL0     H56369   8.504   2.766   3.463  0.3150 -2.5592 -3.6873
  418MOL0     H56370   8.641   2.702   3.566 -2.4876 -1.9223 -0.3447
  418MOL0     H56371   8.631   2.982   3.434  0.7168 -0.5533 -0.3679
  418MOL0     H56372   8.569   2.948   3.592  0.4906 -0.0116  1.1590
  418MOL0     H56373   8.811   2.866   3.645 -0.1532 -1.4763 -1.9680
  418MOL0     H56374   8.866   2.925   3.492  0.1760 -0.3127  0.3227
  418MOL0     H56375   8.735   3.107   3.693 -2.3231 -0.2908 -1.9152
  418MOL0     H56376   8.905   3.084   3.675  0.7662  1.7252 -0.9407
  418MOL0     H56377   8.887   3.164   3.436  0.8463  2.7840  0.3140
  418MOL0     H56378   8.724   3.214   3.474 -1.3853 -0.0540  0.5354
  418MOL0     H56379   9.002   3.319   3.564  0.0251 -1.7565 -1.6034
  418MOL0     H56380   8.878   3.353   3.670  0.9676  2.8728 -0.2433
  418MOL0     H56381   8.684   3.510   3.564  0.9847 -2.8462 -1.0283
  418MOL0     H56382   8.596   3.707   3.394 -0.6210  0.4495  1.0357
  418MOL0     H56383   8.712   3.796   3.502 -0.0498  1.0979 -1.5680
  418MOL0     H56384   8.840   3.850   3.278 -0.4132 -3.8444  1.5677
  418MOL0     H56385   8.697   3.951   3.334 -2.3186  0.0476 -1.1593
  418MOL0     H56386   8.553   3.811   3.178 -0.0520  3.0477  0.1648
  418MOL0     H56387   8.710   3.737   3.120  0.5915 -0.5601 -0.5084
  418MOL0     H56388   8.745   3.934   2.994 -0.4174 -2.6094 -1.5356
  418MOL0     H56389   8.709   4.032   3.129  3.6506 -0.5262 -1.3070
  418MOL0     H56390   8.642   3.790   2.860  0.7806 -1.7876 -2.6565
  418MOL0     H56391   8.456   3.550   2.686  1.4925 -1.5672  1.9057
  418MOL0     H56392   8.570   3.663   2.609  3.3232 -0.0221  1.2317
  418MOL0     H56393   8.620   3.597   2.764  1.1294  3.8916  1.0785
  418MOL0     H56394   8.160   3.433   2.539 -0.5172 -0.8776  0.6045
  418MOL0     H56395   7.984   3.332   2.401  0.8219  0.9408 -0.7111
  418MOL0     H56396   7.797   3.284   2.276  0.0251 -1.1725  0.6020
  418MOL0     H56397   7.759   3.223   2.436 -1.3947  3.3254  2.5740
  418MOL0     H56398   7.530   3.303   2.274 -0.2058 -0.3976 -1.7464
  418MOL0     H56399   7.577   3.130   2.262  2.1562 -0.9843  1.6470
  418MOL0     H56400   7.510   3.261   2.521 -1.2079 -0.4149  0.0181
  418MOL0     H56401   7.557   3.088   2.493 -1.8244 -1.5320 -1.0926
  418MOL0     H56402   7.332   3.224   2.360  1.9601 -0.6542 -1.0475
  418MOL0     H56403   7.385   3.056   2.348 -2.3932  0.6266 -0.9234
  418MOL0     H56404   7.364   3.073   2.614  4.4798  2.1690 -2.7978
  418MOL0     H56405   7.242   3.011   2.503 -0.3751  1.6383 -3.0525
  418MOL0     H56406   7.156   3.184   2.679 -0.6041  2.3491  0.6012
  418MOL0     H56407   7.264   3.307   2.616 -0.5284 -0.4632  3.6174
  418MOL0     H56408   7.107   3.224   2.385 -3.0515 -0.8398 -0.2836
  418MOL0     H56409   7.068   3.365   2.491 -2.0733  0.4784 -3.5599
  418MOL0     H56410   6.938   3.232   2.635 -3.0277  2.3577 -0.9347
  418MOL0     H56411   6.956   3.088   2.521  0.2012 -0.4537 -0.6962
  418MOL0     H56412   7.698   3.590   2.594  0.9920  0.9047  1.9392
  418MOL0     H56413   7.868   3.663   2.757 -0.6328 -0.3350 -0.3233
  418MOL0     H56414   8.142   3.841   2.858  0.1539 -0.4711 -0.5738
  418MOL0     H56415   8.289   3.995   2.995 -0.4390  0.0601 -0.6921
  418MOL0     H56416   8.849   2.510   2.996  0.9957 -3.3816  0.5207
  418MOL0     H56417   8.792   2.361   2.808  1.9397 -0.8211  1.3791
  418MOL0     H56418   8.543   2.192   2.530  2.3092 -0.2290 -1.8412
  418MOL0     H56419   8.441   2.055   2.343  0.5133  0.7936  0.1571
  418MOL0     H56420   8.505   1.609   2.375 -0.6963 -0.3729 -0.0122
  418MOL0     H56421   8.332   1.656   2.404  0.2961 -1.0429  0.2561
  418MOL0     H56422   8.476   1.636   2.133  1.4768 -2.0941  0.7954
  418MOL0     H56423   8.300   1.615   2.156  0.0946  0.3238 -0.8609
  418MOL0     H56424   8.399   1.408   2.105 -0.9544  2.2270  0.4658
  418MOL0     H56425   8.338   1.405   2.266 -1.3621  0.9808 -0.6488
  418MOL0     H56426   8.547   1.294   2.299 -0.0904 -0.0594  1.5010
  418MOL0     H56427   8.618   1.449   2.330  1.2071  0.1464 -1.3625
  418MOL0     H56428   8.801   1.340   1.970 -1.7898  0.5448 -1.0873
  418MOL0     H56429   8.486   1.705   2.581  4.3198 -0.1032  2.8289
  418MOL0     H56430   8.552   1.856   2.780 -1.6891  0.9496 -0.2092
  419MOL0     O56431   4.809   3.681   5.598  0.2889 -0.0523 -0.5070
  419MOL0     C56432   4.869   3.694   5.488  1.3035  0.5493 -0.1858
  419MOL0     O56433   5.005   3.704   5.466  0.2849 -0.3787  0.6358
  419MOL0     C56434   5.076   3.693   5.580 -0.4643 -0.3878 -0.5170
  419MOL0     C56435   5.076   3.783   5.689 -0.0700 -0.8500 -0.8369
  419MOL0     C56436   5.158   3.761   5.796  0.0022  0.6530  0.1487
  419MOL0     C56437   5.241   3.647   5.800  0.7761  0.3614  0.5137
  419MOL0     O56438   5.320   3.630   5.913  0.4058 -0.1221  0.4931
  419MOL0     C56439   5.358   3.499   5.959  0.1785  0.0963 -0.3713
  419MOL0     C56440   5.404   3.495   6.103  0.6763  1.0648  0.4326
  419MOL0     C56441   5.443   3.359   6.141  0.6831 -0.1153 -0.1681
  419MOL0     C56442   5.325   3.259   6.174  0.0573  0.5042  0.5467
  419MOL0     C56443   5.353   3.111   6.211  0.1835  0.2349  0.3711
  419MOL0     C56444   5.408   3.031   6.097  0.3477 -0.6299  0.3002
  419MOL0     C56445   5.454   2.896   6.134 -0.0775  0.1118 -0.0699
  419MOL0     C56446   5.564   2.891   6.240  0.3658 -0.6902 -0.6681
  419MOL0     N56447   5.678   2.978   6.218 -0.7672 -0.4048  0.2054
  419MOL0     C56448   5.776   2.967   6.121 -0.2651  0.3422  0.0873
  419MOL0     C56449   5.870   3.052   6.159  0.0955  0.2450 -0.5780
  419MOL0     C56450   6.006   3.083   6.086 -0.0938 -0.5469 -0.4530
  419MOL0     C56451   5.981   3.190   5.985 -1.1656 -0.1968 -1.1623
  419MOL0     C56452   6.102   3.259   5.924 -0.7857  0.2623 -0.4775
  419MOL0     C56453   6.207   3.314   6.034  0.8147  0.4925  0.0307
  419MOL0     O56454   6.308   3.386   5.968  0.5403  0.5626  0.2293
  419MOL0     C56455   6.388   3.461   6.048  0.4609  0.4015  0.0323
  419MOL0     C56456   6.518   3.417   6.059  0.5943 -0.6967  0.7554
  419MOL0     C56457   6.611   3.474   6.147  0.1786 -0.1606  0.0562
  419MOL0     C56458   6.726   3.381   6.173 -0.4395  0.0836 -0.2074
  419MOL0     C56459   6.559   3.588   6.223 -0.5426  0.9187 -0.7251
  419MOL0     C56460   6.639   3.646   6.330 -1.3239  0.3650 -0.2321
  419MOL0     O56461   6.772   3.645   6.329  0.0405 -0.0150  0.6737
  419MOL0     C56462   6.841   3.697   6.429  0.3397 -0.3811 -0.1720
  419MOL0     C56463   6.921   3.812   6.405 -0.5505  0.1689  0.2914
  419MOL0     C56464   7.003   3.857   6.509 -0.2512  0.3489 -0.1171
  419MOL0     C56465   7.007   3.796   6.639  0.2793  0.6581 -0.6991
  419MOL0     O56466   7.079   3.851   6.745 -0.2903 -0.4312 -0.1930
  419MOL0     C56467   7.217   3.881   6.713  0.3602 -0.0825 -0.7501
  419MOL0     C56468   7.287   3.811   6.834 -1.1190  0.4780  0.3250
  419MOL0     C56469   7.307   3.895   6.956 -0.1672 -0.4751  0.1554
  419MOL0     C56470   7.430   3.829   7.036 -0.2272 -0.7772  0.0676
  419MOL0     C56471   7.454   3.903   7.165 -0.2046 -0.1064  0.1976
  419MOL0     C56472   7.539   3.826   7.271  0.0749 -0.0913  0.1051
  419MOL0     C56473   7.557   3.916   7.391  0.1697  0.2307  0.8065
  419MOL0     C56474   7.646   3.851   7.495  0.6659 -0.2864  0.0273
  419MOL0    Cl56475   7.818   3.876   7.449  0.1871  0.2009 -0.0799
  419MOL0     C56476   6.927   3.681   6.660 -0.0767 -0.0954 -0.3312
  419MOL0     C56477   6.844   3.639   6.557 -0.0124  0.4287  0.5094
  419MOL0     O56478   6.580   3.695   6.420 -0.0744  0.2457  0.2325
  419MOL0     C56479   6.434   3.643   6.199 -0.1949 -0.0097  0.3093
  419MOL0     C56480   6.348   3.574   6.118  0.2564 -0.7696 -0.5562
  419MOL0     N56481   5.827   3.119   6.274 -0.1209  0.4459  0.3196
  419MOL0     N56482   5.713   3.070   6.313 -0.3346 -0.2800  0.6568
  419MOL0     C56483   5.243   3.563   5.690 -0.0669  0.7634 -0.4051
  419MOL0     C56484   5.160   3.583   5.586  0.2153  0.1072 -0.1555
  419MOL0     C56485   4.779   3.686   5.373  0.0770 -0.3426 -0.3648
  419MOL0     C56486   4.641   3.676   5.383 -0.7319  0.6101  0.6740
  419MOL0     C56487   4.546   3.686   5.289  0.1658 -0.1847  0.1907
  419MOL0     C56488   4.597   3.727   5.165 -0.2230  0.7778 -0.5276
  419MOL0     O56489   4.503   3.758   5.068 -0.7575 -0.1518  0.0229
  419MOL0     C56490   4.476   3.666   4.955  0.2445 -0.3493 -0.2644
  419MOL0     C56491   4.422   3.525   5.011  0.2364 -0.4061 -0.2141
  419MOL0     C56492   4.281   3.523   5.075 -1.3919 -0.2312 -0.0564
  419MOL0     C56493   4.183   3.530   4.956  0.5499 -0.0939 -0.1694
  419MOL0     C56494   4.148   3.668   4.925  0.5363 -0.3528 -0.8182
  419MOL0     C56495   4.115   3.783   4.918 -0.7177  0.3952  0.7869
  419MOL0     C56496   4.736   3.742   5.144 -0.7744  0.2177  0.8290
  419MOL0     C56497   4.828   3.709   5.240 -0.1705 -0.2942 -0.8053
  419MOL0     H56498   5.003   3.864   5.694 -0.0369 -0.8912  2.1576
  419MOL0     H56499   5.164   3.820   5.886  0.9374  0.8107 -0.0012
  419MOL0     H56500   5.276   3.427   5.954  1.9966 -2.0120 -1.7157
  419MOL0     H56501   5.446   3.462   5.906 -0.1215 -0.7048 -0.3279
  419MOL0     H56502   5.483   3.569   6.114  3.3472 -1.5947  0.3535
  419MOL0     H56503   5.327   3.523   6.175  0.7537 -2.7593  2.2581
  419MOL0     H56504   5.513   3.316   6.069  1.7973 -1.1187  1.4668
  419MOL0     H56505   5.496   3.376   6.235  2.9138  0.9882 -1.5440
  419MOL0     H56506   5.259   3.300   6.251 -1.5554  1.4554 -1.2430
  419MOL0     H56507   5.274   3.250   6.078  3.0630 -1.2887 -1.0223
  419MOL0     H56508   5.417   3.099   6.300  1.6023 -1.7093 -0.8355
  419MOL0     H56509   5.261   3.060   6.237  1.3463 -3.5497 -2.1674
  419MOL0     H56510   5.324   3.023   6.027 -0.3581 -0.7088  1.1431
  419MOL0     H56511   5.486   3.086   6.044  1.8940  0.7944  3.7370
  419MOL0     H56512   5.374   2.846   6.190 -0.1349 -0.8508 -0.9895
  419MOL0     H56513   5.481   2.824   6.057 -0.3591 -0.3848  0.2863
  419MOL0     H56514   5.616   2.796   6.259 -3.1507 -2.6806 -0.0598
  419MOL0     H56515   5.514   2.921   6.333 -0.5367  2.5163 -2.0419
  419MOL0     H56516   5.779   2.895   6.040  1.4608 -1.6043  1.7497
  419MOL0     H56517   6.083   3.107   6.160  0.8260  0.1193 -1.5951
  419MOL0     H56518   6.040   2.995   6.032  2.4689  1.4951 -2.3844
  419MOL0     H56519   5.931   3.274   6.035 -0.5625 -0.0967 -0.7200
  419MOL0     H56520   5.923   3.153   5.900 -0.2314 -0.7158 -1.5810
  419MOL0     H56521   6.080   3.351   5.868 -0.9725  1.4714  1.4751
  419MOL0     H56522   6.156   3.199   5.850 -2.4287 -0.3373 -1.2422
  419MOL0     H56523   6.248   3.231   6.092  1.9414  0.5356 -0.6801
  419MOL0     H56524   6.148   3.384   6.093 -1.6999 -0.1448 -1.5599
  419MOL0     H56525   6.542   3.326   6.004  3.1258 -0.0068  0.5560
  419MOL0     H56526   6.699   3.303   6.244 -0.9241  0.4678  0.0305
  419MOL0     H56527   6.758   3.326   6.083 -1.2236  1.1353 -1.1558
  419MOL0     H56528   6.817   3.426   6.215  0.6909 -1.7393 -0.5664
  419MOL0     H56529   6.936   3.866   6.312  0.7644  3.4603  2.2497
  419MOL0     H56530   7.058   3.945   6.478 -0.6202  0.5771 -0.1196
  419MOL0     H56531   7.246   3.832   6.620  0.8413 -1.4212  0.0768
  419MOL0     H56532   7.224   3.990   6.703  1.0199 -0.3302 -3.9738
  419MOL0     H56533   7.233   3.722   6.867 -0.3041  0.3564  1.3819
  419MOL0     H56534   7.379   3.772   6.790 -1.4079 -0.1288  0.2501
  419MOL0     H56535   7.220   3.884   7.021 -0.3761  0.0279 -0.0323
  419MOL0     H56536   7.323   4.001   6.933 -1.8669 -0.2163  0.0876
  419MOL0     H56537   7.419   3.724   7.065 -1.2992 -0.3261  1.3955
  419MOL0     H56538   7.519   3.844   6.974  0.1857  2.6917  1.2757
  419MOL0     H56539   7.354   3.913   7.210 -1.0568 -0.4815 -1.5478
  419MOL0     H56540   7.510   3.993   7.138  2.5420 -1.6346  0.3641
  419MOL0     H56541   7.487   3.730   7.286  3.3579 -2.0893 -0.3702
  419MOL0     H56542   7.634   3.795   7.226 -0.2714 -0.7961 -0.1647
  419MOL0     H56543   7.457   3.938   7.432 -1.5075 -2.6740 -1.3243
  419MOL0     H56544   7.602   4.008   7.354 -1.1978  1.2083  1.4676
  419MOL0     H56545   7.614   3.748   7.515  2.0038 -0.4763  1.3820
  419MOL0     H56546   7.631   3.911   7.585 -1.3156 -1.6621  0.6924
  419MOL0     H56547   6.941   3.632   6.756  3.6727  2.0180  0.4226
  419MOL0     H56548   6.787   3.548   6.574  0.3048  0.3396  1.1409
  419MOL0     H56549   6.410   3.737   6.248 -2.2879 -2.7537  5.2590
  419MOL0     H56550   6.242   3.598   6.120  0.4522  0.1083 -0.7800
  419MOL0     H56551   5.309   3.478   5.705  2.1665  2.6534  1.0175
  419MOL0     H56552   5.149   3.511   5.505  2.5462  1.5749 -1.8992
  419MOL0     H56553   4.607   3.631   5.476 -1.2057  0.9379  0.6625
  419MOL0     H56554   4.442   3.661   5.307  1.2793 -2.7936  4.2921
  419MOL0     H56555   4.404   3.698   4.880  1.9588  2.7130 -0.7419
  419MOL0     H56556   4.568   3.661   4.897 -0.5870  3.0340 -2.0810
  419MOL0     H56557   4.488   3.492   5.092  0.4960  1.4783  0.4078
  419MOL0     H56558   4.435   3.452   4.931  1.2650  1.8631 -2.2463
  419MOL0     H56559   4.254   3.606   5.142 -0.7953 -0.5107  0.5331
  419MOL0     H56560   4.278   3.440   5.145  0.4775 -0.9148 -0.7264
  419MOL0     H56561   4.091   3.482   4.990  0.9880  0.3826  1.8154
  419MOL0     H56562   4.233   3.475   4.876 -1.9596 -0.2384 -1.7354
  419MOL0     H56563   4.085   3.884   4.896  0.6406  0.4053 -1.2832
  419MOL0     H56564   4.770   3.774   5.046  0.4761 -0.8631  0.8827
  419MOL0     H56565   4.936   3.714   5.226 -0.3649  0.2717 -2.2116
  420MOL0     O56566   0.724  10.257   6.205  0.1627 -0.4083  0.7095
  420MOL0     C56567   0.791  10.359   6.209  0.0542  0.6419 -0.8816
  420MOL0     O56568   0.784  10.471   6.124  0.1146  0.2173 -0.2904
  420MOL0     C56569   0.744  10.456   5.994  0.2248  0.9110  0.7463
  420MOL0     C56570   0.666  10.555   5.941  0.2219 -0.5148 -1.3570
  420MOL0     C56571   0.620  10.548   5.813 -0.1757  0.3004  0.7271
  420MOL0     C56572   0.637  10.437   5.735 -1.6357  0.1041  0.1152
  420MOL0     O56573   0.574  10.427   5.615 -0.4345  0.1113  0.1333
  420MOL0     C56574   0.648  10.461   5.503  0.1792  0.2907 -0.7135
  420MOL0     C56575   0.640  10.606   5.477  0.5020 -0.4887 -0.0779
  420MOL0     C56576   0.493  10.674   5.494 -1.2106  0.3772 -0.1870
  420MOL0     C56577   0.488  10.827   5.478  0.5041  0.2330  0.3174
  420MOL0     C56578   0.587  10.897   5.573 -0.5483 -0.1827  0.0737
  420MOL0     C56579   0.550  11.035   5.609 -0.5005 -0.2620 -0.2590
  420MOL0     C56580   0.479  11.054   5.748  0.1728 -0.0446 -0.5654
  420MOL0     C56581   0.359  10.955   5.784  0.2527 -0.1009  0.5601
  420MOL0     N56582   0.261  11.016   5.879 -0.3620 -0.0883 -0.1539
  420MOL0     C56583   0.212  10.950   5.988 -0.3789 -0.4507 -0.4607
  420MOL0     C56584   0.120  11.033   6.043 -0.1226  0.1452  0.2332
  420MOL0     C56585   0.031  11.000   6.160  0.3146  0.4072  0.5029
  420MOL0     C56586  -0.077  10.899   6.125  0.1085  0.2567  0.7685
  420MOL0     C56587  -0.158  10.887   6.249 -0.2013  0.1243  0.8842
  420MOL0     C56588  -0.263  10.771   6.260  0.1885  0.0595  0.3963
  420MOL0     O56589  -0.343  10.780   6.379  0.5017 -0.4366 -0.5687
  420MOL0     C56590  -0.408  10.667   6.419  0.3632  0.8446  0.7998
  420MOL0     C56591  -0.406  10.637   6.550  0.1212 -0.8427  0.5975
  420MOL0     C56592  -0.483  10.533   6.600 -0.1407  0.3062 -1.2511
  420MOL0     C56593  -0.481  10.516   6.750  0.6125  0.4712  0.1970
  420MOL0     C56594  -0.574  10.469   6.511 -0.6094  0.7225  0.4146
  420MOL0     C56595  -0.675  10.361   6.550  0.5653  0.7426  0.0299
  420MOL0     O56596  -0.676  10.323   6.687  0.0492  0.1586  0.9538
  420MOL0     C56597  -0.788  10.261   6.737  0.3040  0.1165  0.2374
  420MOL0     C56598  -0.804  10.126   6.705 -0.2455  0.5040 -0.8782
  420MOL0     C56599  -0.922  10.068   6.746 -0.8484  0.1825 -0.2993
  420MOL0     C56600  -1.021  10.130   6.814 -0.3788 -0.0897 -0.2878
  420MOL0     O56601  -1.138  10.066   6.855  0.0056 -0.1147  0.3497
  420MOL0     C56602  -1.130  10.026   6.992 -0.1131  0.2760 -0.0037
  420MOL0     C56603  -1.214   9.898   7.020  0.3938  0.1725  0.0377
  420MOL0     C56604  -1.354   9.920   6.966  0.6603  0.5158 -0.5381
  420MOL0     C56605  -1.446   9.814   7.028  0.7945  0.8326 -0.5306
  420MOL0     C56606  -1.595   9.827   6.996  0.1880 -0.2420 -0.7020
  420MOL0     C56607  -1.673   9.930   7.087 -0.2787  0.8417  0.1377
  420MOL0     C56608  -1.818   9.929   7.047  0.2082  0.1830  0.6636
  420MOL0     C56609  -1.924   9.855   7.138 -0.1567  0.4999 -0.3353
  420MOL0    Cl56610  -2.064   9.821   7.032 -0.0423 -0.0527  0.2775
  420MOL0     C56611  -0.999  10.270   6.859 -0.7102  0.2052  0.5677
  420MOL0     C56612  -0.884  10.339   6.814 -0.3710  0.4787  0.2170
  420MOL0     O56613  -0.755  10.307   6.471 -0.6521 -1.3849 -0.0096
  420MOL0     C56614  -0.583  10.508   6.376  0.2188 -0.4552  0.0387
  420MOL0     C56615  -0.496  10.601   6.329 -0.0816 -0.1643  0.3350
  420MOL0     N56616   0.123  11.153   5.972  0.4984  0.6469 -0.9013
  420MOL0     N56617   0.202  11.143   5.867  0.0994 -0.0167 -0.6795
  420MOL0     C56618   0.720  10.333   5.779 -0.2046 -0.4400 -0.2357
  420MOL0     C56619   0.775  10.350   5.904 -0.6385  0.5319 -0.7767
  420MOL0     C56620   0.890  10.374   6.321  0.4433  0.1487  0.1830
  420MOL0     C56621   0.972  10.489   6.315 -0.8976  0.4364 -0.1708
  420MOL0     C56622   1.058  10.519   6.414  0.3659  0.9143  0.4242
  420MOL0     C56623   1.068  10.439   6.532  0.4582  0.0129  1.0998
  420MOL0     O56624   1.137  10.474   6.641  0.6854 -0.4754 -0.8066
  420MOL0     C56625   1.223  10.592   6.641 -0.3075  0.0096 -0.8712
  420MOL0     C56626   1.290  10.615   6.772 -0.4198 -0.6327  0.0794
  420MOL0     C56627   1.404  10.710   6.768 -0.3554  0.0453  0.1901
  420MOL0     C56628   1.494  10.725   6.897  0.7863 -0.0260 -0.3405
  420MOL0     C56629   1.478  10.619   7.005 -0.4726 -0.6010  0.8512
  420MOL0     C56630   1.477  10.538   7.091 -0.7077 -1.0456  0.7306
  420MOL0     C56631   0.995  10.318   6.533  0.0330 -0.2495  0.0105
  420MOL0     C56632   0.902  10.286   6.431  0.5694 -0.7089 -0.1273
  420MOL0     H56633   0.646  10.649   5.992 -1.2390 -1.6404  0.2960
  420MOL0     H56634   0.570  10.634   5.769 -2.9032 -2.3188 -1.6460
  420MOL0     H56635   0.751  10.423   5.506  0.2730  0.5233  2.5716
  420MOL0     H56636   0.605  10.413   5.415 -0.5657 -0.2699 -0.0659
  420MOL0     H56637   0.712  10.644   5.550  0.1029 -1.4070  0.8228
  420MOL0     H56638   0.671  10.630   5.375 -0.4885 -0.6205 -0.4288
  420MOL0     H56639   0.424  10.625   5.425  0.5638 -1.4530 -0.7238
  420MOL0     H56640   0.454  10.652   5.594 -1.4825  2.5766  0.2533
  420MOL0     H56641   0.501  10.858   5.374  0.0892  2.6241  0.8981
  420MOL0     H56642   0.389  10.861   5.511  0.5142 -0.2623  0.8661
  420MOL0     H56643   0.618  10.841   5.662 -0.2191  0.1355  0.1639
  420MOL0     H56644   0.684  10.902   5.523 -0.8709 -0.0682 -0.5391
  420MOL0     H56645   0.647  11.083   5.625  0.4588 -2.3602  0.5288
  420MOL0     H56646   0.491  11.073   5.525 -0.0991  0.8713 -0.0391
  420MOL0     H56647   0.549  11.040   5.831 -0.9450 -1.0145  0.2245
  420MOL0     H56648   0.445  11.158   5.757  3.1414  1.0626 -0.7090
  420MOL0     H56649   0.394  10.859   5.822 -1.9277 -1.2357 -0.1722
  420MOL0     H56650   0.302  10.940   5.692  0.8929  1.3203 -0.1089
  420MOL0     H56651   0.236  10.850   6.022 -0.5229 -0.8756 -1.5616
  420MOL0     H56652   0.087  10.970   6.250 -0.5209 -1.6597  0.3954
  420MOL0     H56653  -0.015  11.097   6.182 -2.6069 -0.4050 -1.5261
  420MOL0     H56654  -0.045  10.796   6.110  0.7963  0.2821  1.9464
  420MOL0     H56655  -0.145  10.935   6.047 -1.0403 -1.6921  0.7968
  420MOL0     H56656  -0.203  10.985   6.267 -0.4015  0.2307 -0.1437
  420MOL0     H56657  -0.096  10.870   6.338  0.3396  1.7660  0.8597
  420MOL0     H56658  -0.234  10.667   6.243 -3.6396 -0.9951 -0.7737
  420MOL0     H56659  -0.333  10.786   6.177  2.7051 -1.0686 -2.1306
  420MOL0     H56660  -0.337  10.680   6.622  2.6491 -5.3112  1.1993
  420MOL0     H56661  -0.583  10.517   6.790  0.1124 -0.6019 -0.9948
  420MOL0     H56662  -0.427  10.421   6.760 -0.5180 -1.1919 -5.6778
  420MOL0     H56663  -0.424  10.592   6.805  1.1388 -0.4543  0.9657
  420MOL0     H56664  -0.720  10.071   6.664  2.9993  2.2852  2.8284
  420MOL0     H56665  -0.937   9.961   6.736  0.9851  0.0116 -1.9877
  420MOL0     H56666  -1.026  10.016   7.025 -0.8753 -0.8694  2.3282
  420MOL0     H56667  -1.172  10.116   7.037 -3.3156  0.2674 -2.6506
  420MOL0     H56668  -1.179   9.809   6.967 -2.0794 -2.0223  1.8224
  420MOL0     H56669  -1.220   9.867   7.125 -1.1019 -3.8419 -1.0785
  420MOL0     H56670  -1.360   9.906   6.857 -0.4176 -0.0311 -0.4256
  420MOL0     H56671  -1.381  10.025   6.983 -1.7430 -0.4324  2.4075
  420MOL0     H56672  -1.410   9.714   7.000  1.2921 -0.0821  2.8922
  420MOL0     H56673  -1.437   9.807   7.137  3.8107 -4.3326 -0.7483
  420MOL0     H56674  -1.638   9.726   6.994 -0.4337 -0.0222  0.8191
  420MOL0     H56675  -1.606   9.863   6.893  0.3721  0.3029 -0.5316
  420MOL0     H56676  -1.651   9.886   7.185  0.2144 -0.1122 -0.3831
  420MOL0     H56677  -1.625  10.027   7.074 -1.5813  1.5222  0.2066
  420MOL0     H56678  -1.825   9.891   6.944 -0.0887 -1.9664  1.4246
  420MOL0     H56679  -1.852  10.033   7.043  1.1886  0.4938 -2.7124
  420MOL0     H56680  -1.945   9.912   7.229 -0.5931  0.3106 -0.3105
  420MOL0     H56681  -1.885   9.757   7.169  0.1647  1.3158  2.0605
  420MOL0     H56682  -1.067  10.324   6.924 -2.8148  0.1189 -1.4264
  420MOL0     H56683  -0.875  10.446   6.829 -1.7636  1.1273 -2.8180
  420MOL0     H56684  -0.647  10.468   6.298  0.4816 -0.7263 -0.0378
  420MOL0     H56685  -0.477  10.617   6.223 -0.4956  0.8086  0.3982
  420MOL0     H56686   0.746  10.249   5.716  0.6483 -2.0619  2.1354
  420MOL0     H56687   0.811  10.257   5.947  2.1128  1.7795 -0.1637
  420MOL0     H56688   0.956  10.563   6.237 -2.9379 -1.4555 -1.6345
  420MOL0     H56689   1.118  10.609   6.406  2.2768 -0.4716 -2.8944
  420MOL0     H56690   1.292  10.589   6.556 -0.4997 -1.7176 -1.0152
  420MOL0     H56691   1.162  10.680   6.617 -0.5054  0.3591  0.8212
  420MOL0     H56692   1.327  10.521   6.813  2.5413 -0.6120 -2.1761
  420MOL0     H56693   1.216  10.660   6.838 -2.9856  0.8937 -3.4970
  420MOL0     H56694   1.374  10.809   6.734 -2.0709  0.0132  1.4665
  420MOL0     H56695   1.471  10.667   6.693  2.0349  0.5083  1.9461
  420MOL0     H56696   1.454  10.815   6.945 -0.1181 -0.6495  0.0938
  420MOL0     H56697   1.599  10.752   6.882  0.8073 -1.0328 -2.2835
  420MOL0     H56698   1.482  10.466   7.170  0.3937  0.5217  2.1470
  420MOL0     H56699   0.993  10.260   6.625 -1.5326  1.3987  1.0892
  420MOL0     H56700   0.835  10.201   6.442 -1.1789 -0.0191 -3.9158
  421MOL0     O56701   2.148   1.199   6.447  0.0209 -0.1977  0.0647
  421MOL0     C56702   2.224   1.278   6.388 -0.4282 -0.5059  1.2391
  421MOL0     O56703   2.324   1.347   6.444 -0.3043  0.0067  0.2602
  421MOL0     C56704   2.336   1.355   6.587 -0.6115  0.1141  0.5008
  421MOL0     C56705   2.244   1.442   6.646 -0.4411  0.2606 -0.4009
  421MOL0     C56706   2.250   1.467   6.789 -1.1907 -0.8719  0.5793
  421MOL0     C56707   2.349   1.401   6.868 -0.1544  0.1586 -0.6596
  421MOL0     O56708   2.372   1.413   7.000  0.4296 -0.0727 -0.3061
  421MOL0     C56709   2.283   1.499   7.072  0.1306  0.7723  0.1955
  421MOL0     C56710   2.335   1.501   7.216 -0.1521  0.1425 -0.2735
  421MOL0     C56711   2.491   1.514   7.218  0.4857 -0.0808  0.5127
  421MOL0     C56712   2.555   1.373   7.235  0.2423 -0.3760 -0.2152
  421MOL0     C56713   2.706   1.379   7.253  0.1094  0.4244  0.0287
  421MOL0     C56714   2.798   1.485   7.163 -0.5711  0.1404  0.6630
  421MOL0     C56715   2.950   1.492   7.168 -0.0946  0.1526  0.0419
  421MOL0     C56716   3.014   1.547   7.295 -0.4216  0.8008  0.6086
  421MOL0     N56717   3.075   1.441   7.380  0.4678 -0.3188 -0.5618
  421MOL0     C56718   3.212   1.430   7.394  1.0764 -0.2150  0.3119
  421MOL0     C56719   3.219   1.343   7.505  0.4152  0.6305 -0.5233
  421MOL0     C56720   3.341   1.274   7.538  0.0813  0.4107  0.6431
  421MOL0     C56721   3.325   1.127   7.539 -0.0318  1.1003  0.0627
  421MOL0     C56722   3.452   1.046   7.515  0.1463 -0.5408  0.4292
  421MOL0     C56723   3.537   1.034   7.628 -0.1996  0.5109 -0.3887
  421MOL0     O56724   3.470   0.985   7.745  0.3497  0.5190 -0.0297
  421MOL0     C56725   3.542   0.911   7.834 -0.8692 -0.9357 -0.2581
  421MOL0     C56726   3.493   0.794   7.883  0.7031 -0.3161  0.1135
  421MOL0     C56727   3.564   0.719   7.975 -0.3152  0.5188 -0.3912
  421MOL0     C56728   3.505   0.584   8.007 -0.4844  0.3440  0.1190
  421MOL0     C56729   3.694   0.766   8.028 -0.0318 -0.2884 -0.5634
  421MOL0     C56730   3.778   0.704   8.129  1.0598  0.3754 -1.1343
  421MOL0     O56731   3.900   0.752   8.145  0.8117  0.4488 -0.1654
  421MOL0     C56732   3.974   0.711   8.258  0.3714 -0.2323  0.3252
  421MOL0     C56733   4.006   0.814   8.344 -0.4750  0.4249  0.0840
  421MOL0     C56734   4.094   0.788   8.447  0.3524 -0.2311 -0.3783
  421MOL0     C56735   4.141   0.650   8.470  0.3983  0.3375 -0.0336
  421MOL0     O56736   4.232   0.626   8.568  0.6416  0.9374  0.0645
  421MOL0     C56737   4.205   0.522   8.661  1.0090  0.9124  0.8654
  421MOL0     C56738   4.299   0.522   8.773 -0.0094 -0.0235  0.0039
  421MOL0     C56739   4.279   0.637   8.868  0.1715  0.4867  0.2006
  421MOL0     C56740   4.401   0.637   8.966  0.6426 -0.9212  0.1433
  421MOL0     C56741   4.373   0.738   9.078 -0.8047 -0.1389  0.0818
  421MOL0     C56742   4.284   0.697   9.192  0.5672  0.1371 -0.4491
  421MOL0     C56743   4.253   0.815   9.282 -0.9079 -0.7977  0.3056
  421MOL0     C56744   4.130   0.801   9.366 -0.9637 -0.1315  0.5402
  421MOL0    Cl56745   3.989   0.864   9.279 -0.3758 -0.1208 -0.2890
  421MOL0     C56746   4.100   0.554   8.379 -1.5384  0.3084  0.2323
  421MOL0     C56747   4.030   0.587   8.265  0.3937  0.0172  0.8735
  421MOL0     O56748   3.724   0.613   8.192  0.1369  0.7156 -0.1880
  421MOL0     C56749   3.739   0.884   7.979 -0.0168  0.2682  0.0856
  421MOL0     C56750   3.665   0.963   7.888 -0.4527  0.2726  0.4825
  421MOL0     N56751   3.091   1.296   7.528  0.4588 -0.1577  0.3887
  421MOL0     N56752   3.003   1.365   7.474  0.7537 -0.2051  0.1147
  421MOL0     C56753   2.435   1.305   6.803  0.4610 -0.3611 -0.0442
  421MOL0     C56754   2.438   1.295   6.662 -0.1653  1.2771 -0.2280
  421MOL0     C56755   2.201   1.264   6.242  0.4658  0.0204  0.8087
  421MOL0     C56756   2.093   1.203   6.183 -0.1036  0.2113 -0.2305
  421MOL0     C56757   2.080   1.204   6.047  1.1286 -0.4175  0.0927
  421MOL0     C56758   2.165   1.268   5.963  0.4173 -0.4951  0.4490
  421MOL0     O56759   2.169   1.264   5.823  0.0827 -0.3637  0.1090
  421MOL0     C56760   2.066   1.186   5.763 -0.5714  0.1149 -0.3115
  421MOL0     C56761   2.104   1.179   5.620  0.6002 -0.5074  0.3848
  421MOL0     C56762   2.223   1.087   5.605 -0.5117 -0.2700  0.3317
  421MOL0     C56763   2.252   1.077   5.460 -0.0868  0.0926  1.1068
  421MOL0     C56764   2.390   1.031   5.427 -0.4013 -0.9231  0.3939
  421MOL0     C56765   2.500   0.988   5.389 -1.3491  0.8536  0.5984
  421MOL0     C56766   2.267   1.344   6.023  0.4905 -0.4060  0.4183
  421MOL0     C56767   2.286   1.343   6.165  0.4111 -0.3146  0.5793
  421MOL0     H56768   2.168   1.483   6.580 -0.3751 -1.5863 -1.6828
  421MOL0     H56769   2.186   1.549   6.819 -0.8900 -0.3729 -0.1012
  421MOL0     H56770   2.302   1.599   7.031  1.9366  0.4449  0.1609
  421MOL0     H56771   2.181   1.462   7.058  1.2316 -1.4047 -3.3129
  421MOL0     H56772   2.288   1.582   7.272  0.2280  0.8250 -0.9256
  421MOL0     H56773   2.310   1.406   7.264  0.5687  0.1721  0.1852
  421MOL0     H56774   2.529   1.551   7.123 -1.1563  0.7641  0.1444
  421MOL0     H56775   2.525   1.576   7.302  1.1557  0.5731 -0.2274
  421MOL0     H56776   2.515   1.327   7.326 -1.3220 -0.4061 -0.8838
  421MOL0     H56777   2.524   1.307   7.154 -0.7172  0.6231 -0.6791
  421MOL0     H56778   2.718   1.403   7.359 -2.0741  2.2711 -0.0682
  421MOL0     H56779   2.730   1.274   7.236  1.0963  0.6249  0.1010
  421MOL0     H56780   2.768   1.464   7.060 -0.9614 -2.2148  1.1967
  421MOL0     H56781   2.767   1.582   7.203 -0.4856  0.4238  0.0451
  421MOL0     H56782   2.982   1.389   7.150 -0.1232 -0.5751  3.4375
  421MOL0     H56783   2.970   1.557   7.083 -2.6620  1.9858  0.7143
  421MOL0     H56784   2.942   1.599   7.358 -1.5264 -1.4884  1.3254
  421MOL0     H56785   3.093   1.617   7.264  2.6685 -1.4129  2.8494
  421MOL0     H56786   3.304   1.469   7.354  1.5766 -1.5350  0.1112
  421MOL0     H56787   3.430   1.304   7.482 -0.5455  2.4718  0.6526
  421MOL0     H56788   3.365   1.309   7.639 -0.2604 -0.9431  1.2138
  421MOL0     H56789   3.253   1.100   7.462 -2.9290 -0.7950  3.1572
  421MOL0     H56790   3.270   1.088   7.625  0.6425  0.3743  0.1829
  421MOL0     H56791   3.511   1.094   7.437  1.8151  3.6655  3.8795
  421MOL0     H56792   3.428   0.944   7.484  1.0578 -0.7532  0.4156
  421MOL0     H56793   3.577   1.133   7.651 -1.2650  0.0459  4.7041
  421MOL0     H56794   3.614   0.967   7.590 -0.1579  0.0869  0.4157
  421MOL0     H56795   3.421   0.744   7.819 -2.8846  2.1843  1.8444
  421MOL0     H56796   3.567   0.505   7.965 -1.2363  0.4337 -1.2030
  421MOL0     H56797   3.488   0.565   8.114 -2.8803 -1.2696 -0.4581
  421MOL0     H56798   3.409   0.562   7.959 -1.3912 -1.7949  2.6427
  421MOL0     H56799   3.965   0.913   8.331  3.5159  2.9938  3.9241
  421MOL0     H56800   4.111   0.867   8.519  0.6780  0.7419 -1.4871
  421MOL0     H56801   4.101   0.509   8.691  0.7890 -3.2512 -1.0270
  421MOL0     H56802   4.215   0.428   8.607 -1.1291  1.1762 -0.0748
  421MOL0     H56803   4.282   0.435   8.837  1.5006  0.7079  1.4863
  421MOL0     H56804   4.396   0.521   8.722 -0.5526  2.3400 -1.2733
  421MOL0     H56805   4.190   0.627   8.930  0.7765 -0.3051  0.9702
  421MOL0     H56806   4.292   0.728   8.808  0.7913 -0.7291 -1.5986
  421MOL0     H56807   4.421   0.545   9.021 -4.6424 -1.5554  1.6067
  421MOL0     H56808   4.497   0.656   8.917  0.0296 -0.9064 -1.0827
  421MOL0     H56809   4.329   0.824   9.027  1.4874  0.7427 -0.5434
  421MOL0     H56810   4.466   0.764   9.130 -0.6415 -2.7288  1.2463
  421MOL0     H56811   4.193   0.649   9.156  0.5210 -0.8623  0.9015
  421MOL0     H56812   4.344   0.628   9.252  0.7823  2.8576  2.7903
  421MOL0     H56813   4.254   0.911   9.229  0.2948 -1.0810 -0.2464
  421MOL0     H56814   4.341   0.828   9.345  0.4804 -2.7665 -1.0655
  421MOL0     H56815   4.143   0.862   9.455 -1.3108  0.9852 -0.1520
  421MOL0     H56816   4.111   0.699   9.402 -1.3728 -0.3759 -0.3293
  421MOL0     H56817   4.128   0.449   8.388  0.2567  0.8802  2.1354
  421MOL0     H56818   4.018   0.515   8.184  1.2055  0.0400  0.7208
  421MOL0     H56819   3.834   0.924   8.012 -0.6946  1.7500  0.3171
  421MOL0     H56820   3.704   1.049   7.834  0.1088 -1.0580 -1.3391
  421MOL0     H56821   2.500   1.238   6.858 -1.0386 -0.3254  1.8815
  421MOL0     H56822   2.503   1.217   6.623  0.5062  1.0682  1.2083
  421MOL0     H56823   2.017   1.164   6.250  0.5144  0.2010  0.4755
  421MOL0     H56824   1.990   1.156   6.009  0.6897 -0.9072  1.6693
  421MOL0     H56825   2.072   1.085   5.805  1.1242 -0.0791 -0.9253
  421MOL0     H56826   1.969   1.227   5.790  0.1259  1.3646  0.4008
  421MOL0     H56827   2.126   1.277   5.576 -1.0653 -0.0944  0.4151
  421MOL0     H56828   2.023   1.142   5.557 -0.7777  2.6933  0.0807
  421MOL0     H56829   2.185   0.992   5.643 -2.3374  0.4860  0.5058
  421MOL0     H56830   2.312   1.119   5.660  0.3169 -1.6735 -0.1511
  421MOL0     H56831   2.251   1.178   5.419 -3.3952  0.1998  1.1764
  421MOL0     H56832   2.182   1.013   5.405  0.7701 -1.3864  1.6846
  421MOL0     H56833   2.588   0.943   5.349  0.5200  3.7014  1.1576
  421MOL0     H56834   2.324   1.414   5.963  0.6769  1.9712  3.1175
  421MOL0     H56835   2.366   1.398   6.213  0.0796  0.8350 -0.1282
  422MOL0     O56836  11.440   7.502  11.420 -0.1479 -0.0475  0.8416
  422MOL0     C56837  11.451   7.556  11.312  0.6829  0.2317 -0.1622
  422MOL0     O56838  11.439   7.491  11.186 -0.6477 -0.3503 -1.0957
  422MOL0     C56839  11.436   7.359  11.172 -0.4993  0.4427 -0.3364
  422MOL0     C56840  11.330   7.302  11.102 -0.6826  0.2278 -0.2572
  422MOL0     C56841  11.331   7.158  11.065 -0.0972  0.2240 -0.1252
  422MOL0     C56842  11.424   7.077  11.135 -0.4525  0.1927  0.0614
  422MOL0     O56843  11.432   6.944  11.129  0.6629  0.1418 -0.3028
  422MOL0     C56844  11.386   6.878  11.014  0.4492  0.3178  0.9590
  422MOL0     C56845  11.521   6.848  10.931 -0.1316  0.8245 -0.6460
  422MOL0     C56846  11.491   6.765  10.809  1.0072  0.0908 -0.0788
  422MOL0     C56847  11.615   6.745  10.722 -0.0641  0.7423  0.4172
  422MOL0     C56848  11.576   6.657  10.607 -0.2397 -0.5402 -0.0150
  422MOL0     C56849  11.688   6.654  10.499  0.0645  0.2889 -0.8522
  422MOL0     C56850  11.638   6.582  10.370 -0.6585  0.7096 -0.8747
  422MOL0     C56851  11.555   6.446  10.374  0.5082  0.6712  0.6420
  422MOL0     N56852  11.609   6.333  10.287 -0.4024  0.0668 -0.7415
  422MOL0     C56853  11.648   6.216  10.340  0.6092  0.2050  0.3170
  422MOL0     C56854  11.686   6.146  10.227  0.1588  1.3246 -0.2827
  422MOL0     C56855  11.734   6.001  10.231 -0.7581  0.4402  1.3488
  422MOL0     C56856  11.637   5.887  10.227  0.1156 -1.0014 -1.2596
  422MOL0     C56857  11.564   5.873  10.098 -0.5447  0.7154 -0.3360
  422MOL0     C56858  11.474   6.001  10.047 -0.2599  0.7320 -0.2109
  422MOL0     O56859  11.360   5.960   9.964  0.0323 -1.2470  0.2478
  422MOL0     C56860  11.303   6.054   9.885 -0.3519  0.1899 -0.6551
  422MOL0     C56861  11.228   6.009   9.783  0.2693  0.0377  1.0611
  422MOL0     C56862  11.185   6.096   9.685  0.5866 -0.6934  0.3129
  422MOL0     C56863  11.108   6.041   9.575  0.3610  0.6953 -0.7249
  422MOL0     C56864  11.201   6.238   9.700  0.0060 -0.0789  0.0780
  422MOL0     C56865  11.141   6.343   9.605 -0.3317 -0.2500 -0.5240
  422MOL0     O56866  11.136   6.473   9.665 -1.1238  1.0869 -0.1519
  422MOL0     C56867  11.056   6.575   9.624 -0.2827 -0.6613  0.3200
  422MOL0     C56868  10.959   6.574   9.528 -0.3120  0.2665  0.7100
  422MOL0     C56869  10.896   6.692   9.485  0.3276  0.1005  1.3628
  422MOL0     C56870  10.924   6.821   9.541  0.7037 -0.5181 -0.0950
  422MOL0     O56871  10.875   6.943   9.494  0.3254  0.3919 -0.5484
  422MOL0     C56872  10.736   6.940   9.470  0.6862 -0.6694  0.3014
  422MOL0     C56873  10.729   6.933   9.319 -0.1778  0.0162  0.2693
  422MOL0     C56874  10.655   7.048   9.251 -0.2270  0.5856 -0.9043
  422MOL0     C56875  10.624   7.024   9.103 -1.0713  0.1841  0.4344
  422MOL0     C56876  10.535   7.140   9.048 -0.4409  0.4027  0.1743
  422MOL0     C56877  10.609   7.280   9.071  0.1467 -0.4627  0.5508
  422MOL0     C56878  10.538   7.398   9.010  0.5666 -0.5765  0.3664
  422MOL0     C56879  10.521   7.392   8.859  0.2447  0.1292 -0.3001
  422MOL0    Cl56880  10.430   7.527   8.789 -0.1328 -0.3344  0.0983
  422MOL0     C56881  11.021   6.822   9.640  0.6159  0.0439  0.2305
  422MOL0     C56882  11.081   6.699   9.689 -0.2351  0.0045 -0.1072
  422MOL0     O56883  11.091   6.319   9.496 -0.2452  0.0478  0.3851
  422MOL0     C56884  11.270   6.287   9.807 -0.4251 -0.4867 -0.1700
  422MOL0     C56885  11.318   6.194   9.895  0.0271  0.1116  0.1148
  422MOL0     N56886  11.678   6.219  10.117  0.1395  0.0632 -0.0472
  422MOL0     N56887  11.631   6.330  10.150  0.2691 -0.1054  0.1569
  422MOL0     C56888  11.526   7.141  11.201 -0.9948  0.4742 -0.4914
  422MOL0     C56889  11.539   7.282  11.216 -0.5186  0.1617  0.0280
  422MOL0     C56890  11.456   7.708  11.314 -0.3151 -0.0236 -0.1863
  422MOL0     C56891  11.424   7.773  11.192  1.0190 -0.6387 -0.0451
  422MOL0     C56892  11.432   7.913  11.200  0.5611 -0.5568  1.0375
  422MOL0     C56893  11.472   7.984  11.320  0.1281 -1.6317 -0.3854
  422MOL0     O56894  11.475   8.126  11.337  0.3621 -0.1317 -0.3089
  422MOL0     C56895  11.402   8.194  11.235 -0.1042  0.6332  0.2820
  422MOL0     C56896  11.472   8.232  11.098 -0.7017 -0.4505  0.4227
  422MOL0     C56897  11.541   8.366  11.103 -0.3084  0.1091  0.0179
  422MOL0     C56898  11.618   8.402  10.976 -0.2307 -0.3642  0.7683
  422MOL0     C56899  11.672   8.542  10.988 -0.6519  0.3687 -0.0968
  422MOL0     C56900  11.714   8.647  11.000  0.3735 -0.4735  0.0693
  422MOL0     C56901  11.493   7.913  11.437  1.4608  0.4369  0.1830
  422MOL0     C56902  11.477   7.776  11.435 -1.4044  0.5498 -0.2437
  422MOL0     H56903  11.250   7.366  11.067  0.1413  1.8422  0.7100
  422MOL0     H56904  11.244   7.115  11.016 -1.7137 -3.5038  5.1267
  422MOL0     H56905  11.340   6.791  11.062  3.5913 -0.6904  2.4094
  422MOL0     H56906  11.305   6.922  10.955 -1.3705 -1.7356  1.7756
  422MOL0     H56907  11.566   6.944  10.903 -1.2397  1.8459  0.8657
  422MOL0     H56908  11.595   6.808  11.001 -0.5203  0.8249 -0.2299
  422MOL0     H56909  11.456   6.666  10.840  0.9084 -0.2602 -1.2379
  422MOL0     H56910  11.425   6.822  10.743  2.8681 -0.2000 -2.3134
  422MOL0     H56911  11.648   6.833  10.667 -0.6089  0.9259  0.3739
  422MOL0     H56912  11.692   6.695  10.781 -1.7977 -1.2253  1.1649
  422MOL0     H56913  11.557   6.554  10.639  0.9713 -1.6747 -2.6217
  422MOL0     H56914  11.490   6.704  10.557  1.3019  0.6923 -1.6148
  422MOL0     H56915  11.716   6.756  10.469 -0.7846 -0.4240 -4.6769
  422MOL0     H56916  11.776   6.598  10.530 -0.0668  1.0980  1.0937
  422MOL0     H56917  11.573   6.655  10.319 -2.0999  0.1977  0.1499
  422MOL0     H56918  11.730   6.559  10.316 -0.2698 -0.6701  0.3279
  422MOL0     H56919  11.458   6.467  10.330  1.0423 -2.2046 -2.2668
  422MOL0     H56920  11.543   6.400  10.473 -0.4412  0.2809  0.3523
  422MOL0     H56921  11.642   6.183  10.443  0.3222  0.8538  0.5164
  422MOL0     H56922  11.810   5.988  10.153  0.1274  0.7740  2.1332
  422MOL0     H56923  11.782   5.984  10.328 -1.0181 -2.2000  1.0821
  422MOL0     H56924  11.570   5.892  10.314  0.5814  1.5277 -0.9816
  422MOL0     H56925  11.698   5.802  10.257  0.9634  0.4983  1.6235
  422MOL0     H56926  11.507   5.781  10.112  1.3966 -0.3939  0.7291
  422MOL0     H56927  11.634   5.851  10.017 -0.7722  1.9310 -0.8902
  422MOL0     H56928  11.540   6.067   9.991 -1.1343  1.3868 -0.4979
  422MOL0     H56929  11.439   6.058  10.134 -0.2218  1.2176 -0.5081
  422MOL0     H56930  11.223   5.902   9.768 -2.1195 -0.0651  2.1608
  422MOL0     H56931  11.155   6.053   9.476 -0.2311  0.5022 -1.0366
  422MOL0     H56932  11.103   5.933   9.595 -1.2279  0.8392 -0.1884
  422MOL0     H56933  11.005   6.076   9.571 -0.3697 -1.1798  0.6133
  422MOL0     H56934  10.953   6.481   9.472  1.9206 -0.3615  1.3949
  422MOL0     H56935  10.819   6.682   9.410  1.0689 -3.7936  0.9285
  422MOL0     H56936  10.677   6.856   9.507  0.7116 -0.3492  1.0813
  422MOL0     H56937  10.684   7.022   9.520 -1.6623 -1.5486 -0.5652
  422MOL0     H56938  10.826   6.933   9.269 -1.2158  0.3499 -1.8266
  422MOL0     H56939  10.687   6.834   9.296  0.6722 -0.3267  0.1440
  422MOL0     H56940  10.711   7.142   9.253 -1.8256  1.6171  1.4863
  422MOL0     H56941  10.565   7.068   9.311  2.7533  2.8201  3.3611
  422MOL0     H56942  10.715   7.018   9.043 -1.8095  0.8716 -0.7925
  422MOL0     H56943  10.568   6.934   9.076  0.8608 -0.6325 -1.0798
  422MOL0     H56944  10.439   7.138   9.101 -0.0475 -1.2857  0.8860
  422MOL0     H56945  10.511   7.130   8.941  1.8804 -1.3123 -0.2618
  422MOL0     H56946  10.612   7.305   9.177  1.2551 -2.7190  1.1264
  422MOL0     H56947  10.712   7.283   9.033  0.9540  2.3775  2.6079
  422MOL0     H56948  10.574   7.498   9.036  0.8072  0.4268 -3.3676
  422MOL0     H56949  10.433   7.400   9.042  0.4173 -2.2451  0.0957
  422MOL0     H56950  10.465   7.302   8.832 -2.7031  2.5433 -3.0288
  422MOL0     H56951  10.615   7.371   8.808 -0.1005 -0.0871 -0.8527
  422MOL0     H56952  11.041   6.916   9.689  1.8225  1.0398 -2.0023
  422MOL0     H56953  11.138   6.712   9.780 -0.0611  0.4522 -0.2752
  422MOL0     H56954  11.297   6.392   9.801 -1.9104 -0.1802 -2.5438
  422MOL0     H56955  11.380   6.233   9.975 -0.8462 -0.1141  0.9281
  422MOL0     H56956  11.608   7.088  11.247 -0.6258  0.3006 -1.3403
  422MOL0     H56957  11.624   7.333  11.261 -0.3422  1.9311 -2.1397
  422MOL0     H56958  11.408   7.707  11.108 -1.7610 -1.9344  1.3725
  422MOL0     H56959  11.414   7.973  11.111  4.6659 -1.0589 -0.3472
  422MOL0     H56960  11.309   8.140  11.216  1.6399 -1.9843 -1.3878
  422MOL0     H56961  11.376   8.290  11.281  0.4058  2.7465 -3.4508
  422MOL0     H56962  11.394   8.247  11.023  0.9155 -2.7891 -1.8985
  422MOL0     H56963  11.540   8.151  11.072  2.0055  1.0949  2.2362
  422MOL0     H56964  11.597   8.382  11.196 -2.4123  0.5612  1.2850
  422MOL0     H56965  11.457   8.434  11.123  0.4651  0.6887  1.5103
  422MOL0     H56966  11.559   8.376  10.888  0.9194 -0.4069 -0.0027
  422MOL0     H56967  11.706   8.338  10.967 -2.2437 -2.9655 -2.4836
  422MOL0     H56968  11.729   8.751  11.015  1.1844 -0.4872 -0.5667
  422MOL0     H56969  11.519   7.973  11.523  0.6220  2.2549 -0.7657
  422MOL0     H56970  11.496   7.719  11.526  5.0773  1.6894 -0.3969
  423MOL0     O56971   8.037   9.393   7.492  0.1371  0.0387  0.0443
  423MOL0     C56972   8.152   9.367   7.457 -0.3564 -0.6186 -1.0592
  423MOL0     O56973   8.197   9.365   7.324  0.5830 -0.3867  0.0823
  423MOL0     C56974   8.105   9.403   7.227 -0.1512 -0.1782  1.3482
  423MOL0     C56975   8.047   9.535   7.230 -0.5330 -0.4650  0.2757
  423MOL0     C56976   7.952   9.567   7.138 -0.0402 -0.1841  0.7155
  423MOL0     C56977   7.907   9.483   7.037  1.0276  0.7869  0.1749
  423MOL0     O56978   7.795   9.505   6.960 -0.7817 -0.0219  0.2178
  423MOL0     C56979   7.787   9.634   6.904  0.1552  0.6055 -0.3234
  423MOL0     C56980   7.816   9.635   6.759  0.3994 -0.3293  0.2184
  423MOL0     C56981   7.802   9.772   6.689 -0.4852  0.5331  0.6678
  423MOL0     C56982   7.882   9.761   6.555  0.6722  0.0903  0.4267
  423MOL0     C56983   7.801   9.822   6.436  0.9767 -0.0049  0.6378
  423MOL0     C56984   7.838   9.762   6.299  0.0427  0.3828 -0.8078
  423MOL0     C56985   7.812   9.607   6.300  0.2973 -0.1462 -0.1372
  423MOL0     C56986   7.817   9.568   6.150 -0.0042  0.1726  0.2668
  423MOL0     N56987   7.770   9.433   6.129 -0.2082 -0.5014 -0.5926
  423MOL0     C56988   7.640   9.406   6.094 -0.8874 -0.5183 -0.9841
  423MOL0     C56989   7.641   9.267   6.094  0.1195 -0.8915  0.5745
  423MOL0     C56990   7.532   9.179   6.043  0.1296 -0.5740 -0.4964
  423MOL0     C56991   7.549   9.040   6.096  0.2269  0.5206  0.2393
  423MOL0     C56992   7.477   9.004   6.226  0.4442 -0.4303  0.7557
  423MOL0     C56993   7.328   8.976   6.184 -0.2057 -0.2925  0.8864
  423MOL0     O56994   7.252   8.900   6.276 -0.5813  0.4388 -0.3138
  423MOL0     C56995   7.116   8.875   6.248 -0.3602  0.0658  0.6125
  423MOL0     C56996   7.049   8.894   6.128  0.6867  0.2504 -0.3147
  423MOL0     C56997   6.918   8.861   6.108 -0.6852  0.1625  0.0176
  423MOL0     C56998   6.852   8.871   5.969 -0.1374  0.4751 -0.8128
  423MOL0     C56999   6.847   8.802   6.209  1.2119  0.2464 -0.9638
  423MOL0     C57000   6.712   8.732   6.201  0.2913  0.0963 -0.4309
  423MOL0     O57001   6.610   8.781   6.267 -0.2370  0.3916  0.4344
  423MOL0     C57002   6.495   8.702   6.271  0.1010 -0.1444  0.1871
  423MOL0     C57003   6.435   8.675   6.155 -1.0705  0.5686  0.5489
  423MOL0     C57004   6.320   8.592   6.144  0.1357  0.6266  0.8288
  423MOL0     C57005   6.274   8.537   6.264  0.1612  0.0433 -0.5691
  423MOL0     O57006   6.174   8.445   6.262  0.4078 -0.9411 -0.3194
  423MOL0     C57007   6.054   8.503   6.327 -0.2928  0.1331  0.1311
  423MOL0     C57008   5.949   8.439   6.241  0.2001  0.1568 -0.3383
  423MOL0     C57009   5.814   8.460   6.304 -0.1687 -0.1533  1.0259
  423MOL0     C57010   5.730   8.584   6.265 -0.1067 -0.1716 -0.8713
  423MOL0     C57011   5.579   8.582   6.310 -0.0502  0.9707 -0.1392
  423MOL0     C57012   5.527   8.722   6.297  0.1734 -0.4827 -1.3297
  423MOL0     C57013   5.393   8.763   6.354  0.8136 -0.6427 -0.4287
  423MOL0     C57014   5.347   8.905   6.313 -0.0134  0.0070 -0.5131
  423MOL0    Cl57015   5.184   8.913   6.377  0.0340 -0.2216 -0.0479
  423MOL0     C57016   6.331   8.568   6.392  0.3251  1.3615  0.5355
  423MOL0     C57017   6.446   8.643   6.388 -0.2031  0.6283  0.0012
  423MOL0     O57018   6.713   8.624   6.146 -0.0636  0.0507  0.1335
  423MOL0     C57019   6.914   8.801   6.340 -0.0453 -0.3970  0.4088
  423MOL0     C57020   7.044   8.832   6.353 -0.0528  0.5492 -0.3440
  423MOL0     N57021   7.767   9.223   6.125 -0.0591  0.2850 -0.7643
  423MOL0     N57022   7.837   9.318   6.153  1.3283 -0.5581  0.3407
  423MOL0     C57023   7.959   9.355   7.036 -0.8236  0.3795  0.4930
  423MOL0     C57024   8.061   9.318   7.127 -0.2810  0.0736  0.5789
  423MOL0     C57025   8.246   9.339   7.557  0.7516 -0.9252 -0.1451
  423MOL0     C57026   8.203   9.349   7.698  0.2175 -0.0231  0.3632
  423MOL0     C57027   8.292   9.310   7.794  0.7470  0.3715  0.4599
  423MOL0     C57028   8.415   9.251   7.766  1.1908  0.7353 -0.2406
  423MOL0     O57029   8.493   9.220   7.873  0.3680 -0.3029  0.0290
  423MOL0     C57030   8.612   9.147   7.854 -0.0570  0.6789  0.1897
  423MOL0     C57031   8.688   9.131   7.983 -0.6013 -0.4834  0.1092
  423MOL0     C57032   8.602   9.073   8.099 -0.5013  0.1115 -0.8638
  423MOL0     C57033   8.558   8.932   8.060 -0.0243 -0.3916 -0.6011
  423MOL0     C57034   8.673   8.845   8.048 -0.1521  0.0389  0.9850
  423MOL0     C57035   8.778   8.785   8.027  0.5292  0.0366 -0.3993
  423MOL0     C57036   8.454   9.249   7.636  0.0933  0.6073 -0.1178
  423MOL0     C57037   8.373   9.297   7.526 -0.7190  0.7502  0.1514
  423MOL0     H57038   8.068   9.607   7.308  0.3581  0.8687 -1.1343
  423MOL0     H57039   7.906   9.665   7.137  1.3464  0.6362 -3.7920
  423MOL0     H57040   7.684   9.670   6.903  0.6650  2.1583  0.0222
  423MOL0     H57041   7.858   9.698   6.958 -0.0995 -0.4797  1.3940
  423MOL0     H57042   7.915   9.591   6.744  0.1660  0.2339 -4.2540
  423MOL0     H57043   7.752   9.559   6.715  0.3003 -0.2190  0.1691
  423MOL0     H57044   7.694   9.785   6.675 -1.0073 -1.3006  2.4761
  423MOL0     H57045   7.834   9.857   6.749 -1.5213  1.2800  0.1944
  423MOL0     H57046   7.980   9.810   6.557  1.4480 -1.4365  2.8505
  423MOL0     H57047   7.895   9.654   6.538 -2.0103 -0.2033 -0.2807
  423MOL0     H57048   7.696   9.793   6.449  0.1092  0.6999 -3.3963
  423MOL0     H57049   7.809   9.931   6.440  1.4354 -0.0148  0.1285
  423MOL0     H57050   7.764   9.805   6.230 -1.6971 -1.3815 -0.1479
  423MOL0     H57051   7.932   9.801   6.259 -1.1200  4.5368  0.0366
  423MOL0     H57052   7.892   9.547   6.344  0.2207  0.1480  0.4095
  423MOL0     H57053   7.718   9.587   6.353  0.7858 -2.1383  0.0519
  423MOL0     H57054   7.918   9.577   6.109  0.1348 -1.7569  0.0900
  423MOL0     H57055   7.746   9.624   6.088  1.4749  0.7034 -1.0082
  423MOL0     H57056   7.556   9.470   6.072 -0.1885  0.5865 -0.5209
  423MOL0     H57057   7.437   9.228   6.064  0.0375 -0.2262 -1.6507
  423MOL0     H57058   7.532   9.174   5.934 -0.0202  0.9945 -0.5980
  423MOL0     H57059   7.653   9.012   6.116  0.6777  0.1921 -2.2434
  423MOL0     H57060   7.516   8.970   6.019  0.3621  1.8553 -1.0750
  423MOL0     H57061   7.469   9.092   6.291 -0.3663  0.1912 -0.1674
  423MOL0     H57062   7.513   8.919   6.285 -0.4915 -1.6239 -0.3585
  423MOL0     H57063   7.331   8.925   6.087  0.3278  3.1582 -1.0849
  423MOL0     H57064   7.285   9.076   6.178 -0.2484 -0.4021 -2.4416
  423MOL0     H57065   7.102   8.925   6.039 -1.8583  2.9264 -1.0489
  423MOL0     H57066   6.752   8.914   5.979 -1.0771 -2.0070  1.9241
  423MOL0     H57067   6.911   8.947   5.916 -0.7228  2.0500  0.6897
  423MOL0     H57068   6.844   8.772   5.924  0.5042  0.8482 -1.7645
  423MOL0     H57069   6.468   8.729   6.067 -1.0844 -0.6664 -0.2326
  423MOL0     H57070   6.278   8.574   6.045  0.8036  2.1184  0.2354
  423MOL0     H57071   6.036   8.466   6.428 -1.8357 -3.8581 -1.3823
  423MOL0     H57072   6.042   8.611   6.319 -3.6910 -0.0440  1.1059
  423MOL0     H57073   5.948   8.485   6.142  1.8479  0.6747 -0.1508
  423MOL0     H57074   5.965   8.332   6.225  0.6487  0.3303 -1.1221
  423MOL0     H57075   5.815   8.461   6.414 -0.6774  1.3632  1.0468
  423MOL0     H57076   5.746   8.382   6.270  0.9074 -0.7933  0.3303
  423MOL0     H57077   5.781   8.670   6.311  1.2215 -1.5584  0.3639
  423MOL0     H57078   5.731   8.592   6.156 -1.1276 -1.3638 -0.9963
  423MOL0     H57079   5.570   8.548   6.414 -1.7209 -2.3861 -1.2270
  423MOL0     H57080   5.525   8.507   6.251 -0.3822  0.0258  1.2996
  423MOL0     H57081   5.608   8.788   6.328  0.0138 -1.3708  1.1271
  423MOL0     H57082   5.514   8.734   6.189 -2.3899 -0.5134 -1.0724
  423MOL0     H57083   5.413   8.771   6.461 -2.0844 -1.2815  0.2625
  423MOL0     H57084   5.315   8.687   6.341 -1.4603  1.0624  2.1697
  423MOL0     H57085   5.357   8.908   6.204  0.4488 -2.5185 -0.5786
  423MOL0     H57086   5.411   8.984   6.353  0.0859 -0.6194  0.6089
  423MOL0     H57087   6.275   8.522   6.474 -0.4394 -0.9629 -1.1530
  423MOL0     H57088   6.496   8.659   6.484  1.1440 -0.2776 -0.5165
  423MOL0     H57089   6.848   8.776   6.422 -4.2953 -0.3943 -2.6819
  423MOL0     H57090   7.101   8.829   6.445  1.7534  1.6493 -1.3644
  423MOL0     H57091   7.918   9.277   6.973  0.4454 -0.5087  0.7428
  423MOL0     H57092   8.089   9.214   7.122  1.0771  0.4132  0.6861
  423MOL0     H57093   8.111   9.397   7.732  0.8402 -1.0842  3.9849
  423MOL0     H57094   8.266   9.302   7.899 -0.0868  1.2994  0.3442
  423MOL0     H57095   8.597   9.052   7.802  4.6127  0.7078 -1.7388
  423MOL0     H57096   8.685   9.202   7.793 -1.5398 -0.5510 -2.8961
  423MOL0     H57097   8.718   9.235   8.005  1.7077 -0.7592 -1.3364
  423MOL0     H57098   8.773   9.063   7.970 -0.9546 -0.5631 -2.2443
  423MOL0     H57099   8.515   9.139   8.111 -1.0147 -0.6287 -0.5126
  423MOL0     H57100   8.653   9.077   8.195  1.8794 -0.6625 -2.0065
  423MOL0     H57101   8.519   8.926   7.958  3.1135 -2.3790 -1.8267
  423MOL0     H57102   8.498   8.900   8.145 -2.4683  1.5669 -1.4694
  423MOL0     H57103   8.860   8.720   8.004  0.9135  1.3481 -3.1253
  423MOL0     H57104   8.551   9.212   7.603 -0.4997 -1.6998  0.5458
  423MOL0     H57105   8.405   9.292   7.422 -0.7650 -2.3014  0.1954
  424MOL0     O57106  11.024  11.151   6.276  0.2079 -0.2107  0.1964
  424MOL0     C57107  10.986  11.110   6.167 -0.1836  0.3124 -0.5834
  424MOL0     O57108  11.009  11.175   6.053  0.1819  0.4459  0.9426
  424MOL0     C57109  11.095  11.272   6.046  0.5247  0.3177 -0.2300
  424MOL0     C57110  11.054  11.385   5.977  0.6334 -0.2555  0.5331
  424MOL0     C57111  11.148  11.489   5.960  0.2282 -0.5508  0.4316
  424MOL0     C57112  11.285  11.473   6.003  0.1656  0.9341 -0.6055
  424MOL0     O57113  11.350  11.588   5.984 -0.6597 -0.5960  0.6056
  424MOL0     C57114  11.462  11.578   5.903 -0.1542 -0.1544 -0.3233
  424MOL0     C57115  11.458  11.637   5.770 -1.1726 -1.3763  0.1230
  424MOL0     C57116  11.596  11.639   5.690  0.1062 -0.0452 -0.4125
  424MOL0     C57117  11.700  11.533   5.722 -0.0201 -0.3307  0.4487
  424MOL0     C57118  11.822  11.542   5.622 -0.0759  0.1369 -0.1399
  424MOL0     C57119  11.908  11.417   5.633 -0.3376  0.5953  1.0601
  424MOL0     C57120  12.020  11.418   5.525  0.2176 -0.6422 -0.6232
  424MOL0     C57121  12.134  11.505   5.559 -0.6090  0.1896 -0.4862
  424MOL0     N57122  12.219  11.441   5.657 -0.2922 -0.3461  0.5244
  424MOL0     C57123  12.220  11.457   5.789 -0.6832 -0.1987  0.0260
  424MOL0     C57124  12.303  11.367   5.834  0.1495  0.1752 -0.3400
  424MOL0     C57125  12.365  11.372   5.971  1.0069  0.3429 -0.0620
  424MOL0     C57126  12.324  11.251   6.060 -0.2894 -0.4056  0.0723
  424MOL0     C57127  12.173  11.244   6.091 -1.2614  0.8387  0.1660
  424MOL0     C57128  12.130  11.113   6.146 -1.6988  0.2671 -0.4154
  424MOL0     O57129  11.986  11.106   6.134  0.2292 -0.1012 -0.6410
  424MOL0     C57130  11.934  11.046   6.244 -0.0169  0.2835  0.2022
  424MOL0     C57131  11.918  10.903   6.246 -0.7614  0.4425  0.2185
  424MOL0     C57132  11.871  10.838   6.365  0.0394 -0.2442  1.0199
  424MOL0     C57133  11.877  10.691   6.377  0.5170 -0.4618  0.2900
  424MOL0     C57134  11.826  10.918   6.472 -0.2729 -0.1734  0.0484
  424MOL0     C57135  11.773  10.857   6.601  0.2910  1.0175 -0.8752
  424MOL0     O57136  11.709  10.943   6.683 -0.2015 -0.4369 -0.0488
  424MOL0     C57137  11.625  10.906   6.790 -0.0362  0.0500 -0.4266
  424MOL0     C57138  11.520  10.814   6.782  0.1678  0.1539  0.2269
  424MOL0     C57139  11.426  10.794   6.884  0.1824 -0.2613 -0.2533
  424MOL0     C57140  11.446  10.853   7.004  0.4323 -0.8493 -0.2136
  424MOL0     O57141  11.365  10.816   7.103 -0.4145  0.0449 -0.3474
  424MOL0     C57142  11.237  10.749   7.095 -0.0474  0.0860 -0.1830
  424MOL0     C57143  11.178  10.743   7.232 -0.7615  0.5394  0.0971
  424MOL0     C57144  11.042  10.662   7.224 -0.0200  0.0598 -0.1573
  424MOL0     C57145  11.008  10.586   7.356 -0.9992 -0.0103 -0.5281
  424MOL0     C57146  10.873  10.518   7.346 -0.6409 -0.2609 -0.4546
  424MOL0     C57147  10.889  10.380   7.278  0.6952 -0.2854 -0.4024
  424MOL0     C57148  10.745  10.331   7.256  0.1988  0.3285 -0.8476
  424MOL0     C57149  10.728  10.185   7.211 -0.7484  0.1561 -0.0730
  424MOL0    Cl57150  10.548  10.160   7.227 -0.0037  0.1114 -0.2989
  424MOL0     C57151  11.545  10.955   7.022 -0.1933  0.3486  0.5360
  424MOL0     C57152  11.637  10.975   6.914  1.5041 -0.4110 -0.2728
  424MOL0     O57153  11.779  10.734   6.629 -0.6867  0.1762  0.0510
  424MOL0     C57154  11.835  11.052   6.464  0.1129  0.7099  1.1160
  424MOL0     C57155  11.890  11.119   6.356  0.3436 -0.8284 -0.4512
  424MOL0     N57156  12.337  11.281   5.723 -0.0924 -0.7890 -0.6437
  424MOL0     N57157  12.285  11.331   5.611 -0.8785  0.6884  0.1930
  424MOL0     C57158  11.326  11.353   6.063 -0.3529 -0.4924  0.0396
  424MOL0     C57159  11.230  11.253   6.084  0.3193  0.4857  0.2872
  424MOL0     C57160  10.908  10.979   6.170  0.9711 -0.1172  1.1516
  424MOL0     C57161  10.871  10.913   6.046  0.9352  0.0947  0.8126
  424MOL0     C57162  10.779  10.808   6.045  0.7106  0.6487 -0.6751
  424MOL0     C57163  10.718  10.764   6.170  0.1341  0.0007 -0.4023
  424MOL0     O57164  10.634  10.649   6.189  0.6304 -0.4487  0.1601
  424MOL0     C57165  10.554  10.611   6.077 -0.0437 -0.5430 -0.5548
  424MOL0     C57166  10.448  10.505   6.115 -1.2885 -0.5243 -0.0341
  424MOL0     C57167  10.326  10.562   6.180 -0.1354 -0.3868 -0.3700
  424MOL0     C57168  10.228  10.452   6.215 -1.0365  0.0611 -0.3625
  424MOL0     C57169  10.127  10.516   6.303 -0.6823 -0.3157 -1.8224
  424MOL0     C57170  10.056  10.569   6.386  0.1837 -0.7958 -0.6574
  424MOL0     C57171  10.753  10.831   6.286 -1.1090  1.1767 -1.6045
  424MOL0     C57172  10.851  10.934   6.290  0.2737  0.1357  0.4012
  424MOL0     H57173  10.954  11.392   5.937  1.3299  0.7654 -1.1219
  424MOL0     H57174  11.112  11.577   5.907 -0.2745 -0.8077  0.3414
  424MOL0     H57175  11.543  11.619   5.965  4.2213 -1.2088 -4.7047
  424MOL0     H57176  11.484  11.473   5.882 -6.1509 -2.2833  1.8460
  424MOL0     H57177  11.400  11.575   5.702 -2.0714 -0.2376 -0.1801
  424MOL0     H57178  11.416  11.738   5.769  0.1462 -0.7728  1.1792
  424MOL0     H57179  11.563  11.640   5.586  0.6965  1.9046 -0.6146
  424MOL0     H57180  11.625  11.742   5.711  0.9732 -1.1155  5.6189
  424MOL0     H57181  11.753  11.547   5.817  2.1318 -3.2473 -0.1978
  424MOL0     H57182  11.642  11.439   5.726 -1.2416  0.4288  3.1606
  424MOL0     H57183  11.774  11.564   5.526  1.7363  2.0367 -0.6954
  424MOL0     H57184  11.886  11.627   5.648 -0.0134 -0.1717  0.7703
  424MOL0     H57185  11.952  11.376   5.725  2.1960  0.7316  0.0102
  424MOL0     H57186  11.843  11.334   5.604  0.2618 -0.4590  2.5827
  424MOL0     H57187  12.059  11.318   5.504  0.4727 -0.5201 -0.7486
  424MOL0     H57188  11.979  11.450   5.428  0.4992 -2.6786 -1.4733
  424MOL0     H57189  12.104  11.606   5.589  2.1175  1.1937 -0.8212
  424MOL0     H57190  12.200  11.527   5.475  2.2064  2.9068  2.1731
  424MOL0     H57191  12.192  11.546   5.846  0.0078  0.0442 -0.0032
  424MOL0     H57192  12.473  11.370   5.960  1.1753  0.9163  1.2932
  424MOL0     H57193  12.321  11.456   6.025 -1.6566 -0.2594 -1.1170
  424MOL0     H57194  12.368  11.267   6.159 -2.5623 -0.0147  1.0864
  424MOL0     H57195  12.344  11.160   6.001 -1.3566  1.0758 -2.7633
  424MOL0     H57196  12.122  11.272   5.998 -1.1107  0.0061 -0.1753
  424MOL0     H57197  12.145  11.318   6.166 -0.2097  0.6674  0.7419
  424MOL0     H57198  12.156  11.114   6.252 -2.2634 -2.1924 -0.2032
  424MOL0     H57199  12.174  11.034   6.085 -0.3054  1.1508 -0.6068
  424MOL0     H57200  11.928  10.840   6.158  0.4984 -2.5947  2.3570
  424MOL0     H57201  11.901  10.640   6.283  0.0887  1.1416 -0.7293
  424MOL0     H57202  11.934  10.662   6.465 -1.4380  2.2147  2.6150
  424MOL0     H57203  11.774  10.657   6.391  1.1173 -2.7736 -0.4570
  424MOL0     H57204  11.511  10.757   6.689 -0.2730  0.6590 -0.0431
  424MOL0     H57205  11.339  10.730   6.871  0.2157 -1.5420  4.1253
  424MOL0     H57206  11.173  10.806   7.027  1.2868 -1.2812 -2.7109
  424MOL0     H57207  11.240  10.646   7.061 -1.2428  0.3919 -1.2968
  424MOL0     H57208  11.244  10.700   7.308 -1.5797 -1.1265 -0.0930
  424MOL0     H57209  11.160  10.848   7.256 -0.0534  1.4972 -3.0623
  424MOL0     H57210  11.051  10.591   7.141  1.1596  0.8720 -0.7436
  424MOL0     H57211  10.955  10.725   7.203 -1.2104  0.0407  3.8649
  424MOL0     H57212  11.086  10.513   7.376 -0.8811 -0.7128 -3.1358
  424MOL0     H57213  10.998  10.658   7.437 -1.6654  0.3921 -0.9509
  424MOL0     H57214  10.798  10.582   7.298 -1.5734 -0.9890  0.0117
  424MOL0     H57215  10.829  10.503   7.445 -1.4730  0.2773 -0.7270
  424MOL0     H57216  10.943  10.397   7.185  0.5205  1.0644 -0.2711
  424MOL0     H57217  10.938  10.312   7.348 -0.3537  0.5423  1.2034
  424MOL0     H57218  10.687  10.396   7.190 -2.2504 -1.8178 -0.9412
  424MOL0     H57219  10.689  10.338   7.350 -1.3725  0.2767 -1.7432
  424MOL0     H57220  10.780  10.114   7.276 -1.1773 -1.1255 -1.0952
  424MOL0     H57221  10.749  10.161   7.107 -3.5630 -1.8247 -0.3061
  424MOL0     H57222  11.553  11.001   7.120 -0.7807  1.1705  0.2115
  424MOL0     H57223  11.716  11.049   6.924 -1.8089  3.5356 -0.8254
  424MOL0     H57224  11.798  11.116   6.543 -1.1397  1.5025 -0.0578
  424MOL0     H57225  11.899  11.227   6.355 -1.3684 -0.6061  1.8046
  424MOL0     H57226  11.432  11.339   6.082 -0.2758  0.1173  0.0894
  424MOL0     H57227  11.262  11.164   6.138 -1.6559 -0.4361  0.0182
  424MOL0     H57228  10.913  10.944   5.952 -2.4382 -0.0629 -0.9019
  424MOL0     H57229  10.761  10.753   5.953 -0.2698 -0.1950 -0.0099
  424MOL0     H57230  10.522  10.708   6.039  4.8080  2.2075  1.4027
  424MOL0     H57231  10.628  10.582   6.001  2.7462 -0.8103  2.0550
  424MOL0     H57232  10.503  10.444   6.187  0.1673  1.6302  0.7492
  424MOL0     H57233  10.414  10.444   6.030 -0.2966 -2.5697  0.9682
  424MOL0     H57234  10.271  10.623   6.108  0.5501 -0.3376 -0.8628
  424MOL0     H57235  10.358  10.621   6.266  0.8079 -0.2579 -0.8030
  424MOL0     H57236  10.267  10.359   6.257  0.2121  0.1256 -1.3190
  424MOL0     H57237  10.181  10.427   6.119 -2.4672  2.2305 -0.2944
  424MOL0     H57238  10.002  10.620   6.464 -0.2916  0.4769 -1.7780
  424MOL0     H57239  10.702  10.811   6.380  1.6475  1.2526  0.0296
  424MOL0     H57240  10.873  10.998   6.376  1.7567  1.7638 -1.1110
  425MOL0     O57241   3.571   4.724   6.621 -0.0251 -0.4529  0.7386
  425MOL0     C57242   3.452   4.692   6.606 -0.0308 -0.6370 -0.2551
  425MOL0     O57243   3.387   4.584   6.668  0.8247  0.1034 -0.3528
  425MOL0     C57244   3.473   4.489   6.713  0.2237 -0.0521 -0.3306
  425MOL0     C57245   3.514   4.391   6.612  0.8662 -0.8336  0.4024
  425MOL0     C57246   3.614   4.310   6.645  0.3675  0.2271  1.6985
  425MOL0     C57247   3.680   4.308   6.761 -0.3958 -0.0444 -0.4652
  425MOL0     O57248   3.790   4.222   6.768 -0.2135  0.7414  1.4332
  425MOL0     C57249   3.753   4.083   6.775  0.7595 -0.7073  0.6292
  425MOL0     C57250   3.845   3.988   6.695 -0.0700 -0.2436  0.0119
  425MOL0     C57251   3.887   4.039   6.549 -0.9349  0.5696 -0.6313
  425MOL0     C57252   3.784   4.010   6.443 -0.3755 -0.9051  0.2409
  425MOL0     C57253   3.834   4.072   6.311  0.3703 -0.2196  0.4249
  425MOL0     C57254   3.815   4.220   6.303 -0.2124 -0.0659 -0.8615
  425MOL0     C57255   3.678   4.254   6.267 -0.0536  0.2149 -0.1067
  425MOL0     C57256   3.669   4.408   6.237  1.2159 -0.1883 -0.5283
  425MOL0     N57257   3.537   4.457   6.199 -0.3913 -0.0127 -0.3257
  425MOL0     C57258   3.497   4.464   6.070  0.9608  0.4200  0.0176
  425MOL0     C57259   3.374   4.519   6.081  1.0948  0.3096  0.6522
  425MOL0     C57260   3.264   4.536   5.972 -0.5633  0.4539  0.4687
  425MOL0     C57261   3.317   4.582   5.843  0.3279 -0.0949 -0.5898
  425MOL0     C57262   3.212   4.615   5.740 -0.8707  0.9052 -0.0832
  425MOL0     C57263   3.264   4.690   5.622  0.5107 -0.9435  0.2214
  425MOL0     O57264   3.295   4.823   5.651 -1.0179  0.2051  0.3758
  425MOL0     C57265   3.340   4.900   5.538 -0.6177  0.2047 -0.0392
  425MOL0     C57266   3.303   4.890   5.400 -0.5110 -0.7028 -0.7163
  425MOL0     C57267   3.354   4.975   5.307  1.0715  0.4233 -0.9502
  425MOL0     C57268   3.316   4.949   5.167  1.2633 -0.3880  0.3992
  425MOL0     C57269   3.426   5.086   5.354 -0.1409 -0.1402 -0.0118
  425MOL0     C57270   3.486   5.197   5.262  0.0922  0.5334 -0.9443
  425MOL0     O57271   3.605   5.250   5.308 -0.3061 -0.5045 -0.1125
  425MOL0     C57272   3.664   5.348   5.225 -1.4487 -0.8578  0.8317
  425MOL0     C57273   3.740   5.312   5.111 -0.2718 -0.7177 -0.3353
  425MOL0     C57274   3.776   5.406   5.014  0.7026  0.3132  0.0810
  425MOL0     C57275   3.741   5.544   5.041 -0.2030  0.2429  0.4891
  425MOL0     O57276   3.800   5.631   4.944  0.1808  0.4763  0.7269
  425MOL0     C57277   3.809   5.764   4.981  0.5841  0.2273 -0.4501
  425MOL0     C57278   3.867   5.828   4.859 -1.0904  0.4546  0.3018
  425MOL0     C57279   3.987   5.924   4.883  0.6825  0.2820 -0.8260
  425MOL0     C57280   4.025   6.008   4.764  1.3147  0.9070  0.2891
  425MOL0     C57281   4.154   6.087   4.787  0.2850  0.6370 -0.3206
  425MOL0     C57282   4.199   6.169   4.667 -0.0913  0.4813 -0.1536
  425MOL0     C57283   4.344   6.204   4.676 -0.1183 -0.3810  0.1910
  425MOL0     C57284   4.394   6.238   4.535 -0.5617  0.0048 -0.1649
  425MOL0    Cl57285   4.574   6.262   4.518  0.0732  0.5741  0.0448
  425MOL0     C57286   3.673   5.580   5.155  0.1461  0.9408  1.4464
  425MOL0     C57287   3.628   5.484   5.246 -0.0795  0.0492 -0.2497
  425MOL0     O57288   3.444   5.204   5.148  0.2093  0.2902 -0.5013
  425MOL0     C57289   3.468   5.086   5.487  0.4452  0.1141  0.6450
  425MOL0     C57290   3.422   5.003   5.581 -0.0967 -0.1377  0.4685
  425MOL0     N57291   3.357   4.558   6.214  0.5310 -0.0265  0.7164
  425MOL0     N57292   3.446   4.497   6.284 -0.3792 -0.5813 -0.2805
  425MOL0     C57293   3.663   4.414   6.844 -0.7289  0.9872 -0.1148
  425MOL0     C57294   3.553   4.503   6.824  0.3916 -0.4214  0.6099
  425MOL0     C57295   3.358   4.810   6.580  0.1705  0.7062  1.1551
  425MOL0     C57296   3.430   4.933   6.553  0.1759 -0.5993  0.7175
  425MOL0     C57297   3.362   5.063   6.540  0.4979  0.1479  0.0412
  425MOL0     C57298   3.217   5.060   6.559 -0.1045 -0.1079 -1.0397
  425MOL0     O57299   3.140   5.169   6.599 -0.1061  0.2375  0.2578
  425MOL0     C57300   3.192   5.302   6.581 -0.2011  0.3073 -0.5287
  425MOL0     C57301   3.191   5.344   6.434 -0.4928  0.9493  0.0303
  425MOL0     C57302   3.056   5.372   6.379  0.6450 -0.5489 -0.3925
  425MOL0     C57303   2.994   5.499   6.451  1.3606  0.5221  0.2727
  425MOL0     C57304   2.905   5.578   6.364  0.5108 -0.6328  0.7389
  425MOL0     C57305   2.851   5.638   6.275 -1.1172 -0.6938  0.2306
  425MOL0     C57306   3.154   4.935   6.583  0.6002 -0.4943 -0.4910
  425MOL0     C57307   3.219   4.816   6.589 -0.1540  0.1170 -0.3540
  425MOL0     H57308   3.452   4.386   6.523  1.4977 -0.8303 -0.0489
  425MOL0     H57309   3.629   4.242   6.562  1.8978  1.7674  0.6260
  425MOL0     H57310   3.759   4.061   6.882  0.1811  2.8450  1.5219
  425MOL0     H57311   3.649   4.060   6.749  0.4837 -1.7242  2.4819
  425MOL0     H57312   3.937   3.991   6.755 -2.0269  1.9960  3.2018
  425MOL0     H57313   3.815   3.883   6.693 -1.7035  0.1423  1.6745
  425MOL0     H57314   3.916   4.145   6.545  0.9667  0.0391 -2.8201
  425MOL0     H57315   3.984   3.997   6.520 -0.6036  1.1918 -0.4503
  425MOL0     H57316   3.754   3.905   6.431 -0.7294 -0.5457 -2.8203
  425MOL0     H57317   3.688   4.058   6.463 -0.5903 -0.1213 -2.3184
  425MOL0     H57318   3.940   4.049   6.298  0.3188  0.1672 -0.8451
  425MOL0     H57319   3.779   4.036   6.223  2.9852 -1.4548 -0.8096
  425MOL0     H57320   3.847   4.270   6.394 -1.9904 -0.2920 -0.0612
  425MOL0     H57321   3.890   4.250   6.229  2.6640 -0.6039  1.6727
  425MOL0     H57322   3.630   4.195   6.188  0.7686 -2.2319  1.1257
  425MOL0     H57323   3.615   4.246   6.356  1.4690  2.0771  1.2283
  425MOL0     H57324   3.734   4.440   6.156  0.7150  5.6516  0.9234
  425MOL0     H57325   3.706   4.468   6.321 -1.2350  0.0232  0.4894
  425MOL0     H57326   3.550   4.434   5.980 -1.4392  2.0527 -2.0393
  425MOL0     H57327   3.224   4.438   5.947  1.2609 -0.5371  1.2950
  425MOL0     H57328   3.187   4.610   5.997 -0.6883  1.1771 -1.8772
  425MOL0     H57329   3.385   4.509   5.798  1.3312  2.0279 -2.7101
  425MOL0     H57330   3.373   4.675   5.855 -0.0748  0.2218 -1.1301
  425MOL0     H57331   3.122   4.652   5.788 -0.4818 -0.8708  2.1865
  425MOL0     H57332   3.183   4.519   5.695  1.9893  0.8165 -2.0209
  425MOL0     H57333   3.180   4.698   5.552  1.7491  1.9767 -1.0733
  425MOL0     H57334   3.347   4.635   5.578 -2.0575 -4.1419 -1.0564
  425MOL0     H57335   3.239   4.808   5.370 -0.8895 -1.6366  2.3292
  425MOL0     H57336   3.394   4.969   5.093 -0.6841  0.7782 -1.4682
  425MOL0     H57337   3.291   4.843   5.153  0.1951 -0.0116 -0.8066
  425MOL0     H57338   3.237   5.022   5.148 -1.4482 -2.6887  1.9781
  425MOL0     H57339   3.771   5.208   5.106 -0.3422 -0.6872 -2.0345
  425MOL0     H57340   3.829   5.381   4.922  0.8037  0.5136  0.0856
  425MOL0     H57341   3.712   5.806   5.007 -0.2037 -0.6710 -1.8004
  425MOL0     H57342   3.878   5.766   5.065  0.8866 -1.1534 -0.6267
  425MOL0     H57343   3.896   5.757   4.781 -0.2727  2.1862 -1.0389
  425MOL0     H57344   3.790   5.890   4.811 -0.0603 -0.2274 -2.4588
  425MOL0     H57345   4.079   5.873   4.913  0.3580  0.2639  0.1456
  425MOL0     H57346   3.956   5.992   4.963 -2.6892  0.7787 -2.3703
  425MOL0     H57347   4.036   5.954   4.669 -2.1242  2.1076 -0.9386
  425MOL0     H57348   3.935   6.063   4.737 -1.0260 -2.6716  0.1005
  425MOL0     H57349   4.224   6.004   4.804 -1.1074 -0.8341 -1.4361
  425MOL0     H57350   4.156   6.140   4.883 -1.4680 -0.2168  0.2334
  425MOL0     H57351   4.187   6.101   4.583  1.7439 -0.4666  0.2860
  425MOL0     H57352   4.137   6.258   4.656 -4.9472 -2.3719  1.3452
  425MOL0     H57353   4.397   6.115   4.711 -2.3997 -2.0283 -0.3126
  425MOL0     H57354   4.364   6.290   4.741 -0.2402  1.2394 -1.8282
  425MOL0     H57355   4.337   6.326   4.506 -0.7370  0.0690  0.3692
  425MOL0     H57356   4.359   6.170   4.457 -4.6342 -1.8167  2.9103
  425MOL0     H57357   3.641   5.678   5.189  2.1234  1.2611  2.5377
  425MOL0     H57358   3.559   5.519   5.323  0.2171 -0.3546  0.2071
  425MOL0     H57359   3.531   5.173   5.505  0.3475  0.4499 -0.5556
  425MOL0     H57360   3.457   5.008   5.684 -1.2233  0.7044  0.8302
  425MOL0     H57361   3.726   4.432   6.930  1.7853  0.6212 -1.7833
  425MOL0     H57362   3.528   4.582   6.895  0.9680 -1.7607  2.3712
  425MOL0     H57363   3.537   4.948   6.554  0.0043  0.7985  0.4165
  425MOL0     H57364   3.422   5.153   6.541  2.2939 -0.9988 -0.3846
  425MOL0     H57365   3.152   5.377   6.650  0.6669 -0.4692  0.8435
  425MOL0     H57366   3.294   5.313   6.619 -1.2119  0.3316  2.4566
  425MOL0     H57367   3.219   5.255   6.377 -0.6228 -0.3995  1.9743
  425MOL0     H57368   3.256   5.430   6.417  1.9572 -1.2086 -2.5288
  425MOL0     H57369   3.001   5.277   6.388  1.2480 -1.0200 -1.4527
  425MOL0     H57370   3.061   5.391   6.271 -0.6604  0.8500 -0.2357
  425MOL0     H57371   3.068   5.569   6.492 -0.4063  1.4136  2.0862
  425MOL0     H57372   2.939   5.455   6.534  1.8141 -1.6864 -0.5368
  425MOL0     H57373   2.806   5.692   6.194  3.3974  1.2505 -1.3015
  425MOL0     H57374   3.050   4.950   6.612 -0.0352  0.1260 -2.8427
  425MOL0     H57375   3.157   4.730   6.611 -0.9687 -0.6290 -4.6454
  426MOL0     O57376  11.026   3.703   3.217 -0.0175  0.2923 -0.3606
  426MOL0     C57377  11.091   3.625   3.150 -0.7018  0.5200 -1.0223
  426MOL0     O57378  11.146   3.507   3.202 -0.4326  0.0404  0.3926
  426MOL0     C57379  11.113   3.450   3.325  0.7168  1.2647 -0.2180
  426MOL0     C57380  11.202   3.353   3.368 -0.6701 -0.8250 -0.7997
  426MOL0     C57381  11.177   3.283   3.487  0.0249 -0.4116  0.2335
  426MOL0     C57382  11.062   3.296   3.562  0.4113  0.1316 -0.3729
  426MOL0     O57383  11.039   3.220   3.677 -0.6880  0.0785  0.5602
  426MOL0     C57384  10.919   3.245   3.754  0.2819  0.0172  0.2850
  426MOL0     C57385  10.922   3.169   3.886  0.4850 -0.6859 -0.5089
  426MOL0     C57386  10.809   3.223   3.977  0.6737 -0.3669  0.6299
  426MOL0     C57387  10.670   3.203   3.933  0.6319 -0.2478  0.3794
  426MOL0     C57388  10.571   3.247   4.050 -0.3129  0.7529  0.2207
  426MOL0     C57389  10.422   3.248   4.030  0.4687  0.5566 -0.2165
  426MOL0     C57390  10.327   3.300   4.142  0.5784  0.0395 -0.5017
  426MOL0     C57391  10.351   3.448   4.156  0.1865  0.2406 -0.0284
  426MOL0     N57392  10.326   3.535   4.035 -0.1491  0.0789 -0.3456
  426MOL0     C57393  10.224   3.608   4.006  0.2007  0.8193  0.2188
  426MOL0     C57394  10.240   3.694   3.901  0.7996 -0.2336  0.2916
  426MOL0     C57395  10.130   3.781   3.837 -0.5197 -0.8687 -0.5453
  426MOL0     C57396  10.112   3.913   3.918  0.1480  0.5322 -0.2539
  426MOL0     C57397  10.237   3.990   3.927  0.2661 -1.0115 -0.1536
  426MOL0     C57398  10.315   4.032   3.801 -0.5203  0.1976 -0.4149
  426MOL0     O57399  10.417   4.127   3.839  0.5117  0.2234  0.2288
  426MOL0     C57400  10.542   4.083   3.873 -0.1562  0.7248 -0.0052
  426MOL0     C57401  10.643   4.183   3.908  0.3964 -0.3905  0.4720
  426MOL0     C57402  10.774   4.157   3.948  0.3760  0.6090  0.3656
  426MOL0     C57403  10.859   4.257   4.011  0.5222  0.2922  0.1722
  426MOL0     C57404  10.816   4.025   3.925 -0.9337 -0.6093 -0.1570
  426MOL0     C57405  10.952   3.977   3.965  0.1591 -0.1707 -0.0654
  426MOL0     O57406  10.960   3.854   4.032  0.2878 -0.3777 -0.1155
  426MOL0     C57407  11.070   3.828   4.106  0.4485 -0.5870  0.1466
  426MOL0     C57408  11.136   3.915   4.192  0.0288 -0.0039  0.6130
  426MOL0     C57409  11.253   3.878   4.252 -0.3309  0.0211  0.3420
  426MOL0     C57410  11.294   3.744   4.243  0.5993 -1.2246 -1.1697
  426MOL0     O57411  11.402   3.703   4.313 -0.1732  0.4349 -0.3055
  426MOL0     C57412  11.379   3.684   4.461 -0.7514 -0.9091  0.6533
  426MOL0     C57413  11.502   3.611   4.514  0.9443 -0.6392  0.5619
  426MOL0     C57414  11.630   3.702   4.511  0.3369  0.6830  0.1757
  426MOL0     C57415  11.601   3.841   4.579 -0.2470  0.0027 -0.0980
  426MOL0     C57416  11.733   3.904   4.608 -0.3377 -0.4379  0.3416
  426MOL0     C57417  11.720   4.051   4.651  0.0166 -0.2538 -0.5998
  426MOL0     C57418  11.858   4.120   4.645 -0.2109 -0.0608 -0.2332
  426MOL0     C57419  11.975   4.067   4.723  0.1807  0.8027 -0.0898
  426MOL0    Cl57420  12.121   4.157   4.681 -0.0392 -0.0294 -0.0226
  426MOL0     C57421  11.225   3.646   4.181  0.3793 -0.0736 -0.9143
  426MOL0     C57422  11.122   3.693   4.101  0.4580 -0.6098  1.1174
  426MOL0     O57423  11.049   4.046   3.944 -0.3809 -0.0236 -0.2176
  426MOL0     C57424  10.723   3.931   3.893 -0.5937  0.4122 -0.0964
  426MOL0     C57425  10.589   3.959   3.868 -0.1005  0.0668  0.9004
  426MOL0     N57426  10.369   3.677   3.870 -0.1773 -0.8587 -0.3222
  426MOL0     N57427  10.421   3.594   3.959  0.1123 -0.2879 -0.5173
  426MOL0     C57428  10.975   3.400   3.512 -0.0513 -1.1398  0.1339
  426MOL0     C57429  11.001   3.470   3.402  0.6715 -0.0219  0.6268
  426MOL0     C57430  11.100   3.651   3.010  0.4231  0.3889  0.3202
  426MOL0     C57431  11.013   3.747   2.955  0.1176  0.9883 -0.8071
  426MOL0     C57432  11.027   3.766   2.815 -0.5274  0.3080 -0.0798
  426MOL0     C57433  11.124   3.703   2.739 -1.0563 -0.6096  0.1017
  426MOL0     O57434  11.123   3.739   2.605  0.1442  0.0276  0.4137
  426MOL0     C57435  11.246   3.796   2.556 -1.1395 -0.3715  0.1451
  426MOL0     C57436  11.285   3.939   2.614 -0.1148 -0.1890 -0.3243
  426MOL0     C57437  11.185   4.047   2.568  0.9656 -0.1955 -0.0780
  426MOL0     C57438  11.207   4.082   2.415 -0.2703  0.2208 -0.2593
  426MOL0     C57439  11.111   4.187   2.384  0.3829 -0.4749  0.4977
  426MOL0     C57440  11.032   4.277   2.358  0.1987 -0.8848  0.1472
  426MOL0     C57441  11.198   3.597   2.794  0.5627 -0.2918 -0.1008
  426MOL0     C57442  11.180   3.572   2.929 -0.2461 -0.0713 -0.9953
  426MOL0     H57443  11.301   3.334   3.327 -0.6323 -1.1598 -0.5617
  426MOL0     H57444  11.245   3.205   3.520  0.6179  0.8902  2.2559
  426MOL0     H57445  10.917   3.352   3.778 -1.8766 -0.3884  2.2634
  426MOL0     H57446  10.833   3.227   3.689  0.6553  0.1959 -0.2660
  426MOL0     H57447  10.906   3.065   3.858 -0.4977 -1.2569  1.8765
  426MOL0     H57448  11.014   3.173   3.946 -1.2844 -0.7722  2.4338
  426MOL0     H57449  10.832   3.175   4.072 -0.5377 -1.9848  0.1480
  426MOL0     H57450  10.823   3.330   3.993 -0.8270 -0.0049 -0.2861
  426MOL0     H57451  10.656   3.281   3.858  1.8795  0.7484  1.1403
  426MOL0     H57452  10.637   3.106   3.894 -1.2370  1.3271 -2.2014
  426MOL0     H57453  10.592   3.180   4.134  2.0904 -0.2353 -1.0637
  426MOL0     H57454  10.606   3.346   4.080  2.4133  0.8982 -2.8453
  426MOL0     H57455  10.406   3.295   3.932  1.2312  0.0091 -0.6121
  426MOL0     H57456  10.392   3.143   4.024 -2.4000  0.9943  3.3123
  426MOL0     H57457  10.225   3.277   4.111  0.9391 -1.3489 -0.7312
  426MOL0     H57458  10.345   3.249   4.237  2.0769  4.8675  2.1515
  426MOL0     H57459  10.451   3.466   4.194 -0.2057  0.1365  1.0766
  426MOL0     H57460  10.278   3.489   4.226  0.6353  0.3938  0.3469
  426MOL0     H57461  10.125   3.588   4.046  0.2796  0.0178  0.0275
  426MOL0     H57462  10.137   3.801   3.730 -1.4861  1.0404 -0.2952
  426MOL0     H57463  10.031   3.735   3.846 -0.9808 -0.5308 -3.1271
  426MOL0     H57464  10.088   3.877   4.019  2.6223 -1.0232 -0.1282
  426MOL0     H57465  10.018   3.961   3.889  0.5295  2.0878  0.9068
  426MOL0     H57466  10.312   3.936   3.985  0.7486 -0.4405 -0.2332
  426MOL0     H57467  10.218   4.080   3.986 -0.8828 -0.3659 -1.4500
  426MOL0     H57468  10.243   4.078   3.733 -2.0539 -1.3280  0.0996
  426MOL0     H57469  10.350   3.942   3.749 -0.7603 -2.0372  2.9888
  426MOL0     H57470  10.611   4.286   3.897  1.1311 -0.2387 -0.3789
  426MOL0     H57471  10.935   4.225   4.083  2.6555  0.7640 -1.7488
  426MOL0     H57472  10.898   4.310   3.923  0.7302 -0.3589 -0.1321
  426MOL0     H57473  10.790   4.327   4.059 -0.8134 -1.1151  0.3993
  426MOL0     H57474  11.098   4.016   4.203  2.1957  1.3123 -2.4768
  426MOL0     H57475  11.309   3.960   4.296  0.6660  1.4502 -3.2551
  426MOL0     H57476  11.356   3.775   4.518  0.8149 -0.7504  1.0716
  426MOL0     H57477  11.287   3.627   4.481 -1.8393  1.2795  2.5015
  426MOL0     H57478  11.482   3.587   4.619 -1.5520 -1.5762 -0.0576
  426MOL0     H57479  11.499   3.516   4.460 -2.5299  0.0722 -0.7055
  426MOL0     H57480  11.668   3.713   4.409  2.0267 -1.4406  0.4956
  426MOL0     H57481  11.697   3.640   4.570 -1.7780  0.0412  2.0125
  426MOL0     H57482  11.540   3.912   4.521  1.6913  0.3693 -1.8015
  426MOL0     H57483  11.546   3.821   4.672  0.3598  0.1610  0.2981
  426MOL0     H57484  11.787   3.896   4.514 -0.1285 -0.1261  0.4334
  426MOL0     H57485  11.785   3.838   4.678 -1.8469 -0.1069  1.8570
  426MOL0     H57486  11.671   4.103   4.568  2.5950  0.9926 -1.4702
  426MOL0     H57487  11.676   4.068   4.749  3.4895  0.3642  1.0205
  426MOL0     H57488  11.836   4.224   4.674  0.8897  0.0425  0.2963
  426MOL0     H57489  11.886   4.135   4.540  0.3503  1.9985  0.1601
  426MOL0     H57490  11.985   3.960   4.702 -2.5106 -0.3145  3.4270
  426MOL0     H57491  11.955   4.072   4.830  0.2997 -1.8179  0.1191
  426MOL0     H57492  11.245   3.540   4.197 -1.0286 -0.1974  0.3244
  426MOL0     H57493  11.068   3.624   4.038  0.6442  1.4883 -1.5388
  426MOL0     H57494  10.746   3.825   3.888 -0.3923  0.4624 -0.2488
  426MOL0     H57495  10.514   3.881   3.860 -0.7046  0.7827 -1.1068
  426MOL0     H57496  10.886   3.434   3.564 -0.3910 -0.5648 -0.8118
  426MOL0     H57497  10.932   3.548   3.370 -0.4889 -0.1800  2.5971
  426MOL0     H57498  10.942   3.805   3.014  0.0348 -1.4729  1.7127
  426MOL0     H57499  10.958   3.830   2.762  2.4984  0.2434 -4.6699
  426MOL0     H57500  11.331   3.734   2.585  1.2169  3.7428  3.1916
  426MOL0     H57501  11.242   3.802   2.447 -0.7703  0.6111  0.1781
  426MOL0     H57502  11.387   3.968   2.588  0.5065 -0.0404  2.0045
  426MOL0     H57503  11.285   3.933   2.723  1.6897  0.1083 -0.2846
  426MOL0     H57504  11.193   4.143   2.620 -0.3786  0.2883 -0.7400
  426MOL0     H57505  11.085   4.009   2.590  1.0479 -2.8403 -3.5054
  426MOL0     H57506  11.194   3.991   2.355  1.2457 -0.0658 -0.1937
  426MOL0     H57507  11.309   4.118   2.403 -0.5361  0.6878 -1.1725
  426MOL0     H57508  10.957   4.350   2.333 -1.2282 -0.4584  4.7902
  426MOL0     H57509  11.265   3.543   2.728 -2.0538 -2.3843 -1.1971
  426MOL0     H57510  11.242   3.494   2.973 -1.5417 -0.3376  0.4287
  427MOL0     O57511   2.956   8.942   4.861 -0.1428 -1.2614 -0.0782
  427MOL0     C57512   2.975   9.046   4.802 -0.1115 -1.0246  0.0190
  427MOL0     O57513   2.935   9.070   4.674 -0.5470 -0.8857  0.0771
  427MOL0     C57514   2.849   8.990   4.603 -0.3610  0.6619 -0.0469
  427MOL0     C57515   2.901   8.870   4.550 -0.8394  0.8031 -0.0484
  427MOL0     C57516   2.821   8.789   4.469  0.7799  0.3992  0.6459
  427MOL0     C57517   2.692   8.827   4.437  0.4702  0.3428 -0.9894
  427MOL0     O57518   2.602   8.748   4.363 -0.3511  0.5524 -0.1690
  427MOL0     C57519   2.630   8.613   4.321  0.6611  0.0823 -1.4927
  427MOL0     C57520   2.710   8.586   4.199  0.2685  0.4855  0.2308
  427MOL0     C57521   2.641   8.658   4.079  0.1706  0.9538  0.4328
  427MOL0     C57522   2.639   8.569   3.945 -0.4541  0.1274  0.3609
  427MOL0     C57523   2.497   8.513   3.939 -0.6799 -0.5388 -0.2722
  427MOL0     C57524   2.490   8.432   3.816 -0.6992  0.7845 -0.2619
  427MOL0     C57525   2.391   8.317   3.813  0.2833  0.6862 -0.2487
  427MOL0     C57526   2.243   8.352   3.789 -0.6238  0.0404  0.2495
  427MOL0     N57527   2.221   8.419   3.668 -0.5058 -0.1058 -0.2236
  427MOL0     C57528   2.219   8.350   3.547  0.0791  0.0058 -0.4784
  427MOL0     C57529   2.206   8.452   3.455 -0.8884  0.3759 -1.1103
  427MOL0     C57530   2.217   8.445   3.305 -0.4855 -0.3764  0.7439
  427MOL0     C57531   2.255   8.579   3.247 -0.4180 -0.0751 -0.8423
  427MOL0     C57532   2.292   8.577   3.087  0.3471  0.6856 -0.3539
  427MOL0     C57533   2.278   8.720   3.040 -0.0755 -0.5279 -0.2755
  427MOL0     O57534   2.302   8.727   2.903 -0.1428 -1.0464  0.1811
  427MOL0     C57535   2.275   8.853   2.865 -0.0803  0.5693 -0.1510
  427MOL0     C57536   2.168   8.869   2.786 -1.4019 -1.2888 -0.6852
  427MOL0     C57537   2.122   9.001   2.745 -0.1669  0.1707 -1.5681
  427MOL0     C57538   1.995   9.006   2.665 -0.3993  0.2440  0.1118
  427MOL0     C57539   2.182   9.108   2.809  1.3574 -0.3632  0.0375
  427MOL0     C57540   2.116   9.242   2.819 -0.9295 -0.0990 -0.3763
  427MOL0     O57541   2.195   9.345   2.794 -0.2269  0.2048  0.1360
  427MOL0     C57542   2.186   9.465   2.850  0.0397  0.5972 -0.5265
  427MOL0     C57543   2.121   9.485   2.972  0.1707 -0.2301  0.1600
  427MOL0     C57544   2.121   9.612   3.031  0.0978  0.7262 -0.2102
  427MOL0     C57545   2.191   9.715   2.973 -1.0406  0.3169  0.5854
  427MOL0     O57546   2.202   9.839   3.038  0.6903 -0.1252 -0.0486
  427MOL0     C57547   2.105   9.945   3.002 -0.1696  0.3051 -0.0965
  427MOL0     C57548   1.972   9.906   3.070  0.4019  0.0468  0.5936
  427MOL0     C57549   1.957   9.933   3.216  0.8404  0.5050 -0.8384
  427MOL0     C57550   1.819   9.921   3.269  0.0313  0.1653 -0.1846
  427MOL0     C57551   1.800   9.957   3.418 -0.8207  0.7804 -0.2463
  427MOL0     C57552   1.766  10.106   3.430  0.3878  1.3515  0.2293
  427MOL0     C57553   1.746  10.144   3.576 -0.5483 -0.3177  0.7982
  427MOL0     C57554   1.767  10.291   3.591  0.1301  0.1811  0.5703
  427MOL0    Cl57555   1.939  10.325   3.571 -0.5973 -0.0008 -0.1203
  427MOL0     C57556   2.270   9.692   2.861  0.6269  0.3518  0.1579
  427MOL0     C57557   2.267   9.561   2.802  0.7820  0.3208 -0.5663
  427MOL0     O57558   1.998   9.255   2.862 -0.5853 -0.1970 -0.3761
  427MOL0     C57559   2.302   9.093   2.880 -0.5876 -0.3762 -0.1525
  427MOL0     C57560   2.355   8.969   2.903  0.8580 -0.6464 -0.2037
  427MOL0     N57561   2.201   8.578   3.530 -0.0486  0.2211 -0.3083
  427MOL0     N57562   2.217   8.551   3.653  0.8829  0.1141  0.8923
  427MOL0     C57563   2.642   8.952   4.477  0.5234  0.2066 -0.1830
  427MOL0     C57564   2.721   9.028   4.568 -0.1265 -0.1694  0.8596
  427MOL0     C57565   3.049   9.160   4.877  0.2229  0.2348  0.2687
  427MOL0     C57566   3.104   9.143   4.998  0.3481  0.4402 -0.2231
  427MOL0     C57567   3.178   9.239   5.069  0.7147 -0.0832 -0.3920
  427MOL0     C57568   3.183   9.373   5.015  0.2187  0.7575 -0.1546
  427MOL0     O57569   3.256   9.462   5.078 -0.3052 -0.0207 -0.7711
  427MOL0     C57570   3.202   9.592   5.113  0.5378 -0.3125  0.9202
  427MOL0     C57571   3.302   9.703   5.129  0.2925  0.2555  0.5310
  427MOL0     C57572   3.268   9.814   5.231 -0.0764 -0.4189 -0.3940
  427MOL0     C57573   3.274   9.746   5.374  0.0908 -0.1775 -0.7337
  427MOL0     C57574   3.337   9.839   5.466 -0.5559 -0.9564 -0.9054
  427MOL0     C57575   3.373   9.923   5.552  0.2074 -0.5928  0.7146
  427MOL0     C57576   3.119   9.392   4.888 -1.1450  0.3811 -0.9019
  427MOL0     C57577   3.051   9.290   4.828  0.8736  0.2663  0.3874
  427MOL0     H57578   3.002   8.837   4.569  0.1679  1.4803 -3.5678
  427MOL0     H57579   2.854   8.692   4.432 -1.4950  0.2922 -1.3514
  427MOL0     H57580   2.690   8.566   4.400 -1.7549  4.7551  3.8181
  427MOL0     H57581   2.546   8.543   4.330  0.3889  0.5808  4.9485
  427MOL0     H57582   2.812   8.622   4.215  0.7273 -1.2358  1.4699
  427MOL0     H57583   2.717   8.477   4.189 -0.7260  0.4581 -0.3465
  427MOL0     H57584   2.538   8.682   4.107 -0.9571 -3.6213  1.0413
  427MOL0     H57585   2.698   8.750   4.063  1.6124 -0.0143 -0.2892
  427MOL0     H57586   2.652   8.627   3.853 -1.7029 -0.5789 -0.2849
  427MOL0     H57587   2.718   8.494   3.948 -2.2879 -1.9700 -0.7280
  427MOL0     H57588   2.475   8.448   4.025  0.9949  0.0348  0.6255
  427MOL0     H57589   2.428   8.598   3.938  1.9289  1.6932 -0.6628
  427MOL0     H57590   2.480   8.510   3.739 -1.5707  1.4244  0.4855
  427MOL0     H57591   2.586   8.381   3.808 -1.4442 -0.7669  0.3843
  427MOL0     H57592   2.434   8.251   3.737  2.1459  1.1032  0.4121
  427MOL0     H57593   2.390   8.258   3.905 -1.8775 -0.7827 -1.1092
  427MOL0     H57594   2.208   8.413   3.872  0.5947 -2.2670  2.6421
  427MOL0     H57595   2.181   8.264   3.810 -0.0670  0.4362  4.3817
  427MOL0     H57596   2.214   8.242   3.539  0.4994 -0.2866  2.3019
  427MOL0     H57597   2.287   8.365   3.281 -0.4741  0.1902 -1.2781
  427MOL0     H57598   2.119   8.412   3.269 -0.7271  1.5539 -0.5509
  427MOL0     H57599   2.331   8.623   3.312 -2.5583  0.3611  1.5420
  427MOL0     H57600   2.170   8.648   3.251 -2.4215 -2.3697 -0.6378
  427MOL0     H57601   2.231   8.510   3.026 -0.0198  0.8675 -0.1935
  427MOL0     H57602   2.393   8.544   3.060  1.4773  4.1751 -0.9770
  427MOL0     H57603   2.336   8.792   3.098  1.0779  0.3171 -2.3457
  427MOL0     H57604   2.175   8.750   3.061 -0.9105 -2.2899 -1.5828
  427MOL0     H57605   2.105   8.782   2.770 -1.4919 -1.4215  0.3267
  427MOL0     H57606   2.010   9.102   2.615  4.3357 -0.1263  0.3663
  427MOL0     H57607   1.982   8.930   2.588  2.0814 -0.3502  0.2253
  427MOL0     H57608   1.906   9.017   2.729  0.3466  2.4665  0.8590
  427MOL0     H57609   2.066   9.406   3.022 -0.3430  1.0505  1.7365
  427MOL0     H57610   2.077   9.642   3.126  2.4596  0.1857  1.1190
  427MOL0     H57611   2.135  10.041   3.044 -1.8526  0.8696 -0.1132
  427MOL0     H57612   2.086   9.955   2.894  0.0525  0.2891 -0.1378
  427MOL0     H57613   1.898   9.980   3.041  1.5231  0.6917 -0.7291
  427MOL0     H57614   1.948   9.801   3.047 -1.5419  0.3346  1.1156
  427MOL0     H57615   2.012  10.022   3.251  0.1430  0.4107  0.5342
  427MOL0     H57616   2.003   9.844   3.261 -1.7101 -0.9067 -0.8849
  427MOL0     H57617   1.743   9.986   3.224 -1.5444 -3.1952 -2.8370
  427MOL0     H57618   1.802   9.816   3.243  2.3971 -0.0129 -1.2980
  427MOL0     H57619   1.890   9.939   3.478 -2.8790  0.6630  3.0361
  427MOL0     H57620   1.727   9.884   3.454 -0.4275 -0.0057 -0.9787
  427MOL0     H57621   1.845  10.160   3.376  1.3248  0.7888  1.0091
  427MOL0     H57622   1.677  10.135   3.374 -0.8260  0.2776  1.5424
  427MOL0     H57623   1.825  10.107   3.642 -0.2769 -2.8888 -0.8010
  427MOL0     H57624   1.644  10.113   3.601 -2.1606 -0.1381 -4.3719
  427MOL0     H57625   1.746  10.322   3.693  1.3388  0.5308  0.7291
  427MOL0     H57626   1.703  10.343   3.519 -0.8276  0.0405  1.3026
  427MOL0     H57627   2.313   9.766   2.794  1.4161 -0.0856  0.1782
  427MOL0     H57628   2.327   9.538   2.714  1.7824  1.4567 -0.1976
  427MOL0     H57629   2.352   9.179   2.923 -1.0251  0.8485 -1.9525
  427MOL0     H57630   2.445   8.954   2.961  0.5695  4.3623  2.0665
  427MOL0     H57631   2.548   8.987   4.438  0.8662 -1.7311 -3.0120
  427MOL0     H57632   2.680   9.120   4.608  1.4535 -0.2328  2.7926
  427MOL0     H57633   3.104   9.042   5.039  2.7217  0.6070  0.3183
  427MOL0     H57634   3.214   9.210   5.167  0.7172 -0.4143 -0.4897
  427MOL0     H57635   3.130   9.617   5.034  1.5498  0.8635  0.3349
  427MOL0     H57636   3.141   9.578   5.203 -1.2851 -0.1150 -0.2201
  427MOL0     H57637   3.310   9.761   5.037  1.8095  3.0915  2.3222
  427MOL0     H57638   3.389   9.652   5.173 -0.8931 -1.8864  0.4985
  427MOL0     H57639   3.166   9.850   5.213  0.6147  0.1898 -3.7594
  427MOL0     H57640   3.340   9.897   5.233 -3.3726  2.6970 -0.2331
  427MOL0     H57641   3.334   9.655   5.362  2.0907  1.3207 -3.0621
  427MOL0     H57642   3.172   9.722   5.405  0.5182  1.1234  2.0358
  427MOL0     H57643   3.394  10.002   5.621  0.5264  0.5324 -0.6176
  427MOL0     H57644   3.104   9.486   4.837 -0.0096  1.6572  0.9713
  427MOL0     H57645   2.983   9.314   4.747 -1.1283  1.0990  2.2146
  428MOL0     O57646   9.457   7.922   2.298 -0.2217 -0.6995  0.0360
  428MOL0     C57647   9.454   7.833   2.382 -0.4118 -0.3662  0.4788
  428MOL0     O57648   9.427   7.850   2.510  0.4118 -0.0026 -0.0670
  428MOL0     C57649   9.430   7.973   2.572 -0.8628 -0.7671 -0.5326
  428MOL0     C57650   9.489   8.080   2.509 -0.6198 -0.0459 -0.2322
  428MOL0     C57651   9.489   8.202   2.582 -1.0574 -0.9109  0.0272
  428MOL0     C57652   9.424   8.213   2.702  0.8149  0.3781  0.4344
  428MOL0     O57653   9.442   8.338   2.772  0.5408  0.1174 -0.6046
  428MOL0     C57654   9.356   8.358   2.887 -0.2032 -0.0220  0.2076
  428MOL0     C57655   9.393   8.488   2.964  0.6975 -0.0713  0.5966
  428MOL0     C57656   9.355   8.618   2.888  0.1711  0.7495  0.1404
  428MOL0     C57657   9.407   8.739   2.950  0.4795  0.0305  0.3506
  428MOL0     C57658   9.320   8.770   3.079  1.0190  0.1079  0.1811
  428MOL0     C57659   9.370   8.898   3.134 -0.0076  0.3873  0.4839
  428MOL0     C57660   9.339   8.903   3.285 -0.7798  0.1076  0.0233
  428MOL0     C57661   9.390   9.039   3.343  1.1403  0.4789 -0.1317
  428MOL0     N57662   9.426   9.041   3.484  0.8462 -1.1732 -0.8988
  428MOL0     C57663   9.367   8.965   3.589  0.2306  0.4499 -0.9033
  428MOL0     C57664   9.446   8.999   3.701  0.1254 -1.0000  0.0219
  428MOL0     C57665   9.447   8.948   3.849  0.5196  0.6325  0.4804
  428MOL0     C57666   9.318   8.979   3.929  0.0948 -0.6097 -0.5908
  428MOL0     C57667   9.289   9.126   3.913  0.1140 -0.4116 -0.9934
  428MOL0     C57668   9.152   9.160   3.963  1.0269 -0.7845 -0.5388
  428MOL0     O57669   9.138   9.128   4.104 -0.0509  0.2004  0.5964
  428MOL0     C57670   9.020   9.147   4.165  0.7908  0.1810 -0.5028
  428MOL0     C57671   8.908   9.230   4.124 -0.1003 -0.0934 -0.2025
  428MOL0     C57672   8.791   9.256   4.193  0.4836  0.7149 -0.4862
  428MOL0     C57673   8.690   9.339   4.114 -0.9854  0.0394 -0.1816
  428MOL0     C57674   8.772   9.195   4.316  0.1825 -0.5951 -0.5145
  428MOL0     C57675   8.662   9.228   4.403 -0.2862 -0.0341 -0.6605
  428MOL0     O57676   8.611   9.135   4.484  0.1897  0.0349  0.2376
  428MOL0     C57677   8.501   9.175   4.556 -0.2983  0.3595 -0.0702
  428MOL0     C57678   8.374   9.123   4.534  0.3682  0.1193 -0.0501
  428MOL0     C57679   8.264   9.131   4.617 -0.7361  0.9269 -0.4806
  428MOL0     C57680   8.277   9.196   4.741 -0.5422 -0.0270 -0.1030
  428MOL0     O57681   8.176   9.186   4.829  0.0377  0.0807 -0.3062
  428MOL0     C57682   8.189   9.240   4.956  0.0254 -0.2449 -0.1092
  428MOL0     C57683   8.059   9.242   5.023  0.1261  0.0022  0.0111
  428MOL0     C57684   8.055   9.314   5.155 -0.8909 -0.1854  0.5163
  428MOL0     C57685   7.909   9.351   5.200  0.3741  0.0258 -0.0788
  428MOL0     C57686   7.889   9.402   5.349 -0.1863 -0.1892  0.4945
  428MOL0     C57687   7.950   9.539   5.374  0.3409 -0.4660 -0.7650
  428MOL0     C57688   7.881   9.645   5.290 -0.0944 -0.1616 -0.1406
  428MOL0     C57689   7.921   9.783   5.341 -0.3992  0.0185 -0.3220
  428MOL0    Cl57690   8.096   9.814   5.327  0.4317  0.0568 -0.1588
  428MOL0     C57691   8.408   9.254   4.767  0.5410 -0.4905 -0.1784
  428MOL0     C57692   8.514   9.242   4.680  0.4054 -0.2676  0.6625
  428MOL0     O57693   8.616   9.345   4.395  0.3520 -0.8887 -0.5551
  428MOL0     C57694   8.879   9.115   4.369  0.5009  0.0442 -0.7425
  428MOL0     C57695   8.992   9.089   4.291 -0.0296 -0.4101  0.3924
  428MOL0     N57696   9.545   9.091   3.657  0.1151  0.2145  0.5028
  428MOL0     N57697   9.534   9.104   3.533  0.1248 -0.3954  0.4276
  428MOL0     C57698   9.342   8.101   2.746 -0.7785 -1.0367  0.7014
  428MOL0     C57699   9.341   7.979   2.678 -0.3246 -0.4669 -0.1638
  428MOL0     C57700   9.480   7.695   2.342 -0.1838  0.0847  0.8043
  428MOL0     C57701   9.442   7.598   2.432 -0.7193 -0.0365  0.1544
  428MOL0     C57702   9.486   7.471   2.408 -0.0981  0.1704 -0.1956
  428MOL0     C57703   9.555   7.425   2.293  0.0024 -0.8054  0.5907
  428MOL0     O57704   9.597   7.294   2.303 -0.1260 -0.1866 -0.6304
  428MOL0     C57705   9.705   7.244   2.232 -1.0054 -0.3746 -0.0062
  428MOL0     C57706   9.841   7.283   2.298  0.9994 -0.5939  0.0193
  428MOL0     C57707   9.859   7.201   2.417 -0.1710  0.7437  1.0800
  428MOL0     C57708   9.987   7.254   2.484 -0.7675  0.0993 -0.2603
  428MOL0     C57709  10.066   7.146   2.548 -0.7209 -0.6531  0.3218
  428MOL0     C57710  10.163   7.075   2.592  0.4094  0.6695 -0.8250
  428MOL0     C57711   9.572   7.524   2.187  0.1786  0.4051  0.4944
  428MOL0     C57712   9.527   7.658   2.213 -0.0138 -0.4410  0.3883
  428MOL0     H57713   9.559   8.081   2.426 -0.8516  2.5121 -0.4929
  428MOL0     H57714   9.547   8.278   2.530 -1.4677 -1.4995 -1.3298
  428MOL0     H57715   9.252   8.356   2.854  0.2346  0.3262 -1.2500
  428MOL0     H57716   9.357   8.280   2.964  1.2968  0.8120  1.0902
  428MOL0     H57717   9.332   8.486   3.055 -0.1506 -1.9570  0.0380
  428MOL0     H57718   9.499   8.496   2.989  0.6522 -3.7580  2.7472
  428MOL0     H57719   9.412   8.613   2.794 -1.0422 -2.0008 -0.5424
  428MOL0     H57720   9.247   8.630   2.877 -0.0009 -1.4255 -0.9665
  428MOL0     H57721   9.511   8.730   2.981 -0.0586  0.6486  2.5754
  428MOL0     H57722   9.406   8.823   2.881 -2.2742 -1.3526 -1.5007
  428MOL0     H57723   9.212   8.771   3.061  1.0817 -1.8121 -0.5624
  428MOL0     H57724   9.342   8.694   3.153  0.4035 -0.5462 -0.3000
  428MOL0     H57725   9.479   8.900   3.134  0.0357  3.1011  2.2414
  428MOL0     H57726   9.325   8.985   3.086 -3.8813 -0.9854  1.2795
  428MOL0     H57727   9.232   8.891   3.303 -0.8431  0.8561  0.2040
  428MOL0     H57728   9.387   8.822   3.339  4.1129  2.4817 -0.1761
  428MOL0     H57729   9.319   9.115   3.309 -0.3380 -0.6884  0.2342
  428MOL0     H57730   9.489   9.061   3.301 -0.5387 -1.3989 -6.0327
  428MOL0     H57731   9.294   8.884   3.583  0.2424  0.4400 -0.9156
  428MOL0     H57732   9.458   8.839   3.849 -0.7755  0.4673 -1.1099
  428MOL0     H57733   9.528   8.999   3.902  0.5900  1.2294 -0.1868
  428MOL0     H57734   9.331   8.936   4.029 -0.2733 -1.8580 -1.0618
  428MOL0     H57735   9.232   8.929   3.885 -1.2469  1.8218 -0.8859
  428MOL0     H57736   9.284   9.146   3.806  0.2834  1.1769 -0.7162
  428MOL0     H57737   9.366   9.186   3.962  0.4002 -0.0468 -1.8826
  428MOL0     H57738   9.071   9.102   3.919 -0.9907 -0.2359  2.1488
  428MOL0     H57739   9.112   9.259   3.939 -1.1595 -2.0342 -2.4474
  428MOL0     H57740   8.906   9.264   4.021  0.6377 -0.2688 -0.2794
  428MOL0     H57741   8.693   9.319   4.006  1.0976  3.1232 -0.8518
  428MOL0     H57742   8.589   9.325   4.153 -1.1529 -1.6192 -1.1487
  428MOL0     H57743   8.728   9.441   4.125  5.8222 -1.8092 -1.5664
  428MOL0     H57744   8.348   9.074   4.441 -2.9701  0.7610  0.4106
  428MOL0     H57745   8.175   9.073   4.591  0.2782 -1.5049  1.1101
  428MOL0     H57746   8.258   9.186   5.022 -1.0836 -0.1411  1.1805
  428MOL0     H57747   8.216   9.346   4.949  0.9115 -0.4213  0.3742
  428MOL0     H57748   7.977   9.278   4.960 -1.0566 -2.2522  0.1641
  428MOL0     H57749   8.036   9.136   5.041  3.3641 -0.6658  0.7918
  428MOL0     H57750   8.117   9.404   5.148  0.2614 -0.9259  0.8589
  428MOL0     H57751   8.094   9.246   5.232 -1.0693  0.6732  1.3828
  428MOL0     H57752   7.873   9.436   5.141  1.6798 -0.7490 -2.0823
  428MOL0     H57753   7.846   9.265   5.177  2.4367 -0.9003 -2.8665
  428MOL0     H57754   7.935   9.331   5.418 -0.0861 -0.7304 -0.1193
  428MOL0     H57755   7.781   9.407   5.368 -0.6468  0.5908 -1.9148
  428MOL0     H57756   7.948   9.557   5.482 -3.6189 -0.7564 -0.6165
  428MOL0     H57757   8.051   9.527   5.334 -0.7149 -1.6012 -3.3396
  428MOL0     H57758   7.773   9.636   5.306  0.1560 -1.2842  1.0799
  428MOL0     H57759   7.912   9.640   5.186  3.1722  0.4060  0.6837
  428MOL0     H57760   7.883   9.796   5.443 -0.9088  0.3140 -0.5488
  428MOL0     H57761   7.862   9.848   5.276 -2.6359 -3.2419 -1.7794
  428MOL0     H57762   8.428   9.302   4.863 -1.0015 -2.4557  1.2057
  428MOL0     H57763   8.611   9.269   4.721  0.9914 -0.3472 -0.6162
  428MOL0     H57764   8.872   9.074   4.469  3.1725  0.5750 -0.2392
  428MOL0     H57765   9.068   9.019   4.324 -2.1043 -4.0448 -1.9494
  428MOL0     H57766   9.289   8.103   2.840 -1.6463 -0.6491  0.2151
  428MOL0     H57767   9.283   7.889   2.695 -1.2108  0.0718 -0.2628
  428MOL0     H57768   9.399   7.622   2.529  0.7801 -0.3610  0.9274
  428MOL0     H57769   9.491   7.397   2.486  1.1909  3.6546  3.3949
  428MOL0     H57770   9.695   7.136   2.231 -2.7148 -0.2396 -0.2703
  428MOL0     H57771   9.697   7.282   2.130 -0.7964 -1.5405 -0.4600
  428MOL0     H57772   9.829   7.387   2.329  2.3237 -0.2742 -0.4630
  428MOL0     H57773   9.917   7.283   2.219 -2.4989 -0.5566 -3.7113
  428MOL0     H57774   9.879   7.095   2.399 -0.6018  0.6457  1.1569
  428MOL0     H57775   9.769   7.200   2.480 -1.9672  0.7620 -1.3327
  428MOL0     H57776   9.957   7.333   2.554 -1.7787 -0.9119  0.4970
  428MOL0     H57777  10.049   7.309   2.413 -0.5634  1.8015  1.1722
  428MOL0     H57778  10.233   7.024   2.655  0.0197 -1.8434 -2.3262
  428MOL0     H57779   9.604   7.481   2.093 -0.2826  0.4510  0.3121
  428MOL0     H57780   9.531   7.730   2.132 -1.2770 -0.9363 -0.1407
  429MOL0     O57781   6.846   8.787   9.681  0.6840  0.6669  0.6039
  429MOL0     C57782   6.812   8.901   9.650  0.1665  0.5355 -0.6150
  429MOL0     O57783   6.880   8.989   9.570 -1.2844 -0.3853 -0.0617
  429MOL0     C57784   6.998   8.953   9.498  0.6982  0.7358  0.6515
  429MOL0     C57785   7.064   9.053   9.430 -1.0988  0.2744  0.8237
  429MOL0     C57786   7.160   9.019   9.327 -0.1211 -0.0214 -0.1175
  429MOL0     C57787   7.202   8.893   9.311 -0.0405 -0.6187 -0.4578
  429MOL0     O57788   7.298   8.870   9.220 -0.8821  0.0890 -0.2726
  429MOL0     C57789   7.274   8.808   9.092  0.2349  0.0286 -0.1855
  429MOL0     C57790   7.192   8.902   9.001 -0.8612 -0.1500  0.4672
  429MOL0     C57791   7.270   9.029   8.958  0.1305 -0.4358 -1.2426
  429MOL0     C57792   7.225   9.064   8.813 -0.0439 -0.8644 -0.7260
  429MOL0     C57793   7.228   9.218   8.788 -0.0570 -0.0437 -0.0731
  429MOL0     C57794   7.258   9.256   8.640  0.0536 -0.9064  0.0686
  429MOL0     C57795   7.273   9.401   8.614  0.1852 -0.6182 -0.5331
  429MOL0     C57796   7.151   9.489   8.648 -0.7715 -0.0749  0.3588
  429MOL0     N57797   7.047   9.472   8.552  0.6978  0.7347  0.3357
  429MOL0     C57798   7.048   9.493   8.413  0.1801 -0.4474 -1.0640
  429MOL0     C57799   6.920   9.480   8.378 -0.5840 -0.0565 -0.2177
  429MOL0     C57800   6.871   9.489   8.248 -0.1506 -0.0838  0.0282
  429MOL0     C57801   6.831   9.622   8.200  0.0449  0.3261  0.4778
  429MOL0     C57802   6.936   9.730   8.192 -0.0266  0.2686 -0.9175
  429MOL0     C57803   6.875   9.860   8.174 -0.8025 -0.0630 -1.3918
  429MOL0     O57804   6.790   9.869   8.060 -0.7130  0.6511 -0.0737
  429MOL0     C57805   6.721   9.987   8.047  0.0552 -0.1094  0.6137
  429MOL0     C57806   6.700  10.077   8.145  0.5000 -0.4367  0.5210
  429MOL0     C57807   6.618  10.196   8.127  0.1511 -0.3182 -0.0517
  429MOL0     C57808   6.618  10.288   8.243  0.5241 -1.3480  0.0836
  429MOL0     C57809   6.554  10.220   8.004  0.4332  0.3905 -0.0708
  429MOL0     C57810   6.464  10.343   7.974  0.2870 -0.5539 -0.2065
  429MOL0     O57811   6.454  10.444   8.070  0.2794 -0.9364  0.7790
  429MOL0     C57812   6.367  10.555   8.052 -0.7694  0.2109  0.1051
  429MOL0     C57813   6.281  10.578   7.946  0.8181 -0.2025 -0.0093
  429MOL0     C57814   6.187  10.679   7.945 -0.4892 -1.3062 -1.4603
  429MOL0     C57815   6.177  10.766   8.056 -1.0136 -0.0605 -0.0478
  429MOL0     O57816   6.095  10.877   8.039  0.1936  0.3118 -1.0631
  429MOL0     C57817   6.023  10.921   8.151  0.1105 -1.1034  0.5642
  429MOL0     C57818   5.914  11.012   8.096  0.2504 -0.8127  0.2649
  429MOL0     C57819   5.779  11.019   8.169  0.3889  1.1980  0.1416
  429MOL0     C57820   5.652  10.948   8.116 -0.1109  0.4585  0.2537
  429MOL0     C57821   5.657  10.794   8.121 -0.1308  0.3436 -0.6484
  429MOL0     C57822   5.537  10.701   8.084  0.7431  1.0861  0.5334
  429MOL0     C57823   5.439  10.689   8.202 -0.8649  0.5978  0.3740
  429MOL0     C57824   5.309  10.616   8.170 -0.1064  0.4384  0.5219
  429MOL0    Cl57825   5.209  10.727   8.077  0.2169  0.3254 -0.4336
  429MOL0     C57826   6.268  10.743   8.166  0.0716 -0.0119 -0.0387
  429MOL0     C57827   6.361  10.636   8.162  0.8860  0.0613  0.1539
  429MOL0     O57828   6.399  10.336   7.872 -0.1300 -0.3568 -0.0438
  429MOL0     C57829   6.573  10.123   7.906 -0.2654  0.1234 -0.0209
  429MOL0     C57830   6.660  10.015   7.922 -0.4526 -0.4489 -1.1318
  429MOL0     N57831   6.853   9.422   8.483 -0.1626  0.0078 -0.5725
  429MOL0     N57832   6.923   9.433   8.590  0.3857  0.0345  0.2161
  429MOL0     C57833   7.135   8.791   9.370  0.5660  0.5379 -0.5236
  429MOL0     C57834   7.041   8.820   9.465 -0.1093  0.9946  0.3936
  429MOL0     C57835   6.676   8.947   9.695 -1.2220 -0.8076 -0.7311
  429MOL0     C57836   6.568   8.860   9.733 -0.2302 -0.8052 -0.3058
  429MOL0     C57837   6.448   8.915   9.782  0.0341 -0.5007 -0.5286
  429MOL0     C57838   6.424   9.050   9.786  0.7335  0.2750 -0.4923
  429MOL0     O57839   6.299   9.085   9.825 -0.2299 -0.3090  0.0992
  429MOL0     C57840   6.268   9.220   9.854  0.2571 -0.8578  0.2918
  429MOL0     C57841   6.192   9.288   9.732 -0.4831 -0.6568 -0.7999
  429MOL0     C57842   6.253   9.283   9.592  0.0616  0.8613 -0.4456
  429MOL0     C57843   6.164   9.324   9.475  0.0701 -0.3965  0.3249
  429MOL0     C57844   6.156   9.468   9.479 -0.5624 -0.3557  0.6334
  429MOL0     C57845   6.149   9.591   9.502  0.3363 -0.3058  0.4967
  429MOL0     C57846   6.523   9.125   9.738 -0.6221 -0.7877 -0.2903
  429MOL0     C57847   6.648   9.088   9.691 -1.1950 -0.0322  0.9069
  429MOL0     H57848   7.036   9.157   9.443 -0.7763  0.1902  2.3929
  429MOL0     H57849   7.207   9.096   9.266 -2.0648 -2.1888 -4.8264
  429MOL0     H57850   7.366   8.784   9.038  0.9740 -3.5488  2.3432
  429MOL0     H57851   7.222   8.713   9.106  0.0976  0.2165  0.6550
  429MOL0     H57852   7.173   8.857   8.903  2.6381  0.2216 -0.5130
  429MOL0     H57853   7.099   8.934   9.049 -0.2650  0.9285  0.9199
  429MOL0     H57854   7.259   9.108   9.032 -0.0706 -1.7874  0.2091
  429MOL0     H57855   7.378   9.009   8.952 -0.1882 -2.8872  0.0849
  429MOL0     H57856   7.292   9.016   8.741 -0.9445 -1.6015 -1.0866
  429MOL0     H57857   7.126   9.019   8.802 -0.4834 -0.2454  0.5502
  429MOL0     H57858   7.140   9.264   8.834  0.7467  1.4779 -0.0205
  429MOL0     H57859   7.312   9.261   8.842 -1.8988  1.8963  1.4494
  429MOL0     H57860   7.357   9.212   8.624  1.0634  0.5689  1.9467
  429MOL0     H57861   7.183   9.211   8.574 -0.0552  0.3274 -0.6733
  429MOL0     H57862   7.354   9.434   8.679  0.2682  1.6533 -1.6866
  429MOL0     H57863   7.314   9.424   8.515 -1.7028  0.2726 -1.1559
  429MOL0     H57864   7.177   9.595   8.652 -1.4066  0.0523  1.8989
  429MOL0     H57865   7.117   9.469   8.750  1.2004 -0.8199  0.9082
  429MOL0     H57866   7.139   9.515   8.357  1.7758 -1.0907  1.1289
  429MOL0     H57867   6.940   9.450   8.173 -0.2360  1.5913 -0.9839
  429MOL0     H57868   6.784   9.425   8.237  0.2435 -0.3095 -2.3257
  429MOL0     H57869   6.754   9.645   8.273  0.3957 -4.6475  2.8404
  429MOL0     H57870   6.793   9.609   8.098 -1.3817  0.2157  1.0034
  429MOL0     H57871   6.990   9.704   8.101  0.0530  1.5861 -1.2638
  429MOL0     H57872   6.985   9.718   8.289  0.4715 -2.5666 -1.4394
  429MOL0     H57873   6.947   9.942   8.178  1.4450 -1.9392  2.8023
  429MOL0     H57874   6.818   9.873   8.266  0.2203 -2.5386 -0.3323
  429MOL0     H57875   6.729  10.070   8.250 -0.8901  4.8791  1.5306
  429MOL0     H57876   6.696  10.265   8.317  1.0130 -1.0322 -0.3180
  429MOL0     H57877   6.657  10.384   8.208  3.6169 -1.9342  1.5367
  429MOL0     H57878   6.523  10.303   8.294 -0.6791 -0.1081 -2.3823
  429MOL0     H57879   6.291  10.517   7.857  3.9757  1.8682 -1.2452
  429MOL0     H57880   6.135  10.697   7.851 -1.2094  2.2161 -0.5461
  429MOL0     H57881   5.988  10.840   8.216 -3.3111  0.6043  1.0766
  429MOL0     H57882   6.098  10.977   8.208  1.0893 -2.2544  0.4532
  429MOL0     H57883   5.965  11.108   8.097  1.1039 -1.2193  2.6846
  429MOL0     H57884   5.884  10.998   7.992 -1.1607 -1.4721  0.7287
  429MOL0     H57885   5.759  11.127   8.169  0.7908  1.2762  0.4782
  429MOL0     H57886   5.791  10.981   8.270  1.3644  0.6817 -0.1544
  429MOL0     H57887   5.576  10.988   8.184  1.1965  0.4617  1.7668
  429MOL0     H57888   5.629  10.976   8.013  0.2078 -1.6371 -0.4465
  429MOL0     H57889   5.683  10.767   8.224  0.9569 -1.3602 -1.3362
  429MOL0     H57890   5.744  10.753   8.070  1.6806  0.5441  2.0864
  429MOL0     H57891   5.479  10.713   7.991  0.1419  0.2395  0.7884
  429MOL0     H57892   5.590  10.607   8.066 -0.9338  0.0679  0.7369
  429MOL0     H57893   5.415  10.785   8.248  0.2255  0.5887  0.9875
  429MOL0     H57894   5.486  10.629   8.280  1.0168  1.8303  0.2330
  429MOL0     H57895   5.260  10.590   8.264  0.9038  0.4749  1.0634
  429MOL0     H57896   5.332  10.526   8.112 -1.0139  2.7844 -3.9406
  429MOL0     H57897   6.265  10.806   8.255  0.3350  0.7665 -0.5750
  429MOL0     H57898   6.419  10.614   8.251 -0.5149  0.4967  1.2090
  429MOL0     H57899   6.531  10.136   7.807 -0.2449  2.2195  0.1981
  429MOL0     H57900   6.668   9.946   7.839  0.6200  0.7538 -2.0776
  429MOL0     H57901   7.171   8.690   9.351  0.9236  0.0591  2.3394
  429MOL0     H57902   6.982   8.732   9.489  0.2443 -0.9611 -4.7240
  429MOL0     H57903   6.590   8.753   9.728  0.5884 -0.6352 -0.4895
  429MOL0     H57904   6.371   8.846   9.815 -1.5002  1.8139  0.9685
  429MOL0     H57905   6.210   9.213   9.946  0.9828 -0.8394  0.7658
  429MOL0     H57906   6.354   9.283   9.880 -1.3752  0.8324  1.8600
  429MOL0     H57907   6.175   9.394   9.752 -1.6469 -0.9334 -0.2207
  429MOL0     H57908   6.105   9.221   9.742  2.3062 -4.2612  3.2005
  429MOL0     H57909   6.278   9.178   9.573  0.4511  1.0607 -1.0668
  429MOL0     H57910   6.351   9.331   9.595  0.9987 -0.7527  5.0922
  429MOL0     H57911   6.065   9.280   9.462 -0.7963  1.4641  0.2632
  429MOL0     H57912   6.214   9.299   9.380  3.0145  2.1184  1.0525
  429MOL0     H57913   6.144   9.691   9.539  0.8158 -0.1136  0.0540
  429MOL0     H57914   6.515   9.233   9.746 -0.5655 -0.8960  1.9801
  429MOL0     H57915   6.714   9.168   9.658 -1.1636 -0.2146  0.5145
  430MOL0     O57916   0.237   1.463  11.451 -0.3409 -0.2676 -0.4239
  430MOL0     C57917   0.314   1.384  11.384  0.4570 -0.8424 -0.2510
  430MOL0     O57918   0.278   1.258  11.340 -0.0525  0.3774 -0.2158
  430MOL0     C57919   0.146   1.223  11.343  0.6602 -0.3503 -0.1209
  430MOL0     C57920   0.027   1.309  11.328  0.5665  0.2342 -0.4285
  430MOL0     C57921  -0.098   1.246  11.317 -0.2797  0.1980 -0.8050
  430MOL0     C57922  -0.124   1.108  11.318 -0.3258  0.7708 -1.0537
  430MOL0     O57923  -0.249   1.066  11.312  0.3062  0.2579  0.6437
  430MOL0     C57924  -0.286   0.965  11.411 -0.7590 -0.2513 -0.4796
  430MOL0     C57925  -0.441   0.965  11.391 -0.0643 -0.9219  0.5043
  430MOL0     C57926  -0.504   0.833  11.449 -0.3257 -0.4647  0.5927
  430MOL0     C57927  -0.653   0.823  11.419 -0.3446 -0.3612  0.2828
  430MOL0     C57928  -0.718   0.687  11.445  0.2007  0.3743  0.0073
  430MOL0     C57929  -0.869   0.703  11.421 -0.4838  0.8463 -0.1100
  430MOL0     C57930  -0.960   0.570  11.438 -1.1300  1.0536 -0.4163
  430MOL0     C57931  -1.114   0.598  11.410 -0.6503 -0.3052  0.0354
  430MOL0     N57932  -1.180   0.486  11.463  1.0825  0.7090 -0.5895
  430MOL0     C57933  -1.179   0.356  11.427  0.3553  0.1330  0.0622
  430MOL0     C57934  -1.233   0.288  11.519  0.2872  0.1619 -0.6634
  430MOL0     C57935  -1.267   0.141  11.518 -0.3576  0.0141 -0.2958
  430MOL0     C57936  -1.399   0.108  11.458 -0.4220 -0.5495  0.5144
  430MOL0     C57937  -1.411  -0.042  11.442 -0.6810 -0.0536  1.3797
  430MOL0     C57938  -1.448  -0.114  11.572 -0.5269  0.3446  0.1789
  430MOL0     O57939  -1.584  -0.096  11.600 -0.2459 -0.2699 -0.0943
  430MOL0     C57940  -1.640  -0.147  11.712 -0.8810 -0.6003 -0.7490
  430MOL0     C57941  -1.770  -0.104  11.745  1.4064  0.0692  0.3764
  430MOL0     C57942  -1.840  -0.147  11.851 -0.9311  0.3438  0.2902
  430MOL0     C57943  -1.982  -0.107  11.860 -0.0197 -0.4320  0.0253
  430MOL0     C57944  -1.779  -0.237  11.939 -0.6308  0.3499 -0.1389
  430MOL0     C57945  -1.849  -0.317  12.044 -0.2876  0.5126 -0.6996
  430MOL0     O57946  -1.957  -0.260  12.111 -0.6303  0.5599  0.5239
  430MOL0     C57947  -2.025  -0.354  12.187 -0.3485  0.3794  0.0147
  430MOL0     C57948  -2.013  -0.337  12.330  0.1302  0.0913 -0.8158
  430MOL0     C57949  -2.064  -0.433  12.419 -0.0643 -0.3911  0.1650
  430MOL0     C57950  -2.125  -0.549  12.368 -0.0051 -0.0779  0.0327
  430MOL0     O57951  -2.192  -0.650  12.446 -0.4241 -0.7337  0.8971
  430MOL0     C57952  -2.120  -0.698  12.565  0.7932 -0.0677 -0.6185
  430MOL0     C57953  -1.998  -0.785  12.520  0.1402  0.0863  0.0817
  430MOL0     C57954  -2.048  -0.904  12.427  0.0535  0.0142 -0.9495
  430MOL0     C57955  -1.984  -0.894  12.281  0.8160 -0.2454 -0.1824
  430MOL0     C57956  -2.036  -1.002  12.190  0.8987 -0.1026  0.2409
  430MOL0     C57957  -2.137  -0.960  12.079  0.9606 -1.2245 -0.4272
  430MOL0     C57958  -2.171  -1.064  11.970  0.4668 -1.3201 -0.2907
  430MOL0     C57959  -2.054  -1.103  11.880  1.0232  0.1130 -0.0567
  430MOL0    Cl57960  -2.120  -1.123  11.713  0.6515  0.1596 -0.1283
  430MOL0     C57961  -2.140  -0.561  12.234 -0.2534  0.3193 -0.3046
  430MOL0     C57962  -2.093  -0.470  12.150  0.1428 -0.0821  0.8405
  430MOL0     O57963  -1.800  -0.426  12.077  0.4456 -0.1992  0.0271
  430MOL0     C57964  -1.647  -0.278  11.910 -0.1398  0.1818 -0.8753
  430MOL0     C57965  -1.578  -0.233  11.797 -0.0757 -0.4337 -0.3247
  430MOL0     N57966  -1.288   0.380  11.616 -0.8689 -0.0665 -0.3191
  430MOL0     N57967  -1.253   0.500  11.579 -0.1640  0.3530 -0.1372
  430MOL0     C57968  -0.005   1.034  11.326  0.8118 -0.4423  0.5453
  430MOL0     C57969   0.125   1.083  11.340  0.2873 -0.1430  0.3634
  430MOL0     C57970   0.453   1.429  11.359 -0.8622  1.6662  0.3098
  430MOL0     C57971   0.515   1.528  11.432  0.0175  0.2150 -0.1281
  430MOL0     C57972   0.646   1.568  11.412 -0.1044 -0.3403 -0.0601
  430MOL0     C57973   0.731   1.497  11.318  0.0327  0.8423  0.1777
  430MOL0     O57974   0.859   1.531  11.279  0.0120  0.3165 -0.0582
  430MOL0     C57975   0.878   1.591  11.154  0.6831  0.6932  0.0260
  430MOL0     C57976   0.974   1.527  11.062  0.5262  0.4164  0.6135
  430MOL0     C57977   1.111   1.510  11.119  0.9633 -0.1781 -0.3488
  430MOL0     C57978   1.208   1.432  11.019 -0.3413 -0.3617 -0.9235
  430MOL0     C57979   1.170   1.294  11.003  0.5286  1.3889 -0.5047
  430MOL0     C57980   1.130   1.180  10.979 -1.3102  0.5036 -0.6222
  430MOL0     C57981   0.665   1.390  11.251  0.1750  0.4638  0.1868
  430MOL0     C57982   0.529   1.364  11.262  0.2337  0.4326 -0.5450
  430MOL0     H57983   0.012   1.416  11.341 -4.8431 -0.4821  1.4556
  430MOL0     H57984  -0.188   1.306  11.317  0.2391  0.9830 -0.6532
  430MOL0     H57985  -0.242   0.867  11.393 -0.5927 -0.0984 -0.9224
  430MOL0     H57986  -0.260   1.000  11.511  3.2857 -0.8662 -1.1472
  430MOL0     H57987  -0.467   1.046  11.459  2.5277 -0.7721  1.4417
  430MOL0     H57988  -0.466   0.984  11.287 -0.3760 -0.6202  0.6334
  430MOL0     H57989  -0.460   0.750  11.393 -2.3446 -0.4801 -1.0903
  430MOL0     H57990  -0.495   0.819  11.557 -1.3894 -0.3336  0.7043
  430MOL0     H57991  -0.706   0.900  11.476 -3.0467 -2.5049  0.9333
  430MOL0     H57992  -0.676   0.857  11.318  1.8138  1.5105  0.3471
  430MOL0     H57993  -0.667   0.620  11.375  3.4053 -0.9157  3.2624
  430MOL0     H57994  -0.701   0.645  11.545 -1.8456  2.0083  1.1163
  430MOL0     H57995  -0.907   0.782  11.487  1.7752  1.6273  0.3412
  430MOL0     H57996  -0.890   0.739  11.320  0.1893  2.1174  0.1748
  430MOL0     H57997  -0.930   0.491  11.369 -0.7073 -0.5363  1.4997
  430MOL0     H57998  -0.943   0.520  11.534  0.6584  1.8699 -0.2641
  430MOL0     H57999  -1.124   0.614  11.302 -0.3858  0.8209  0.1745
  430MOL0     H58000  -1.142   0.691  11.460  0.4524  0.2640 -0.3827
  430MOL0     H58001  -1.149   0.312  11.332  0.6062 -2.5396  1.2949
  430MOL0     H58002  -1.182   0.113  11.456  0.9188  0.6417  1.1202
  430MOL0     H58003  -1.262   0.100  11.620 -2.2855  0.6516  0.0936
  430MOL0     H58004  -1.394   0.147  11.356  0.9345 -0.3493  0.6423
  430MOL0     H58005  -1.478   0.156  11.517 -0.8145  1.6284 -1.6044
  430MOL0     H58006  -1.332  -0.095  11.389 -0.5818  1.3693  0.0362
  430MOL0     H58007  -1.499  -0.057  11.380  0.0581  1.7278 -0.2117
  430MOL0     H58008  -1.390  -0.090  11.661 -2.2560  0.7819  1.2303
  430MOL0     H58009  -1.428  -0.221  11.556 -0.9871  0.3548 -0.5100
  430MOL0     H58010  -1.808  -0.028  11.678  1.6136 -1.6112 -1.7381
  430MOL0     H58011  -2.009  -0.076  11.962 -0.7023  1.9244 -0.7949
  430MOL0     H58012  -2.002  -0.018  11.798 -0.0922 -1.8278 -2.0512
  430MOL0     H58013  -2.056  -0.180  11.828 -1.6045  1.2367 -0.3170
  430MOL0     H58014  -1.975  -0.245  12.373 -0.5116 -0.7418  1.6941
  430MOL0     H58015  -2.041  -0.420  12.524 -1.6266  1.5782  0.3167
  430MOL0     H58016  -2.086  -0.620  12.633 -0.2591 -1.4952  1.6442
  430MOL0     H58017  -2.197  -0.757  12.615  0.3057  1.9979  1.1989
  430MOL0     H58018  -1.921  -0.726  12.469 -1.9955 -1.0575 -5.0835
  430MOL0     H58019  -1.950  -0.813  12.614 -2.6801 -0.4744  1.4724
  430MOL0     H58020  -2.156  -0.894  12.419 -0.0274 -0.8679 -1.0065
  430MOL0     H58021  -2.023  -0.996  12.480  0.5905 -0.0499 -1.3005
  430MOL0     H58022  -2.001  -0.793  12.242 -3.1989  0.0024  1.7151
  430MOL0     H58023  -1.874  -0.897  12.286  0.7346 -1.7031  2.0844
  430MOL0     H58024  -2.074  -1.089  12.244 -0.9878 -0.1016 -0.9815
  430MOL0     H58025  -1.955  -1.053  12.138  0.8626 -0.7944  0.8569
  430MOL0     H58026  -2.222  -0.911  12.127  2.2918 -1.3785  2.2431
  430MOL0     H58027  -2.081  -0.877  12.035  2.9272 -3.5062 -2.5254
  430MOL0     H58028  -2.246  -1.020  11.904  1.0578 -0.9397 -0.7192
  430MOL0     H58029  -2.209  -1.150  12.025  1.8107 -1.3673  0.6214
  430MOL0     H58030  -2.008  -1.198  11.906 -0.1773 -0.2494  0.8590
  430MOL0     H58031  -1.975  -1.027  11.887 -0.0223  1.1007  3.2492
  430MOL0     H58032  -2.193  -0.652  12.208 -0.2266 -0.7713  2.9692
  430MOL0     H58033  -2.113  -0.483  12.045 -2.6635 -1.8715  1.5082
  430MOL0     H58034  -1.594  -0.333  11.987 -1.3221  0.6750  0.3407
  430MOL0     H58035  -1.476  -0.270  11.786  0.6445 -0.6849  4.6536
  430MOL0     H58036  -0.015   0.927  11.313 -2.0890  0.0825 -3.1686
  430MOL0     H58037   0.196   1.001  11.344  0.3134 -0.0743  2.5453
  430MOL0     H58038   0.459   1.578  11.511 -1.0027  0.4532 -0.9812
  430MOL0     H58039   0.682   1.650  11.472  0.5703 -0.2195 -0.6157
  430MOL0     H58040   0.783   1.595  11.099 -1.1658  0.3852  2.9749
  430MOL0     H58041   0.911   1.694  11.170 -1.7387  1.7198 -1.1122
  430MOL0     H58042   0.965   1.578  10.966  0.5172 -0.6398  0.0522
  430MOL0     H58043   0.938   1.425  11.048  0.3182  0.2183  2.3583
  430MOL0     H58044   1.097   1.445  11.206  2.2349  0.2491  0.2066
  430MOL0     H58045   1.149   1.607  11.152 -1.0274  0.7884 -0.7761
  430MOL0     H58046   1.306   1.444  11.066 -0.2080  1.0503 -1.5159
  430MOL0     H58047   1.218   1.493  10.928 -0.7869  0.7269 -0.2646
  430MOL0     H58048   1.080   1.086  10.970 -3.2438  1.0226  2.9398
  430MOL0     H58049   0.717   1.326  11.180  2.9164  1.5528  1.0938
  430MOL0     H58050   0.475   1.297  11.196 -0.3804  1.1092 -0.7516
  431MOL0     O58051   1.652   7.645   9.532  0.0846  0.3616 -0.6908
  431MOL0     C58052   1.770   7.676   9.522  0.0957  0.6803 -0.3281
  431MOL0     O58053   1.821   7.806   9.530  0.3149  0.0951  0.8862
  431MOL0     C58054   1.748   7.922   9.548  0.3961 -0.0220 -0.5801
  431MOL0     C58055   1.606   7.930   9.559 -1.2288  0.2977  0.3800
  431MOL0     C58056   1.547   8.057   9.562  0.4672 -0.3782  0.1348
  431MOL0     C58057   1.628   8.174   9.564 -0.5344  0.1270 -0.0334
  431MOL0     O58058   1.569   8.300   9.554 -1.2487  0.9376 -0.7425
  431MOL0     C58059   1.489   8.353   9.656 -0.5497  0.3613 -0.3571
  431MOL0     C58060   1.425   8.482   9.614 -0.5814 -0.2059 -0.1855
  431MOL0     C58061   1.512   8.590   9.689 -0.3721 -0.1268  0.6370
  431MOL0     C58062   1.495   8.737   9.639 -1.0514 -0.5439 -0.1221
  431MOL0     C58063   1.351   8.785   9.643 -0.0275  0.1164 -0.3961
  431MOL0     C58064   1.261   8.753   9.765  0.0248  0.3441 -0.4606
  431MOL0     C58065   1.114   8.754   9.723 -0.7334 -0.1433  0.3637
  431MOL0     C58066   1.020   8.745   9.849  0.5087  0.3481  0.1880
  431MOL0     N58067   0.882   8.764   9.811 -0.6792 -0.1277  0.4893
  431MOL0     C58068   0.829   8.892   9.806 -0.3511  0.9031  0.5795
  431MOL0     C58069   0.706   8.870   9.763  1.2240 -0.4714 -0.6195
  431MOL0     C58070   0.604   8.980   9.720  0.4218  0.1373 -0.3629
  431MOL0     C58071   0.600   8.997   9.565  0.3589 -0.3729 -0.5325
  431MOL0     C58072   0.491   9.092   9.525  0.5153 -0.1359  0.3812
  431MOL0     C58073   0.480   9.216   9.609  0.5580  0.1713 -0.2548
  431MOL0     O58074   0.376   9.285   9.532  0.0623 -0.2655  1.2650
  431MOL0     C58075   0.402   9.411   9.496 -0.4480 -0.3966  0.4741
  431MOL0     C58076   0.304   9.509   9.519  0.2802  0.1367  0.0619
  431MOL0     C58077   0.335   9.646   9.509  0.6369  0.5386 -0.6737
  431MOL0     C58078   0.226   9.744   9.544 -0.1983 -0.6793 -1.0944
  431MOL0     C58079   0.464   9.692   9.456 -0.0278  0.5349  0.5800
  431MOL0     C58080   0.506   9.837   9.440  0.4447 -0.3720  0.2341
  431MOL0     O58081   0.566   9.883   9.328 -0.5882  0.5465 -0.6924
  431MOL0     C58082   0.558   9.812   9.206 -0.1829  0.7470 -0.4422
  431MOL0     C58083   0.450   9.805   9.125  0.4176  0.1626 -0.5403
  431MOL0     C58084   0.443   9.732   9.009  0.4305  0.6852  0.1666
  431MOL0     C58085   0.560   9.679   8.952  0.1429 -0.8270 -0.3265
  431MOL0     O58086   0.569   9.625   8.826  0.2009 -0.5456 -0.3125
  431MOL0     C58087   0.684   9.547   8.783 -0.2659  0.6195  0.7464
  431MOL0     C58088   0.673   9.488   8.638  0.1394  0.9719  0.1605
  431MOL0     C58089   0.789   9.403   8.603 -0.5467  0.0516  0.8815
  431MOL0     C58090   0.784   9.339   8.463  0.2502  0.0187  0.3072
  431MOL0     C58091   0.824   9.430   8.342  0.8453  0.7724  0.7154
  431MOL0     C58092   0.769   9.374   8.204  0.4980  0.0169 -1.0187
  431MOL0     C58093   0.805   9.466   8.091 -0.6055 -0.1358 -0.3663
  431MOL0     C58094   0.795   9.418   7.951 -0.8885  0.4609 -0.5401
  431MOL0    Cl58095   0.770   9.537   7.821 -0.2631 -0.4971 -0.0486
  431MOL0     C58096   0.676   9.682   9.032 -0.0848 -0.7001  0.6927
  431MOL0     C58097   0.674   9.751   9.159 -0.0475  0.3390  0.5649
  431MOL0     O58098   0.484   9.901   9.542  0.5870  0.3024 -0.0582
  431MOL0     C58099   0.555   9.588   9.421 -0.1762  0.5513 -0.3367
  431MOL0     C58100   0.521   9.450   9.427  0.6068  0.6156  0.3700
  431MOL0     N58101   0.696   8.736   9.738  0.5623 -0.4373  0.3104
  431MOL0     N58102   0.803   8.670   9.755  0.3330  0.6803 -0.3553
  431MOL0     C58103   1.768   8.162   9.559  0.9265 -0.8882  0.0824
  431MOL0     C58104   1.825   8.036   9.548  0.1501 -0.7836 -0.2486
  431MOL0     C58105   1.872   7.577   9.507 -0.4630  0.4527  0.0595
  431MOL0     C58106   1.855   7.441   9.543 -0.1978 -0.3738 -0.3357
  431MOL0     C58107   1.949   7.340   9.523 -0.2277  0.1066 -0.5153
  431MOL0     C58108   2.064   7.374   9.452 -0.9851  0.0600 -0.5066
  431MOL0     O58109   2.177   7.285   9.437  0.4438 -0.4193  0.1935
  431MOL0     C58110   2.166   7.213   9.314 -0.1025 -0.4492 -0.8306
  431MOL0     C58111   2.260   7.099   9.328  0.1817 -0.8047 -0.5472
  431MOL0     C58112   2.275   7.013   9.203 -0.9265  0.2657  0.0856
  431MOL0     C58113   2.162   6.920   9.165 -0.4382  1.4200  0.7930
  431MOL0     C58114   2.191   6.794   9.247  0.0297  0.1995  0.0359
  431MOL0     C58115   2.218   6.699   9.320  0.1801  0.1082  0.8381
  431MOL0     C58116   2.088   7.503   9.409 -0.5292 -0.1992 -0.4450
  431MOL0     C58117   1.991   7.607   9.436 -0.6164 -0.0816  1.0861
  431MOL0     H58118   1.543   7.842   9.562 -0.1773 -0.4622  0.8449
  431MOL0     H58119   1.439   8.057   9.572 -0.2275 -2.4924 -4.6527
  431MOL0     H58120   1.408   8.281   9.673 -0.2184  0.3231  1.2355
  431MOL0     H58121   1.542   8.369   9.751  1.4661  0.8481 -1.5036
  431MOL0     H58122   1.420   8.505   9.507 -0.9030 -1.2248 -0.3963
  431MOL0     H58123   1.323   8.484   9.654  0.2074  5.0212  2.3528
  431MOL0     H58124   1.498   8.574   9.797 -0.2624 -1.6742  0.4430
  431MOL0     H58125   1.613   8.567   9.654 -0.0528  1.0057  0.7602
  431MOL0     H58126   1.549   8.800   9.711  0.0304 -2.7168  1.0661
  431MOL0     H58127   1.539   8.734   9.539  1.8817 -2.4555  1.0688
  431MOL0     H58128   1.350   8.893   9.628 -1.8934  0.3390  1.0545
  431MOL0     H58129   1.296   8.743   9.558 -0.1759  0.5976 -0.5389
  431MOL0     H58130   1.281   8.653   9.804  2.3592  0.5347 -1.0113
  431MOL0     H58131   1.279   8.827   9.844 -1.0793 -0.3157  0.4396
  431MOL0     H58132   1.086   8.842   9.665  1.2431  0.6898  0.6104
  431MOL0     H58133   1.117   8.663   9.663  1.8288  0.8450 -1.1664
  431MOL0     H58134   1.052   8.815   9.926  2.3764 -0.5432  0.2720
  431MOL0     H58135   1.033   8.644   9.889 -3.9523 -0.8316 -0.7233
  431MOL0     H58136   0.882   8.986   9.823  0.5367  0.4881  0.1636
  431MOL0     H58137   0.500   8.953   9.740  0.0376  1.4205 -0.5476
  431MOL0     H58138   0.630   9.078   9.760 -0.8472  0.8579 -1.2298
  431MOL0     H58139   0.581   8.900   9.517  1.0338 -1.7044  1.7859
  431MOL0     H58140   0.695   9.032   9.524 -1.1782  1.0448 -3.1855
  431MOL0     H58141   0.399   9.032   9.534  1.1035 -1.0259  0.5426
  431MOL0     H58142   0.508   9.129   9.423 -1.3956  2.5079  0.9082
  431MOL0     H58143   0.575   9.268   9.625 -0.1522  0.8074  2.6684
  431MOL0     H58144   0.430   9.183   9.700 -0.9587  1.6714 -0.4831
  431MOL0     H58145   0.207   9.482   9.561  0.6733 -1.9124 -0.2418
  431MOL0     H58146   0.252   9.847   9.520  1.9743 -0.1890  2.5602
  431MOL0     H58147   0.129   9.712   9.506 -1.9000  1.4734  1.1654
  431MOL0     H58148   0.217   9.744   9.653  1.7558 -0.0726 -0.8791
  431MOL0     H58149   0.353   9.835   9.164 -0.1067 -0.8188 -1.0608
  431MOL0     H58150   0.355   9.727   8.945  0.2448  2.4192  0.2363
  431MOL0     H58151   0.772   9.611   8.774  2.2701 -2.9097 -2.3349
  431MOL0     H58152   0.715   9.475   8.859 -1.5217  2.2006  2.8927
  431MOL0     H58153   0.589   9.419   8.625  0.7236  0.6006 -2.0666
  431MOL0     H58154   0.663   9.575   8.572  1.6130  1.8399  1.0247
  431MOL0     H58155   0.798   9.323   8.677 -0.1252 -1.0155 -0.2853
  431MOL0     H58156   0.880   9.462   8.617  0.4519 -1.5030  1.2561
  431MOL0     H58157   0.850   9.252   8.465 -0.0881 -0.3397 -1.8352
  431MOL0     H58158   0.683   9.305   8.439  0.5307  0.5878 -1.8785
  431MOL0     H58159   0.933   9.436   8.328  0.5979 -0.1807 -2.2965
  431MOL0     H58160   0.795   9.533   8.364  0.4525  1.0060 -0.7873
  431MOL0     H58161   0.812   9.278   8.175 -0.1865 -0.5539 -0.1965
  431MOL0     H58162   0.660   9.368   8.217  0.7689  1.0023  3.1517
  431MOL0     H58163   0.906   9.504   8.106 -0.9370  0.3058  0.7946
  431MOL0     H58164   0.745   9.557   8.098 -0.1464  0.0443  2.0485
  431MOL0     H58165   0.707   9.353   7.949 -0.8302 -0.0392  3.7464
  431MOL0     H58166   0.887   9.365   7.927 -1.2364 -1.1685  1.4821
  431MOL0     H58167   0.775   9.641   9.012  0.2569  0.9631 -1.3749
  431MOL0     H58168   0.758   9.760   9.227  0.6745  1.1148 -0.3981
  431MOL0     H58169   0.655   9.613   9.387 -0.2530  0.2811 -0.7657
  431MOL0     H58170   0.598   9.375   9.409  2.5922  2.6587 -0.1502
  431MOL0     H58171   1.831   8.251   9.562 -1.3738  1.0669 -3.2087
  431MOL0     H58172   1.933   8.040   9.547  0.1330  1.3124  0.8036
  431MOL0     H58173   1.763   7.415   9.594 -0.8858 -0.0439 -1.3732
  431MOL0     H58174   1.944   7.238   9.560  0.0390 -0.1017 -1.0451
  431MOL0     H58175   2.062   7.182   9.300  0.3245 -2.2259 -0.2777
  431MOL0     H58176   2.197   7.262   9.222  0.7715 -0.8834 -0.7753
  431MOL0     H58177   2.216   7.053   9.417  0.5776 -0.6717 -0.2802
  431MOL0     H58178   2.357   7.142   9.352  0.1661 -0.9928 -0.1372
  431MOL0     H58179   2.366   6.953   9.195 -2.5938 -2.0994 -4.0591
  431MOL0     H58180   2.280   7.083   9.119  0.1403 -2.3669 -2.1946
  431MOL0     H58181   2.160   6.897   9.058  0.1416  1.5428  0.7545
  431MOL0     H58182   2.065   6.966   9.184 -0.5793  1.9902 -1.0743
  431MOL0     H58183   2.243   6.624   9.392  0.9807 -0.7367 -0.2872
  431MOL0     H58184   2.180   7.531   9.360  1.4379 -3.4189  1.0392
  431MOL0     H58185   2.020   7.706   9.401 -0.8765 -0.3924 -0.0484
  432MOL0     O58186   3.025  10.963   3.095 -0.1963 -0.5588  0.5181
  432MOL0     C58187   3.044  10.928   3.208  0.3550 -0.5529 -1.4934
  432MOL0     O58188   3.169  10.877   3.248 -0.1668  0.5502  0.5470
  432MOL0     C58189   3.275  10.915   3.172  0.2262 -0.1405  0.4305
  432MOL0     C58190   3.335  10.810   3.104 -0.9370  0.6571  0.8119
  432MOL0     C58191   3.451  10.834   3.022  0.1319 -0.8657 -0.4633
  432MOL0     C58192   3.509  10.961   3.020  0.4970  1.1461 -0.0270
  432MOL0     O58193   3.624  10.978   2.945 -0.2313 -0.4179 -0.3134
  432MOL0     C58194   3.632  11.107   2.880  0.1114 -0.1991  0.2814
  432MOL0     C58195   3.764  11.127   2.808  0.3928 -0.0402  1.4926
  432MOL0     C58196   3.878  11.153   2.913  0.8114  0.6000 -0.4590
  432MOL0     C58197   4.008  11.200   2.849 -0.5564 -0.4268  0.4117
  432MOL0     C58198   4.134  11.192   2.929 -0.4909  0.4371  0.6072
  432MOL0     C58199   4.257  11.250   2.847 -0.2177  0.4812  0.2281
  432MOL0     C58200   4.389  11.237   2.932  0.5287  0.4462  0.9223
  432MOL0     C58201   4.514  11.275   2.847 -0.3878  0.2768  0.2417
  432MOL0     N58202   4.633  11.273   2.939  0.8814  0.8067 -0.1266
  432MOL0     C58203   4.705  11.392   2.977  0.3884  0.6717 -0.2124
  432MOL0     C58204   4.837  11.352   2.992  0.1870 -0.2601 -0.2469
  432MOL0     C58205   4.960  11.432   3.023  0.8072  0.3892 -0.6489
  432MOL0     C58206   5.080  11.365   2.956 -0.3964  0.0982 -0.6667
  432MOL0     C58207   5.212  11.432   3.012  0.1892  0.8526  0.8817
  432MOL0     C58208   5.321  11.324   3.001  0.7356  0.0324 -0.3864
  432MOL0     O58209   5.359  11.320   2.860 -0.5787  0.6100 -0.5261
  432MOL0     C58210   5.405  11.195   2.828  0.7969  0.2741  0.2791
  432MOL0     C58211   5.329  11.082   2.818 -0.9654 -0.3085 -0.3147
  432MOL0     C58212   5.378  10.961   2.768  0.8705  0.1979 -0.3160
  432MOL0     C58213   5.273  10.858   2.756 -0.3701  0.2691  0.8894
  432MOL0     C58214   5.513  10.956   2.718  0.9451  0.4196 -0.0477
  432MOL0     C58215   5.578  10.842   2.649  0.0774 -0.2299 -0.1399
  432MOL0     O58216   5.700  10.864   2.595  0.7522 -0.3097 -0.7937
  432MOL0     C58217   5.713  10.831   2.464 -0.3182  1.0806  0.1862
  432MOL0     C58218   5.623  10.869   2.367  0.3836  0.0459  0.9236
  432MOL0     C58219   5.644  10.829   2.240  0.7659 -0.0394  0.4154
  432MOL0     C58220   5.770  10.775   2.197 -0.3074  0.5127 -0.8429
  432MOL0     O58221   5.796  10.734   2.072  0.7741 -0.4751  0.2322
  432MOL0     C58222   5.707  10.773   1.961  0.1354 -0.6678 -0.2268
  432MOL0     C58223   5.714  10.930   1.937  0.1873  0.3878 -0.1541
  432MOL0     C58224   5.841  10.987   1.870 -0.3877  0.5490 -0.2358
  432MOL0     C58225   5.830  11.123   1.802  0.1477  0.2968 -0.7599
  432MOL0     C58226   5.955  11.169   1.717 -0.3069  0.6055  0.0456
  432MOL0     C58227   5.943  11.142   1.574  0.3664 -1.1466  0.8093
  432MOL0     C58228   6.068  11.173   1.500 -0.2845 -0.2459  1.1830
  432MOL0     C58229   6.065  11.187   1.352  0.7475  0.0818 -0.2496
  432MOL0    Cl58230   6.034  11.011   1.308 -0.0360  0.3073 -0.6623
  432MOL0     C58231   5.869  10.754   2.294  0.3828 -0.1390  1.3857
  432MOL0     C58232   5.833  10.764   2.428  0.4973  0.2477  0.4024
  432MOL0     O58233   5.520  10.739   2.638 -0.2993 -0.1528 -0.0892
  432MOL0     C58234   5.595  11.073   2.736  0.6284 -0.5103  0.1407
  432MOL0     C58235   5.539  11.185   2.782  0.4946 -0.3863 -0.2584
  432MOL0     N58236   4.835  11.213   2.982  0.1960  0.1324  0.3310
  432MOL0     N58237   4.723  11.166   2.948  0.4282 -0.5804 -0.5306
  432MOL0     C58238   3.440  11.067   3.092 -0.0822  1.0533 -0.0678
  432MOL0     C58239   3.329  11.039   3.176  0.0231  0.2411 -0.1889
  432MOL0     C58240   2.924  10.946   3.296  0.3899  0.2445 -0.1071
  432MOL0     C58241   2.808  11.016   3.251  0.5479  0.3906  0.3747
  432MOL0     C58242   2.698  11.032   3.337 -0.3478  0.1642 -1.0427
  432MOL0     C58243   2.695  10.979   3.468  0.0616 -0.7419 -0.0520
  432MOL0     O58244   2.577  10.993   3.536  0.1206 -0.2979  0.5437
  432MOL0     C58245   2.586  10.962   3.673  0.4841  0.5869 -0.1528
  432MOL0     C58246   2.438  10.947   3.710 -0.3587  0.7832 -0.1176
  432MOL0     C58247   2.400  10.915   3.854  0.4718  0.1431  0.9786
  432MOL0     C58248   2.433  11.020   3.958  0.0224 -0.2540 -0.4187
  432MOL0     C58249   2.345  11.141   3.940  0.5610  0.0360  1.2556
  432MOL0     C58250   2.295  11.241   3.893 -0.0674 -0.6812 -0.1217
  432MOL0     C58251   2.803  10.891   3.499 -0.6021 -0.5464 -0.4556
  432MOL0     C58252   2.914  10.870   3.416  0.5973 -0.4977 -0.0709
  432MOL0     H58253   3.309  10.704   3.109  1.2143 -0.2345 -2.7197
  432MOL0     H58254   3.505  10.762   2.962 -3.4928 -1.9648 -2.6882
  432MOL0     H58255   3.548  11.113   2.811  0.3282 -2.1870 -0.2119
  432MOL0     H58256   3.632  11.188   2.953  0.0377 -0.6502  0.7885
  432MOL0     H58257   3.795  11.043   2.745  0.5250  1.5193 -0.6328
  432MOL0     H58258   3.753  11.214   2.742  2.3053  1.6187  3.2297
  432MOL0     H58259   3.852  11.235   2.981  0.7594  0.8563 -0.7880
  432MOL0     H58260   3.889  11.057   2.966 -2.2602  0.7378  0.6682
  432MOL0     H58261   4.022  11.137   2.760 -0.9350 -0.1895  0.1811
  432MOL0     H58262   3.991  11.302   2.813 -1.1794 -0.5334  0.3877
  432MOL0     H58263   4.128  11.241   3.026  4.4704 -2.5035  2.7970
  432MOL0     H58264   4.164  11.090   2.957  4.0233  2.1153  2.8694
  432MOL0     H58265   4.277  11.199   2.752  0.1932  0.5703  0.2661
  432MOL0     H58266   4.236  11.355   2.828  3.1417  1.9223  3.2055
  432MOL0     H58267   4.386  11.303   3.020  3.2136 -0.9285  2.1583
  432MOL0     H58268   4.395  11.139   2.980  2.7868 -0.1396 -0.4597
  432MOL0     H58269   4.504  11.367   2.788 -0.2205 -0.1121 -0.4090
  432MOL0     H58270   4.533  11.193   2.777  0.6142  0.4236  0.3259
  432MOL0     H58271   4.668  11.494   2.982  0.3992  0.6793 -0.2885
  432MOL0     H58272   4.958  11.536   2.988  2.8138  0.5351 -0.4598
  432MOL0     H58273   4.967  11.422   3.131  0.5779  1.3751 -0.5317
  432MOL0     H58274   5.092  11.391   2.851  3.9311  0.3232 -0.2857
  432MOL0     H58275   5.075  11.258   2.976 -3.8044  0.1972 -0.2453
  432MOL0     H58276   5.207  11.459   3.118 -2.3142  0.2700  0.9691
  432MOL0     H58277   5.238  11.526   2.962 -0.8796  2.7079  3.5751
  432MOL0     H58278   5.284  11.228   3.038  0.6757 -0.7258 -2.2953
  432MOL0     H58279   5.406  11.356   3.062  1.0836 -0.2145 -0.7380
  432MOL0     H58280   5.226  11.096   2.849 -0.8332  0.8304 -0.3506
  432MOL0     H58281   5.198  10.889   2.683  1.0950  1.9491  0.0079
  432MOL0     H58282   5.308  10.757   2.731  0.2584  1.4012 -3.5273
  432MOL0     H58283   5.234  10.849   2.858 -0.1329 -0.6001  0.9158
  432MOL0     H58284   5.539  10.934   2.393  0.6234  0.4467  0.7069
  432MOL0     H58285   5.567  10.861   2.171 -0.8448  0.0637  2.1701
  432MOL0     H58286   5.746  10.716   1.876  0.2935  0.1271 -0.7061
  432MOL0     H58287   5.608  10.741   1.994 -0.1186 -0.6875 -0.9948
  432MOL0     H58288   5.626  10.956   1.879  1.2543 -0.6816 -2.3520
  432MOL0     H58289   5.698  10.987   2.029  0.5234  0.0918  0.0952
  432MOL0     H58290   5.869  10.920   1.789 -1.3389  2.1889 -2.0304
  432MOL0     H58291   5.916  10.990   1.950  1.7769  0.9024 -2.1840
  432MOL0     H58292   5.743  11.131   1.736 -0.7604  0.7509  0.4570
  432MOL0     H58293   5.819  11.199   1.879  0.4128  1.3273 -1.6988
  432MOL0     H58294   6.046  11.126   1.761 -0.4162  1.2674  0.9510
  432MOL0     H58295   5.963  11.277   1.727  3.6707  0.5930 -1.2145
  432MOL0     H58296   5.906  11.043   1.546 -1.5090 -0.3640  0.3712
  432MOL0     H58297   5.868  11.213   1.537  0.3470 -1.3112  0.5291
  432MOL0     H58298   6.136  11.088   1.511 -2.4250 -2.3814 -1.0702
  432MOL0     H58299   6.112  11.264   1.543  0.2542 -1.1374  2.6174
  432MOL0     H58300   6.153  11.220   1.295  0.1798 -1.1482 -1.9060
  432MOL0     H58301   5.977  11.246   1.325  0.0134  0.8012  3.2094
  432MOL0     H58302   5.956  10.694   2.269 -0.0493 -1.1738  2.2997
  432MOL0     H58303   5.906  10.751   2.507 -1.7391  1.5570  2.8593
  432MOL0     H58304   5.695  11.075   2.694 -0.7486 -1.7326 -3.6969
  432MOL0     H58305   5.593  11.278   2.770  1.9134 -1.2810 -1.0971
  432MOL0     H58306   3.468  11.171   3.077  1.1072  0.7090 -0.3278
  432MOL0     H58307   3.282  11.116   3.235 -1.8397 -2.0831  1.5772
  432MOL0     H58308   2.797  11.060   3.153 -2.9183  2.3591  1.4722
  432MOL0     H58309   2.606  11.083   3.309  1.1067  2.6319 -1.5848
  432MOL0     H58310   2.639  10.868   3.693  0.3014  0.3790 -0.6361
  432MOL0     H58311   2.627  11.046   3.730  0.2987 -0.0189  0.8952
  432MOL0     H58312   2.389  10.865   3.657 -0.4052 -0.5396  1.8756
  432MOL0     H58313   2.387  11.039   3.679 -0.5933  0.7006  0.0158
  432MOL0     H58314   2.453  10.822   3.875  1.7506  0.5963 -0.1213
  432MOL0     H58315   2.293  10.901   3.871  0.2312  1.1420  0.3504
  432MOL0     H58316   2.540  11.042   3.949 -0.1707  1.1207  0.3632
  432MOL0     H58317   2.420  10.991   4.062  1.7240  0.4897  0.0499
  432MOL0     H58318   2.247  11.331   3.862 -1.2062 -0.7021  1.4185
  432MOL0     H58319   2.793  10.827   3.586  3.2948 -1.7262 -0.7132
  432MOL0     H58320   2.991  10.804   3.456  0.4977 -2.1087 -2.3259
  433MOL0     O58321   8.339  10.409   2.279 -0.0774  0.2597 -0.2247
  433MOL0     C58322   8.245  10.388   2.354 -0.5079 -0.5012 -0.1825
  433MOL0     O58323   8.125  10.450   2.343  0.1876  0.5515 -0.2412
  433MOL0     C58324   8.093  10.534   2.240 -0.0548 -0.5849 -0.2988
  433MOL0     C58325   8.095  10.497   2.101  0.4457  0.0385 -0.3516
  433MOL0     C58326   8.039  10.586   1.999 -0.8306 -0.4421 -0.0501
  433MOL0     C58327   7.967  10.703   2.043 -0.3363  0.4568 -0.0248
  433MOL0     O58328   7.898  10.784   1.962 -0.1367  0.1630  0.6420
  433MOL0     C58329   7.866  10.745   1.828  0.3080 -0.0273 -0.2714
  433MOL0     C58330   7.790  10.861   1.759  0.5115  0.0072 -0.1552
  433MOL0     C58331   7.875  10.992   1.746  0.4068  0.1144  0.3298
  433MOL0     C58332   8.010  10.966   1.671  0.1480 -0.2201  0.3876
  433MOL0     C58333   8.095  11.099   1.648  0.3583  0.7122  0.2440
  433MOL0     C58334   8.214  11.086   1.556  0.9620 -0.4853 -1.0817
  433MOL0     C58335   8.284  11.226   1.527 -0.4890  0.3115 -0.1747
  433MOL0     C58336   8.405  11.200   1.441 -0.6662 -1.5162  0.1509
  433MOL0     N58337   8.504  11.316   1.453  0.3968  0.3838 -0.2971
  433MOL0     C58338   8.497  11.432   1.388 -0.5312 -0.5929 -0.0376
  433MOL0     C58339   8.604  11.506   1.442  0.4620  0.6175 -0.6807
  433MOL0     C58340   8.664  11.632   1.399  0.5559  0.5452 -0.6076
  433MOL0     C58341   8.810  11.619   1.356 -0.3736  0.3557 -0.2122
  433MOL0     C58342   8.811  11.525   1.237 -0.7494  0.4690 -0.1912
  433MOL0     C58343   8.922  11.420   1.240 -0.4674  0.5526  0.2078
  433MOL0     O58344   9.037  11.483   1.187 -1.0189 -1.1570  0.3433
  433MOL0     C58345   9.163  11.447   1.203 -0.0893 -0.4592 -0.5624
  433MOL0     C58346   9.267  11.516   1.132 -0.3314 -0.5589 -0.1731
  433MOL0     C58347   9.395  11.467   1.129  0.9187 -0.3564 -1.1610
  433MOL0     C58348   9.505  11.551   1.058  0.5859  0.5606 -0.3916
  433MOL0     C58349   9.429  11.349   1.206 -1.1018  0.2471  1.0291
  433MOL0     C58350   9.570  11.304   1.225  0.3692  0.7063  1.5440
  433MOL0     O58351   9.597  11.240   1.345  0.1732  0.0081  0.3413
  433MOL0     C58352   9.726  11.222   1.384 -0.2669 -0.0176 -1.1501
  433MOL0     C58353   9.803  11.134   1.320  0.0854 -0.9525  0.9360
  433MOL0     C58354   9.937  11.115   1.361  0.1852  0.4357  0.6879
  433MOL0     C58355   9.992  11.190   1.463 -0.4917  0.0659  0.1331
  433MOL0     O58356  10.127  11.194   1.487 -0.5287  0.0948 -1.0035
  433MOL0     C58357  10.186  11.073   1.526  0.3921 -0.3403 -0.0167
  433MOL0     C58358  10.268  11.100   1.647  0.2650 -0.2366 -0.5288
  433MOL0     C58359  10.201  11.092   1.785 -0.4871  0.3864  0.1650
  433MOL0     C58360  10.200  10.954   1.848  0.0614 -0.3050  0.6155
  433MOL0     C58361  10.336  10.929   1.910  0.3098  0.0804  0.1510
  433MOL0     C58362  10.340  10.786   1.946  0.4176  1.0294  0.6880
  433MOL0     C58363  10.475  10.761   1.996  0.1227  0.3779  0.4324
  433MOL0     C58364  10.491  10.625   2.080  0.5474  0.0560 -0.0340
  433MOL0    Cl58365  10.401  10.662   2.233 -0.4302 -0.0504 -0.2337
  433MOL0     C58366   9.912  11.296   1.520  0.1656 -0.0224 -0.0947
  433MOL0     C58367   9.777  11.306   1.483  0.2891  0.7101  0.6814
  433MOL0     O58368   9.651  11.307   1.134  0.1181  0.3888  0.4464
  433MOL0     C58369   9.332  11.292   1.278 -0.3078  0.0784  0.1458
  433MOL0     C58370   9.205  11.337   1.276  0.2020  0.6275 -0.1113
  433MOL0     N58371   8.664  11.425   1.539  0.2155 -0.6070  0.0883
  433MOL0     N58372   8.606  11.311   1.542 -0.1767  0.1477 -0.2930
  433MOL0     C58373   7.975  10.737   2.185 -0.0786  0.5211  0.7603
  433MOL0     C58374   8.043  10.659   2.271 -0.3139 -0.1673 -0.5759
  433MOL0     C58375   8.281  10.323   2.478 -0.2224  0.0552  0.2838
  433MOL0     C58376   8.407  10.256   2.488  0.5454 -0.4803  0.8466
  433MOL0     C58377   8.425  10.174   2.600  0.2843  0.2108  0.9928
  433MOL0     C58378   8.328  10.164   2.706  0.3459  0.2952  0.1358
  433MOL0     O58379   8.335  10.077   2.809 -0.1877  0.0786 -0.4916
  433MOL0     C58380   8.441   9.975   2.805  0.1239 -0.3606 -0.3443
  433MOL0     C58381   8.435   9.866   2.914 -0.8023  0.5947 -0.0189
  433MOL0     C58382   8.543   9.762   2.888 -0.5286  0.1755 -0.0543
  433MOL0     C58383   8.682   9.814   2.934 -0.4174 -1.1670 -0.9445
  433MOL0     C58384   8.745   9.890   2.823 -1.1928 -1.7594 -0.2524
  433MOL0     C58385   8.811   9.931   2.728  0.3210 -0.7975 -0.2751
  433MOL0     C58386   8.222  10.251   2.704  0.1959 -0.0643 -0.0303
  433MOL0     C58387   8.199  10.325   2.589  1.0224 -0.2581  0.2674
  433MOL0     H58388   8.139  10.400   2.078 -0.6241  0.3004 -4.0265
  433MOL0     H58389   8.029  10.555   1.896  2.5643  1.1966 -1.0198
  433MOL0     H58390   7.952  10.709   1.771  3.2126  0.1928  3.5430
  433MOL0     H58391   7.795  10.663   1.839  0.1598 -0.0477 -1.3078
  433MOL0     H58392   7.764  10.823   1.660  1.7031 -0.2982 -0.3655
  433MOL0     H58393   7.707  10.897   1.822 -0.3621  1.3350 -1.9758
  433MOL0     H58394   7.813  11.069   1.699  0.6133  0.5270  0.7388
  433MOL0     H58395   7.894  11.023   1.849  1.8532 -3.9608  1.5174
  433MOL0     H58396   8.069  10.884   1.712 -0.7553 -0.9018  0.3669
  433MOL0     H58397   8.000  10.913   1.576 -1.2805 -0.3591  0.5966
  433MOL0     H58398   8.036  11.180   1.604  1.2782 -0.1794 -2.8796
  433MOL0     H58399   8.141  11.123   1.744  1.7180  0.7654 -0.3911
  433MOL0     H58400   8.280  11.016   1.607 -2.8950 -3.5810  0.1935
  433MOL0     H58401   8.186  11.032   1.465 -2.0439  1.9243 -1.7525
  433MOL0     H58402   8.212  11.284   1.468 -0.0728 -1.6972 -2.8496
  433MOL0     H58403   8.315  11.284   1.615  3.3780 -1.4341 -0.1832
  433MOL0     H58404   8.380  11.210   1.335  1.8458  2.3118 -0.2810
  433MOL0     H58405   8.457  11.105   1.457 -1.0966 -2.1424 -1.9131
  433MOL0     H58406   8.430  11.469   1.311 -1.2371  0.8682  1.2264
  433MOL0     H58407   8.604  11.660   1.312  0.1646  2.6856  0.2873
  433MOL0     H58408   8.660  11.705   1.480 -0.9685  1.7801 -1.7418
  433MOL0     H58409   8.858  11.575   1.443 -1.5688 -1.9840 -0.6502
  433MOL0     H58410   8.853  11.716   1.330 -0.4031 -0.1220 -2.2106
  433MOL0     H58411   8.807  11.580   1.143 -2.8039  3.6646  1.5906
  433MOL0     H58412   8.716  11.472   1.221  0.1139 -1.1767 -0.1288
  433MOL0     H58413   8.897  11.330   1.183 -2.6708  0.6073  0.9735
  433MOL0     H58414   8.931  11.390   1.345  0.1244  1.4582  0.4254
  433MOL0     H58415   9.231  11.599   1.072 -3.3621 -1.9956 -0.5732
  433MOL0     H58416   9.460  11.634   1.002  2.9095  0.7380 -2.1422
  433MOL0     H58417   9.583  11.577   1.129  0.8527  1.8482 -1.1276
  433MOL0     H58418   9.551  11.491   0.978 -1.7983 -0.2688 -1.2478
  433MOL0     H58419   9.773  11.072   1.236  3.5975 -1.1771 -0.3677
  433MOL0     H58420   9.992  11.035   1.312 -1.4526  0.3080 -1.0773
  433MOL0     H58421  10.106  11.000   1.544  0.0146  0.1191  0.2090
  433MOL0     H58422  10.244  11.034   1.442 -0.0160 -0.7692 -0.1017
  433MOL0     H58423  10.355  11.034   1.644  1.2627  1.0722 -2.9062
  433MOL0     H58424  10.312  11.200   1.635  2.5569 -1.3391 -2.0896
  433MOL0     H58425  10.098  11.129   1.774 -0.5507  0.3443  0.6188
  433MOL0     H58426  10.262  11.162   1.843 -3.0464  3.2426 -0.3248
  433MOL0     H58427  10.121  10.943   1.923 -1.0830 -2.2242 -0.7851
  433MOL0     H58428  10.179  10.878   1.772  0.9194  0.6162 -0.5713
  433MOL0     H58429  10.343  10.994   1.998  1.5356 -1.0864  0.9619
  433MOL0     H58430  10.415  10.960   1.842  1.0620 -1.5160  0.2499
  433MOL0     H58431  10.259  10.753   2.011 -0.0762 -1.6737 -1.1083
  433MOL0     H58432  10.340  10.717   1.860  4.1394  0.8273  0.6848
  433MOL0     H58433  10.507  10.842   2.061 -0.6594  2.1334 -1.2785
  433MOL0     H58434  10.535  10.761   1.904  1.2474  2.0102  1.1201
  433MOL0     H58435  10.598  10.616   2.100  0.8508  1.2383 -1.0211
  433MOL0     H58436  10.458  10.534   2.030 -2.7395  0.6868  0.7235
  433MOL0     H58437   9.959  11.369   1.585  2.5511 -1.6003  0.0474
  433MOL0     H58438   9.713  11.385   1.521 -1.5502  0.2908 -1.4186
  433MOL0     H58439   9.346  11.215   1.353 -3.5174 -0.9748 -0.1448
  433MOL0     H58440   9.132  11.284   1.336  0.4808 -2.4225 -2.2314
  433MOL0     H58441   7.928  10.833   2.205 -0.8999  0.2742  0.0699
  433MOL0     H58442   8.053  10.695   2.373 -2.2515 -0.1287 -0.3654
  433MOL0     H58443   8.480  10.267   2.409  0.3708  0.7960  0.8344
  433MOL0     H58444   8.513  10.111   2.603  0.3697  0.3206  0.7756
  433MOL0     H58445   8.441   9.922   2.710 -2.1408  1.1328 -1.2601
  433MOL0     H58446   8.537  10.024   2.787  0.2706 -1.6112 -3.4006
  433MOL0     H58447   8.343   9.808   2.907 -0.3528 -0.2804  1.0225
  433MOL0     H58448   8.435   9.898   3.019 -1.8724 -1.2139  0.5873
  433MOL0     H58449   8.547   9.738   2.781 -0.6223  1.7526 -0.4345
  433MOL0     H58450   8.515   9.678   2.952 -0.3582 -1.3726 -1.9006
  433MOL0     H58451   8.746   9.731   2.965  3.5622  1.9036 -0.0503
  433MOL0     H58452   8.669   9.878   3.022  2.6001 -0.1675 -1.1005
  433MOL0     H58453   8.864   9.964   2.641  0.9507  2.0218  1.0677
  433MOL0     H58454   8.159  10.251   2.792  0.6329 -3.5341  0.4229
  433MOL0     H58455   8.101  10.371   2.581  2.2309  2.3943 -0.5258
  434MOL0     O58456   0.944   3.936   7.167  0.2362  0.1786  0.1132
  434MOL0     C58457   1.054   3.888   7.138  0.1305  0.9133 -0.2068
  434MOL0     O58458   1.163   3.966   7.117 -0.0171  0.5885 -0.1434
  434MOL0     C58459   1.148   4.099   7.114  0.4777 -0.0259  0.3415
  434MOL0     C58460   1.079   4.168   7.011 -0.6477  0.0969 -0.0479
  434MOL0     C58461   1.073   4.305   7.012 -0.0355 -0.7128 -0.5979
  434MOL0     C58462   1.149   4.391   7.108  0.6488  0.9727  0.3732
  434MOL0     O58463   1.147   4.521   7.084 -0.0534  0.8622 -0.1241
  434MOL0     C58464   1.165   4.564   6.953 -0.2213  0.1051  0.2982
  434MOL0     C58465   1.217   4.706   6.966 -0.5955 -0.4729 -0.3459
  434MOL0     C58466   1.143   4.816   7.042  0.1280 -0.9122  0.3274
  434MOL0     C58467   0.992   4.816   7.004  0.4201  0.1243  0.2857
  434MOL0     C58468   0.948   4.852   6.857 -0.2030  0.1578 -0.2933
  434MOL0     C58469   0.983   4.994   6.826  0.2581 -0.0472  0.3549
  434MOL0     C58470   0.914   5.038   6.695 -0.4480  0.0152 -0.7378
  434MOL0     C58471   0.951   5.181   6.666 -0.0725  0.2031  0.5682
  434MOL0     N58472   0.887   5.229   6.540  0.0779 -0.4987  0.2408
  434MOL0     C58473   0.926   5.342   6.470  0.9981 -0.5451 -0.0673
  434MOL0     C58474   0.857   5.332   6.356  0.3923 -0.3723 -0.1867
  434MOL0     C58475   0.895   5.393   6.227 -0.4940  1.0521  0.7080
  434MOL0     C58476   0.923   5.541   6.229  0.3733  0.7209  0.1011
  434MOL0     C58477   0.970   5.585   6.097 -0.5129  0.6844 -0.7816
  434MOL0     C58478   1.006   5.732   6.098  0.8301  0.4631 -0.6455
  434MOL0     O58479   1.077   5.776   5.981  0.0814 -0.1952 -0.3937
  434MOL0     C58480   1.028   5.787   5.857 -0.4710 -0.5107  0.2291
  434MOL0     C58481   0.890   5.757   5.829  0.4744 -0.2214 -0.5268
  434MOL0     C58482   0.836   5.783   5.698  0.1983  0.5526 -1.3536
  434MOL0     C58483   0.680   5.760   5.670 -0.0786  0.4370 -0.4300
  434MOL0     C58484   0.916   5.843   5.595 -0.6712 -0.9266 -0.1636
  434MOL0     C58485   0.872   5.875   5.461 -0.9804 -1.1429 -0.3658
  434MOL0     O58486   0.782   5.802   5.407  0.6119 -0.2159  0.6168
  434MOL0     C58487   0.701   5.842   5.303  0.5401 -0.1432 -0.3510
  434MOL0     C58488   0.636   5.743   5.228  0.1428 -0.1191  0.4960
  434MOL0     C58489   0.541   5.777   5.134 -0.3821  0.3748 -0.3544
  434MOL0     C58490   0.520   5.918   5.099 -0.5352 -0.4966 -1.8807
  434MOL0     O58491   0.426   5.940   5.000 -0.4522  0.1898 -0.2727
  434MOL0     C58492   0.400   6.076   4.979  0.1242 -1.0907 -0.6948
  434MOL0     C58493   0.329   6.092   4.845 -0.2186 -0.5396 -0.4965
  434MOL0     C58494   0.186   6.087   4.862  0.6811 -1.5925  0.3822
  434MOL0     C58495   0.127   6.219   4.921 -0.2897 -0.7409 -0.3303
  434MOL0     C58496  -0.025   6.231   4.933  0.5903 -0.4310 -0.6870
  434MOL0     C58497  -0.071   6.372   4.958  0.4523 -0.4446  1.5038
  434MOL0     C58498  -0.222   6.375   4.992 -0.7635 -0.9313  0.2310
  434MOL0     C58499  -0.326   6.304   4.900  0.1972 -0.2850 -0.7761
  434MOL0    Cl58500  -0.479   6.398   4.899 -0.0316  0.6147 -0.2161
  434MOL0     C58501   0.587   6.019   5.181  1.0697  0.3741  0.0024
  434MOL0     C58502   0.670   5.975   5.285  0.8256 -0.0783  0.0553
  434MOL0     O58503   0.926   5.967   5.401 -0.1255 -0.0881 -0.1001
  434MOL0     C58504   1.056   5.864   5.625  0.7054 -0.1108 -0.6529
  434MOL0     C58505   1.111   5.833   5.750 -0.5327 -0.9510 -0.0379
  434MOL0     N58506   0.775   5.214   6.369 -0.9627  0.3818  0.7325
  434MOL0     N58507   0.789   5.171   6.480  0.6489  0.0512  0.7599
  434MOL0     C58508   1.215   4.325   7.209  0.0724 -0.5106 -0.1861
  434MOL0     C58509   1.207   4.188   7.216 -0.0327  2.0504  0.7031
  434MOL0     C58510   1.069   3.749   7.109  0.3733  0.2810 -0.9592
  434MOL0     C58511   0.966   3.657   7.156 -0.4711  0.1036  0.0829
  434MOL0     C58512   1.002   3.521   7.158  0.5461 -0.2071  0.6917
  434MOL0     C58513   1.122   3.482   7.103 -0.4043  1.1782 -0.2798
  434MOL0     O58514   1.140   3.343   7.097 -0.9388 -0.1291 -0.0889
  434MOL0     C58515   1.160   3.276   7.219  0.3283 -0.0315  0.3388
  434MOL0     C58516   1.305   3.279   7.248  0.5136 -0.2628  0.3557
  434MOL0     C58517   1.397   3.230   7.134 -0.2875 -1.0091  0.9212
  434MOL0     C58518   1.459   3.099   7.166  0.3615 -0.3469 -1.1234
  434MOL0     C58519   1.518   3.014   7.068 -0.4603 -0.6963  0.3515
  434MOL0     C58520   1.575   2.942   6.988 -0.4232  0.0308 -0.4848
  434MOL0     C58521   1.210   3.568   7.036 -0.4057  0.8862  0.2458
  434MOL0     C58522   1.186   3.704   7.051 -0.2207  0.4617 -0.9943
  434MOL0     H58523   1.032   4.106   6.936 -0.5472  0.9222 -0.8112
  434MOL0     H58524   1.050   4.338   6.911  1.8001 -1.9636 -1.4847
  434MOL0     H58525   1.235   4.501   6.897  0.2571  1.8603 -1.1710
  434MOL0     H58526   1.073   4.569   6.894  0.1260  0.5728 -0.2107
  434MOL0     H58527   1.320   4.696   7.004 -1.0176 -3.0363  0.3592
  434MOL0     H58528   1.225   4.760   6.872 -3.0778  1.6811  0.5637
  434MOL0     H58529   1.153   4.797   7.149 -0.0503 -1.1776  0.2968
  434MOL0     H58530   1.180   4.915   7.014 -3.8010  0.0719 -2.2196
  434MOL0     H58531   0.947   4.722   7.036 -0.3362  0.4994  0.3599
  434MOL0     H58532   0.949   4.896   7.065 -0.8359 -0.1723 -0.1824
  434MOL0     H58533   0.971   4.782   6.776 -1.3795 -1.7942  0.9752
  434MOL0     H58534   0.839   4.860   6.863 -0.1833  0.2677 -0.0903
  434MOL0     H58535   0.941   5.059   6.904  0.6754  0.9056 -0.1878
  434MOL0     H58536   1.092   5.005   6.825  0.1809  1.0941  1.6413
  434MOL0     H58537   0.956   4.980   6.613  0.3199 -0.2599 -0.1545
  434MOL0     H58538   0.805   5.034   6.707 -0.5095  0.3365 -1.1644
  434MOL0     H58539   1.056   5.208   6.661 -0.0883 -0.0197 -1.9781
  434MOL0     H58540   0.901   5.242   6.742  1.5278 -0.6613  2.4038
  434MOL0     H58541   1.004   5.415   6.492  1.5877 -0.9017 -0.9293
  434MOL0     H58542   0.985   5.342   6.193 -0.9110  1.0924 -0.4849
  434MOL0     H58543   0.815   5.379   6.153  0.8192 -0.5080 -0.5108
  434MOL0     H58544   1.004   5.569   6.297  0.0471  0.2243  0.7117
  434MOL0     H58545   0.836   5.607   6.241 -1.0552 -1.2271  1.1831
  434MOL0     H58546   0.891   5.556   6.027 -0.7241 -2.4899  0.6168
  434MOL0     H58547   1.060   5.526   6.077 -2.0647 -1.9709 -0.4618
  434MOL0     H58548   1.058   5.760   6.190  0.6363  0.3475 -0.5004
  434MOL0     H58549   0.915   5.789   6.121 -1.4831 -3.5270  1.0734
  434MOL0     H58550   0.823   5.726   5.908  1.4489 -1.1925 -0.0418
  434MOL0     H58551   0.624   5.847   5.634 -0.8379  1.2910  2.5286
  434MOL0     H58552   0.673   5.688   5.587 -1.1751 -3.4044  2.6911
  434MOL0     H58553   0.622   5.714   5.750  0.4420 -1.3367 -1.0244
  434MOL0     H58554   0.671   5.643   5.250  2.5686  0.7713  1.0524
  434MOL0     H58555   0.486   5.705   5.074  0.6555 -0.5478 -0.2365
  434MOL0     H58556   0.339   6.119   5.059 -1.7099  1.5191 -3.2835
  434MOL0     H58557   0.492   6.134   4.974 -0.4711  0.3358  2.5705
  434MOL0     H58558   0.366   6.180   4.791  0.3849 -0.2124  0.4273
  434MOL0     H58559   0.333   5.997   4.792 -0.2773 -0.2141 -1.0959
  434MOL0     H58560   0.164   6.011   4.937  1.3096 -1.5011  0.6631
  434MOL0     H58561   0.140   6.061   4.766  2.1745 -5.6277  0.5644
  434MOL0     H58562   0.155   6.219   5.027  0.6091 -0.7155 -0.5538
  434MOL0     H58563   0.170   6.304   4.867  0.1704 -0.6948  0.0960
  434MOL0     H58564  -0.059   6.180   5.024 -0.7981  2.2155  0.4088
  434MOL0     H58565  -0.067   6.183   4.845  1.2111 -0.7221 -0.8272
  434MOL0     H58566  -0.003   6.419   5.030  1.7253 -1.2766  0.8754
  434MOL0     H58567  -0.059   6.433   4.868 -2.3664  1.0494  2.0412
  434MOL0     H58568  -0.248   6.481   4.992 -0.2497 -0.7703  1.6562
  434MOL0     H58569  -0.238   6.345   5.096 -2.2435  0.2051  0.3590
  434MOL0     H58570  -0.353   6.206   4.941 -0.3939  0.0299 -0.3886
  434MOL0     H58571  -0.285   6.286   4.800  2.4276  0.5628 -0.0663
  434MOL0     H58572   0.575   6.126   5.163 -1.4686  0.1772  0.2788
  434MOL0     H58573   0.704   6.059   5.345 -3.6746  3.3459 -1.5851
  434MOL0     H58574   1.123   5.906   5.551  0.2959 -2.7192 -2.6461
  434MOL0     H58575   1.212   5.857   5.782 -0.7548 -0.0299 -0.0077
  434MOL0     H58576   1.270   4.385   7.281 -2.5869  3.3575 -1.0922
  434MOL0     H58577   1.261   4.133   7.294  0.2768 -0.8192 -1.3751
  434MOL0     H58578   0.868   3.684   7.193  0.0435  0.3581  1.2948
  434MOL0     H58579   0.931   3.447   7.192 -0.1330 -0.5362 -1.2952
  434MOL0     H58580   1.103   3.332   7.294  0.6218  0.8136 -0.0662
  434MOL0     H58581   1.120   3.178   7.190 -0.8873  0.8227 -1.0323
  434MOL0     H58582   1.318   3.230   7.345  2.9066 -0.6675 -0.1140
  434MOL0     H58583   1.321   3.385   7.268  1.6162 -0.3585  0.0234
  434MOL0     H58584   1.470   3.308   7.112 -2.1185  0.2693 -1.0446
  434MOL0     H58585   1.347   3.202   7.041 -1.2896 -0.1099  1.1723
  434MOL0     H58586   1.375   3.045   7.211  0.4965 -1.4114 -2.1186
  434MOL0     H58587   1.528   3.097   7.251  0.0978 -1.3663 -0.9259
  434MOL0     H58588   1.613   2.877   6.912 -2.8628 -1.3538 -0.6212
  434MOL0     H58589   1.298   3.530   6.985  0.0259  1.8017  0.2781
  434MOL0     H58590   1.265   3.768   7.014 -0.4251 -0.4280 -3.1211
  435MOL0     O58591   7.248   5.875   8.104  0.3324 -0.0676 -0.1645
  435MOL0     C58592   7.187   5.807   8.021  0.2299  0.4698  0.0968
  435MOL0     O58593   7.047   5.782   8.030  0.3003  0.2014 -0.3609
  435MOL0     C58594   6.978   5.809   8.147 -0.4672 -0.6408 -0.2790
  435MOL0     C58595   6.986   5.916   8.228 -0.0884 -0.5368  0.0889
  435MOL0     C58596   6.902   5.942   8.337 -0.0189  0.6276 -0.1915
  435MOL0     C58597   6.806   5.848   8.355 -0.6672  0.9561 -0.4067
  435MOL0     O58598   6.716   5.888   8.452  0.7698 -0.3403  0.4982
  435MOL0     C58599   6.626   5.795   8.514 -0.2209  0.5922  0.2641
  435MOL0     C58600   6.484   5.821   8.447 -0.7608 -0.6660 -0.2370
  435MOL0     C58601   6.370   5.765   8.530  0.2769  0.5071 -0.0042
  435MOL0     C58602   6.261   5.867   8.571  0.2319 -0.0772  0.8708
  435MOL0     C58603   6.333   5.966   8.676  0.0311  0.0037  0.2756
  435MOL0     C58604   6.242   6.060   8.761  0.5429  0.5641 -0.2307
  435MOL0     C58605   6.154   6.157   8.668  0.3247 -0.1550  0.0092
  435MOL0     C58606   6.236   6.275   8.614 -0.5562 -0.4311  0.5291
  435MOL0     N58607   6.151   6.383   8.561  0.1205  0.1083 -0.4139
  435MOL0     C58608   6.122   6.386   8.423  0.1073 -0.1822  0.0224
  435MOL0     C58609   6.000   6.443   8.410 -0.5442 -0.2295 -0.6578
  435MOL0     C58610   5.918   6.448   8.284  0.7182  0.0283 -0.2227
  435MOL0     C58611   5.918   6.577   8.209  0.1073 -0.0966 -0.8067
  435MOL0     C58612   5.854   6.691   8.281 -0.7643 -0.2648 -1.0328
  435MOL0     C58613   5.700   6.698   8.307 -0.2383 -0.5354  0.1288
  435MOL0     O58614   5.654   6.834   8.330  0.3842 -0.1050  0.7511
  435MOL0     C58615   5.639   6.870   8.457  0.7989  0.0977 -0.9406
  435MOL0     C58616   5.668   6.786   8.566 -0.3475  0.3716 -0.2831
  435MOL0     C58617   5.636   6.819   8.695  0.8196 -0.3568  0.0280
  435MOL0     C58618   5.677   6.723   8.808  0.1509 -0.3501  0.1266
  435MOL0     C58619   5.567   6.944   8.725 -0.8300 -0.0607 -0.7052
  435MOL0     C58620   5.527   6.995   8.866 -0.5309 -0.3395  0.3506
  435MOL0     O58621   5.481   7.121   8.884  0.1358 -0.7574  0.1899
  435MOL0     C58622   5.479   7.168   9.013  0.1571 -0.0926 -0.2797
  435MOL0     C58623   5.586   7.182   9.105 -1.4200 -0.6002  0.2110
  435MOL0     C58624   5.575   7.247   9.222  0.1193 -0.2665  0.1479
  435MOL0     C58625   5.446   7.280   9.267  0.0222  0.1285 -0.8181
  435MOL0     O58626   5.427   7.362   9.378 -0.4066  0.3542 -0.3704
  435MOL0     C58627   5.348   7.484   9.371  0.0717 -0.5736 -0.5395
  435MOL0     C58628   5.358   7.563   9.505  0.7321 -0.4980  0.2820
  435MOL0     C58629   5.276   7.701   9.509  0.3540  0.1207 -0.4418
  435MOL0     C58630   5.253   7.743   9.664 -0.4877  0.1570 -0.4329
  435MOL0     C58631   5.383   7.780   9.729  0.0099  0.1038  0.6111
  435MOL0     C58632   5.370   7.852   9.862  0.1158 -0.8349  0.1620
  435MOL0     C58633   5.286   7.977   9.856 -0.2237  0.1941  0.5985
  435MOL0     C58634   5.312   8.073   9.976  0.0127  0.6171  0.6461
  435MOL0    Cl58635   5.173   8.167  10.016  0.0942 -0.2572 -0.4256
  435MOL0     C58636   5.337   7.258   9.186  0.6223  0.0127 -0.1780
  435MOL0     C58637   5.354   7.197   9.066  0.4812  0.8515 -0.0758
  435MOL0     O58638   5.535   6.916   8.954  0.0062 -0.0216  0.8809
  435MOL0     C58639   5.540   7.031   8.620 -0.0237 -0.5289 -0.5791
  435MOL0     C58640   5.568   6.995   8.479 -0.2191  0.4244 -0.1137
  435MOL0     N58641   5.965   6.486   8.534 -0.2826  0.2918  0.3901
  435MOL0     N58642   6.058   6.455   8.625  0.6327  0.2638  0.2205
  435MOL0     C58643   6.793   5.728   8.280  0.5783 -0.1347  0.9148
  435MOL0     C58644   6.878   5.711   8.170 -0.0081 -0.0497 -0.9766
  435MOL0     C58645   7.254   5.746   7.908 -0.0193 -0.8039  0.0762
  435MOL0     C58646   7.203   5.636   7.851  0.5431 -0.4297  0.6935
  435MOL0     C58647   7.277   5.572   7.748 -0.3989 -0.1631 -0.8696
  435MOL0     C58648   7.396   5.618   7.704 -0.7431  0.9354 -0.0056
  435MOL0     O58649   7.480   5.550   7.618  0.0259  0.2485  0.3259
  435MOL0     C58650   7.424   5.439   7.554 -0.0077 -0.2383  0.2675
  435MOL0     C58651   7.540   5.379   7.467 -0.3052  0.1710 -0.6172
  435MOL0     C58652   7.495   5.245   7.419 -0.5974  0.4039  0.4010
  435MOL0     C58653   7.613   5.168   7.350  0.0817  0.8049 -0.2836
  435MOL0     C58654   7.702   5.099   7.442  1.4427 -0.1550 -0.4105
  435MOL0     C58655   7.763   5.032   7.527  0.6340 -0.4468  0.5086
  435MOL0     C58656   7.438   5.743   7.755 -0.5076  1.0194  0.1238
  435MOL0     C58657   7.378   5.801   7.859  0.2793 -0.7863  0.5300
  435MOL0     H58658   7.061   5.989   8.196 -1.1228 -0.6754 -2.9446
  435MOL0     H58659   6.906   6.036   8.391  1.1013  1.4547 -1.6118
  435MOL0     H58660   6.655   5.690   8.505  1.4725  1.2054 -2.3497
  435MOL0     H58661   6.621   5.831   8.618  2.8855  0.9820  0.3680
  435MOL0     H58662   6.468   5.922   8.409  1.0209 -0.2368  0.0714
  435MOL0     H58663   6.479   5.756   8.359 -2.8147 -1.3340  0.3237
  435MOL0     H58664   6.317   5.691   8.470 -1.6155  0.0100  2.1601
  435MOL0     H58665   6.403   5.709   8.618 -4.2406 -0.9678  0.9808
  435MOL0     H58666   6.246   5.932   8.484  1.7054 -0.9204 -0.0446
  435MOL0     H58667   6.167   5.826   8.608 -2.2997  2.4348 -2.1843
  435MOL0     H58668   6.383   5.897   8.744 -3.7243 -1.7036  1.5639
  435MOL0     H58669   6.412   6.028   8.633  1.5960 -0.6395  2.1035
  435MOL0     H58670   6.165   6.004   8.816 -0.9633  2.2902 -0.5100
  435MOL0     H58671   6.293   6.122   8.836 -2.4169 -0.1911  2.6602
  435MOL0     H58672   6.120   6.108   8.576  3.5798 -0.4256 -1.1644
  435MOL0     H58673   6.072   6.204   8.723 -1.3482 -2.5299 -0.2765
  435MOL0     H58674   6.306   6.255   8.532 -0.3181  1.3803  0.2499
  435MOL0     H58675   6.298   6.316   8.695  3.9444 -2.3246 -1.6212
  435MOL0     H58676   6.172   6.348   8.334 -1.6406 -3.4355  0.2977
  435MOL0     H58677   5.961   6.371   8.219  2.7809  2.1553 -1.5164
  435MOL0     H58678   5.813   6.422   8.300  0.8277  1.4539  4.2002
  435MOL0     H58679   5.865   6.570   8.114  0.7363  0.6718 -1.2329
  435MOL0     H58680   6.026   6.594   8.196  0.5900  0.1257  2.5230
  435MOL0     H58681   5.881   6.777   8.220 -1.9570  2.6840  2.2486
  435MOL0     H58682   5.902   6.706   8.378  0.6274  2.1379 -2.0082
  435MOL0     H58683   5.664   6.620   8.375 -0.8062 -0.9324 -0.5999
  435MOL0     H58684   5.648   6.669   8.215  2.2825 -3.7957 -0.4873
  435MOL0     H58685   5.736   6.703   8.548  1.1217  1.5345 -0.2531
  435MOL0     H58686   5.604   6.715   8.889 -0.1532 -0.3986 -0.1507
  435MOL0     H58687   5.705   6.622   8.776  0.4145 -0.7832  1.6386
  435MOL0     H58688   5.772   6.754   8.851  0.8506 -2.4832  0.2504
  435MOL0     H58689   5.686   7.150   9.077 -0.8133 -0.4740  2.1217
  435MOL0     H58690   5.652   7.288   9.288 -0.4600  3.8039 -1.3978
  435MOL0     H58691   5.385   7.554   9.296 -3.0676 -0.8027 -2.4808
  435MOL0     H58692   5.242   7.467   9.349  0.0839  1.0146 -2.0184
  435MOL0     H58693   5.329   7.503   9.591 -3.4568  1.3301  0.3921
  435MOL0     H58694   5.465   7.572   9.520  0.5540 -2.4859  3.9188
  435MOL0     H58695   5.176   7.687   9.467 -0.7569 -3.4536  2.8634
  435MOL0     H58696   5.325   7.783   9.454 -0.7990  0.9206 -0.3221
  435MOL0     H58697   5.189   7.831   9.678  0.8535  0.9928  0.7308
  435MOL0     H58698   5.203   7.659   9.713 -1.8126  1.0448 -0.2063
  435MOL0     H58699   5.449   7.846   9.671  1.4151  0.3232  2.3804
  435MOL0     H58700   5.430   7.684   9.748  2.1335  0.3819 -2.4872
  435MOL0     H58701   5.341   7.783   9.942  1.3465 -1.0373  0.4458
  435MOL0     H58702   5.469   7.878   9.899 -0.7980  0.2637  1.9633
  435MOL0     H58703   5.185   7.936   9.856  0.3457 -1.3838 -1.1982
  435MOL0     H58704   5.298   8.028   9.760 -0.6772  0.6949  0.8072
  435MOL0     H58705   5.392   8.140   9.943  0.5748 -1.2157 -2.0378
  435MOL0     H58706   5.362   8.024  10.060 -0.9547  2.5398  2.4420
  435MOL0     H58707   5.236   7.281   9.217 -0.0522 -1.7855 -0.8920
  435MOL0     H58708   5.262   7.182   9.012 -0.2932  0.0644  1.4106
  435MOL0     H58709   5.504   7.132   8.641 -1.2348 -0.1616 -3.9210
  435MOL0     H58710   5.549   7.069   8.402  0.7097  0.9459  0.1476
  435MOL0     H58711   6.706   5.666   8.300  0.1984  1.1593  3.8092
  435MOL0     H58712   6.869   5.619   8.112  2.5524 -2.8219  2.6141
  435MOL0     H58713   7.108   5.594   7.882  0.7154 -1.2650  0.1345
  435MOL0     H58714   7.222   5.482   7.720 -0.1549 -0.1295 -1.4734
  435MOL0     H58715   7.392   5.372   7.635 -2.4607  1.0413  0.4425
  435MOL0     H58716   7.340   5.454   7.485  1.1431  0.4590 -1.0289
  435MOL0     H58717   7.634   5.366   7.520 -0.1319  1.4495 -0.5685
  435MOL0     H58718   7.570   5.451   7.390 -0.6499  1.0449  0.0487
  435MOL0     H58719   7.415   5.269   7.348  0.6943  1.9319 -0.6158
  435MOL0     H58720   7.457   5.180   7.498  0.3748  0.2647  0.7748
  435MOL0     H58721   7.673   5.237   7.290  0.7137  1.3145  0.9051
  435MOL0     H58722   7.560   5.102   7.281 -1.7938  1.9966 -0.0705
  435MOL0     H58723   7.809   4.988   7.613 -0.4388  3.8945  3.7162
  435MOL0     H58724   7.529   5.783   7.712  1.2877 -1.1683  1.6271
  435MOL0     H58725   7.397   5.903   7.893 -0.4534  0.0810 -1.4728
  436MOL0     O58726  10.044   8.235   1.897 -1.1019  0.3163  0.5686
  436MOL0     C58727  10.067   8.119   1.939  0.3201 -0.6007 -1.0972
  436MOL0     O58728  10.045   8.065   2.067 -0.2661  0.1266 -0.3156
  436MOL0     C58729   9.990   8.153   2.151  0.5977  0.2088 -0.1050
  436MOL0     C58730  10.065   8.239   2.239  0.8577  0.7377  0.3419
  436MOL0     C58731  10.002   8.327   2.321 -0.2082  0.1826 -0.7682
  436MOL0     C58732   9.865   8.346   2.334  0.0927 -0.1306  0.1643
  436MOL0     O58733   9.808   8.439   2.426 -0.4273  0.3902 -0.1559
  436MOL0     C58734   9.847   8.565   2.448  0.3166 -1.2031  1.2954
  436MOL0     C58735   9.735   8.648   2.383  0.0461  0.8034  0.3011
  436MOL0     C58736   9.715   8.786   2.462 -0.5150  1.1589  0.5490
  436MOL0     C58737   9.645   8.760   2.590  0.2584 -0.9122 -0.1415
  436MOL0     C58738   9.636   8.886   2.671 -0.5333 -0.0924 -0.3806
  436MOL0     C58739   9.527   8.986   2.608 -0.1143  0.6510  0.7321
  436MOL0     C58740   9.469   9.081   2.713  0.3104 -0.4979 -0.7123
  436MOL0     C58741   9.582   9.159   2.789  0.0080  0.2037  0.6208
  436MOL0     N58742   9.675   9.227   2.697  0.0095  0.6503  0.5037
  436MOL0     C58743   9.638   9.332   2.623 -0.3472 -0.6587 -0.4322
  436MOL0     C58744   9.749   9.377   2.562  0.4305  0.2414 -0.5904
  436MOL0     C58745   9.752   9.475   2.457  0.1476 -1.1584 -0.1546
  436MOL0     C58746   9.840   9.463   2.331 -0.2676 -0.6908  0.6730
  436MOL0     C58747   9.807   9.336   2.252  0.1270 -0.3735  1.5234
  436MOL0     C58748   9.900   9.326   2.122  0.4213 -0.7312  0.0229
  436MOL0     O58749  10.025   9.279   2.157 -0.3711 -0.1444 -0.6108
  436MOL0     C58750  10.055   9.141   2.147 -0.2363 -0.1108  0.0265
  436MOL0     C58751  10.192   9.109   2.148  0.5442 -0.5306 -0.4692
  436MOL0     C58752  10.245   8.982   2.136  0.3345  0.1137 -0.5119
  436MOL0     C58753  10.397   8.971   2.118  0.4507  1.2021  0.3731
  436MOL0     C58754  10.159   8.874   2.138  0.2594 -0.6255 -0.9761
  436MOL0     C58755  10.205   8.732   2.136 -0.3896  0.6568  0.3057
  436MOL0     O58756  10.330   8.704   2.102  0.1500  0.6346 -0.4558
  436MOL0     C58757  10.368   8.576   2.117  1.2663  0.8772  0.2974
  436MOL0     C58758  10.332   8.467   2.033 -0.1232 -1.2861  1.1381
  436MOL0     C58759  10.389   8.342   2.047 -0.5319  0.4679 -0.4151
  436MOL0     C58760  10.475   8.315   2.154 -0.7345  0.4106 -0.4410
  436MOL0     O58761  10.523   8.187   2.150 -0.2879  0.0921 -0.3816
  436MOL0     C58762  10.585   8.120   2.264 -0.0111 -1.1337  0.0336
  436MOL0     C58763  10.487   8.017   2.312  0.2131  0.1649 -0.3108
  436MOL0     C58764  10.538   7.953   2.444 -0.9938 -0.4918  0.1389
  436MOL0     C58765  10.469   7.817   2.459  0.6989  0.8135  0.7188
  436MOL0     C58766  10.529   7.759   2.591  0.6068  0.2111  0.2282
  436MOL0     C58767  10.494   7.606   2.605 -0.1706 -0.8452 -0.1469
  436MOL0     C58768  10.345   7.575   2.610  0.1917 -0.7800  0.3864
  436MOL0     C58769  10.309   7.460   2.695 -0.2180  1.0915  0.6315
  436MOL0    Cl58770  10.425   7.318   2.636  0.0325  0.1306 -0.0746
  436MOL0     C58771  10.512   8.419   2.240  1.0881 -0.5135 -0.1457
  436MOL0     C58772  10.451   8.549   2.221 -0.8666  0.0936  0.3661
  436MOL0     O58773  10.113   8.657   2.152  0.0152  0.4354 -0.3012
  436MOL0     C58774  10.018   8.907   2.145 -0.6025  0.3057  0.8612
  436MOL0     C58775   9.970   9.038   2.153  0.7155 -0.0021  0.9025
  436MOL0     N58776   9.855   9.305   2.624 -0.6135 -0.3368  0.9493
  436MOL0     N58777   9.814   9.210   2.693 -0.5966 -0.2862  0.1370
  436MOL0     C58778   9.785   8.269   2.247  0.2778 -0.8183  0.9726
  436MOL0     C58779   9.848   8.172   2.162 -0.3845 -0.4868 -0.3406
  436MOL0     C58780  10.132   8.018   1.850  0.5318  0.0146  0.0752
  436MOL0     C58781  10.194   7.911   1.912  0.5787 -0.7341  0.0153
  436MOL0     C58782  10.224   7.804   1.837  0.3424 -0.3876  0.5688
  436MOL0     C58783  10.212   7.803   1.692  0.4252  0.0694  1.5096
  436MOL0     O58784  10.247   7.688   1.619 -0.1291 -0.7442 -0.1717
  436MOL0     C58785  10.325   7.706   1.499  0.1173  0.0506 -0.0907
  436MOL0     C58786  10.470   7.754   1.531  0.1979  0.0144  0.2985
  436MOL0     C58787  10.571   7.647   1.486  0.4582 -0.2822 -0.6877
  436MOL0     C58788  10.582   7.530   1.583 -0.3293 -0.4767 -0.3327
  436MOL0     C58789  10.632   7.408   1.521  0.0186 -0.9517 -0.0449
  436MOL0     C58790  10.693   7.308   1.479  0.4397 -1.2917  0.3974
  436MOL0     C58791  10.165   7.920   1.632 -0.3776  0.2650 -0.2590
  436MOL0     C58792  10.135   8.034   1.706 -0.6130  0.1075 -0.2996
  436MOL0     H58793  10.174   8.231   2.236  0.9822  2.1226  0.7218
  436MOL0     H58794  10.060   8.400   2.376  2.5038 -0.7995 -2.1725
  436MOL0     H58795   9.855   8.594   2.553  1.9899 -1.9463  1.4163
  436MOL0     H58796   9.943   8.599   2.407  0.0489 -0.4100  1.3082
  436MOL0     H58797   9.750   8.670   2.277 -0.4136  0.4829  0.1647
  436MOL0     H58798   9.638   8.597   2.388  0.8254 -0.6296  1.4336
  436MOL0     H58799   9.815   8.822   2.491 -1.2754  0.8601  3.9356
  436MOL0     H58800   9.650   8.860   2.415 -1.3405  0.7242  1.0004
  436MOL0     H58801   9.553   8.702   2.579  0.3830 -1.2107  0.3137
  436MOL0     H58802   9.706   8.701   2.659  1.3295  0.8947  0.5287
  436MOL0     H58803   9.603   8.848   2.768  2.4761  0.0764  0.8215
  436MOL0     H58804   9.733   8.935   2.684 -0.9580  0.6172  0.2361
  436MOL0     H58805   9.581   9.041   2.530 -0.6766 -0.3568 -0.4097
  436MOL0     H58806   9.454   8.914   2.570  1.4983 -2.1974  2.6479
  436MOL0     H58807   9.415   9.155   2.652 -0.2153 -1.5375 -1.5433
  436MOL0     H58808   9.402   9.046   2.792 -3.3952  2.7661 -2.0300
  436MOL0     H58809   9.640   9.092   2.853  1.7354  0.7092 -0.3602
  436MOL0     H58810   9.535   9.232   2.855 -2.3001 -1.4432  0.9553
  436MOL0     H58811   9.534   9.363   2.617 -0.3117 -0.1281  1.2823
  436MOL0     H58812   9.650   9.503   2.431  1.0981  0.3845 -2.5230
  436MOL0     H58813   9.805   9.563   2.495  0.8043  0.3996 -4.1524
  436MOL0     H58814   9.948   9.473   2.349 -0.4689  3.1846  0.4275
  436MOL0     H58815   9.824   9.544   2.260  2.0623  0.3393  1.2415
  436MOL0     H58816   9.703   9.336   2.218  0.7435  0.1546 -0.4455
  436MOL0     H58817   9.820   9.249   2.317  1.2655 -0.8057  0.7513
  436MOL0     H58818   9.910   9.429   2.084  0.7447 -0.7597  0.0227
  436MOL0     H58819   9.855   9.270   2.041  0.8011 -2.3585  0.8923
  436MOL0     H58820  10.257   9.196   2.153 -3.2968  2.5790  2.4576
  436MOL0     H58821  10.446   8.921   2.202 -3.8300  0.2358  2.5810
  436MOL0     H58822  10.424   8.926   2.023 -1.7330 -3.3967  1.6578
  436MOL0     H58823  10.440   9.072   2.113  0.6650  1.1208  0.5713
  436MOL0     H58824  10.258   8.467   1.954  0.3721 -3.9635  0.5548
  436MOL0     H58825  10.347   8.260   1.990 -1.0868 -0.0176  0.6696
  436MOL0     H58826  10.681   8.076   2.236  0.9326  1.0082 -0.2412
  436MOL0     H58827  10.611   8.189   2.345  2.0308 -1.6883 -0.0963
  436MOL0     H58828  10.391   8.061   2.340  0.9196  0.9879  0.9111
  436MOL0     H58829  10.472   7.945   2.231  0.5205 -1.5053  1.0606
  436MOL0     H58830  10.517   8.018   2.530 -3.8284  0.1942 -0.9581
  436MOL0     H58831  10.646   7.956   2.431 -1.2127  2.6926 -2.1727
  436MOL0     H58832  10.364   7.832   2.483  1.1872  0.5191  3.2506
  436MOL0     H58833  10.494   7.748   2.378  2.3614  2.0476  0.1118
  436MOL0     H58834  10.487   7.809   2.679 -0.0098  2.4074 -1.2464
  436MOL0     H58835  10.639   7.767   2.590  0.9467 -2.5961  2.2024
  436MOL0     H58836  10.546   7.560   2.520  1.0670 -1.3714  0.8554
  436MOL0     H58837  10.554   7.570   2.689 -2.2226 -0.0737  1.7409
  436MOL0     H58838  10.310   7.563   2.507  0.1640 -0.4781  0.3608
  436MOL0     H58839  10.290   7.664   2.641 -2.4859 -1.4875 -1.8959
  436MOL0     H58840  10.200   7.453   2.692 -0.4967  1.9224  4.1441
  436MOL0     H58841  10.337   7.478   2.799 -0.8404 -0.8503  1.1751
  436MOL0     H58842  10.589   8.404   2.314  0.8907 -0.4200  0.0797
  436MOL0     H58843  10.484   8.633   2.281  1.4127 -1.4867  1.5061
  436MOL0     H58844   9.943   8.829   2.156 -0.1685  0.0295  1.9939
  436MOL0     H58845   9.864   9.065   2.151  0.3436 -1.0883  2.9932
  436MOL0     H58846   9.677   8.271   2.251  0.1234 -3.3880 -0.4076
  436MOL0     H58847   9.780   8.110   2.105  1.4312 -1.9715 -1.0010
  436MOL0     H58848  10.222   7.916   2.017  1.3567  2.0385 -0.2500
  436MOL0     H58849  10.267   7.721   1.891 -1.8673 -1.5997  0.6041
  436MOL0     H58850  10.327   7.613   1.443 -0.6038  0.4560 -0.8103
  436MOL0     H58851  10.277   7.786   1.441  1.6283 -0.4602 -2.1310
  436MOL0     H58852  10.475   7.779   1.638 -1.2332  1.4615  0.0661
  436MOL0     H58853  10.506   7.843   1.479 -0.9719  0.7684  0.7550
  436MOL0     H58854  10.671   7.686   1.466  0.4016  1.2863  1.7343
  436MOL0     H58855  10.536   7.613   1.388  0.6178  3.1287 -2.0707
  436MOL0     H58856  10.487   7.507   1.633  0.0448 -1.5153 -0.0783
  436MOL0     H58857  10.653   7.558   1.662  0.5647 -0.4513 -1.1318
  436MOL0     H58858  10.722   7.213   1.439 -1.2554 -2.8609  2.7016
  436MOL0     H58859  10.163   7.934   1.524  4.0212 -0.7320 -0.6490
  436MOL0     H58860  10.116   8.132   1.662 -0.6431  0.0166 -0.4855
  437MOL0     O58861   0.630   4.292   0.110 -0.0625  0.2534 -0.4430
  437MOL0     C58862   0.707   4.382   0.125 -0.7601  0.6851  0.2356
  437MOL0     O58863   0.749   4.437   0.242  0.2312  0.0339 -0.8310
  437MOL0     C58864   0.693   4.406   0.373 -0.0767 -1.1211 -0.5398
  437MOL0     C58865   0.587   4.322   0.409 -0.7743 -0.6308 -0.2141
  437MOL0     C58866   0.537   4.327   0.535  0.1510  0.1242 -0.0839
  437MOL0     C58867   0.574   4.408   0.638  0.0883 -0.3348 -0.7243
  437MOL0     O58868   0.530   4.409   0.770  0.2746  0.1637 -0.5429
  437MOL0     C58869   0.539   4.269   0.825  0.5282 -0.3493 -0.5652
  437MOL0     C58870   0.461   4.270   0.960  0.5621  0.4195  0.4674
  437MOL0     C58871   0.519   4.351   1.076  0.7100  0.2084  0.5377
  437MOL0     C58872   0.459   4.313   1.208 -0.7867 -0.5263  0.0370
  437MOL0     C58873   0.516   4.391   1.328  0.5246  0.2903 -0.1681
  437MOL0     C58874   0.413   4.374   1.441 -0.0990  0.1270  0.4563
  437MOL0     C58875   0.302   4.482   1.426  0.7800 -0.3982 -0.5963
  437MOL0     C58876   0.207   4.486   1.541  0.6988 -0.7924  0.5343
  437MOL0     N58877   0.274   4.540   1.658  0.5521 -0.5448 -0.1718
  437MOL0     C58878   0.334   4.665   1.674 -0.3517 -0.6592  0.0765
  437MOL0     C58879   0.393   4.653   1.795  0.2541 -1.3231 -0.2962
  437MOL0     C58880   0.456   4.761   1.873 -0.2474  0.2979 -0.7979
  437MOL0     C58881   0.553   4.713   1.982 -0.4685 -0.3819  0.5093
  437MOL0     C58882   0.613   4.848   2.043  0.0274 -0.1169 -0.8338
  437MOL0     C58883   0.746   4.885   1.982 -0.9155  0.3082 -0.6810
  437MOL0     O58884   0.745   4.873   1.839 -0.0964  0.2311  0.0884
  437MOL0     C58885   0.864   4.909   1.777  0.6049  0.3291  0.0901
  437MOL0     C58886   0.987   4.939   1.835 -0.6578  0.1397  0.7211
  437MOL0     C58887   1.087   5.002   1.767 -0.7756  0.6981  0.5053
  437MOL0     C58888   1.222   5.038   1.838  0.0267  0.1025 -0.2638
  437MOL0     C58889   1.073   5.024   1.629 -0.1840 -0.8517 -0.6617
  437MOL0     C58890   1.171   5.090   1.533  0.5446  0.0109  0.3773
  437MOL0     O58891   1.139   5.106   1.401 -0.1676  0.0939 -0.8712
  437MOL0     C58892   1.221   5.162   1.311  0.3595  1.6731 -0.3220
  437MOL0     C58893   1.169   5.220   1.202 -0.6066  0.3561  0.3877
  437MOL0     C58894   1.250   5.272   1.097  0.9362  2.2301 -0.3500
  437MOL0     C58895   1.384   5.259   1.101  0.5489  0.3368  0.3428
  437MOL0     O58896   1.465   5.287   0.999 -0.0615 -2.0515  0.4228
  437MOL0     C58897   1.576   5.206   0.962 -0.2395  0.3560  1.2096
  437MOL0     C58898   1.630   5.266   0.826  0.6357  0.1858 -0.2776
  437MOL0     C58899   1.671   5.403   0.841 -0.4008 -0.3325 -0.0962
  437MOL0     C58900   1.724   5.454   0.702  0.8458  0.0473 -0.1463
  437MOL0     C58901   1.867   5.409   0.659 -0.2258  0.3429 -0.0572
  437MOL0     C58902   1.935   5.487   0.551 -0.3513  0.6140  0.4724
  437MOL0     C58903   1.879   5.458   0.406 -0.4877  0.6100  0.4901
  437MOL0     C58904   1.955   5.533   0.296 -0.3254 -0.1102  1.1690
  437MOL0    Cl58905   2.059   5.675   0.356  0.2015  0.1779  0.1393
  437MOL0     C58906   1.443   5.188   1.210  0.1257  0.2092  0.0586
  437MOL0     C58907   1.361   5.131   1.307  0.2990 -0.5782  0.4571
  437MOL0     O58908   1.272   5.142   1.578  0.3062  1.1562  0.1348
  437MOL0     C58909   0.959   4.991   1.570 -0.6325 -0.4905 -0.9084
  437MOL0     C58910   0.853   4.931   1.643 -0.6466 -0.6477  0.6415
  437MOL0     N58911   0.363   4.527   1.856  0.4882 -0.7718 -0.4217
  437MOL0     N58912   0.295   4.463   1.767 -0.3239  1.1347 -0.2627
  437MOL0     C58913   0.679   4.495   0.605  0.2654 -0.1988  0.9697
  437MOL0     C58914   0.743   4.489   0.480 -0.2685  1.1031 -0.6447
  437MOL0     C58915   0.784   4.439   0.007 -0.2561 -0.3700  0.0256
  437MOL0     C58916   0.809   4.375  -0.118 -0.6794  0.0758 -0.0917
  437MOL0     C58917   0.896   4.423  -0.215  0.5802 -0.5849 -0.1503
  437MOL0     C58918   0.944   4.556  -0.194  0.6127  0.3318 -0.5377
  437MOL0     O58919   1.024   4.623  -0.288 -0.4039  0.3345  0.1858
  437MOL0     C58920   0.980   4.631  -0.423 -0.4465 -0.2118  0.1040
  437MOL0     C58921   0.884   4.748  -0.460 -0.2809  0.3434 -0.2535
  437MOL0     C58922   0.946   4.886  -0.500 -1.7132 -0.0300 -0.9944
  437MOL0     C58923   0.944   4.918  -0.643  0.2958 -0.4601 -0.0474
  437MOL0     C58924   1.029   4.832  -0.727 -0.4479 -0.2246 -0.6747
  437MOL0     C58925   1.109   4.767  -0.783 -0.0171 -0.6683 -0.2911
  437MOL0     C58926   0.924   4.628  -0.072 -0.5012  1.0045 -0.2274
  437MOL0     C58927   0.851   4.566   0.026  0.5221 -0.1450 -0.4720
  437MOL0     H58928   0.558   4.245   0.337  0.1141 -0.6972 -0.5129
  437MOL0     H58929   0.454   4.259   0.555 -0.4060  0.3278 -1.5694
  437MOL0     H58930   0.502   4.188   0.762 -0.2870 -0.6031  0.2253
  437MOL0     H58931   0.644   4.245   0.843  0.7125  1.9522  2.0116
  437MOL0     H58932   0.361   4.309   0.937  0.7741  0.6884 -0.0138
  437MOL0     H58933   0.445   4.168   0.997  0.4426  1.5969  4.1388
  437MOL0     H58934   0.626   4.333   1.081  0.6524  0.0819  1.5151
  437MOL0     H58935   0.514   4.457   1.048  2.7990 -0.0149 -0.8611
  437MOL0     H58936   0.353   4.335   1.201 -0.5825  1.5588  2.1011
  437MOL0     H58937   0.489   4.208   1.223  5.4025  0.7516 -0.7938
  437MOL0     H58938   0.611   4.350   1.366  1.3577  0.5190 -1.9034
  437MOL0     H58939   0.530   4.495   1.298 -3.4020  0.6202 -1.3805
  437MOL0     H58940   0.375   4.271   1.441 -2.5245  0.9446  0.2305
  437MOL0     H58941   0.451   4.396   1.541  0.4109 -0.7720  0.4683
  437MOL0     H58942   0.339   4.583   1.408 -3.3481  1.3485 -0.4084
  437MOL0     H58943   0.241   4.452   1.340 -0.0654 -1.2127  0.2571
  437MOL0     H58944   0.175   4.385   1.568  1.4674 -1.6314 -1.5065
  437MOL0     H58945   0.131   4.557   1.510  3.6422  2.0680 -0.6681
  437MOL0     H58946   0.335   4.743   1.598 -1.3501 -1.3659 -0.6765
  437MOL0     H58947   0.506   4.840   1.817  1.6820  0.1975  0.6664
  437MOL0     H58948   0.367   4.808   1.916  0.3884  0.4956  0.3269
  437MOL0     H58949   0.630   4.649   1.936  1.2609  3.0083 -1.6867
  437MOL0     H58950   0.495   4.656   2.055  1.7860  2.0864  4.5775
  437MOL0     H58951   0.634   4.837   2.150 -0.8931  0.2467 -0.6009
  437MOL0     H58952   0.543   4.931   2.026  1.6526  0.8479 -3.4202
  437MOL0     H58953   0.817   4.812   2.022 -3.1126 -1.6080 -0.0534
  437MOL0     H58954   0.771   4.988   2.012 -1.1382  0.2406 -0.2512
  437MOL0     H58955   1.001   4.921   1.942  2.9416 -0.3916  0.2685
  437MOL0     H58956   1.235   4.978   1.928  3.1069  0.4339 -0.3776
  437MOL0     H58957   1.303   4.998   1.777  0.3648 -2.7392  1.8178
  437MOL0     H58958   1.239   5.144   1.857  1.0530 -0.2892  1.1600
  437MOL0     H58959   1.062   5.230   1.192 -0.5388  4.4159  1.8111
  437MOL0     H58960   1.215   5.320   1.006 -0.0929 -0.4687 -1.4919
  437MOL0     H58961   1.649   5.183   1.041  0.0226 -3.3577  0.0870
  437MOL0     H58962   1.539   5.108   0.932  0.2016  0.8817 -1.2184
  437MOL0     H58963   1.712   5.199   0.802 -3.1765 -4.6410 -1.3274
  437MOL0     H58964   1.556   5.261   0.746 -0.6572 -0.0544  0.8819
  437MOL0     H58965   1.746   5.416   0.919  0.1043  1.3216 -0.8154
  437MOL0     H58966   1.581   5.457   0.874 -2.4000 -1.1514 -3.7311
  437MOL0     H58967   1.668   5.415   0.617 -0.2292 -0.7463  0.9001
  437MOL0     H58968   1.724   5.563   0.708  1.3176  0.0549 -0.1885
  437MOL0     H58969   1.864   5.303   0.630  3.0339 -0.7544  2.9048
  437MOL0     H58970   1.937   5.416   0.742  1.9734  0.0778 -1.7777
  437MOL0     H58971   1.924   5.594   0.568 -2.7541  0.7251 -1.2718
  437MOL0     H58972   2.038   5.452   0.542  0.5886  2.7961  1.9802
  437MOL0     H58973   1.771   5.475   0.395 -0.2880  0.1875 -3.3456
  437MOL0     H58974   1.889   5.351   0.390 -1.3663  0.4066  1.2181
  437MOL0     H58975   1.883   5.575   0.226  0.6487  1.9107  1.3280
  437MOL0     H58976   2.020   5.461   0.245  1.4998  0.0345  3.1182
  437MOL0     H58977   1.544   5.147   1.215 -0.4231 -1.2408 -0.0109
  437MOL0     H58978   1.390   5.058   1.382 -2.5541 -1.6650  0.6280
  437MOL0     H58979   0.936   5.004   1.464 -0.3139  2.2851 -0.7048
  437MOL0     H58980   0.759   4.918   1.590  1.4703 -1.0840 -3.4006
  437MOL0     H58981   0.722   4.562   0.679  1.0390  0.6675 -0.2234
  437MOL0     H58982   0.808   4.568   0.444  0.9097 -0.7527 -2.8265
  437MOL0     H58983   0.763   4.281  -0.147 -0.6724  0.4933 -1.5234
  437MOL0     H58984   0.918   4.363  -0.303  1.2362 -2.8528  1.4869
  437MOL0     H58985   1.065   4.629  -0.491 -0.4966  0.3731  0.0230
  437MOL0     H58986   0.926   4.538  -0.444 -2.9435  0.8256  1.4932
  437MOL0     H58987   0.829   4.771  -0.368 -0.5450 -2.5235  0.3799
  437MOL0     H58988   0.803   4.720  -0.528 -0.1624  0.2466 -0.3560
  437MOL0     H58989   1.050   4.884  -0.466 -1.4784 -3.0629 -1.6021
  437MOL0     H58990   0.895   4.970  -0.451  0.7383  0.3248  1.1704
  437MOL0     H58991   0.968   5.023  -0.658  0.2651 -0.4306  0.1107
  437MOL0     H58992   0.839   4.908  -0.675 -0.1922 -0.1052  1.3888
  437MOL0     H58993   1.182   4.716  -0.842 -1.6605 -2.9628 -0.4896
  437MOL0     H58994   0.968   4.726  -0.056 -1.3699  1.1721  1.3761
  437MOL0     H58995   0.841   4.619   0.120 -1.1639 -1.8496  0.3925
  438MOL0     O58996  10.543   1.571   9.824 -0.0679 -0.5776  0.1745
  438MOL0     C58997  10.483   1.505   9.910 -0.3816 -0.7522  0.0417
  438MOL0     O58998  10.497   1.509  10.044  0.1826 -0.3460  0.7258
  438MOL0     C58999  10.600   1.589  10.080  0.0840 -0.1271 -0.0823
  438MOL0     C59000  10.726   1.537  10.107  0.1255 -0.1441 -0.4556
  438MOL0     C59001  10.820   1.605  10.188  0.0106  0.5651  0.4306
  438MOL0     C59002  10.797   1.736  10.232  0.2804 -0.3393  0.1165
  438MOL0     O59003  10.892   1.795  10.317 -0.3552 -0.1341  0.7377
  438MOL0     C59004  10.877   1.929  10.365 -0.0059  0.1328  0.4300
  438MOL0     C59005  10.934   2.025  10.268 -0.1533 -0.1394  0.2878
  438MOL0     C59006  10.943   2.167  10.327  0.2369  0.2704 -0.4831
  438MOL0     C59007  10.945   2.266  10.212  0.7199  0.4931 -0.6890
  438MOL0     C59008  10.941   2.416  10.263  0.2257  0.1081  0.1251
  438MOL0     C59009  10.815   2.443  10.354  0.7363 -0.0805  0.4976
  438MOL0     C59010  10.823   2.580  10.416 -0.4699  0.5355 -0.7948
  438MOL0     C59011  10.848   2.694  10.310 -0.9721 -0.3077  0.4351
  438MOL0     N59012  10.829   2.818  10.384 -0.0736 -0.0588  0.6692
  438MOL0     C59013  10.724   2.905  10.368  0.4447 -0.5962 -0.1525
  438MOL0     C59014  10.765   3.013  10.448 -0.6225  0.7423  0.3122
  438MOL0     C59015  10.696   3.145  10.417 -0.7171  0.3941 -0.6490
  438MOL0     C59016  10.801   3.256  10.427 -0.1263  0.3188  0.8714
  438MOL0     C59017  10.757   3.401  10.399  0.0460 -0.2278  0.9139
  438MOL0     C59018  10.861   3.498  10.428 -0.7029 -0.0126 -0.1208
  438MOL0     O59019  10.940   3.544  10.308  0.8024  0.5703 -0.0315
  438MOL0     C59020  11.069   3.581  10.325 -0.4351 -0.7624  0.0722
  438MOL0     C59021  11.150   3.609  10.437 -0.0135 -1.0568  0.0584
  438MOL0     C59022  11.281   3.657  10.431  0.3314 -0.4843  0.2853
  438MOL0     C59023  11.359   3.666  10.561  0.2260  0.4049 -0.0388
  438MOL0     C59024  11.349   3.664  10.307  0.6979 -0.5814  0.2216
  438MOL0     C59025  11.487   3.718  10.283 -0.0293 -0.1689  0.0733
  438MOL0     O59026  11.534   3.748  10.157 -0.1751  0.0974  0.4933
  438MOL0     C59027  11.652   3.818  10.159 -0.6355  0.1587 -0.0692
  438MOL0     C59028  11.662   3.957  10.156 -0.2169  0.7769 -0.2662
  438MOL0     C59029  11.781   4.016  10.121 -0.7912 -0.1765 -0.0146
  438MOL0     C59030  11.899   3.941  10.109  0.2479  0.5141 -0.2461
  438MOL0     O59031  12.013   4.012  10.088 -0.8204  0.2778  0.1120
  438MOL0     C59032  12.045   3.991   9.944  0.1537 -0.6693  1.0366
  438MOL0     C59033  12.176   4.067   9.918  0.1099 -0.7997  0.4630
  438MOL0     C59034  12.286   3.964   9.959 -0.3453  0.2401  0.9386
  438MOL0     C59035  12.425   4.029   9.987 -0.0008 -0.3765 -0.5157
  438MOL0     C59036  12.419   4.151  10.088 -0.4454  0.4728  0.3894
  438MOL0     C59037  12.552   4.189  10.159 -1.0377 -0.7284  0.4022
  438MOL0     C59038  12.548   4.324  10.232  0.6290  0.6128  0.2732
  438MOL0     C59039  12.690   4.360  10.260  0.0781  0.3104  0.1695
  438MOL0    Cl59040  12.738   4.255  10.395 -0.2294 -0.1513 -0.1539
  438MOL0     C59041  11.895   3.800  10.126  0.0528 -0.0482  0.2120
  438MOL0     C59042  11.768   3.740  10.150  0.5871 -0.6230  0.9781
  438MOL0     O59043  11.544   3.752  10.384 -0.2921  0.3322 -0.0841
  438MOL0     C59044  11.272   3.623  10.193  0.4219 -0.6867 -0.5577
  438MOL0     C59045  11.137   3.593  10.200  0.5553 -1.2597  0.1726
  438MOL0     N59046  10.887   2.979  10.511  0.3209 -0.1765  0.5021
  438MOL0     N59047  10.919   2.869  10.468 -0.3511  0.1413  0.6312
  438MOL0     C59048  10.676   1.792  10.186  0.2429  0.2464 -0.0566
  438MOL0     C59049  10.580   1.718  10.132 -0.2677  0.8365 -0.1308
  438MOL0     C59050  10.371   1.421   9.864  1.7916 -0.4492  0.0088
  438MOL0     C59051  10.319   1.452   9.740 -0.4680  0.4820  0.1951
  438MOL0     C59052  10.217   1.366   9.691 -0.0996  0.0386  0.6154
  438MOL0     C59053  10.165   1.248   9.761 -0.0879  0.2532 -0.1044
  438MOL0     O59054  10.085   1.165   9.690  0.2969 -0.1293 -0.1051
  438MOL0     C59055  10.033   1.033   9.734 -1.1516 -0.4766  0.7107
  438MOL0     C59056   9.911   1.006   9.661 -0.7588  0.2190  0.0808
  438MOL0     C59057   9.858   0.875   9.707 -0.0699 -0.3205 -0.2966
  438MOL0     C59058   9.941   0.760   9.638 -0.4228  0.0187 -0.1618
  438MOL0     C59059   9.895   0.632   9.701  0.0948 -0.6740  0.3612
  438MOL0     C59060   9.866   0.535   9.761 -0.0402 -0.0563 -0.4403
  438MOL0     C59061  10.222   1.229   9.891  1.3117  0.1992  0.7687
  438MOL0     C59062  10.318   1.320   9.943 -0.0971 -0.1512  0.7398
  438MOL0     H59063  10.765   1.440  10.078 -1.1288 -1.2712  1.4452
  438MOL0     H59064  10.915   1.562  10.217  1.4479  1.0680 -3.1113
  438MOL0     H59065  10.774   1.953  10.393 -0.0345  0.9184 -0.3403
  438MOL0     H59066  10.937   1.925  10.457  0.4582 -0.6766  0.0999
  438MOL0     H59067  11.024   1.983  10.224 -3.0547 -1.1060 -5.7634
  438MOL0     H59068  10.862   2.027  10.186  0.5089 -1.7061 -0.3731
  438MOL0     H59069  10.855   2.176  10.392 -0.3307 -1.5574 -0.9321
  438MOL0     H59070  11.029   2.171  10.394  1.0109  3.9396 -1.5153
  438MOL0     H59071  11.039   2.249  10.160  0.9383 -0.7266  0.0743
  438MOL0     H59072  10.858   2.247  10.148 -0.4741  0.8740  0.7745
  438MOL0     H59073  11.028   2.438  10.325  0.2889  0.6747 -0.1568
  438MOL0     H59074  10.941   2.481  10.174  0.8809 -0.0493  0.0072
  438MOL0     H59075  10.717   2.425  10.308  1.5969 -2.8215 -0.4278
  438MOL0     H59076  10.826   2.379  10.442  3.4387  2.8481  2.5225
  438MOL0     H59077  10.739   2.593  10.485  1.2584  1.5835  1.2322
  438MOL0     H59078  10.903   2.569  10.490 -1.4997  1.1646  0.4634
  438MOL0     H59079  10.793   2.687  10.216  2.4472 -2.4765 -1.6214
  438MOL0     H59080  10.953   2.693  10.280 -1.3048 -0.6841 -0.7786
  438MOL0     H59081  10.638   2.903  10.302  0.2591 -2.9643  0.0628
  438MOL0     H59082  10.665   3.143  10.312 -1.5447 -2.0819 -0.4147
  438MOL0     H59083  10.610   3.159  10.483  1.2845  0.4790  2.1145
  438MOL0     H59084  10.882   3.237  10.356  0.8147  3.7584  0.8484
  438MOL0     H59085  10.842   3.266  10.528 -1.0452  3.4434  1.0232
  438MOL0     H59086  10.679   3.433  10.468 -0.2367  1.4696 -0.1515
  438MOL0     H59087  10.717   3.429  10.301 -1.7113  3.3750  2.4847
  438MOL0     H59088  10.932   3.466  10.505 -2.6693  3.8720  3.7814
  438MOL0     H59089  10.806   3.585  10.466 -2.2276 -0.9451 -0.1147
  438MOL0     H59090  11.100   3.588  10.531  0.6286  4.2058  1.9228
  438MOL0     H59091  11.449   3.605  10.550 -0.1739 -0.7511  2.3797
  438MOL0     H59092  11.378   3.769  10.592 -0.1650 -0.2858  2.7977
  438MOL0     H59093  11.303   3.618  10.642 -0.1417  1.3945  0.3159
  438MOL0     H59094  11.573   4.005  10.197 -0.3145  0.1991  0.2188
  438MOL0     H59095  11.782   4.124  10.123 -1.5219 -0.1033  4.2232
  438MOL0     H59096  12.055   3.891   9.902  1.6057  0.4173 -1.4524
  438MOL0     H59097  11.965   4.048   9.896  1.9787  0.7781 -0.4177
  438MOL0     H59098  12.182   4.099   9.814  1.1915  2.4473  1.3924
  438MOL0     H59099  12.184   4.163   9.971  1.8459  0.9787 -2.6862
  438MOL0     H59100  12.299   3.893   9.877 -2.4194  1.6591 -0.7442
  438MOL0     H59101  12.250   3.906  10.045 -0.0458  0.8375  1.4750
  438MOL0     H59102  12.484   3.946  10.028  0.2147  0.1955  0.3679
  438MOL0     H59103  12.476   4.055   9.894 -1.3817 -0.2617 -1.2620
  438MOL0     H59104  12.356   4.106  10.166  1.3213  2.3197  3.0694
  438MOL0     H59105  12.360   4.233  10.047  0.6672  1.5869  0.9379
  438MOL0     H59106  12.579   4.115  10.234  0.6413  0.5203  1.1121
  438MOL0     H59107  12.634   4.186  10.087 -0.5029  4.6764  0.3871
  438MOL0     H59108  12.486   4.314  10.322 -0.0729 -1.1275 -0.3631
  438MOL0     H59109  12.481   4.393  10.180 -4.0283 -1.7515  2.5340
  438MOL0     H59110  12.701   4.459  10.307  0.3554 -1.6239  4.6492
  438MOL0     H59111  12.750   4.349  10.170  0.2061  2.7673 -0.1122
  438MOL0     H59112  11.993   3.753  10.122 -0.2562 -0.6982  0.2332
  438MOL0     H59113  11.766   3.632  10.160  2.6707 -0.6172  1.9997
  438MOL0     H59114  11.312   3.646  10.095  0.7142  1.2375 -0.0277
  438MOL0     H59115  11.064   3.592  10.120 -0.0284  3.0204  0.3855
  438MOL0     H59116  10.635   1.890  10.211  0.3559  0.5047 -0.8519
  438MOL0     H59117  10.478   1.757  10.132 -1.0741 -1.0987 -1.6792
  438MOL0     H59118  10.350   1.536   9.679 -0.3531  0.2743 -0.0361
  438MOL0     H59119  10.168   1.387   9.596 -0.7608  2.6723  1.4424
  438MOL0     H59120  10.113   0.964   9.706 -1.1745  0.6328 -2.5247
  438MOL0     H59121  10.012   1.031   9.841  0.9736 -0.8480  1.1682
  438MOL0     H59122   9.918   1.011   9.551  0.3672 -0.1616  0.1221
  438MOL0     H59123   9.846   1.089   9.690  0.8214  1.6111 -0.1206
  438MOL0     H59124   9.752   0.862   9.679 -0.7822  1.7040  1.2083
  438MOL0     H59125   9.862   0.872   9.816  1.7267  2.8756 -0.1653
  438MOL0     H59126  10.048   0.764   9.658 -0.7320  0.1438  1.6642
  438MOL0     H59127   9.927   0.751   9.530  0.5106 -1.1558 -0.2122
  438MOL0     H59128   9.839   0.445   9.812 -1.3368  0.7298  0.3136
  438MOL0     H59129  10.186   1.151   9.957 -2.0272  3.6866  3.5579
  438MOL0     H59130  10.370   1.302  10.037 -0.2228  2.4648  1.3884
  439MOL0     O59131   5.158   1.682   7.816 -0.5316 -0.1321 -0.5747
  439MOL0     C59132   5.240   1.763   7.772  0.3764 -0.1276 -0.2680
  439MOL0     O59133   5.317   1.850   7.845 -0.1526  0.0363  0.4162
  439MOL0     C59134   5.289   1.892   7.978  0.0221  0.3406 -0.2260
  439MOL0     C59135   5.345   2.007   8.029 -0.5509 -0.6714 -0.1466
  439MOL0     C59136   5.309   2.063   8.154 -0.2001  1.0522 -0.1169
  439MOL0     C59137   5.217   1.992   8.231 -0.0119 -0.9301 -0.2457
  439MOL0     O59138   5.180   2.060   8.346 -0.6450  1.0182  0.0327
  439MOL0     C59139   5.126   1.995   8.464 -0.4977  0.3503  0.2858
  439MOL0     C59140   5.231   1.922   8.555 -0.1279  0.3321  0.5235
  439MOL0     C59141   5.328   1.826   8.478 -0.2955 -0.1778 -0.3725
  439MOL0     C59142   5.435   1.776   8.579  0.4999  0.4572  0.2410
  439MOL0     C59143   5.546   1.694   8.513  0.5119 -0.5038 -0.0677
  439MOL0     C59144   5.497   1.563   8.453  0.4777  0.0109 -1.3482
  439MOL0     C59145   5.615   1.467   8.459  0.4662  0.9721  0.3768
  439MOL0     C59146   5.578   1.327   8.394 -0.8439 -0.5554 -0.2445
  439MOL0     N59147   5.701   1.245   8.409  0.0964 -0.1419  1.0166
  439MOL0     C59148   5.820   1.273   8.351  0.0830  0.9077 -0.0985
  439MOL0     C59149   5.892   1.153   8.342  0.3005 -0.5974  0.4849
  439MOL0     C59150   6.025   1.133   8.279  0.0843  1.0363  0.9379
  439MOL0     C59151   6.060   0.987   8.237  0.4151  0.2822  0.2669
  439MOL0     C59152   6.195   1.001   8.158 -0.1889  0.1863  0.1499
  439MOL0     C59153   6.248   0.869   8.110  0.0147  0.1555 -0.2329
  439MOL0     O59154   6.390   0.893   8.088  0.0118  0.0449 -0.2800
  439MOL0     C59155   6.476   0.812   8.158  1.0587  0.6923 -0.2082
  439MOL0     C59156   6.504   0.682   8.121  0.3458  0.3732 -0.5499
  439MOL0     C59157   6.600   0.603   8.190  1.0071  0.7642  0.1252
  439MOL0     C59158   6.628   0.461   8.148  0.4431 -0.3938  0.4819
  439MOL0     C59159   6.645   0.654   8.318  0.0044  0.1184  0.9431
  439MOL0     C59160   6.707   0.570   8.421 -0.9306 -0.2782 -0.5645
  439MOL0     O59161   6.798   0.629   8.506 -0.0703 -0.4223  0.0966
  439MOL0     C59162   6.831   0.558   8.617 -0.7619  0.8258  0.2819
  439MOL0     C59163   6.922   0.445   8.597  0.9402 -0.2530 -0.1778
  439MOL0     C59164   6.952   0.371   8.710 -0.2919  0.3845 -0.4814
  439MOL0     C59165   6.919   0.404   8.841  0.8770 -0.1582  0.3220
  439MOL0     O59166   6.964   0.333   8.947 -0.1712  0.3175  0.6643
  439MOL0     C59167   6.881   0.296   9.066 -0.3186 -0.6898  0.0668
  439MOL0     C59168   6.971   0.223   9.175  0.2827 -0.4589  0.3835
  439MOL0     C59169   7.052   0.311   9.260  0.0138 -0.1902 -0.2963
  439MOL0     C59170   7.099   0.254   9.392  0.7453  0.6390  0.7753
  439MOL0     C59171   7.150   0.369   9.473  0.2785 -0.1984 -0.4219
  439MOL0     C59172   7.157   0.335   9.624 -1.0267 -0.5897  0.1755
  439MOL0     C59173   7.257   0.225   9.660  0.4339  0.2868  0.2735
  439MOL0     C59174   7.401   0.279   9.644  0.2301  0.4715  1.1336
  439MOL0    Cl59175   7.491   0.263   9.799 -0.6202  0.3211  0.2288
  439MOL0     C59176   6.821   0.515   8.857  0.2837  0.1651 -0.7249
  439MOL0     C59177   6.790   0.596   8.747  1.0081  0.0177 -0.1982
  439MOL0     O59178   6.674   0.448   8.435 -0.3554 -0.3231  0.0843
  439MOL0     C59179   6.617   0.788   8.358 -0.5383  0.8881  0.5259
  439MOL0     C59180   6.530   0.863   8.281  0.9018  0.5437 -0.2096
  439MOL0     N59181   5.809   1.057   8.401 -0.5748 -0.5319 -0.0205
  439MOL0     N59182   5.695   1.113   8.422  0.8966 -0.4814 -0.0867
  439MOL0     C59183   5.171   1.865   8.188 -0.1126  0.1453 -0.3924
  439MOL0     C59184   5.215   1.810   8.071  0.1265 -0.4205  0.1470
  439MOL0     C59185   5.283   1.736   7.633 -0.1171 -0.0766  0.0646
  439MOL0     C59186   5.417   1.759   7.593  0.7682  0.4165  0.9913
  439MOL0     C59187   5.468   1.689   7.484  0.7868  0.4732 -0.0760
  439MOL0     C59188   5.385   1.593   7.416 -1.2045 -0.3878  0.8592
  439MOL0     O59189   5.442   1.518   7.312  0.3332 -0.3543  0.3499
  439MOL0     C59190   5.533   1.415   7.354  0.0841  0.5888  0.2217
  439MOL0     C59191   5.584   1.328   7.235 -0.0941 -0.6383  0.3868
  439MOL0     C59192   5.677   1.413   7.146  0.1038  0.2938 -1.1338
  439MOL0     C59193   5.665   1.359   7.003 -0.4247  0.1212 -0.0577
  439MOL0     C59194   5.757   1.419   6.906 -0.2509 -0.2468  0.4247
  439MOL0     C59195   5.831   1.460   6.818  0.3504  0.6691  0.2767
  439MOL0     C59196   5.257   1.601   7.431  1.3108  0.6513  0.6470
  439MOL0     C59197   5.197   1.674   7.541  0.3552  0.7432 -0.1216
  439MOL0     H59198   5.409   2.051   7.953  1.0512 -2.8008 -0.1267
  439MOL0     H59199   5.342   2.160   8.191  3.2370 -0.3793  1.0293
  439MOL0     H59200   5.075   2.071   8.525  1.5558  2.0308  0.0019
  439MOL0     H59201   5.060   1.913   8.432  0.9568 -1.0044  0.6314
  439MOL0     H59202   5.284   2.003   8.606 -3.0348  3.7888 -1.4573
  439MOL0     H59203   5.185   1.856   8.629 -0.7495 -2.2427 -1.9971
  439MOL0     H59204   5.271   1.743   8.434 -0.8311  1.3593 -2.7716
  439MOL0     H59205   5.380   1.866   8.391  0.9232 -1.7989 -0.4421
  439MOL0     H59206   5.471   1.868   8.627 -1.1517  1.4483 -0.3518
  439MOL0     H59207   5.392   1.716   8.659 -1.2303  0.9001 -0.3284
  439MOL0     H59208   5.583   1.753   8.429 -0.6018 -0.2284 -0.3793
  439MOL0     H59209   5.619   1.679   8.593 -0.2239 -0.8312  0.5606
  439MOL0     H59210   5.426   1.512   8.520 -0.3136 -1.3071 -3.1188
  439MOL0     H59211   5.444   1.573   8.358  2.2433 -1.7726 -2.5955
  439MOL0     H59212   5.693   1.508   8.394 -0.5628 -1.2964 -2.4629
  439MOL0     H59213   5.642   1.465   8.566 -0.7109 -0.6361  0.6838
  439MOL0     H59214   5.565   1.328   8.286 -1.9232 -0.1904 -0.1248
  439MOL0     H59215   5.499   1.277   8.451 -0.5723 -0.3464  0.3225
  439MOL0     H59216   5.860   1.370   8.323  3.3244  0.2914  1.8565
  439MOL0     H59217   6.017   1.182   8.181  1.7804 -1.0637 -0.3395
  439MOL0     H59218   6.111   1.188   8.317  1.5237  1.2970 -2.3427
  439MOL0     H59219   5.982   0.945   8.172 -1.2999  1.8537  1.1906
  439MOL0     H59220   6.069   0.927   8.328 -2.7709 -0.9138 -0.0621
  439MOL0     H59221   6.271   1.046   8.222 -1.0348  2.4260 -0.3140
  439MOL0     H59222   6.186   1.081   8.084 -2.8488  2.3570  2.5568
  439MOL0     H59223   6.203   0.835   8.017  1.9047  1.6029 -1.7645
  439MOL0     H59224   6.233   0.797   8.191  0.3768  1.5917  1.1562
  439MOL0     H59225   6.443   0.632   8.045 -0.2652 -2.2092  1.4902
  439MOL0     H59226   6.547   0.395   8.180  0.6107 -0.5585  0.5606
  439MOL0     H59227   6.626   0.449   8.039 -2.6444 -1.4509  0.5675
  439MOL0     H59228   6.723   0.421   8.184  0.9819  0.4129  0.0002
  439MOL0     H59229   6.943   0.419   8.494 -1.0602 -1.3106 -0.3844
  439MOL0     H59230   7.020   0.290   8.686 -1.2281 -0.0193 -1.8828
  439MOL0     H59231   6.842   0.387   9.112 -1.9522 -2.1929  1.7995
  439MOL0     H59232   6.804   0.234   9.019  0.0327 -0.2229 -1.1741
  439MOL0     H59233   6.901   0.167   9.238 -3.3823  0.2292 -2.7364
  439MOL0     H59234   7.035   0.154   9.120 -2.1278 -2.0392 -0.5816
  439MOL0     H59235   6.988   0.397   9.282 -0.8282  0.0351 -3.1587
  439MOL0     H59236   7.144   0.337   9.208  0.1521  1.1465  0.5794
  439MOL0     H59237   7.023   0.209   9.457 -0.0359  1.5430  0.5028
  439MOL0     H59238   7.168   0.173   9.367  0.1435  0.8224 -1.7868
  439MOL0     H59239   7.087   0.458   9.472  0.9224  0.2624 -1.4875
  439MOL0     H59240   7.247   0.393   9.428  0.5520 -1.6971 -0.6980
  439MOL0     H59241   7.170   0.425   9.685  0.3417  0.5128 -1.6378
  439MOL0     H59242   7.058   0.295   9.648 -1.2413  0.9977  2.3109
  439MOL0     H59243   7.241   0.140   9.594  0.2259  1.6138 -1.4678
  439MOL0     H59244   7.236   0.190   9.761 -0.7514  1.7801  0.5776
  439MOL0     H59245   7.401   0.381   9.605 -1.6391 -0.7794 -2.6371
  439MOL0     H59246   7.456   0.217   9.572 -0.4366 -0.6729  1.5744
  439MOL0     H59247   6.776   0.555   8.948 -0.7868  0.6414 -1.4544
  439MOL0     H59248   6.709   0.668   8.747  1.4828  0.5614  0.0360
  439MOL0     H59249   6.643   0.827   8.456 -3.5917  0.0299  1.7991
  439MOL0     H59250   6.509   0.963   8.316  2.0141  2.2304 -3.8406
  439MOL0     H59251   5.124   1.791   8.253  2.4574 -1.7552 -0.5418
  439MOL0     H59252   5.167   1.714   8.055 -2.3372  0.5384  1.2427
  439MOL0     H59253   5.471   1.833   7.651 -1.7962  0.9236  2.9340
  439MOL0     H59254   5.570   1.696   7.447  1.2091  1.4097  1.1550
  439MOL0     H59255   5.619   1.457   7.408  0.1996 -0.2394  0.7078
  439MOL0     H59256   5.488   1.341   7.422  0.6028  0.0041 -0.0565
  439MOL0     H59257   5.503   1.284   7.177 -2.0368  1.6011  1.2560
  439MOL0     H59258   5.638   1.245   7.281  2.2802  1.1062  0.9455
  439MOL0     H59259   5.774   1.407   7.196 -0.4909 -0.2284  0.0092
  439MOL0     H59260   5.651   1.519   7.152  0.4941  0.3207  1.1827
  439MOL0     H59261   5.562   1.376   6.970  0.7076  2.3532 -2.8826
  439MOL0     H59262   5.686   1.254   7.023  1.1275  1.0344  4.2494
  439MOL0     H59263   5.894   1.493   6.738 -0.7298  0.5463 -0.6459
  439MOL0     H59264   5.200   1.547   7.356  3.5420  1.5319 -1.8760
  439MOL0     H59265   5.092   1.669   7.566 -0.5017  0.2291 -3.3102
  440MOL0     O59266   2.895   8.125  10.087  0.2791  0.3304  0.3296
  440MOL0     C59267   3.015   8.136  10.055 -0.3363  0.1294  0.2386
  440MOL0     O59268   3.106   8.036  10.024  0.1575  0.2897  0.2287
  440MOL0     C59269   3.063   7.909  10.036 -1.1979  0.1779 -0.6162
  440MOL0     C59270   2.999   7.844   9.932  0.0076  0.2363  0.5454
  440MOL0     C59271   2.982   7.707   9.928  0.3299 -0.5751  0.9211
  440MOL0     C59272   3.026   7.629  10.033  0.6633 -0.5076 -0.2484
  440MOL0     O59273   3.013   7.492  10.027 -0.5981 -0.2821  0.4294
  440MOL0     C59274   3.098   7.399  10.086 -0.3305  1.0808 -1.0544
  440MOL0     C59275   3.017   7.333  10.199  0.3258  0.8534 -0.4845
  440MOL0     C59276   3.106   7.219  10.268  0.3753  0.5417  0.8112
  440MOL0     C59277   3.046   7.166  10.402  0.2576  0.4636 -0.6982
  440MOL0     C59278   3.110   7.058  10.473 -0.2677  1.0059 -0.4984
  440MOL0     C59279   3.122   6.933  10.386  0.2210 -0.0134  0.7016
  440MOL0     C59280   3.246   6.845  10.428  0.6217  0.7664  0.7303
  440MOL0     C59281   3.216   6.695  10.399  0.2318  0.6951 -0.2098
  440MOL0     N59282   3.146   6.665  10.270  0.1714 -0.0414 -0.5132
  440MOL0     C59283   3.151   6.734  10.157  0.7720  0.9568 -0.0886
  440MOL0     C59284   3.067   6.670  10.069  0.2107 -0.4770  0.3309
  440MOL0     C59285   3.030   6.725   9.932 -0.4527 -0.4294 -0.2615
  440MOL0     C59286   2.946   6.854   9.951  0.1250 -0.0698  0.0646
  440MOL0     C59287   2.853   6.864   9.827  0.3824  0.7318 -0.7503
  440MOL0     C59288   2.937   6.892   9.698  0.5340 -0.0698  0.1400
  440MOL0     O59289   2.984   7.028   9.700 -0.0430  0.0227  0.0916
  440MOL0     C59290   2.901   7.133   9.680 -1.3420  0.8311  0.0360
  440MOL0     C59291   2.774   7.122   9.612  0.0758 -0.4789 -0.2135
  440MOL0     C59292   2.694   7.235   9.609  0.1265 -0.0198 -0.3075
  440MOL0     C59293   2.574   7.223   9.514  0.6064  0.0356  0.8742
  440MOL0     C59294   2.731   7.364   9.672  0.3631  0.3799  0.0237
  440MOL0     C59295   2.656   7.484   9.655 -0.0164 -1.4681  0.3020
  440MOL0     O59296   2.525   7.487   9.656 -0.1994 -0.0071  1.1996
  440MOL0     C59297   2.465   7.597   9.604  0.4364  0.0456  0.3610
  440MOL0     C59298   2.448   7.720   9.670  0.2366 -0.7794  0.1606
  440MOL0     C59299   2.399   7.831   9.603 -0.5124 -0.0091  0.4445
  440MOL0     C59300   2.367   7.820   9.467 -0.3109  0.0169 -0.6524
  440MOL0     O59301   2.322   7.928   9.396 -0.1673 -0.2631  0.1556
  440MOL0     C59302   2.203   7.917   9.328  0.0703  0.7629  0.6285
  440MOL0     C59303   2.155   8.055   9.271 -1.3941  0.3105  0.5852
  440MOL0     C59304   2.253   8.117   9.162  0.5344 -0.7891  0.5838
  440MOL0     C59305   2.176   8.230   9.090 -0.5830 -0.8448  0.1704
  440MOL0     C59306   2.253   8.314   8.995  0.2670  0.2192  1.0019
  440MOL0     C59307   2.262   8.249   8.858 -0.8467  0.2640 -0.1754
  440MOL0     C59308   2.135   8.254   8.782 -0.5259 -0.0682 -0.4419
  440MOL0     C59309   2.124   8.146   8.670 -0.5866  0.5658  0.5210
  440MOL0    Cl59310   2.259   8.168   8.545 -0.0456 -0.3685  0.2578
  440MOL0     C59311   2.386   7.705   9.399 -0.5817  0.4111  0.3158
  440MOL0     C59312   2.437   7.593   9.465  0.6084  0.0277  0.7321
  440MOL0     O59313   2.727   7.585   9.627  0.0333 -0.1786  0.2062
  440MOL0     C59314   2.855   7.366   9.728 -0.2098 -0.5958  0.0247
  440MOL0     C59315   2.943   7.260   9.734 -0.5522  1.4685  0.1867
  440MOL0     N59316   2.988   6.583  10.144 -0.2035 -0.0106  0.3542
  440MOL0     N59317   3.034   6.582  10.259 -0.2473  0.1757 -0.3719
  440MOL0     C59318   3.087   7.693  10.139 -0.2198 -0.3050 -0.0815
  440MOL0     C59319   3.096   7.833  10.149 -0.3819 -0.1178  0.6496
  440MOL0     C59320   3.071   8.278  10.054 -0.3706 -0.0579  0.9674
  440MOL0     C59321   3.210   8.304  10.041  1.4595  0.3341 -0.1774
  440MOL0     C59322   3.262   8.440  10.042  0.0485 -0.1579 -0.0881
  440MOL0     C59323   3.178   8.551  10.033 -0.7303  0.4626  0.4280
  440MOL0     O59324   3.219   8.677  10.034 -0.3392  0.7042 -0.1030
  440MOL0     C59325   3.297   8.713  10.150 -0.4729 -0.3814  0.1073
  440MOL0     C59326   3.399   8.826  10.126  0.6444 -0.7492  0.5192
  440MOL0     C59327   3.502   8.798  10.016  0.9789  0.2845 -0.1821
  440MOL0     C59328   3.629   8.877  10.039 -0.4336 -0.8038  0.1661
  440MOL0     C59329   3.610   9.023  10.048 -0.3304 -0.5632  0.7747
  440MOL0     C59330   3.617   9.139  10.061  0.9983 -0.3129 -0.0313
  440MOL0     C59331   3.042   8.521  10.018  0.0635 -0.3103  0.9276
  440MOL0     C59332   2.993   8.391  10.033 -0.0990  0.7030 -0.4111
  440MOL0     H59333   2.988   7.911   9.847  4.4906 -0.5369 -0.8533
  440MOL0     H59334   2.929   7.664   9.843  0.2777  0.9366  0.1669
  440MOL0     H59335   3.131   7.314  10.025  1.9151  0.7800  0.4381
  440MOL0     H59336   3.188   7.443  10.131 -0.2329 -0.1524  0.0241
  440MOL0     H59337   2.982   7.404  10.274  0.6652 -0.6566  1.1957
  440MOL0     H59338   2.931   7.288  10.149  1.4224 -1.5229 -0.4128
  440MOL0     H59339   3.118   7.142  10.192  1.5084  0.9065  0.6016
  440MOL0     H59340   3.208   7.253  10.291 -0.1510  1.5177  1.8005
  440MOL0     H59341   3.045   7.241  10.481  0.5333 -0.9737  0.7287
  440MOL0     H59342   2.943   7.131  10.385 -0.2094  1.8096 -0.7497
  440MOL0     H59343   3.212   7.082  10.504  0.7517  1.2649 -3.6910
  440MOL0     H59344   3.050   7.033  10.562  1.2332  0.8655  0.5134
  440MOL0     H59345   3.036   6.870  10.410  0.2890  0.8698  3.6607
  440MOL0     H59346   3.122   6.952  10.278 -0.1635  2.3315  1.0679
  440MOL0     H59347   3.328   6.889  10.370 -0.0927  0.8224 -0.2704
  440MOL0     H59348   3.263   6.851  10.536 -0.7771 -0.8734  1.0932
  440MOL0     H59349   3.158   6.658  10.483  2.2801 -0.7499  0.6438
  440MOL0     H59350   3.310   6.639  10.403 -1.6432 -2.6424  3.6639
  440MOL0     H59351   3.214   6.821  10.141 -0.3510  1.8619  0.2389
  440MOL0     H59352   3.125   6.755   9.887 -0.2783 -0.9624 -0.2463
  440MOL0     H59353   2.980   6.652   9.867  1.2715 -2.3205  0.4675
  440MOL0     H59354   3.014   6.940   9.946  0.6160 -0.5029 -1.2242
  440MOL0     H59355   2.880   6.852  10.038 -1.2112  0.8527 -0.9004
  440MOL0     H59356   2.786   6.950   9.833  1.3650  1.4358  0.5318
  440MOL0     H59357   2.798   6.770   9.814  1.4465  0.2218 -1.7296
  440MOL0     H59358   2.868   6.879   9.614  0.3044  0.8256  0.1743
  440MOL0     H59359   3.008   6.810   9.684 -0.1713 -0.4895 -1.1117
  440MOL0     H59360   2.729   7.032   9.573  0.9199 -0.6473 -0.8215
  440MOL0     H59361   2.597   7.287   9.428  0.6217 -0.7930  0.2536
  440MOL0     H59362   2.554   7.122   9.478  1.1825 -0.6561  2.4582
  440MOL0     H59363   2.481   7.257   9.561  0.6556  1.1943  0.1896
  440MOL0     H59364   2.481   7.740   9.772 -1.1383 -1.2459  0.7229
  440MOL0     H59365   2.396   7.919   9.667  1.7266 -0.3164  1.0281
  440MOL0     H59366   2.216   7.846   9.245 -1.1145  0.4544  0.6872
  440MOL0     H59367   2.127   7.888   9.401  1.6289 -3.6155  0.8524
  440MOL0     H59368   2.052   8.058   9.235 -1.8465  0.7937  1.8692
  440MOL0     H59369   2.165   8.126   9.353 -0.0343  1.4730 -0.5346
  440MOL0     H59370   2.285   8.039   9.092 -1.3017 -0.9646 -0.1214
  440MOL0     H59371   2.344   8.154   9.210  0.6898  0.1211 -0.3601
  440MOL0     H59372   2.084   8.198   9.041 -0.2670 -0.1752 -0.8976
  440MOL0     H59373   2.136   8.308   9.155  1.1427  2.1139 -2.0412
  440MOL0     H59374   2.352   8.344   9.030  0.9478  3.5618 -3.0154
  440MOL0     H59375   2.186   8.399   8.984 -0.7789 -0.6155  0.7709
  440MOL0     H59376   2.330   8.294   8.784  0.5952  0.2270  1.0694
  440MOL0     H59377   2.280   8.142   8.863 -2.7607 -0.1167 -0.8078
  440MOL0     H59378   2.131   8.352   8.733 -1.3623  0.2424  0.2186
  440MOL0     H59379   2.041   8.239   8.836 -0.5355  3.5802  0.8782
  440MOL0     H59380   2.024   8.143   8.627 -0.1417  0.9202 -0.5981
  440MOL0     H59381   2.132   8.046   8.714 -0.1050 -0.2415 -1.2737
  440MOL0     H59382   2.389   7.697   9.291  1.8262 -2.4412  0.4728
  440MOL0     H59383   2.463   7.512   9.399  1.3666  1.7103 -1.1275
  440MOL0     H59384   2.899   7.458   9.765  1.8056 -1.1373 -0.8783
  440MOL0     H59385   3.041   7.277   9.779  1.0083  0.7099 -2.6520
  440MOL0     H59386   3.126   7.635  10.222 -1.7022  1.0787  1.6505
  440MOL0     H59387   3.162   7.879  10.222  1.7152 -1.0761 -0.5703
  440MOL0     H59388   3.276   8.218  10.034 -1.5162 -2.3517  1.7672
  440MOL0     H59389   3.369   8.459  10.033  0.6814 -2.5146  1.5058
  440MOL0     H59390   3.216   8.750  10.213 -2.7647  0.1979 -2.9434
  440MOL0     H59391   3.343   8.632  10.207 -1.6433  0.0013  1.6571
  440MOL0     H59392   3.455   8.856  10.215  0.8520  4.1981 -0.9879
  440MOL0     H59393   3.355   8.917  10.087  1.4168 -1.4289 -2.1528
  440MOL0     H59394   3.453   8.825   9.922 -0.6335  1.6777  1.0172
  440MOL0     H59395   3.517   8.689  10.014 -0.7946  0.0137 -1.3787
  440MOL0     H59396   3.699   8.850   9.959 -0.9463  1.2224 -1.0411
  440MOL0     H59397   3.679   8.848  10.132  1.0310 -1.3047 -0.7355
  440MOL0     H59398   3.621   9.246  10.066  2.4002  0.0047 -4.3171
  440MOL0     H59399   2.975   8.605  10.005 -0.2504 -1.0214 -3.9022
  440MOL0     H59400   2.886   8.371  10.037 -0.3393  1.5933 -1.9298
  441MOL0     O59401   2.697  11.380   0.009 -0.3241 -0.1144  0.0782
  441MOL0     C59402   2.722  11.496   0.000 -0.1337 -0.8906  0.4554
  441MOL0     O59403   2.834  11.543  -0.046 -1.1153  0.0673  0.8285
  441MOL0     C59404   2.946  11.472  -0.091 -0.4821  0.3391 -0.3056
  441MOL0     C59405   3.037  11.536  -0.176  0.0528 -0.0489 -0.1076
  441MOL0     C59406   3.155  11.475  -0.217 -0.3914 -0.2975 -1.4643
  441MOL0     C59407   3.179  11.345  -0.174  0.4300  0.1144  0.7463
  441MOL0     O59408   3.275  11.276  -0.244 -0.2560 -0.1584  0.0288
  441MOL0     C59409   3.416  11.289  -0.221  1.2263  0.2821 -1.3978
  441MOL0     C59410   3.465  11.247  -0.082 -0.2340 -1.1444 -0.2366
  441MOL0     C59411   3.409  11.107  -0.040  0.2689  0.8452 -0.8587
  441MOL0     C59412   3.494  10.981  -0.076  1.0685  0.3387  0.2008
  441MOL0     C59413   3.418  10.863  -0.017 -0.5454 -0.6637 -0.6569
  441MOL0     C59414   3.502  10.739  -0.023  0.0685  0.2718 -0.0298
  441MOL0     C59415   3.458  10.636   0.077 -0.5798  1.1005 -0.5959
  441MOL0     C59416   3.543  10.501   0.071  0.0629  0.4871 -0.0519
  441MOL0     N59417   3.666  10.515   0.138 -0.1401 -0.3869 -0.6154
  441MOL0     C59418   3.686  10.496   0.271 -0.0493  0.0557 -0.3580
  441MOL0     C59419   3.818  10.526   0.299  0.3279  0.9590  0.3207
  441MOL0     C59420   3.893  10.512   0.431 -0.1422 -0.3313  0.2129
  441MOL0     C59421   3.867  10.644   0.505 -0.0393 -0.2231  0.5234
  441MOL0     C59422   3.978  10.741   0.452 -0.2077 -0.0314  0.2697
  441MOL0     C59423   3.954  10.880   0.503 -0.1369 -0.1059  0.1828
  441MOL0     O59424   3.989  10.878   0.648 -0.2070 -0.1842  0.9521
  441MOL0     C59425   4.118  10.924   0.680  0.6372  0.5768  0.3913
  441MOL0     C59426   4.230  10.928   0.597 -0.1372  1.2068  0.4802
  441MOL0     C59427   4.357  10.946   0.644 -0.8347 -0.1027 -1.2491
  441MOL0     C59428   4.469  10.972   0.549 -0.0315  0.3225  0.9245
  441MOL0     C59429   4.371  10.971   0.788 -0.7711 -0.2412  0.1715
  441MOL0     C59430   4.504  10.983   0.857 -0.3427 -0.5544 -0.3474
  441MOL0     O59431   4.613  10.935   0.792 -0.4984 -0.8406 -0.0310
  441MOL0     C59432   4.746  10.936   0.831  0.3130 -0.6658  0.0661
  441MOL0     C59433   4.803  10.989   0.950 -0.2892 -0.1187  0.1843
  441MOL0     C59434   4.938  10.984   0.968 -0.0297  0.2568  1.6014
  441MOL0     C59435   5.021  10.943   0.869 -0.7144 -0.0152  0.5452
  441MOL0     O59436   5.156  10.951   0.896  0.5113  0.2432  1.0639
  441MOL0     C59437   5.242  10.931   0.786  0.3204  0.5834 -0.1930
  441MOL0     C59438   5.380  10.956   0.826 -0.1077 -1.1011  0.0714
  441MOL0     C59439   5.486  10.966   0.716  0.8021  0.3595 -0.3986
  441MOL0     C59440   5.627  10.989   0.767  0.8548  0.3731  0.2476
  441MOL0     C59441   5.661  11.119   0.829 -0.5993 -0.6382 -0.4676
  441MOL0     C59442   5.808  11.123   0.880 -0.0825 -0.4106 -0.5333
  441MOL0     C59443   5.836  11.260   0.949  0.5283  0.5404 -0.1926
  441MOL0     C59444   5.962  11.273   1.020 -2.0822  0.6561 -0.9716
  441MOL0    Cl59445   5.970  11.436   1.104 -0.2743 -0.2881 -0.2009
  441MOL0     C59446   4.968  10.888   0.746 -0.6200  0.3630 -0.2396
  441MOL0     C59447   4.834  10.894   0.730  0.3408 -0.5806  0.1086
  441MOL0     O59448   4.501  11.037   0.967  0.2919  0.3905 -0.0529
  441MOL0     C59449   4.255  10.989   0.867 -0.6839 -0.4475  0.0594
  441MOL0     C59450   4.137  10.976   0.813  0.0360 -0.4725  0.8208
  441MOL0     N59451   3.870  10.564   0.179  0.2095 -0.3109 -0.4780
  441MOL0     N59452   3.779  10.561   0.090 -0.0032 -0.1436  0.4121
  441MOL0     C59453   3.090  11.280  -0.090 -0.0612  0.1821 -0.1826
  441MOL0     C59454   2.977  11.340  -0.046 -0.4071  0.1280 -0.0463
  441MOL0     C59455   2.623  11.598   0.037 -0.0409 -0.0444 -0.1372
  441MOL0     C59456   2.632  11.734   0.018 -0.0581 -0.1692 -0.2688
  441MOL0     C59457   2.535  11.824   0.053 -0.1767 -0.1436 -0.0211
  441MOL0     C59458   2.417  11.790   0.103  0.0427  0.2776  0.5967
  441MOL0     O59459   2.332  11.886   0.149  0.1798  0.2212 -0.2240
  441MOL0     C59460   2.203  11.842   0.201 -0.1542 -0.5723  0.5209
  441MOL0     C59461   2.126  11.978   0.217 -0.0260  0.8491 -0.2286
  441MOL0     C59462   1.976  11.958   0.249  0.1886 -0.3045 -0.4549
  441MOL0     C59463   1.914  12.091   0.282 -0.3406 -0.2289 -0.2321
  441MOL0     C59464   1.763  12.079   0.286  0.1387  0.3658  0.6694
  441MOL0     C59465   1.642  12.066   0.296 -0.0808  0.5649  0.1832
  441MOL0     C59466   2.402  11.653   0.120 -0.0124 -0.0824  0.4707
  441MOL0     C59467   2.502  11.561   0.089  1.1168  0.4764  0.5662
  441MOL0     H59468   3.025  11.640  -0.205  1.4797  1.1511  3.1253
  441MOL0     H59469   3.228  11.526  -0.278  2.4882 -3.3294 -0.8504
  441MOL0     H59470   3.463  11.240  -0.307  1.6120  0.4889 -1.3080
  441MOL0     H59471   3.439  11.395  -0.234 -2.4732  1.7576  2.0606
  441MOL0     H59472   3.574  11.250  -0.076 -0.2943  2.9268  1.8876
  441MOL0     H59473   3.430  11.326  -0.016 -0.8466 -2.1099  0.6291
  441MOL0     H59474   3.399  11.095   0.068 -0.9142 -2.9502 -1.2670
  441MOL0     H59475   3.318  11.081  -0.096 -0.3994  2.9556 -0.8399
  441MOL0     H59476   3.485  10.961  -0.183 -0.4748 -1.1954  0.5693
  441MOL0     H59477   3.597  10.975  -0.040  1.3792 -2.6869 -0.8869
  441MOL0     H59478   3.418  10.886   0.090 -1.4867 -0.8484 -0.6141
  441MOL0     H59479   3.315  10.845  -0.049 -0.8839 -0.4449  0.2951
  441MOL0     H59480   3.499  10.694  -0.122 -4.7407 -2.6543  1.1529
  441MOL0     H59481   3.610  10.757  -0.017 -0.1188  1.5057 -0.0526
  441MOL0     H59482   3.475  10.665   0.181  1.4238 -2.3991  0.2203
  441MOL0     H59483   3.355  10.602   0.063  0.2561 -1.7382 -0.5594
  441MOL0     H59484   3.559  10.471  -0.033  2.7504 -0.4786  0.5649
  441MOL0     H59485   3.498  10.412   0.115  2.0959 -1.8155 -2.2870
  441MOL0     H59486   3.615  10.456   0.343  0.0871  0.4302 -0.0109
  441MOL0     H59487   3.855  10.435   0.499 -3.0283  0.1973 -0.6664
  441MOL0     H59488   4.000  10.505   0.410 -0.1977  2.0389 -1.2259
  441MOL0     H59489   3.877  10.616   0.610  0.3723 -0.1564  0.5015
  441MOL0     H59490   3.768  10.687   0.483 -1.2765 -3.3689 -0.6590
  441MOL0     H59491   3.983  10.736   0.343 -0.4877  2.6872  0.0654
  441MOL0     H59492   4.071  10.698   0.490 -0.0061 -0.2545 -0.4551
  441MOL0     H59493   3.849  10.908   0.490 -0.8895 -2.9706 -0.5793
  441MOL0     H59494   4.008  10.957   0.447 -2.5231  1.2402 -0.3845
  441MOL0     H59495   4.217  10.921   0.489 -0.2228  1.7165  0.4541
  441MOL0     H59496   4.534  10.885   0.538  0.6087  0.8001  0.9102
  441MOL0     H59497   4.419  10.988   0.453  1.0937  1.7583  0.5517
  441MOL0     H59498   4.541  11.050   0.573  2.5097 -1.3917 -0.5429
  441MOL0     H59499   4.727  11.020   1.021 -0.7378 -0.8154  0.0244
  441MOL0     H59500   4.980  11.009   1.065  0.1566  3.2091  0.8530
  441MOL0     H59501   5.241  10.827   0.752 -0.6699  0.3274  0.6133
  441MOL0     H59502   5.212  10.989   0.698 -0.5314  0.5895  0.0934
  441MOL0     H59503   5.377  11.055   0.874  0.1105 -1.8662  1.7535
  441MOL0     H59504   5.411  10.884   0.903  0.4353  0.4716  1.3910
  441MOL0     H59505   5.456  11.051   0.654 -2.0051 -0.0939  0.2136
  441MOL0     H59506   5.485  10.878   0.650 -1.5198 -0.6135  0.8093
  441MOL0     H59507   5.666  10.901   0.819  1.6296  0.6463  0.1406
  441MOL0     H59508   5.687  10.972   0.677 -3.2732 -0.4337 -2.6410
  441MOL0     H59509   5.603  11.146   0.918  0.0782  3.8620 -1.1327
  441MOL0     H59510   5.637  11.199   0.758  1.6664  0.9741  0.4635
  441MOL0     H59511   5.827  11.041   0.949  3.5938 -0.0111 -0.8475
  441MOL0     H59512   5.882  11.118   0.799 -0.5030  2.5272 -1.2343
  441MOL0     H59513   5.753  11.286   1.016 -0.2231 -3.4688  0.6888
  441MOL0     H59514   5.826  11.330   0.866  0.6481 -1.8839 -2.3506
  441MOL0     H59515   6.051  11.270   0.956  0.4233 -1.3792  2.3134
  441MOL0     H59516   5.968  11.203   1.103 -0.2022  0.2632 -1.4100
  441MOL0     H59517   5.033  10.847   0.669 -1.2812 -1.0122 -0.1002
  441MOL0     H59518   4.795  10.854   0.636  2.3677  0.3644 -1.2027
  441MOL0     H59519   4.261  11.026   0.969 -3.4748 -1.4334  0.6544
  441MOL0     H59520   4.049  10.997   0.873 -0.2434  4.5058 -0.8567
  441MOL0     H59521   3.127  11.183  -0.059  1.0238  0.2975 -1.0278
  441MOL0     H59522   2.925  11.290   0.035  0.1027  0.4720  0.5028
  441MOL0     H59523   2.724  11.771  -0.025 -1.3334  2.5994 -0.8895
  441MOL0     H59524   2.571  11.926   0.042 -0.7907 -0.2098 -3.8430
  441MOL0     H59525   2.143  11.780   0.133 -1.7336  0.5612  0.8191
  441MOL0     H59526   2.210  11.801   0.302 -0.9928 -0.9373  0.4372
  441MOL0     H59527   2.132  12.027   0.119 -0.2521  0.3374 -0.5009
  441MOL0     H59528   2.174  12.036   0.296 -0.7924  0.8488  0.2479
  441MOL0     H59529   1.967  11.898   0.340  1.2778  1.8403  1.1785
  441MOL0     H59530   1.919  11.922   0.163 -1.2852  1.7173 -0.3872
  441MOL0     H59531   1.937  12.160   0.200 -0.2429  0.5458  0.4356
  441MOL0     H59532   1.955  12.128   0.376 -0.6188 -0.7579  0.0993
  441MOL0     H59533   1.535  12.062   0.286 -0.1615  2.2546  0.1071
  441MOL0     H59534   2.320  11.606   0.172  0.7464  1.3972  3.2309
  441MOL0     H59535   2.474  11.457   0.099  1.6632  0.4059  1.4440
  442MOL0     O59536   1.410   3.903   5.934  0.2953 -1.3157 -0.4043
  442MOL0     C59537   1.494   3.818   5.913 -0.0416 -1.3597  0.0055
  442MOL0     O59538   1.476   3.684   5.907 -0.1942 -0.2480 -0.0675
  442MOL0     C59539   1.352   3.646   5.929 -0.4617  0.2857 -1.0996
  442MOL0     C59540   1.258   3.666   5.827  0.4689  0.3282  0.1995
  442MOL0     C59541   1.132   3.600   5.846  0.0352 -0.3422 -0.4961
  442MOL0     C59542   1.098   3.544   5.968  0.3561  0.1724  0.7837
  442MOL0     O59543   0.975   3.485   5.990  0.0139 -0.7466 -0.3265
  442MOL0     C59544   0.869   3.516   5.910 -0.2265 -0.5694  1.4107
  442MOL0     C59545   0.726   3.477   5.958 -0.0027 -0.2604 -0.1521
  442MOL0     C59546   0.620   3.536   5.864  0.2735  0.7275  0.3923
  442MOL0     C59547   0.571   3.673   5.917  0.8206 -0.9238 -0.6838
  442MOL0     C59548   0.490   3.759   5.818 -0.4880  0.5455 -0.8936
  442MOL0     C59549   0.476   3.901   5.881  0.8481 -0.6030  0.5967
  442MOL0     C59550   0.385   4.003   5.793 -0.2510  0.3298 -0.9688
  442MOL0     C59551   0.236   3.963   5.784 -0.4364  0.4210  1.2105
  442MOL0     N59552   0.196   3.880   5.663 -0.3357 -0.2261  0.1542
  442MOL0     C59553   0.098   3.778   5.664 -0.5861  0.2576 -1.3913
  442MOL0     C59554   0.092   3.730   5.540 -1.7086  0.0398  0.2469
  442MOL0     C59555   0.004   3.621   5.495 -0.8944 -0.3057 -0.4887
  442MOL0     C59556   0.066   3.482   5.517 -0.8509 -0.2423 -0.4941
  442MOL0     C59557   0.217   3.457   5.462  1.1675 -0.6811  0.5919
  442MOL0     C59558   0.235   3.308   5.437 -0.3091  0.2350  0.1169
  442MOL0     O59559   0.303   3.253   5.553 -0.2463  0.2757 -0.5446
  442MOL0     C59560   0.440   3.248   5.552  0.3075  0.1011 -1.0326
  442MOL0     C59561   0.524   3.308   5.463  0.0253 -0.7682  0.5270
  442MOL0     C59562   0.663   3.313   5.484 -0.2819  0.4687  0.1571
  442MOL0     C59563   0.733   3.419   5.410  0.2863  0.4322  0.1248
  442MOL0     C59564   0.720   3.244   5.594 -0.4085 -0.4372  0.0782
  442MOL0     C59565   0.864   3.253   5.634  0.0591  0.9763  0.6464
  442MOL0     O59566   0.905   3.166   5.734  0.0492 -0.2711  0.1382
  442MOL0     C59567   1.035   3.142   5.771 -0.3433 -0.9610 -0.3249
  442MOL0     C59568   1.060   3.059   5.886  0.8109 -0.6261 -0.1869
  442MOL0     C59569   1.183   3.038   5.939 -0.5758 -0.3905 -1.3267
  442MOL0     C59570   1.295   3.100   5.878  0.0448  0.4521 -0.6743
  442MOL0     O59571   1.419   3.081   5.940 -0.6050  0.0192  0.5594
  442MOL0     C59572   1.446   3.183   6.035  0.7956 -0.1285 -0.4364
  442MOL0     C59573   1.589   3.186   6.078  0.2125 -0.5064  0.7037
  442MOL0     C59574   1.603   3.320   6.155 -0.7579  0.5426 -1.3091
  442MOL0     C59575   1.739   3.315   6.225 -0.2274 -0.4176  0.8648
  442MOL0     C59576   1.741   3.418   6.333  1.3115  0.3073 -0.7243
  442MOL0     C59577   1.841   3.389   6.449  0.1071 -0.1390 -0.1159
  442MOL0     C59578   1.984   3.383   6.408  0.2516  0.4186  0.1740
  442MOL0     C59579   2.094   3.362   6.515 -0.3322 -0.1667 -0.0438
  442MOL0    Cl59580   2.116   3.507   6.612  0.4032  0.0686 -0.1868
  442MOL0     C59581   1.281   3.174   5.761 -0.0835 -0.3415  0.0205
  442MOL0     C59582   1.155   3.198   5.706  0.4005 -0.2598  0.7743
  442MOL0     O59583   0.934   3.339   5.577 -0.0452  0.5814 -0.4371
  442MOL0     C59584   0.639   3.164   5.673  0.5563 -0.4434 -0.4724
  442MOL0     C59585   0.497   3.176   5.663 -0.1140  0.9760  0.6261
  442MOL0     N59586   0.188   3.796   5.469 -0.4480  0.4924  0.2256
  442MOL0     N59587   0.258   3.863   5.552  0.1685 -1.1684 -0.5292
  442MOL0     C59588   1.189   3.534   6.069 -0.6132  0.3639 -0.1889
  442MOL0     C59589   1.320   3.577   6.046 -0.7365 -0.3493  0.8436
  442MOL0     C59590   1.636   3.865   5.903 -0.4763  0.0345  0.6985
  442MOL0     C59591   1.739   3.789   5.930  0.3672 -0.4230  0.0208
  442MOL0     C59592   1.874   3.834   5.937  0.2851  0.1620  0.1338
  442MOL0     C59593   1.899   3.973   5.916 -0.0133  0.2773 -0.4099
  442MOL0     O59594   2.019   4.017   5.932 -0.1630  0.7493  0.0987
  442MOL0     C59595   2.036   4.152   5.925 -1.3873 -0.6424 -0.1945
  442MOL0     C59596   2.186   4.168   5.935  0.0576 -0.7164 -0.0060
  442MOL0     C59597   2.221   4.318   5.918  0.7541  0.6519  0.3065
  442MOL0     C59598   2.368   4.346   5.935  0.2814  0.4951  0.4264
  442MOL0     C59599   2.398   4.471   5.861  0.2948  0.1194  0.0462
  442MOL0     C59600   2.428   4.566   5.792  1.0532 -0.0120 -0.3733
  442MOL0     C59601   1.789   4.053   5.886 -0.2366 -0.4958 -1.2949
  442MOL0     C59602   1.661   4.003   5.880 -0.2849  0.6557  0.0473
  442MOL0     H59603   1.298   3.707   5.735 -0.1970 -0.0029 -0.2498
  442MOL0     H59604   1.047   3.619   5.782  1.5882  2.5157 -1.8935
  442MOL0     H59605   0.869   3.624   5.891 -1.0560 -0.5347  1.5816
  442MOL0     H59606   0.882   3.469   5.812 -0.9297  0.7284  0.6549
  442MOL0     H59607   0.721   3.369   5.947  1.1548 -0.0322 -4.6444
  442MOL0     H59608   0.712   3.498   6.065 -1.0001 -2.4460  0.1884
  442MOL0     H59609   0.652   3.543   5.759 -2.2498 -2.1598 -0.7417
  442MOL0     H59610   0.533   3.470   5.866  0.1783  0.7230 -1.4899
  442MOL0     H59611   0.508   3.668   6.007 -1.3977  5.0906 -1.4634
  442MOL0     H59612   0.654   3.735   5.952  2.0637 -1.1210 -3.1261
  442MOL0     H59613   0.547   3.770   5.726  4.3765  2.6974  1.9962
  442MOL0     H59614   0.391   3.711   5.809  0.2773 -1.1326 -0.8038
  442MOL0     H59615   0.432   3.906   5.982 -2.6651  3.8832 -0.7829
  442MOL0     H59616   0.573   3.952   5.879  0.4532  0.1713 -1.7845
  442MOL0     H59617   0.389   4.094   5.854 -1.1109  0.9436 -1.8096
  442MOL0     H59618   0.433   4.021   5.696 -1.6172  1.5384 -1.4463
  442MOL0     H59619   0.166   4.047   5.783  0.5226  1.2413  0.9114
  442MOL0     H59620   0.218   3.911   5.879  0.8273 -0.4388  1.0136
  442MOL0     H59621   0.045   3.731   5.746 -0.8201  0.1339 -1.6121
  442MOL0     H59622  -0.090   3.623   5.551  1.1675 -0.1401  3.2932
  442MOL0     H59623  -0.014   3.649   5.391 -0.8045 -0.6561 -0.6003
  442MOL0     H59624   0.004   3.414   5.458 -0.8495  0.8891 -1.8735
  442MOL0     H59625   0.061   3.459   5.623  3.4438  3.2900  0.7647
  442MOL0     H59626   0.288   3.503   5.532  1.4214  2.4392 -1.5030
  442MOL0     H59627   0.229   3.514   5.370 -0.5533 -1.8603 -0.4126
  442MOL0     H59628   0.301   3.298   5.350  3.5515  2.0535  2.5215
  442MOL0     H59629   0.144   3.249   5.422  1.0230 -3.1554  3.5512
  442MOL0     H59630   0.489   3.376   5.386 -1.6225 -0.9454  1.0870
  442MOL0     H59631   0.771   3.504   5.467  1.9994  0.5559 -1.1290
  442MOL0     H59632   0.817   3.374   5.356 -0.1197  2.6467 -2.5717
  442MOL0     H59633   0.675   3.467   5.331 -0.5132 -1.0307 -0.2180
  442MOL0     H59634   0.978   3.018   5.944  0.0015  0.5483 -0.4561
  442MOL0     H59635   1.209   2.982   6.028  2.1008  0.5403 -1.4331
  442MOL0     H59636   1.411   3.282   6.004  1.4346  0.5933  1.0195
  442MOL0     H59637   1.391   3.163   6.127 -0.7197 -1.8005 -1.6309
  442MOL0     H59638   1.625   3.098   6.133  2.0578  0.5919  1.3702
  442MOL0     H59639   1.648   3.184   5.986 -1.8133  3.3213 -0.8921
  442MOL0     H59640   1.531   3.336   6.235  3.6104 -0.3964  3.3376
  442MOL0     H59641   1.591   3.410   6.094 -0.7760 -0.4124 -2.7650
  442MOL0     H59642   1.755   3.213   6.263 -0.9707 -1.5520 -1.6184
  442MOL0     H59643   1.826   3.335   6.161 -1.4858 -1.1113 -1.1474
  442MOL0     H59644   1.645   3.433   6.383  1.5718  0.3038 -0.2113
  442MOL0     H59645   1.755   3.516   6.287  1.1032 -0.5329 -2.7015
  442MOL0     H59646   1.838   3.466   6.527 -0.2244 -0.2553 -0.0089
  442MOL0     H59647   1.823   3.293   6.497  3.6400 -0.9609 -0.1771
  442MOL0     H59648   2.015   3.476   6.359 -0.7956  0.4573 -0.4363
  442MOL0     H59649   1.985   3.302   6.334 -2.8500 -0.0428  0.4949
  442MOL0     H59650   2.191   3.342   6.469  0.7158  2.6343  0.7286
  442MOL0     H59651   2.065   3.271   6.570 -0.7143  0.0446  0.1119
  442MOL0     H59652   1.369   3.204   5.705 -1.3767 -0.1656 -2.0071
  442MOL0     H59653   1.148   3.271   5.626  4.2305  0.1524  0.6237
  442MOL0     H59654   0.681   3.097   5.747  1.4541  0.4612 -0.1423
  442MOL0     H59655   0.440   3.117   5.734 -3.3192  1.6410 -1.1865
  442MOL0     H59656   1.163   3.495   6.167  1.8648  0.3915  0.5483
  442MOL0     H59657   1.396   3.575   6.123  2.2258 -2.2345 -1.8804
  442MOL0     H59658   1.714   3.687   5.958 -1.1238 -0.5482 -1.5789
  442MOL0     H59659   1.956   3.765   5.956  0.8319  0.4664 -1.0184
  442MOL0     H59660   2.000   4.209   5.839 -0.3469  1.5773  0.7712
  442MOL0     H59661   1.988   4.189   6.015  0.4237  2.0109 -0.1907
  442MOL0     H59662   2.235   4.111   5.856 -0.2238 -1.6311  0.4621
  442MOL0     H59663   2.231   4.128   6.026  1.5011  0.1247 -0.3357
  442MOL0     H59664   2.164   4.374   5.993  0.6509  2.2051 -0.8834
  442MOL0     H59665   2.179   4.348   5.822  0.6927  1.6675  0.6382
  442MOL0     H59666   2.435   4.264   5.908  2.9444  2.2266  1.3539
  442MOL0     H59667   2.377   4.360   6.043 -2.8574 -0.0356  0.8563
  442MOL0     H59668   2.433   4.656   5.734  1.0625 -0.2735 -0.7825
  442MOL0     H59669   1.795   4.162   5.888  0.7730 -0.4671  3.1071
  442MOL0     H59670   1.575   4.063   5.851 -1.8235 -0.8233  1.3382
  443MOL0     O59671   3.083   1.517   1.522  0.6270  0.2685 -0.6318
  443MOL0     C59672   2.970   1.474   1.546  0.5000 -0.3693  0.6353
  443MOL0     O59673   2.867   1.537   1.602 -0.7057 -0.2534  0.2668
  443MOL0     C59674   2.885   1.669   1.633  0.5070  0.4215 -0.2219
  443MOL0     C59675   2.811   1.769   1.570 -0.0369 -0.3381  0.5400
  443MOL0     C59676   2.815   1.900   1.613 -0.2424 -0.4444 -0.0898
  443MOL0     C59677   2.907   1.938   1.710 -0.6968 -0.6516  0.5516
  443MOL0     O59678   2.904   2.076   1.745 -0.0650  0.5393  0.6581
  443MOL0     C59679   3.015   2.137   1.678 -0.5510  0.1423 -0.4177
  443MOL0     C59680   3.073   2.240   1.768 -0.3880  1.1939 -0.8592
  443MOL0     C59681   3.185   2.331   1.715  0.6847 -0.1658  0.3375
  443MOL0     C59682   3.263   2.385   1.832 -0.6103 -0.1478  0.2432
  443MOL0     C59683   3.374   2.481   1.790  0.0113 -0.5734  0.6217
  443MOL0     C59684   3.485   2.402   1.721  0.5404 -0.0342 -0.5788
  443MOL0     C59685   3.619   2.471   1.691 -0.6696 -0.4100 -0.5781
  443MOL0     C59686   3.619   2.537   1.555 -0.0487  0.2010  0.2492
  443MOL0     N59687   3.730   2.635   1.536  0.4050 -0.0480 -0.3064
  443MOL0     C59688   3.737   2.761   1.585  0.1257 -0.3718  0.2231
  443MOL0     C59689   3.842   2.814   1.533 -0.6065 -0.7452  0.9373
  443MOL0     C59690   3.880   2.961   1.556  0.3206  0.1534 -0.0282
  443MOL0     C59691   3.923   3.048   1.431  0.3310  0.5498  1.3115
  443MOL0     C59692   3.917   3.198   1.466 -0.5005  0.2541 -0.8609
  443MOL0     C59693   4.005   3.226   1.585  0.8527 -0.1600  0.4177
  443MOL0     O59694   4.022   3.368   1.586  0.3652 -0.0097  0.3588
  443MOL0     C59695   4.138   3.414   1.632  0.8744  0.1794 -0.3460
  443MOL0     C59696   4.205   3.512   1.571  0.0633 -0.2744  0.4312
  443MOL0     C59697   4.333   3.554   1.612 -0.4544 -0.7226  0.3671
  443MOL0     C59698   4.401   3.665   1.542  0.6399  0.2341  0.6839
  443MOL0     C59699   4.391   3.504   1.727  0.5899 -0.2706 -0.9619
  443MOL0     C59700   4.503   3.563   1.804  0.0529 -1.2461 -0.1217
  443MOL0     O59701   4.510   3.529   1.933  0.3138 -0.0529 -0.3379
  443MOL0     C59702   4.633   3.544   1.994  0.1669 -0.2628  0.4414
  443MOL0     C59703   4.643   3.595   2.123  0.5328 -0.2931  0.1840
  443MOL0     C59704   4.764   3.616   2.191  0.7472  0.5074 -1.4321
  443MOL0     C59705   4.880   3.579   2.131 -0.2181  0.2609 -0.0345
  443MOL0     O59706   5.000   3.613   2.194  0.3115  0.0246  0.1870
  443MOL0     C59707   5.115   3.591   2.114 -1.2288  0.5468 -0.4163
  443MOL0     C59708   5.243   3.599   2.203  0.0110 -0.1243  1.0605
  443MOL0     C59709   5.364   3.642   2.127 -0.1001  0.2094 -0.2961
  443MOL0     C59710   5.388   3.555   1.999  0.8313 -0.8569 -0.6774
  443MOL0     C59711   5.542   3.567   1.967  0.2731  0.1516 -0.2874
  443MOL0     C59712   5.577   3.704   1.922 -0.3695 -0.0979  0.8963
  443MOL0     C59713   5.717   3.720   1.867  0.0230  0.1825  0.4561
  443MOL0     C59714   5.750   3.853   1.791 -0.1916  0.7803 -1.0087
  443MOL0    Cl59715   5.609   3.920   1.705 -0.3096  0.5654  0.3014
  443MOL0     C59716   4.869   3.514   2.006 -0.6250  0.1167 -0.1679
  443MOL0     C59717   4.749   3.484   1.944  0.5668 -0.4414 -0.1570
  443MOL0     O59718   4.586   3.631   1.743  0.0516 -0.2455  0.8058
  443MOL0     C59719   4.322   3.406   1.790  0.7998 -0.0666  0.4391
  443MOL0     C59720   4.196   3.367   1.744 -0.2980  0.8792 -0.3460
  443MOL0     N59721   3.895   2.730   1.434 -0.0481  0.1769  0.1625
  443MOL0     N59722   3.820   2.626   1.435 -0.8553 -0.5988 -0.1115
  443MOL0     C59723   2.980   1.845   1.780 -0.3650 -0.2677 -0.1196
  443MOL0     C59724   2.967   1.712   1.738 -0.2968 -0.8944  0.3041
  443MOL0     C59725   2.928   1.348   1.484 -0.5924 -0.2373 -0.3182
  443MOL0     C59726   3.014   1.276   1.397 -0.2852  0.7467  0.0984
  443MOL0     C59727   2.970   1.160   1.337 -0.0529 -0.5596  0.5313
  443MOL0     C59728   2.839   1.121   1.342 -0.2135 -0.2942 -0.1343
  443MOL0     O59729   2.789   1.007   1.285 -0.2390 -0.4035  0.2469
  443MOL0     C59730   2.879   0.928   1.212 -0.4065  0.3334  0.7309
  443MOL0     C59731   2.812   0.796   1.153 -1.5700  0.6949  0.5096
  443MOL0     C59732   2.923   0.702   1.116  0.6293 -0.5742  0.8023
  443MOL0     C59733   2.873   0.582   1.052 -0.1589  1.1757  0.3061
  443MOL0     C59734   2.879   0.466   1.144  0.5667  0.0914  0.1302
  443MOL0     C59735   2.874   0.364   1.211 -1.0398 -0.4001  0.1021
  443MOL0     C59736   2.750   1.196   1.417  0.0939 -0.0774 -0.4974
  443MOL0     C59737   2.795   1.306   1.491  1.0492  0.0848 -0.0722
  443MOL0     H59738   2.741   1.755   1.488  0.4281  2.2641 -0.3973
  443MOL0     H59739   2.758   1.971   1.552  1.4790 -1.9949 -3.8506
  443MOL0     H59740   3.093   2.061   1.670 -0.1453  0.3022  1.5793
  443MOL0     H59741   2.989   2.181   1.581 -2.1012  2.6136  1.0275
  443MOL0     H59742   2.998   2.308   1.810  1.9563  1.4011  3.6036
  443MOL0     H59743   3.115   2.176   1.846  2.1473  1.2491 -2.0501
  443MOL0     H59744   3.235   2.269   1.639 -0.2938  1.2336 -1.5012
  443MOL0     H59745   3.141   2.412   1.656  1.3208  1.1532  1.6335
  443MOL0     H59746   3.203   2.439   1.907  1.3431 -0.4687  2.1481
  443MOL0     H59747   3.309   2.306   1.892 -0.4536  0.5251  1.0311
  443MOL0     H59748   3.356   2.562   1.719  2.7069  0.1877  0.6950
  443MOL0     H59749   3.411   2.519   1.886 -0.0657  1.3150 -0.0483
  443MOL0     H59750   3.496   2.325   1.798 -0.6256  1.6784  1.4079
  443MOL0     H59751   3.457   2.367   1.621 -0.0195 -0.0193 -0.4340
  443MOL0     H59752   3.645   2.547   1.765 -0.6359  1.8090 -2.7539
  443MOL0     H59753   3.696   2.394   1.704  0.4916  1.1223  2.7754
  443MOL0     H59754   3.525   2.587   1.529 -0.2306 -0.9286 -1.4213
  443MOL0     H59755   3.631   2.455   1.484 -1.6554  0.3401 -0.2263
  443MOL0     H59756   3.680   2.821   1.656  2.6521  1.8618  0.5113
  443MOL0     H59757   3.805   3.020   1.609 -1.2834  0.6776 -2.6642
  443MOL0     H59758   3.973   2.957   1.613  0.8784  1.1659 -0.8430
  443MOL0     H59759   3.858   3.022   1.346  4.1077 -0.2874 -1.6066
  443MOL0     H59760   4.023   3.025   1.394  0.2810  0.8652  0.9707
  443MOL0     H59761   3.818   3.244   1.472 -0.3823  0.3557  0.5957
  443MOL0     H59762   3.961   3.244   1.377 -2.4241  2.3465 -0.8107
  443MOL0     H59763   4.104   3.178   1.585  0.1485 -1.6961 -0.9922
  443MOL0     H59764   3.952   3.194   1.676  2.7649 -1.0163  1.2987
  443MOL0     H59765   4.164   3.556   1.480  0.6350 -0.1110  0.2472
  443MOL0     H59766   4.494   3.620   1.506  1.3510  0.7000  1.8997
  443MOL0     H59767   4.339   3.697   1.457  3.9259 -0.7910 -2.3276
  443MOL0     H59768   4.436   3.743   1.610  1.3175 -0.5450  1.2468
  443MOL0     H59769   4.555   3.640   2.168  2.0893  1.2425  1.8768
  443MOL0     H59770   4.777   3.673   2.282  1.6651 -2.8177  0.6962
  443MOL0     H59771   5.113   3.491   2.072  1.9691 -0.2079  0.9344
  443MOL0     H59772   5.127   3.662   2.032 -0.9245  2.0116  0.8435
  443MOL0     H59773   5.232   3.659   2.294 -1.1398 -0.9379  1.4771
  443MOL0     H59774   5.261   3.496   2.235 -0.9710 -0.3653  0.8496
  443MOL0     H59775   5.447   3.641   2.198 -0.9307 -1.0844  0.6978
  443MOL0     H59776   5.349   3.745   2.094  0.4458  0.1996 -0.5909
  443MOL0     H59777   5.354   3.452   2.011  0.8421 -1.7025 -5.6430
  443MOL0     H59778   5.334   3.591   1.912 -0.5847 -0.8605  0.1754
  443MOL0     H59779   5.567   3.488   1.896 -0.4281  0.9336 -1.4258
  443MOL0     H59780   5.609   3.544   2.051 -1.1479 -1.3355  0.4787
  443MOL0     H59781   5.512   3.719   1.835  1.8282  0.1266 -0.8004
  443MOL0     H59782   5.556   3.772   2.004  1.1714 -1.9337  2.9117
  443MOL0     H59783   5.731   3.641   1.794  0.0054  1.7151 -1.2859
  443MOL0     H59784   5.791   3.706   1.947 -1.3333 -1.2237  1.5381
  443MOL0     H59785   5.834   3.828   1.724 -0.1283 -0.1659 -0.5910
  443MOL0     H59786   5.781   3.922   1.869  2.0919 -1.2433  0.0386
  443MOL0     H59787   4.950   3.477   1.944  1.0026  1.7934  0.8458
  443MOL0     H59788   4.746   3.431   1.850 -2.5791  2.9944 -2.2531
  443MOL0     H59789   4.355   3.359   1.882  0.3908  2.2823  1.8624
  443MOL0     H59790   4.138   3.294   1.799  1.9721 -0.2219  0.7351
  443MOL0     H59791   3.036   1.871   1.869  0.6538  0.4379 -0.9463
  443MOL0     H59792   3.028   1.635   1.784  0.1797 -0.3304  0.6286
  443MOL0     H59793   3.117   1.308   1.384  0.1944 -1.6486 -3.1784
  443MOL0     H59794   3.053   1.106   1.291  0.0618 -0.8313  1.0422
  443MOL0     H59795   2.917   0.982   1.125 -0.8379 -1.3181 -0.5505
  443MOL0     H59796   2.961   0.896   1.277  0.5362 -0.9498 -0.9973
  443MOL0     H59797   2.758   0.816   1.060 -2.0401  2.7329  1.1723
  443MOL0     H59798   2.746   0.757   1.230 -1.0293  2.6408  2.0424
  443MOL0     H59799   2.989   0.687   1.202  1.4147 -1.9075 -0.0052
  443MOL0     H59800   2.990   0.756   1.048 -0.5142 -1.2938 -0.9479
  443MOL0     H59801   2.933   0.563   0.962 -4.6536  0.1178 -2.8399
  443MOL0     H59802   2.771   0.590   1.012  0.0309 -1.7804 -1.0934
  443MOL0     H59803   2.891   0.275   1.268 -0.4036  0.4324  1.2558
  443MOL0     H59804   2.645   1.169   1.428 -0.3367  1.1713 -1.2953
  443MOL0     H59805   2.723   1.356   1.554  0.7941 -1.1674  0.6802
  444MOL0     O59806   7.311   5.666  10.721 -0.4099  0.0289 -0.5447
  444MOL0     C59807   7.305   5.772  10.668 -0.5404 -0.2617 -0.5978
  444MOL0     O59808   7.258   5.891  10.723  0.6056 -0.1724  0.3947
  444MOL0     C59809   7.205   5.902  10.847  0.1224  0.8936  0.4198
  444MOL0     C59810   7.109   5.807  10.904 -1.0308  0.1161 -0.0995
  444MOL0     C59811   7.033   5.830  11.023 -0.3264  0.6474 -1.0874
  444MOL0     C59812   7.056   5.954  11.082 -1.0056  1.0473 -1.1675
  444MOL0     O59813   6.970   5.987  11.175  0.1033 -0.3584 -0.3014
  444MOL0     C59814   6.987   5.932  11.307  0.2835 -0.1683  0.6133
  444MOL0     C59815   6.902   6.024  11.390 -0.1987  0.1405  0.4010
  444MOL0     C59816   6.932   5.992  11.535  0.1565  0.5798  0.4800
  444MOL0     C59817   6.826   6.053  11.632 -0.9112  0.3278 -1.0928
  444MOL0     C59818   6.855   6.026  11.787  0.1103  0.2738  0.3721
  444MOL0     C59819   6.751   6.081  11.879 -0.4984  0.2401 -0.2267
  444MOL0     C59820   6.766   6.067  12.027 -0.0901  0.5771 -0.9897
  444MOL0     C59821   6.639   6.095  12.109  0.5327 -0.1098  0.8005
  444MOL0     N59822   6.662   6.110  12.251 -0.0263  0.4629  0.2193
  444MOL0     C59823   6.700   6.009  12.323 -0.6743  1.1589  0.1065
  444MOL0     C59824   6.685   6.051  12.446  0.1832  0.1236 -0.1365
  444MOL0     C59825   6.729   5.978  12.574 -0.1047 -1.3298  0.6819
  444MOL0     C59826   6.635   5.991  12.694 -0.0516  0.3836 -0.3045
  444MOL0     C59827   6.705   5.924  12.809 -0.4212  0.4325  0.0826
  444MOL0     C59828   6.613   5.887  12.932  0.5989 -1.4305 -0.4459
  444MOL0     O59829   6.684   5.796  13.020  0.1721  0.0721 -0.6866
  444MOL0     C59830   6.643   5.787  13.154  0.1799  0.4140 -0.0083
  444MOL0     C59831   6.726   5.717  13.232 -0.2391 -0.0354  0.2996
  444MOL0     C59832   6.701   5.705  13.372 -0.8177  0.0083 -0.2801
  444MOL0     C59833   6.801   5.635  13.460  0.0973  0.7772 -0.5100
  444MOL0     C59834   6.588   5.769  13.425  0.0881 -0.3747 -0.1324
  444MOL0     C59835   6.549   5.769  13.565  0.7439  0.0908 -1.0689
  444MOL0     O59836   6.484   5.889  13.611 -0.3348  0.2182  0.0275
  444MOL0     C59837   6.394   5.876  13.716  0.3325  1.0370  0.5360
  444MOL0     C59838   6.423   5.920  13.849 -0.4056 -0.7094 -0.0834
  444MOL0     C59839   6.326   5.920  13.952 -0.3844  0.2743 -0.6354
  444MOL0     C59840   6.202   5.871  13.926  0.9331  0.3387  0.3173
  444MOL0     O59841   6.102   5.884  14.033 -0.6916  0.0810  0.2678
  444MOL0     C59842   5.965   5.890  13.986  0.5452 -0.6225 -0.1900
  444MOL0     C59843   5.883   5.895  14.123 -0.1090 -1.0553  0.5602
  444MOL0     C59844   5.876   5.764  14.202  0.4179  0.2374  0.6396
  444MOL0     C59845   5.756   5.770  14.304 -0.2916 -0.0173 -0.3789
  444MOL0     C59846   5.742   5.626  14.367  0.3953 -0.8266 -0.5700
  444MOL0     C59847   5.607   5.642  14.455 -0.6723  0.7777  0.8981
  444MOL0     C59848   5.483   5.656  14.386  0.8605 -1.0587  0.4002
  444MOL0     C59849   5.445   5.528  14.315 -0.8813  0.4214 -0.6653
  444MOL0    Cl59850   5.524   5.525  14.155  0.3093  0.4695  0.5521
  444MOL0     C59851   6.173   5.811  13.800  0.0998  1.3597 -0.1070
  444MOL0     C59852   6.266   5.813  13.697  0.8773  0.1896  0.0613
  444MOL0     O59853   6.570   5.668  13.631 -0.5518 -0.3114 -0.2678
  444MOL0     C59854   6.504   5.836  13.343  0.4786 -0.5061 -0.0120
  444MOL0     C59855   6.526   5.842  13.209 -0.3286  0.5836  0.7000
  444MOL0     N59856   6.642   6.179  12.445  0.7180 -0.3617 -0.3004
  444MOL0     N59857   6.622   6.214  12.326 -1.4378 -0.5933 -0.1049
  444MOL0     C59858   7.151   6.045  11.035  0.7091  0.1221 -0.4485
  444MOL0     C59859   7.210   6.026  10.917  0.0089 -0.5241 -0.5967
  444MOL0     C59860   7.346   5.776  10.528 -0.2923  0.8560  0.6080
  444MOL0     C59861   7.420   5.661  10.472 -0.4145 -0.9637 -0.1295
  444MOL0     C59862   7.453   5.672  10.338  0.3824  0.4190 -0.4631
  444MOL0     C59863   7.417   5.779  10.247  0.4118 -0.2077 -0.9713
  444MOL0     O59864   7.448   5.774  10.111 -0.2560 -0.2220 -1.0563
  444MOL0     C59865   7.569   5.716  10.073  0.6040  0.0230  0.2943
  444MOL0     C59866   7.603   5.765   9.934 -0.3394 -0.7507  0.4360
  444MOL0     C59867   7.543   5.677   9.826  0.1994 -0.1587  0.2938
  444MOL0     C59868   7.612   5.548   9.798 -0.3821  0.8592  0.8857
  444MOL0     C59869   7.562   5.474   9.679 -1.1292  0.2134  0.6794
  444MOL0     C59870   7.503   5.429   9.582 -0.1416  0.3057 -0.0982
  444MOL0     C59871   7.339   5.885  10.302  0.3029  0.9467 -0.1311
  444MOL0     C59872   7.308   5.885  10.443 -0.9871 -0.3604 -0.4979
  444MOL0     H59873   7.077   5.719  10.849  2.5571 -1.6014  0.3054
  444MOL0     H59874   6.955   5.754  11.029  0.2849  0.0044 -1.0704
  444MOL0     H59875   6.947   5.830  11.308  2.1338 -0.9262  0.4562
  444MOL0     H59876   7.088   5.943  11.348 -0.2689  1.1840  1.6841
  444MOL0     H59877   6.933   6.125  11.363  1.6837 -0.9659 -2.0034
  444MOL0     H59878   6.799   6.002  11.361 -0.2852 -1.1215  1.5637
  444MOL0     H59879   6.940   5.883  11.544  0.5163  0.0473 -4.0514
  444MOL0     H59880   7.026   6.034  11.574  2.3219 -1.1845 -2.4206
  444MOL0     H59881   6.802   6.158  11.616 -1.8893  0.8344  2.6441
  444MOL0     H59882   6.735   6.003  11.598 -1.6468  1.4589 -0.8723
  444MOL0     H59883   6.851   5.919  11.807  1.4023 -0.3168 -2.1433
  444MOL0     H59884   6.958   6.060  11.805  0.2009 -0.1214  0.6103
  444MOL0     H59885   6.737   6.186  11.852 -1.3543 -0.1937 -1.5602
  444MOL0     H59886   6.661   6.031  11.844 -0.3754  0.3358 -0.6870
  444MOL0     H59887   6.802   5.971  12.067  1.8098  2.4806  2.4015
  444MOL0     H59888   6.846   6.136  12.057  1.0754 -1.4415  0.9073
  444MOL0     H59889   6.561   6.020  12.095 -0.0028  0.1771  2.0571
  444MOL0     H59890   6.594   6.182  12.061  0.0916 -1.6253 -1.6991
  444MOL0     H59891   6.723   5.907  12.293 -1.5374  0.2438  2.3944
  444MOL0     H59892   6.741   5.872  12.549 -0.9002 -0.9137 -1.7238
  444MOL0     H59893   6.823   6.028  12.597 -2.1335  3.3467 -0.0299
  444MOL0     H59894   6.534   5.961  12.664 -0.6301 -0.8210  2.5211
  444MOL0     H59895   6.630   6.095  12.727 -2.5928 -0.1756  1.3530
  444MOL0     H59896   6.793   5.974  12.848  0.5672 -2.1197  1.3578
  444MOL0     H59897   6.752   5.831  12.777  2.8505  1.2689  2.0668
  444MOL0     H59898   6.526   5.831  12.898 -0.1840 -1.8897  2.0747
  444MOL0     H59899   6.570   5.975  12.980  0.6327 -2.1075  0.8652
  444MOL0     H59900   6.823   5.681  13.201  0.7739  2.2090  0.6969
  444MOL0     H59901   6.902   5.663  13.428  1.4921 -0.8222  2.1232
  444MOL0     H59902   6.799   5.657  13.567 -1.3942 -0.0559 -0.3418
  444MOL0     H59903   6.803   5.527  13.444  1.5351  1.1595 -4.1229
  444MOL0     H59904   6.511   5.969  13.889 -2.4489  0.1601  3.7621
  444MOL0     H59905   6.349   5.967  14.046  3.4219  0.5416 -1.5393
  444MOL0     H59906   5.962   5.992  13.945  1.9969 -0.3718  0.2793
  444MOL0     H59907   5.929   5.809  13.922  0.7652  0.2212 -1.4049
  444MOL0     H59908   5.930   5.965  14.192 -1.8770  0.8818 -0.0848
  444MOL0     H59909   5.790   5.946  14.096  1.6387  2.3915  0.5421
  444MOL0     H59910   5.972   5.752  14.253  0.3915  0.0058  0.6344
  444MOL0     H59911   5.857   5.683  14.131 -0.7365 -0.6231  1.8936
  444MOL0     H59912   5.772   5.850  14.377 -0.7231 -0.2759  0.0023
  444MOL0     H59913   5.664   5.800  14.253 -1.1135 -1.7432  0.0041
  444MOL0     H59914   5.833   5.604  14.423 -0.1917 -1.1533  0.2856
  444MOL0     H59915   5.732   5.545  14.295  1.7683 -0.3432 -1.3406
  444MOL0     H59916   5.606   5.565  14.532 -0.8073  0.4331  0.5509
  444MOL0     H59917   5.616   5.733  14.515 -1.3924  1.3497  0.1533
  444MOL0     H59918   5.474   5.747  14.326  2.3691 -1.4124 -0.4156
  444MOL0     H59919   5.407   5.662  14.464 -0.4049 -3.9963 -0.4686
  444MOL0     H59920   5.336   5.531  14.304 -1.2834  3.1875  2.3837
  444MOL0     H59921   5.466   5.437  14.373 -0.2678  0.7393 -0.3750
  444MOL0     H59922   6.078   5.762  13.781 -0.3611  2.6207 -1.2311
  444MOL0     H59923   6.250   5.761  13.602  0.8633  0.0511  0.1391
  444MOL0     H59924   6.417   5.890  13.380  1.3861  0.2087  1.1365
  444MOL0     H59925   6.455   5.891  13.144  0.4193  0.8972  0.1101
  444MOL0     H59926   7.158   6.143  11.081  0.6923  1.2273 -2.6663
  444MOL0     H59927   7.261   6.109  10.868 -3.2686  3.0846  1.5508
  444MOL0     H59928   7.446   5.571  10.527  2.1177  0.0516  0.4295
  444MOL0     H59929   7.521   5.600  10.294  0.7720  2.0034 -2.5802
  444MOL0     H59930   7.655   5.740  10.136  4.3160 -0.6061 -3.9770
  444MOL0     H59931   7.548   5.608  10.075 -0.9414  0.2826 -0.1773
  444MOL0     H59932   7.710   5.776   9.914 -0.3191  1.7485  1.6139
  444MOL0     H59933   7.577   5.870   9.928  0.8120 -0.2744  2.5904
  444MOL0     H59934   7.532   5.736   9.734  0.6046 -0.9437 -0.2808
  444MOL0     H59935   7.439   5.663   9.859 -1.3004  1.2028 -3.3273
  444MOL0     H59936   7.619   5.477   9.881  1.8642 -2.9809 -2.1786
  444MOL0     H59937   7.715   5.572   9.770 -0.6171  0.6652 -0.1971
  444MOL0     H59938   7.455   5.385   9.497  0.0757  0.2381 -0.1870
  444MOL0     H59939   7.307   5.962  10.233 -4.1388  1.6133  2.2434
  444MOL0     H59940   7.252   5.972  10.478 -1.0483 -0.4761 -0.3052
  445MOL0     O59941   6.660   1.382   8.556  0.0303  0.0607 -0.5795
  445MOL0     C59942   6.658   1.282   8.491 -0.6492 -0.3246 -0.4074
  445MOL0     O59943   6.565   1.246   8.399 -0.0960 -0.2866  0.3028
  445MOL0     C59944   6.436   1.295   8.396 -0.0657 -1.1709  0.6642
  445MOL0     C59945   6.355   1.335   8.512 -0.2056  0.4337  0.5826
  445MOL0     C59946   6.229   1.390   8.501 -1.0047  0.2083 -0.4919
  445MOL0     C59947   6.189   1.431   8.369 -0.2484  0.1903  0.7777
  445MOL0     O59948   6.072   1.498   8.335  0.7219  0.5810  1.0949
  445MOL0     C59949   6.025   1.582   8.438  0.5830 -0.2904 -0.6905
  445MOL0     C59950   5.921   1.681   8.399  0.7863  0.4388 -0.2222
  445MOL0     C59951   5.984   1.808   8.336  0.0862  0.1854 -0.4090
  445MOL0     C59952   5.889   1.907   8.274 -0.2002  0.3161 -0.0364
  445MOL0     C59953   5.979   2.014   8.200  0.0684 -0.1495  0.7787
  445MOL0     C59954   5.890   2.099   8.097 -0.4024 -0.4834  0.3973
  445MOL0     C59955   5.784   2.170   8.172  0.0408  0.4624 -0.6537
  445MOL0     C59956   5.768   2.322   8.132 -0.8405  0.6032  0.1472
  445MOL0     N59957   5.652   2.369   8.197 -0.1796 -0.4969  0.1093
  445MOL0     C59958   5.537   2.401   8.135  0.1567  0.3542  0.4477
  445MOL0     C59959   5.455   2.471   8.231 -0.5669 -0.5630 -0.4506
  445MOL0     C59960   5.315   2.517   8.198  0.3930 -1.3107  0.0063
  445MOL0     C59961   5.275   2.658   8.235 -0.2464  0.7768  0.4560
  445MOL0     C59962   5.133   2.695   8.203  0.6195 -0.3101  0.3339
  445MOL0     C59963   5.130   2.733   8.054 -0.0725  0.3643  0.1455
  445MOL0     O59964   5.160   2.870   8.027  0.0106 -0.0540 -0.2362
  445MOL0     C59965   5.164   2.909   7.892  0.2103 -0.1986 -0.3268
  445MOL0     C59966   5.113   2.828   7.789 -0.5741 -0.5700  0.1570
  445MOL0     C59967   5.129   2.863   7.650  0.3318  0.3303 -0.1025
  445MOL0     C59968   5.116   2.750   7.552 -0.0056  0.9137  0.0278
  445MOL0     C59969   5.170   2.990   7.612 -0.2868 -0.8083 -0.0700
  445MOL0     C59970   5.153   3.027   7.481 -0.3886 -0.9741  0.3766
  445MOL0     O59971   5.268   3.088   7.421  0.6109  1.0241  0.3879
  445MOL0     C59972   5.244   3.172   7.315  0.2980 -0.5963  0.5554
  445MOL0     C59973   5.246   3.114   7.187 -0.3016 -0.0384  0.5537
  445MOL0     C59974   5.239   3.193   7.065 -0.1456 -0.3062 -0.7077
  445MOL0     C59975   5.212   3.329   7.079 -1.5211 -0.6840  0.3384
  445MOL0     O59976   5.206   3.404   6.961  0.2009  0.2227 -0.0538
  445MOL0     C59977   5.334   3.461   6.916  1.2795  0.5608 -1.1420
  445MOL0     C59978   5.331   3.606   6.871  0.5719 -1.5803  0.4501
  445MOL0     C59979   5.225   3.649   6.769  0.4854 -0.5374  0.0200
  445MOL0     C59980   5.228   3.576   6.633 -0.0757 -0.3410 -0.1913
  445MOL0     C59981   5.094   3.600   6.561 -0.3894  0.6191  0.1787
  445MOL0     C59982   5.092   3.553   6.411 -0.1242 -0.0449 -0.1053
  445MOL0     C59983   4.979   3.615   6.320  0.2738 -0.6663 -0.2372
  445MOL0     C59984   5.008   3.600   6.166 -0.3643 -0.3010  0.5944
  445MOL0    Cl59985   4.885   3.671   6.059  0.6915  0.4881 -0.0911
  445MOL0     C59986   5.196   3.385   7.203 -0.8140 -0.7857 -0.6289
  445MOL0     C59987   5.202   3.310   7.323 -0.1721  0.2736  0.0510
  445MOL0     O59988   5.037   3.019   7.432 -0.5512  0.4065 -0.1224
  445MOL0     C59989   5.223   3.075   7.713 -0.6195  1.1862 -0.3906
  445MOL0     C59990   5.211   3.032   7.851  0.1806 -0.7047 -0.5244
  445MOL0     N59991   5.537   2.484   8.341  0.4172  0.4542 -0.5724
  445MOL0     N59992   5.652   2.428   8.323  0.3783 -0.3642 -0.5702
  445MOL0     C59993   6.278   1.413   8.261  0.2912  0.4280  0.3260
  445MOL0     C59994   6.395   1.336   8.273 -0.6428 -0.1504 -1.1260
  445MOL0     C59995   6.777   1.193   8.499 -0.3811  0.3873  0.0814
  445MOL0     C59996   6.807   1.111   8.383  0.8981  0.0544 -0.9539
  445MOL0     C59997   6.917   1.027   8.385  0.3582  0.1011 -0.6913
  445MOL0     C59998   7.013   1.041   8.490  0.0994 -0.4426  0.7606
  445MOL0     O59999   7.131   0.968   8.477 -0.8819 -0.3347 -0.3086
  445MOL0     C60000   7.250   1.054   8.447  0.2131  0.4901 -0.8064
  445MOL0     C60001   7.230   1.133   8.312 -0.6766  0.5022 -0.8380
  445MOL0     C60002   7.217   1.032   8.188  0.5134  0.5318  0.6004
  445MOL0     C60003   7.353   0.977   8.155 -1.0883 -0.0825  0.1257
  445MOL0     C60004   7.435   1.082   8.101  0.4192 -0.0782  0.6388
  445MOL0     C60005   7.498   1.166   8.044  0.2549  0.5218  0.3496
  445MOL0     C60006   6.990   1.123   8.598 -0.2280  0.5535  0.3738
  445MOL0     C60007   6.870   1.191   8.610 -0.6603  0.1679 -0.9886
  445MOL0     H60008   6.388   1.320   8.614 -1.1103 -0.4617  0.7554
  445MOL0     H60009   6.182   1.420   8.594 -2.6161 -0.0530 -1.1873
  445MOL0     H60010   5.980   1.511   8.509 -0.0733  0.5070 -0.3003
  445MOL0     H60011   6.099   1.650   8.483 -2.8579  5.0147 -2.1976
  445MOL0     H60012   5.860   1.624   8.329 -0.0494 -0.3115  1.0698
  445MOL0     H60013   5.862   1.689   8.491 -0.8503  1.0740 -1.2818
  445MOL0     H60014   6.043   1.861   8.411  2.9292 -1.3605 -1.3859
  445MOL0     H60015   6.049   1.767   8.258 -0.0350  0.6386 -0.7471
  445MOL0     H60016   5.835   1.856   8.193 -3.6816  4.9038 -1.0455
  445MOL0     H60017   5.828   1.954   8.351  2.0943 -0.3934  2.3875
  445MOL0     H60018   6.026   2.083   8.271 -0.2584 -0.6528  1.5073
  445MOL0     H60019   6.064   1.973   8.144  0.6682 -1.7661  2.7265
  445MOL0     H60020   5.950   2.172   8.042  0.8945 -1.2573  0.7289
  445MOL0     H60021   5.856   2.025   8.024 -2.1004 -0.6202  1.2677
  445MOL0     H60022   5.692   2.113   8.151 -0.2268  0.6019  0.1098
  445MOL0     H60023   5.796   2.175   8.281 -0.7839 -0.1028 -0.5231
  445MOL0     H60024   5.764   2.325   8.023  1.3185 -0.3448 -0.0169
  445MOL0     H60025   5.856   2.379   8.164 -2.2302  1.6945  2.2479
  445MOL0     H60026   5.502   2.360   8.041 -0.2757 -2.6794  1.8109
  445MOL0     H60027   5.290   2.499   8.093  0.5248  2.0552 -0.7323
  445MOL0     H60028   5.253   2.452   8.260  2.1960 -2.4115  0.7432
  445MOL0     H60029   5.347   2.723   8.184 -0.6713  0.7546 -0.1757
  445MOL0     H60030   5.286   2.658   8.344 -1.9501 -0.1261  0.6556
  445MOL0     H60031   5.096   2.781   8.260 -2.0149 -2.4933  2.1422
  445MOL0     H60032   5.064   2.610   8.200 -0.6037  0.4808  2.7108
  445MOL0     H60033   5.024   2.717   8.029  0.2848  0.5930 -1.6417
  445MOL0     H60034   5.193   2.670   7.991  0.5601  1.3324 -0.2110
  445MOL0     H60035   5.069   2.731   7.808  2.1059 -1.9527 -0.2505
  445MOL0     H60036   5.218   2.712   7.537  0.2689  1.7401 -0.2275
  445MOL0     H60037   5.053   2.678   7.606 -2.2804  2.7106 -0.0981
  445MOL0     H60038   5.059   2.764   7.460  1.7001 -2.4950 -1.7613
  445MOL0     H60039   5.266   3.008   7.174 -2.7141 -0.2956 -1.9044
  445MOL0     H60040   5.247   3.151   6.965  0.8298  1.6075 -1.4819
  445MOL0     H60041   5.407   3.456   6.998  0.5108  1.2076 -0.3942
  445MOL0     H60042   5.378   3.396   6.840  1.5280  0.3175 -0.7937
  445MOL0     H60043   5.322   3.678   6.954  0.4977 -1.0406 -0.0193
  445MOL0     H60044   5.428   3.631   6.827  0.3246  0.3309  0.8776
  445MOL0     H60045   5.245   3.753   6.744 -2.1662 -0.0121 -0.1796
  445MOL0     H60046   5.126   3.631   6.812  0.9886 -3.7474  0.0654
  445MOL0     H60047   5.321   3.589   6.577  1.8580  2.8263  3.2851
  445MOL0     H60048   5.219   3.469   6.654  1.0982 -0.3927  0.0824
  445MOL0     H60049   5.078   3.707   6.577 -2.3720  0.1737  1.4720
  445MOL0     H60050   5.013   3.553   6.616  1.3462 -0.7540  1.6904
  445MOL0     H60051   5.187   3.584   6.367 -1.0089 -0.5047 -2.5096
  445MOL0     H60052   5.071   3.446   6.415 -0.8411  0.1172  2.5761
  445MOL0     H60053   4.973   3.721   6.347 -0.4197 -0.6565 -0.4185
  445MOL0     H60054   4.884   3.575   6.356  0.9624 -0.0933  2.4230
  445MOL0     H60055   5.029   3.501   6.127 -1.7544 -0.6809  0.7326
  445MOL0     H60056   5.099   3.657   6.146 -0.7385  0.3171  0.5869
  445MOL0     H60057   5.173   3.491   7.211 -2.3692 -0.9900 -1.9014
  445MOL0     H60058   5.187   3.352   7.422 -1.1691  0.6779 -0.2628
  445MOL0     H60059   5.266   3.172   7.689 -1.3627  1.5943 -0.1131
  445MOL0     H60060   5.248   3.095   7.932 -2.8249  2.4506 -1.3817
  445MOL0     H60061   6.237   1.449   8.167 -0.5977 -2.3167 -0.4376
  445MOL0     H60062   6.455   1.316   8.185  1.3100 -2.3136  0.5628
  445MOL0     H60063   6.725   1.118   8.312 -0.1020  0.7040  0.2247
  445MOL0     H60064   6.924   0.957   8.303 -1.4582  1.0502 -1.7277
  445MOL0     H60065   7.242   1.119   8.535 -0.6833 -0.9771  0.2439
  445MOL0     H60066   7.337   0.989   8.454  0.1344  0.5399  1.4699
  445MOL0     H60067   7.317   1.197   8.297 -0.6684  0.6988 -0.0144
  445MOL0     H60068   7.135   1.186   8.313 -2.9557 -3.1766  1.1549
  445MOL0     H60069   7.181   1.089   8.102 -1.4832 -1.7534 -0.1911
  445MOL0     H60070   7.151   0.951   8.219  0.5696 -0.8814 -2.6012
  445MOL0     H60071   7.342   0.900   8.077 -1.1116 -2.7972  2.6187
  445MOL0     H60072   7.403   0.932   8.241  0.7855  4.4948  1.7266
  445MOL0     H60073   7.547   1.246   7.993 -0.3892 -1.7741 -4.3402
  445MOL0     H60074   7.074   1.130   8.667  1.3376 -5.9365 -0.2015
  445MOL0     H60075   6.849   1.255   8.696 -0.7544  1.3020 -1.8327
  446MOL0     O60076   3.468   9.657   7.492 -0.1448 -0.0681 -0.4028
  446MOL0     C60077   3.486   9.777   7.530 -0.4922  1.0760 -0.3630
  446MOL0     O60078   3.499   9.821   7.655  1.6990  0.1531 -0.1115
  446MOL0     C60079   3.495   9.725   7.754  0.1031 -1.0641 -0.1983
  446MOL0     C60080   3.387   9.646   7.764  0.0673  0.6145 -0.1334
  446MOL0     C60081   3.362   9.577   7.885  0.1568  1.4301  0.3075
  446MOL0     C60082   3.456   9.585   7.990  0.3372  0.1676 -0.2549
  446MOL0     O60083   3.442   9.508   8.104 -0.7292 -0.2606 -0.2996
  446MOL0     C60084   3.454   9.564   8.238 -0.2311  0.3724 -0.2208
  446MOL0     C60085   3.540   9.476   8.336 -0.7339 -1.0252 -0.0060
  446MOL0     C60086   3.685   9.461   8.298  0.2054  0.6012  0.6454
  446MOL0     C60087   3.791   9.520   8.394 -0.6151 -0.1929  0.4479
  446MOL0     C60088   3.934   9.469   8.365 -0.4633 -0.3403 -0.6305
  446MOL0     C60089   4.040   9.548   8.444 -0.2257  0.1449 -0.5664
  446MOL0     C60090   4.182   9.517   8.383  0.0920 -1.0361  0.3001
  446MOL0     C60091   4.293   9.554   8.477  0.8471  0.8440  0.9881
  446MOL0     N60092   4.426   9.535   8.423 -0.3702  1.1671 -0.6029
  446MOL0     C60093   4.544   9.590   8.459 -0.7299 -0.3868  0.3778
  446MOL0     C60094   4.633   9.534   8.372 -0.7133 -0.3022 -0.4808
  446MOL0     C60095   4.778   9.581   8.378  0.4486  1.3548 -0.0314
  446MOL0     C60096   4.795   9.660   8.250 -0.8912  0.1188  0.1996
  446MOL0     C60097   4.719   9.792   8.258  0.4049 -0.8359 -0.6674
  446MOL0     C60098   4.747   9.865   8.133 -0.1816  1.3466  0.2397
  446MOL0     O60099   4.670   9.985   8.113 -0.2709  0.6064 -0.4078
  446MOL0     C60100   4.532   9.982   8.095  0.2836  0.0473  0.3180
  446MOL0     C60101   4.457   9.867   8.059 -0.2630  0.3908  0.0313
  446MOL0     C60102   4.318   9.862   8.041  0.1623  0.3381  0.6714
  446MOL0     C60103   4.259   9.737   7.969  0.8204  0.0291 -0.7645
  446MOL0     C60104   4.254   9.988   8.033  0.0370  0.0737  0.6980
  446MOL0     C60105   4.115  10.011   7.988  0.4163  0.0782  0.1139
  446MOL0     O60106   4.093  10.137   7.939  0.4372 -0.5707 -0.0141
  446MOL0     C60107   3.965  10.164   7.890  0.6769  0.1668  0.1058
  446MOL0     C60108   3.963  10.206   7.752  0.2522  0.1974 -0.1711
  446MOL0     C60109   3.841  10.229   7.695  1.4691 -0.7530  1.2560
  446MOL0     C60110   3.718  10.214   7.766  0.9747 -0.5178  0.8541
  446MOL0     O60111   3.599  10.240   7.689 -0.0422 -0.1197  0.0477
  446MOL0     C60112   3.480  10.256   7.761  0.2478 -0.4948 -0.3825
  446MOL0     C60113   3.375  10.305   7.664 -0.4288 -0.0263  0.2818
  446MOL0     C60114   3.412  10.420   7.584 -0.0245  0.1315  0.4821
  446MOL0     C60115   3.334  10.464   7.468  0.0322  0.2979 -0.0092
  446MOL0     C60116   3.345  10.619   7.443  0.3170  0.2184  0.4977
  446MOL0     C60117   3.285  10.651   7.304 -0.4490 -0.3316  0.0873
  446MOL0     C60118   3.324  10.572   7.176  0.4668 -0.3908 -0.0964
  446MOL0     C60119   3.474  10.591   7.147 -0.2945  0.3357  0.8589
  446MOL0    Cl60120   3.495  10.761   7.090 -0.4280  0.0773  0.1572
  446MOL0     C60121   3.720  10.181   7.894  0.1626 -0.5441 -0.2295
  446MOL0     C60122   3.849  10.162   7.964  0.0635 -0.1241  0.9351
  446MOL0     O60123   4.026   9.924   7.984  0.2025  0.4530 -0.0811
  446MOL0     C60124   4.327  10.106   8.054  0.4675 -0.1080 -0.4145
  446MOL0     C60125   4.461  10.100   8.087  0.0016  0.2682 -0.4837
  446MOL0     N60126   4.574   9.457   8.281 -0.8689 -0.6202 -0.0759
  446MOL0     N60127   4.451   9.450   8.323  0.6607  0.1336 -0.4983
  446MOL0     C60128   3.576   9.658   7.974  0.1188  0.7055  0.2517
  446MOL0     C60129   3.592   9.726   7.853 -0.3720 -0.0863  0.8182
  446MOL0     C60130   3.469   9.874   7.416  0.8200  0.3638  0.7125
  446MOL0     C60131   3.399   9.839   7.301  0.2832 -0.1451  0.0501
  446MOL0     C60132   3.397   9.936   7.209 -0.3100 -0.1579 -0.2399
  446MOL0     C60133   3.440  10.067   7.223  0.8815  0.7640 -0.6976
  446MOL0     O60134   3.430  10.177   7.141 -0.5976 -0.1590 -0.3033
  446MOL0     C60135   3.390  10.166   7.008 -0.4563  0.1522 -0.6868
  446MOL0     C60136   3.488  10.084   6.926 -0.6899  0.0428 -0.1583
  446MOL0     C60137   3.448  10.067   6.776  0.4058  0.2149  0.0734
  446MOL0     C60138   3.369   9.940   6.745 -0.7329 -0.3385 -1.0782
  446MOL0     C60139   3.267   9.923   6.848 -0.4411  0.6974 -0.1602
  446MOL0     C60140   3.179   9.895   6.922 -0.9334 -0.6256  0.1884
  446MOL0     C60141   3.486  10.102   7.344  0.1094  0.1668  0.3969
  446MOL0     C60142   3.499  10.005   7.443  0.3262 -0.2298 -1.1802
  446MOL0     H60143   3.300   9.650   7.699  0.4724 -0.3377 -0.7575
  446MOL0     H60144   3.270   9.519   7.887  0.9630  0.0777 -0.2731
  446MOL0     H60145   3.493   9.665   8.222  4.0918 -1.2236 -0.9580
  446MOL0     H60146   3.350   9.563   8.272 -1.1208  0.8922 -2.7058
  446MOL0     H60147   3.534   9.523   8.435 -3.3928 -0.6281 -0.2911
  446MOL0     H60148   3.486   9.381   8.345 -3.2733 -0.0155 -2.9135
  446MOL0     H60149   3.707   9.354   8.291  1.3930  0.9404 -1.9103
  446MOL0     H60150   3.708   9.488   8.194  1.8538 -1.0595  0.5405
  446MOL0     H60151   3.796   9.629   8.393  1.3294 -0.1767 -2.5029
  446MOL0     H60152   3.765   9.505   8.499  0.7352 -0.5220  0.7497
  446MOL0     H60153   3.944   9.362   8.383 -4.9271 -1.3921 -2.9380
  446MOL0     H60154   3.949   9.485   8.258 -2.5240  1.6911 -0.6824
  446MOL0     H60155   4.018   9.655   8.438 -3.8821 -0.1358  3.2264
  446MOL0     H60156   4.042   9.524   8.551  0.3060  1.0488 -0.3696
  446MOL0     H60157   4.196   9.416   8.343 -1.8640 -0.7781 -1.1836
  446MOL0     H60158   4.211   9.574   8.295  0.4640 -3.0608 -0.9634
  446MOL0     H60159   4.281   9.502   8.572 -0.7449  0.4051  0.5769
  446MOL0     H60160   4.276   9.661   8.491 -2.9257  0.6838 -1.0336
  446MOL0     H60161   4.561   9.656   8.543 -1.5968  3.7291 -2.3565
  446MOL0     H60162   4.785   9.635   8.473  0.0004  0.9310  0.2508
  446MOL0     H60163   4.846   9.496   8.367 -1.1144  0.3300 -2.6882
  446MOL0     H60164   4.759   9.597   8.168 -2.6135  0.2783  0.8007
  446MOL0     H60165   4.903   9.672   8.237 -0.2680 -2.3474  2.2734
  446MOL0     H60166   4.748   9.860   8.339 -2.6459  2.4978 -2.1158
  446MOL0     H60167   4.611   9.774   8.261  0.2923 -0.3279  3.4457
  446MOL0     H60168   4.741   9.798   8.046 -0.3209  2.2160 -0.4294
  446MOL0     H60169   4.846   9.911   8.125  0.0659  0.5331 -3.8644
  446MOL0     H60170   4.507   9.771   8.050  2.2356  1.5498  0.9455
  446MOL0     H60171   4.334   9.658   7.972  2.1991  1.2958 -0.6002
  446MOL0     H60172   4.173   9.696   8.023  1.5765 -2.0221 -1.0500
  446MOL0     H60173   4.227   9.768   7.869  2.4035 -0.3366 -1.4156
  446MOL0     H60174   4.056  10.211   7.697  3.0081 -1.1497  3.8939
  446MOL0     H60175   3.834  10.264   7.593 -0.2796  2.4286  2.3461
  446MOL0     H60176   3.454  10.158   7.803  0.0704 -0.3169 -0.0726
  446MOL0     H60177   3.486  10.321   7.849 -0.3068 -3.1052  1.7064
  446MOL0     H60178   3.353  10.226   7.591  0.5138  3.4004 -4.1276
  446MOL0     H60179   3.288  10.333   7.725  0.4517  1.4028  0.9189
  446MOL0     H60180   3.517  10.412   7.555  1.0906 -2.1934  4.2893
  446MOL0     H60181   3.415  10.504   7.654  1.3332 -0.1334  0.7772
  446MOL0     H60182   3.360  10.408   7.378 -0.9232 -0.1890  0.0113
  446MOL0     H60183   3.232  10.433   7.491  0.1991 -1.7528 -1.7586
  446MOL0     H60184   3.449  10.651   7.451  0.0871  1.7601 -1.7456
  446MOL0     H60185   3.305  10.685   7.521  0.2714 -1.3384  1.8334
  446MOL0     H60186   3.178  10.636   7.320 -0.5634  1.7143  1.5876
  446MOL0     H60187   3.311  10.757   7.299  2.3116 -0.6901  3.3835
  446MOL0     H60188   3.278  10.595   7.080  1.0184 -1.0385 -0.5288
  446MOL0     H60189   3.304  10.465   7.192 -0.9252  0.3672  5.4174
  446MOL0     H60190   3.502  10.521   7.068  1.4573  1.5809  0.3117
  446MOL0     H60191   3.531  10.566   7.237 -0.7887 -1.8670  0.6126
  446MOL0     H60192   3.628  10.196   7.950 -0.6013  0.4507 -1.6918
  446MOL0     H60193   3.857  10.148   8.071  2.6347  0.9718  0.9440
  446MOL0     H60194   4.293  10.208   8.038  5.2354  2.0737  1.3743
  446MOL0     H60195   4.513  10.191   8.116 -0.3471 -0.0471  1.1990
  446MOL0     H60196   3.654   9.665   8.049  0.9517 -1.0244 -0.3788
  446MOL0     H60197   3.693   9.763   7.834 -0.2255 -0.1658  1.4227
  446MOL0     H60198   3.361   9.741   7.277 -1.6863  1.1547 -2.6653
  446MOL0     H60199   3.358   9.916   7.110  0.5200  0.5548 -0.7278
  446MOL0     H60200   3.289  10.124   7.003  0.0167 -1.0257 -0.7686
  446MOL0     H60201   3.383  10.265   6.961  0.9680 -1.2449 -4.2245
  446MOL0     H60202   3.505   9.985   6.969  2.5641  1.1095  1.3067
  446MOL0     H60203   3.585  10.134   6.923  0.3652 -1.8511  0.7175
  446MOL0     H60204   3.541  10.069   6.719  0.4359  3.4370  0.0343
  446MOL0     H60205   3.389  10.148   6.732 -2.4270 -1.5858  0.3232
  446MOL0     H60206   3.444   9.860   6.737  0.7135  0.8555 -0.0286
  446MOL0     H60207   3.311   9.944   6.652  0.8148 -2.6183 -2.2460
  446MOL0     H60208   3.095   9.873   6.985 -1.4009 -2.8203 -1.0793
  446MOL0     H60209   3.521  10.202   7.366 -2.1411  0.9307  0.7518
  446MOL0     H60210   3.517  10.035   7.546 -3.8169 -1.7904  0.1956
  447MOL0     O60211   0.097   8.838   5.432  0.5020  0.1220  0.5960
  447MOL0     C60212   0.106   8.721   5.459  0.4272 -0.0834 -0.2433
  447MOL0     O60213   0.062   8.673   5.585  0.3771  0.2579 -0.2055
  447MOL0     C60214  -0.006   8.759   5.672  0.0367 -0.0986  0.4181
  447MOL0     C60215   0.029   8.768   5.809  0.2963 -0.5842  1.2289
  447MOL0     C60216  -0.045   8.855   5.898  0.7582  0.4235  0.1130
  447MOL0     C60217  -0.158   8.931   5.852  0.6145 -0.5890  0.1373
  447MOL0     O60218  -0.231   9.007   5.935  0.2435 -0.6422  0.3004
  447MOL0     C60219  -0.358   8.948   5.961  0.0854  0.2689 -0.3285
  447MOL0     C60220  -0.454   9.025   6.053 -0.1836  0.0826  0.3108
  447MOL0     C60221  -0.592   8.959   6.063  0.4709 -0.6426 -0.6328
  447MOL0     C60222  -0.670   9.041   6.168 -0.2013  0.7078  0.5331
  447MOL0     C60223  -0.813   9.001   6.158 -0.1752 -0.1931  0.7434
  447MOL0     C60224  -0.918   9.092   6.230 -0.1503 -0.0340  0.2187
  447MOL0     C60225  -1.007   9.012   6.322  0.1196 -1.0400 -0.4198
  447MOL0     C60226  -1.082   8.921   6.230  0.1927  0.3045  0.5012
  447MOL0     N60227  -1.157   8.811   6.296  0.7221 -0.3521  0.1792
  447MOL0     C60228  -1.119   8.708   6.387  0.2595 -0.5926  0.4160
  447MOL0     C60229  -1.240   8.633   6.404  0.1857  0.1643 -0.4350
  447MOL0     C60230  -1.275   8.512   6.485  0.3267  0.4180 -0.5066
  447MOL0     C60231  -1.293   8.538   6.634 -0.3504 -0.1312 -0.0084
  447MOL0     C60232  -1.417   8.622   6.665  0.1677 -0.3216 -0.1526
  447MOL0     C60233  -1.549   8.545   6.638  0.0207  0.7824 -0.6779
  447MOL0     O60234  -1.655   8.622   6.685  0.2806 -0.1258  0.2924
  447MOL0     C60235  -1.781   8.582   6.669  0.5356  0.3475 -0.8223
  447MOL0     C60236  -1.881   8.679   6.667 -0.7779 -0.2832  0.2058
  447MOL0     C60237  -2.017   8.651   6.645  0.1360 -0.1647  0.3439
  447MOL0     C60238  -2.114   8.773   6.675  0.7231 -0.1286 -0.7584
  447MOL0     C60239  -2.053   8.516   6.610  0.8870 -0.1917  0.3790
  447MOL0     C60240  -2.195   8.481   6.571 -0.1968 -0.3551 -0.2778
  447MOL0     O60241  -2.213   8.366   6.496 -0.1329  0.5444 -1.0257
  447MOL0     C60242  -2.335   8.300   6.503  0.8640 -0.7045  0.6903
  447MOL0     C60243  -2.421   8.292   6.608  0.6547 -0.7407 -0.0070
  447MOL0     C60244  -2.552   8.241   6.594 -0.7029  0.0582 -0.0350
  447MOL0     C60245  -2.575   8.165   6.480 -0.6292  0.0773  0.3825
  447MOL0     O60246  -2.697   8.107   6.471 -0.1545  0.0354 -1.2095
  447MOL0     C60247  -2.718   8.041   6.342 -0.1915  0.3674 -0.0926
  447MOL0     C60248  -2.868   8.008   6.339 -0.5036 -0.2022  0.5572
  447MOL0     C60249  -2.952   8.134   6.324 -0.0252 -0.5778 -0.5184
  447MOL0     C60250  -3.062   8.125   6.224  0.3042  0.9986  0.9847
  447MOL0     C60251  -3.185   8.223   6.226  0.7045 -0.3622  0.4864
  447MOL0     C60252  -3.290   8.176   6.122 -0.4123  0.2399 -0.9723
  447MOL0     C60253  -3.401   8.285   6.107  0.0970 -0.3640  0.0250
  447MOL0     C60254  -3.508   8.247   6.003  0.2536 -0.8045  0.1007
  447MOL0    Cl60255  -3.447   8.281   5.832  0.2166  0.4086  0.5566
  447MOL0     C60256  -2.475   8.166   6.378  0.3872 -0.1794  0.8696
  447MOL0     C60257  -2.362   8.236   6.385  0.6391 -0.9321  0.7381
  447MOL0     O60258  -2.281   8.560   6.606  0.1369  0.1294  0.0420
  447MOL0     C60259  -1.955   8.415   6.596 -0.3624 -0.0147  0.1018
  447MOL0     C60260  -1.818   8.451   6.627  0.3882 -1.3147 -0.0978
  447MOL0     N60261  -1.329   8.685   6.308  0.7090 -0.0048 -0.3167
  447MOL0     N60262  -1.290   8.798   6.259  0.1180  0.5547  0.3650
  447MOL0     C60263  -0.192   8.912   5.715 -0.1150  0.5831  0.3996
  447MOL0     C60264  -0.120   8.828   5.629 -0.0228 -0.3167 -0.4176
  447MOL0     C60265   0.162   8.632   5.352  0.4916 -0.4794 -0.0370
  447MOL0     C60266   0.127   8.495   5.351  0.1203 -0.9225 -0.4814
  447MOL0     C60267   0.179   8.410   5.258  1.1501 -0.5941 -0.7783
  447MOL0     C60268   0.261   8.464   5.161 -0.7896 -0.1397  0.0808
  447MOL0     O60269   0.303   8.369   5.066 -1.0808 -0.1011 -0.1027
  447MOL0     C60270   0.411   8.416   4.987 -0.0340 -0.2427  0.4623
  447MOL0     C60271   0.473   8.301   4.910 -0.4506  0.4548  0.3332
  447MOL0     C60272   0.557   8.200   5.000 -0.5406 -0.3509  0.6248
  447MOL0     C60273   0.614   8.083   4.911 -0.0270 -0.5883  0.3311
  447MOL0     C60274   0.703   8.004   4.991 -0.0116  0.2123 -0.6226
  447MOL0     C60275   0.781   7.960   5.072 -0.2751  0.1885 -0.1327
  447MOL0     C60276   0.298   8.601   5.154 -0.9063  0.1251 -0.4046
  447MOL0     C60277   0.245   8.681   5.247 -0.5243  0.4347 -1.6391
  447MOL0     H60278   0.110   8.702   5.839 -0.0203 -1.5966 -0.0623
  447MOL0     H60279  -0.018   8.855   6.003  3.1263 -0.4126 -0.4222
  447MOL0     H60280  -0.406   8.937   5.863  1.9848 -0.2050 -1.2533
  447MOL0     H60281  -0.336   8.852   6.008  1.8312  0.7938 -0.0272
  447MOL0     H60282  -0.399   9.020   6.147  2.0333 -2.4938 -0.9857
  447MOL0     H60283  -0.476   9.128   6.024  1.9707  0.8962  1.3676
  447MOL0     H60284  -0.647   8.958   5.969  0.2863 -0.6314 -0.5262
  447MOL0     H60285  -0.577   8.857   6.099  1.6624 -0.0420  0.6829
  447MOL0     H60286  -0.620   9.020   6.263  3.7987 -0.8856 -1.6625
  447MOL0     H60287  -0.658   9.144   6.134 -0.7262  0.4481 -0.4693
  447MOL0     H60288  -0.845   8.992   6.054  2.0048 -2.5586  0.1683
  447MOL0     H60289  -0.810   8.899   6.197 -0.2553 -0.1236  0.9286
  447MOL0     H60290  -0.855   9.161   6.287  1.2787 -1.6137  0.6285
  447MOL0     H60291  -0.977   9.156   6.164 -0.0913  2.5842  2.5260
  447MOL0     H60292  -0.942   8.959   6.392  1.2492 -0.9566 -1.3951
  447MOL0     H60293  -1.081   9.066   6.383  0.1151 -0.8357 -0.6076
  447MOL0     H60294  -1.008   8.861   6.176  1.4153 -0.6207  3.0406
  447MOL0     H60295  -1.151   8.973   6.162 -0.9488 -3.5631 -1.6282
  447MOL0     H60296  -1.029   8.684   6.443  1.1098 -0.9344 -1.0348
  447MOL0     H60297  -1.367   8.468   6.446 -0.0514 -1.3829  2.1793
  447MOL0     H60298  -1.198   8.434   6.477 -0.4671 -0.4073 -0.3287
  447MOL0     H60299  -1.198   8.574   6.673 -0.4291  1.1108 -0.9124
  447MOL0     H60300  -1.303   8.435   6.670  1.3148 -1.9925 -4.2723
  447MOL0     H60301  -1.420   8.713   6.605  0.7314  2.2054  3.3275
  447MOL0     H60302  -1.402   8.662   6.766 -0.1658  1.1337 -0.6588
  447MOL0     H60303  -1.547   8.449   6.690  0.3356  1.5866  0.8424
  447MOL0     H60304  -1.558   8.534   6.529  1.3672 -0.1790 -0.7242
  447MOL0     H60305  -1.862   8.783   6.690 -3.4509  0.9214 -2.3725
  447MOL0     H60306  -2.181   8.786   6.589 -0.8801 -1.3460  0.2513
  447MOL0     H60307  -2.170   8.746   6.764  0.5790  0.4038 -0.6844
  447MOL0     H60308  -2.067   8.870   6.696 -2.2890  1.6184 -1.4629
  447MOL0     H60309  -2.387   8.342   6.699  0.3809 -1.9629  0.7922
  447MOL0     H60310  -2.621   8.254   6.677  1.1537  0.5077  1.5061
  447MOL0     H60311  -2.695   8.104   6.256  0.5043 -2.1762 -1.9113
  447MOL0     H60312  -2.656   7.952   6.330  0.5242  0.8579 -0.0620
  447MOL0     H60313  -2.878   7.948   6.249  0.1239 -1.0781  1.0566
  447MOL0     H60314  -2.884   7.950   6.431  1.7631 -1.2362  0.3890
  447MOL0     H60315  -2.900   8.220   6.283 -2.7314 -0.0197 -3.2215
  447MOL0     H60316  -2.996   8.165   6.419 -2.1540  0.2264 -1.6960
  447MOL0     H60317  -3.025   8.122   6.121 -2.1012 -0.4875  0.1006
  447MOL0     H60318  -3.101   8.026   6.249  0.7742 -0.2589 -2.5971
  447MOL0     H60319  -3.148   8.322   6.200 -0.4021 -1.0074 -4.5636
  447MOL0     H60320  -3.235   8.218   6.323  0.7665 -3.2010  0.4499
  447MOL0     H60321  -3.254   8.130   6.030  0.7145 -0.2047 -0.3259
  447MOL0     H60322  -3.342   8.089   6.164 -1.5485  1.6261  0.6420
  447MOL0     H60323  -3.361   8.382   6.075 -0.1344 -0.4982 -0.6930
  447MOL0     H60324  -3.449   8.303   6.203  1.1845  0.1083  0.5003
  447MOL0     H60325  -3.597   8.309   6.015  1.4179  1.5899 -2.6170
  447MOL0     H60326  -3.541   8.143   6.012 -2.9108  0.2514  2.3186
  447MOL0     H60327  -2.483   8.104   6.289  1.3423  2.3545 -1.1259
  447MOL0     H60328  -2.298   8.244   6.299 -1.1399 -1.8635 -0.7385
  447MOL0     H60329  -1.980   8.313   6.569  0.4354 -0.2957  0.3923
  447MOL0     H60330  -1.735   8.382   6.621  2.9950  1.5653  0.1737
  447MOL0     H60331  -0.273   8.964   5.665 -0.4154 -0.2035  0.0408
  447MOL0     H60332  -0.159   8.794   5.533  2.8645 -1.0557 -1.4226
  447MOL0     H60333   0.071   8.444   5.428  1.2737 -0.2683  0.8431
  447MOL0     H60334   0.151   8.305   5.261 -0.0222 -0.2897  1.6127
  447MOL0     H60335   0.379   8.491   4.914  1.5388 -0.1783 -0.2012
  447MOL0     H60336   0.489   8.453   5.054  2.1702 -2.2376 -0.8635
  447MOL0     H60337   0.534   8.326   4.822  0.8126 -2.7246  0.1680
  447MOL0     H60338   0.383   8.252   4.872 -1.3773  0.4282  2.4422
  447MOL0     H60339   0.497   8.160   5.082  0.9148  1.7770  2.8301
  447MOL0     H60340   0.635   8.252   5.056 -2.2267  0.1597  2.6365
  447MOL0     H60341   0.672   8.111   4.823 -0.8879  1.6887  0.4106
  447MOL0     H60342   0.521   8.028   4.895 -1.4617  1.2984  1.6407
  447MOL0     H60343   0.851   7.935   5.149 -0.6834 -0.0595  0.1635
  447MOL0     H60344   0.359   8.639   5.072  1.0837 -1.1114  0.4522
  447MOL0     H60345   0.276   8.785   5.253 -2.1565  0.8916 -0.5393
  448MOL0     O60346   3.841   1.188   9.377 -0.7204  0.1589 -0.6844
  448MOL0     C60347   3.941   1.220   9.310  0.9218 -0.4311 -0.2410
  448MOL0     O60348   3.925   1.252   9.177  0.0649 -0.2254 -0.7712
  448MOL0     C60349   3.798   1.260   9.121  0.4535 -0.8008 -0.8366
  448MOL0     C60350   3.705   1.349   9.177  0.3959 -0.1730  0.3368
  448MOL0     C60351   3.569   1.331   9.144 -0.5862 -0.8147  0.0042
  448MOL0     C60352   3.524   1.243   9.047  0.2399 -0.2175  0.3802
  448MOL0     O60353   3.398   1.221   9.007  0.6214  0.3326  0.1123
  448MOL0     C60354   3.312   1.198   9.121 -0.9396 -0.3759  0.6955
  448MOL0     C60355   3.168   1.164   9.075  0.4424 -0.2544  0.4516
  448MOL0     C60356   3.084   1.282   9.024 -0.2295  0.4292 -0.5315
  448MOL0     C60357   3.052   1.266   8.875 -0.6518  0.3659  1.0144
  448MOL0     C60358   3.183   1.263   8.784  0.1002 -0.3231 -1.6999
  448MOL0     C60359   3.153   1.248   8.628  0.1760 -1.4921  0.6315
  448MOL0     C60360   3.278   1.233   8.540  0.9375 -0.1831 -0.2854
  448MOL0     C60361   3.318   1.377   8.497  0.2013 -0.3057  0.7020
  448MOL0     N60362   3.464   1.400   8.490  0.1966  0.2897  0.3126
  448MOL0     C60363   3.546   1.369   8.598  1.6400 -0.1268 -0.0714
  448MOL0     C60364   3.667   1.408   8.567 -0.7023  0.6229 -0.1979
  448MOL0     C60365   3.793   1.383   8.639  0.4369  0.8345 -0.3553
  448MOL0     C60366   3.790   1.420   8.787 -0.1150 -0.1653  0.4043
  448MOL0     C60367   3.813   1.567   8.814 -0.7462  0.4150 -0.0091
  448MOL0     C60368   3.835   1.593   8.962 -0.6197  0.7530  0.8010
  448MOL0     O60369   3.972   1.560   9.005  1.2664  0.1014 -0.5853
  448MOL0     C60370   3.994   1.588   9.143 -1.0298  0.4153 -0.3988
  448MOL0     C60371   3.909   1.634   9.236 -0.5947  0.2745  0.1417
  448MOL0     C60372   3.951   1.673   9.363  0.6835 -0.8333 -0.0856
  448MOL0     C60373   3.844   1.736   9.450  0.4758  0.1858  0.2034
  448MOL0     C60374   4.074   1.650   9.413 -0.2386  0.6348  0.3206
  448MOL0     C60375   4.121   1.699   9.538  0.6876  1.3484  0.5021
  448MOL0     O60376   4.257   1.696   9.546 -0.4098  0.2332  0.3331
  448MOL0     C60377   4.321   1.794   9.617 -0.5338  0.2357 -0.3860
  448MOL0     C60378   4.356   1.905   9.551 -0.6083 -0.2285  1.0871
  448MOL0     C60379   4.412   2.011   9.625  0.0173  0.3898 -0.4763
  448MOL0     C60380   4.423   2.007   9.762  0.3917 -0.4625  0.5880
  448MOL0     O60381   4.441   2.118   9.836 -0.9272 -0.4138  0.1039
  448MOL0     C60382   4.533   2.119   9.946  0.0640 -0.2388 -0.4822
  448MOL0     C60383   4.602   2.253   9.979  0.4420  0.4900 -0.0595
  448MOL0     C60384   4.486   2.360  10.016 -1.4412 -0.6573  0.1819
  448MOL0     C60385   4.558   2.494  10.014 -0.0519  0.7292 -0.8827
  448MOL0     C60386   4.455   2.615  10.047 -0.4004 -0.6214 -0.0910
  448MOL0     C60387   4.543   2.749  10.096  0.1887  0.7095 -0.7731
  448MOL0     C60388   4.444   2.847  10.138  0.6313  0.8181 -0.1484
  448MOL0     C60389   4.506   2.988  10.142 -0.6322  0.8389 -0.3977
  448MOL0    Cl60390   4.645   2.961  10.255 -0.1281  0.3662 -0.2354
  448MOL0     C60391   4.392   1.894   9.824  0.2463  0.9057 -0.3382
  448MOL0     C60392   4.348   1.781   9.754 -0.1915  0.3045 -0.3338
  448MOL0     O60393   4.046   1.748   9.622  0.1469  0.3589  0.8215
  448MOL0     C60394   4.153   1.568   9.332  0.3982 -0.1213 -0.5993
  448MOL0     C60395   4.110   1.532   9.203 -0.7829  0.0547 -0.2592
  448MOL0     N60396   3.656   1.455   8.439  0.9431 -0.0560  1.1672
  448MOL0     N60397   3.542   1.440   8.389 -0.0317  0.8104  0.5311
  448MOL0     C60398   3.624   1.151   8.993  0.4591  0.5162  0.1514
  448MOL0     C60399   3.759   1.159   9.034  0.1411  0.0574 -0.6572
  448MOL0     C60400   4.076   1.211   9.372  0.6683 -0.2957 -1.3009
  448MOL0     C60401   4.186   1.191   9.306 -1.4336 -0.0526  1.0136
  448MOL0     C60402   4.314   1.179   9.372 -0.1357 -0.1456  0.1829
  448MOL0     C60403   4.326   1.204   9.508  1.0606 -0.0177  1.1228
  448MOL0     O60404   4.456   1.206   9.554  0.1834 -0.0549  1.2648
  448MOL0     C60405   4.463   1.209   9.693  0.0251 -0.4788 -0.1663
  448MOL0     C60406   4.440   1.346   9.767 -0.7569  0.7160  0.0693
  448MOL0     C60407   4.466   1.347   9.919  0.4712 -0.2326 -1.0537
  448MOL0     C60408   4.450   1.483  10.000 -0.7520 -0.4569 -0.3381
  448MOL0     C60409   4.568   1.564   9.965  0.0873 -0.8227  0.6950
  448MOL0     C60410   4.649   1.646   9.926  0.2778  0.6039 -0.4959
  448MOL0     C60411   4.205   1.224   9.570  0.1671 -0.3590 -0.3179
  448MOL0     C60412   4.083   1.221   9.511 -0.2132 -0.6368 -0.8261
  448MOL0     H60413   3.726   1.429   9.248 -0.0700  0.7552 -0.5557
  448MOL0     H60414   3.498   1.405   9.180 -0.9298  0.6939 -3.4445
  448MOL0     H60415   3.352   1.116   9.180 -1.7210 -1.0063  0.3746
  448MOL0     H60416   3.298   1.290   9.179  0.5681  0.8643 -0.8221
  448MOL0     H60417   3.180   1.087   8.998 -0.0101  0.9774 -0.8980
  448MOL0     H60418   3.108   1.125   9.158 -2.1148  1.0135 -0.6934
  448MOL0     H60419   2.992   1.283   9.083  0.4876 -1.4025  0.7301
  448MOL0     H60420   3.135   1.378   9.032 -0.4457  0.4242  1.2036
  448MOL0     H60421   2.989   1.177   8.864  1.5371 -1.1694  0.2594
  448MOL0     H60422   2.992   1.352   8.845  0.9921  1.3028  0.2668
  448MOL0     H60423   3.245   1.351   8.800 -2.0520  0.7964  1.3651
  448MOL0     H60424   3.244   1.178   8.816 -0.0256  0.3296  0.3896
  448MOL0     H60425   3.092   1.158   8.622 -0.9980 -0.8765  2.5371
  448MOL0     H60426   3.088   1.333   8.601  0.1540 -1.6280  0.2513
  448MOL0     H60427   3.356   1.171   8.586 -0.6973 -1.2317  1.1849
  448MOL0     H60428   3.259   1.185   8.444  1.4093  3.9159 -2.6526
  448MOL0     H60429   3.276   1.444   8.572 -1.6815 -1.0484  0.3521
  448MOL0     H60430   3.272   1.420   8.409 -2.0127  0.0122  1.9572
  448MOL0     H60431   3.516   1.349   8.701  0.7627  0.9589 -0.1055
  448MOL0     H60432   3.809   1.275   8.630  0.2074  0.7989 -0.3328
  448MOL0     H60433   3.879   1.429   8.588  0.8794 -0.4899 -0.8566
  448MOL0     H60434   3.861   1.353   8.836  0.3111 -1.7932 -2.2548
  448MOL0     H60435   3.693   1.386   8.825 -1.7000  0.3673 -2.8910
  448MOL0     H60436   3.735   1.635   8.778 -1.1217  1.2984  2.3225
  448MOL0     H60437   3.900   1.594   8.755 -1.7709  0.4583 -1.5605
  448MOL0     H60438   3.758   1.540   9.018 -0.5610 -1.6367 -1.2111
  448MOL0     H60439   3.810   1.698   8.977 -1.0227  0.9492 -1.0413
  448MOL0     H60440   3.811   1.658   9.195 -0.3384 -2.0870 -2.1249
  448MOL0     H60441   3.746   1.738   9.400 -1.3379 -0.9046  3.3898
  448MOL0     H60442   3.825   1.666   9.532  0.2624 -0.5282 -0.4434
  448MOL0     H60443   3.864   1.838   9.484 -1.2842  0.6258  0.0126
  448MOL0     H60444   4.334   1.924   9.447  0.9530 -2.6670  0.2394
  448MOL0     H60445   4.435   2.104   9.575  1.4727 -0.6867 -1.9124
  448MOL0     H60446   4.480   2.080  10.034 -0.8128 -1.0265 -1.3403
  448MOL0     H60447   4.613   2.046   9.936  0.5054  0.3938 -1.7228
  448MOL0     H60448   4.666   2.237  10.066  0.0133  4.5831  1.1908
  448MOL0     H60449   4.660   2.292   9.894  0.5306  1.9083  0.6210
  448MOL0     H60450   4.425   2.333  10.102 -2.2588  0.7018  0.0548
  448MOL0     H60451   4.426   2.375   9.926  1.5477  3.3571 -1.4543
  448MOL0     H60452   4.631   2.482  10.094 -0.2469 -2.7382 -1.0793
  448MOL0     H60453   4.608   2.505   9.917 -0.9693  1.5034 -1.2915
  448MOL0     H60454   4.401   2.572  10.133 -0.4445  0.9239  0.6751
  448MOL0     H60455   4.391   2.631   9.960 -0.1700 -1.9233 -0.5205
  448MOL0     H60456   4.615   2.733  10.177 -0.9624  0.7996  0.3188
  448MOL0     H60457   4.592   2.793  10.009  0.8754  0.8935 -0.3046
  448MOL0     H60458   4.391   2.829  10.231 -1.5441 -1.5030 -1.6996
  448MOL0     H60459   4.363   2.855  10.064  2.0028  0.1028 -1.7764
  448MOL0     H60460   4.435   3.064  10.174  0.2319  1.4461  0.1386
  448MOL0     H60461   4.539   3.024  10.044  0.8796  0.9039  0.1048
  448MOL0     H60462   4.407   1.877   9.930  0.4391 -0.4945 -0.5760
  448MOL0     H60463   4.340   1.696   9.822  0.9137 -1.8471 -2.7241
  448MOL0     H60464   4.245   1.521   9.362  1.9641  3.5955  1.0506
  448MOL0     H60465   4.181   1.476   9.143  2.2754 -0.7433  3.6578
  448MOL0     H60466   3.601   1.067   8.928 -0.5460  0.8379  0.0724
  448MOL0     H60467   3.843   1.095   9.007 -1.0115 -1.0981 -1.6582
  448MOL0     H60468   4.184   1.181   9.198  1.2702  0.4454  0.8350
  448MOL0     H60469   4.399   1.154   9.309 -2.1214 -1.4590 -2.1162
  448MOL0     H60470   4.406   1.130   9.742  1.7007 -2.4503 -1.2632
  448MOL0     H60471   4.568   1.195   9.722 -0.3491 -1.7233  0.6707
  448MOL0     H60472   4.336   1.377   9.749 -0.5779  0.3281 -1.8468
  448MOL0     H60473   4.502   1.424   9.721  1.0950 -2.4353 -3.2904
  448MOL0     H60474   4.568   1.314   9.941  0.2346 -1.0098 -1.0986
  448MOL0     H60475   4.383   1.289   9.960 -0.6154  0.9125 -1.5834
  448MOL0     H60476   4.467   1.463  10.106  2.4343  0.8797 -0.4687
  448MOL0     H60477   4.353   1.534   9.997 -0.6184 -0.0919  0.9614
  448MOL0     H60478   4.718   1.718   9.884  2.3629  0.1565  1.8811
  448MOL0     H60479   4.207   1.240   9.677  0.3600 -0.0864 -0.3582
  448MOL0     H60480   4.001   1.249   9.575 -1.4066  1.4819 -3.1055
  449MOL0     O60481   4.583   5.075   7.550 -0.2000  0.1559  0.0067
  449MOL0     C60482   4.574   5.192   7.511  0.2331  0.5936 -0.3010
  449MOL0     O60483   4.581   5.300   7.594  0.0490  0.4074  0.2533
  449MOL0     C60484   4.605   5.299   7.729  0.5103  1.2098 -0.4127
  449MOL0     C60485   4.642   5.421   7.778  0.2998  0.2576  0.5141
  449MOL0     C60486   4.661   5.452   7.912  1.0627  0.1370 -0.3466
  449MOL0     C60487   4.650   5.347   8.005  0.1490  0.2081  0.1860
  449MOL0     O60488   4.670   5.367   8.143  0.3664 -0.0347 -0.4484
  449MOL0     C60489   4.641   5.263   8.239 -0.3702  0.2985 -0.2486
  449MOL0     C60490   4.685   5.305   8.374 -0.2762 -0.7006 -0.0619
  449MOL0     C60491   4.658   5.208   8.490 -0.4939 -0.0130  0.4367
  449MOL0     C60492   4.753   5.231   8.610 -0.0914 -0.3837 -0.8918
  449MOL0     C60493   4.696   5.183   8.743  0.2092 -0.4975  0.2174
  449MOL0     C60494   4.782   5.204   8.861 -0.0031  0.7678  0.9873
  449MOL0     C60495   4.719   5.142   8.988 -0.1220  0.6117  0.3942
  449MOL0     C60496   4.774   5.204   9.117 -0.4499 -0.1088  1.1019
  449MOL0     N60497   4.767   5.354   9.132  0.5199  0.8083 -0.1417
  449MOL0     C60498   4.655   5.418   9.181  0.3346  0.2994  0.2174
  449MOL0     C60499   4.700   5.548   9.203 -0.5450  0.4998  0.4680
  449MOL0     C60500   4.620   5.663   9.254  1.1429 -1.0640 -0.6622
  449MOL0     C60501   4.667   5.720   9.387 -1.1171  1.3504 -0.0701
  449MOL0     C60502   4.573   5.828   9.434  0.2648  0.6988 -0.5823
  449MOL0     C60503   4.661   5.921   9.519  0.1271  0.8165  0.3569
  449MOL0     O60504   4.595   6.050   9.541  0.6669  0.5658  0.5104
  449MOL0     C60505   4.541   6.080   9.665  0.4396  0.7499  0.5820
  449MOL0     C60506   4.531   5.987   9.768  1.0069  0.1460  0.0738
  449MOL0     C60507   4.498   6.012   9.907  0.8616 -0.0326  0.4254
  449MOL0     C60508   4.485   5.908  10.011  0.2982 -0.0243  0.5427
  449MOL0     C60509   4.471   6.153   9.931 -0.7995 -0.3311 -0.1200
  449MOL0     C60510   4.399   6.199  10.046  0.0644  1.1193 -0.5627
  449MOL0     O60511   4.312   6.103  10.106  0.2438  0.0432 -0.2052
  449MOL0     C60512   4.252   6.152  10.225  0.0303 -0.4309 -1.1294
  449MOL0     C60513   4.119   6.203  10.222  0.6046  0.5009 -0.2886
  449MOL0     C60514   4.063   6.262  10.337  0.0898 -0.4792 -0.5914
  449MOL0     C60515   4.130   6.269  10.453 -0.6131  0.5767  0.3916
  449MOL0     O60516   4.078   6.330  10.570 -0.5807 -0.5089  0.1607
  449MOL0     C60517   3.939   6.353  10.577 -0.5859 -0.2232 -0.5010
  449MOL0     C60518   3.891   6.402  10.711 -0.4514  0.2391  0.4177
  449MOL0     C60519   3.745   6.412  10.717 -0.0808 -0.4569  0.5330
  449MOL0     C60520   3.686   6.464  10.850  0.6382  0.0700  0.0278
  449MOL0     C60521   3.721   6.610  10.875 -0.1948  0.1316  0.3216
  449MOL0     C60522   3.619   6.690  10.787 -0.0146  0.1305 -0.9424
  449MOL0     C60523   3.627   6.838  10.824  0.5605  0.6148  0.9420
  449MOL0     C60524   3.516   6.902  10.744  0.2078 -0.2658  0.4050
  449MOL0    Cl60525   3.522   7.089  10.770 -0.2131  0.5578 -0.4314
  449MOL0     C60526   4.254   6.205  10.462  0.3707  0.2440 -0.3433
  449MOL0     C60527   4.314   6.149  10.343 -0.7979 -0.7883 -0.3370
  449MOL0     O60528   4.399   6.321  10.069 -0.0831 -0.2737  0.2583
  449MOL0     C60529   4.481   6.251   9.828 -0.6169 -0.0472 -0.1938
  449MOL0     C60530   4.516   6.210   9.701 -0.0216 -0.3884 -0.1947
  449MOL0     N60531   4.835   5.549   9.174 -0.4749  0.0664 -0.9178
  449MOL0     N60532   4.868   5.440   9.118  0.5003  0.5749  0.4303
  449MOL0     C60533   4.629   5.217   7.955  0.2208 -0.4736  0.5192
  449MOL0     C60534   4.593   5.191   7.818 -0.6613 -0.2825 -0.2800
  449MOL0     C60535   4.560   5.211   7.376  0.1090 -0.2530  1.3790
  449MOL0     C60536   4.542   5.097   7.288 -0.6520 -0.4298 -0.1879
  449MOL0     C60537   4.521   5.126   7.147  0.2967  1.2420 -1.0622
  449MOL0     C60538   4.513   5.257   7.103 -0.6053 -0.5669  0.1675
  449MOL0     O60539   4.505   5.280   6.968  0.1655 -0.1421 -0.5007
  449MOL0     C60540   4.455   5.410   6.917 -0.2323  1.1188  0.0018
  449MOL0     C60541   4.346   5.373   6.813 -0.1411 -0.4462  0.1885
  449MOL0     C60542   4.406   5.387   6.676  0.2604  0.3294 -0.3464
  449MOL0     C60543   4.445   5.255   6.608  0.1769 -0.3865 -0.0436
  449MOL0     C60544   4.519   5.287   6.488 -0.5380  0.4235 -0.5168
  449MOL0     C60545   4.571   5.308   6.380  0.3686  0.9526  0.1086
  449MOL0     C60546   4.510   5.366   7.194  0.0787  0.0782  0.3471
  449MOL0     C60547   4.541   5.344   7.326  0.4302 -0.2070  0.4411
  449MOL0     H60548   4.650   5.503   7.707  2.3772  2.0585  2.6706
  449MOL0     H60549   4.679   5.549   7.958 -2.8175  1.5960 -1.4640
  449MOL0     H60550   4.532   5.255   8.239 -0.2630 -1.6418 -0.2901
  449MOL0     H60551   4.695   5.174   8.204  1.3722  2.1686 -2.7751
  449MOL0     H60552   4.793   5.319   8.360 -0.1161 -1.6278  0.1242
  449MOL0     H60553   4.640   5.403   8.393 -1.4237 -1.3276  0.5712
  449MOL0     H60554   4.557   5.204   8.532 -1.2110 -0.2273 -1.2281
  449MOL0     H60555   4.678   5.109   8.448  2.8957  0.0756  1.5574
  449MOL0     H60556   4.849   5.180   8.602 -0.5716 -1.9357  1.8509
  449MOL0     H60557   4.781   5.337   8.617  0.1581 -0.3910 -1.6699
  449MOL0     H60558   4.605   5.243   8.756  1.6495  1.3069  2.9646
  449MOL0     H60559   4.677   5.077   8.723 -0.6725  0.0715 -2.3704
  449MOL0     H60560   4.870   5.142   8.844 -2.2502 -2.3596 -0.2703
  449MOL0     H60561   4.808   5.310   8.869  2.8854  0.1814  0.2302
  449MOL0     H60562   4.611   5.158   8.979  0.2043  3.4796  0.7028
  449MOL0     H60563   4.736   5.034   8.994 -3.2997  0.1039  2.2112
  449MOL0     H60564   4.878   5.170   9.120  0.2424  1.7002 -0.4116
  449MOL0     H60565   4.734   5.160   9.209  2.3898 -1.2164  1.9088
  449MOL0     H60566   4.560   5.372   9.205  0.3689  0.8621  1.5482
  449MOL0     H60567   4.607   5.736   9.173  0.4420 -2.4427 -1.8508
  449MOL0     H60568   4.518   5.622   9.261  1.8537 -2.8599 -0.2201
  449MOL0     H60569   4.768   5.758   9.369 -0.3550  0.3183  1.8007
  449MOL0     H60570   4.682   5.638   9.457 -0.2998  0.6723 -1.0059
  449MOL0     H60571   4.499   5.782   9.501  2.3545  0.3872  1.6617
  449MOL0     H60572   4.520   5.894   9.364  2.0546  0.8698 -1.8284
  449MOL0     H60573   4.749   5.947   9.458 -0.3446 -0.9241 -1.1590
  449MOL0     H60574   4.702   5.874   9.609  0.1348  1.5050  0.7149
  449MOL0     H60575   4.553   5.881   9.758 -0.3861 -0.3215  1.5085
  449MOL0     H60576   4.561   5.830  10.000  2.1421  1.9302 -2.1005
  449MOL0     H60577   4.509   5.942  10.112  2.8105 -1.6216  0.5692
  449MOL0     H60578   4.384   5.871   9.994  1.1644 -1.5752 -1.7803
  449MOL0     H60579   4.050   6.183  10.140  3.0021  1.2700 -2.6485
  449MOL0     H60580   3.964   6.305  10.331  1.5066  3.9975  2.4407
  449MOL0     H60581   3.916   6.435  10.508 -1.9499 -0.5962 -0.5107
  449MOL0     H60582   3.895   6.259  10.543  1.3020 -1.7805  1.0830
  449MOL0     H60583   3.936   6.347  10.794  0.2267  0.5086  0.2375
  449MOL0     H60584   3.934   6.503  10.709  2.7211 -0.9846  1.5158
  449MOL0     H60585   3.708   6.313  10.690 -0.2110 -0.6583  1.4047
  449MOL0     H60586   3.714   6.472  10.631  3.9014  0.3288 -0.5966
  449MOL0     H60587   3.577   6.450  10.854  0.2423  1.5500 -2.9155
  449MOL0     H60588   3.718   6.392  10.925  1.3315 -0.4726 -0.7768
  449MOL0     H60589   3.827   6.633  10.862  0.3411 -2.1458  0.0929
  449MOL0     H60590   3.710   6.633  10.982  0.4115 -0.9415  0.6381
  449MOL0     H60591   3.647   6.673  10.682  2.1257 -1.1572 -0.2144
  449MOL0     H60592   3.516   6.656  10.803 -0.4775  2.1657  0.7865
  449MOL0     H60593   3.725   6.881  10.800  0.7692  0.3833  1.3741
  449MOL0     H60594   3.597   6.847  10.928 -0.6252 -0.8346  0.7589
  449MOL0     H60595   3.422   6.860  10.780  1.0250 -2.7006 -0.1364
  449MOL0     H60596   3.521   6.865  10.641 -1.3829  1.8730 -0.5156
  449MOL0     H60597   4.303   6.197  10.558  2.0179 -2.7453 -1.3108
  449MOL0     H60598   4.416   6.114  10.347  0.2217  1.9081 -0.1785
  449MOL0     H60599   4.459   6.356   9.845 -1.6342  0.0858 -1.9923
  449MOL0     H60600   4.526   6.290   9.629 -0.4470  0.5374  0.7412
  449MOL0     H60601   4.633   5.130   8.020  0.7270  0.7858  2.2423
  449MOL0     H60602   4.552   5.094   7.790 -0.7851 -0.0260 -1.0022
  449MOL0     H60603   4.549   4.995   7.323  1.7646  0.4925  2.4271
  449MOL0     H60604   4.497   5.047   7.077 -3.0615  0.5212  0.6789
  449MOL0     H60605   4.401   5.460   6.997 -0.3898 -0.0707  0.6694
  449MOL0     H60606   4.539   5.471   6.882 -1.2945  1.2925 -2.4024
  449MOL0     H60607   4.256   5.436   6.823 -0.6182 -0.8742 -1.1321
  449MOL0     H60608   4.313   5.270   6.828  1.9722 -1.0029  1.3822
  449MOL0     H60609   4.498   5.444   6.698 -0.8064  0.8214  3.4603
  449MOL0     H60610   4.334   5.444   6.616 -1.3283 -0.2075  1.0070
  449MOL0     H60611   4.347   5.210   6.585 -1.3790  2.1012  1.2656
  449MOL0     H60612   4.506   5.196   6.677 -0.7769  0.4197  1.5486
  449MOL0     H60613   4.617   5.329   6.286  0.1773 -2.6411 -0.9543
  449MOL0     H60614   4.482   5.468   7.171 -1.5517 -0.4737 -0.3059
  449MOL0     H60615   4.557   5.428   7.393  1.0647  0.2833 -0.3139
  450MOL0     O60616   6.737   4.473   6.450  0.1831  0.1203 -0.8073
  450MOL0     C60617   6.637   4.498   6.382  0.0898  1.0756 -0.8289
  450MOL0     O60618   6.634   4.551   6.251  0.1613 -0.3844  0.1223
  450MOL0     C60619   6.739   4.634   6.206 -0.5130  0.1398  0.0497
  450MOL0     C60620   6.784   4.631   6.071 -1.0790 -0.5847  0.1286
  450MOL0     C60621   6.886   4.715   6.030  0.3120 -0.4690  0.1740
  450MOL0     C60622   6.961   4.793   6.126  0.2682  0.9577 -0.0638
  450MOL0     O60623   7.061   4.873   6.081 -0.2233  0.6321  0.0805
  450MOL0     C60624   7.129   4.966   6.164 -0.1318  0.1132 -0.9968
  450MOL0     C60625   7.089   5.107   6.124  0.0374 -1.2201 -0.1502
  450MOL0     C60626   6.937   5.136   6.163 -0.2482  0.5197 -0.3657
  450MOL0     C60627   6.844   5.111   6.047 -1.0303  0.5092  1.2653
  450MOL0     C60628   6.701   5.139   6.064 -0.0773 -0.1895  0.2406
  450MOL0     C60629   6.625   5.054   6.161 -0.4672  0.1866  0.2167
  450MOL0     C60630   6.478   5.080   6.162  0.6177  0.0776 -0.1549
  450MOL0     C60631   6.412   4.980   6.269  0.9970 -0.3208  0.9521
  450MOL0     N60632   6.265   4.987   6.271  0.3932 -0.5610 -0.0108
  450MOL0     C60633   6.186   4.926   6.374  0.0576  0.1091 -0.2554
  450MOL0     C60634   6.066   4.924   6.322  0.0097  0.7021 -0.2469
  450MOL0     C60635   5.938   4.892   6.385 -0.6468  0.9036  0.8858
  450MOL0     C60636   5.931   4.945   6.530  0.0362  1.1950  0.1785
  450MOL0     C60637   5.785   4.925   6.569 -0.5302  0.2400 -0.3901
  450MOL0     C60638   5.770   4.927   6.716  1.3458 -0.9015  0.2006
  450MOL0     O60639   5.780   4.793   6.773  0.7328 -0.4376  0.1154
  450MOL0     C60640   5.722   4.765   6.894 -0.3101 -0.7052  0.3871
  450MOL0     C60641   5.758   4.650   6.968 -0.2088  0.4468  1.1373
  450MOL0     C60642   5.696   4.612   7.076 -0.4162  0.1645 -0.2620
  450MOL0     C60643   5.753   4.490   7.144  0.3698 -0.5232 -0.7248
  450MOL0     C60644   5.601   4.692   7.144  0.8326  0.5760 -0.1379
  450MOL0     C60645   5.514   4.665   7.264 -0.2609 -1.2702  0.8084
  450MOL0     O60646   5.443   4.776   7.316 -1.2468 -0.3825 -0.5176
  450MOL0     C60647   5.381   4.776   7.437 -0.0866 -0.0183  0.1598
  450MOL0     C60648   5.454   4.785   7.558 -0.8269  1.2110 -0.3936
  450MOL0     C60649   5.396   4.767   7.685 -0.3681 -1.1536  0.5146
  450MOL0     C60650   5.252   4.745   7.691 -0.0406  0.5293 -0.0804
  450MOL0     O60651   5.181   4.725   7.807 -0.4308  0.4256  0.0720
  450MOL0     C60652   5.262   4.690   7.920 -0.2060 -0.1980 -0.8741
  450MOL0     C60653   5.180   4.677   8.050 -0.7286  0.2556  1.0315
  450MOL0     C60654   5.276   4.694   8.174  0.1483 -0.3797 -0.0587
  450MOL0     C60655   5.199   4.676   8.307 -0.8786  0.3975  0.6947
  450MOL0     C60656   5.291   4.693   8.430 -0.0804 -0.0022  0.4636
  450MOL0     C60657   5.257   4.817   8.516 -0.5634 -0.6171 -0.4663
  450MOL0     C60658   5.326   4.812   8.658  1.5073 -0.2459  0.6976
  450MOL0     C60659   5.263   4.919   8.739  0.3520 -1.4226 -0.1884
  450MOL0    Cl60660   5.347   4.953   8.897  0.1098  0.0613  0.6335
  450MOL0     C60661   5.182   4.743   7.568  0.6110 -0.6826  0.3789
  450MOL0     C60662   5.248   4.761   7.443 -0.4759  0.4960  0.0966
  450MOL0     O60663   5.501   4.553   7.309  0.8861  0.1682  0.2531
  450MOL0     C60664   5.558   4.803   7.064  0.0616  0.0907  0.3556
  450MOL0     C60665   5.610   4.845   6.944  0.4334  0.2865  0.3133
  450MOL0     N60666   6.063   4.965   6.189 -0.4719  0.3575 -0.6208
  450MOL0     N60667   6.187   4.997   6.154  0.4063  0.3863  0.3559
  450MOL0     C60668   6.910   4.796   6.257 -1.3052  0.7602  0.5500
  450MOL0     C60669   6.808   4.714   6.295 -0.2279  0.2861 -0.0230
  450MOL0     C60670   6.505   4.467   6.435  0.6964 -0.1893 -0.6085
  450MOL0     C60671   6.488   4.428   6.570  0.7249  0.8921 -0.7698
  450MOL0     C60672   6.365   4.370   6.599  0.6146 -1.0594 -0.2029
  450MOL0     C60673   6.253   4.369   6.509  0.5043 -0.4611 -0.9308
  450MOL0     O60674   6.142   4.301   6.556  0.1440 -0.0206  0.2619
  450MOL0     C60675   6.013   4.328   6.510  0.3342  0.0262 -0.0819
  450MOL0     C60676   5.970   4.473   6.549 -0.1804  0.9062  0.1665
  450MOL0     C60677   5.816   4.501   6.534  0.2190 -0.3417 -0.1212
  450MOL0     C60678   5.780   4.490   6.382 -0.6098  0.3814  0.2331
  450MOL0     C60679   5.700   4.369   6.361  0.6481  0.1537 -0.2471
  450MOL0     C60680   5.628   4.272   6.349 -0.2622 -0.1784  0.3402
  450MOL0     C60681   6.271   4.430   6.386  0.2747 -0.5052 -0.5409
  450MOL0     C60682   6.396   4.481   6.349  0.6101  0.1882  0.0483
  450MOL0     H60683   6.741   4.560   6.001  0.4635  0.1690 -1.6720
  450MOL0     H60684   6.921   4.722   5.927  2.4354 -3.2645  0.6079
  450MOL0     H60685   7.119   4.948   6.272  0.5384  1.8276 -0.6104
  450MOL0     H60686   7.234   4.956   6.134 -1.0839  0.1570 -4.8131
  450MOL0     H60687   7.142   5.184   6.181  1.2144 -1.6513 -0.6156
  450MOL0     H60688   7.101   5.129   6.018 -2.5056  2.3639  0.1286
  450MOL0     H60689   6.912   5.082   6.255 -1.8562  1.6201 -0.1246
  450MOL0     H60690   6.935   5.238   6.202  1.7771 -0.8360  3.9131
  450MOL0     H60691   6.867   5.176   5.962 -1.4911 -1.9601 -0.8662
  450MOL0     H60692   6.864   5.012   6.005  4.0627  1.7453  0.0879
  450MOL0     H60693   6.688   5.244   6.090  1.4846 -0.7709  4.0549
  450MOL0     H60694   6.647   5.133   5.969 -1.5342 -2.7295  1.1309
  450MOL0     H60695   6.638   4.950   6.130 -3.0555  0.5033 -2.4553
  450MOL0     H60696   6.662   5.067   6.263 -0.7218  0.0284  0.3305
  450MOL0     H60697   6.456   5.184   6.189  1.7860 -0.4234  3.2165
  450MOL0     H60698   6.440   5.060   6.062 -2.3820 -0.4663  0.9963
  450MOL0     H60699   6.457   5.019   6.361 -0.0893  0.2854  1.2333
  450MOL0     H60700   6.435   4.874   6.255  2.8849  0.1118  0.4257
  450MOL0     H60701   6.225   4.908   6.474  5.3011  0.5676 -1.9176
  450MOL0     H60702   5.860   4.938   6.323 -2.2012 -4.4783 -1.8895
  450MOL0     H60703   5.910   4.786   6.380  0.9094  0.5348 -0.8074
  450MOL0     H60704   5.965   5.048   6.543 -1.1322  1.2224  4.0391
  450MOL0     H60705   6.001   4.885   6.588 -0.7282 -0.3000 -0.4035
  450MOL0     H60706   5.759   4.824   6.536  0.6404 -0.4093  0.6028
  450MOL0     H60707   5.727   4.999   6.514 -1.9574 -1.5441 -1.4239
  450MOL0     H60708   5.674   4.979   6.729  2.2649  1.2690 -1.1000
  450MOL0     H60709   5.849   4.985   6.766  1.4677 -0.9571  0.0706
  450MOL0     H60710   5.837   4.588   6.926  0.2912  2.1080 -0.5362
  450MOL0     H60711   5.697   4.397   7.127 -2.3887  0.9582 -0.3848
  450MOL0     H60712   5.857   4.466   7.123 -0.3586 -4.2672 -0.8766
  450MOL0     H60713   5.750   4.501   7.253 -1.7890 -2.6771 -0.4643
  450MOL0     H60714   5.561   4.789   7.545 -0.9039  2.2634 -0.8356
  450MOL0     H60715   5.461   4.777   7.772  1.0806 -0.8687 -0.5646
  450MOL0     H60716   5.310   4.596   7.891 -2.6374 -1.1242 -2.2884
  450MOL0     H60717   5.334   4.771   7.932 -1.1470  0.7868 -1.6405
  450MOL0     H60718   5.101   4.753   8.050 -1.2670 -0.2979  1.6819
  450MOL0     H60719   5.123   4.584   8.059 -4.0764  2.2172  1.7192
  450MOL0     H60720   5.316   4.795   8.164  2.2557 -0.6790  3.4788
  450MOL0     H60721   5.364   4.630   8.160 -0.0265 -0.0228 -3.7966
  450MOL0     H60722   5.122   4.753   8.301  0.1814  1.5648  1.5423
  450MOL0     H60723   5.156   4.576   8.309 -2.5875  1.0705 -0.3504
  450MOL0     H60724   5.399   4.702   8.413  0.2426  0.0899  2.3648
  450MOL0     H60725   5.280   4.609   8.498  2.3841 -1.4796 -0.8040
  450MOL0     H60726   5.282   4.903   8.453  1.3093 -0.4548  0.4593
  450MOL0     H60727   5.149   4.825   8.532 -1.1077 -3.8726 -1.7847
  450MOL0     H60728   5.430   4.844   8.651  0.4585  3.3166 -0.6762
  450MOL0     H60729   5.309   4.711   8.697  1.4255  0.0928  1.5466
  450MOL0     H60730   5.160   4.889   8.763 -0.4626 -0.1693 -1.8890
  450MOL0     H60731   5.258   5.011   8.679  3.4944  0.5451  2.2306
  450MOL0     H60732   5.075   4.726   7.572  0.3509  0.6702 -0.3556
  450MOL0     H60733   5.184   4.752   7.356 -0.3432  0.4339  0.0048
  450MOL0     H60734   5.468   4.863   7.075  1.1784  2.6160 -2.7744
  450MOL0     H60735   5.567   4.926   6.886 -1.5645 -3.0937 -3.4390
  450MOL0     H60736   6.968   4.856   6.327  0.1380  0.3198 -0.2332
  450MOL0     H60737   6.785   4.724   6.400  2.8271  3.2147  0.5611
  450MOL0     H60738   6.579   4.433   6.630  0.4041 -1.0973 -0.0392
  450MOL0     H60739   6.357   4.299   6.681  2.0553 -2.2996 -1.0760
  450MOL0     H60740   5.997   4.301   6.405 -1.1182  0.4307  0.0058
  450MOL0     H60741   5.931   4.271   6.556 -3.2292  2.2685 -3.0416
  450MOL0     H60742   6.026   4.546   6.491 -0.8620  0.3583 -1.2257
  450MOL0     H60743   6.010   4.479   6.651  3.3003  0.0764 -0.9945
  450MOL0     H60744   5.804   4.605   6.565  0.0447  0.5893 -3.0432
  450MOL0     H60745   5.765   4.433   6.603 -1.0429  0.6071 -0.1006
  450MOL0     H60746   5.861   4.498   6.309 -0.4471  2.9047  0.5892
  450MOL0     H60747   5.714   4.571   6.350  0.3695 -0.3062 -4.1029
  450MOL0     H60748   5.583   4.176   6.332  2.1806 -1.6813  1.6754
  450MOL0     H60749   6.188   4.422   6.317 -2.1491  2.4816  1.7127
  450MOL0     H60750   6.405   4.520   6.248  2.1733 -2.0113 -0.7426
  451MOL0     O60751   9.594   5.620   4.049 -0.4826  0.0090  0.4639
  451MOL0     C60752   9.485   5.634   3.998  0.1300  0.2874  1.2675
  451MOL0     O60753   9.386   5.543   3.992  0.6264 -0.4612 -0.0091
  451MOL0     C60754   9.411   5.419   4.037  0.5786  0.8355 -0.3961
  451MOL0     C60755   9.525   5.344   4.009 -0.2530  0.2789  0.4154
  451MOL0     C60756   9.527   5.208   4.053 -0.8659  0.0734  0.1845
  451MOL0     C60757   9.414   5.155   4.120  0.7522  0.3547  0.3330
  451MOL0     O60758   9.398   5.032   4.179  0.2183 -0.1084  0.3331
  451MOL0     C60759   9.488   4.923   4.151 -0.5290  0.4029  0.1012
  451MOL0     C60760   9.432   4.799   4.227  0.2627  0.2740  0.3603
  451MOL0     C60761   9.525   4.685   4.217  0.0258  1.4878  0.5314
  451MOL0     C60762   9.466   4.539   4.190  0.1223  0.2509 -0.0456
  451MOL0     C60763   9.344   4.499   4.277 -0.3784 -0.5881  0.9089
  451MOL0     C60764   9.370   4.489   4.425 -0.2748 -0.0129  0.4937
  451MOL0     C60765   9.244   4.415   4.476 -0.6914 -0.8596  0.5615
  451MOL0     C60766   9.239   4.422   4.626  0.2309  0.8667 -0.2820
  451MOL0     N60767   9.338   4.331   4.686  0.1003  0.3397 -0.0729
  451MOL0     C60768   9.342   4.199   4.671 -0.3360  0.8560 -0.0909
  451MOL0     C60769   9.447   4.160   4.751  0.2777  0.3887  0.4577
  451MOL0     C60770   9.479   4.012   4.785 -0.2215 -0.2146 -0.5796
  451MOL0     C60771   9.629   3.988   4.742  0.3141 -0.4379  0.8191
  451MOL0     C60772   9.679   3.850   4.733 -0.1778 -0.0447 -0.4470
  451MOL0     C60773   9.693   3.793   4.880 -0.6705 -0.1557 -0.4436
  451MOL0     O60774   9.701   3.646   4.879 -0.5185  0.4903 -0.5347
  451MOL0     C60775   9.819   3.587   4.838 -0.5019 -0.2280 -0.6703
  451MOL0     C60776   9.796   3.461   4.778  0.2987  0.0561 -0.2598
  451MOL0     C60777   9.900   3.383   4.730 -0.3086  0.4993  0.2216
  451MOL0     C60778   9.875   3.243   4.661 -0.7353  0.4580  0.5030
  451MOL0     C60779  10.038   3.433   4.737  0.4941 -0.2597  0.4956
  451MOL0     C60780  10.165   3.355   4.691 -0.4676  0.3032  0.6409
  451MOL0     O60781  10.273   3.442   4.665 -0.3740 -0.0467  0.9629
  451MOL0     C60782  10.359   3.413   4.566 -0.9815 -0.1300  0.6248
  451MOL0     C60783  10.443   3.534   4.533  0.9961  0.3198  0.1148
  451MOL0     C60784  10.551   3.523   4.449  0.3730 -0.0579  0.3740
  451MOL0     C60785  10.592   3.394   4.389 -0.4021  0.1956  0.3348
  451MOL0     O60786  10.696   3.378   4.307 -0.1460  0.3226  0.2676
  451MOL0     C60787  10.793   3.469   4.346 -0.8469  0.5288 -0.0426
  451MOL0     C60788  10.933   3.428   4.290 -1.1232 -0.6396  0.3707
  451MOL0     C60789  10.989   3.302   4.344  0.2154  0.6015  1.2950
  451MOL0     C60790  11.129   3.261   4.287  0.3085 -0.9968 -0.1648
  451MOL0     C60791  11.175   3.128   4.363  0.5068 -0.6205  0.4274
  451MOL0     C60792  11.193   3.144   4.512  0.0367  0.4274 -0.6910
  451MOL0     C60793  11.272   3.020   4.574  1.4517  0.9723  0.1946
  451MOL0     C60794  11.420   3.018   4.572 -0.0046  0.4944  0.3821
  451MOL0    Cl60795  11.503   3.168   4.645 -0.1675 -0.8911  0.1904
  451MOL0     C60796  10.510   3.283   4.416  0.2547 -0.7609 -0.3620
  451MOL0     C60797  10.395   3.290   4.503 -0.3328 -0.1693  0.7297
  451MOL0     O60798  10.181   3.230   4.708  0.6657  0.3497  0.0892
  451MOL0     C60799  10.053   3.562   4.799  0.2509 -0.4660  1.0392
  451MOL0     C60800   9.953   3.641   4.851  0.4936 -0.0798  0.7319
  451MOL0     N60801   9.498   4.271   4.817  0.2226 -0.7794  0.1607
  451MOL0     N60802   9.421   4.369   4.780 -0.4087  0.4438 -0.4611
  451MOL0     C60803   9.305   5.233   4.141 -0.7111 -0.1119  0.1416
  451MOL0     C60804   9.296   5.361   4.102  0.0989  0.0855 -0.0701
  451MOL0     C60805   9.455   5.769   3.959  0.4544  0.0173 -0.4984
  451MOL0     C60806   9.329   5.789   3.902  0.9470 -0.1534  0.3586
  451MOL0     C60807   9.299   5.920   3.851  0.1981 -0.2394 -0.3302
  451MOL0     C60808   9.381   6.035   3.874 -0.3772  0.3751  0.1388
  451MOL0     O60809   9.342   6.169   3.853 -0.1153 -0.4626 -0.7493
  451MOL0     C60810   9.193   6.189   3.828  0.1176  0.7835 -0.7659
  451MOL0     C60811   9.142   6.328   3.852  0.7249 -0.2514  1.0118
  451MOL0     C60812   9.135   6.373   3.996  0.3317  0.3143 -1.3105
  451MOL0     C60813   9.241   6.327   4.096 -0.6756  0.8726  0.1658
  451MOL0     C60814   9.355   6.412   4.068  0.2543  0.1047 -0.7509
  451MOL0     C60815   9.461   6.466   4.052 -1.0200  0.2148  0.1843
  451MOL0     C60816   9.504   6.010   3.933 -0.0882 -0.5592 -0.1465
  451MOL0     C60817   9.546   5.875   3.974  0.0049  0.8341  0.5786
  451MOL0     H60818   9.608   5.392   3.958 -1.7236  1.6923 -0.7069
  451MOL0     H60819   9.615   5.144   4.045 -0.2960  0.9651 -1.0430
  451MOL0     H60820   9.495   4.914   4.042 -0.9536  4.7733 -0.4681
  451MOL0     H60821   9.581   4.950   4.201 -0.0522  0.3371 -0.7320
  451MOL0     H60822   9.423   4.830   4.332  2.9200  1.0739  0.4144
  451MOL0     H60823   9.336   4.772   4.182  1.1400 -0.2632 -1.2625
  451MOL0     H60824   9.612   4.700   4.154 -1.1734  1.2090 -1.2616
  451MOL0     H60825   9.548   4.675   4.324  1.8345 -4.5083 -0.0400
  451MOL0     H60826   9.449   4.537   4.082 -1.1930 -1.2330  0.1458
  451MOL0     H60827   9.544   4.465   4.207  2.2309  2.4281  0.3712
  451MOL0     H60828   9.279   4.587   4.264  0.1855 -0.2506  0.3229
  451MOL0     H60829   9.310   4.407   4.229 -2.2305  1.5759 -2.4003
  451MOL0     H60830   9.461   4.431   4.444  2.0873  3.6546  1.5339
  451MOL0     H60831   9.381   4.588   4.469 -4.4874  1.4187 -1.1534
  451MOL0     H60832   9.143   4.443   4.445 -0.3206 -1.5056 -1.3933
  451MOL0     H60833   9.249   4.310   4.444 -0.4273 -0.7172  0.1266
  451MOL0     H60834   9.141   4.382   4.654  1.6806 -1.7989  1.3419
  451MOL0     H60835   9.247   4.525   4.663 -1.3749  1.3746 -1.2192
  451MOL0     H60836   9.277   4.136   4.611 -0.7153  0.0567  1.1394
  451MOL0     H60837   9.472   3.993   4.893  2.0868  0.8545 -0.1841
  451MOL0     H60838   9.411   3.944   4.734  1.2495 -1.6372 -0.7239
  451MOL0     H60839   9.686   4.044   4.816  3.6127 -3.4825  0.8443
  451MOL0     H60840   9.643   4.018   4.637 -1.8029 -2.4107 -0.1282
  451MOL0     H60841   9.766   3.838   4.668 -1.9823 -0.5682 -2.9307
  451MOL0     H60842   9.601   3.797   4.678  0.3430 -0.6846 -0.5932
  451MOL0     H60843   9.606   3.817   4.941 -2.4569  0.6970 -3.1120
  451MOL0     H60844   9.784   3.829   4.929 -2.6109 -1.8513  5.1258
  451MOL0     H60845   9.693   3.427   4.773 -0.4329  2.0331  0.1955
  451MOL0     H60846   9.946   3.173   4.705 -1.6356 -0.8766 -0.0912
  451MOL0     H60847   9.776   3.208   4.693 -1.8585  3.2146  0.2966
  451MOL0     H60848   9.879   3.253   4.552  0.6010  1.1013  0.5914
  451MOL0     H60849  10.415   3.630   4.576  0.8823 -0.6648  2.3704
  451MOL0     H60850  10.604   3.616   4.426 -2.6668  1.7721  0.2574
  451MOL0     H60851  10.755   3.558   4.296 -0.2065  0.0282 -1.4595
  451MOL0     H60852  10.791   3.478   4.455 -5.2506  2.0192 -0.0386
  451MOL0     H60853  10.919   3.394   4.187  0.0346 -0.4363  0.1290
  451MOL0     H60854  11.001   3.513   4.296  0.1357 -1.6118  0.2863
  451MOL0     H60855  10.925   3.214   4.334 -1.4580  1.9334 -0.4524
  451MOL0     H60856  11.000   3.318   4.451  0.3677  0.7927  1.2516
  451MOL0     H60857  11.134   3.268   4.177 -4.8624 -2.0604 -0.7400
  451MOL0     H60858  11.201   3.337   4.318  0.3786 -1.8780  1.9978
  451MOL0     H60859  11.272   3.091   4.329  0.1539 -1.8740  0.7160
  451MOL0     H60860  11.105   3.047   4.341  0.0633 -0.6656  1.8991
  451MOL0     H60861  11.247   3.237   4.532  0.3322  0.4181 -1.3977
  451MOL0     H60862  11.094   3.144   4.557  0.9123 -2.9484  1.6517
  451MOL0     H60863  11.237   2.928   4.526 -0.0962 -0.7534  4.2097
  451MOL0     H60864  11.228   3.006   4.673 -4.4906  2.9345 -1.7380
  451MOL0     H60865  11.438   3.001   4.466 -3.6898 -1.3961 -0.1063
  451MOL0     H60866  11.470   2.935   4.621 -0.0766  0.4324  0.3514
  451MOL0     H60867  10.529   3.181   4.382 -0.2516 -0.8364 -0.4356
  451MOL0     H60868  10.337   3.199   4.514  0.0486 -0.4161  0.6966
  451MOL0     H60869  10.158   3.589   4.806  0.4276 -0.6728 -0.5095
  451MOL0     H60870   9.981   3.736   4.896  1.0295  1.2889 -2.2662
  451MOL0     H60871   9.226   5.183   4.195 -0.0375 -0.7510  0.5530
  451MOL0     H60872   9.205   5.417   4.121  0.5957  0.5923  0.9169
  451MOL0     H60873   9.253   5.713   3.887  0.7105 -0.1097  1.2917
  451MOL0     H60874   9.199   5.935   3.812  0.8698  2.4333 -1.2137
  451MOL0     H60875   9.181   6.139   3.732  2.9457 -0.9909 -0.3109
  451MOL0     H60876   9.137   6.135   3.905  0.2247  2.8827  0.8648
  451MOL0     H60877   9.037   6.334   3.824  0.3737  2.5832  2.6042
  451MOL0     H60878   9.202   6.401   3.796 -1.1071  1.2299  0.8646
  451MOL0     H60879   9.040   6.346   4.044  2.1367 -1.3463  1.5983
  451MOL0     H60880   9.122   6.481   3.987 -1.0604  0.3472  0.4031
  451MOL0     H60881   9.277   6.225   4.079  1.2596  1.9564 -3.0229
  451MOL0     H60882   9.189   6.336   4.192 -1.0380 -1.5518  0.2453
  451MOL0     H60883   9.557   6.509   4.034 -1.1615  1.3202  1.9124
  451MOL0     H60884   9.574   6.094   3.934  1.8175 -2.0044 -2.3602
  451MOL0     H60885   9.649   5.857   4.004 -0.5256 -1.9320  0.9691
  452MOL0     O60886   4.168   7.405   4.929 -0.0587 -0.0661 -0.2142
  452MOL0     C60887   4.149   7.432   5.052 -0.0569 -0.8820  0.7960
  452MOL0     O60888   4.029   7.444   5.109 -0.2369  0.3739 -0.4003
  452MOL0     C60889   3.903   7.410   5.065  0.0006  0.7762  0.6462
  452MOL0     C60890   3.803   7.473   5.125  1.2715 -0.3146 -0.1585
  452MOL0     C60891   3.671   7.439   5.088  0.0710 -0.2905 -0.7655
  452MOL0     C60892   3.643   7.336   4.996  0.9029 -0.9293  0.9312
  452MOL0     O60893   3.520   7.292   4.954  0.5816  0.1475  0.3259
  452MOL0     C60894   3.406   7.358   5.003 -0.2342  0.4109  0.2098
  452MOL0     C60895   3.279   7.278   4.978  0.2970  0.3371  0.4836
  452MOL0     C60896   3.177   7.320   5.091 -0.2225 -0.0820  0.1912
  452MOL0     C60897   3.203   7.270   5.226 -0.0233  0.4539  0.2998
  452MOL0     C60898   3.093   7.342   5.317 -0.0886 -0.0488  0.2920
  452MOL0     C60899   2.947   7.286   5.333  0.2613  0.6385  0.9418
  452MOL0     C60900   2.938   7.139   5.370  0.2168  0.2227  0.4048
  452MOL0     C60901   2.980   7.116   5.514  0.1311 -0.3708  0.7171
  452MOL0     N60902   2.966   6.978   5.567  0.1238 -0.0297 -0.6348
  452MOL0     C60903   3.068   6.887   5.589 -0.3713  0.2617 -0.7174
  452MOL0     C60904   3.007   6.772   5.633 -0.1616  0.4880 -0.4755
  452MOL0     C60905   3.093   6.655   5.675 -0.2269  0.0781 -0.2935
  452MOL0     C60906   3.148   6.665   5.816  0.6817  0.2963  0.0841
  452MOL0     C60907   3.062   6.727   5.926  0.2272  0.5796  0.0508
  452MOL0     C60908   2.948   6.627   5.969  0.3318 -0.5132 -0.0726
  452MOL0     O60909   3.008   6.503   6.005  0.3607 -0.5006  0.3340
  452MOL0     C60910   3.038   6.463   6.134 -0.0264  0.3015 -0.4859
  452MOL0     C60911   3.028   6.547   6.248  0.1601 -0.3215 -0.4153
  452MOL0     C60912   3.054   6.506   6.384  1.3206  0.8278  0.8824
  452MOL0     C60913   3.041   6.602   6.492 -0.5905 -0.7673  0.0163
  452MOL0     C60914   3.108   6.371   6.398  0.1113  0.1950  0.0544
  452MOL0     C60915   3.153   6.317   6.528  0.1231 -0.0577 -1.1409
  452MOL0     O60916   3.249   6.233   6.533 -0.4720 -0.9018 -0.1229
  452MOL0     C60917   3.322   6.226   6.648 -0.9837  0.5653 -0.2218
  452MOL0     C60918   3.335   6.109   6.725  0.3384  0.4207 -0.5719
  452MOL0     C60919   3.404   6.099   6.845  0.1965 -0.6483 -0.1988
  452MOL0     C60920   3.436   6.215   6.912 -0.5984 -0.0228 -0.5444
  452MOL0     O60921   3.513   6.208   7.020 -0.3596 -0.0580 -0.1114
  452MOL0     C60922   3.648   6.257   7.011 -0.0074 -0.2271 -0.1323
  452MOL0     C60923   3.684   6.333   7.139 -0.2997 -0.4574 -0.3476
  452MOL0     C60924   3.581   6.436   7.186  1.5250 -1.9773 -0.1799
  452MOL0     C60925   3.587   6.461   7.342  0.3208 -0.2504  0.3181
  452MOL0     C60926   3.701   6.553   7.368 -0.4877 -0.5803  0.2974
  452MOL0     C60927   3.708   6.585   7.514 -0.0318 -0.0513 -0.2339
  452MOL0     C60928   3.626   6.711   7.556  0.3465  0.7419 -0.1386
  452MOL0     C60929   3.565   6.707   7.702  0.4371  0.5532  0.2607
  452MOL0    Cl60930   3.433   6.582   7.724  0.1678  0.0032  0.1128
  452MOL0     C60931   3.429   6.334   6.845 -0.0602  0.0242  0.0601
  452MOL0     C60932   3.383   6.339   6.711 -0.2115  0.4624 -0.0042
  452MOL0     O60933   3.099   6.369   6.624 -0.4617  0.0679 -0.1534
  452MOL0     C60934   3.110   6.293   6.281 -0.9043  0.4521 -0.3798
  452MOL0     C60935   3.070   6.335   6.153  0.4683  0.1594 -0.7363
  452MOL0     N60936   2.874   6.803   5.649 -0.9109  0.2908 -0.6126
  452MOL0     N60937   2.849   6.928   5.615  0.1524 -0.7397  0.3498
  452MOL0     C60938   3.752   7.274   4.937  0.5305  0.4309 -0.4003
  452MOL0     C60939   3.877   7.315   4.970 -0.3185 -0.0556 -0.7299
  452MOL0     C60940   4.264   7.453   5.136 -0.3265 -0.2667 -0.0547
  452MOL0     C60941   4.247   7.497   5.270  0.4482  0.3642 -0.2647
  452MOL0     C60942   4.353   7.520   5.366 -0.1094 -1.1653 -0.4281
  452MOL0     C60943   4.483   7.502   5.327  0.2699  0.2693 -0.9160
  452MOL0     O60944   4.590   7.515   5.408 -0.3984  0.6414 -0.6133
  452MOL0     C60945   4.577   7.509   5.550 -0.4380 -0.2278 -0.1064
  452MOL0     C60946   4.602   7.659   5.590  0.0784  0.2224 -0.0064
  452MOL0     C60947   4.742   7.724   5.573  1.1163  0.7101  0.4983
  452MOL0     C60948   4.764   7.828   5.687  0.6745  0.9670  0.9449
  452MOL0     C60949   4.817   7.776   5.808  0.1014  0.2530 -0.3253
  452MOL0     C60950   4.880   7.747   5.904 -0.4469 -0.4145 -0.0675
  452MOL0     C60951   4.500   7.466   5.198 -0.3165  0.0971 -0.2154
  452MOL0     C60952   4.401   7.434   5.105  0.6444 -0.3226  0.2103
  452MOL0     H60953   3.821   7.544   5.204 -1.2343 -2.6709  2.8064
  452MOL0     H60954   3.592   7.481   5.150  0.1897  0.5273 -1.1559
  452MOL0     H60955   3.424   7.375   5.109 -0.4383  1.1252  0.1372
  452MOL0     H60956   3.400   7.454   4.950  2.7852  2.7656  3.6715
  452MOL0     H60957   3.248   7.298   4.875 -2.4593 -3.2661  0.4125
  452MOL0     H60958   3.308   7.172   4.982  0.8284  0.4628  0.1270
  452MOL0     H60959   3.175   7.429   5.095  3.8028  0.2257 -2.0951
  452MOL0     H60960   3.078   7.280   5.067  0.0859 -0.1922 -0.9077
  452MOL0     H60961   3.186   7.162   5.226 -0.9893  0.5213  3.0330
  452MOL0     H60962   3.305   7.291   5.257  0.1533  2.0597 -1.1791
  452MOL0     H60963   3.135   7.328   5.417  4.3944 -2.9362 -1.6579
  452MOL0     H60964   3.077   7.447   5.295  3.6886  0.7420  0.6274
  452MOL0     H60965   2.900   7.347   5.410 -1.2282  3.0709 -1.6900
  452MOL0     H60966   2.892   7.306   5.241 -0.0633  0.8888  1.1887
  452MOL0     H60967   2.830   7.126   5.356 -0.3966  1.7978  3.0582
  452MOL0     H60968   2.985   7.083   5.289 -1.0938 -1.2454  0.6121
  452MOL0     H60969   2.914   7.185   5.567 -1.5917 -0.9615 -0.5186
  452MOL0     H60970   3.082   7.149   5.535 -0.1171  4.0933 -3.2849
  452MOL0     H60971   3.175   6.896   5.574 -0.4034 -0.7214 -1.6571
  452MOL0     H60972   3.035   6.562   5.673 -0.4935  0.2294  0.2048
  452MOL0     H60973   3.183   6.657   5.613 -0.7591 -0.9899 -1.1186
  452MOL0     H60974   3.229   6.739   5.811 -0.4074  1.6148  1.2483
  452MOL0     H60975   3.189   6.569   5.850 -1.6887 -0.9032 -0.2142
  452MOL0     H60976   3.032   6.828   5.897  2.1092  0.8002 -1.2656
  452MOL0     H60977   3.125   6.744   6.013  0.4009  1.9702 -0.3299
  452MOL0     H60978   2.881   6.620   5.884  0.8356  1.9785 -0.7448
  452MOL0     H60979   2.889   6.684   6.041  2.0888  1.6721 -0.2546
  452MOL0     H60980   3.018   6.654   6.238  1.4950 -0.3262 -2.5059
  452MOL0     H60981   3.020   6.697   6.442  2.1280 -0.6866 -1.2036
  452MOL0     H60982   2.959   6.569   6.555  0.6919 -1.8298  1.2103
  452MOL0     H60983   3.137   6.608   6.545 -0.0974  2.4701 -1.0102
  452MOL0     H60984   3.283   6.021   6.691 -0.5760  0.8144 -0.2161
  452MOL0     H60985   3.421   6.011   6.906 -0.0755  0.1934  1.1290
  452MOL0     H60986   3.725   6.181   6.995  5.1889  4.0653  1.3666
  452MOL0     H60987   3.651   6.326   6.926 -0.1521  1.7801  1.3970
  452MOL0     H60988   3.708   6.271   7.227  3.5845  0.2943 -0.6610
  452MOL0     H60989   3.783   6.377   7.120 -0.5499 -0.5414 -1.9027
  452MOL0     H60990   3.476   6.413   7.166  0.9325  1.2728 -1.3574
  452MOL0     H60991   3.597   6.531   7.134 -3.4539 -0.2829  0.8427
  452MOL0     H60992   3.491   6.506   7.368  0.6091  0.2806  0.4731
  452MOL0     H60993   3.605   6.369   7.398  2.2929 -0.6525 -0.8625
  452MOL0     H60994   3.699   6.645   7.308 -0.1274  1.1935  2.8303
  452MOL0     H60995   3.796   6.512   7.332 -1.0848  0.3159 -2.6255
  452MOL0     H60996   3.688   6.499   7.580  2.1950 -0.2971  0.2127
  452MOL0     H60997   3.810   6.610   7.544 -0.9696  1.1323  2.2707
  452MOL0     H60998   3.555   6.730   7.475  0.9194  0.6368 -0.6708
  452MOL0     H60999   3.694   6.796   7.555  1.2645  0.0321 -1.4355
  452MOL0     H61000   3.535   6.802   7.749 -1.5279  0.0703  0.0511
  452MOL0     H61001   3.639   6.667   7.772 -0.8953  0.4229  1.6754
  452MOL0     H61002   3.457   6.428   6.891  4.3741  0.3199 -2.6147
  452MOL0     H61003   3.379   6.433   6.658  0.2972  0.4018 -0.1547
  452MOL0     H61004   3.160   6.197   6.293  1.9536  2.1880  4.0026
  452MOL0     H61005   3.077   6.268   6.068  0.6030 -1.9029  0.8316
  452MOL0     H61006   3.743   7.202   4.857 -0.0570 -0.2211  0.2312
  452MOL0     H61007   3.954   7.258   4.920  0.0702  0.0148 -0.2162
  452MOL0     H61008   4.151   7.534   5.305  2.2605  4.6192  0.8444
  452MOL0     H61009   4.330   7.585   5.450  2.1459  0.8524 -1.2380
  452MOL0     H61010   4.476   7.486   5.586 -1.0739  2.7396  0.2273
  452MOL0     H61011   4.647   7.443   5.603 -2.9594 -1.7317  1.6068
  452MOL0     H61012   4.563   7.665   5.692 -1.9449 -3.6222 -0.3672
  452MOL0     H61013   4.535   7.717   5.526  1.0050 -1.0657 -2.2772
  452MOL0     H61014   4.733   7.777   5.478 -0.3481  2.9023  1.7812
  452MOL0     H61015   4.824   7.654   5.557  0.9881  0.3931  1.2055
  452MOL0     H61016   4.667   7.878   5.698 -0.3558 -0.3878 -1.0903
  452MOL0     H61017   4.838   7.904   5.660  0.3923  0.9317  0.0373
  452MOL0     H61018   4.926   7.725   5.999 -3.9110 -0.8681  1.6783
  452MOL0     H61019   4.604   7.458   5.170  0.4635  0.2630  2.3103
  452MOL0     H61020   4.426   7.410   5.002 -2.1797  1.7879 -1.0925
  453MOL0     O61021   5.341   4.435   3.318  0.1556 -0.5443  0.9972
  453MOL0     C61022   5.248   4.461   3.389  0.5666 -0.1192  0.3548
  453MOL0     O61023   5.240   4.577   3.471  0.0062 -0.1970  0.1534
  453MOL0     C61024   5.346   4.656   3.496 -1.8504 -0.0219  0.4964
  453MOL0     C61025   5.412   4.624   3.615  0.4074 -0.3281  1.3769
  453MOL0     C61026   5.515   4.696   3.663  0.7589 -0.3013  0.0482
  453MOL0     C61027   5.559   4.817   3.596 -0.2742 -0.1073  0.8315
  453MOL0     O61028   5.640   4.918   3.640  0.4542 -0.0489 -0.3991
  453MOL0     C61029   5.623   4.975   3.775 -0.4451 -0.2485 -0.2816
  453MOL0     C61030   5.723   5.092   3.796 -0.3713 -0.1582 -0.5355
  453MOL0     C61031   5.863   5.028   3.792 -0.6268 -0.4885  0.4155
  453MOL0     C61032   5.976   5.124   3.834 -0.3542 -0.1917  0.1644
  453MOL0     C61033   6.114   5.064   3.802  0.2899 -0.3049 -0.6994
  453MOL0     C61034   6.224   5.164   3.793 -0.9206 -0.1047  0.2230
  453MOL0     C61035   6.348   5.117   3.709  0.5938 -0.5240 -0.0048
  453MOL0     C61036   6.329   5.135   3.566  0.9067  0.3731  0.6161
  453MOL0     N61037   6.427   5.077   3.479  0.4668  0.1677  0.4583
  453MOL0     C61038   6.518   5.145   3.400 -0.3380 -0.1476 -0.7142
  453MOL0     C61039   6.579   5.048   3.326 -0.1220 -0.6530  0.0131
  453MOL0     C61040   6.705   5.070   3.249 -0.6356 -1.1262 -0.2324
  453MOL0     C61041   6.842   5.069   3.317  0.7047 -0.4291 -0.0470
  453MOL0     C61042   6.874   5.208   3.374 -0.9988 -0.3072 -0.1843
  453MOL0     C61043   6.971   5.290   3.295 -0.7183 -0.0182 -0.0325
  453MOL0     O61044   7.101   5.222   3.280 -0.2372  0.3808  0.5682
  453MOL0     C61045   7.193   5.276   3.196  0.0011 -1.0850  0.4135
  453MOL0     C61046   7.313   5.212   3.185 -0.4380  0.5529 -0.1294
  453MOL0     C61047   7.410   5.264   3.087  0.4139 -0.7362  0.6325
  453MOL0     C61048   7.533   5.179   3.048  0.0714  0.2238 -0.1427
  453MOL0     C61049   7.392   5.389   3.028 -0.4726 -0.2673 -0.3927
  453MOL0     C61050   7.476   5.426   2.909  0.0132 -1.1058 -0.0410
  453MOL0     O61051   7.408   5.489   2.807 -0.3885  0.1199  0.1594
  453MOL0     C61052   7.452   5.495   2.679 -0.4330  0.3392 -0.0820
  453MOL0     C61053   7.553   5.410   2.625  0.6202  0.6294 -0.2656
  453MOL0     C61054   7.584   5.406   2.495  0.0480  0.0860  0.4442
  453MOL0     C61055   7.538   5.509   2.412  0.0944  1.2089  0.4399
  453MOL0     O61056   7.583   5.504   2.276 -0.2036 -0.5264 -0.1245
  453MOL0     C61057   7.489   5.536   2.173 -0.3063 -0.3925 -0.1517
  453MOL0     C61058   7.377   5.431   2.168 -0.2131 -0.1615 -0.2479
  453MOL0     C61059   7.284   5.445   2.037  0.2631 -0.5715 -0.3709
  453MOL0     C61060   7.187   5.331   2.014 -0.0741  0.5397  0.4269
  453MOL0     C61061   7.101   5.361   1.887 -0.1813 -0.1132 -0.2412
  453MOL0     C61062   6.979   5.264   1.880 -0.4779 -0.7827  0.7650
  453MOL0     C61063   6.908   5.263   1.747 -0.7192 -0.5749 -0.2164
  453MOL0     C61064   6.758   5.221   1.759  0.7031  0.6672  0.8435
  453MOL0    Cl61065   6.654   5.360   1.768  0.2493  0.2306  0.0979
  453MOL0     C61066   7.450   5.606   2.465 -0.6788 -0.4231  0.2417
  453MOL0     C61067   7.411   5.602   2.596 -0.8295 -0.1384 -0.2230
  453MOL0     O61068   7.598   5.439   2.929 -0.1690 -0.4294 -0.1760
  453MOL0     C61069   7.268   5.453   3.051  0.3554  0.3328  0.6062
  453MOL0     C61070   7.175   5.405   3.138  0.1306 -0.1548  0.1284
  453MOL0     N61071   6.524   4.923   3.360 -0.4835 -0.2717  0.5496
  453MOL0     N61072   6.449   4.943   3.464  0.6410 -0.6265  0.1459
  453MOL0     C61073   5.505   4.831   3.468  0.1634 -0.2044  1.1224
  453MOL0     C61074   5.407   4.751   3.413 -0.8470  0.2852  0.0559
  453MOL0     C61075   5.126   4.366   3.381  0.4450 -0.4191 -0.5947
  453MOL0     C61076   5.022   4.362   3.475 -0.1454  0.0260  0.4471
  453MOL0     C61077   4.921   4.266   3.470 -0.5763  0.3038  0.6263
  453MOL0     C61078   4.924   4.172   3.360 -0.2142  0.4955  0.2640
  453MOL0     O61079   4.819   4.088   3.326  0.2630 -0.4452 -0.6205
  453MOL0     C61080   4.690   4.115   3.374 -0.1388 -1.1914 -0.2692
  453MOL0     C61081   4.592   4.072   3.272 -0.6583 -0.5431 -0.2725
  453MOL0     C61082   4.530   3.927   3.294 -0.8120 -0.2251 -0.2938
  453MOL0     C61083   4.435   3.921   3.411  0.5742 -0.3549 -0.5777
  453MOL0     C61084   4.320   4.013   3.393  0.3103  0.4899  0.0354
  453MOL0     C61085   4.235   4.099   3.363 -0.4564  0.4150  0.1852
  453MOL0     C61086   5.025   4.169   3.265 -0.0518  0.1536 -0.3453
  453MOL0     C61087   5.132   4.258   3.287 -1.2596  0.0016 -1.3595
  453MOL0     H61088   5.369   4.545   3.675 -0.9900 -0.9035 -0.2788
  453MOL0     H61089   5.572   4.662   3.749 -0.9528 -1.7310  0.6605
  453MOL0     H61090   5.518   4.997   3.797  0.1234  1.7069  0.6708
  453MOL0     H61091   5.657   4.899   3.846 -0.5130  0.1529  0.1843
  453MOL0     H61092   5.714   5.170   3.720  0.3691  0.5533  0.0857
  453MOL0     H61093   5.707   5.132   3.896 -1.8503 -0.3836 -0.6550
  453MOL0     H61094   5.870   4.937   3.852 -2.9827 -0.6417  0.5510
  453MOL0     H61095   5.886   4.993   3.690 -0.9322 -0.2419  0.2590
  453MOL0     H61096   5.965   5.226   3.796 -1.7428 -0.2986  0.2290
  453MOL0     H61097   5.967   5.130   3.943  2.0665 -3.3080  0.6971
  453MOL0     H61098   6.143   4.994   3.881  2.5958  0.5108 -0.7440
  453MOL0     H61099   6.124   5.007   3.709 -0.7031  1.0695 -1.6938
  453MOL0     H61100   6.183   5.253   3.745 -1.4879 -0.2790  0.3756
  453MOL0     H61101   6.258   5.203   3.890  0.0069  0.7663 -0.4184
  453MOL0     H61102   6.434   5.179   3.736  1.0520  0.0787 -2.5617
  453MOL0     H61103   6.360   5.012   3.736 -1.3813 -0.8510 -0.2610
  453MOL0     H61104   6.309   5.241   3.549  2.1950  0.7611  1.4107
  453MOL0     H61105   6.245   5.068   3.545  0.9889 -0.9506  3.9434
  453MOL0     H61106   6.547   5.249   3.411 -0.3499 -0.0833 -1.2941
  453MOL0     H61107   6.706   4.977   3.190 -0.3583 -1.9656  1.0616
  453MOL0     H61108   6.702   5.154   3.179  1.6027 -1.3154 -0.6189
  453MOL0     H61109   6.917   5.035   3.246  1.4260  1.1021 -0.0680
  453MOL0     H61110   6.831   4.998   3.399  0.5748  0.1616  0.4579
  453MOL0     H61111   6.915   5.199   3.475 -0.9849  0.3178 -0.1315
  453MOL0     H61112   6.788   5.272   3.395  1.5438  2.4223  3.0525
  453MOL0     H61113   6.987   5.391   3.334 -2.3202  0.3201 -0.1643
  453MOL0     H61114   6.927   5.303   3.196  0.4935 -0.3119 -0.6264
  453MOL0     H61115   7.323   5.117   3.237  0.5890  1.2904  1.0735
  453MOL0     H61116   7.619   5.205   3.111 -0.0594 -4.0635  2.2786
  453MOL0     H61117   7.515   5.073   3.072 -0.6951  0.8561  2.4663
  453MOL0     H61118   7.554   5.188   2.941 -0.8072  1.9228 -0.2059
  453MOL0     H61119   7.599   5.332   2.685 -4.0958 -0.3442  2.6912
  453MOL0     H61120   7.653   5.327   2.469  0.1687 -0.6650  2.8268
  453MOL0     H61121   7.453   5.638   2.188  0.0534 -0.5544  2.3927
  453MOL0     H61122   7.541   5.547   2.078  0.8490  0.0545  0.5076
  453MOL0     H61123   7.421   5.332   2.175 -1.5369 -1.0127 -2.9279
  453MOL0     H61124   7.303   5.441   2.249 -0.8384 -0.9191 -0.7196
  453MOL0     H61125   7.350   5.472   1.954  3.7375 -0.2135  2.2234
  453MOL0     H61126   7.230   5.538   2.057  0.6192 -0.1214 -1.4380
  453MOL0     H61127   7.243   5.238   1.997  1.1264  1.0223  1.5933
  453MOL0     H61128   7.116   5.329   2.097  0.0012 -3.0090  0.5832
  453MOL0     H61129   7.155   5.345   1.793 -0.5358  1.0056 -0.6660
  453MOL0     H61130   7.064   5.464   1.878  1.1406  0.3425 -0.6561
  453MOL0     H61131   7.009   5.160   1.899 -0.0709 -0.8411 -0.1403
  453MOL0     H61132   6.912   5.293   1.961 -0.3520  1.5056  0.1035
  453MOL0     H61133   6.965   5.186   1.695 -1.2437 -1.2867  0.2477
  453MOL0     H61134   6.903   5.357   1.691 -1.5275 -0.4050  0.1206
  453MOL0     H61135   6.742   5.170   1.854 -2.4173 -1.2366 -0.5309
  453MOL0     H61136   6.720   5.160   1.676 -1.0030  2.1961  0.4303
  453MOL0     H61137   7.423   5.696   2.410 -2.8217  0.5921  2.7555
  453MOL0     H61138   7.350   5.681   2.639  0.3310 -0.2797  1.8186
  453MOL0     H61139   7.248   5.539   2.988  2.6659  0.5783  0.1372
  453MOL0     H61140   7.084   5.462   3.152  0.8749  1.1543 -0.2265
  453MOL0     H61141   5.537   4.916   3.409 -1.8169  0.8623  1.4699
  453MOL0     H61142   5.384   4.780   3.311  0.4384  2.6333  0.3652
  453MOL0     H61143   5.021   4.440   3.551 -0.5011  0.5833 -0.1185
  453MOL0     H61144   4.848   4.276   3.551  0.7869  0.0282  1.9265
  453MOL0     H61145   4.665   4.051   3.460  0.7859 -3.7483 -1.7679
  453MOL0     H61146   4.680   4.219   3.404  2.7236 -0.1418 -2.5349
  453MOL0     H61147   4.639   4.072   3.173  0.4953 -1.2536  0.2616
  453MOL0     H61148   4.519   4.152   3.260 -0.1793 -0.3011 -1.8397
  453MOL0     H61149   4.607   3.849   3.301 -0.7778 -0.0981  1.1827
  453MOL0     H61150   4.485   3.905   3.197  1.3282 -2.0260 -0.9757
  453MOL0     H61151   4.479   3.930   3.510 -0.7839 -2.3681  0.2642
  453MOL0     H61152   4.393   3.821   3.402  0.1169 -0.1768 -0.4506
  453MOL0     H61153   4.170   4.179   3.333 -2.8120 -1.9316 -1.3687
  453MOL0     H61154   5.029   4.090   3.191 -0.2991 -0.3983  0.2258
  453MOL0     H61155   5.226   4.250   3.232  0.4675  0.0787  1.3650
  454MOL0     O61156  10.966   6.551   5.641  0.5235  0.2707 -0.1184
  454MOL0     C61157  11.050   6.552   5.729  0.2356  0.0068  0.1506
  454MOL0     O61158  11.123   6.660   5.771 -0.9904  0.1164  0.6518
  454MOL0     C61159  11.105   6.790   5.720 -0.8450  1.1266 -0.0460
  454MOL0     C61160  11.147   6.894   5.798 -0.5034  0.6263 -0.5908
  454MOL0     C61161  11.135   7.027   5.771  0.3106  0.1381 -0.9711
  454MOL0     C61162  11.062   7.069   5.657  0.7807 -0.6294  0.3609
  454MOL0     O61163  11.032   7.205   5.643  0.8761 -0.1388  0.2123
  454MOL0     C61164  10.987   7.241   5.513  0.1171 -0.5195 -0.1613
  454MOL0     C61165  11.090   7.263   5.394  0.2832  0.1277  0.3093
  454MOL0     C61166  11.110   7.414   5.374  0.4582  0.8653 -0.4930
  454MOL0     C61167  10.985   7.464   5.297 -0.6993 -0.5068  0.9404
  454MOL0     C61168  10.973   7.615   5.302 -0.3400  0.0210 -0.0582
  454MOL0     C61169  10.864   7.690   5.207 -0.9928  1.2530  0.3683
  454MOL0     C61170  10.722   7.672   5.268 -0.4493 -0.1778 -0.0916
  454MOL0     C61171  10.607   7.766   5.222  0.3872  0.4726 -0.9654
  454MOL0     N61172  10.468   7.706   5.235  0.5254 -0.4359  0.3318
  454MOL0     C61173  10.386   7.711   5.124  1.0362  0.2892 -0.2192
  454MOL0     C61174  10.301   7.614   5.142  1.1852  0.0235 -0.2086
  454MOL0     C61175  10.188   7.595   5.032  0.4574 -0.6708  0.3906
  454MOL0     C61176  10.195   7.448   4.980 -0.0586 -0.4279 -0.9083
  454MOL0     C61177  10.207   7.337   5.092  0.0449 -0.2611 -0.4220
  454MOL0     C61178  10.193   7.197   5.038 -0.3258 -0.5789 -0.1266
  454MOL0     O61179  10.056   7.169   4.992 -0.3136  0.1099 -0.1466
  454MOL0     C61180  10.027   7.037   4.947  0.2679 -0.0309  0.4209
  454MOL0     C61181  10.114   6.931   4.933  1.4070 -0.1219 -0.1795
  454MOL0     C61182  10.071   6.800   4.887 -0.9028 -0.5588  0.1470
  454MOL0     C61183  10.164   6.684   4.885  0.6192  0.5230  0.7183
  454MOL0     C61184   9.941   6.785   4.834 -0.2128  0.0267  0.4261
  454MOL0     C61185   9.887   6.662   4.763 -0.7324 -1.3427 -0.2338
  454MOL0     O61186   9.974   6.567   4.717  0.3629 -0.0004  0.2304
  454MOL0     C61187   9.911   6.480   4.628  0.4839  0.4217 -0.2306
  454MOL0     C61188   9.846   6.371   4.679 -0.3361 -0.0184  0.6567
  454MOL0     C61189   9.796   6.269   4.592  0.6707 -0.5740 -0.0849
  454MOL0     C61190   9.824   6.274   4.459 -0.7112  0.5868 -0.4153
  454MOL0     O61191   9.759   6.173   4.386  0.2937 -0.5794 -0.0354
  454MOL0     C61192   9.766   6.192   4.246 -0.1704  0.1612 -0.3947
  454MOL0     C61193   9.909   6.152   4.183 -0.4435 -1.1858  0.7109
  454MOL0     C61194   9.928   6.007   4.182 -0.2011 -0.2217  1.0974
  454MOL0     C61195  10.078   5.977   4.197  0.3820  0.0881  0.7623
  454MOL0     C61196  10.125   5.836   4.202  0.4422 -0.1932 -0.2893
  454MOL0     C61197  10.280   5.835   4.205 -0.5588 -0.2800  0.3231
  454MOL0     C61198  10.315   5.693   4.233  0.5525  0.7367 -0.3145
  454MOL0     C61199  10.464   5.671   4.267  0.5792  0.0819  0.4544
  454MOL0    Cl61200  10.552   5.699   4.105 -0.2864 -0.3545 -0.1892
  454MOL0     C61201   9.893   6.384   4.410  0.4923 -0.6552 -0.8403
  454MOL0     C61202   9.924   6.490   4.492 -1.0665 -0.1694 -0.9469
  454MOL0     O61203   9.764   6.644   4.765 -0.5052 -0.0679  0.8740
  454MOL0     C61204   9.859   6.899   4.832 -0.1714  0.8168 -0.0305
  454MOL0     C61205   9.896   7.019   4.890  1.1207 -0.3594  0.1770
  454MOL0     N61206  10.316   7.553   5.268  0.3229  0.2789  0.1682
  454MOL0     N61207  10.415   7.618   5.328  0.7865 -0.1731  1.2408
  454MOL0     C61208  11.026   6.959   5.566 -0.1970 -0.2754  0.0996
  454MOL0     C61209  11.054   6.825   5.595 -0.2162 -0.3827 -0.1092
  454MOL0     C61210  11.075   6.429   5.798 -0.2528 -1.0401  0.0183
  454MOL0     C61211  10.986   6.327   5.783 -0.1623  0.2525  0.0474
  454MOL0     C61212  11.008   6.206   5.860 -0.0156 -0.9567  0.5039
  454MOL0     C61213  11.108   6.190   5.955  0.5979 -0.0627 -0.0365
  454MOL0     O61214  11.124   6.077   6.020  0.2518  0.4000 -0.8324
  454MOL0     C61215  11.142   6.078   6.161  0.7870 -0.6175 -0.6928
  454MOL0     C61216  11.168   5.936   6.217  0.2906 -0.2261 -0.4506
  454MOL0     C61217  11.175   5.928   6.377 -0.5347 -0.4187  0.5595
  454MOL0     C61218  11.123   5.796   6.444 -0.1656  0.0735  0.2198
  454MOL0     C61219  11.164   5.809   6.589  1.3956  0.1528  0.1037
  454MOL0     C61220  11.198   5.801   6.707  0.1764 -0.1388 -0.2348
  454MOL0     C61221  11.199   6.293   5.972  0.3558  0.4180  0.4315
  454MOL0     C61222  11.183   6.415   5.892 -0.0126 -0.2809 -0.0922
  454MOL0     H61223  11.199   6.869   5.890 -3.6330 -1.4715  0.7507
  454MOL0     H61224  11.169   7.104   5.840  0.5930 -1.1106  0.3265
  454MOL0     H61225  10.911   7.172   5.474  2.5699 -3.5613  0.0638
  454MOL0     H61226  10.925   7.331   5.519 -1.3265 -1.3560 -1.4510
  454MOL0     H61227  11.191   7.224   5.411  0.7370  0.4625 -1.3815
  454MOL0     H61228  11.057   7.232   5.295  2.6976 -2.1480  0.0890
  454MOL0     H61229  11.120   7.474   5.464  0.3765 -0.0737  0.1529
  454MOL0     H61230  11.198   7.438   5.313 -0.3504 -0.3977 -2.2420
  454MOL0     H61231  10.994   7.439   5.190 -2.6494  1.3580  0.2752
  454MOL0     H61232  10.895   7.417   5.337  0.4401 -4.7703 -0.8101
  454MOL0     H61233  10.962   7.635   5.410 -1.1410  0.5730 -0.2262
  454MOL0     H61234  11.075   7.642   5.274  1.7310 -3.7242  2.9604
  454MOL0     H61235  10.886   7.797   5.213 -0.4845  1.0616  3.4029
  454MOL0     H61236  10.864   7.659   5.102 -0.5750  2.2158  0.0702
  454MOL0     H61237  10.685   7.570   5.253  0.0505 -0.2872 -0.6301
  454MOL0     H61238  10.730   7.680   5.376  0.4747  1.2518 -0.2431
  454MOL0     H61239  10.620   7.795   5.118  1.2622  0.2896 -0.9108
  454MOL0     H61240  10.618   7.865   5.266  1.6212 -0.4102  0.8414
  454MOL0     H61241  10.395   7.778   5.039  1.1558  1.3269  0.5951
  454MOL0     H61242  10.089   7.608   5.076  0.3300  1.7579 -0.4325
  454MOL0     H61243  10.185   7.664   4.947 -2.5797 -0.3068  0.7007
  454MOL0     H61244  10.289   7.450   4.924 -0.0586 -0.1360 -0.8975
  454MOL0     H61245  10.102   7.438   4.922 -0.7692  3.3148 -0.6718
  454MOL0     H61246  10.132   7.349   5.170 -1.5882  3.9943 -2.3172
  454MOL0     H61247  10.306   7.345   5.138 -0.5580 -1.9976  1.2924
  454MOL0     H61248  10.218   7.124   5.115 -0.9524  0.4197  1.0691
  454MOL0     H61249  10.258   7.179   4.952 -0.9233 -0.4941 -0.6055
  454MOL0     H61250  10.220   6.940   4.955  1.0904  1.8177  0.7363
  454MOL0     H61251  10.200   6.674   4.782 -0.8522 -2.3452  0.3737
  454MOL0     H61252  10.241   6.689   4.964 -2.8436 -1.1327  4.5658
  454MOL0     H61253  10.107   6.598   4.920  0.6533 -0.4572 -1.4676
  454MOL0     H61254   9.828   6.351   4.784  0.1620 -2.8070  0.2934
  454MOL0     H61255   9.735   6.185   4.624 -0.5058 -0.6205 -2.2686
  454MOL0     H61256   9.688   6.128   4.202  1.1719 -3.0271  1.5016
  454MOL0     H61257   9.746   6.295   4.217  0.6588 -0.5566 -3.9844
  454MOL0     H61258   9.930   6.203   4.088  0.9518  1.7399  2.4588
  454MOL0     H61259   9.989   6.203   4.237 -0.9840  2.2135 -1.3860
  454MOL0     H61260   9.891   5.962   4.090  0.0594 -1.8703  1.7623
  454MOL0     H61261   9.865   5.966   4.263  0.5301 -1.8023  0.9153
  454MOL0     H61262  10.131   6.015   4.109 -2.1108 -0.6180 -1.1642
  454MOL0     H61263  10.108   6.035   4.285  0.9867  0.8050  0.0921
  454MOL0     H61264  10.083   5.782   4.117 -1.7763  1.9042 -0.6341
  454MOL0     H61265  10.076   5.794   4.290  1.8586 -0.3106  0.4817
  454MOL0     H61266  10.320   5.875   4.111 -1.9121 -1.8556 -0.9743
  454MOL0     H61267  10.315   5.897   4.288  0.9965  1.0181 -1.2158
  454MOL0     H61268  10.298   5.629   4.146 -1.8897  3.3237 -1.8984
  454MOL0     H61269  10.264   5.662   4.324  1.3994  2.6670  0.8792
  454MOL0     H61270  10.468   5.565   4.291 -2.5314 -0.3609 -0.5255
  454MOL0     H61271  10.511   5.726   4.348 -3.8230 -0.1527  3.5227
  454MOL0     H61272   9.923   6.392   4.306  0.5568 -0.0073 -0.7780
  454MOL0     H61273   9.961   6.573   4.433  1.4602 -2.2299 -2.4862
  454MOL0     H61274   9.759   6.889   4.790 -0.6472 -1.6107  1.5272
  454MOL0     H61275   9.826   7.101   4.881  0.9810 -0.6953 -2.3941
  454MOL0     H61276  10.991   6.974   5.465  1.4735 -0.8153 -0.5860
  454MOL0     H61277  11.021   6.755   5.519 -1.4219 -0.1254  0.1617
  454MOL0     H61278  10.909   6.333   5.707  1.6130 -0.7044 -1.9236
  454MOL0     H61279  10.942   6.123   5.836 -0.1255  0.0178 -3.2678
  454MOL0     H61280  11.236   6.130   6.181  0.6787  0.5285 -2.9246
  454MOL0     H61281  11.056   6.124   6.209  0.5695 -0.0278 -1.6247
  454MOL0     H61282  11.262   5.890   6.184  0.9685  0.1765  0.8631
  454MOL0     H61283  11.083   5.872   6.193 -1.8790  2.1478  0.4961
  454MOL0     H61284  11.130   6.018   6.420  0.5347  0.1415  0.5268
  454MOL0     H61285  11.279   5.951   6.400 -0.7102  1.8806 -0.6979
  454MOL0     H61286  11.167   5.707   6.399  0.5350  0.0652  0.8882
  454MOL0     H61287  11.013   5.794   6.449 -0.1144 -0.3965  1.4627
  454MOL0     H61288  11.201   5.796   6.814 -0.5630 -1.6680 -0.2547
  454MOL0     H61289  11.283   6.284   6.041 -0.9771 -0.6801  1.9815
  454MOL0     H61290  11.251   6.499   5.901  1.0209 -1.1474  0.3963
  455MOL0     O61291   9.131   5.587   3.488 -0.5233 -0.4635 -0.4969
  455MOL0     C61292   9.215   5.517   3.547 -0.6627 -0.7958 -0.3949
  455MOL0     O61293   9.203   5.393   3.587 -0.2624  0.4816  0.0216
  455MOL0     C61294   9.097   5.318   3.562  0.6784  0.7295  0.5703
  455MOL0     C61295   9.032   5.245   3.672 -0.5277 -0.2290 -0.0902
  455MOL0     C61296   8.917   5.175   3.646  0.3627  0.9005  0.2117
  455MOL0     C61297   8.848   5.172   3.524  0.7047 -0.2332 -0.4536
  455MOL0     O61298   8.729   5.112   3.507  0.2611 -0.3613  0.4422
  455MOL0     C61299   8.636   5.097   3.612 -0.1119  0.7968 -0.3735
  455MOL0     C61300   8.507   5.034   3.550 -0.0473 -0.5168  0.4069
  455MOL0     C61301   8.529   4.897   3.501  0.1138  0.4301  1.4067
  455MOL0     C61302   8.412   4.836   3.426  0.6432  0.1919 -0.5058
  455MOL0     C61303   8.436   4.698   3.358  0.8418  0.1120  0.4386
  455MOL0     C61304   8.302   4.631   3.314 -1.0098  1.0592 -0.7213
  455MOL0     C61305   8.217   4.712   3.211 -0.2454  0.2521 -0.4983
  455MOL0     C61306   8.108   4.632   3.135 -0.0553 -0.3728 -0.1386
  455MOL0     N61307   8.043   4.713   3.028  0.4134  0.8222  0.9165
  455MOL0     C61308   7.950   4.810   3.039 -0.2097 -1.0981 -0.6086
  455MOL0     C61309   7.890   4.833   2.924 -0.4104 -0.1795  0.2866
  455MOL0     C61310   7.776   4.932   2.881  0.1468 -0.1756  0.7960
  455MOL0     C61311   7.807   5.040   2.775 -0.6649  0.8927  0.6441
  455MOL0     C61312   7.867   4.980   2.649  0.1113  0.3546 -0.6052
  455MOL0     C61313   8.023   4.991   2.635 -0.0032  0.3710 -0.2850
  455MOL0     O61314   8.052   5.134   2.623  0.1371  0.0703 -0.2342
  455MOL0     C61315   8.180   5.183   2.625  0.5516 -0.2700  0.9976
  455MOL0     C61316   8.191   5.316   2.644 -0.3499  0.3324  1.0237
  455MOL0     C61317   8.322   5.378   2.644  0.5005 -0.8989  0.6329
  455MOL0     C61318   8.318   5.535   2.652 -0.6198  0.3979  0.2929
  455MOL0     C61319   8.440   5.301   2.636  0.5374  0.2665 -0.0744
  455MOL0     C61320   8.577   5.350   2.654  0.0501  0.3401  0.0763
  455MOL0     O61321   8.684   5.275   2.614 -0.2854 -0.5753 -0.2665
  455MOL0     C61322   8.811   5.314   2.627 -0.0138  0.4779  0.6692
  455MOL0     C61323   8.858   5.368   2.750 -0.3161 -0.8946  0.1948
  455MOL0     C61324   8.984   5.437   2.753 -0.3589  0.3212  0.0583
  455MOL0     C61325   9.075   5.407   2.649  0.4812  0.6458 -0.1833
  455MOL0     O61326   9.212   5.447   2.653  0.0987 -0.1296 -0.0196
  455MOL0     C61327   9.275   5.461   2.783 -0.0989 -0.5322 -0.5053
  455MOL0     C61328   9.424   5.483   2.750  0.5019  0.1294  0.2052
  455MOL0     C61329   9.491   5.370   2.679 -0.1489 -0.4914  0.3460
  455MOL0     C61330   9.605   5.442   2.598  0.1683 -0.4711 -0.4703
  455MOL0     C61331   9.727   5.344   2.581 -0.0453  0.4819 -0.2641
  455MOL0     C61332   9.835   5.419   2.503  0.2443 -0.3576  0.6740
  455MOL0     C61333   9.938   5.325   2.437 -0.0500 -0.7691  0.1638
  455MOL0     C61334  10.012   5.234   2.536 -0.1181 -0.5320 -0.0423
  455MOL0    Cl61335  10.142   5.339   2.598 -0.5735  0.1146 -0.1851
  455MOL0     C61336   9.034   5.341   2.530  0.3873 -0.2338 -0.0203
  455MOL0     C61337   8.903   5.291   2.520 -0.4368 -0.5060 -1.0540
  455MOL0     O61338   8.582   5.454   2.714 -0.3057  0.0481  1.0156
  455MOL0     C61339   8.425   5.170   2.609  0.9673 -0.4937  1.4309
  455MOL0     C61340   8.300   5.112   2.598  0.5133  0.0354  0.5015
  455MOL0     N61341   7.940   4.735   2.839  0.4236  0.7216  1.1746
  455MOL0     N61342   8.039   4.680   2.904 -0.5096  0.3858  0.4393
  455MOL0     C61343   8.915   5.242   3.426 -0.0027  1.5233 -0.6533
  455MOL0     C61344   9.037   5.308   3.439  0.8002 -0.8642  0.1785
  455MOL0     C61345   9.346   5.582   3.579  0.3598  0.1645 -0.3823
  455MOL0     C61346   9.376   5.701   3.511 -0.1755  0.2204 -0.0725
  455MOL0     C61347   9.498   5.766   3.535  1.0432 -0.1442 -0.9875
  455MOL0     C61348   9.591   5.701   3.623  0.2733 -0.4680 -0.5066
  455MOL0     O61349   9.718   5.758   3.643  0.2042  0.5626 -0.2979
  455MOL0     C61350   9.809   5.712   3.740  0.1010 -0.1354 -0.1358
  455MOL0     C61351   9.933   5.800   3.766 -0.9800 -0.1619 -0.2859
  455MOL0     C61352  10.050   5.784   3.663  0.2178 -0.4516 -1.3279
  455MOL0     C61353  10.186   5.818   3.728  0.4452  0.0753  0.5090
  455MOL0     C61354  10.203   5.967   3.733  0.3357  0.5519 -0.3244
  455MOL0     C61355  10.215   6.079   3.767  0.0620  0.0335 -0.2960
  455MOL0     C61356   9.562   5.573   3.679 -0.4771  0.1940 -0.6135
  455MOL0     C61357   9.439   5.516   3.662 -0.1390 -0.6976  0.0926
  455MOL0     H61358   9.074   5.252   3.771 -1.0090 -0.1575  0.1105
  455MOL0     H61359   8.881   5.115   3.729 -1.5552 -0.9894 -1.8707
  455MOL0     H61360   8.667   5.037   3.699 -1.5510  1.5566  0.7094
  455MOL0     H61361   8.608   5.196   3.650 -0.1288  1.1192 -1.2160
  455MOL0     H61362   8.427   5.033   3.625 -1.4485  0.5907 -0.9971
  455MOL0     H61363   8.469   5.102   3.474  2.2521 -0.2056 -0.5426
  455MOL0     H61364   8.622   4.884   3.446 -0.5009  1.2567  0.1276
  455MOL0     H61365   8.547   4.833   3.588 -1.2279 -2.7831 -0.5031
  455MOL0     H61366   8.335   4.817   3.501  1.2101 -1.0093 -0.2044
  455MOL0     H61367   8.380   4.915   3.357 -0.0900 -1.1015 -1.7129
  455MOL0     H61368   8.502   4.718   3.273  0.8278  2.8990  0.9907
  455MOL0     H61369   8.490   4.631   3.425  0.6891  0.4248  0.8781
  455MOL0     H61370   8.330   4.531   3.280 -0.5845  1.0203 -0.2712
  455MOL0     H61371   8.231   4.628   3.398  1.7573 -1.0465  1.7751
  455MOL0     H61372   8.165   4.797   3.256  0.5162 -0.8366  2.6746
  455MOL0     H61373   8.284   4.750   3.133  1.1067  0.0952  0.5513
  455MOL0     H61374   8.029   4.588   3.196  0.0143  0.0983  0.2967
  455MOL0     H61375   8.163   4.550   3.089  3.4471  0.9729  1.2544
  455MOL0     H61376   7.940   4.868   3.131  1.7127 -0.6371 -0.6553
  455MOL0     H61377   7.696   4.877   2.831  1.5010 -0.3159 -1.3225
  455MOL0     H61378   7.729   4.987   2.963 -1.7095 -0.6245  0.0822
  455MOL0     H61379   7.877   5.111   2.820  0.8512  1.6350 -2.5444
  455MOL0     H61380   7.717   5.100   2.759  0.0879  2.1967  1.1175
  455MOL0     H61381   7.813   5.023   2.564 -2.7407  0.9717  1.3544
  455MOL0     H61382   7.829   4.879   2.637 -1.8905  0.9786  0.0270
  455MOL0     H61383   8.062   4.937   2.549 -1.2631 -1.0292 -0.0256
  455MOL0     H61384   8.077   4.944   2.718  0.8039  0.5009 -0.7320
  455MOL0     H61385   8.104   5.381   2.651  1.0517  2.6496 -1.3490
  455MOL0     H61386   8.337   5.579   2.750 -3.7674  2.4961  0.0766
  455MOL0     H61387   8.385   5.590   2.585 -0.1257 -1.2560 -0.6445
  455MOL0     H61388   8.218   5.573   2.631  0.5745  2.2572 -2.7700
  455MOL0     H61389   8.791   5.380   2.835 -0.6587 -1.6462  0.0385
  455MOL0     H61390   9.025   5.495   2.834  3.5923 -2.1694  0.1197
  455MOL0     H61391   9.236   5.542   2.845 -0.4071 -0.6030 -0.6026
  455MOL0     H61392   9.263   5.374   2.847 -2.4770 -0.6130 -0.9823
  455MOL0     H61393   9.427   5.581   2.701 -4.0824  0.5580  0.3723
  455MOL0     H61394   9.490   5.487   2.838  1.2804 -0.1423 -0.3535
  455MOL0     H61395   9.420   5.331   2.606  1.8908 -1.7999 -1.0639
  455MOL0     H61396   9.517   5.283   2.740 -0.1202 -1.3073 -0.7887
  455MOL0     H61397   9.555   5.462   2.502 -1.6554  1.7062  0.8520
  455MOL0     H61398   9.635   5.535   2.645 -0.3854 -0.4819 -0.0808
  455MOL0     H61399   9.696   5.249   2.535 -1.3798  1.6186 -1.8380
  455MOL0     H61400   9.763   5.320   2.681 -0.2914  0.2328 -0.2339
  455MOL0     H61401   9.791   5.479   2.423  4.7228  2.5119  0.0153
  455MOL0     H61402   9.885   5.494   2.565 -1.8915 -0.1812  2.2999
  455MOL0     H61403  10.010   5.382   2.377 -1.8856  3.0756  1.2778
  455MOL0     H61404   9.875   5.260   2.376 -0.4957  0.9119 -1.2512
  455MOL0     H61405  10.068   5.162   2.475  2.6931  0.5307  1.1258
  455MOL0     H61406   9.943   5.174   2.597 -1.8692 -1.1983 -2.4914
  455MOL0     H61407   9.094   5.350   2.441 -0.0189  2.3380 -0.1094
  455MOL0     H61408   8.881   5.246   2.423 -1.3096  0.1325 -1.1641
  455MOL0     H61409   8.510   5.102   2.606  0.6181 -0.9768 -1.8894
  455MOL0     H61410   8.293   5.004   2.585 -1.2300  0.1754 -0.0054
  455MOL0     H61411   8.860   5.234   3.333 -1.4850 -0.1676  0.3281
  455MOL0     H61412   9.089   5.350   3.353  1.0082 -0.4060  0.5276
  455MOL0     H61413   9.312   5.749   3.438  0.5181  1.5157  0.1414
  455MOL0     H61414   9.529   5.848   3.470  2.6392 -0.5633 -0.8103
  455MOL0     H61415   9.759   5.715   3.838 -1.2577 -0.8427 -0.7916
  455MOL0     H61416   9.842   5.611   3.716 -4.1210 -1.5519 -0.6992
  455MOL0     H61417   9.967   5.795   3.869  1.0657  1.4486 -0.8284
  455MOL0     H61418   9.918   5.908   3.753  2.7873  0.2210 -3.2477
  455MOL0     H61419  10.034   5.844   3.572 -2.1453 -0.0102 -0.7065
  455MOL0     H61420  10.051   5.682   3.626  1.1300 -1.0459  0.2513
  455MOL0     H61421  10.259   5.783   3.655 -1.7927  1.9201 -2.9073
  455MOL0     H61422  10.191   5.781   3.831 -0.5244  2.5929  1.5670
  455MOL0     H61423  10.218   6.181   3.798  2.7781 -0.1340  0.2398
  455MOL0     H61424   9.640   5.524   3.736  1.0318  1.4293 -1.5628
  455MOL0     H61425   9.412   5.432   3.726  1.4552 -1.2962  0.0204
  456MOL0     O61426   1.250   5.553   2.777 -0.0694  0.3996  0.9659
  456MOL0     C61427   1.291   5.654   2.833 -0.5566 -0.1599 -0.0717
  456MOL0     O61428   1.333   5.765   2.768  0.3708  0.6953 -0.0362
  456MOL0     C61429   1.320   5.773   2.633 -0.3646 -1.1175 -0.1580
  456MOL0     C61430   1.430   5.818   2.559 -0.1115 -0.2742  0.2628
  456MOL0     C61431   1.414   5.837   2.417  0.2078  1.0321 -0.3719
  456MOL0     C61432   1.293   5.810   2.348 -1.3511 -0.2779  0.4812
  456MOL0     O61433   1.270   5.808   2.215  0.3502 -0.1618  0.2748
  456MOL0     C61434   1.365   5.890   2.134 -0.7413 -0.4014 -0.1925
  456MOL0     C61435   1.307   5.866   1.995  0.3896 -0.3218  0.7834
  456MOL0     C61436   1.170   5.944   1.988  0.2778 -0.7069 -0.0517
  456MOL0     C61437   1.126   5.972   1.845 -0.3842 -0.0677  0.9225
  456MOL0     C61438   1.000   6.061   1.840 -0.8656  0.2481  1.1668
  456MOL0     C61439   0.966   6.128   1.700  0.5744  0.1287 -0.5202
  456MOL0     C61440   0.856   6.240   1.707  0.1996 -0.4366 -0.0878
  456MOL0     C61441   0.920   6.375   1.759 -0.0989  0.4257 -0.3020
  456MOL0     N61442   0.844   6.483   1.705  0.0255  0.5545 -0.0186
  456MOL0     C61443   0.830   6.511   1.571  0.0063  0.0479 -0.7419
  456MOL0     C61444   0.780   6.634   1.580  0.4279 -0.5063  0.2347
  456MOL0     C61445   0.732   6.710   1.460 -0.4426  0.2743 -0.7439
  456MOL0     C61446   0.834   6.822   1.421  0.3182 -0.3943 -0.8531
  456MOL0     C61447   0.749   6.945   1.374 -1.0729 -0.5254 -0.1247
  456MOL0     C61448   0.717   6.938   1.216  0.8007 -0.8933  0.5221
  456MOL0     O61449   0.599   6.865   1.179  0.0145 -0.3281 -0.4503
  456MOL0     C61450   0.477   6.873   1.249  0.6524  0.7841  0.9957
  456MOL0     C61451   0.431   6.976   1.340 -0.1352 -0.9841  0.2811
  456MOL0     C61452   0.310   6.976   1.399 -0.5437  0.3903  0.2043
  456MOL0     C61453   0.257   7.101   1.468  1.0826  0.0984 -0.1095
  456MOL0     C61454   0.229   6.861   1.382 -0.5158  0.4499 -0.0605
  456MOL0     C61455   0.082   6.851   1.432 -0.3120  0.8901 -0.4095
  456MOL0     O61456   0.051   6.719   1.478 -0.2661 -0.0952 -0.1267
  456MOL0     C61457  -0.080   6.704   1.524 -0.5309  0.1864  0.0075
  456MOL0     C61458  -0.169   6.635   1.445 -0.0890  0.9720 -0.5757
  456MOL0     C61459  -0.284   6.576   1.504 -0.7061  0.1229 -0.1208
  456MOL0     C61460  -0.311   6.600   1.642  0.0766 -0.4244 -0.2701
  456MOL0     O61461  -0.436   6.556   1.685  0.3279  0.1917 -0.0528
  456MOL0     C61462  -0.468   6.543   1.827  0.4351  0.1188 -0.3456
  456MOL0     C61463  -0.531   6.665   1.889  0.4904  0.5099 -0.6842
  456MOL0     C61464  -0.660   6.694   1.814  1.0891  0.1555 -0.2801
  456MOL0     C61465  -0.742   6.798   1.889 -0.0298 -0.1452 -0.1368
  456MOL0     C61466  -0.717   6.936   1.827  0.0999  0.5264  0.3283
  456MOL0     C61467  -0.775   7.059   1.900 -0.3825  0.8847  0.0533
  456MOL0     C61468  -0.804   7.165   1.796  0.3724  0.5168  0.4121
  456MOL0     C61469  -0.850   7.290   1.872  1.2549 -0.3064 -0.2901
  456MOL0    Cl61470  -0.712   7.398   1.916 -0.0038 -0.3666  0.3204
  456MOL0     C61471  -0.220   6.667   1.718  0.1243 -0.6345  0.6824
  456MOL0     C61472  -0.105   6.717   1.661  0.2421 -0.8399 -0.2242
  456MOL0     O61473   0.005   6.944   1.423  0.5715 -0.1712 -0.3401
  456MOL0     C61474   0.276   6.759   1.303  1.0031  0.2582 -1.1330
  456MOL0     C61475   0.397   6.762   1.234  0.2226 -0.1287  0.5509
  456MOL0     N61476   0.745   6.669   1.711  0.4799 -0.2950  0.4898
  456MOL0     N61477   0.792   6.582   1.784 -0.1454  0.3991  0.6783
  456MOL0     C61478   1.188   5.772   2.431  0.2796  1.2051  0.5615
  456MOL0     C61479   1.196   5.750   2.570 -0.5492  0.3172 -0.1390
  456MOL0     C61480   1.312   5.654   2.980  0.4357 -0.2253  0.0214
  456MOL0     C61481   1.331   5.767   3.062  0.4374 -0.3288  0.2782
  456MOL0     C61482   1.340   5.758   3.204 -0.6800  0.7499 -0.5268
  456MOL0     C61483   1.326   5.637   3.271 -0.9495  0.1882 -0.6429
  456MOL0     O61484   1.340   5.647   3.407  0.3334 -0.2069 -0.4162
  456MOL0     C61485   1.287   5.547   3.494  0.1182 -0.1510  0.0765
  456MOL0     C61486   1.219   5.610   3.610  0.3541 -0.1108  0.0815
  456MOL0     C61487   1.308   5.688   3.706 -0.2164 -0.4397  0.0454
  456MOL0     C61488   1.230   5.736   3.824  0.8924 -0.6862  1.0136
  456MOL0     C61489   1.314   5.789   3.926 -0.0273 -0.1977 -0.1177
  456MOL0     C61490   1.400   5.829   4.002  0.9205  0.1019 -0.9223
  456MOL0     C61491   1.295   5.523   3.201 -0.1769 -0.2072 -0.2056
  456MOL0     C61492   1.281   5.533   3.055  0.2806 -0.8097 -0.2815
  456MOL0     H61493   1.524   5.835   2.612  0.3048 -2.3818  0.3060
  456MOL0     H61494   1.496   5.886   2.367 -1.8013  3.4849 -1.4701
  456MOL0     H61495   1.362   5.993   2.170 -1.0211 -0.6170  0.4170
  456MOL0     H61496   1.470   5.861   2.138  1.1042  4.6093 -2.7707
  456MOL0     H61497   1.370   5.898   1.912  0.9285 -2.4646  0.2888
  456MOL0     H61498   1.305   5.759   1.972  1.2045 -0.1027 -0.3708
  456MOL0     H61499   1.091   5.883   2.033 -1.5186  0.1382 -1.9074
  456MOL0     H61500   1.177   6.035   2.047 -0.3072 -1.3051  0.9795
  456MOL0     H61501   1.204   6.022   1.786 -0.3838  0.3871  1.3012
  456MOL0     H61502   1.109   5.878   1.792 -0.3342 -1.1948  2.7824
  456MOL0     H61503   0.916   6.002   1.879 -0.7407  0.0288  1.1076
  456MOL0     H61504   1.022   6.144   1.907  0.9333 -2.5517  4.3687
  456MOL0     H61505   1.060   6.175   1.669  2.2976  0.1241  3.9605
  456MOL0     H61506   0.918   6.051   1.638  0.0084 -0.9667  1.1954
  456MOL0     H61507   0.818   6.250   1.605 -0.0498 -1.4166 -0.1017
  456MOL0     H61508   0.772   6.207   1.769  1.2892 -1.5068  0.8645
  456MOL0     H61509   1.028   6.382   1.741  0.3535 -1.4991  1.2587
  456MOL0     H61510   0.911   6.383   1.868 -2.8998 -2.6870 -0.1491
  456MOL0     H61511   0.844   6.451   1.482 -0.4086 -0.5110 -0.4362
  456MOL0     H61512   0.721   6.651   1.369  0.6590  0.3763 -0.9650
  456MOL0     H61513   0.634   6.749   1.487  0.2789  1.5566  0.1840
  456MOL0     H61514   0.905   6.776   1.351  2.0198  0.4671  0.2503
  456MOL0     H61515   0.889   6.855   1.510  0.7597 -0.0878 -1.2336
  456MOL0     H61516   0.807   7.036   1.394 -0.6987 -1.2445  2.4165
  456MOL0     H61517   0.659   6.958   1.435  0.0693  1.2081  1.2995
  456MOL0     H61518   0.808   6.919   1.159  1.4605  0.5722  1.0367
  456MOL0     H61519   0.707   7.043   1.186 -3.4693 -1.1265  0.4537
  456MOL0     H61520   0.482   7.070   1.361 -1.9845 -0.3726  2.3412
  456MOL0     H61521   0.196   7.155   1.394 -0.8945 -0.2495  1.1954
  456MOL0     H61522   0.193   7.075   1.552  1.7823  0.2479  0.4774
  456MOL0     H61523   0.326   7.176   1.507  0.6846  0.2064  0.3883
  456MOL0     H61524  -0.152   6.618   1.340 -2.1127  0.2455 -0.8497
  456MOL0     H61525  -0.350   6.517   1.441 -4.6183  2.2627  1.6528
  456MOL0     H61526  -0.541   6.462   1.836 -0.3299  0.4500 -2.8481
  456MOL0     H61527  -0.377   6.513   1.880  1.9174  2.3906 -1.4815
  456MOL0     H61528  -0.551   6.652   1.996 -2.8171 -0.9316 -1.3419
  456MOL0     H61529  -0.454   6.743   1.887  3.2457 -1.9668  1.0601
  456MOL0     H61530  -0.716   6.600   1.804  1.2643  0.2579 -3.0682
  456MOL0     H61531  -0.635   6.734   1.716 -0.0936  4.3016  0.8962
  456MOL0     H61532  -0.846   6.766   1.878 -0.0557 -1.2752  2.6313
  456MOL0     H61533  -0.718   6.798   1.996 -2.1148 -0.4361  0.3705
  456MOL0     H61534  -0.757   6.921   1.726  2.3447  0.2071 -0.5692
  456MOL0     H61535  -0.609   6.944   1.810 -0.2744 -0.1669 -3.1591
  456MOL0     H61536  -0.876   7.032   1.930 -0.8787  2.9860  0.4209
  456MOL0     H61537  -0.723   7.089   1.991 -1.4315 -1.6033  1.5505
  456MOL0     H61538  -0.879   7.126   1.727 -1.3198  4.5642 -0.3022
  456MOL0     H61539  -0.708   7.188   1.748  0.2611  1.7129  0.7235
  456MOL0     H61540  -0.910   7.266   1.960  0.5529  0.5482 -0.5214
  456MOL0     H61541  -0.918   7.346   1.807  1.0475 -2.8446 -2.4431
  456MOL0     H61542  -0.226   6.668   1.826 -0.2647  1.0901  0.6729
  456MOL0     H61543  -0.019   6.760   1.711  0.9585 -0.8661 -1.3974
  456MOL0     H61544   0.206   6.676   1.296 -1.5420  2.3266 -2.2804
  456MOL0     H61545   0.439   6.682   1.174 -0.7338  0.7395 -1.3586
  456MOL0     H61546   1.094   5.752   2.381  0.0198 -0.0219  1.5026
  456MOL0     H61547   1.109   5.716   2.625  0.7723  0.3367  2.0727
  456MOL0     H61548   1.352   5.866   3.023  0.4613  0.3007  1.8174
  456MOL0     H61549   1.360   5.851   3.257 -3.8666 -0.6842  3.6535
  456MOL0     H61550   1.210   5.483   3.450 -0.3614  2.8541 -4.0415
  456MOL0     H61551   1.372   5.487   3.528  1.0246 -1.1594 -3.5046
  456MOL0     H61552   1.171   5.530   3.667 -1.2259 -1.1234 -2.4906
  456MOL0     H61553   1.133   5.662   3.567 -0.2345 -0.8945  0.2834
  456MOL0     H61554   1.376   5.760   3.661  2.0391 -1.3303  1.8457
  456MOL0     H61555   1.385   5.621   3.745  0.0239 -0.2881 -0.1716
  456MOL0     H61556   1.168   5.654   3.860 -0.9109  0.0564 -0.2185
  456MOL0     H61557   1.171   5.818   3.781 -0.2996 -2.6253 -1.2781
  456MOL0     H61558   1.461   5.863   4.084  1.2376  3.2893 -2.3335
  456MOL0     H61559   1.302   5.427   3.250  2.7416 -0.6862 -1.3495
  456MOL0     H61560   1.272   5.449   2.986  2.5477 -2.1137  0.8794
  457MOL0     O61561  10.892   2.329   2.745  0.8881  0.2209  0.1258
  457MOL0     C61562  10.838   2.405   2.667 -1.4950  0.6785  0.5438
  457MOL0     O61563  10.852   2.538   2.666 -0.3763 -0.2398 -0.7930
  457MOL0     C61564  10.951   2.592   2.739  0.5849  0.3766 -0.3663
  457MOL0     C61565  10.919   2.696   2.823  0.0126 -0.0198  0.0267
  457MOL0     C61566  11.002   2.742   2.921  0.0676 -0.8182  0.5818
  457MOL0     C61567  11.134   2.706   2.924  1.3231  0.3905 -0.4811
  457MOL0     O61568  11.209   2.768   3.020  0.5101  0.3289 -0.5401
  457MOL0     C61569  11.339   2.725   3.053  0.0718  0.5158  0.3450
  457MOL0     C61570  11.315   2.588   3.124  0.6388  0.2839  0.0560
  457MOL0     C61571  11.441   2.529   3.195 -0.2979  1.3079 -0.0944
  457MOL0     C61572  11.410   2.388   3.253  0.0338  0.7896  0.8337
  457MOL0     C61573  11.324   2.382   3.379  0.7754 -0.5218  1.3317
  457MOL0     C61574  11.343   2.248   3.446 -0.0564 -0.1444 -0.8589
  457MOL0     C61575  11.231   2.208   3.541 -0.2121  0.3105  0.0438
  457MOL0     C61576  11.281   2.211   3.693  0.0165 -0.4015 -0.2979
  457MOL0     N61577  11.256   2.345   3.747  0.5694 -0.9212 -0.0113
  457MOL0     C61578  11.141   2.375   3.824 -0.2583  0.1189  0.5027
  457MOL0     C61579  11.172   2.490   3.888  0.4705  0.5877 -0.6790
  457MOL0     C61580  11.086   2.549   3.998 -0.6447  0.4969  0.8150
  457MOL0     C61581  10.998   2.652   3.942 -0.0912 -0.3188 -0.2717
  457MOL0     C61582  10.935   2.753   4.048 -0.0811  0.3950 -0.0760
  457MOL0     C61583  10.814   2.822   3.992  0.0963 -0.0613  0.0453
  457MOL0     O61584  10.709   2.734   3.940 -0.6081  0.4836 -0.3424
  457MOL0     C61585  10.602   2.806   3.906  0.6188 -0.8054  0.0030
  457MOL0     C61586  10.599   2.881   3.787 -0.4413 -0.6714 -0.9330
  457MOL0     C61587  10.485   2.962   3.752  0.2358  0.4004 -0.5726
  457MOL0     C61588  10.499   3.055   3.627  0.7191 -0.0878 -0.0017
  457MOL0     C61589  10.370   2.956   3.827  0.0598  1.2878 -0.1487
  457MOL0     C61590  10.258   3.050   3.811 -1.1404 -0.0449  0.2000
  457MOL0     O61591  10.275   3.164   3.743  0.4235 -0.0568 -0.4720
  457MOL0     C61592  10.157   3.227   3.704 -0.3787 -0.0705 -0.9174
  457MOL0     C61593  10.040   3.169   3.655  0.3446  0.7614 -0.5786
  457MOL0     C61594   9.925   3.246   3.623 -1.3751 -0.8692  0.9683
  457MOL0     C61595   9.928   3.385   3.625  0.7782 -0.0181  0.3603
  457MOL0     O61596   9.811   3.461   3.616 -0.1564 -0.7888 -0.1293
  457MOL0     C61597   9.693   3.404   3.556  0.0498  0.8193 -0.8829
  457MOL0     C61598   9.688   3.353   3.411 -0.7825  0.2591  1.1290
  457MOL0     C61599   9.556   3.300   3.371  1.0109  0.4058  0.4032
  457MOL0     C61600   9.522   3.168   3.447  0.3466  0.8368 -0.3160
  457MOL0     C61601   9.400   3.095   3.368 -0.4347 -0.3515 -0.2282
  457MOL0     C61602   9.326   2.995   3.446  0.1972  0.8778 -0.8145
  457MOL0     C61603   9.220   2.920   3.367  0.3794  0.1378  0.1182
  457MOL0     C61604   9.145   2.805   3.435 -0.0119 -0.0576  0.4067
  457MOL0    Cl61605   9.258   2.680   3.497 -0.3473  0.0906 -0.1094
  457MOL0     C61606  10.044   3.450   3.667  0.3483 -0.0651 -0.5739
  457MOL0     C61607  10.157   3.367   3.710  0.5885 -0.4170 -0.2891
  457MOL0     O61608  10.156   3.012   3.870 -0.3350 -0.0069 -1.0969
  457MOL0     C61609  10.373   2.872   3.941 -0.3630 -0.9072  0.0748
  457MOL0     C61610  10.488   2.797   3.982 -0.1306  0.6608  0.3582
  457MOL0     N61611  11.303   2.530   3.850  0.2436  0.9910 -0.8666
  457MOL0     N61612  11.346   2.448   3.765 -0.0336 -0.6214  0.4207
  457MOL0     C61613  11.180   2.611   2.831  0.2490 -1.1390 -0.4294
  457MOL0     C61614  11.085   2.547   2.744  0.2389  0.9070  0.5447
  457MOL0     C61615  10.749   2.350   2.561 -0.1316 -0.6557  0.6332
  457MOL0     C61616  10.750   2.211   2.539  0.4658  0.3296  0.2024
  457MOL0     C61617  10.656   2.155   2.452  0.1604 -0.1295 -0.2249
  457MOL0     C61618  10.570   2.239   2.385 -0.9424 -0.5083  0.1753
  457MOL0     O61619  10.504   2.202   2.278  0.0931  0.0644  0.1938
  457MOL0     C61620  10.532   2.073   2.225 -0.2114  0.1752 -0.5947
  457MOL0     C61621  10.459   2.042   2.101 -0.3306  0.4909 -0.0469
  457MOL0     C61622  10.311   2.046   2.122  0.4605  0.1482 -0.2481
  457MOL0     C61623  10.253   2.195   2.121  1.2305  0.8194 -0.5342
  457MOL0     C61624  10.128   2.204   2.190  0.0479  0.5099  0.1829
  457MOL0     C61625  10.014   2.192   2.232  1.4913  0.3377 -0.4569
  457MOL0     C61626  10.568   2.374   2.403 -0.1183 -0.5731  0.2162
  457MOL0     C61627  10.654   2.435   2.497 -0.0136  0.3574 -0.9762
  457MOL0     H61628  10.819   2.738   2.818  0.0580  0.4068  2.0931
  457MOL0     H61629  10.973   2.838   2.964  1.3665  0.5512 -1.3817
  457MOL0     H61630  11.394   2.723   2.958 -1.3440  0.2695 -0.4904
  457MOL0     H61631  11.389   2.791   3.124  1.0850 -2.0539  2.1833
  457MOL0     H61632  11.232   2.610   3.193  0.1375  1.0439 -0.7703
  457MOL0     H61633  11.268   2.524   3.049 -2.2345  0.5373  1.4797
  457MOL0     H61634  11.515   2.511   3.116  0.7684 -0.0782  1.1674
  457MOL0     H61635  11.478   2.588   3.280 -0.4345  0.1603  0.7907
  457MOL0     H61636  11.358   2.318   3.186 -0.9529 -0.4922  2.8491
  457MOL0     H61637  11.509   2.347   3.274 -1.1972 -2.9681  0.0783
  457MOL0     H61638  11.352   2.464   3.446  0.6408  1.3699 -0.8031
  457MOL0     H61639  11.218   2.399   3.355  0.7438 -2.3213 -0.0307
  457MOL0     H61640  11.340   2.176   3.363  0.4623  3.8317 -4.7285
  457MOL0     H61641  11.436   2.254   3.502 -0.5612  2.4807 -0.1890
  457MOL0     H61642  11.154   2.281   3.516  0.7336  1.4000  0.1812
  457MOL0     H61643  11.207   2.110   3.500  0.4179 -0.4059  1.3113
  457MOL0     H61644  11.383   2.174   3.702 -0.1207 -0.8228 -0.4493
  457MOL0     H61645  11.227   2.131   3.746  1.7137 -1.7006 -0.4464
  457MOL0     H61646  11.054   2.311   3.833 -0.1655  0.1391  1.7100
  457MOL0     H61647  11.025   2.473   4.046  1.2771 -2.2197 -0.7850
  457MOL0     H61648  11.165   2.589   4.063  1.1886 -2.2426  0.4192
  457MOL0     H61649  10.925   2.603   3.877 -0.9072 -3.0270  2.4873
  457MOL0     H61650  11.058   2.712   3.873  0.4592 -2.0290 -1.3455
  457MOL0     H61651  11.013   2.826   4.072  0.3222 -0.1714  0.3558
  457MOL0     H61652  10.919   2.686   4.133 -0.4947  0.8008  0.1661
  457MOL0     H61653  10.853   2.881   3.908 -0.6927 -0.7856 -0.8517
  457MOL0     H61654  10.772   2.896   4.061  0.6328  2.3514 -2.0411
  457MOL0     H61655  10.682   2.877   3.717 -0.9647  2.2397 -1.8755
  457MOL0     H61656  10.577   3.017   3.561  1.6053 -0.0556  0.9897
  457MOL0     H61657  10.402   3.057   3.576 -0.2115  2.2683  1.6635
  457MOL0     H61658  10.538   3.153   3.657  1.3186 -0.1572 -0.5394
  457MOL0     H61659  10.034   3.061   3.644  0.7156  0.6261  0.3768
  457MOL0     H61660   9.833   3.193   3.598 -3.3038  2.1440  1.1428
  457MOL0     H61661   9.670   3.324   3.627  2.6528 -2.7952 -3.7064
  457MOL0     H61662   9.617   3.482   3.568 -0.7634 -0.2147  1.3294
  457MOL0     H61663   9.716   3.437   3.346 -0.8115 -0.6107 -0.0331
  457MOL0     H61664   9.777   3.291   3.395 -1.5309 -0.1130 -2.5824
  457MOL0     H61665   9.566   3.284   3.264 -0.9560 -0.9314  0.3773
  457MOL0     H61666   9.475   3.373   3.377 -1.5282 -2.1970 -0.0852
  457MOL0     H61667   9.614   3.112   3.469  0.7137  0.9610 -1.5094
  457MOL0     H61668   9.488   3.197   3.547  0.2354 -1.3588  0.3499
  457MOL0     H61669   9.433   3.047   3.275  0.7019 -1.0790  0.5230
  457MOL0     H61670   9.333   3.175   3.335 -0.2923  1.1674  2.8347
  457MOL0     H61671   9.391   2.919   3.490  1.1810  2.2564  0.1924
  457MOL0     H61672   9.272   3.039   3.531 -1.7059  0.4817 -1.7566
  457MOL0     H61673   9.261   2.885   3.272  1.6931 -1.2198  1.1176
  457MOL0     H61674   9.145   2.997   3.349  0.5535  1.0271  2.7065
  457MOL0     H61675   9.092   2.745   3.361  0.5849 -2.4634  1.8403
  457MOL0     H61676   9.091   2.861   3.512  1.5220  1.9938  0.0916
  457MOL0     H61677  10.046   3.557   3.649 -0.4345  0.1585  0.5199
  457MOL0     H61678  10.251   3.410   3.744 -0.3882  0.6836  1.1527
  457MOL0     H61679  10.286   2.860   4.005  0.3237 -0.9596  1.0223
  457MOL0     H61680  10.475   2.726   4.064 -0.2121 -0.5392 -0.6705
  457MOL0     H61681  11.284   2.586   2.813 -0.3079 -2.8610 -1.5829
  457MOL0     H61682  11.111   2.475   2.667 -2.7073 -1.7904  1.8261
  457MOL0     H61683  10.826   2.140   2.571 -0.9612 -1.0794  0.5825
  457MOL0     H61684  10.655   2.047   2.441 -0.7913 -0.2087  0.5145
  457MOL0     H61685  10.638   2.075   2.197 -0.5443  0.9328 -1.9161
  457MOL0     H61686  10.508   1.990   2.292 -0.5768  0.1159 -0.7984
  457MOL0     H61687  10.491   1.945   2.062  1.2361  1.0526 -0.2051
  457MOL0     H61688  10.485   2.117   2.026 -1.7875  3.0567  1.8695
  457MOL0     H61689  10.290   1.999   2.219 -1.3824 -1.5693 -1.3995
  457MOL0     H61690  10.263   2.001   2.035  2.2348  1.7138 -2.1626
  457MOL0     H61691  10.237   2.217   2.015 -1.6461  0.3007 -0.2928
  457MOL0     H61692  10.322   2.273   2.152  0.9734  1.5135 -1.6497
  457MOL0     H61693   9.918   2.175   2.278  1.2359 -1.7315 -1.6096
  457MOL0     H61694  10.497   2.429   2.342 -0.2165 -1.0325 -0.0885
  457MOL0     H61695  10.648   2.543   2.512 -1.7461  0.0455  0.9090
  458MOL0     O61696   1.693   4.604   0.579  0.6135  0.8938  0.2978
  458MOL0     C61697   1.602   4.530   0.616 -0.3635 -0.2098 -0.5099
  458MOL0     O61698   1.560   4.416   0.551 -0.1433 -0.1122 -0.8398
  458MOL0     C61699   1.626   4.338   0.460 -0.4011  0.3262 -0.0287
  458MOL0     C61700   1.765   4.342   0.440  0.2374 -0.2110  0.8347
  458MOL0     C61701   1.823   4.254   0.342  0.4073  0.5588 -0.0919
  458MOL0     C61702   1.747   4.163   0.268  0.7054 -0.5661  0.3882
  458MOL0     O61703   1.780   4.093   0.155 -1.1854  0.1994  0.5234
  458MOL0     C61704   1.911   4.070   0.119 -0.6749  0.0763 -0.1680
  458MOL0     C61705   1.960   3.965   0.218  0.1174 -0.8870  0.7133
  458MOL0     C61706   1.898   3.823   0.206  1.0173  0.0358 -0.0355
  458MOL0     C61707   1.957   3.725   0.315  0.1652  0.8892  0.7356
  458MOL0     C61708   2.091   3.663   0.288  0.1847 -0.4780 -0.1883
  458MOL0     C61709   2.164   3.609   0.416 -0.3446 -0.4935  0.1367
  458MOL0     C61710   2.081   3.502   0.487  0.0271  1.0570 -0.2674
  458MOL0     C61711   2.146   3.430   0.609 -0.4288  0.1495  1.0531
  458MOL0     N61712   2.266   3.363   0.559 -0.1806 -0.0276  0.4799
  458MOL0     C61713   2.393   3.409   0.560 -1.0549 -0.0461 -0.6584
  458MOL0     C61714   2.459   3.310   0.485  0.1457 -0.4365 -0.3124
  458MOL0     C61715   2.609   3.318   0.450 -0.2583  0.2093 -0.4382
  458MOL0     C61716   2.652   3.248   0.329  0.0678  0.1815 -0.0539
  458MOL0     C61717   2.632   3.328   0.198  0.0155 -0.9084  0.2216
  458MOL0     C61718   2.634   3.237   0.073 -0.4725 -0.7474 -0.2757
  458MOL0     O61719   2.653   3.299  -0.061  0.9474  0.7472 -0.2272
  458MOL0     C61720   2.603   3.208  -0.159  1.1005 -0.2267 -0.6992
  458MOL0     C61721   2.640   3.077  -0.169  0.3175 -1.1671 -0.2778
  458MOL0     C61722   2.580   2.992  -0.270 -0.2775 -0.2005  0.2875
  458MOL0     C61723   2.636   2.853  -0.280  0.4784 -0.5398 -0.0831
  458MOL0     C61724   2.483   3.044  -0.359  0.2266 -0.6739  0.0147
  458MOL0     C61725   2.417   2.972  -0.469 -1.0786  0.7394 -0.9031
  458MOL0     O61726   2.358   3.040  -0.569  0.5954  0.6435 -0.3277
  458MOL0     C61727   2.317   2.977  -0.684  0.7215  0.4964 -0.0242
  458MOL0     C61728   2.401   2.895  -0.764 -0.9991 -0.0169  0.7387
  458MOL0     C61729   2.348   2.828  -0.870 -0.0697 -0.5544  0.6833
  458MOL0     C61730   2.214   2.835  -0.910  1.1954 -0.5290  0.2297
  458MOL0     O61731   2.170   2.749  -1.015 -0.1204  0.2913  0.6596
  458MOL0     C61732   2.043   2.680  -1.018 -1.0655  0.7446 -0.2682
  458MOL0     C61733   2.017   2.600  -1.151 -0.1081 -0.9925  0.0933
  458MOL0     C61734   2.064   2.664  -1.276  0.4837  0.0543  0.1927
  458MOL0     C61735   1.989   2.597  -1.396  0.3917 -0.5932 -0.0461
  458MOL0     C61736   2.074   2.585  -1.523 -0.2828 -0.5569  0.5535
  458MOL0     C61737   2.005   2.553  -1.661  0.2575  0.1464 -0.1074
  458MOL0     C61738   1.893   2.654  -1.696 -0.1022 -0.2545  0.0627
  458MOL0     C61739   1.856   2.669  -1.843  0.2797  0.3485  0.1084
  458MOL0    Cl61740   1.726   2.554  -1.878  0.3358  0.0837 -0.0067
  458MOL0     C61741   2.131   2.919  -0.834  0.0548  0.2031  0.7295
  458MOL0     C61742   2.183   2.999  -0.731 -0.1359  0.4817 -0.1481
  458MOL0     O61743   2.421   2.847  -0.459 -0.6509  0.4235  0.6061
  458MOL0     C61744   2.451   3.183  -0.342 -0.1301  0.1955 -0.2982
  458MOL0     C61745   2.510   3.257  -0.241  0.5761 -0.0909  0.0398
  458MOL0     N61746   2.362   3.215   0.443 -0.4137  0.8321 -0.0566
  458MOL0     N61747   2.253   3.250   0.484 -0.2406 -0.6593 -0.5457
  458MOL0     C61748   1.612   4.157   0.301 -1.2074  0.4237 -0.0331
  458MOL0     C61749   1.557   4.241   0.396  0.3937 -0.0025 -0.7421
  458MOL0     C61750   1.517   4.569   0.729 -0.3541  0.2726 -0.1196
  458MOL0     C61751   1.386   4.503   0.737  0.1134 -0.0747  0.4223
  458MOL0     C61752   1.293   4.558   0.821  0.7877 -0.0032 -0.3894
  458MOL0     C61753   1.332   4.657   0.909  0.2355  0.0846 -1.1576
  458MOL0     O61754   1.250   4.715   1.002 -0.7504  0.4366 -0.4763
  458MOL0     C61755   1.213   4.645   1.122 -1.6430  0.0345  0.3275
  458MOL0     C61756   1.346   4.640   1.201  0.5873  0.2922  1.0491
  458MOL0     C61757   1.332   4.616   1.352 -0.6253 -0.9689 -0.2039
  458MOL0     C61758   1.264   4.731   1.418 -0.4786  0.2937  0.0743
  458MOL0     C61759   1.281   4.730   1.562 -0.5252  0.3082 -0.1935
  458MOL0     C61760   1.317   4.747   1.679  0.3557  0.0685 -0.1714
  458MOL0     C61761   1.459   4.711   0.908  0.1278  0.0339 -0.0051
  458MOL0     C61762   1.549   4.669   0.812 -0.6817  0.5663 -0.0566
  458MOL0     H61763   1.830   4.417   0.484  2.0969 -0.3049 -1.5637
  458MOL0     H61764   1.929   4.272   0.326  0.0768  2.3982 -0.4535
  458MOL0     H61765   1.905   4.032   0.017  0.0537 -0.5683  0.0082
  458MOL0     H61766   1.978   4.156   0.110 -0.2750 -0.4525 -3.0673
  458MOL0     H61767   2.066   3.951   0.195  0.5565  0.7158  1.6439
  458MOL0     H61768   1.945   3.998   0.322 -2.3306 -0.9421  0.4375
  458MOL0     H61769   1.791   3.839   0.221  0.5365  0.1186 -3.0712
  458MOL0     H61770   1.904   3.781   0.105 -0.3404 -1.9779  0.6580
  458MOL0     H61771   1.974   3.785   0.404 -0.1648 -0.0627  1.4586
  458MOL0     H61772   1.893   3.637   0.331  0.8602  0.4813  1.3560
  458MOL0     H61773   2.099   3.590   0.207  3.1303 -0.4412 -0.0277
  458MOL0     H61774   2.153   3.740   0.242 -1.5055 -0.2004 -2.1565
  458MOL0     H61775   2.253   3.560   0.375  0.1960  1.1780 -0.7701
  458MOL0     H61776   2.181   3.693   0.483 -3.0577 -0.4974  0.9664
  458MOL0     H61777   1.991   3.553   0.522 -0.2807  0.8767 -0.7863
  458MOL0     H61778   2.044   3.433   0.411  3.6999 -1.0536 -0.3534
  458MOL0     H61779   2.074   3.358   0.651 -1.4082  0.7092  0.3695
  458MOL0     H61780   2.176   3.497   0.690 -0.3321  0.9728  0.3423
  458MOL0     H61781   2.435   3.487   0.622  0.8896 -1.5613  0.0615
  458MOL0     H61782   2.636   3.423   0.433 -2.6500  1.0536  0.5961
  458MOL0     H61783   2.671   3.283   0.533  1.5762  1.0352 -1.3951
  458MOL0     H61784   2.593   3.156   0.321 -1.5458  1.3424 -3.0447
  458MOL0     H61785   2.756   3.216   0.336  0.4688  1.7461  2.9894
  458MOL0     H61786   2.724   3.387   0.193 -0.5867  0.0637  0.3672
  458MOL0     H61787   2.543   3.390   0.195 -0.7691 -1.9556 -3.8409
  458MOL0     H61788   2.540   3.181   0.072 -0.7658 -0.2633 -0.3079
  458MOL0     H61789   2.711   3.163   0.095  1.5482  2.0365  3.2272
  458MOL0     H61790   2.702   3.028  -0.095 -1.2063 -2.3027  0.2847
  458MOL0     H61791   2.722   2.827  -0.217  0.7284 -0.3468 -0.3425
  458MOL0     H61792   2.562   2.781  -0.244  0.3516 -0.5800 -0.4155
  458MOL0     H61793   2.652   2.828  -0.386 -0.2941 -2.1379  0.1388
  458MOL0     H61794   2.506   2.900  -0.734 -0.5864 -0.7788 -0.5042
  458MOL0     H61795   2.412   2.754  -0.915  1.1060  0.7456  0.1464
  458MOL0     H61796   2.052   2.604  -0.941 -0.4798 -0.3442 -1.3753
  458MOL0     H61797   1.959   2.747  -0.998 -0.1501  2.0685 -0.6508
  458MOL0     H61798   2.068   2.504  -1.135  2.1319  0.0322 -0.5565
  458MOL0     H61799   1.911   2.577  -1.142 -0.0103 -0.8273  2.3746
  458MOL0     H61800   2.171   2.641  -1.287  0.7667 -0.4585  3.2399
  458MOL0     H61801   2.054   2.773  -1.281 -0.2654  0.1999  3.2445
  458MOL0     H61802   1.948   2.499  -1.370  0.7103 -0.8325 -0.4332
  458MOL0     H61803   1.907   2.662  -1.426  0.9703  1.0342  1.7176
  458MOL0     H61804   2.140   2.498  -1.509 -1.6340 -2.0282 -1.6772
  458MOL0     H61805   2.140   2.670  -1.545  0.8713 -1.8422 -1.2459
  458MOL0     H61806   2.092   2.558  -1.727  1.4451  0.2203  1.4151
  458MOL0     H61807   1.952   2.457  -1.663  0.5639 -0.0107 -1.3187
  458MOL0     H61808   1.917   2.754  -1.659  1.6055 -0.7670  0.4443
  458MOL0     H61809   1.802   2.615  -1.651  0.7046 -1.5598  0.6265
  458MOL0     H61810   1.941   2.655  -1.910 -0.5342 -0.8344 -0.7044
  458MOL0     H61811   1.810   2.766  -1.865  1.4324  0.9026  0.0866
  458MOL0     H61812   2.025   2.929  -0.854 -0.6456  3.3436  4.6550
  458MOL0     H61813   2.124   3.080  -0.687 -0.2032 -0.5558  1.7717
  458MOL0     H61814   2.384   3.227  -0.414  1.0422  0.0927 -1.4999
  458MOL0     H61815   2.483   3.362  -0.247 -5.2810 -1.3460 -3.5015
  458MOL0     H61816   1.556   4.098   0.229  1.7339 -3.6389  0.6616
  458MOL0     H61817   1.449   4.243   0.407  0.4859 -0.1199  0.3060
  458MOL0     H61818   1.350   4.421   0.676  0.6468 -0.6904  0.9228
  458MOL0     H61819   1.191   4.521   0.807  0.3558  1.4064 -1.0757
  458MOL0     H61820   1.136   4.684   1.191 -0.9714 -2.8349  2.9311
  458MOL0     H61821   1.189   4.539   1.111 -0.8244 -0.1764  0.5350
  458MOL0     H61822   1.408   4.729   1.189  2.5658 -1.3230 -1.9402
  458MOL0     H61823   1.403   4.558   1.157 -1.2900  0.1622 -1.2991
  458MOL0     H61824   1.434   4.614   1.393 -1.1440  1.2733  1.4226
  458MOL0     H61825   1.289   4.518   1.372 -2.4179  0.6395  6.2406
  458MOL0     H61826   1.157   4.736   1.397 -0.6330 -0.3115  0.6860
  458MOL0     H61827   1.306   4.824   1.377  2.8748 -1.4813 -0.8457
  458MOL0     H61828   1.370   4.770   1.769 -0.8832  3.0199 -0.1126
  458MOL0     H61829   1.495   4.780   0.984  1.9704 -2.9664  2.1035
  458MOL0     H61830   1.644   4.722   0.807 -0.7697  0.7774  0.4337
  459MOL0     O61831   1.280   4.662   5.323  0.1952 -0.9177  0.0059
  459MOL0     C61832   1.191   4.675   5.238 -0.0665 -1.0611 -0.5455
  459MOL0     O61833   1.217   4.684   5.100  0.1311  0.7130  0.5076
  459MOL0     C61834   1.335   4.729   5.069 -1.1439 -0.1189  0.4673
  459MOL0     C61835   1.441   4.647   5.071  0.7800 -0.1479 -0.0453
  459MOL0     C61836   1.567   4.679   5.011 -0.1828  0.4728 -0.0024
  459MOL0     C61837   1.591   4.815   4.974 -0.5512  0.2565  0.2116
  459MOL0     O61838   1.714   4.856   4.925  0.0268  0.2729 -0.5485
  459MOL0     C61839   1.831   4.823   4.991  0.1476  0.0392 -0.3137
  459MOL0     C61840   1.960   4.878   4.933 -0.7334 -1.5791  0.5830
  459MOL0     C61841   2.089   4.816   4.985  0.6379 -0.0718 -0.0311
  459MOL0     C61842   2.162   4.900   5.092  0.1029  0.1292  0.7547
  459MOL0     C61843   2.313   4.863   5.113 -0.3874 -0.4270  0.9021
  459MOL0     C61844   2.389   4.970   5.191  0.6832  0.4007  0.0992
  459MOL0     C61845   2.459   5.069   5.104 -0.1782 -0.1921  0.8060
  459MOL0     C61846   2.374   5.184   5.060  0.4211 -0.7437 -0.3448
  459MOL0     N61847   2.445   5.305   5.017 -0.3504  0.3612 -0.2779
  459MOL0     C61848   2.481   5.417   5.095 -0.0792 -0.2939  0.4439
  459MOL0     C61849   2.569   5.483   5.015  0.0960 -0.1437  0.3650
  459MOL0     C61850   2.616   5.620   5.044  0.4138 -0.4555  0.8468
  459MOL0     C61851   2.761   5.624   5.055  0.1149  0.1980  0.2346
  459MOL0     C61852   2.791   5.761   5.122 -0.3190  0.8257 -0.3080
  459MOL0     C61853   2.925   5.813   5.058 -0.7644  0.0237  0.5156
  459MOL0     O61854   2.895   5.859   4.927  1.0685 -0.6709 -0.1355
  459MOL0     C61855   2.819   5.969   4.917  0.9018 -0.5335  1.2331
  459MOL0     C61856   2.794   6.064   5.020 -0.2644 -0.9453  0.3889
  459MOL0     C61857   2.717   6.178   4.996 -0.8011  0.2001 -0.9778
  459MOL0     C61858   2.688   6.276   5.109  0.0555 -0.2328 -0.4010
  459MOL0     C61859   2.674   6.205   4.867 -0.1831 -1.1178  0.2427
  459MOL0     C61860   2.611   6.330   4.806 -0.8061 -0.7816 -0.1997
  459MOL0     O61861   2.577   6.335   4.671 -0.7856  0.8953 -0.0338
  459MOL0     C61862   2.524   6.454   4.617 -0.8416 -0.6176  0.7454
  459MOL0     C61863   2.393   6.474   4.635  0.2985 -0.5326 -0.7250
  459MOL0     C61864   2.333   6.593   4.575 -0.9351  0.4997 -0.1327
  459MOL0     C61865   2.407   6.663   4.484  1.1466 -0.2731 -0.2218
  459MOL0     O61866   2.347   6.772   4.417 -0.3968  0.4431  0.0591
  459MOL0     C61867   2.374   6.773   4.275  0.2916 -1.0901 -0.0590
  459MOL0     C61868   2.246   6.830   4.208 -0.0190  0.2087  0.4856
  459MOL0     C61869   2.227   6.980   4.258  0.3700 -0.2788  0.0645
  459MOL0     C61870   2.118   7.046   4.187 -0.4458 -0.0335  0.7768
  459MOL0     C61871   2.094   7.187   4.224 -0.5223 -0.2096  0.6812
  459MOL0     C61872   2.210   7.285   4.184 -0.7082  0.2333 -0.1438
  459MOL0     C61873   2.173   7.432   4.196  0.0403 -0.1373  0.4288
  459MOL0     C61874   2.298   7.532   4.199  0.6230 -0.1238  0.8736
  459MOL0    Cl61875   2.388   7.521   4.039 -0.2897  0.2051  0.1126
  459MOL0     C61876   2.540   6.633   4.459  0.2248  0.2726  0.2571
  459MOL0     C61877   2.607   6.535   4.532 -0.3135  1.1698  0.6545
  459MOL0     O61878   2.616   6.431   4.876  0.0543  0.1008 -0.0282
  459MOL0     C61879   2.694   6.107   4.764 -0.0857 -0.5282 -0.2892
  459MOL0     C61880   2.766   5.994   4.790  0.6129  0.1313  0.8149
  459MOL0     N61881   2.583   5.426   4.891  0.3899  0.0250  0.1758
  459MOL0     N61882   2.519   5.312   4.899  0.5602  0.5079  0.1928
  459MOL0     C61883   1.487   4.901   5.002 -0.1083 -0.4894 -0.2177
  459MOL0     C61884   1.362   4.860   5.042  0.5381 -0.5186 -0.1546
  459MOL0     C61885   1.056   4.650   5.287  0.3144  0.4150  0.1506
  459MOL0     C61886   0.956   4.639   5.184 -0.4990 -0.1251 -0.1585
  459MOL0     C61887   0.825   4.600   5.219  0.0251  0.2670  0.5637
  459MOL0     C61888   0.787   4.575   5.345 -0.5514  0.2457 -0.2705
  459MOL0     O61889   0.661   4.529   5.389 -0.0369  0.6217  0.0203
  459MOL0     C61890   0.557   4.531   5.296 -0.0678  0.0385  0.2239
  459MOL0     C61891   0.509   4.672   5.251 -1.5261  0.8784  0.6129
  459MOL0     C61892   0.444   4.744   5.367 -0.5771 -0.3905  0.2814
  459MOL0     C61893   0.453   4.895   5.344 -0.6224  0.7429  0.5071
  459MOL0     C61894   0.374   4.946   5.231  0.1582 -0.1649 -0.1790
  459MOL0     C61895   0.313   4.989   5.141  0.4037  0.4654 -0.4867
  459MOL0     C61896   0.881   4.583   5.441  0.6341  0.5533  0.5733
  459MOL0     C61897   1.013   4.619   5.412 -0.4952  0.0657 -0.8741
  459MOL0     H61898   1.427   4.543   5.100 -0.3005 -0.8969 -2.9796
  459MOL0     H61899   1.646   4.605   5.006 -2.6409 -2.4102  0.1935
  459MOL0     H61900   1.836   4.878   5.085  0.1561  4.5720 -2.7046
  459MOL0     H61901   1.847   4.716   5.011 -1.2123 -0.4684 -1.7208
  459MOL0     H61902   1.965   4.873   4.824  2.5786  1.7054  0.3886
  459MOL0     H61903   1.957   4.983   4.963  2.5477 -1.1024 -0.2932
  459MOL0     H61904   2.076   4.713   5.021  2.0710 -0.9421 -1.8447
  459MOL0     H61905   2.148   4.787   4.898  0.6125  0.7023 -0.3161
  459MOL0     H61906   2.152   5.005   5.064 -0.2002  0.2531  1.3165
  459MOL0     H61907   2.112   4.896   5.189  0.2947  4.9039  1.2543
  459MOL0     H61908   2.318   4.771   5.170  1.5063 -0.4399  0.7734
  459MOL0     H61909   2.356   4.850   5.013 -0.5638 -0.9992  0.8995
  459MOL0     H61910   2.331   5.025   5.266  1.2844 -1.2475  1.8713
  459MOL0     H61911   2.455   4.911   5.256  0.3617  1.4259  1.3926
  459MOL0     H61912   2.538   5.108   5.169  2.4382 -2.7822 -0.5751
  459MOL0     H61913   2.501   5.019   5.016  3.2372  2.5347  0.6418
  459MOL0     H61914   2.315   5.215   5.147 -1.4680 -1.2270 -1.4023
  459MOL0     H61915   2.291   5.165   4.992 -1.7520 -0.8862  2.2012
  459MOL0     H61916   2.437   5.449   5.189 -1.0506 -3.2491  1.1002
  459MOL0     H61917   2.583   5.684   4.962  1.6675 -0.9911 -0.1052
  459MOL0     H61918   2.569   5.657   5.136 -3.5269  0.2835 -1.2206
  459MOL0     H61919   2.799   5.616   4.953 -1.3281  0.5017 -0.3625
  459MOL0     H61920   2.801   5.543   5.116  1.7991  1.7011  1.2175
  459MOL0     H61921   2.811   5.747   5.229  4.1516  2.1232 -0.7826
  459MOL0     H61922   2.707   5.829   5.102 -1.2909 -0.6351 -1.4318
  459MOL0     H61923   3.001   5.735   5.047 -1.4127 -0.9700  2.5300
  459MOL0     H61924   2.970   5.890   5.121  0.7965 -1.4591  1.2894
  459MOL0     H61925   2.843   6.065   5.117  0.5578 -1.9177 -0.0033
  459MOL0     H61926   2.587   6.318   5.103 -0.4502 -0.7620  2.9126
  459MOL0     H61927   2.695   6.222   5.203 -1.0142  1.5690  0.7687
  459MOL0     H61928   2.760   6.358   5.116  0.4162 -0.6526  0.9747
  459MOL0     H61929   2.325   6.421   4.701 -1.3779  0.4740 -1.5820
  459MOL0     H61930   2.232   6.612   4.611 -0.4727 -0.6923  1.9119
  459MOL0     H61931   2.468   6.813   4.236 -0.4660 -1.5521 -2.5346
  459MOL0     H61932   2.384   6.669   4.244  0.3965 -0.8297 -0.9161
  459MOL0     H61933   2.282   6.841   4.105  1.4992  1.5924  1.1137
  459MOL0     H61934   2.158   6.767   4.219 -0.4449  0.6977 -0.0653
  459MOL0     H61935   2.318   7.028   4.222 -0.6246  0.4471 -1.6227
  459MOL0     H61936   2.215   6.975   4.367 -1.2989 -3.2718 -0.1448
  459MOL0     H61937   2.128   7.048   4.078  0.3197  0.2742  0.8435
  459MOL0     H61938   2.026   6.989   4.201 -0.4383  0.1822  1.8136
  459MOL0     H61939   2.067   7.184   4.330 -2.4988  1.2578  0.2879
  459MOL0     H61940   2.010   7.217   4.159  1.9428  1.1362 -2.1323
  459MOL0     H61941   2.293   7.256   4.249 -2.0036 -2.4214  0.4684
  459MOL0     H61942   2.256   7.264   4.087 -1.5597 -0.4943 -0.4041
  459MOL0     H61943   2.110   7.439   4.286  0.8911  4.6370  0.8775
  459MOL0     H61944   2.097   7.462   4.123  2.1243 -1.3182 -2.4055
  459MOL0     H61945   2.369   7.514   4.280  0.6718  0.4332  0.9597
  459MOL0     H61946   2.259   7.634   4.210  2.4988  1.0500 -1.9559
  459MOL0     H61947   2.610   6.699   4.409 -1.3219  2.8748  1.3528
  459MOL0     H61948   2.707   6.493   4.519 -0.6821  0.7555 -1.2475
  459MOL0     H61949   2.671   6.124   4.659 -1.9220  1.3430  0.3518
  459MOL0     H61950   2.773   5.926   4.706 -1.8684  0.6925  0.0853
  459MOL0     H61951   1.502   5.005   4.978  1.6893 -1.0350 -1.6512
  459MOL0     H61952   1.283   4.933   5.060  0.0554 -1.7978  3.9111
  459MOL0     H61953   0.972   4.647   5.077  1.1391 -3.2963 -0.2705
  459MOL0     H61954   0.755   4.572   5.140 -0.5045 -0.5603  1.3010
  459MOL0     H61955   0.587   4.465   5.214  2.6143 -1.0079  1.9275
  459MOL0     H61956   0.476   4.474   5.343  1.8051 -2.9299  0.1250
  459MOL0     H61957   0.431   4.656   5.175 -0.0908 -4.0230 -0.1835
  459MOL0     H61958   0.582   4.735   5.200 -1.8844 -0.0940 -1.2174
  459MOL0     H61959   0.511   4.728   5.452  0.6296  3.1714  0.1681
  459MOL0     H61960   0.342   4.711   5.389 -0.7422 -0.6211 -0.7791
  459MOL0     H61961   0.557   4.931   5.339 -1.2922  2.6738 -1.3844
  459MOL0     H61962   0.402   4.947   5.425  0.4722  2.3549  0.2072
  459MOL0     H61963   0.260   5.044   5.066 -2.6885 -2.3732 -0.6186
  459MOL0     H61964   0.856   4.570   5.545  2.2108  2.5992  1.2829
  459MOL0     H61965   1.092   4.618   5.486 -1.2912 -0.0299  0.0082
  460MOL0     O61966   6.629   9.983   9.823  0.2266 -0.3560 -0.5188
  460MOL0     C61967   6.747   9.960   9.804 -0.2453  0.1163  0.8706
  460MOL0     O61968   6.816   9.859   9.866  0.0181  0.6744  0.0480
  460MOL0     C61969   6.765   9.750   9.937  0.1176 -0.0763  0.8275
  460MOL0     C61970   6.859   9.657   9.977  0.4621 -0.9172 -0.6573
  460MOL0     C61971   6.821   9.545  10.043  0.3856  0.9890  0.3050
  460MOL0     C61972   6.680   9.520  10.075 -0.4054 -0.0854  0.1889
  460MOL0     O61973   6.627   9.424  10.164 -1.2129  0.3704 -0.3967
  460MOL0     C61974   6.693   9.297  10.178 -0.0908 -0.2210  0.1569
  460MOL0     C61975   6.627   9.192  10.106 -0.8832 -0.0985  0.0204
  460MOL0     C61976   6.474   9.171  10.129  0.2760  0.0398  0.0830
  460MOL0     C61977   6.432   9.075  10.240 -0.1643  0.8763  0.5350
  460MOL0     C61978   6.277   9.103  10.253  0.4539 -0.4763 -1.1453
  460MOL0     C61979   6.200   9.008  10.343 -0.4104 -0.4486 -0.7978
  460MOL0     C61980   6.227   9.042  10.489 -1.1591 -1.2603  0.3624
  460MOL0     C61981   6.182   8.943  10.596 -1.4146 -0.0801  0.0321
  460MOL0     N61982   6.251   8.957  10.719 -0.7234 -0.8196 -0.8808
  460MOL0     C61983   6.354   8.871  10.759 -0.1733  0.0911  0.0989
  460MOL0     C61984   6.381   8.883  10.891  1.0162  0.0886  0.7870
  460MOL0     C61985   6.467   8.790  10.956 -0.1255  1.1449 -0.5126
  460MOL0     C61986   6.442   8.633  10.925 -0.8133 -0.1113 -0.6588
  460MOL0     C61987   6.310   8.557  10.915  0.1931 -0.2560  0.0372
  460MOL0     C61988   6.234   8.554  11.041 -0.4572 -0.0537 -0.2578
  460MOL0     O61989   6.099   8.504  11.029 -0.3320 -0.1111 -0.4152
  460MOL0     C61990   6.026   8.557  10.927  0.4990  0.1385  0.0939
  460MOL0     C61991   5.941   8.490  10.850  0.8038  0.0594  0.5629
  460MOL0     C61992   5.850   8.543  10.754 -0.1829 -0.4518 -0.0454
  460MOL0     C61993   5.781   8.443  10.668  0.0179 -0.5984 -0.3040
  460MOL0     C61994   5.850   8.680  10.734 -0.0219  0.5068 -0.1256
  460MOL0     C61995   5.779   8.732  10.614 -0.7735  0.9503  0.0011
  460MOL0     O61996   5.762   8.663  10.498 -0.2751  1.1873 -0.1708
  460MOL0     C61997   5.685   8.733  10.408 -0.1447  0.7522  0.4589
  460MOL0     C61998   5.739   8.761  10.285 -0.2314 -0.0706  0.6397
  460MOL0     C61999   5.658   8.829  10.187 -0.2106 -0.1495  0.3864
  460MOL0     C62000   5.525   8.845  10.209  0.8428 -1.1538  0.2140
  460MOL0     O62001   5.454   8.900  10.099  0.1436  0.1037 -1.0183
  460MOL0     C62002   5.313   8.935  10.102  0.5981  0.6437 -0.0452
  460MOL0     C62003   5.259   8.989   9.974 -0.4444 -0.4576  0.4408
  460MOL0     C62004   5.315   8.921   9.846  0.3977 -0.9240  0.7875
  460MOL0     C62005   5.259   8.978   9.726  0.8424  1.2148 -0.1850
  460MOL0     C62006   5.337   9.096   9.671 -0.0199  0.3243  0.1657
  460MOL0     C62007   5.281   9.134   9.533  0.5584  0.1781 -0.5185
  460MOL0     C62008   5.331   9.267   9.482  0.5712 -0.0520  0.2718
  460MOL0     C62009   5.248   9.374   9.528 -0.7769  0.7034  0.7575
  460MOL0    Cl62010   5.083   9.352   9.468  0.0863 -0.0919 -0.1852
  460MOL0     C62011   5.470   8.810  10.331 -1.1361  0.1329 -0.2019
  460MOL0     C62012   5.548   8.755  10.435  0.2877  1.1009  0.3636
  460MOL0     O62013   5.740   8.848  10.632 -0.6356  0.0589 -1.0359
  460MOL0     C62014   5.935   8.756  10.820  0.0921 -0.5006  0.6021
  460MOL0     C62015   6.010   8.700  10.916 -0.3318 -0.6812  0.6466
  460MOL0     N62016   6.272   8.966  10.939  0.3275 -0.2344 -0.4012
  460MOL0     N62017   6.205   9.007  10.838 -0.6403  0.3541 -0.2307
  460MOL0     C62018   6.586   9.622  10.038  0.5791 -0.1460  0.2355
  460MOL0     C62019   6.631   9.731   9.966  0.6780 -0.3960 -0.2273
  460MOL0     C62020   6.816  10.045   9.695 -0.1729 -0.0756 -0.2845
  460MOL0     C62021   6.744  10.130   9.609  0.8848 -0.1108 -0.1570
  460MOL0     C62022   6.801  10.230   9.540 -0.2860 -1.2188  0.2541
  460MOL0     C62023   6.940  10.223   9.510 -0.4886  0.2198 -0.0022
  460MOL0     O62024   6.988  10.302   9.412 -0.7156 -1.0903 -0.5004
  460MOL0     C62025   7.134  10.328   9.405  0.4096  0.2187  0.2113
  460MOL0     C62026   7.199  10.380   9.531 -0.8129 -0.4226 -0.9933
  460MOL0     C62027   7.136  10.518   9.576 -0.1455  0.6786 -0.4315
  460MOL0     C62028   7.193  10.561   9.713  0.2134  0.0478 -0.8418
  460MOL0     C62029   7.338  10.584   9.703 -0.1281  0.0892  0.0061
  460MOL0     C62030   7.458  10.610   9.687 -0.3415 -0.1041  0.2823
  460MOL0     C62031   7.006  10.119   9.563 -0.4166  0.5497 -0.4723
  460MOL0     C62032   6.957  10.036   9.665  0.4173 -0.1090 -0.8537
  460MOL0     H62033   6.964   9.667   9.951 -0.5447  0.0508 -5.1659
  460MOL0     H62034   6.895   9.472  10.075 -0.5713 -0.9449 -1.6918
  460MOL0     H62035   6.796   9.304  10.141 -0.1447  1.7158  0.2584
  460MOL0     H62036   6.711   9.266  10.281 -1.8239 -0.4443  0.4144
  460MOL0     H62037   6.640   9.210   9.999 -1.4549 -1.7383 -0.3501
  460MOL0     H62038   6.686   9.102  10.124  1.6268  1.3619 -0.4415
  460MOL0     H62039   6.428   9.268  10.151  0.8534  0.2137  0.5646
  460MOL0     H62040   6.423   9.136  10.039  0.4549 -0.1631  0.0582
  460MOL0     H62041   6.451   8.977  10.197  0.1564 -0.1935  2.9535
  460MOL0     H62042   6.486   9.083  10.334 -2.9311  0.7207  2.2659
  460MOL0     H62043   6.257   9.205  10.287  1.1054 -0.4181 -0.9267
  460MOL0     H62044   6.235   9.090  10.152 -0.5216 -0.8689 -0.6973
  460MOL0     H62045   6.092   9.012  10.326 -0.7280 -0.8458  0.9507
  460MOL0     H62046   6.234   8.906  10.325  1.1273 -0.0653 -0.1754
  460MOL0     H62047   6.333   9.051  10.515 -1.3454 -0.9155  1.0321
  460MOL0     H62048   6.173   9.134  10.514  2.5557  1.2369  0.0981
  460MOL0     H62049   6.196   8.839  10.563  3.2890  0.1134  0.6739
  460MOL0     H62050   6.075   8.961  10.609 -1.2830  1.2478 -0.6079
  460MOL0     H62051   6.416   8.809  10.695  0.0118  1.0536 -0.6935
  460MOL0     H62052   6.570   8.814  10.930 -0.7223  1.2625 -3.0669
  460MOL0     H62053   6.450   8.807  11.063  1.4108  2.3436 -0.4346
  460MOL0     H62054   6.512   8.579  10.989  0.0813 -0.2640 -1.7222
  460MOL0     H62055   6.481   8.620  10.823 -0.3434 -3.8952 -0.1382
  460MOL0     H62056   6.328   8.460  10.869 -1.6445 -0.5007 -0.2623
  460MOL0     H62057   6.247   8.613  10.845  1.1686  0.1652 -0.5244
  460MOL0     H62058   6.229   8.653  11.087 -0.9264  0.2403 -0.9217
  460MOL0     H62059   6.283   8.490  11.114  1.7186 -0.9571 -2.3673
  460MOL0     H62060   5.943   8.381  10.851  0.3904 -0.2705 -4.5418
  460MOL0     H62061   5.675   8.471  10.674 -0.1118 -0.9996 -0.7048
  460MOL0     H62062   5.816   8.435  10.565 -0.6952  1.4323 -0.7522
  460MOL0     H62063   5.796   8.343  10.711 -1.9711 -0.6923  0.2950
  460MOL0     H62064   5.846   8.746  10.289 -0.0502 -1.2934 -3.7624
  460MOL0     H62065   5.692   8.864  10.090  0.5965  1.1542  1.1173
  460MOL0     H62066   5.249   8.848  10.122  1.0579  0.4468  0.5970
  460MOL0     H62067   5.297   9.015  10.174 -0.3266  1.3094 -0.9536
  460MOL0     H62068   5.150   8.993   9.976 -0.5284 -0.2773 -1.9543
  460MOL0     H62069   5.285   9.095   9.966  1.3712 -0.9015 -0.1627
  460MOL0     H62070   5.285   8.815   9.849  0.5102 -0.9411  2.5497
  460MOL0     H62071   5.424   8.926   9.843  0.2982  1.4409 -0.3502
  460MOL0     H62072   5.255   8.899   9.651 -2.8070  1.7603 -0.7366
  460MOL0     H62073   5.157   9.010   9.750  0.3747 -0.0324 -0.4261
  460MOL0     H62074   5.443   9.072   9.660  0.4194  2.5988 -1.4049
  460MOL0     H62075   5.330   9.185   9.734 -0.3121  1.7971 -1.8238
  460MOL0     H62076   5.313   9.055   9.465  0.4790 -1.1660  0.9368
  460MOL0     H62077   5.172   9.129   9.534  0.5051  0.0128 -2.6088
  460MOL0     H62078   5.326   9.250   9.374  1.3221 -0.9236  0.3551
  460MOL0     H62079   5.435   9.289   9.506  1.5552 -2.5849 -1.2512
  460MOL0     H62080   5.283   9.468   9.483 -1.1051 -0.2577 -1.5986
  460MOL0     H62081   5.249   9.389   9.637 -1.6704 -0.2490  0.9055
  460MOL0     H62082   5.364   8.824  10.346 -0.9804  0.1614  0.9809
  460MOL0     H62083   5.491   8.718  10.520  1.1593 -0.1914  0.4127
  460MOL0     H62084   5.939   8.861  10.793 -1.2702 -1.0475 -2.1280
  460MOL0     H62085   6.064   8.775  10.973 -0.0932  0.7986 -1.4095
  460MOL0     H62086   6.485   9.607  10.074  1.5405 -0.7110  2.8717
  460MOL0     H62087   6.547   9.792   9.935  0.6496  0.0377  0.6637
  460MOL0     H62088   6.636  10.133   9.621  0.5766 -1.2820 -2.1067
  460MOL0     H62089   6.749  10.297   9.473  2.4896  1.5440  0.6396
  460MOL0     H62090   7.182  10.233   9.379  0.1726  0.6357 -1.9595
  460MOL0     H62091   7.162  10.391   9.321  1.3387 -3.3324 -2.3888
  460MOL0     H62092   7.307  10.389   9.514 -0.7466 -0.5750 -0.6708
  460MOL0     H62093   7.191  10.304   9.609 -0.0458  1.6326  1.1777
  460MOL0     H62094   7.027  10.511   9.587  0.0186  1.6364  3.2013
  460MOL0     H62095   7.166  10.593   9.503 -1.9331  2.6057  0.6802
  460MOL0     H62096   7.155  10.489   9.786 -0.2743  2.4272  1.3757
  460MOL0     H62097   7.160  10.656   9.755  0.3615 -1.8997  4.5002
  460MOL0     H62098   7.563  10.614   9.667 -0.3273  0.9288  0.4728
  460MOL0     H62099   7.111  10.104   9.539 -0.7223  1.2920 -2.4041
  460MOL0     H62100   7.024   9.964   9.712  0.9457 -0.3853 -1.9844
  461MOL0     O62101   8.324  11.080   2.843 -0.2405  0.9146  0.0337
  461MOL0     C62102   8.438  11.117   2.837  1.2589  0.0207  0.5588
  461MOL0     O62103   8.539  11.067   2.750  0.2493 -0.9002 -0.1320
  461MOL0     C62104   8.505  11.026   2.622 -0.3869  0.8070  0.9323
  461MOL0     C62105   8.514  10.899   2.567 -0.1830  0.0384 -0.2138
  461MOL0     C62106   8.481  10.872   2.438 -0.8949 -0.0843  0.1479
  461MOL0     C62107   8.434  10.973   2.354 -1.0300 -0.1198 -1.0230
  461MOL0     O62108   8.403  10.957   2.223  0.0147 -0.3296  0.2432
  461MOL0     C62109   8.417  10.835   2.149  0.2782  0.3790 -0.3769
  461MOL0     C62110   8.394  10.850   1.994  0.3048  1.0108 -0.0575
  461MOL0     C62111   8.419  10.716   1.914  0.3312  0.0253 -0.6450
  461MOL0     C62112   8.453  10.738   1.765  0.2377 -1.0695  1.1622
  461MOL0     C62113   8.378  10.655   1.661 -0.5166  0.3716 -0.1387
  461MOL0     C62114   8.238  10.694   1.622  0.0306  0.7199 -0.7055
  461MOL0     C62115   8.163  10.600   1.527 -0.2406 -0.0621 -0.4716
  461MOL0     C62116   8.238  10.570   1.392  0.1501  0.1198  0.2956
  461MOL0     N62117   8.248  10.696   1.321  0.3231 -0.2859 -0.1930
  461MOL0     C62118   8.135  10.771   1.275 -1.3126 -0.1579  1.1157
  461MOL0     C62119   8.186  10.881   1.223 -0.3812  0.3198  0.1668
  461MOL0     C62120   8.111  10.982   1.149  0.5391  0.0251 -0.6428
  461MOL0     C62121   8.070  10.933   1.008  0.7888  0.3207 -0.2213
  461MOL0     C62122   8.183  10.935   0.906 -0.3344  0.8868 -0.5624
  461MOL0     C62123   8.132  10.896   0.765 -0.1216 -0.1283  0.3940
  461MOL0     O62124   8.243  10.909   0.669 -0.3930 -0.7801 -0.5436
  461MOL0     C62125   8.342  10.815   0.663  0.0022 -0.2569 -0.7843
  461MOL0     C62126   8.348  10.687   0.723  0.1149 -0.0059  0.5125
  461MOL0     C62127   8.444  10.592   0.684  1.4382 -0.0808 -0.2240
  461MOL0     C62128   8.432  10.461   0.751 -0.4708 -0.3021  0.0247
  461MOL0     C62129   8.539  10.627   0.588 -1.1509 -0.1218 -0.3273
  461MOL0     C62130   8.634  10.527   0.539 -0.3575 -0.3622  0.9052
  461MOL0     O62131   8.623  10.489   0.407  0.0328  0.2395 -0.0623
  461MOL0     C62132   8.708  10.404   0.351  0.7401  0.0457  0.0867
  461MOL0     C62133   8.834  10.446   0.321  0.0591 -0.6654 -1.0445
  461MOL0     C62134   8.914  10.375   0.232  0.2364 -0.5418 -0.1379
  461MOL0     C62135   8.870  10.251   0.182  0.6671  0.0050 -0.1980
  461MOL0     O62136   8.947  10.181   0.094 -0.7865 -1.0043  0.2366
  461MOL0     C62137   9.090  10.170   0.110 -0.1402 -0.4987  0.3903
  461MOL0     C62138   9.168  10.153  -0.024  0.9692  0.4112  0.3295
  461MOL0     C62139   9.122  10.027  -0.099  0.1118 -0.1924 -0.0742
  461MOL0     C62140   9.168   9.895  -0.031  0.2399  1.1962 -0.4209
  461MOL0     C62141   9.128   9.779  -0.124 -0.0188  0.5764  0.0985
  461MOL0     C62142   9.199   9.770  -0.257  0.4242  0.6183  0.5587
  461MOL0     C62143   9.207   9.620  -0.297  0.6680  0.6141  0.9495
  461MOL0     C62144   9.266   9.618  -0.437  0.4185 -0.0153 -0.3705
  461MOL0    Cl62145   9.326   9.449  -0.456 -0.0670  0.2987 -0.1444
  461MOL0     C62146   8.750  10.194   0.225 -1.0112  0.3829 -0.0854
  461MOL0     C62147   8.670  10.275   0.307 -0.2923 -0.3364  0.1717
  461MOL0     O62148   8.719  10.492   0.619  0.1813  0.4180  0.3292
  461MOL0     C62149   8.550  10.763   0.555 -0.0433 -0.2213 -0.1443
  461MOL0     C62150   8.455  10.856   0.596 -0.3560  0.0596 -0.0223
  461MOL0     N62151   8.327  10.866   1.229  0.0671  0.0133 -0.3434
  461MOL0     N62152   8.365  10.759   1.290  1.1346  0.6210  0.0841
  461MOL0     C62153   8.431  11.105   2.402  0.5255  0.3886 -1.0045
  461MOL0     C62154   8.470  11.133   2.537  1.0656 -0.0892  0.4061
  461MOL0     C62155   8.466  11.216   2.939 -1.2804  0.5471  0.3725
  461MOL0     C62156   8.580  11.292   2.924  0.3545 -0.5478 -0.7520
  461MOL0     C62157   8.597  11.398   3.017 -0.8895 -0.0911  0.8670
  461MOL0     C62158   8.518  11.415   3.126  0.1649 -0.2614  0.1914
  461MOL0     O62159   8.522  11.524   3.208  0.4622  0.2490  0.0037
  461MOL0     C62160   8.650  11.591   3.214 -0.3611  1.1281  0.2768
  461MOL0     C62161   8.654  11.685   3.327  0.7822  0.0832 -0.3846
  461MOL0     C62162   8.551  11.798   3.329  0.1554  0.7348  0.2003
  461MOL0     C62163   8.557  11.878   3.459  0.6957  0.0124  0.0095
  461MOL0     C62164   8.420  11.892   3.500  0.1156 -0.6832 -1.1470
  461MOL0     C62165   8.316  11.928   3.549  0.3150  0.7909  0.0341
  461MOL0     C62166   8.421  11.326   3.148  0.0869  0.3143 -0.6805
  461MOL0     C62167   8.387  11.236   3.054  0.3976  0.3610  0.2775
  461MOL0     H62168   8.542  10.807   2.617 -1.5651  0.0170  0.5636
  461MOL0     H62169   8.503  10.775   2.395 -0.3124 -0.0732  0.4088
  461MOL0     H62170   8.510  10.781   2.172  0.8740  1.3932 -0.3566
  461MOL0     H62171   8.331  10.772   2.173 -0.2884  1.3054  0.0415
  461MOL0     H62172   8.291  10.885   1.981 -0.1193 -0.7512 -1.9895
  461MOL0     H62173   8.453  10.933   1.955  1.2528  1.5911  2.4086
  461MOL0     H62174   8.510  10.684   1.966 -1.5974  0.5442  3.3559
  461MOL0     H62175   8.355  10.628   1.928  0.5956  0.3503  4.6555
  461MOL0     H62176   8.428  10.843   1.745 -0.1539 -0.8336  2.7619
  461MOL0     H62177   8.560  10.733   1.742  0.0747 -1.9918  0.5603
  461MOL0     H62178   8.434  10.670   1.569  0.0345  2.2384  0.4735
  461MOL0     H62179   8.370  10.549   1.687 -2.0260  0.2518 -0.9256
  461MOL0     H62180   8.187  10.701   1.719 -1.1791  2.0494 -1.3973
  461MOL0     H62181   8.250  10.792   1.574 -1.0677  0.5823 -1.2973
  461MOL0     H62182   8.143  10.512   1.589  2.5568  0.5903  1.5753
  461MOL0     H62183   8.064  10.635   1.497 -0.3692 -0.8012 -0.9316
  461MOL0     H62184   8.179  10.500   1.332 -0.2987  0.9901 -0.3035
  461MOL0     H62185   8.336  10.525   1.410 -0.6527 -2.3529 -1.0043
  461MOL0     H62186   8.029  10.747   1.276 -1.4813  0.3340 -0.8707
  461MOL0     H62187   8.025  11.009   1.211  0.0247  1.2083 -1.8208
  461MOL0     H62188   8.181  11.065   1.145  0.7240  0.1018  2.1096
  461MOL0     H62189   7.991  11.002   0.978  0.2923 -0.1586 -0.0436
  461MOL0     H62190   8.028  10.832   1.012  0.6808  0.3572 -0.4483
  461MOL0     H62191   8.254  10.855   0.933 -0.1778  1.5117  0.9940
  461MOL0     H62192   8.234  11.032   0.910 -0.4892  0.9450  0.0072
  461MOL0     H62193   8.057  10.971   0.735  0.7886  0.8402  0.4776
  461MOL0     H62194   8.086  10.797   0.762 -0.4396  0.0417 -0.9702
  461MOL0     H62195   8.270  10.653   0.790 -0.2443 -0.4933 -0.1400
  461MOL0     H62196   8.394  10.392   0.675 -0.2433  1.2761 -1.6003
  461MOL0     H62197   8.530  10.418   0.773 -1.0319 -1.6338  0.0040
  461MOL0     H62198   8.365  10.455   0.838  1.0113  0.3046  1.2424
  461MOL0     H62199   8.875  10.537   0.363  2.5683 -2.6598  1.1844
  461MOL0     H62200   9.010  10.424   0.214 -0.5251  0.7097 -0.9403
  461MOL0     H62201   9.138  10.256   0.159  1.9854 -1.1539 -0.4020
  461MOL0     H62202   9.117  10.087   0.176  0.0078 -1.7035 -1.1269
  461MOL0     H62203   9.154  10.235  -0.095 -2.0764 -1.1826 -1.0863
  461MOL0     H62204   9.277  10.148  -0.014  1.1141 -2.3988 -1.4703
  461MOL0     H62205   9.158  10.011  -0.201  0.7565 -0.5634  0.2081
  461MOL0     H62206   9.013  10.034  -0.094  0.1108 -0.9103  2.3274
  461MOL0     H62207   9.273   9.904  -0.002  0.3004  1.4522 -0.7071
  461MOL0     H62208   9.118   9.876   0.064  2.0903  0.1777  0.4096
  461MOL0     H62209   9.022   9.780  -0.149 -0.0706 -1.1326  0.1290
  461MOL0     H62210   9.143   9.682  -0.074  0.8303 -0.3949 -1.9331
  461MOL0     H62211   9.154   9.840  -0.328  4.2148  0.9034 -1.8389
  461MOL0     H62212   9.303   9.803  -0.246  0.7218 -0.6552  1.8913
  461MOL0     H62213   9.111   9.569  -0.287  0.3736  0.3925 -2.0230
  461MOL0     H62214   9.272   9.574  -0.222 -0.5594 -0.4249  1.4034
  461MOL0     H62215   9.348   9.689  -0.441  3.3052 -2.8033  2.9020
  461MOL0     H62216   9.186   9.622  -0.512  0.5683 -1.5236 -0.6534
  461MOL0     H62217   8.714  10.101   0.182 -1.3891  1.6981 -2.8407
  461MOL0     H62218   8.565  10.257   0.329 -0.2206 -0.7212  0.2012
  461MOL0     H62219   8.634  10.790   0.491 -0.7050  0.2660 -0.8177
  461MOL0     H62220   8.469  10.958   0.561 -0.5045 -0.8598 -3.0995
  461MOL0     H62221   8.417  11.186   2.331  4.3341  0.0130 -2.4648
  461MOL0     H62222   8.448  11.236   2.564  2.1097  1.6071 -4.3024
  461MOL0     H62223   8.645  11.283   2.837  2.5173 -2.3301  0.9368
  461MOL0     H62224   8.693  11.443   2.996 -0.2234 -1.2699  1.2768
  461MOL0     H62225   8.739  11.529   3.227 -0.2336  1.0567 -0.8186
  461MOL0     H62226   8.668  11.649   3.123  0.9481 -1.1124 -0.9667
  461MOL0     H62227   8.755  11.726   3.321  0.3540  1.3635  0.7278
  461MOL0     H62228   8.647  11.619   3.413  1.4074  1.1280  0.4942
  461MOL0     H62229   8.450  11.756   3.321 -0.3928  1.3367  2.7994
  461MOL0     H62230   8.551  11.861   3.240 -0.3507  2.3589  1.2906
  461MOL0     H62231   8.604  11.976   3.442 -2.4139  1.9072  1.3523
  461MOL0     H62232   8.603  11.819   3.539 -1.0232 -2.4475 -0.7270
  461MOL0     H62233   8.223  11.950   3.598 -1.2873  2.7734 -3.5425
  461MOL0     H62234   8.351  11.336   3.231  1.1904 -0.8407  0.4249
  461MOL0     H62235   8.299  11.172   3.062  2.4464 -3.0605 -1.9037
  462MOL0     O62236  10.034   7.896   8.631  0.0232  0.0544  0.6240
  462MOL0     C62237  10.023   7.789   8.586  0.6644  0.1497  0.6846
  462MOL0     O62238   9.904   7.717   8.575  0.0701  0.0983  0.0830
  462MOL0     C62239   9.786   7.785   8.581 -0.9808 -0.3027 -0.4269
  462MOL0     C62240   9.695   7.755   8.679 -0.3008 -0.5722  0.4320
  462MOL0     C62241   9.573   7.823   8.686 -0.8004  0.5784 -0.0881
  462MOL0     C62242   9.542   7.921   8.596  0.5157  0.0642  0.1634
  462MOL0     O62243   9.427   7.993   8.615 -0.0538  0.1475  0.1288
  462MOL0     C62244   9.448   8.130   8.654  0.1120 -0.0947 -0.0109
  462MOL0     C62245   9.308   8.197   8.652 -1.1208  0.5910 -0.1985
  462MOL0     C62246   9.274   8.247   8.508 -0.4860 -0.0825 -0.2179
  462MOL0     C62247   9.138   8.183   8.461  0.0624 -0.5622  1.0664
  462MOL0     C62248   9.100   8.237   8.315 -1.2666  0.1209  0.2691
  462MOL0     C62249   8.989   8.162   8.252  0.3225 -1.1216  1.0499
  462MOL0     C62250   8.860   8.193   8.326  0.8919  0.0589 -0.2698
  462MOL0     C62251   8.818   8.081   8.429  0.1495  0.8318 -0.1412
  462MOL0     N62252   8.676   8.094   8.478 -0.1832  0.2926  0.6119
  462MOL0     C62253   8.628   8.170   8.581 -0.0430  0.3326 -0.5964
  462MOL0     C62254   8.500   8.137   8.598 -0.3583 -0.2577 -0.9002
  462MOL0     C62255   8.408   8.201   8.703  0.5706  0.2693 -0.1791
  462MOL0     C62256   8.259   8.193   8.658  0.0302  0.6933  0.2643
  462MOL0     C62257   8.182   8.293   8.746  0.3807  0.1729  0.0117
  462MOL0     C62258   8.030   8.274   8.718 -0.3025  0.0757  0.3699
  462MOL0     O62259   7.990   8.258   8.571 -0.1559  0.0506  0.7449
  462MOL0     C62260   7.977   8.372   8.502  0.8552 -0.0035 -0.6431
  462MOL0     C62261   7.848   8.416   8.464  0.0263 -0.4568 -0.6039
  462MOL0     C62262   7.840   8.546   8.413  0.0656  0.6226  0.5196
  462MOL0     C62263   7.701   8.603   8.394  0.3517  0.4464  0.2582
  462MOL0     C62264   7.955   8.619   8.358 -0.5070  0.3889 -0.6574
  462MOL0     C62265   7.943   8.725   8.268  0.3311 -0.3219  0.5916
  462MOL0     O62266   8.033   8.821   8.300 -0.7334 -0.0653 -0.9585
  462MOL0     C62267   8.023   8.930   8.210  0.2973  0.2653  0.6142
  462MOL0     C62268   7.915   9.020   8.201  0.4847  0.2250  0.1820
  462MOL0     C62269   7.906   9.115   8.089  0.5639  0.2279 -0.4840
  462MOL0     C62270   8.005   9.104   7.986  0.2398 -0.0380  0.3685
  462MOL0     O62271   8.008   9.189   7.877 -0.6893 -0.2788  0.5674
  462MOL0     C62272   7.894   9.215   7.808  0.3585 -1.0025 -0.1879
  462MOL0     C62273   7.838   9.362   7.830 -1.4367 -0.2128  0.8351
  462MOL0     C62274   7.686   9.366   7.793  0.1748  0.0403  0.4817
  462MOL0     C62275   7.664   9.347   7.646 -0.5731 -0.5318  0.8542
  462MOL0     C62276   7.513   9.322   7.610  0.2616  0.6621 -0.3149
  462MOL0     C62277   7.431   9.445   7.647 -0.3629 -0.7048  0.0869
  462MOL0     C62278   7.286   9.438   7.600  0.0032  0.5727  1.6330
  462MOL0     C62279   7.272   9.401   7.447 -0.3253 -0.0006 -0.5093
  462MOL0    Cl62280   7.106   9.436   7.384  0.3509  0.2753 -0.0117
  462MOL0     C62281   8.108   9.016   7.997  0.4514  0.7581  0.1437
  462MOL0     C62282   8.127   8.933   8.107 -0.0103  0.2841 -0.5599
  462MOL0     O62283   7.867   8.725   8.172 -0.1275 -0.3666  0.4439
  462MOL0     C62284   8.083   8.567   8.404  0.1990  0.2881  0.5059
  462MOL0     C62285   8.089   8.444   8.465  0.3620  0.4345  0.3836
  462MOL0     N62286   8.464   8.042   8.500  0.6595 -1.6418 -0.0855
  462MOL0     N62287   8.563   8.032   8.421 -0.5554 -0.0419  0.3684
  462MOL0     C62288   9.616   7.943   8.482 -0.5756  0.1087 -0.2753
  462MOL0     C62289   9.744   7.879   8.477 -0.3754 -0.5738 -0.0939
  462MOL0     C62290  10.150   7.727   8.546  0.4096  0.6228 -0.3865
  462MOL0     C62291  10.155   7.616   8.460 -0.1043 -1.0613  0.3656
  462MOL0     C62292  10.273   7.559   8.410  0.1266 -0.2173 -0.2281
  462MOL0     C62293  10.398   7.600   8.451 -0.1827 -0.0942  0.7568
  462MOL0     O62294  10.511   7.549   8.390  1.0042 -0.0193  0.1678
  462MOL0     C62295  10.636   7.579   8.447  0.6651  0.1847  0.6358
  462MOL0     C62296  10.733   7.495   8.359  0.4754 -0.9091 -0.4554
  462MOL0     C62297  10.876   7.550   8.376  0.3340 -0.3676 -0.4605
  462MOL0     C62298  10.953   7.475   8.262  0.7307 -0.7912  0.0526
  462MOL0     C62299  10.967   7.332   8.283 -0.1721 -0.2165 -1.2221
  462MOL0     C62300  10.975   7.215   8.306  0.0989  0.0429 -0.1435
  462MOL0     C62301  10.398   7.702   8.548 -0.3477 -0.6365  0.5772
  462MOL0     C62302  10.276   7.768   8.594  0.7312 -0.4396 -0.2605
  462MOL0     H62303   9.738   7.691   8.755  1.3284 -0.6342 -0.5091
  462MOL0     H62304   9.502   7.820   8.768 -1.1685  1.2929 -0.3713
  462MOL0     H62305   9.494   8.115   8.752  1.7129  1.0577 -0.5495
  462MOL0     H62306   9.520   8.190   8.597  0.0926  1.2994  1.3506
  462MOL0     H62307   9.233   8.123   8.681 -2.3787  2.9078  2.8949
  462MOL0     H62308   9.296   8.277   8.724 -0.3770  0.4774  0.0625
  462MOL0     H62309   9.272   8.356   8.521  1.8988 -0.1498  1.3846
  462MOL0     H62310   9.354   8.219   8.440 -0.8453  1.7097 -1.4531
  462MOL0     H62311   9.154   8.076   8.476 -0.8946 -0.6337  1.6597
  462MOL0     H62312   9.060   8.205   8.535  1.8459  0.3228  2.7890
  462MOL0     H62313   9.077   8.343   8.325  1.8384  0.6777  4.3061
  462MOL0     H62314   9.188   8.225   8.251 -1.5952  1.1598 -0.4006
  462MOL0     H62315   8.973   8.208   8.154 -1.7623 -0.0137  1.8356
  462MOL0     H62316   9.010   8.057   8.233  1.1457 -0.6202 -1.1144
  462MOL0     H62317   8.859   8.293   8.370 -1.4497 -0.9332  2.2166
  462MOL0     H62318   8.772   8.194   8.261  0.3976 -1.8363  0.3116
  462MOL0     H62319   8.873   8.077   8.523  0.6220  0.3224 -0.4302
  462MOL0     H62320   8.831   7.981   8.386  1.7771  0.6633  0.6908
  462MOL0     H62321   8.679   8.242   8.644 -0.1164  0.2624 -0.4558
  462MOL0     H62322   8.429   8.149   8.796  4.1261  2.5411  0.4917
  462MOL0     H62323   8.430   8.308   8.705 -0.6391  0.5549 -1.0065
  462MOL0     H62324   8.212   8.095   8.668  0.2933  0.6076  0.7091
  462MOL0     H62325   8.268   8.212   8.550 -0.5223 -0.0543  0.0842
  462MOL0     H62326   8.213   8.398   8.737 -0.5294  0.3182 -1.9898
  462MOL0     H62327   8.185   8.260   8.850  0.0847  0.8462  0.2392
  462MOL0     H62328   7.982   8.366   8.753  0.5469  1.0345 -0.8956
  462MOL0     H62329   7.987   8.190   8.773 -1.8447  1.6167  1.6753
  462MOL0     H62330   7.764   8.352   8.489 -0.0815  0.2074  0.8500
  462MOL0     H62331   7.640   8.583   8.483 -1.9461 -0.4953 -1.4200
  462MOL0     H62332   7.709   8.710   8.373  0.1980  0.8058  1.9496
  462MOL0     H62333   7.651   8.542   8.318  0.1545  0.1645  0.6100
  462MOL0     H62334   7.832   9.014   8.271 -0.0597  1.3357 -0.3557
  462MOL0     H62335   7.830   9.192   8.091  0.0852 -0.2469  0.0915
  462MOL0     H62336   7.916   9.205   7.702  0.6396 -0.1862 -0.2143
  462MOL0     H62337   7.819   9.139   7.831  0.3324 -0.6648  0.9030
  462MOL0     H62338   7.851   9.396   7.933 -1.1348 -0.0222  0.7333
  462MOL0     H62339   7.884   9.434   7.762 -1.6465 -2.2284 -1.5522
  462MOL0     H62340   7.651   9.458   7.839  1.3847  1.6697 -1.6730
  462MOL0     H62341   7.618   9.286   7.825 -1.0321  0.1412 -1.6629
  462MOL0     H62342   7.706   9.432   7.590  0.8533 -1.7312  0.0537
  462MOL0     H62343   7.720   9.261   7.610 -0.8895  0.9383 -3.7791
  462MOL0     H62344   7.467   9.240   7.666 -0.7182  0.4253 -1.4368
  462MOL0     H62345   7.495   9.296   7.506  2.7269 -1.3930 -0.3042
  462MOL0     H62346   7.441   9.468   7.754  2.2862 -2.1731  0.2602
  462MOL0     H62347   7.471   9.527   7.587  0.4288 -1.3650 -0.3158
  462MOL0     H62348   7.237   9.536   7.610  0.1877  0.6814  1.4728
  462MOL0     H62349   7.231   9.371   7.665  1.0382 -1.6703  0.3214
  462MOL0     H62350   7.297   9.298   7.420 -2.7461 -0.3232 -1.8262
  462MOL0     H62351   7.348   9.463   7.397  2.5673 -1.9800  1.1783
  462MOL0     H62352   8.174   9.009   7.911 -1.4474  3.4303 -1.7236
  462MOL0     H62353   8.215   8.869   8.109  0.6595  1.1772  0.9953
  462MOL0     H62354   8.165   8.635   8.386  1.0369 -1.4721 -3.6205
  462MOL0     H62355   8.187   8.408   8.495 -0.1328 -1.4433 -0.0968
  462MOL0     H62356   9.591   8.014   8.403  0.3168  3.1936  2.0133
  462MOL0     H62357   9.813   7.897   8.394  0.7252 -1.4520  0.5947
  462MOL0     H62358  10.058   7.585   8.422 -0.8543  1.1401  0.3228
  462MOL0     H62359  10.282   7.471   8.348 -0.2059  1.0466 -2.1229
  462MOL0     H62360  10.648   7.687   8.435  1.7855 -0.1305 -1.5583
  462MOL0     H62361  10.648   7.547   8.550 -1.9388  0.1831  1.0163
  462MOL0     H62362  10.711   7.509   8.253  0.4553  0.9279 -0.2529
  462MOL0     H62363  10.725   7.392   8.395  0.2029 -0.0770  2.0951
  462MOL0     H62364  10.908   7.524   8.478 -0.4614  0.0054 -0.1008
  462MOL0     H62365  10.875   7.658   8.362 -1.6953  0.1097  2.3151
  462MOL0     H62366  11.057   7.509   8.262  0.9193 -1.2765 -1.4250
  462MOL0     H62367  10.904   7.495   8.166 -0.7499  1.1064  1.1352
  462MOL0     H62368  10.970   7.112   8.335  2.4556 -0.3181 -0.8353
  462MOL0     H62369  10.488   7.745   8.593  0.8743 -2.8517  0.3954
  462MOL0     H62370  10.289   7.853   8.661  0.4363 -1.3146  0.9434
  463MOL0     O62371   1.799   4.147   2.502 -0.4781 -0.7076  0.0548
  463MOL0     C62372   1.718   4.204   2.433  0.1034 -1.0210  0.3691
  463MOL0     O62373   1.740   4.289   2.329  0.2417 -0.1902 -0.0597
  463MOL0     C62374   1.870   4.332   2.327  0.8626 -1.5933  1.1834
  463MOL0     C62375   1.961   4.301   2.224 -0.0670 -0.1361 -0.1359
  463MOL0     C62376   2.091   4.350   2.222  1.2774 -0.7260 -0.0239
  463MOL0     C62377   2.144   4.436   2.328  0.1802 -0.8401  0.4651
  463MOL0     O62378   2.267   4.489   2.302  0.2947 -0.1649  0.1404
  463MOL0     C62379   2.306   4.615   2.365  0.0190 -0.6762 -0.5355
  463MOL0     C62380   2.459   4.634   2.345  0.3149  0.2683  0.0557
  463MOL0     C62381   2.480   4.788   2.383 -0.2470  0.1154 -0.1129
  463MOL0     C62382   2.627   4.832   2.362  0.4168  1.6018 -1.3347
  463MOL0     C62383   2.722   4.731   2.441  0.3349  1.1412  0.3162
  463MOL0     C62384   2.873   4.786   2.465 -0.2224  1.2532 -0.0254
  463MOL0     C62385   2.954   4.679   2.552 -0.3818 -0.5468 -0.1497
  463MOL0     C62386   3.105   4.710   2.565  0.0475 -0.0146 -0.1935
  463MOL0     N62387   3.145   4.827   2.646 -0.7100 -0.2911 -0.6090
  463MOL0     C62388   3.125   4.963   2.617  0.0295  0.3641  0.1998
  463MOL0     C62389   3.152   5.023   2.733 -0.1744  0.1172 -0.6089
  463MOL0     C62390   3.170   5.171   2.753 -0.0849  0.0022 -1.1644
  463MOL0     C62391   3.130   5.268   2.630  1.1295  0.5464 -0.7006
  463MOL0     C62392   3.110   5.402   2.664 -0.5129  0.5019 -0.0868
  463MOL0     C62393   3.148   5.495   2.552  0.3975 -0.6598  0.0535
  463MOL0     O62394   3.290   5.488   2.538 -0.8068  0.5494  1.2947
  463MOL0     C62395   3.345   5.558   2.430  0.0668  0.1820  0.0764
  463MOL0     C62396   3.381   5.695   2.453 -0.3949 -0.8629  0.3271
  463MOL0     C62397   3.454   5.769   2.358  0.5614 -1.1224 -0.1532
  463MOL0     C62398   3.511   5.902   2.408  0.3297 -0.4983 -0.2276
  463MOL0     C62399   3.491   5.706   2.234  0.4590 -0.2200  0.5442
  463MOL0     C62400   3.574   5.768   2.123  0.3483 -1.2112  0.1489
  463MOL0     O62401   3.601   5.695   2.015 -0.1389  0.9881 -0.9048
  463MOL0     C62402   3.674   5.746   1.917  0.9767 -0.1497 -1.3413
  463MOL0     C62403   3.631   5.692   1.799 -0.5972 -0.2348 -0.0292
  463MOL0     C62404   3.698   5.730   1.682  0.2773  1.3868 -0.0707
  463MOL0     C62405   3.789   5.829   1.678  0.0388 -0.1977 -0.4749
  463MOL0     O62406   3.830   5.859   1.551  0.9796  0.1299  0.7408
  463MOL0     C62407   3.968   5.898   1.523  0.1857 -0.6203  0.5802
  463MOL0     C62408   3.983   6.030   1.457 -0.1353 -0.6365  0.6962
  463MOL0     C62409   4.080   6.124   1.531  0.2892 -0.0348 -0.1983
  463MOL0     C62410   4.223   6.074   1.559  0.0564  0.5305 -0.1591
  463MOL0     C62411   4.311   6.173   1.631  0.0803  0.2976 -0.7819
  463MOL0     C62412   4.277   6.224   1.773  0.0057  0.1842 -0.6356
  463MOL0     C62413   4.291   6.107   1.874  0.0509  0.9946  0.8692
  463MOL0     C62414   4.245   6.140   2.021 -0.7033 -0.7012  0.2026
  463MOL0    Cl62415   4.072   6.143   2.024 -0.4510 -0.6843  0.1602
  463MOL0     C62416   3.830   5.891   1.793  0.0671  0.6132  0.1045
  463MOL0     C62417   3.779   5.849   1.915  0.2319 -0.4215 -0.3412
  463MOL0     O62418   3.597   5.887   2.135 -0.3426 -0.0141  0.2461
  463MOL0     C62419   3.443   5.578   2.205  0.7880  0.1048 -0.2280
  463MOL0     C62420   3.377   5.504   2.305  0.2776 -0.2014  0.4951
  463MOL0     N62421   3.190   4.932   2.827 -0.2026  0.4415 -0.0594
  463MOL0     N62422   3.176   4.813   2.779  0.5855 -0.0157 -0.0469
  463MOL0     C62423   2.055   4.464   2.434  0.0340 -0.4791  0.8852
  463MOL0     C62424   1.914   4.419   2.431  0.5077 -0.6150  0.7153
  463MOL0     C62425   1.576   4.177   2.470 -0.6906 -0.7375  0.0167
  463MOL0     C62426   1.467   4.248   2.413 -0.4444 -0.6858 -0.3710
  463MOL0     C62427   1.335   4.237   2.455  0.6008 -0.1151  0.2163
  463MOL0     C62428   1.310   4.165   2.568 -0.0465  0.6712  0.6975
  463MOL0     O62429   1.190   4.137   2.609  0.2704  0.6280  0.1867
  463MOL0     C62430   1.085   4.229   2.567 -0.2309  0.0027  0.2184
  463MOL0     C62431   0.954   4.183   2.627 -0.1228 -0.0836 -0.2477
  463MOL0     C62432   0.967   4.166   2.780 -0.5737  0.9736 -1.0450
  463MOL0     C62433   0.825   4.155   2.837  0.0958 -0.4498 -0.3497
  463MOL0     C62434   0.761   4.033   2.788 -1.0911 -0.9623 -0.0130
  463MOL0     C62435   0.713   3.923   2.751  0.4550 -0.1203  0.5704
  463MOL0     C62436   1.419   4.097   2.637  0.4725 -0.6342 -0.4929
  463MOL0     C62437   1.545   4.112   2.584  0.0649  0.6375 -0.3501
  463MOL0     H62438   1.921   4.243   2.141  0.4352  0.1706 -0.5935
  463MOL0     H62439   2.159   4.332   2.139  0.0691 -3.2854 -0.5697
  463MOL0     H62440   2.248   4.695   2.317  1.9118  0.1836 -1.4698
  463MOL0     H62441   2.281   4.630   2.471  1.3883  0.0330 -0.2936
  463MOL0     H62442   2.510   4.576   2.422  0.0876 -2.2220 -1.5600
  463MOL0     H62443   2.486   4.599   2.245 -3.3336 -0.3485 -0.8789
  463MOL0     H62444   2.415   4.849   2.320 -0.4149 -0.7013 -0.7340
  463MOL0     H62445   2.459   4.815   2.487 -0.0197 -0.5001  0.0938
  463MOL0     H62446   2.647   4.827   2.255 -0.8923  1.5181 -1.5865
  463MOL0     H62447   2.637   4.933   2.402 -1.3208  1.0079  0.7563
  463MOL0     H62448   2.670   4.699   2.532 -0.4411  0.4636 -0.3392
  463MOL0     H62449   2.734   4.648   2.371  0.8148  0.4945  1.1479
  463MOL0     H62450   2.922   4.802   2.368  0.5975 -0.7794 -0.0040
  463MOL0     H62451   2.870   4.877   2.525 -2.2919  0.5342  1.0709
  463MOL0     H62452   2.910   4.679   2.652 -1.0745  3.9309 -0.2661
  463MOL0     H62453   2.945   4.580   2.506  0.7643 -0.0504 -1.5269
  463MOL0     H62454   3.158   4.720   2.470  1.5215  0.5696  0.6441
  463MOL0     H62455   3.145   4.626   2.622  1.0021  2.7276  3.5507
  463MOL0     H62456   3.102   5.003   2.518  0.3332 -3.1265 -1.4318
  463MOL0     H62457   3.126   5.193   2.851  2.6063 -3.1367  0.9565
  463MOL0     H62458   3.277   5.191   2.745 -0.0111  0.7444  0.9711
  463MOL0     H62459   3.035   5.228   2.594  2.7845 -2.5061 -2.0313
  463MOL0     H62460   3.207   5.261   2.553  2.4657  2.3886  0.3853
  463MOL0     H62461   3.163   5.416   2.759  1.1859 -1.7274 -0.6163
  463MOL0     H62462   3.002   5.414   2.675 -0.6327 -0.1446 -0.5062
  463MOL0     H62463   3.118   5.596   2.581 -1.6107 -2.0463  3.4021
  463MOL0     H62464   3.095   5.470   2.460  2.3766 -0.6730 -1.1497
  463MOL0     H62465   3.364   5.747   2.548 -1.5364  2.7379 -1.6363
  463MOL0     H62466   3.619   5.893   2.425  0.7314  2.2431 -0.9493
  463MOL0     H62467   3.477   5.987   2.349 -3.2374 -1.5797  0.0216
  463MOL0     H62468   3.477   5.915   2.511  2.9486 -2.0038  0.9093
  463MOL0     H62469   3.552   5.618   1.804 -0.1495 -1.1753 -3.6584
  463MOL0     H62470   3.671   5.690   1.585  0.5454  1.0718 -0.0179
  463MOL0     H62471   4.033   5.884   1.610 -1.8086 -0.8151  2.0922
  463MOL0     H62472   4.000   5.822   1.451 -0.2511  1.3150 -1.8053
  463MOL0     H62473   4.024   6.014   1.357  1.0389 -1.4760  1.2836
  463MOL0     H62474   3.882   6.071   1.453  0.1074 -0.1368 -0.3147
  463MOL0     H62475   4.032   6.158   1.623 -1.2944  0.3056 -1.1058
  463MOL0     H62476   4.103   6.214   1.473 -0.2728  3.3721  4.3519
  463MOL0     H62477   4.217   5.978   1.612  2.4061 -1.9113 -3.8649
  463MOL0     H62478   4.274   6.042   1.468  0.8973 -2.2617  1.1732
  463MOL0     H62479   4.330   6.260   1.567  1.7145  1.7651  1.5444
  463MOL0     H62480   4.402   6.117   1.650 -2.2121 -3.3435  0.3789
  463MOL0     H62481   4.348   6.296   1.815  0.0872 -0.8218  1.0258
  463MOL0     H62482   4.182   6.278   1.782  0.8052  1.7018 -0.9462
  463MOL0     H62483   4.396   6.078   1.882  0.7250  2.3803 -1.8603
  463MOL0     H62484   4.226   6.022   1.849 -1.6534  1.2979  3.8439
  463MOL0     H62485   4.286   6.237   2.052  2.2378 -2.2980  1.7216
  463MOL0     H62486   4.277   6.068   2.097 -0.7531 -3.1563 -1.9651
  463MOL0     H62487   3.891   5.980   1.793  0.8455  0.1433  2.4086
  463MOL0     H62488   3.804   5.885   2.014 -2.2867  0.8068 -0.0774
  463MOL0     H62489   3.479   5.524   2.118 -1.0053  0.4597 -1.2345
  463MOL0     H62490   3.338   5.404   2.287 -0.3190 -0.1822  1.5803
  463MOL0     H62491   2.086   4.525   2.518  3.2295  0.1919 -0.5975
  463MOL0     H62492   1.848   4.448   2.513 -0.8734 -1.4474 -0.0671
  463MOL0     H62493   1.490   4.310   2.327 -1.0635  1.3034  0.8427
  463MOL0     H62494   1.263   4.288   2.391 -0.0837 -4.0734 -2.5382
  463MOL0     H62495   1.101   4.330   2.606 -2.4098  0.4445  0.0797
  463MOL0     H62496   1.073   4.229   2.458  0.7212 -0.8036  0.0995
  463MOL0     H62497   0.947   4.087   2.574  0.6631 -0.6348  0.6181
  463MOL0     H62498   0.886   4.267   2.607  2.1129  1.5526 -1.3720
  463MOL0     H62499   1.026   4.252   2.811  0.7071  0.4008 -1.8147
  463MOL0     H62500   1.022   4.078   2.813  2.4057  3.2419  0.4987
  463MOL0     H62501   0.768   4.245   2.810  2.0898  0.6595 -1.0179
  463MOL0     H62502   0.827   4.155   2.946  0.3657  0.8873 -0.3396
  463MOL0     H62503   0.665   3.842   2.700  2.0342  0.4051 -1.9188
  463MOL0     H62504   1.410   4.051   2.735  0.6299  2.5179  1.1517
  463MOL0     H62505   1.611   4.051   2.646 -2.1691 -0.3154  1.2231
  464MOL0     O62506   0.997   3.294  10.900 -0.3945 -0.1255  0.2232
  464MOL0     C62507   1.061   3.275  10.799 -0.9359 -0.8256  0.1534
  464MOL0     O62508   1.020   3.188  10.703 -0.1655 -0.2319 -0.0076
  464MOL0     C62509   0.917   3.097  10.722 -0.3466 -0.3255  0.6064
  464MOL0     C62510   0.941   2.959  10.736 -0.1591  0.9748 -0.5328
  464MOL0     C62511   0.836   2.872  10.730  0.6810  0.4862  0.2975
  464MOL0     C62512   0.707   2.921  10.711 -0.5763 -1.4632 -0.6475
  464MOL0     O62513   0.593   2.841  10.699  0.0958  0.1091 -0.4534
  464MOL0     C62514   0.546   2.798  10.826  0.2729 -0.0060  0.7298
  464MOL0     C62515   0.535   2.644  10.819  0.0286  0.1385 -0.4480
  464MOL0     C62516   0.502   2.586  10.965 -0.7199  0.8278  0.1417
  464MOL0     C62517   0.464   2.434  10.969  0.9403 -0.4852 -0.3494
  464MOL0     C62518   0.505   2.369  11.098 -0.7182  0.2402 -0.3733
  464MOL0     C62519   0.436   2.445  11.213 -0.1603 -0.1303  0.6234
  464MOL0     C62520   0.434   2.356  11.339 -0.6017 -0.2673  0.4746
  464MOL0     C62521   0.387   2.449  11.455 -0.0929 -0.4413  0.0712
  464MOL0     N62522   0.390   2.391  11.592 -1.3662  0.3473 -0.3139
  464MOL0     C62523   0.309   2.279  11.634 -0.5084 -0.0630  0.4396
  464MOL0     C62524   0.340   2.278  11.763 -0.9968 -0.2395 -1.1927
  464MOL0     C62525   0.270   2.178  11.865  0.2595 -0.1974 -0.1609
  464MOL0     C62526   0.115   2.197  11.901 -0.5053 -0.2623  0.1223
  464MOL0     C62527   0.061   2.339  11.891  0.0694  0.2499  0.3096
  464MOL0     C62528  -0.086   2.354  11.934  0.7048  0.4733 -0.2526
  464MOL0     O62529  -0.175   2.312  11.836  0.9388  0.1726  0.0872
  464MOL0     C62530  -0.309   2.319  11.855  0.4759  0.6867  0.6214
  464MOL0     C62531  -0.393   2.280  11.746  0.0975 -0.5678  1.7042
  464MOL0     C62532  -0.529   2.276  11.746 -0.3976 -0.2804  0.6678
  464MOL0     C62533  -0.607   2.240  11.623 -0.3368 -1.1988 -0.3306
  464MOL0     C62534  -0.596   2.333  11.860  0.4167 -0.3429  0.4317
  464MOL0     C62535  -0.747   2.360  11.872 -1.6946  1.1394 -0.0132
  464MOL0     O62536  -0.830   2.306  11.781  0.6206 -0.6425  0.5398
  464MOL0     C62537  -0.957   2.349  11.780  0.5556  0.4811  0.3218
  464MOL0     C62538  -1.003   2.422  11.673  0.5200  1.0106 -0.0462
  464MOL0     C62539  -1.140   2.463  11.668 -0.0474 -0.0182 -0.2042
  464MOL0     C62540  -1.235   2.415  11.761 -0.5915  1.4581  0.3669
  464MOL0     O62541  -1.366   2.416  11.739  0.7737 -0.3656  0.6535
  464MOL0     C62542  -1.425   2.528  11.810 -0.3588  0.0342  0.7187
  464MOL0     C62543  -1.555   2.580  11.741 -1.8160 -0.7799  0.1988
  464MOL0     C62544  -1.645   2.669  11.835  0.5184  0.4229  0.3464
  464MOL0     C62545  -1.757   2.570  11.889 -0.1302  0.6184 -0.0146
  464MOL0     C62546  -1.865   2.625  11.986  0.0729  0.5037 -0.2253
  464MOL0     C62547  -1.986   2.516  12.001  0.1776 -0.1194 -0.6112
  464MOL0     C62548  -2.094   2.574  12.092  0.0624 -0.8062 -0.0284
  464MOL0     C62549  -2.193   2.476  12.122 -0.1435  0.2081  0.6660
  464MOL0    Cl62550  -2.290   2.433  11.973  0.1909 -0.0879 -0.1380
  464MOL0     C62551  -1.185   2.336  11.868  0.1188 -0.3069 -0.1306
  464MOL0     C62552  -1.050   2.311  11.874 -0.2957  0.1913  0.5363
  464MOL0     O62553  -0.779   2.430  11.967 -0.3425  0.0399 -0.0217
  464MOL0     C62554  -0.513   2.378  11.960  0.1651  0.5602 -1.0383
  464MOL0     C62555  -0.373   2.368  11.966  0.6637 -0.6783 -0.0831
  464MOL0     N62556   0.423   2.380  11.799  0.7949  0.2289  0.5083
  464MOL0     N62557   0.446   2.446  11.696 -0.5746  0.4155  0.3151
  464MOL0     C62558   0.685   3.060  10.707 -1.1147  0.0538 -1.0511
  464MOL0     C62559   0.784   3.153  10.714 -0.6938  0.6896 -0.5538
  464MOL0     C62560   1.192   3.352  10.771 -0.9287 -0.2701  0.5381
  464MOL0     C62561   1.246   3.438  10.866  0.2562  0.5772 -0.1707
  464MOL0     C62562   1.366   3.503  10.841  0.1420  0.0740  0.5357
  464MOL0     C62563   1.443   3.481  10.732 -0.2351 -0.7590 -0.0344
  464MOL0     O62564   1.564   3.543  10.716  0.2811 -0.5433 -0.4025
  464MOL0     C62565   1.658   3.531  10.824  0.8543  1.1418 -0.0696
  464MOL0     C62566   1.707   3.668  10.844  0.7419  0.2357 -0.1212
  464MOL0     C62567   1.834   3.653  10.931  0.1191  0.0836  0.6751
  464MOL0     C62568   1.921   3.784  10.975 -0.2692 -0.2496  0.0067
  464MOL0     C62569   1.965   3.851  10.859 -0.8109 -0.1737  0.2975
  464MOL0     C62570   2.008   3.914  10.761  0.2897  0.8962 -0.6940
  464MOL0     C62571   1.391   3.397  10.631  0.3892 -0.4180 -0.0267
  464MOL0     C62572   1.267   3.333  10.649  0.3851 -0.0733 -0.6301
  464MOL0     H62573   1.044   2.927  10.747 -1.0586 -1.3793  2.6252
  464MOL0     H62574   0.856   2.767  10.748  1.1238  0.5100 -0.0456
  464MOL0     H62575   0.613   2.831  10.905  0.0876 -0.5129  1.1060
  464MOL0     H62576   0.452   2.848  10.853  0.9534  2.4845 -1.1602
  464MOL0     H62577   0.461   2.618  10.742  0.5566  0.7313 -1.1746
  464MOL0     H62578   0.632   2.598  10.798  0.6534 -1.0438  4.0083
  464MOL0     H62579   0.587   2.607  11.030  0.5326 -0.3540 -1.0674
  464MOL0     H62580   0.417   2.633  11.016 -1.6543 -1.9689  1.3286
  464MOL0     H62581   0.356   2.422  10.961  0.9529  0.0342 -1.5975
  464MOL0     H62582   0.504   2.389  10.877  2.0898 -0.9985  0.3718
  464MOL0     H62583   0.473   2.265  11.084  1.1417 -0.4023 -0.1759
  464MOL0     H62584   0.613   2.364  11.118 -0.6460  1.5190 -0.3934
  464MOL0     H62585   0.492   2.538  11.227  0.4616 -0.3606 -0.2594
  464MOL0     H62586   0.335   2.475  11.183  0.3833  1.5241  0.3517
  464MOL0     H62587   0.362   2.275  11.327 -2.4318  1.3330 -0.0225
  464MOL0     H62588   0.539   2.328  11.344 -0.2785 -0.4955 -3.8964
  464MOL0     H62589   0.289   2.484  11.423  1.9654  2.7959 -3.6667
  464MOL0     H62590   0.452   2.537  11.463 -0.9129  0.1938 -0.1875
  464MOL0     H62591   0.234   2.223  11.579 -3.6583  3.6643  0.4670
  464MOL0     H62592   0.274   2.078  11.821  3.6846 -0.9759  1.5663
  464MOL0     H62593   0.329   2.167  11.957  1.4554 -2.6911 -1.1471
  464MOL0     H62594   0.110   2.175  12.008  1.2057  1.8265  0.7001
  464MOL0     H62595   0.045   2.131  11.849  0.5391 -1.7290  0.5096
  464MOL0     H62596   0.073   2.381  11.791  1.0791 -2.3143 -0.7391
  464MOL0     H62597   0.135   2.390  11.954  2.6370 -3.2001  0.3636
  464MOL0     H62598  -0.103   2.461  11.955  0.6021  0.9418 -2.5021
  464MOL0     H62599  -0.102   2.289  12.020  2.0408 -0.7036 -0.8565
  464MOL0     H62600  -0.339   2.260  11.654 -4.3874  1.8871 -1.8343
  464MOL0     H62601  -0.680   2.162  11.646  2.3927 -4.0406 -0.5500
  464MOL0     H62602  -0.665   2.326  11.591 -0.3460 -0.2684  1.9686
  464MOL0     H62603  -0.550   2.190  11.545 -2.4664 -3.2893 -0.6517
  464MOL0     H62604  -0.937   2.442  11.590 -0.8170 -0.7929 -1.6400
  464MOL0     H62605  -1.180   2.517  11.583 -1.0611  1.8787  1.4145
  464MOL0     H62606  -1.453   2.499  11.912 -2.6297 -0.9213 -0.1110
  464MOL0     H62607  -1.348   2.606  11.804 -0.8327  0.4187 -4.2108
  464MOL0     H62608  -1.529   2.633  11.649 -1.9764  2.0522  1.6763
  464MOL0     H62609  -1.615   2.494  11.711 -1.7123 -1.1165  0.9162
  464MOL0     H62610  -1.681   2.762  11.791 -3.2823 -0.9897  0.1073
  464MOL0     H62611  -1.597   2.697  11.929  0.0214 -1.5885  1.2518
  464MOL0     H62612  -1.812   2.545  11.797 -0.5199 -1.2952  0.6789
  464MOL0     H62613  -1.704   2.487  11.936  1.0356  0.6191 -1.2750
  464MOL0     H62614  -1.907   2.724  11.962  0.4750  1.0076  1.0628
  464MOL0     H62615  -1.821   2.644  12.085 -1.1566 -3.5112  1.2656
  464MOL0     H62616  -2.040   2.498  11.908 -1.3903 -3.3915  0.7837
  464MOL0     H62617  -1.943   2.425  12.044  1.9962  0.6566 -0.6723
  464MOL0     H62618  -2.142   2.655  12.037 -2.4360 -2.5547 -0.5832
  464MOL0     H62619  -2.061   2.620  12.186 -3.2206 -0.6401  1.1641
  464MOL0     H62620  -2.259   2.514  12.200 -0.0078  1.3475  0.2398
  464MOL0     H62621  -2.135   2.393  12.164  1.3462  1.2520  0.7645
  464MOL0     H62622  -1.253   2.277  11.929 -3.8580  3.0752 -0.8357
  464MOL0     H62623  -1.033   2.238  11.952 -0.6913 -1.8774 -1.2050
  464MOL0     H62624  -0.559   2.405  12.055  0.6024 -1.4410 -0.1997
  464MOL0     H62625  -0.308   2.399  12.047  3.0885 -0.6948 -1.9218
  464MOL0     H62626   0.580   3.083  10.691 -1.8395 -2.9518 -1.3992
  464MOL0     H62627   0.763   3.260  10.710 -0.2105  0.9430  2.2574
  464MOL0     H62628   1.186   3.473  10.948 -0.2611  1.4204 -0.8935
  464MOL0     H62629   1.400   3.578  10.911  3.0831  0.6973 -1.3622
  464MOL0     H62630   1.611   3.491  10.915  1.6015 -3.3363 -1.4121
  464MOL0     H62631   1.733   3.456  10.797  0.6443  1.5179 -1.7829
  464MOL0     H62632   1.625   3.723  10.891 -1.2378 -0.5872 -2.4400
  464MOL0     H62633   1.714   3.713  10.745  1.1752  0.5956  0.0690
  464MOL0     H62634   1.897   3.592  10.865 -2.3524 -0.7575 -1.0634
  464MOL0     H62635   1.813   3.599  11.023 -1.5826 -2.8062 -1.2488
  464MOL0     H62636   2.016   3.759  11.023 -0.9987 -1.1048  1.0498
  464MOL0     H62637   1.854   3.849  11.032 -0.7237 -0.5768 -0.1460
  464MOL0     H62638   2.046   3.961  10.673  1.2048  1.6012  0.0687
  464MOL0     H62639   1.453   3.373  10.545  0.1220 -0.1563 -0.2930
  464MOL0     H62640   1.216   3.276  10.573 -2.4202  2.1612 -0.5932
  465MOL0     O62641   8.209   9.615   2.991  0.7358 -0.5981  0.1919
  465MOL0     C62642   8.150   9.540   3.073  0.9063  0.5313  0.5200
  465MOL0     O62643   8.154   9.540   3.205  0.4805  0.0638  0.1235
  465MOL0     C62644   8.228   9.645   3.252  0.1691 -0.2002 -1.3671
  465MOL0     C62645   8.342   9.611   3.326  0.3635 -0.0529 -0.2510
  465MOL0     C62646   8.423   9.718   3.376 -0.2727 -0.9972  0.1928
  465MOL0     C62647   8.381   9.855   3.378  0.2518  0.6849 -0.0096
  465MOL0     O62648   8.445   9.958   3.440  0.2037 -0.2680 -0.4237
  465MOL0     C62649   8.587   9.973   3.432  0.5563  1.3845 -0.3851
  465MOL0     C62650   8.634  10.105   3.500  0.9140  0.7441 -0.5561
  465MOL0     C62651   8.607  10.237   3.419 -0.1606  0.3045 -0.0906
  465MOL0     C62652   8.458  10.276   3.421  0.1952 -0.1181  0.3783
  465MOL0     C62653   8.423  10.389   3.327  1.2769  0.9427  0.1200
  465MOL0     C62654   8.460  10.366   3.189 -0.4585 -0.6842 -0.4686
  465MOL0     C62655   8.395  10.251   3.107  0.0391  0.1045 -0.9889
  465MOL0     C62656   8.244  10.237   3.129 -0.2632  0.5146  0.2541
  465MOL0     N62657   8.182  10.362   3.091  0.0649 -0.2049 -0.3010
  465MOL0     C62658   8.221  10.452   2.991 -0.6279 -0.3276  0.4921
  465MOL0     C62659   8.136  10.555   2.996  0.8698 -0.0913  0.4668
  465MOL0     C62660   8.117  10.662   2.895 -0.0718 -0.1582  0.1035
  465MOL0     C62661   8.071  10.606   2.767 -0.4418  0.4243 -0.7958
  465MOL0     C62662   8.063  10.704   2.652 -0.9673  0.3853  0.5001
  465MOL0     C62663   7.954  10.807   2.670 -0.1109 -0.3974  0.2565
  465MOL0     O62664   7.889  10.863   2.552 -0.3869  0.5264 -0.9495
  465MOL0     C62665   7.884  11.000   2.539  0.3999  0.8727  0.3711
  465MOL0     C62666   7.998  11.070   2.551 -0.1211  0.5852  0.6620
  465MOL0     C62667   7.995  11.210   2.538  0.2393 -0.0552 -0.1259
  465MOL0     C62668   8.124  11.283   2.569  0.2668  0.6329 -0.4624
  465MOL0     C62669   7.874  11.277   2.507 -0.0863  0.1935 -0.1534
  465MOL0     C62670   7.857  11.424   2.481 -0.3884  0.1081  0.4863
  465MOL0     O62671   7.747  11.458   2.396 -0.0051  0.1233 -0.2765
  465MOL0     C62672   7.712  11.587   2.378 -0.5899 -1.1147  0.1276
  465MOL0     C62673   7.666  11.671   2.478  0.0883  0.4067  0.1754
  465MOL0     C62674   7.620  11.803   2.447  0.4227  0.0202  0.3063
  465MOL0     C62675   7.628  11.850   2.315  0.0582  0.8858 -0.0654
  465MOL0     O62676   7.584  11.981   2.293  0.5196  0.0755  0.3413
  465MOL0     C62677   7.597  12.042   2.162  0.3097 -1.0309  0.0331
  465MOL0     C62678   7.661  12.180   2.188  0.3620 -0.4731 -0.0732
  465MOL0     C62679   7.808  12.173   2.192  0.3287 -0.9954 -0.5049
  465MOL0     C62680   7.859  12.128   2.331 -1.1252  0.1968 -0.1244
  465MOL0     C62681   8.010  12.163   2.371 -0.0615  0.1658 -0.1227
  465MOL0     C62682   8.091  12.040   2.420 -0.0288  0.1865 -0.3861
  465MOL0     C62683   8.053  11.975   2.564  0.8863  0.1098 -0.5058
  465MOL0     C62684   7.930  11.886   2.570  0.6839 -0.1234 -0.5096
  465MOL0    Cl62685   7.873  11.846   2.734  0.2553  0.6229 -0.0282
  465MOL0     C62686   7.678  11.770   2.216 -0.6076  0.6103  0.0390
  465MOL0     C62687   7.717  11.639   2.245 -0.2578  0.5952  0.3762
  465MOL0     O62688   7.923  11.509   2.533  0.0220 -0.4680 -0.2043
  465MOL0     C62689   7.760  11.194   2.488 -0.2643 -0.2511 -0.0048
  465MOL0     C62690   7.766  11.054   2.504 -0.2004 -0.3671  0.3811
  465MOL0     N62691   8.052  10.534   3.110 -0.7895 -0.7750  0.1697
  465MOL0     N62692   8.080  10.421   3.168  0.3055  0.6604  0.7222
  465MOL0     C62693   8.260   9.886   3.321 -0.5367  1.4257 -0.3597
  465MOL0     C62694   8.180   9.778   3.262  0.8655  0.0176 -0.8375
  465MOL0     C62695   8.062   9.430   3.021 -1.1734  0.6630 -0.4034
  465MOL0     C62696   7.944   9.389   3.086 -0.3560 -0.1010  0.0931
  465MOL0     C62697   7.866   9.285   3.043 -0.3990 -0.2588  0.8790
  465MOL0     C62698   7.898   9.212   2.929  0.1578  0.4694 -0.3286
  465MOL0     O62699   7.813   9.128   2.868  0.8294  0.4424  0.9424
  465MOL0     C62700   7.749   9.168   2.742 -0.9073 -0.3392  0.6755
  465MOL0     C62701   7.603   9.142   2.744  0.3502 -0.3000  0.7620
  465MOL0     C62702   7.561   8.996   2.752  0.8956 -0.1535 -0.1147
  465MOL0     C62703   7.405   8.979   2.737  0.6461  0.4104 -0.0856
  465MOL0     C62704   7.372   8.839   2.718  1.0418  0.6553 -0.3379
  465MOL0     C62705   7.329   8.725   2.696 -0.3643  0.4989  0.0051
  465MOL0     C62706   8.024   9.237   2.874 -0.2714  0.2540 -0.6271
  465MOL0     C62707   8.103   9.346   2.911  0.4637  0.5038  0.7458
  465MOL0     H62708   8.391   9.515   3.332  0.4018  0.0404  2.8393
  465MOL0     H62709   8.521   9.695   3.417  0.0954  0.0447 -0.0715
  465MOL0     H62710   8.640   9.897   3.491  0.4043  1.2992 -0.3586
  465MOL0     H62711   8.618   9.968   3.328  2.1729 -0.8405  0.1351
  465MOL0     H62712   8.591  10.105   3.601  0.5531  1.2173 -0.7062
  465MOL0     H62713   8.743  10.101   3.506  0.8722 -1.1743 -0.5096
  465MOL0     H62714   8.682  10.312   3.445  1.9906 -2.0049  0.7398
  465MOL0     H62715   8.626  10.213   3.314  1.9361  3.3544 -0.5320
  465MOL0     H62716   8.400  10.185   3.399  0.4686 -0.5988  1.5176
  465MOL0     H62717   8.428  10.305   3.522 -2.2845  2.5347 -0.9726
  465MOL0     H62718   8.314  10.396   3.321  1.3539  0.6383 -2.3250
  465MOL0     H62719   8.464  10.483   3.365  1.1643  0.6736  0.9446
  465MOL0     H62720   8.421  10.457   3.142  0.0778  0.8324  1.8375
  465MOL0     H62721   8.568  10.376   3.181 -0.5660  2.0031  0.3949
  465MOL0     H62722   8.414  10.264   3.000  2.8381  1.6147 -0.4223
  465MOL0     H62723   8.444  10.159   3.142  2.6510  1.5710 -0.5585
  465MOL0     H62724   8.238  10.214   3.236 -3.0653 -1.7356 -0.2729
  465MOL0     H62725   8.205  10.151   3.074 -2.0725  1.0393  0.6423
  465MOL0     H62726   8.302  10.431   2.922  2.6544  1.3296  3.4665
  465MOL0     H62727   8.044  10.738   2.923  0.6966  0.3367  0.8407
  465MOL0     H62728   8.216  10.707   2.885  0.2906 -1.1980 -1.3291
  465MOL0     H62729   7.973  10.562   2.786  0.5606 -1.2516  0.8077
  465MOL0     H62730   8.140  10.522   2.752 -2.3006 -2.0427  2.8432
  465MOL0     H62731   8.039  10.644   2.564  0.6354  0.1534  0.1924
  465MOL0     H62732   8.161  10.743   2.623 -1.7011 -0.4282 -3.6314
  465MOL0     H62733   8.003  10.887   2.727  1.6363 -0.5031 -1.0050
  465MOL0     H62734   7.865  10.762   2.714 -0.0564 -0.9873 -0.2131
  465MOL0     H62735   8.088  11.014   2.574 -1.0592 -1.8219 -1.0765
  465MOL0     H62736   8.216  11.225   2.579  0.6715  1.1413 -1.1473
  465MOL0     H62737   8.146  11.349   2.485 -1.3313 -1.0842 -2.3276
  465MOL0     H62738   8.118  11.343   2.660 -0.9914 -0.7874  0.4426
  465MOL0     H62739   7.668  11.648   2.583  0.1818  1.6228  0.4601
  465MOL0     H62740   7.582  11.877   2.517  1.3074  1.3097 -0.5294
  465MOL0     H62741   7.658  11.986   2.092  2.8831 -1.4562  2.4419
  465MOL0     H62742   7.497  12.048   2.117  0.9331  0.2447 -1.2670
  465MOL0     H62743   7.655  12.244   2.100  2.4430  0.8042  0.6336
  465MOL0     H62744   7.624  12.237   2.274  2.3135 -0.2371  0.6660
  465MOL0     H62745   7.845  12.276   2.182 -3.4414  0.4157 -1.7720
  465MOL0     H62746   7.854  12.109   2.116  1.9864 -2.4366  1.5844
  465MOL0     H62747   7.797  12.184   2.402  1.3861  1.8548  0.9035
  465MOL0     H62748   7.857  12.018   2.335  2.4137  0.0341  1.8156
  465MOL0     H62749   7.997  12.242   2.447  0.9529  2.5215 -2.2416
  465MOL0     H62750   8.054  12.214   2.285 -0.1378  1.0396  0.3393
  465MOL0     H62751   8.087  11.954   2.352  0.1563  1.0832 -1.5670
  465MOL0     H62752   8.195  12.074   2.416  0.7264 -1.8634  0.5323
  465MOL0     H62753   8.034  12.060   2.631 -3.0979 -1.4390  0.5609
  465MOL0     H62754   8.143  11.925   2.602  0.9716  0.2211 -0.5568
  465MOL0     H62755   7.944  11.794   2.512  1.7797 -1.3719  1.6147
  465MOL0     H62756   7.855  11.947   2.519  0.2879  0.7084  0.9900
  465MOL0     H62757   7.684  11.801   2.112 -0.1194  0.1610 -0.0699
  465MOL0     H62758   7.748  11.581   2.159  1.0453  2.0572 -0.1994
  465MOL0     H62759   7.665  11.241   2.465  0.8773  2.6266  0.7757
  465MOL0     H62760   7.673  11.002   2.486 -3.1850  3.6922  2.3518
  465MOL0     H62761   8.232   9.991   3.330  2.4554  2.3839 -0.9332
  465MOL0     H62762   8.084   9.795   3.215  0.3666 -0.2026  0.0999
  465MOL0     H62763   7.923   9.454   3.171 -0.4668 -1.8155  1.4334
  465MOL0     H62764   7.776   9.264   3.099 -1.1664  2.7235  0.9443
  465MOL0     H62765   7.775   9.268   2.707 -0.3524 -0.1776  1.5218
  465MOL0     H62766   7.803   9.100   2.675  0.8654 -0.9636  2.6304
  465MOL0     H62767   7.565   9.168   2.645  3.2695  0.8193 -0.1845
  465MOL0     H62768   7.559   9.210   2.818  0.8824  2.1790 -1.0856
  465MOL0     H62769   7.596   8.958   2.848  4.3912  1.2229 -0.6989
  465MOL0     H62770   7.618   8.935   2.682  1.7636 -0.8964  1.1944
  465MOL0     H62771   7.379   9.047   2.655  2.5962 -0.7073 -1.7126
  465MOL0     H62772   7.354   9.007   2.829  2.2817  0.5996  0.7985
  465MOL0     H62773   7.293   8.627   2.672 -0.2518  1.0568 -2.7606
  465MOL0     H62774   8.055   9.189   2.781  3.5359  0.7568  0.2241
  465MOL0     H62775   8.185   9.377   2.848 -0.9701  1.1468 -0.8765
  466MOL0     O62776   2.912   1.856   3.573  0.8030 -0.5597 -0.0090
  466MOL0     C62777   2.975   1.936   3.636 -1.2778 -0.1802  0.2066
  466MOL0     O62778   3.058   1.902   3.746  0.2469 -0.4192 -0.1852
  466MOL0     C62779   3.076   1.773   3.793  0.3578  0.2066  0.1743
  466MOL0     C62780   2.988   1.670   3.779 -0.3119 -0.0581 -0.4960
  466MOL0     C62781   3.005   1.543   3.832 -0.3721 -0.4652 -0.0747
  466MOL0     C62782   3.125   1.516   3.907  0.1594 -0.0544 -0.3895
  466MOL0     O62783   3.151   1.403   3.976  0.5009 -0.1738 -0.2733
  466MOL0     C62784   3.076   1.410   4.099  0.3108 -0.1976  0.6101
  466MOL0     C62785   2.940   1.336   4.097 -1.0672  0.8699  0.0439
  466MOL0     C62786   2.901   1.281   4.234 -0.2869  0.1908  0.8729
  466MOL0     C62787   2.978   1.148   4.263  0.1276  0.4789  0.3255
  466MOL0     C62788   2.898   1.041   4.344 -0.4848 -0.1709 -0.5850
  466MOL0     C62789   2.768   0.995   4.261 -0.7072 -0.0609 -1.0552
  466MOL0     C62790   2.701   0.873   4.314  0.1518 -0.7087  0.1317
  466MOL0     C62791   2.670   0.888   4.470  0.1713  0.7582 -0.7824
  466MOL0     N62792   2.576   0.990   4.511  0.7790 -0.9592 -0.3879
  466MOL0     C62793   2.449   0.990   4.462 -0.6013  1.0200 -0.1502
  466MOL0     C62794   2.393   1.103   4.499  0.3565 -0.1515  0.7880
  466MOL0     C62795   2.267   1.162   4.451  0.1034 -0.3995 -0.2978
  466MOL0     C62796   2.146   1.071   4.509 -0.2713 -1.7416  0.3687
  466MOL0     C62797   2.005   1.134   4.477  0.3064 -0.1156 -0.7150
  466MOL0     C62798   1.952   1.240   4.574  0.1730 -0.2071 -1.3850
  466MOL0     O62799   1.836   1.305   4.515  0.5952 -0.4987 -0.7639
  466MOL0     C62800   1.852   1.424   4.451 -0.6634  0.3197  0.6665
  466MOL0     C62801   1.742   1.461   4.372 -0.9276 -0.1376 -0.8312
  466MOL0     C62802   1.743   1.588   4.307  0.4054  0.1971  0.0663
  466MOL0     C62803   1.629   1.615   4.208 -0.3944 -0.1675  0.1120
  466MOL0     C62804   1.848   1.677   4.320  0.0116 -0.0942 -0.6029
  466MOL0     C62805   1.863   1.797   4.236 -0.2664 -0.7310 -0.4671
  466MOL0     O62806   1.871   1.780   4.101 -0.3490  0.6973 -0.5504
  466MOL0     C62807   1.913   1.883   4.021  0.0118  0.1165 -1.0290
  466MOL0     C62808   1.835   1.914   3.914 -0.2236  0.1242  0.4562
  466MOL0     C62809   1.865   2.018   3.833 -0.5046 -0.4602  0.0747
  466MOL0     C62810   1.978   2.102   3.869 -0.1406 -0.6783  0.2191
  466MOL0     O62811   2.008   2.214   3.791  0.2313 -0.2255 -0.8240
  466MOL0     C62812   2.063   2.339   3.849  1.0149 -0.6966 -0.5459
  466MOL0     C62813   2.014   2.457   3.757  0.3014 -0.8771 -0.4191
  466MOL0     C62814   2.104   2.582   3.762  0.0360 -0.3719  0.9046
  466MOL0     C62815   2.232   2.566   3.670  0.4022  0.9293 -0.4434
  466MOL0     C62816   2.312   2.691   3.697  0.1426  0.7290  0.3460
  466MOL0     C62817   2.268   2.811   3.624  0.7333  0.3534 -0.0549
  466MOL0     C62818   2.323   2.937   3.684  0.7547  0.0068  0.0888
  466MOL0     C62819   2.283   3.070   3.616 -1.1280  0.8214  0.9160
  466MOL0    Cl62820   2.383   3.200   3.680 -0.3681 -0.3392 -0.2018
  466MOL0     C62821   2.049   2.078   3.980  0.2255 -0.5843 -1.0653
  466MOL0     C62822   2.019   1.969   4.058  0.2497 -0.1907  0.2456
  466MOL0     O62823   1.882   1.902   4.300 -0.2375 -1.1615  0.8119
  466MOL0     C62824   1.961   1.642   4.402  0.5000 -0.7789 -0.6415
  466MOL0     C62825   1.961   1.521   4.468 -0.5878  0.5961  0.4545
  466MOL0     N62826   2.493   1.173   4.563  0.3159 -0.7778 -0.6334
  466MOL0     N62827   2.599   1.108   4.577  0.4381 -0.0533 -0.2546
  466MOL0     C62828   3.213   1.621   3.930 -0.3040 -0.6289  0.1901
  466MOL0     C62829   3.192   1.744   3.865  0.4882 -0.5772  0.2258
  466MOL0     C62830   2.958   2.084   3.611 -0.0279  0.0057 -0.8496
  466MOL0     C62831   2.991   2.184   3.704  0.0343  0.7747  0.6270
  466MOL0     C62832   2.978   2.315   3.679 -0.8228  0.6243 -0.4659
  466MOL0     C62833   2.908   2.358   3.567  0.3658 -0.0390 -0.9189
  466MOL0     O62834   2.891   2.499   3.545  0.5969 -0.1018 -1.1754
  466MOL0     C62835   2.812   2.559   3.437  0.8036  0.7286 -0.6784
  466MOL0     C62836   2.713   2.663   3.488  0.2966  1.0259 -0.0732
  466MOL0     C62837   2.786   2.788   3.523 -1.0807  0.0424 -0.3993
  466MOL0     C62838   2.802   2.892   3.407 -0.1790  0.2362  0.5139
  466MOL0     C62839   2.679   2.959   3.358 -0.5310 -0.5105 -0.2990
  466MOL0     C62840   2.591   3.032   3.325  0.5775 -0.1079  0.0768
  466MOL0     C62841   2.859   2.263   3.478  0.1952 -0.0648  0.5835
  466MOL0     C62842   2.883   2.130   3.502  0.3489  0.7313  0.6549
  466MOL0     H62843   2.895   1.672   3.722  0.4175 -1.2060 -1.7887
  466MOL0     H62844   2.944   1.458   3.804 -0.3614 -0.7811  0.8238
  466MOL0     H62845   3.122   1.347   4.176 -1.3388 -2.5441 -0.1927
  466MOL0     H62846   3.060   1.507   4.147  0.6905  0.1029  0.1439
  466MOL0     H62847   2.870   1.409   4.054 -0.8288  0.1089 -1.7347
  466MOL0     H62848   2.946   1.249   4.032 -0.5480 -0.2721  1.5732
  466MOL0     H62849   2.905   1.361   4.309 -2.2087 -0.3862  1.6794
  466MOL0     H62850   2.793   1.267   4.218 -0.4268  0.2494  1.7167
  466MOL0     H62851   3.006   1.105   4.167  0.7318  1.9081 -0.1544
  466MOL0     H62852   3.070   1.159   4.321  1.5348 -2.3540 -1.1386
  466MOL0     H62853   2.968   0.959   4.363 -0.0226  0.7509  2.1432
  466MOL0     H62854   2.873   1.087   4.440  2.0660 -0.9740  0.5491
  466MOL0     H62855   2.689   1.069   4.279 -0.5415 -0.1915  0.3128
  466MOL0     H62856   2.796   0.981   4.156 -0.4335 -3.1170 -0.6738
  466MOL0     H62857   2.604   0.849   4.270 -0.7470  0.1633  1.5682
  466MOL0     H62858   2.755   0.780   4.293  0.5744 -0.8795  1.7942
  466MOL0     H62859   2.763   0.900   4.528 -1.8227 -2.8360  3.8323
  466MOL0     H62860   2.625   0.795   4.506  0.2190  0.4992 -1.3799
  466MOL0     H62861   2.395   0.924   4.396  1.1098 -0.7647  0.1531
  466MOL0     H62862   2.274   1.264   4.488 -1.7136 -0.0975 -0.6975
  466MOL0     H62863   2.264   1.170   4.342 -2.4609  0.0672 -0.2334
  466MOL0     H62864   2.164   1.049   4.615  1.2844 -1.8479  0.1013
  466MOL0     H62865   2.156   0.976   4.455 -0.5950 -1.7159  0.2602
  466MOL0     H62866   1.935   1.052   4.460  2.2176 -1.9247 -0.2431
  466MOL0     H62867   2.026   1.175   4.377 -1.9880 -2.0889 -2.1269
  466MOL0     H62868   2.032   1.312   4.593 -1.2930  1.4245 -1.1032
  466MOL0     H62869   1.927   1.190   4.668  0.5335 -0.2622 -1.3184
  466MOL0     H62870   1.661   1.388   4.376 -1.3084  0.3274  0.3838
  466MOL0     H62871   1.538   1.601   4.267 -1.0414  1.7122 -0.3482
  466MOL0     H62872   1.638   1.716   4.165 -3.4726  0.5898  1.0076
  466MOL0     H62873   1.638   1.546   4.124  0.0047 -0.0460  0.0536
  466MOL0     H62874   1.746   1.854   3.898  0.9630 -1.9945  1.3432
  466MOL0     H62875   1.805   2.055   3.751 -0.1355 -1.6153 -0.7421
  466MOL0     H62876   2.021   2.361   3.948  0.5933 -0.9839 -0.6600
  466MOL0     H62877   2.171   2.329   3.856  0.8472 -1.7520  0.9165
  466MOL0     H62878   2.016   2.410   3.658  1.0997 -0.2526 -0.7091
  466MOL0     H62879   1.914   2.489   3.784  1.5526  0.8752  2.5905
  466MOL0     H62880   2.124   2.608   3.866 -2.5690 -3.0947  2.2439
  466MOL0     H62881   2.052   2.660   3.705  3.9648 -0.6307 -3.6977
  466MOL0     H62882   2.282   2.472   3.695 -0.9776  0.7633  1.9496
  466MOL0     H62883   2.191   2.561   3.568 -0.0162 -0.6383 -0.2330
  466MOL0     H62884   2.419   2.675   3.687 -0.2069 -1.0345 -1.2351
  466MOL0     H62885   2.297   2.717   3.802 -0.1253 -0.4980  0.6386
  466MOL0     H62886   2.296   2.806   3.518 -0.3228  2.3171 -0.4686
  466MOL0     H62887   2.160   2.826   3.618  0.3433  0.4007  4.0481
  466MOL0     H62888   2.430   2.930   3.663  0.7452 -1.4859  0.4674
  466MOL0     H62889   2.304   2.946   3.791  0.9902 -1.0492  0.2246
  466MOL0     H62890   2.176   3.091   3.622 -1.8557 -0.9445 -2.9095
  466MOL0     H62891   2.296   3.061   3.507  2.4921  0.4772  1.2468
  466MOL0     H62892   2.135   2.140   4.001  0.6093 -2.0921  2.3058
  466MOL0     H62893   2.090   1.939   4.134  3.2300  1.9343 -1.4795
  466MOL0     H62894   2.047   1.708   4.400  0.9403 -1.1026  2.4142
  466MOL0     H62895   2.040   1.503   4.540  1.0245  0.0022 -1.3975
  466MOL0     H62896   3.293   1.610   4.003 -1.1856  1.4042  1.5538
  466MOL0     H62897   3.264   1.823   3.879 -1.1425  0.7196  1.7964
  466MOL0     H62898   3.047   2.148   3.790  0.1625 -2.7357 -0.7896
  466MOL0     H62899   3.031   2.385   3.743  3.2506 -1.6196 -1.0193
  466MOL0     H62900   2.874   2.603   3.359 -0.1599 -1.6225 -2.8892
  466MOL0     H62901   2.748   2.479   3.398  2.8025 -1.5842  0.5511
  466MOL0     H62902   2.669   2.620   3.578 -0.1319  1.4679 -0.0674
  466MOL0     H62903   2.624   2.670   3.425 -2.0269 -0.3717  2.8327
  466MOL0     H62904   2.886   2.770   3.565 -1.2298  3.4244  1.7564
  466MOL0     H62905   2.747   2.846   3.607  1.2501 -1.0029  1.5285
  466MOL0     H62906   2.853   2.843   3.323  0.3308  2.0095 -0.2452
  466MOL0     H62907   2.866   2.977   3.430  0.8904 -0.1261 -0.9846
  466MOL0     H62908   2.514   3.096   3.286  1.1863  0.5469 -0.0478
  466MOL0     H62909   2.815   2.290   3.382  1.9065 -1.4545 -0.6609
  466MOL0     H62910   2.858   2.059   3.424  1.5129  0.3794  0.5798
  467MOL0     O62911   8.298   8.197   6.742  0.0093 -0.3644 -0.5328
  467MOL0     C62912   8.230   8.192   6.641  0.5375 -0.2369  0.6911
  467MOL0     O62913   8.177   8.295   6.575 -0.1168 -0.1481  0.2900
  467MOL0     C62914   8.196   8.421   6.632  0.5761 -0.4015  0.6390
  467MOL0     C62915   8.234   8.522   6.535 -0.0927  0.7594 -0.6563
  467MOL0     C62916   8.229   8.654   6.577  0.3711  0.0878 -0.2277
  467MOL0     C62917   8.191   8.693   6.705 -0.1697  0.7997 -0.2509
  467MOL0     O62918   8.187   8.820   6.716 -1.1175 -0.1810  0.8779
  467MOL0     C62919   8.105   8.879   6.821 -0.1464 -0.0484  0.0958
  467MOL0     C62920   8.188   8.897   6.950 -0.6917  0.0569 -0.0411
  467MOL0     C62921   8.280   9.019   6.935 -0.0258  0.4894 -0.0888
  467MOL0     C62922   8.379   9.053   7.046  0.3495  0.1243  0.1590
  467MOL0     C62923   8.461   9.177   7.016 -0.5316 -1.3935  0.1864
  467MOL0     C62924   8.593   9.188   7.088  0.1724  0.6207 -0.5031
  467MOL0     C62925   8.698   9.094   7.029  0.3370 -1.0930  0.5680
  467MOL0     C62926   8.755   9.007   7.146  0.2003 -0.4942  0.1395
  467MOL0     N62927   8.827   9.093   7.236  0.1411 -0.2019 -0.1003
  467MOL0     C62928   8.957   9.130   7.224 -0.4538 -0.1821 -0.9503
  467MOL0     C62929   8.971   9.239   7.304 -0.0851  0.4247  0.2450
  467MOL0     C62930   9.099   9.300   7.349 -0.1854 -1.2341  0.3346
  467MOL0     C62931   9.175   9.203   7.439  0.2156  0.2498  0.3086
  467MOL0     C62932   9.324   9.231   7.457 -0.1831  0.5624  0.4891
  467MOL0     C62933   9.381   9.103   7.537 -0.4154 -0.1660  1.0411
  467MOL0     O62934   9.411   8.991   7.445 -0.5748  0.4793 -0.1052
  467MOL0     C62935   9.533   8.934   7.442 -0.2226  0.3859 -0.6616
  467MOL0     C62936   9.541   8.813   7.364  0.2098 -0.9494  0.9972
  467MOL0     C62937   9.659   8.736   7.337  0.5295 -0.6944 -0.1783
  467MOL0     C62938   9.652   8.606   7.264 -0.6983  0.3239  0.2215
  467MOL0     C62939   9.778   8.779   7.407 -0.2734  0.5387  0.0703
  467MOL0     C62940   9.919   8.723   7.413 -0.4105 -1.1056  0.1456
  467MOL0     O62941  10.013   8.800   7.478 -0.4587 -0.0174 -0.6170
  467MOL0     C62942  10.146   8.748   7.475 -0.2887  0.0839  0.0547
  467MOL0     C62943  10.239   8.815   7.385 -0.2115 -0.5145  0.0736
  467MOL0     C62944  10.364   8.749   7.361 -1.6933 -0.3735  0.3406
  467MOL0     C62945  10.408   8.635   7.434 -0.2306  0.0953  0.3946
  467MOL0     O62946  10.522   8.569   7.412  0.7777 -0.2533  0.4451
  467MOL0     C62947  10.601   8.616   7.305 -0.0945  0.5081  0.0969
  467MOL0     C62948  10.732   8.530   7.272 -0.4786  0.3754 -0.6386
  467MOL0     C62949  10.806   8.564   7.138 -0.0191  0.6695  0.1132
  467MOL0     C62950  10.916   8.464   7.102 -0.3994  0.4634  0.2648
  467MOL0     C62951  10.963   8.494   6.961  0.4290  1.6132 -0.1326
  467MOL0     C62952  11.092   8.421   6.918 -0.5660  0.6333 -0.2725
  467MOL0     C62953  11.147   8.496   6.799 -0.4775  0.2228 -0.5683
  467MOL0     C62954  11.255   8.422   6.718  0.4055  0.1421  0.8868
  467MOL0    Cl62955  11.319   8.518   6.588 -0.2310  0.1055  0.1725
  467MOL0     C62956  10.324   8.585   7.525  0.1224  0.8819  0.6420
  467MOL0     C62957  10.197   8.638   7.542 -0.0430 -1.0157  0.1839
  467MOL0     O62958   9.943   8.607   7.373 -0.7640  0.2233 -0.0181
  467MOL0     C62959   9.765   8.898   7.488 -0.2486 -1.1166 -0.1370
  467MOL0     C62960   9.651   8.965   7.505  0.2308 -0.1915  1.0561
  467MOL0     N62961   8.864   9.252   7.380  0.1461  0.0865  0.6572
  467MOL0     N62962   8.781   9.160   7.349 -0.1799 -0.1531 -0.1936
  467MOL0     C62963   8.161   8.594   6.802  0.1457 -0.3636  0.6275
  467MOL0     C62964   8.165   8.461   6.760 -0.4140 -0.0539  0.0799
  467MOL0     C62965   8.212   8.064   6.577 -0.5305  0.5469  0.3569
  467MOL0     C62966   8.121   8.059   6.468 -0.3645  1.6265  0.1021
  467MOL0     C62967   8.102   7.934   6.403  0.0858  0.4503  0.2125
  467MOL0     C62968   8.186   7.826   6.428  0.9430 -0.5069 -0.1756
  467MOL0     O62969   8.184   7.717   6.348  0.4590  0.3634  0.9669
  467MOL0     C62970   8.119   7.716   6.217  0.7821  0.5090 -0.3401
  467MOL0     C62971   7.967   7.673   6.200  0.1141  0.5082 -0.7124
  467MOL0     C62972   7.927   7.542   6.270 -0.5121  0.7382 -0.3835
  467MOL0     C62973   8.010   7.426   6.233  0.5530 -0.0937  0.1382
  467MOL0     C62974   8.017   7.381   6.088  0.5968 -0.4873 -0.2663
  467MOL0     C62975   8.010   7.345   5.969 -0.2925 -0.7942  0.9061
  467MOL0     C62976   8.275   7.830   6.530  0.1084 -0.1836 -0.1173
  467MOL0     C62977   8.291   7.943   6.607 -0.4818 -0.4377 -0.9802
  467MOL0     H62978   8.247   8.506   6.428 -0.3071  0.1466 -0.5982
  467MOL0     H62979   8.245   8.713   6.487 -0.4106 -0.1111 -0.5114
  467MOL0     H62980   8.064   8.975   6.788 -1.5026 -1.2775 -1.9906
  467MOL0     H62981   8.019   8.811   6.827 -0.4251 -0.0903 -2.9987
  467MOL0     H62982   8.117   8.884   7.032 -2.4679  2.1674 -1.1188
  467MOL0     H62983   8.253   8.812   6.971 -0.1369  0.8930  1.8431
  467MOL0     H62984   8.340   9.000   6.846  0.3205 -0.2841  0.2945
  467MOL0     H62985   8.220   9.104   6.901 -2.1549 -1.7484 -2.3325
  467MOL0     H62986   8.309   9.066   7.129 -1.7680 -2.3253 -1.0973
  467MOL0     H62987   8.443   8.969   7.076  0.7771  0.8350  1.2910
  467MOL0     H62988   8.475   9.193   6.909 -3.5699 -0.6922 -0.1804
  467MOL0     H62989   8.398   9.258   7.053 -0.6611 -0.7405 -1.3714
  467MOL0     H62990   8.628   9.291   7.088  0.6288  0.6000  3.0579
  467MOL0     H62991   8.581   9.166   7.195 -2.1306  2.4026 -0.3349
  467MOL0     H62992   8.647   9.035   6.953 -0.9760  1.5708 -0.7532
  467MOL0     H62993   8.781   9.145   6.979  0.2850 -0.1762  1.3800
  467MOL0     H62994   8.816   8.925   7.106  0.8037  0.8840 -1.9015
  467MOL0     H62995   8.665   8.971   7.197 -1.5594  5.3558  1.9424
  467MOL0     H62996   9.034   9.079   7.166  1.8188 -0.0403  1.6656
  467MOL0     H62997   9.169   9.314   7.266 -2.0053  3.4410 -0.7095
  467MOL0     H62998   9.081   9.387   7.414  3.4341  0.2056 -0.3287
  467MOL0     H62999   9.173   9.103   7.394  0.4302  0.6104 -0.5258
  467MOL0     H63000   9.139   9.212   7.542  2.8947  0.8744  1.2590
  467MOL0     H63001   9.328   9.317   7.525  0.6835 -0.4682  1.7839
  467MOL0     H63002   9.383   9.250   7.367  2.5880  5.6965  2.9312
  467MOL0     H63003   9.297   9.081   7.604 -1.7775 -1.5732 -1.0287
  467MOL0     H63004   9.469   9.133   7.595 -1.8687  2.2951  2.1604
  467MOL0     H63005   9.450   8.793   7.307  1.7177 -1.5933 -1.3180
  467MOL0     H63006   9.603   8.530   7.325  2.1621 -1.6811  0.2575
  467MOL0     H63007   9.601   8.619   7.168 -1.7072 -0.6285  0.6071
  467MOL0     H63008   9.748   8.557   7.243 -0.8972 -1.2415  2.6764
  467MOL0     H63009  10.194   8.903   7.338 -0.7741 -1.5664 -1.4419
  467MOL0     H63010  10.423   8.785   7.276  0.6782 -0.3191  1.9029
  467MOL0     H63011  10.537   8.616   7.217 -0.0654 -1.3131  0.0354
  467MOL0     H63012  10.626   8.717   7.338 -3.0451  0.9238  1.4100
  467MOL0     H63013  10.803   8.545   7.355 -1.3339 -0.2598  0.2273
  467MOL0     H63014  10.714   8.423   7.267  2.7981 -0.2981 -0.4187
  467MOL0     H63015  10.846   8.666   7.147 -0.5946  0.9641 -0.5318
  467MOL0     H63016  10.736   8.557   7.055 -0.8092 -5.4179  0.8335
  467MOL0     H63017  11.001   8.466   7.171  1.3143 -0.9214 -1.6657
  467MOL0     H63018  10.872   8.364   7.093  1.3638 -0.2023 -2.1193
  467MOL0     H63019  10.979   8.601   6.968 -1.4403  1.8244  2.6352
  467MOL0     H63020  10.884   8.468   6.890  0.7696 -2.7254  0.7942
  467MOL0     H63021  11.165   8.418   7.000 -0.6694  0.2779 -0.1922
  467MOL0     H63022  11.069   8.323   6.875  1.1476 -0.1602  0.5034
  467MOL0     H63023  11.207   8.577   6.841 -0.5774 -0.4337  0.8923
  467MOL0     H63024  11.072   8.533   6.729 -0.5664  1.1767  0.0132
  467MOL0     H63025  11.213   8.326   6.687  0.9509 -0.4018  1.7841
  467MOL0     H63026  11.346   8.412   6.777  0.7915  5.4432  1.7212
  467MOL0     H63027  10.358   8.505   7.590 -0.1327  1.2555  1.2448
  467MOL0     H63028  10.128   8.606   7.619 -1.4548 -0.3080 -0.7519
  467MOL0     H63029   9.848   8.941   7.544  1.6375  1.4128 -4.4056
  467MOL0     H63030   9.652   9.061   7.555  0.8265  1.1362 -1.3678
  467MOL0     H63031   8.121   8.610   6.902 -0.2963 -0.8264  0.5295
  467MOL0     H63032   8.138   8.378   6.825  1.3794  1.3965  2.8728
  467MOL0     H63033   8.046   8.129   6.433 -1.2688  0.5292 -0.2214
  467MOL0     H63034   8.027   7.932   6.325 -0.7091 -0.7175  0.9733
  467MOL0     H63035   8.141   7.809   6.163  0.3091  1.4354  1.0168
  467MOL0     H63036   8.178   7.641   6.163  1.1936  0.4255  0.2174
  467MOL0     H63037   7.947   7.661   6.093  1.9602  0.6880 -1.1132
  467MOL0     H63038   7.899   7.749   6.241  0.0693  0.8526 -1.4101
  467MOL0     H63039   7.820   7.528   6.249 -0.4487  0.4183 -0.5010
  467MOL0     H63040   7.927   7.559   6.378 -0.8972  2.5372 -0.6394
  467MOL0     H63041   7.989   7.338   6.294 -3.2507  1.6370  1.6035
  467MOL0     H63042   8.109   7.446   6.276  0.4661 -2.6075  1.7268
  467MOL0     H63043   8.008   7.292   5.876  0.6669 -1.2877  1.1452
  467MOL0     H63044   8.329   7.737   6.542  0.1097 -0.2968 -0.9476
  467MOL0     H63045   8.371   7.946   6.680 -1.9745  0.6601  0.7028
  468MOL0     O63046   9.980   1.827   7.137 -1.2602 -1.1169 -0.0416
  468MOL0     C63047  10.098   1.827   7.161  0.1602 -0.6120 -0.3992
  468MOL0     O63048  10.179   1.720   7.131  0.2893 -0.2642  0.3588
  468MOL0     C63049  10.123   1.595   7.111 -1.1665  0.6634  0.5747
  468MOL0     C63050   9.989   1.552   7.095 -0.1041  0.3776 -0.5629
  468MOL0     C63051   9.965   1.411   7.081  0.4331 -0.4133 -0.4297
  468MOL0     C63052  10.063   1.316   7.081 -0.6374  0.9200 -0.1499
  468MOL0     O63053  10.028   1.180   7.058  0.5125  0.2041  0.0012
  468MOL0     C63054  10.109   1.086   7.127 -0.4195 -0.8109  0.0438
  468MOL0     C63055  10.084   0.947   7.075  0.0112 -0.2382  0.1554
  468MOL0     C63056  10.134   0.905   6.935 -0.4046 -0.0361  0.0665
  468MOL0     C63057  10.134   0.761   6.912  0.7082 -0.0401  0.3274
  468MOL0     C63058  10.194   0.722   6.781  0.7701  0.4518 -0.3427
  468MOL0     C63059  10.341   0.755   6.767 -0.2798  0.0726  0.5547
  468MOL0     C63060  10.427   0.668   6.678  0.4037  0.7506  0.4367
  468MOL0     C63061  10.417   0.680   6.528 -0.6852  0.7952  0.1181
  468MOL0     N63062  10.509   0.587   6.467  0.7264 -0.0088  0.3632
  468MOL0     C63063  10.477   0.452   6.451 -0.8188  0.3778 -0.1918
  468MOL0     C63064  10.579   0.401   6.378 -0.4341 -0.0978  0.4012
  468MOL0     C63065  10.601   0.258   6.338 -0.3027  1.2450  0.6011
  468MOL0     C63066  10.567   0.211   6.196  0.0735 -0.3644 -0.2051
  468MOL0     C63067  10.602   0.066   6.172  0.1324 -0.2046 -0.0173
  468MOL0     C63068  10.493  -0.032   6.227 -1.1739 -0.2076  0.9505
  468MOL0     O63069  10.564  -0.163   6.218  0.2268 -0.9524 -0.1931
  468MOL0     C63070  10.482  -0.265   6.187 -0.8045  0.8822  0.4833
  468MOL0     C63071  10.357  -0.288   6.233 -0.5587 -0.0824 -0.8800
  468MOL0     C63072  10.283  -0.404   6.208 -0.8984 -0.2894 -0.5490
  468MOL0     C63073  10.155  -0.403   6.281 -0.4232 -0.1155  0.1262
  468MOL0     C63074  10.332  -0.495   6.116  0.1397  0.2555 -0.3140
  468MOL0     C63075  10.248  -0.598   6.058  1.2534  0.2184 -0.5965
  468MOL0     O63076  10.126  -0.632   6.111 -0.1952 -0.4973  0.8886
  468MOL0     C63077  10.016  -0.628   6.032  0.0999  0.0283  0.1108
  468MOL0     C63078   9.906  -0.712   6.056 -0.3379  0.6992  0.0809
  468MOL0     C63079   9.789  -0.720   5.981 -0.1368 -0.0887 -0.5147
  468MOL0     C63080   9.788  -0.643   5.865 -0.5776  0.6586  1.0997
  468MOL0     O63081   9.675  -0.645   5.794  0.1122  0.4103  0.2069
  468MOL0     C63082   9.674  -0.629   5.648  0.6485  0.2467  0.3119
  468MOL0     C63083   9.649  -0.761   5.592  0.4069  0.6324 -0.0646
  468MOL0     C63084   9.534  -0.847   5.654 -0.2988 -0.3500 -0.0699
  468MOL0     C63085   9.493  -0.961   5.554 -0.2408 -0.0723 -0.0371
  468MOL0     C63086   9.393  -1.072   5.605  0.8612 -0.2875 -0.3882
  468MOL0     C63087   9.441  -1.155   5.721 -0.3731  0.0556  0.6282
  468MOL0     C63088   9.333  -1.256   5.750  0.6114  0.3367 -0.6798
  468MOL0     C63089   9.366  -1.335   5.874 -0.3581  0.2133 -0.1325
  468MOL0    Cl63090   9.456  -1.477   5.809 -0.1439 -0.1006  0.0319
  468MOL0     C63091   9.890  -0.552   5.849  0.9727  0.0802  0.5614
  468MOL0     C63092  10.002  -0.542   5.920  0.4001  0.5525 -0.3536
  468MOL0     O63093  10.292  -0.648   5.957  0.7821  0.6307  0.3337
  468MOL0     C63094  10.464  -0.478   6.073  0.2614  0.4463 -0.3743
  468MOL0     C63095  10.539  -0.364   6.100  0.8880  0.3375 -0.5486
  468MOL0     N63096  10.670   0.505   6.358 -0.1610 -0.6009  1.1778
  468MOL0     N63097  10.631   0.615   6.414 -0.0176 -0.8260 -0.0486
  468MOL0     C63098  10.198   1.360   7.096 -0.7697  0.4292 -0.3979
  468MOL0     C63099  10.222   1.497   7.109  0.1002 -0.8361 -1.1552
  468MOL0     C63100  10.161   1.951   7.215  0.5020 -1.0282  0.0857
  468MOL0     C63101  10.300   1.970   7.205  0.1823  0.6230  0.4618
  468MOL0     C63102  10.363   2.091   7.243 -0.3230  0.3289 -0.6608
  468MOL0     C63103  10.282   2.199   7.291  0.5868  0.3154 -0.3384
  468MOL0     O63104  10.331   2.323   7.324 -0.0019  0.1776 -0.9645
  468MOL0     C63105  10.461   2.322   7.384  1.0033 -0.4356  0.7569
  468MOL0     C63106  10.501   2.450   7.449  0.3452 -0.3007 -0.4481
  468MOL0     C63107  10.414   2.487   7.563  0.1237  0.4481 -0.1021
  468MOL0     C63108  10.444   2.630   7.615  0.4327  0.8467 -0.0351
  468MOL0     C63109  10.584   2.659   7.636 -0.4817 -0.2949 -0.4631
  468MOL0     C63110  10.702   2.688   7.649 -0.1669  0.5484 -0.0921
  468MOL0     C63111  10.143   2.176   7.299 -0.4971 -0.4851  0.5141
  468MOL0     C63112  10.083   2.057   7.261 -0.4098  0.3356 -0.0444
  468MOL0     H63113   9.907   1.623   7.089 -1.4551 -1.0565  0.2411
  468MOL0     H63114   9.866   1.370   7.069  0.3788 -0.0921 -1.1170
  468MOL0     H63115  10.218   1.093   7.127 -0.4718  0.0269 -0.8482
  468MOL0     H63116  10.076   1.090   7.232  1.7736  0.4880  0.7404
  468MOL0     H63117  10.134   0.887   7.152  0.2722  1.0127  0.9778
  468MOL0     H63118   9.976   0.935   7.091 -0.1044  0.2064 -0.2811
  468MOL0     H63119  10.081   0.956   6.854  1.4528  1.5925 -0.1850
  468MOL0     H63120  10.238   0.936   6.925 -0.3767 -0.2116 -0.1905
  468MOL0     H63121  10.193   0.710   6.989  1.3743 -1.3254 -0.9616
  468MOL0     H63122  10.034   0.716   6.916  0.2009  1.1095  1.1044
  468MOL0     H63123  10.152   0.623   6.758 -1.3709  1.4746 -1.1272
  468MOL0     H63124  10.150   0.785   6.703 -1.0549 -0.1737  0.1100
  468MOL0     H63125  10.350   0.858   6.730 -0.8501 -0.1210 -0.1540
  468MOL0     H63126  10.383   0.756   6.868  1.7767 -1.5843 -0.2169
  468MOL0     H63127  10.530   0.692   6.706  1.9584 -1.8851 -2.4154
  468MOL0     H63128  10.417   0.564   6.710  0.5993  0.7751  0.5793
  468MOL0     H63129  10.436   0.782   6.492 -1.7220  1.4825  1.4203
  468MOL0     H63130  10.315   0.657   6.499 -0.1294  0.9217 -2.0948
  468MOL0     H63131  10.395   0.401   6.501  0.3476  0.0711  1.5037
  468MOL0     H63132  10.708   0.245   6.351 -0.4249 -0.9553 -0.2253
  468MOL0     H63133  10.554   0.193   6.412 -1.2677  1.6737  0.3879
  468MOL0     H63134  10.631   0.269   6.128 -2.3697  1.5162 -1.0407
  468MOL0     H63135  10.463   0.240   6.178 -0.0454 -0.6364  0.0323
  468MOL0     H63136  10.699   0.040   6.215 -0.4956 -3.1217 -0.1348
  468MOL0     H63137  10.613   0.054   6.064  0.0831  2.6289 -0.4177
  468MOL0     H63138  10.402  -0.028   6.167 -2.5717 -1.6111  2.8606
  468MOL0     H63139  10.462  -0.004   6.328 -1.5481  0.3446  0.6830
  468MOL0     H63140  10.307  -0.219   6.300 -1.1549 -0.9719 -0.3963
  468MOL0     H63141  10.166  -0.367   6.384  1.7990  0.8883 -0.4111
  468MOL0     H63142  10.091  -0.335   6.224 -1.5956 -0.1445  1.3409
  468MOL0     H63143  10.120  -0.506   6.292 -0.9658  0.1758  1.3388
  468MOL0     H63144   9.913  -0.776   6.143  0.4555 -1.6626 -1.6111
  468MOL0     H63145   9.706  -0.785   6.009 -0.4712  0.6585  0.2548
  468MOL0     H63146   9.607  -0.546   5.621  3.1944  2.1050 -0.6815
  468MOL0     H63147   9.773  -0.599   5.612  0.0509  1.1257 -0.6740
  468MOL0     H63148   9.611  -0.744   5.491 -3.5780  0.4470  1.2290
  468MOL0     H63149   9.739  -0.823   5.590 -1.0172 -1.6335  1.2143
  468MOL0     H63150   9.440  -0.793   5.670 -0.6697 -1.1005  0.2980
  468MOL0     H63151   9.559  -0.894   5.749 -2.7722  0.5656  1.1419
  468MOL0     H63152   9.460  -0.911   5.462 -1.4167  4.0999  2.3954
  468MOL0     H63153   9.590  -1.008   5.536  0.5887  2.0312 -1.5130
  468MOL0     H63154   9.385  -1.140   5.520 -0.4868  1.2592 -1.5591
  468MOL0     H63155   9.299  -1.020   5.627  0.8894  0.0705 -1.0763
  468MOL0     H63156   9.529  -1.208   5.683 -2.4939 -1.5972 -2.3844
  468MOL0     H63157   9.469  -1.086   5.801  0.9226  3.1799 -2.2255
  468MOL0     H63158   9.318  -1.316   5.660 -0.5311 -0.8279  0.2397
  468MOL0     H63159   9.248  -1.194   5.780  1.5407  0.1802  2.6051
  468MOL0     H63160   9.283  -1.378   5.930  0.6287 -2.0149 -0.2523
  468MOL0     H63161   9.424  -1.273   5.943  0.8605  2.8867 -3.3139
  468MOL0     H63162   9.884  -0.489   5.761  1.2564 -1.7063 -0.7946
  468MOL0     H63163  10.086  -0.475   5.903  1.3496 -0.9841 -2.2516
  468MOL0     H63164  10.509  -0.534   5.991  1.2663  2.1375 -1.0204
  468MOL0     H63165  10.645  -0.351   6.082  1.6011 -0.9404  2.1655
  468MOL0     H63166  10.282   1.294   7.112 -0.3736  0.8505 -0.7291
  468MOL0     H63167  10.325   1.529   7.123 -0.3255  0.0599  0.0945
  468MOL0     H63168  10.352   1.899   7.141  0.2168  0.4160  0.7171
  468MOL0     H63169  10.469   2.098   7.222  0.2291  0.4205  1.8263
  468MOL0     H63170  10.459   2.244   7.461  1.5114 -0.5110  0.7022
  468MOL0     H63171  10.551   2.298   7.326  0.3002 -3.4937  0.7539
  468MOL0     H63172  10.495   2.536   7.382  1.0426  0.3346  0.2735
  468MOL0     H63173  10.605   2.439   7.482  0.4742 -1.3621 -1.1328
  468MOL0     H63174  10.426   2.423   7.651  1.2355 -0.9859 -1.2423
  468MOL0     H63175  10.309   2.481   7.534  0.3349  0.5905 -0.9116
  468MOL0     H63176  10.382   2.639   7.705 -2.4642 -2.4734 -1.4482
  468MOL0     H63177  10.409   2.709   7.547  0.2523 -0.0427 -1.0042
  468MOL0     H63178  10.809   2.695   7.637 -0.0705 -0.2495  0.2533
  468MOL0     H63179  10.085   2.258   7.339  2.1803  0.8844  1.8358
  468MOL0     H63180   9.976   2.042   7.260 -0.2822 -0.6001 -0.4844
  469MOL0     O63181   5.758   7.025   2.623 -0.1203 -0.4371  0.5612
  469MOL0     C63182   5.731   7.147   2.617 -0.5668 -0.0424  0.0243
  469MOL0     O63183   5.795   7.238   2.697  0.7845 -0.2379 -0.0145
  469MOL0     C63184   5.836   7.208   2.817 -0.5014  1.4688 -0.0746
  469MOL0     C63185   5.953   7.258   2.872 -0.2406 -0.1507 -0.2847
  469MOL0     C63186   5.971   7.245   3.011 -0.1298  0.1432  0.0084
  469MOL0     C63187   5.899   7.161   3.087  0.0003 -0.3700 -0.0428
  469MOL0     O63188   5.929   7.133   3.217  0.8365  0.0715 -0.4632
  469MOL0     C63189   6.042   7.055   3.235  0.2648 -0.0168 -0.8602
  469MOL0     C63190   6.087   7.070   3.383  0.0199  0.2392  0.9242
  469MOL0     C63191   5.987   6.995   3.469  0.0975  0.6209 -0.3894
  469MOL0     C63192   6.029   6.996   3.623  0.2612  1.0393  0.6165
  469MOL0     C63193   5.918   6.920   3.702  1.3988 -0.2237 -0.5273
  469MOL0     C63194   5.969   6.870   3.836  0.8340 -1.1232 -0.5070
  469MOL0     C63195   5.854   6.806   3.927 -0.3479  0.1566  0.1617
  469MOL0     C63196   5.745   6.902   3.971 -0.3335  0.4070  0.5824
  469MOL0     N63197   5.633   6.821   4.023  0.4829 -0.7372 -1.0180
  469MOL0     C63198   5.535   6.754   3.947 -0.7213 -0.9226  1.1136
  469MOL0     C63199   5.440   6.695   4.029 -0.5915 -0.8135  0.5395
  469MOL0     C63200   5.338   6.617   3.982  0.1406 -0.9105  0.1662
  469MOL0     C63201   5.209   6.691   3.972  0.2947  0.0870 -0.1380
  469MOL0     C63202   5.103   6.601   3.894 -0.6100  0.1511 -0.3841
  469MOL0     C63203   4.965   6.657   3.897 -0.1663 -0.2116 -0.0991
  469MOL0     O63204   4.870   6.578   3.822  0.2026  0.1332  0.3377
  469MOL0     C63205   4.820   6.652   3.717 -0.2414  0.5221 -0.9247
  469MOL0     C63206   4.809   6.596   3.588 -0.2514  0.7107 -0.0046
  469MOL0     C63207   4.767   6.668   3.477 -0.1241  0.3123  0.5993
  469MOL0     C63208   4.762   6.596   3.343  0.2985 -0.1102  0.5554
  469MOL0     C63209   4.725   6.806   3.498 -0.5800  0.1284 -0.2618
  469MOL0     C63210   4.689   6.907   3.389  0.0237  0.9274  0.3147
  469MOL0     O63211   4.663   7.037   3.429 -0.2077  0.1563  0.2430
  469MOL0     C63212   4.643   7.127   3.333 -0.0376 -0.1972 -0.0218
  469MOL0     C63213   4.736   7.144   3.234 -0.3933  0.5351 -0.3204
  469MOL0     C63214   4.723   7.251   3.145  0.4316 -0.6312 -0.6180
  469MOL0     C63215   4.611   7.329   3.140  0.5429 -0.3706 -0.0660
  469MOL0     O63216   4.602   7.431   3.049 -0.0587 -0.0288  0.2473
  469MOL0     C63217   4.551   7.566   3.091 -0.7117 -0.4523  0.0491
  469MOL0     C63218   4.605   7.673   2.998 -0.6717 -0.1475  0.3471
  469MOL0     C63219   4.517   7.676   2.877 -0.7381 -0.0769  0.4706
  469MOL0     C63220   4.566   7.773   2.768 -0.2720  0.1079 -1.2454
  469MOL0     C63221   4.559   7.917   2.816 -0.7202  0.1087  0.1672
  469MOL0     C63222   4.620   8.001   2.704 -0.8025 -0.1732  0.9456
  469MOL0     C63223   4.609   8.157   2.704  1.0329  0.4177  0.0228
  469MOL0     C63224   4.725   8.221   2.767  0.6155 -0.2743 -0.3021
  469MOL0    Cl63225   4.875   8.177   2.685  0.0063  0.0314 -0.0838
  469MOL0     C63226   4.509   7.301   3.226 -0.7955 -0.2307  0.1331
  469MOL0     C63227   4.531   7.210   3.331  0.2006  0.3949  0.0172
  469MOL0     O63228   4.696   6.869   3.273  0.2590  0.0994  0.1072
  469MOL0     C63229   4.720   6.857   3.626  0.9684  0.5322 -1.2710
  469MOL0     C63230   4.766   6.783   3.732 -0.5008 -0.5560  0.0260
  469MOL0     N63231   5.484   6.724   4.156  0.3864 -0.3861 -0.3125
  469MOL0     N63232   5.595   6.806   4.155  0.5659  0.3281  0.4381
  469MOL0     C63233   5.792   7.097   3.036  1.3725  0.3110 -0.6270
  469MOL0     C63234   5.762   7.121   2.898 -0.2081  0.1448  0.4488
  469MOL0     C63235   5.638   7.187   2.512  0.1423  1.0490 -0.1395
  469MOL0     C63236   5.604   7.104   2.402  0.5254  0.2339  1.2655
  469MOL0     C63237   5.508   7.149   2.309 -0.6361 -0.1239 -0.2608
  469MOL0     C63238   5.445   7.275   2.321  0.5685  0.2621  0.2174
  469MOL0     O63239   5.349   7.309   2.231 -0.2724 -0.2068  0.0834
  469MOL0     C63240   5.221   7.285   2.279 -0.1278 -0.0416 -0.0970
  469MOL0     C63241   5.199   7.131   2.266 -0.0316 -0.8559 -0.5472
  469MOL0     C63242   5.057   7.080   2.250 -0.2765 -1.1515  0.2820
  469MOL0     C63243   5.043   6.940   2.197  0.3668 -0.1997  0.3742
  469MOL0     C63244   4.907   6.929   2.149 -0.4642  0.0226  0.2295
  469MOL0     C63245   4.797   6.907   2.108 -0.1062 -0.4898 -0.0526
  469MOL0     C63246   5.469   7.349   2.439 -0.3655 -0.7683 -0.6562
  469MOL0     C63247   5.557   7.302   2.536  0.0323 -0.0836  0.5669
  469MOL0     H63248   6.019   7.324   2.815  0.5978  1.0386  1.9441
  469MOL0     H63249   6.051   7.309   3.045  1.9829 -1.2458 -2.0688
  469MOL0     H63250   6.021   6.954   3.198 -6.6533  1.2303 -1.6129
  469MOL0     H63251   6.124   7.103   3.182  0.8624 -1.4197 -1.2383
  469MOL0     H63252   6.190   7.036   3.387  0.7353  2.2436  0.4113
  469MOL0     H63253   6.085   7.176   3.410  0.1238 -0.3592  3.5371
  469MOL0     H63254   5.892   7.049   3.465  1.4163  3.2343  0.9355
  469MOL0     H63255   5.981   6.893   3.429 -1.8475  1.1285 -1.4879
  469MOL0     H63256   6.122   6.938   3.633  0.1162  0.9825  1.7212
  469MOL0     H63257   6.045   7.097   3.661 -1.9785  2.9698 -2.9611
  469MOL0     H63258   5.823   6.974   3.708  1.3065 -0.5481  1.8294
  469MOL0     H63259   5.889   6.839   3.635 -1.1840 -2.1027  2.5740
  469MOL0     H63260   6.050   6.798   3.825  1.9905 -0.5853  3.2059
  469MOL0     H63261   6.020   6.952   3.888  1.3185 -1.2601 -0.7599
  469MOL0     H63262   5.812   6.725   3.868 -1.3745 -1.0767  2.4985
  469MOL0     H63263   5.916   6.771   4.010  0.4779  1.2236  0.0279
  469MOL0     H63264   5.716   6.971   3.891  0.1153 -0.0944 -0.0159
  469MOL0     H63265   5.793   6.975   4.038  1.4587 -0.3682  0.2093
  469MOL0     H63266   5.531   6.769   3.840 -2.0967  2.9100  1.5509
  469MOL0     H63267   5.365   6.562   3.891 -0.8896  0.8510 -1.2804
  469MOL0     H63268   5.326   6.542   4.060  0.5455 -1.2052 -0.0538
  469MOL0     H63269   5.224   6.783   3.914 -2.9467  1.0995  0.4053
  469MOL0     H63270   5.163   6.717   4.068 -0.0731 -1.4735  0.1367
  469MOL0     H63271   5.102   6.505   3.946 -0.8055  1.4304  2.1344
  469MOL0     H63272   5.137   6.592   3.791 -0.1131  1.8927 -0.4124
  469MOL0     H63273   4.974   6.758   3.855 -1.8307  0.4411  1.0218
  469MOL0     H63274   4.917   6.659   3.995 -2.8118 -1.8890 -1.2263
  469MOL0     H63275   4.868   6.507   3.567 -1.9546 -0.0596 -1.7833
  469MOL0     H63276   4.852   6.613   3.285 -0.1322  0.0208 -0.0830
  469MOL0     H63277   4.755   6.487   3.358 -0.1566  0.3485  5.0340
  469MOL0     H63278   4.669   6.618   3.289 -0.6716  0.1038  2.2267
  469MOL0     H63279   4.822   7.078   3.225 -1.8507 -1.6264  0.7062
  469MOL0     H63280   4.809   7.276   3.083  0.8798  1.7988  0.8292
  469MOL0     H63281   4.442   7.576   3.091 -0.8635 -1.7022  1.7132
  469MOL0     H63282   4.588   7.588   3.191  2.9092  0.5802 -1.3479
  469MOL0     H63283   4.587   7.764   3.055 -3.8337 -1.9457  2.5547
  469MOL0     H63284   4.709   7.662   2.966 -0.3786  1.4550  0.6631
  469MOL0     H63285   4.417   7.710   2.908 -0.6959 -0.1099  0.6437
  469MOL0     H63286   4.512   7.575   2.835 -1.1282 -0.9139  2.4146
  469MOL0     H63287   4.667   7.745   2.737 -0.3929  1.9634 -3.5856
  469MOL0     H63288   4.488   7.768   2.691 -4.3257  2.7260  2.2270
  469MOL0     H63289   4.609   7.936   2.912  1.4841 -0.4646 -0.7969
  469MOL0     H63290   4.455   7.944   2.836 -0.2283  1.4246  1.1212
  469MOL0     H63291   4.726   7.974   2.697 -0.2122  2.2972 -1.5082
  469MOL0     H63292   4.573   7.961   2.613 -1.5667 -0.8526  1.6209
  469MOL0     H63293   4.526   8.173   2.774  1.4005 -0.2103  0.6145
  469MOL0     H63294   4.591   8.189   2.601  0.5052 -3.0378 -1.0678
  469MOL0     H63295   4.732   8.197   2.873  1.4641 -0.7040 -0.4503
  469MOL0     H63296   4.697   8.327   2.774  2.0476 -0.0048  2.6114
  469MOL0     H63297   4.414   7.353   3.213 -0.2924  1.2480  1.9897
  469MOL0     H63298   4.464   7.226   3.415 -1.2660 -0.9368 -0.8503
  469MOL0     H63299   4.675   6.953   3.649 -2.3525 -1.1996  0.2001
  469MOL0     H63300   4.778   6.825   3.831  0.5425  2.2817 -1.1837
  469MOL0     H63301   5.727   7.032   3.093 -0.0801  2.2588  0.0615
  469MOL0     H63302   5.672   7.069   2.868  0.6618 -1.4715  0.5365
  469MOL0     H63303   5.655   7.010   2.384  2.4106  1.3105  0.7101
  469MOL0     H63304   5.490   7.082   2.226  2.7091 -0.9381 -0.4790
  469MOL0     H63305   5.192   7.319   2.379 -2.6015  2.0049 -1.3964
  469MOL0     H63306   5.156   7.339   2.209  1.1715  1.9438  0.1520
  469MOL0     H63307   5.240   7.072   2.348 -1.8485 -1.1632  0.1830
  469MOL0     H63308   5.255   7.099   2.177  0.0873  0.7892 -1.1092
  469MOL0     H63309   5.016   7.156   2.182 -0.3951  1.5010  3.1128
  469MOL0     H63310   5.007   7.091   2.346  2.2650  0.9840  1.4994
  469MOL0     H63311   5.071   6.852   2.254 -0.6236 -0.8610 -0.1272
  469MOL0     H63312   5.104   6.927   2.107  3.0268 -0.1925  2.1010
  469MOL0     H63313   4.690   6.909   2.102 -0.1058  0.8758  0.1234
  469MOL0     H63314   5.413   7.442   2.446 -0.1334 -0.4079 -2.8633
  469MOL0     H63315   5.577   7.345   2.633  1.9238 -4.9935  2.6730
  470MOL0     O63316   9.062   8.150   3.162  0.2937 -0.7634 -0.1151
  470MOL0     C63317   9.023   8.253   3.222  0.4264 -0.6492 -0.5219
  470MOL0     O63318   8.891   8.299   3.217 -0.6655  0.6533 -1.0266
  470MOL0     C63319   8.791   8.229   3.159 -0.5087  0.2958  0.2834
  470MOL0     C63320   8.766   8.095   3.183 -0.5982 -1.5206 -1.0096
  470MOL0     C63321   8.650   8.034   3.134  0.0373 -0.5872 -0.3719
  470MOL0     C63322   8.551   8.103   3.068  0.2305  0.2351  0.2633
  470MOL0     O63323   8.444   8.026   3.020 -0.6587  0.8381 -0.5929
  470MOL0     C63324   8.321   8.103   3.007  0.0877  0.2530  0.3294
  470MOL0     C63325   8.201   8.019   3.060 -0.1257 -0.2509 -0.9279
  470MOL0     C63326   8.069   8.063   2.997  0.1693  0.3676  0.5797
  470MOL0     C63327   7.966   7.994   3.080  0.9070  0.4120 -0.1535
  470MOL0     C63328   7.830   8.037   3.014  0.2341 -0.5084 -0.5442
  470MOL0     C63329   7.709   7.974   3.079 -0.1548  0.2051 -0.1136
  470MOL0     C63330   7.576   8.016   3.006  0.2251  0.8146 -0.3249
  470MOL0     C63331   7.548   7.954   2.866  0.2076 -0.0654 -0.0496
  470MOL0     N63332   7.436   8.017   2.806  0.2244 -0.2127 -0.5569
  470MOL0     C63333   7.339   7.941   2.752 -0.2153 -0.9535  0.0275
  470MOL0     C63334   7.240   8.036   2.718  0.3379 -0.0292  1.2020
  470MOL0     C63335   7.100   7.997   2.663  0.1722 -0.8145 -0.4065
  470MOL0     C63336   7.100   7.895   2.556 -0.5455 -0.8365 -0.0256
  470MOL0     C63337   6.953   7.850   2.516  0.4912 -0.4567  0.0073
  470MOL0     C63338   6.944   7.694   2.517  1.1681  1.0647 -0.6930
  470MOL0     O63339   6.955   7.649   2.660  0.7183  0.2788 -0.5593
  470MOL0     C63340   6.908   7.524   2.685  0.3390 -0.8094  0.3280
  470MOL0     C63341   6.877   7.431   2.587  0.0870 -0.2644 -0.0639
  470MOL0     C63342   6.841   7.297   2.613  0.0184  0.6772 -1.4403
  470MOL0     C63343   6.787   7.214   2.494  0.6273  0.6446 -0.0614
  470MOL0     C63344   6.857   7.251   2.744 -0.6274 -0.6119 -0.3864
  470MOL0     C63345   6.825   7.121   2.791  0.1808  0.6361 -0.2036
  470MOL0     O63346   6.711   7.074   2.749  0.7109  0.3551  0.2174
  470MOL0     C63347   6.686   6.937   2.768  0.3588 -0.2542  0.4846
  470MOL0     C63348   6.707   6.831   2.676 -0.8771  0.4940 -0.6217
  470MOL0     C63349   6.668   6.701   2.710  0.2888  0.1611  0.2521
  470MOL0     C63350   6.607   6.668   2.831 -1.2882 -0.2903  0.2263
  470MOL0     O63351   6.577   6.541   2.874 -0.2729  0.5971  0.3422
  470MOL0     C63352   6.452   6.504   2.806  0.6264 -0.7018 -0.1724
  470MOL0     C63353   6.422   6.356   2.812  0.1925  0.2565 -0.1136
  470MOL0     C63354   6.386   6.330   2.957  0.2343 -0.0394 -0.1500
  470MOL0     C63355   6.356   6.178   2.975  0.2188 -0.4945  0.0149
  470MOL0     C63356   6.206   6.139   2.953 -1.0657 -1.2184  0.1010
  470MOL0     C63357   6.199   5.985   2.943  0.3068 -0.3284  0.6589
  470MOL0     C63358   6.236   5.912   3.072 -0.6435 -0.5045  0.3324
  470MOL0     C63359   6.209   5.762   3.073 -0.2064 -0.6343 -0.3173
  470MOL0    Cl63360   6.294   5.706   3.212 -0.2121 -0.1373 -0.1462
  470MOL0     C63361   6.587   6.778   2.917 -1.1292  0.6744  0.5259
  470MOL0     C63362   6.620   6.907   2.886 -0.9442 -0.6961  0.2906
  470MOL0     O63363   6.898   7.064   2.870 -0.3839  0.3638  0.3555
  470MOL0     C63364   6.892   7.346   2.849 -0.2524 -0.0732 -0.0299
  470MOL0     C63365   6.919   7.479   2.813 -1.2031 -0.1563 -1.3335
  470MOL0     N63366   7.308   8.161   2.729  0.8600  0.2507  0.0310
  470MOL0     N63367   7.423   8.150   2.775 -0.1650  0.3895  0.0660
  470MOL0     C63368   8.577   8.234   3.039  0.6794  0.3053 -1.3091
  470MOL0     C63369   8.688   8.298   3.087 -0.9077  0.1878 -0.0512
  470MOL0     C63370   9.121   8.329   3.304 -0.1635 -0.3845  0.3738
  470MOL0     C63371   9.261   8.324   3.273  0.3053  0.1691  0.1948
  470MOL0     C63372   9.351   8.394   3.346  0.2570 -0.3385 -0.3988
  470MOL0     C63373   9.308   8.483   3.451  0.0180  1.2668  0.1496
  470MOL0     O63374   9.374   8.576   3.528 -0.0029 -0.1619  0.2063
  470MOL0     C63375   9.517   8.582   3.501  0.5429 -0.0026 -0.1570
  470MOL0     C63376   9.572   8.712   3.543 -0.2786  0.3434  0.3218
  470MOL0     C63377   9.721   8.696   3.572  0.3260  0.2293 -0.3219
  470MOL0     C63378   9.777   8.744   3.711  0.2102  0.5313 -0.1555
  470MOL0     C63379   9.708   8.665   3.810 -0.9242  0.5384 -0.1983
  470MOL0     C63380   9.649   8.617   3.906 -0.0970 -0.0193  0.4407
  470MOL0     C63381   9.172   8.486   3.473 -0.3772  0.2505 -0.6490
  470MOL0     C63382   9.077   8.411   3.402  0.3734  0.5419 -1.6486
  470MOL0     H63383   8.853   8.047   3.225  0.5562  1.9783  1.0317
  470MOL0     H63384   8.628   7.932   3.164 -0.3203 -0.8163 -1.3571
  470MOL0     H63385   8.314   8.201   3.056 -0.5143 -0.5619  1.9747
  470MOL0     H63386   8.297   8.117   2.901  2.0557 -0.7939 -0.2912
  470MOL0     H63387   8.217   7.912   3.049 -0.6582 -1.1968  4.7451
  470MOL0     H63388   8.200   8.025   3.169 -0.9669  0.3689 -0.9525
  470MOL0     H63389   8.064   8.172   3.005  0.1233  0.4009  0.1047
  470MOL0     H63390   8.059   8.045   2.890  0.3753  0.7947  0.4837
  470MOL0     H63391   7.958   7.886   3.071 -2.2737  0.7326 -3.0985
  470MOL0     H63392   7.967   8.021   3.187  0.9465 -2.5265  0.6755
  470MOL0     H63393   7.823   8.145   3.027  0.0537 -0.6551  0.7089
  470MOL0     H63394   7.835   8.008   2.909  0.0040 -2.3287 -0.0995
  470MOL0     H63395   7.729   7.867   3.073  2.2656  0.3222  2.8973
  470MOL0     H63396   7.709   7.992   3.187 -1.0288 -0.6289  0.0365
  470MOL0     H63397   7.497   7.989   3.077  0.9157 -0.1345  0.1060
  470MOL0     H63398   7.582   8.125   3.011  0.5731  0.7558  2.7129
  470MOL0     H63399   7.536   7.845   2.868  0.2546 -0.1916 -2.8220
  470MOL0     H63400   7.643   7.970   2.815  0.7623 -0.1683  0.9315
  470MOL0     H63401   7.327   7.833   2.757 -1.4492 -0.8408 -0.2478
  470MOL0     H63402   7.033   7.972   2.746 -1.3467  1.4348 -0.8394
  470MOL0     H63403   7.065   8.086   2.610  1.3920  0.5871  1.0474
  470MOL0     H63404   7.159   7.812   2.596  1.8667  1.1718  0.9342
  470MOL0     H63405   7.155   7.923   2.465 -0.6087  3.9434  1.1119
  470MOL0     H63406   6.921   7.875   2.414 -1.7505 -2.1921  0.1875
  470MOL0     H63407   6.874   7.887   2.582  1.3679  1.0624  0.2438
  470MOL0     H63408   7.031   7.662   2.458  1.1473  2.2503 -1.3962
  470MOL0     H63409   6.855   7.657   2.466  1.3624 -2.2818  1.1441
  470MOL0     H63410   6.883   7.447   2.479 -0.9575 -0.7828 -0.2165
  470MOL0     H63411   6.689   7.256   2.467  0.3263 -0.4086 -0.6552
  470MOL0     H63412   6.847   7.210   2.403 -0.4758  1.1428 -0.8382
  470MOL0     H63413   6.772   7.109   2.519 -0.2750  0.7028 -0.3161
  470MOL0     H63414   6.760   6.858   2.586  1.4118 -0.4754  0.3607
  470MOL0     H63415   6.693   6.623   2.638  2.9889  2.5785 -1.6975
  470MOL0     H63416   6.375   6.562   2.859  0.0262 -0.0643 -1.6687
  470MOL0     H63417   6.442   6.551   2.708 -1.1868 -0.1311  0.2343
  470MOL0     H63418   6.337   6.336   2.746 -1.9894 -0.3501  2.6951
  470MOL0     H63419   6.513   6.299   2.789  1.2909  1.3482  1.3349
  470MOL0     H63420   6.298   6.386   2.989  0.6612  0.8108 -0.4264
  470MOL0     H63421   6.473   6.363   3.014  1.0558 -0.8231 -0.9142
  470MOL0     H63422   6.410   6.113   2.905 -1.2493 -2.8713  0.9912
  470MOL0     H63423   6.390   6.156   3.076  0.4504  0.9580  0.2786
  470MOL0     H63424   6.159   6.178   2.863 -1.2551 -1.8615 -0.0854
  470MOL0     H63425   6.159   6.166   3.048  1.6223 -2.1606  1.8307
  470MOL0     H63426   6.094   5.962   2.921 -0.4043  0.2208  3.1472
  470MOL0     H63427   6.255   5.947   2.857 -2.2793 -0.3945 -1.1526
  470MOL0     H63428   6.188   5.951   3.163  1.7292 -1.3620  2.0550
  470MOL0     H63429   6.340   5.927   3.101 -0.6415  1.2840 -0.4487
  470MOL0     H63430   6.244   5.709   2.984 -3.7129 -1.3687 -1.4192
  470MOL0     H63431   6.102   5.737   3.074 -0.4496  0.3174  1.3615
  470MOL0     H63432   6.542   6.740   3.008  0.6497 -2.6848  0.1832
  470MOL0     H63433   6.593   6.983   2.959 -0.6248 -1.1248  0.8644
  470MOL0     H63434   6.904   7.302   2.947 -0.1317 -1.9610 -0.8625
  470MOL0     H63435   6.957   7.554   2.882  0.2155 -1.1405 -1.0146
  470MOL0     H63436   8.500   8.298   2.998  0.4958  1.2273  0.3996
  470MOL0     H63437   8.689   8.402   3.056 -2.5537  0.0230 -0.7636
  470MOL0     H63438   9.282   8.245   3.202  1.7774 -1.4871  2.3233
  470MOL0     H63439   9.455   8.388   3.314  0.6067 -3.5560  1.0205
  470MOL0     H63440   9.565   8.503   3.558 -0.8240  1.0260  2.6007
  470MOL0     H63441   9.542   8.564   3.396 -1.4590  1.1353 -0.8976
  470MOL0     H63442   9.522   8.766   3.624 -1.3455 -0.6803  0.3665
  470MOL0     H63443   9.562   8.776   3.454  2.1718  0.1274 -0.1890
  470MOL0     H63444   9.760   8.759   3.491  0.1191  0.6412 -0.1045
  470MOL0     H63445   9.756   8.594   3.554 -1.6695 -0.4893 -0.3759
  470MOL0     H63446   9.765   8.850   3.736 -2.5756 -0.2515  2.3510
  470MOL0     H63447   9.886   8.735   3.709  0.2825 -0.0990  2.7307
  470MOL0     H63448   9.597   8.569   3.986 -0.3663 -0.7973 -0.1866
  470MOL0     H63449   9.128   8.555   3.545 -1.4234 -2.0954  1.0759
  470MOL0     H63450   8.972   8.414   3.428  0.4842 -2.9536 -0.2765
  471MOL0     O63451   0.202   8.507   8.544 -0.4300  0.4146  0.7864
  471MOL0     C63452   0.252   8.398   8.535 -0.0182 -0.0562 -0.0882
  471MOL0     O63453   0.293   8.314   8.639  0.1040 -0.1332 -0.8446
  471MOL0     C63454   0.254   8.348   8.768  0.0057 -0.0120  0.7230
  471MOL0     C63455   0.315   8.461   8.835  0.3983  1.0977 -0.5933
  471MOL0     C63456   0.280   8.471   8.971 -0.7007 -0.6182  0.0281
  471MOL0     C63457   0.198   8.383   9.029 -0.3779  0.1322  0.1365
  471MOL0     O63458   0.162   8.421   9.154 -0.3332 -0.1360  0.5511
  471MOL0     C63459   0.034   8.394   9.197  0.2792  0.0470  0.2521
  471MOL0     C63460   0.021   8.289   9.307 -0.2855 -0.5845  0.2517
  471MOL0     C63461   0.099   8.162   9.287  0.3053 -0.6535 -0.6356
  471MOL0     C63462   0.113   8.104   9.433 -0.8313 -0.1002 -0.0709
  471MOL0     C63463   0.170   7.961   9.439  0.6119  0.1602 -0.3370
  471MOL0     C63464   0.185   7.934   9.588 -0.4381  0.4846 -0.3018
  471MOL0     C63465   0.240   7.787   9.620  0.8099 -0.4726  0.0617
  471MOL0     C63466   0.263   7.782   9.771 -0.2788 -0.3071  0.8329
  471MOL0     N63467   0.260   7.640   9.806 -0.1822  0.5745 -0.1323
  471MOL0     C63468   0.366   7.568   9.866  0.7195 -0.5593  0.1499
  471MOL0     C63469   0.327   7.444   9.874 -0.3201  1.2824  1.2138
  471MOL0     C63470   0.420   7.337   9.930  0.5248 -0.1868 -0.3063
  471MOL0     C63471   0.437   7.348  10.084  0.8983 -0.2218 -0.2543
  471MOL0     C63472   0.351   7.254  10.163 -0.4647  0.8288  1.4337
  471MOL0     C63473   0.370   7.280  10.313  0.0380  0.2361 -0.0840
  471MOL0     O63474   0.509   7.255  10.354  0.5419 -0.2919  0.0178
  471MOL0     C63475   0.535   7.247  10.485 -0.2100 -0.3150 -0.2852
  471MOL0     C63476   0.671   7.212  10.504 -0.6583 -1.2492 -0.1678
  471MOL0     C63477   0.721   7.201  10.634  0.3771 -0.3841 -0.1462
  471MOL0     C63478   0.857   7.133  10.647  0.4538  0.1168  0.4536
  471MOL0     C63479   0.647   7.234  10.746 -0.0022 -0.0982  0.8098
  471MOL0     C63480   0.699   7.235  10.886 -0.6506  0.3032  0.0366
  471MOL0     O63481   0.837   7.267  10.909 -0.5916 -0.5972 -0.6030
  471MOL0     C63482   0.914   7.244  11.024  0.9080  0.4605  0.0232
  471MOL0     C63483   0.866   7.149  11.112 -0.9249 -0.8977 -1.0831
  471MOL0     C63484   0.942   7.138  11.234  0.1711  0.0278  0.7440
  471MOL0     C63485   1.053   7.222  11.267  0.5234 -0.0119 -0.0880
  471MOL0     O63486   1.131   7.214  11.381  0.2392  0.1934 -0.1937
  471MOL0     C63487   1.176   7.082  11.414 -0.3728 -0.9891  0.0790
  471MOL0     C63488   1.321   7.104  11.459 -0.9855 -0.7200 -0.9560
  471MOL0     C63489   1.372   6.962  11.481 -0.3536 -0.0289  0.6111
  471MOL0     C63490   1.524   6.958  11.504 -0.1424 -0.2190  1.0821
  471MOL0     C63491   1.560   6.828  11.574  0.6369  0.2920 -0.6416
  471MOL0     C63492   1.537   6.843  11.730 -0.3121  0.5838  0.1424
  471MOL0     C63493   1.565   6.714  11.813  0.8791  0.2820  0.3260
  471MOL0     C63494   1.533   6.757  11.955 -0.7585  0.1425 -0.5716
  471MOL0    Cl63495   1.625   6.897  12.023 -0.2604  0.4197  0.2657
  471MOL0     C63496   1.086   7.325  11.178  0.1955 -0.6092  0.3634
  471MOL0     C63497   1.020   7.331  11.056  0.5590 -0.0832  0.2871
  471MOL0     O63498   0.610   7.230  10.974 -0.3866 -0.6791 -0.3049
  471MOL0     C63499   0.509   7.276  10.727  0.5492 -0.2022  0.3968
  471MOL0     C63500   0.457   7.278  10.599 -0.1433 -0.3140  0.2929
  471MOL0     N63501   0.193   7.438   9.839 -0.0332 -0.5743  1.0101
  471MOL0     N63502   0.157   7.555   9.799  0.1563 -0.2909  0.4400
  471MOL0     C63503   0.159   8.267   8.957  0.2466 -0.0885 -0.3806
  471MOL0     C63504   0.188   8.248   8.829  0.0787  0.0676  0.1753
  471MOL0     C63505   0.281   8.338   8.407  0.0869  0.6245  0.4365
  471MOL0     C63506   0.375   8.233   8.386 -1.0487 -0.2832  0.3295
  471MOL0     C63507   0.409   8.197   8.258  0.2166  0.2326  0.1174
  471MOL0     C63508   0.356   8.268   8.152  0.1959 -0.1794 -0.6657
  471MOL0     O63509   0.389   8.254   8.019 -0.0057 -0.3258 -0.4980
  471MOL0     C63510   0.466   8.138   7.987 -0.0288  0.2441  0.6306
  471MOL0     C63511   0.613   8.167   8.027 -0.4743  0.2936 -0.2845
  471MOL0     C63512   0.680   8.262   7.936 -0.3551 -0.4486 -0.4379
  471MOL0     C63513   0.713   8.198   7.794  0.8050  0.7327  0.8320
  471MOL0     C63514   0.843   8.225   7.743 -0.1772  0.0554 -0.1496
  471MOL0     C63515   0.954   8.264   7.716 -1.0236  0.1680  0.4573
  471MOL0     C63516   0.258   8.365   8.179  0.2922  0.5565 -0.5558
  471MOL0     C63517   0.215   8.399   8.302  0.1917  0.7837  0.8545
  471MOL0     H63518   0.374   8.532   8.777  2.4270 -0.5437 -0.6679
  471MOL0     H63519   0.304   8.545   9.046 -1.9686 -1.4160  1.2738
  471MOL0     H63520  -0.016   8.483   9.236 -2.1663 -0.1525 -2.2051
  471MOL0     H63521  -0.032   8.362   9.116 -1.6987  1.3315  1.2585
  471MOL0     H63522   0.062   8.331   9.399 -1.5620  1.6150 -0.1251
  471MOL0     H63523  -0.087   8.270   9.318 -0.7580  1.7191  0.0541
  471MOL0     H63524   0.044   8.096   9.219 -0.7981 -0.4929  0.0653
  471MOL0     H63525   0.199   8.181   9.248  0.7247 -1.4752  0.0085
  471MOL0     H63526   0.165   8.176   9.497  0.3205  1.6531 -2.8388
  471MOL0     H63527   0.012   8.094   9.474  0.4606 -2.4422  3.0302
  471MOL0     H63528   0.108   7.884   9.392 -0.2576  0.9421 -0.5047
  471MOL0     H63529   0.274   7.958   9.405  0.1719  1.2432 -1.9021
  471MOL0     H63530   0.251   8.004   9.640 -0.7482 -0.4653  1.4456
  471MOL0     H63531   0.087   7.937   9.635 -0.5712 -1.0737 -0.4284
  471MOL0     H63532   0.171   7.710   9.584  2.3145 -1.5739 -0.5877
  471MOL0     H63533   0.340   7.766   9.579  1.4759 -0.9310  1.8243
  471MOL0     H63534   0.182   7.835   9.820 -0.8059 -0.7123  0.4115
  471MOL0     H63535   0.363   7.819   9.796  1.0274 -1.6575 -1.8722
  471MOL0     H63536   0.468   7.600   9.886 -0.3219  0.9148  3.9916
  471MOL0     H63537   0.371   7.242   9.907 -1.7704  0.8215  0.1015
  471MOL0     H63538   0.510   7.356   9.871  0.3707 -3.0416 -1.6184
  471MOL0     H63539   0.420   7.449  10.124  1.4470  0.5345 -1.8697
  471MOL0     H63540   0.542   7.325  10.104  1.3631 -0.4280 -2.6412
  471MOL0     H63541   0.362   7.147  10.141 -2.0788  0.9928 -0.4451
  471MOL0     H63542   0.251   7.272  10.122  0.6204  1.0764 -1.3151
  471MOL0     H63543   0.312   7.216  10.381  4.5814 -0.7690  3.3623
  471MOL0     H63544   0.335   7.383  10.327  1.4411  0.5434  1.5769
  471MOL0     H63545   0.738   7.186  10.422  0.6088 -0.6845  0.6531
  471MOL0     H63546   0.881   7.088  10.550  0.2955  0.1262  0.4090
  471MOL0     H63547   0.938   7.200  10.675  0.2115 -0.3909  2.5147
  471MOL0     H63548   0.840   7.047  10.713 -0.7100 -1.2001 -1.4396
  471MOL0     H63549   0.782   7.085  11.088 -0.8996 -1.6431  0.6629
  471MOL0     H63550   0.922   7.057  11.303 -0.6240  0.0667  0.5610
  471MOL0     H63551   1.120   7.033  11.494  3.4133 -1.7721  2.5514
  471MOL0     H63552   1.186   7.025  11.322 -2.8192  2.2066 -2.4351
  471MOL0     H63553   1.394   7.148  11.391  0.6743 -1.4960  0.2537
  471MOL0     H63554   1.326   7.152  11.557 -0.1697 -1.9449 -0.3743
  471MOL0     H63555   1.341   6.905  11.392 -3.5793  3.3341 -0.6744
  471MOL0     H63556   1.309   6.925  11.562 -0.1844  2.0191  1.7456
  471MOL0     H63557   1.588   6.977  11.417 -0.3950  1.4358  1.2242
  471MOL0     H63558   1.554   7.043  11.567  1.5477 -2.3642  3.3946
  471MOL0     H63559   1.660   6.795  11.545  0.2845 -2.9444  1.3963
  471MOL0     H63560   1.489   6.751  11.542  0.0866  0.2092  0.6878
  471MOL0     H63561   1.602   6.926  11.758 -1.7460  0.9566  2.6024
  471MOL0     H63562   1.436   6.877  11.753  0.3113  1.2838  2.0628
  471MOL0     H63563   1.670   6.688  11.795  0.5055  0.5100 -2.5918
  471MOL0     H63564   1.503   6.624  11.801 -0.4306  0.8681  2.2872
  471MOL0     H63565   1.553   6.665  12.011  1.1442 -1.3656 -3.4735
  471MOL0     H63566   1.425   6.763  11.972 -0.4602 -1.2097  2.4659
  471MOL0     H63567   1.163   7.394  11.211 -1.0577  0.0610  2.0258
  471MOL0     H63568   1.045   7.412  10.988 -2.1727  0.0683 -0.6532
  471MOL0     H63569   0.443   7.307  10.807  0.7995 -0.6354  0.7794
  471MOL0     H63570   0.356   7.318  10.593 -0.3573 -0.8825  0.0478
  471MOL0     H63571   0.109   8.190   9.015  2.6608 -1.2366  0.2912
  471MOL0     H63572   0.156   8.156   8.782 -2.0836  0.7282  0.2399
  471MOL0     H63573   0.421   8.182   8.469  4.4281  1.4951 -1.1922
  471MOL0     H63574   0.478   8.113   8.258 -1.3273 -1.1096 -1.5708
  471MOL0     H63575   0.418   8.050   8.032 -0.0055  0.2874  0.7407
  471MOL0     H63576   0.466   8.120   7.879 -1.3333 -4.3425  1.1930
  471MOL0     H63577   0.671   8.075   8.034  3.9014  2.6173 -1.9548
  471MOL0     H63578   0.627   8.208   8.127  0.6629  0.6645 -0.5780
  471MOL0     H63579   0.767   8.297   7.992 -3.8393  4.6730  2.6379
  471MOL0     H63580   0.611   8.347   7.931 -0.3872 -0.3577  1.0967
  471MOL0     H63581   0.630   8.219   7.726 -0.7405  1.0534  2.7480
  471MOL0     H63582   0.720   8.089   7.797  1.0548  0.7585  1.3783
  471MOL0     H63583   1.054   8.295   7.695 -1.5502  1.1056 -0.7681
  471MOL0     H63584   0.211   8.415   8.095  0.1765  1.0152 -0.2280
  471MOL0     H63585   0.138   8.474   8.321  0.5368  0.7798  2.3953
  472MOL0     O63586   1.310   1.186  10.319  0.4724 -0.3011 -0.1931
  472MOL0     C63587   1.214   1.145  10.251 -1.2368  0.3172 -0.7929
  472MOL0     O63588   1.116   1.070  10.292  0.2856  0.0673  1.1330
  472MOL0     C63589   1.123   0.992  10.405 -0.0320 -0.6578  0.8568
  472MOL0     C63590   1.140   1.033  10.540 -0.9637 -0.2227 -0.2539
  472MOL0     C63591   1.139   0.951  10.649 -0.1693 -0.2843  0.9573
  472MOL0     C63592   1.081   0.829  10.629 -0.0946 -0.3309  0.1952
  472MOL0     O63593   1.071   0.747  10.737 -0.3937  0.0194 -0.5581
  472MOL0     C63594   0.997   0.803  10.853  0.0094 -0.2991 -0.0166
  472MOL0     C63595   0.936   0.698  10.940  0.3566  0.2597 -0.3448
  472MOL0     C63596   0.808   0.630  10.877 -0.4406 -0.0640  0.0406
  472MOL0     C63597   0.756   0.532  10.981  0.3115  0.7948  0.0212
  472MOL0     C63598   0.626   0.466  10.949  0.1917  0.7513  0.2254
  472MOL0     C63599   0.603   0.374  11.072 -0.1697 -0.2079  0.2100
  472MOL0     C63600   0.465   0.298  11.079 -0.0003 -0.8361  0.0669
  472MOL0     C63601   0.423   0.239  10.947 -0.1808 -0.2244 -0.4512
  472MOL0     N63602   0.288   0.180  10.952 -0.0287  0.0195 -0.1336
  472MOL0     C63603   0.271   0.047  10.935 -0.1448 -0.2306 -0.8086
  472MOL0     C63604   0.135   0.031  10.943 -0.5856  0.1598 -0.0657
  472MOL0     C63605   0.056  -0.107  10.949 -0.7188 -0.7865 -0.3146
  472MOL0     C63606  -0.089  -0.089  10.908 -0.5679  0.1673 -0.5126
  472MOL0     C63607  -0.165  -0.220  10.901  0.0694 -0.2406 -0.8493
  472MOL0     C63608  -0.292  -0.199  10.819 -0.4304 -0.0161 -0.1540
  472MOL0     O63609  -0.374  -0.104  10.887 -0.6078  0.5362 -0.4522
  472MOL0     C63610  -0.503  -0.137  10.891 -0.3315 -0.4573 -0.6682
  472MOL0     C63611  -0.567  -0.116  11.014  0.3595  0.5072 -0.1315
  472MOL0     C63612  -0.706  -0.141  11.031  0.2596 -0.2775 -0.6081
  472MOL0     C63613  -0.760  -0.116  11.164  0.0119 -0.8185 -0.2794
  472MOL0     C63614  -0.787  -0.173  10.918 -0.5946  0.0495  0.4947
  472MOL0     C63615  -0.932  -0.185  10.917  0.5284 -0.8340  0.4557
  472MOL0     O63616  -1.001  -0.221  10.799  0.7772  0.1486  0.4897
  472MOL0     C63617  -1.138  -0.228  10.776 -0.1679  0.3712 -0.0031
  472MOL0     C63618  -1.231  -0.126  10.797 -0.3290  1.3697 -0.3207
  472MOL0     C63619  -1.360  -0.132  10.741 -0.2944 -0.0011  0.6333
  472MOL0     C63620  -1.401  -0.243  10.668  0.2858 -0.7946  0.3685
  472MOL0     O63621  -1.531  -0.246  10.630 -0.2860  0.1799  0.9241
  472MOL0     C63622  -1.600  -0.374  10.605 -0.8339 -0.4338  0.8921
  472MOL0     C63623  -1.742  -0.374  10.604  0.7764 -1.1711 -0.5235
  472MOL0     C63624  -1.807  -0.512  10.596  0.4624  0.8471  0.0101
  472MOL0     C63625  -1.950  -0.512  10.553  0.2625  0.4134  0.7858
  472MOL0     C63626  -2.023  -0.645  10.562 -0.2540  0.1013 -1.4880
  472MOL0     C63627  -2.159  -0.617  10.505  0.4787  0.5644 -0.0347
  472MOL0     C63628  -2.154  -0.598  10.353 -0.4658 -0.5182  0.0878
  472MOL0     C63629  -2.267  -0.670  10.273  0.1577  0.1713 -0.1890
  472MOL0    Cl63630  -2.230  -0.845  10.238 -0.2064  0.1890 -0.2550
  472MOL0     C63631  -1.314  -0.350  10.655 -0.1036  0.2936 -0.2181
  472MOL0     C63632  -1.185  -0.332  10.695  0.6474 -0.1605 -0.2324
  472MOL0     O63633  -0.988  -0.144  11.017 -0.0997  0.2077 -0.1108
  472MOL0     C63634  -0.723  -0.200  10.795 -0.0282  0.7596  0.6035
  472MOL0     C63635  -0.583  -0.182  10.788 -0.4985  0.9027  0.7622
  472MOL0     N63636   0.075   0.154  10.956  0.2668 -0.0567 -1.0664
  472MOL0     N63637   0.170   0.246  10.953  0.6282  0.5043  0.4886
  472MOL0     C63638   1.047   0.783  10.498 -0.3015 -0.4966  0.6738
  472MOL0     C63639   1.078   0.863  10.385 -0.0548  1.0637 -0.5537
  472MOL0     C63640   1.194   1.198  10.114  0.2192  0.1089  0.4883
  472MOL0     C63641   1.260   1.318  10.075 -0.5281  0.2614  0.1111
  472MOL0     C63642   1.232   1.370   9.953 -0.2940 -0.9122 -0.4057
  472MOL0     C63643   1.177   1.295   9.849  0.2555  0.7120 -0.0727
  472MOL0     O63644   1.158   1.327   9.716 -0.8866  0.0430 -0.6865
  472MOL0     C63645   1.147   1.462   9.684  0.6078 -0.2905  0.0665
  472MOL0     C63646   1.058   1.466   9.548  0.1557  0.4440 -0.7538
  472MOL0     C63647   0.924   1.385   9.549 -0.9273 -0.0465 -0.5295
  472MOL0     C63648   0.871   1.375   9.407 -0.1081 -0.6918 -0.0862
  472MOL0     C63649   0.745   1.294   9.427  0.3641 -0.4371  0.7799
  472MOL0     C63650   0.646   1.226   9.423 -0.5319  0.5722 -1.0076
  472MOL0     C63651   1.121   1.176   9.884 -0.8126 -0.1445 -0.3397
  472MOL0     C63652   1.125   1.126  10.015  0.0889  0.1017  0.7080
  472MOL0     H63653   1.174   1.133  10.568  1.4376 -0.8122 -0.8217
  472MOL0     H63654   1.169   0.970  10.752  2.4797 -2.1322  0.6298
  472MOL0     H63655   1.073   0.848  10.917 -0.5040 -1.0202  1.1366
  472MOL0     H63656   0.912   0.868  10.829 -0.8598 -0.9182  1.2509
  472MOL0     H63657   1.004   0.615  10.961 -1.1975 -0.9088  0.3100
  472MOL0     H63658   0.896   0.739  11.033  0.0346 -1.1074  0.1377
  472MOL0     H63659   0.730   0.704  10.860 -1.7256 -1.5548 -0.8407
  472MOL0     H63660   0.834   0.587  10.780  1.0197  2.1688 -0.6228
  472MOL0     H63661   0.830   0.453  10.998 -1.6190 -1.8858 -2.9815
  472MOL0     H63662   0.739   0.591  11.072 -1.0478 -1.2134  1.1592
  472MOL0     H63663   0.551   0.545  10.943  1.0300  1.4676 -1.4613
  472MOL0     H63664   0.630   0.410  10.854 -0.3719 -0.5653  0.9498
  472MOL0     H63665   0.683   0.301  11.074  1.9163  1.8261 -2.3018
  472MOL0     H63666   0.599   0.437  11.162 -1.9767  1.8320 -1.1866
  472MOL0     H63667   0.468   0.213  11.148 -1.7668 -4.0959 -3.5019
  472MOL0     H63668   0.389   0.368  11.114 -0.6503 -0.9801 -0.9976
  472MOL0     H63669   0.506   0.179  10.908  1.2349  2.8604 -2.5917
  472MOL0     H63670   0.419   0.306  10.861 -1.2219 -1.0775 -1.0832
  472MOL0     H63671   0.353  -0.024  10.932  2.9499  2.9153  1.4813
  472MOL0     H63672   0.111  -0.186  10.897  2.1554 -0.4929  2.0422
  472MOL0     H63673   0.067  -0.141  11.052 -4.1054 -5.3203 -1.1271
  472MOL0     H63674  -0.096  -0.037  10.812 -0.5655 -0.1966 -0.7093
  472MOL0     H63675  -0.124  -0.019  10.985  2.1235  1.9982 -0.7843
  472MOL0     H63676  -0.176  -0.257  11.003  1.1512 -0.1400 -0.6818
  472MOL0     H63677  -0.099  -0.288  10.845  3.0468  1.7499  0.0157
  472MOL0     H63678  -0.348  -0.293  10.818 -1.5319  0.5560  2.0778
  472MOL0     H63679  -0.271  -0.156  10.721  1.7920  0.9779  0.6959
  472MOL0     H63680  -0.507  -0.063  11.087  1.6944 -0.5728 -0.4085
  472MOL0     H63681  -0.673  -0.113  11.231 -1.0863 -0.4376  1.1970
  472MOL0     H63682  -0.815  -0.022  11.164 -0.1373 -0.9030 -0.9448
  472MOL0     H63683  -0.824  -0.197  11.203  1.6869 -1.8176  0.4916
  472MOL0     H63684  -1.208  -0.039  10.857  0.6136  0.9175 -0.0169
  472MOL0     H63685  -1.434  -0.055  10.761  0.6743  1.3909 -0.9236
  472MOL0     H63686  -1.570  -0.406  10.505  1.9777  0.7785  1.2508
  472MOL0     H63687  -1.563  -0.447  10.677 -1.3609 -0.9029  0.6898
  472MOL0     H63688  -1.773  -0.311  10.687  2.3399 -0.7893 -0.1925
  472MOL0     H63689  -1.758  -0.320  10.510 -0.2724 -1.1467 -0.3380
  472MOL0     H63690  -1.803  -0.559  10.695  0.1733 -0.0050 -0.3696
  472MOL0     H63691  -1.754  -0.573  10.522 -1.1141 -0.0190 -0.4588
  472MOL0     H63692  -1.997  -0.444  10.624  3.4924  1.3671  2.1853
  472MOL0     H63693  -1.947  -0.462  10.455  1.3322  2.0191  1.5974
  472MOL0     H63694  -2.044  -0.672  10.666  0.0391 -2.2584 -1.9671
  472MOL0     H63695  -1.978  -0.737  10.523 -1.1516 -0.6362 -0.8374
  472MOL0     H63696  -2.221  -0.705  10.525  2.0558 -0.6599 -0.2699
  472MOL0     H63697  -2.205  -0.531  10.555  0.7756 -0.1148  1.4288
  472MOL0     H63698  -2.055  -0.620  10.311  0.9639  2.7969  1.3872
  472MOL0     H63699  -2.174  -0.492  10.336 -1.2092 -0.6838 -0.0876
  472MOL0     H63700  -2.282  -0.615  10.180  2.7142  1.3423 -0.0009
  472MOL0     H63701  -2.353  -0.684  10.339  0.1362  0.0722 -0.2376
  472MOL0     H63702  -1.335  -0.447  10.610  3.7807 -1.3952  1.1706
  472MOL0     H63703  -1.118  -0.416  10.683  0.1306 -0.6416  0.1871
  472MOL0     H63704  -0.773  -0.246  10.710  0.5688  3.3372 -1.2894
  472MOL0     H63705  -0.544  -0.201  10.688 -0.2189 -1.6358  1.2789
  472MOL0     H63706   1.003   0.684  10.502 -1.4568 -0.0437 -0.2206
  472MOL0     H63707   1.058   0.810  10.292 -0.6614 -0.0988  0.2176
  472MOL0     H63708   1.319   1.382  10.140  0.9086 -3.0221  2.3356
  472MOL0     H63709   1.256   1.476   9.950  1.0964 -1.2447 -1.9030
  472MOL0     H63710   1.099   1.508   9.771 -0.8775 -0.8596 -0.4162
  472MOL0     H63711   1.239   1.515   9.657 -1.8184  3.4102 -1.6830
  472MOL0     H63712   1.119   1.446   9.459 -0.2513  2.7326 -1.6032
  472MOL0     H63713   1.022   1.569   9.548 -0.2112  0.3213 -1.6553
  472MOL0     H63714   0.853   1.441   9.611  1.2286  2.4518 -0.1459
  472MOL0     H63715   0.940   1.284   9.586  2.9501  1.1533  1.7352
  472MOL0     H63716   0.941   1.327   9.338  1.6655  2.1465 -0.4253
  472MOL0     H63717   0.860   1.479   9.375 -0.5494 -0.5193  0.6099
  472MOL0     H63718   0.556   1.168   9.435 -0.5412  1.0260  2.1886
  472MOL0     H63719   1.084   1.119   9.799  1.1401 -0.0045 -1.3492
  472MOL0     H63720   1.072   1.033  10.034 -2.6874  1.4962  0.3429
  473MOL0     O63721   2.716   6.167   9.383  0.3069 -0.2776 -0.5771
  473MOL0     C63722   2.824   6.221   9.369 -0.0634 -0.7994  0.6285
  473MOL0     O63723   2.941   6.155   9.352 -0.3895  0.0312  0.2941
  473MOL0     C63724   2.939   6.016   9.364 -0.0869 -0.9913 -0.3435
  473MOL0     C63725   2.992   5.942   9.260  0.6652  0.0254  0.5110
  473MOL0     C63726   3.001   5.801   9.263 -0.6741 -0.2641 -0.9180
  473MOL0     C63727   2.957   5.738   9.379  0.7866  0.5699 -0.4725
  473MOL0     O63728   2.964   5.602   9.401  0.2612  0.2369 -0.0046
  473MOL0     C63729   3.074   5.525   9.348  0.0750 -0.3356  0.3618
  473MOL0     C63730   3.078   5.386   9.399 -0.1152 -0.6230  0.2542
  473MOL0     C63731   3.196   5.300   9.344 -0.4450  0.0063  0.1134
  473MOL0     C63732   3.332   5.365   9.335 -0.7000 -0.4885  0.6653
  473MOL0     C63733   3.445   5.258   9.320  0.1587  0.3677 -0.0280
  473MOL0     C63734   3.447   5.168   9.203 -0.2482 -0.1336 -0.3548
  473MOL0     C63735   3.556   5.062   9.202 -0.3427 -0.6760 -0.3095
  473MOL0     C63736   3.693   5.110   9.143 -1.2070 -0.0586  0.8926
  473MOL0     N63737   3.688   5.199   9.026  0.1615  0.2825 -0.9716
  473MOL0     C63738   3.625   5.163   8.907  0.5948 -0.1541 -0.1165
  473MOL0     C63739   3.661   5.248   8.806 -0.3491  0.0556  0.0522
  473MOL0     C63740   3.640   5.224   8.657  0.2553  0.5318  0.2541
  473MOL0     C63741   3.662   5.073   8.623 -0.5057 -0.3574 -0.1070
  473MOL0     C63742   3.806   5.025   8.612 -0.9051  0.4089 -0.6586
  473MOL0     C63743   3.841   4.992   8.469  0.2404 -1.2477  0.3485
  473MOL0     O63744   3.795   4.859   8.434 -0.1025  0.3692 -0.2579
  473MOL0     C63745   3.845   4.791   8.331 -0.0483  0.5766 -0.0551
  473MOL0     C63746   3.827   4.658   8.334 -0.9008  0.1947 -0.3812
  473MOL0     C63747   3.883   4.568   8.242 -0.5818 -0.7091 -0.3320
  473MOL0     C63748   3.850   4.421   8.249  0.4591  0.8621  0.4074
  473MOL0     C63749   3.965   4.620   8.141 -0.6848 -1.1364  0.4010
  473MOL0     C63750   4.026   4.541   8.021 -0.3372 -0.5270  0.0431
  473MOL0     O63751   4.102   4.615   7.938  1.0228 -0.3243 -0.8490
  473MOL0     C63752   4.087   4.572   7.804  0.4612  0.1787 -0.6772
  473MOL0     C63753   4.198   4.533   7.739  0.0201  0.3434 -0.1202
  473MOL0     C63754   4.178   4.514   7.602  0.6359  0.0114 -0.1043
  473MOL0     C63755   4.050   4.526   7.536 -0.1042 -0.5918  0.3987
  473MOL0     O63756   4.033   4.495   7.404  0.4312  0.3104  0.0639
  473MOL0     C63757   4.117   4.394   7.347  0.2337 -0.4610 -0.4286
  473MOL0     C63758   4.077   4.378   7.201 -0.2235 -0.4002 -0.2234
  473MOL0     C63759   4.156   4.274   7.130  0.5045 -0.6453 -1.0108
  473MOL0     C63760   4.268   4.333   7.039  0.2039  0.3993  0.2747
  473MOL0     C63761   4.233   4.448   6.941  0.6884  0.5841  1.0372
  473MOL0     C63762   4.129   4.402   6.835 -0.1151  0.3237 -0.0420
  473MOL0     C63763   4.102   4.522   6.743 -0.5367 -0.1622  0.0597
  473MOL0     C63764   3.977   4.498   6.659  0.6527 -0.2485  0.3123
  473MOL0    Cl63765   3.958   4.620   6.530 -0.7440 -0.2616  0.4334
  473MOL0     C63766   3.942   4.582   7.608 -0.5245 -0.1322 -0.2925
  473MOL0     C63767   3.956   4.602   7.750  0.5246  0.3705 -0.7037
  473MOL0     O63768   4.019   4.418   8.015 -0.4171 -0.3260 -0.3458
  473MOL0     C63769   3.981   4.765   8.138  0.4742 -0.1873 -0.4018
  473MOL0     C63770   3.918   4.844   8.230 -0.0100 -1.3754 -1.0677
  473MOL0     N63771   3.755   5.324   8.865 -0.1445 -0.7052 -0.1594
  473MOL0     N63772   3.775   5.293   8.991  0.2666 -0.3783 -0.3767
  473MOL0     C63773   2.895   5.812   9.482 -0.1523 -0.9812 -0.2145
  473MOL0     C63774   2.895   5.952   9.478 -0.0802 -0.6322 -0.3054
  473MOL0     C63775   2.813   6.367   9.358  0.0649  0.2975  0.5637
  473MOL0     C63776   2.692   6.439   9.352  1.4570 -0.3831  0.0893
  473MOL0     C63777   2.693   6.575   9.333 -0.2087 -0.2240 -0.7062
  473MOL0     C63778   2.812   6.653   9.335  0.4165  1.2356  0.2872
  473MOL0     O63779   2.817   6.788   9.327 -0.7613  0.4398  0.6005
  473MOL0     C63780   2.689   6.857   9.306 -0.6311  1.1397  0.6266
  473MOL0     C63781   2.709   7.001   9.259 -0.1152  0.2516 -1.1427
  473MOL0     C63782   2.813   7.029   9.143  0.2434  0.9546 -0.6857
  473MOL0     C63783   2.899   7.155   9.157 -0.2197 -0.4345 -0.1727
  473MOL0     C63784   2.968   7.178   9.284  0.0493 -0.7416 -0.3908
  473MOL0     C63785   3.021   7.223   9.385  0.4960  0.6126 -0.5124
  473MOL0     C63786   2.928   6.579   9.337  0.4383 -0.0632 -0.2783
  473MOL0     C63787   2.931   6.443   9.345  0.0017  0.7952 -0.4424
  473MOL0     H63788   3.030   5.991   9.171  1.7419  1.4401  1.7009
  473MOL0     H63789   3.050   5.746   9.183  1.6084  0.3998 -0.0614
  473MOL0     H63790   3.054   5.524   9.240 -1.4806  1.5608  0.5792
  473MOL0     H63791   3.167   5.579   9.368 -1.4854  2.4952  0.5085
  473MOL0     H63792   3.084   5.381   9.508 -0.5344  0.5603  0.3495
  473MOL0     H63793   2.986   5.333   9.376 -0.2752  0.2580 -1.2640
  473MOL0     H63794   3.224   5.212   9.402  1.0822 -0.1474 -0.7834
  473MOL0     H63795   3.165   5.265   9.245  0.5269  0.8994 -0.5275
  473MOL0     H63796   3.319   5.432   9.249 -1.6293 -2.6304 -0.9621
  473MOL0     H63797   3.356   5.421   9.426  2.5053  2.7538 -1.9004
  473MOL0     H63798   3.539   5.312   9.305  0.3420 -0.3090 -1.4562
  473MOL0     H63799   3.454   5.201   9.413  0.3132  3.1762  1.8215
  473MOL0     H63800   3.359   5.105   9.192  0.8811 -1.6006 -1.4497
  473MOL0     H63801   3.453   5.225   9.110 -0.5751  0.7216  0.1389
  473MOL0     H63802   3.572   5.026   9.304  0.7158 -0.0350 -0.2339
  473MOL0     H63803   3.507   4.976   9.156 -0.5574 -1.6105  1.5627
  473MOL0     H63804   3.755   5.026   9.112 -1.9264  0.7760 -3.4940
  473MOL0     H63805   3.749   5.166   9.217 -0.3896  3.0775 -1.8317
  473MOL0     H63806   3.563   5.074   8.906  2.9650 -1.9149  0.9174
  473MOL0     H63807   3.543   5.254   8.616  0.7336  1.8590  0.0492
  473MOL0     H63808   3.712   5.281   8.597  0.7708 -0.4148 -0.0566
  473MOL0     H63809   3.619   5.049   8.525  0.5695 -2.7618 -0.0737
  473MOL0     H63810   3.607   5.016   8.698  2.6803 -2.4513  0.8387
  473MOL0     H63811   3.822   4.937   8.676  2.4803  0.9236 -0.6388
  473MOL0     H63812   3.873   5.106   8.642 -1.4294  0.4002  0.6295
  473MOL0     H63813   3.950   4.981   8.469  0.4496  0.5309  1.5569
  473MOL0     H63814   3.810   5.059   8.389  0.7079  1.2073  2.1123
  473MOL0     H63815   3.763   4.613   8.409 -1.0564  2.3222  0.8299
  473MOL0     H63816   3.816   4.405   8.352 -1.9023 -0.8888 -0.5704
  473MOL0     H63817   3.768   4.389   8.184  1.5234  0.4143 -0.7520
  473MOL0     H63818   3.945   4.370   8.231  0.1960  1.4735 -3.7021
  473MOL0     H63819   4.289   4.503   7.791  0.5479 -1.7672 -2.0535
  473MOL0     H63820   4.269   4.474   7.558 -0.0228 -0.3945 -1.1350
  473MOL0     H63821   4.222   4.424   7.354  0.3154 -0.5049 -1.3702
  473MOL0     H63822   4.104   4.302   7.404 -0.0546 -1.4239 -1.9981
  473MOL0     H63823   3.972   4.351   7.186  0.3514 -3.0506 -0.0314
  473MOL0     H63824   4.094   4.478   7.162 -0.3624 -1.8946 -4.7203
  473MOL0     H63825   4.079   4.221   7.074 -0.4347  2.2746 -2.6803
  473MOL0     H63826   4.204   4.193   7.186  3.1340  1.3241 -0.2228
  473MOL0     H63827   4.357   4.360   7.096  0.1751 -1.0487  1.0473
  473MOL0     H63828   4.307   4.246   6.986 -0.2603 -0.6962  1.6763
  473MOL0     H63829   4.325   4.483   6.894 -0.2028  1.4467 -0.1560
  473MOL0     H63830   4.181   4.529   6.993 -2.4548 -0.2527 -0.5547
  473MOL0     H63831   4.153   4.315   6.774 -2.4765  0.7452 -1.7122
  473MOL0     H63832   4.035   4.387   6.888 -0.2287 -2.2166 -0.8365
  473MOL0     H63833   4.181   4.525   6.667  1.2125  1.3764  1.8183
  473MOL0     H63834   4.110   4.622   6.787 -0.9225  0.0146 -0.2667
  473MOL0     H63835   3.887   4.501   6.721  1.6759 -2.7798  2.0849
  473MOL0     H63836   3.975   4.405   6.602 -2.5697 -0.3224  0.3574
  473MOL0     H63837   3.850   4.588   7.550 -0.0322 -2.1621 -1.3683
  473MOL0     H63838   3.877   4.650   7.806  0.4453  2.9771 -2.8845
  473MOL0     H63839   4.053   4.807   8.067 -1.4728  1.0853 -1.7193
  473MOL0     H63840   3.927   4.952   8.239  0.9783 -1.5683  0.8333
  473MOL0     H63841   2.875   5.781   9.585 -0.5699  2.0369  0.7144
  473MOL0     H63842   2.876   6.016   9.564  0.8631 -0.7840  0.0314
  473MOL0     H63843   2.594   6.394   9.357  1.0657  0.5167  0.9711
  473MOL0     H63844   2.595   6.620   9.340 -0.1871 -0.0390 -1.5896
  473MOL0     H63845   2.630   6.802   9.233  0.2364 -1.2871  1.6688
  473MOL0     H63846   2.633   6.844   9.399  0.6623  0.4345  1.3379
  473MOL0     H63847   2.729   7.075   9.337  1.5992 -1.0284 -0.3060
  473MOL0     H63848   2.618   7.038   9.211 -0.1639 -0.6366 -1.7820
  473MOL0     H63849   2.760   7.011   9.050  1.6224  0.5689 -1.4301
  473MOL0     H63850   2.874   6.938   9.138 -0.9773  0.0743  0.0560
  473MOL0     H63851   2.832   7.240   9.143 -0.8572 -1.1217 -1.4580
  473MOL0     H63852   2.969   7.154   9.073  0.1028 -0.5270  0.0939
  473MOL0     H63853   3.048   7.262   9.482  3.1339 -2.3393  0.0954
  473MOL0     H63854   3.017   6.641   9.332 -1.1808  2.3258 -1.9564
  473MOL0     H63855   3.028   6.395   9.350  0.2257  0.8087 -3.1767
  474MOL0     O63856   7.339  11.452  11.390  0.6242 -0.2043  0.7084
  474MOL0     C63857   7.391  11.343  11.399 -0.2593  0.2539  0.2963
  474MOL0     O63858   7.433  11.274  11.514  0.2268 -0.7223  0.7281
  474MOL0     C63859   7.386  11.330  11.630 -1.0783  0.5355  0.3950
  474MOL0     C63860   7.490  11.387  11.706  0.6594 -0.2952  0.2463
  474MOL0     C63861   7.468  11.442  11.827  0.1261 -0.1807  0.0836
  474MOL0     C63862   7.343  11.414  11.883  0.1626 -0.6290 -0.7532
  474MOL0     O63863   7.324  11.470  12.010 -0.0850 -0.5531  0.3374
  474MOL0     C63864   7.200  11.460  12.072  0.4693 -0.6991  0.2932
  474MOL0     C63865   7.084  11.552  12.024 -0.9976  0.1694  0.0120
  474MOL0     C63866   7.088  11.704  12.036 -0.5749  0.6791  0.0967
  474MOL0     C63867   6.951  11.762  11.997 -0.7174 -0.5986  0.7740
  474MOL0     C63868   6.940  11.909  12.006  0.4609 -0.4603 -0.4317
  474MOL0     C63869   6.929  11.960  12.151  0.4871 -0.3410 -0.8469
  474MOL0     C63870   6.904  12.107  12.155  0.5675 -0.5957 -0.1238
  474MOL0     C63871   6.882  12.172  12.292 -0.5826  1.3094 -0.4238
  474MOL0     N63872   7.002  12.210  12.367  0.3239  0.6640  0.6284
  474MOL0     C63873   7.101  12.292  12.320  0.9254  1.1862 -0.7644
  474MOL0     C63874   7.198  12.293  12.413  0.7021  0.8706 -0.0442
  474MOL0     C63875   7.327  12.372  12.404  0.4412  0.3208 -0.0632
  474MOL0     C63876   7.324  12.494  12.500  0.0642  0.1568 -0.0403
  474MOL0     C63877   7.450  12.574  12.484  1.3177  1.2034 -0.0615
  474MOL0     C63878   7.485  12.630  12.349  0.0109 -0.0341  0.7732
  474MOL0     O63879   7.375  12.655  12.269  0.3540  0.4976  0.3228
  474MOL0     C63880   7.296  12.757  12.307  0.4474  0.3963 -0.2744
  474MOL0     C63881   7.344  12.883  12.354 -0.3105  1.4478 -0.3436
  474MOL0     C63882   7.258  12.987  12.372  0.1103  0.0183  0.0857
  474MOL0     C63883   7.323  13.112  12.413 -0.4483 -0.4185 -0.8940
  474MOL0     C63884   7.123  12.976  12.334 -0.4899  0.1948  0.2002
  474MOL0     C63885   7.039  13.094  12.346 -0.5191  0.8564 -0.3105
  474MOL0     O63886   7.017  13.167  12.466  0.1776  0.0301 -0.6849
  474MOL0     C63887   6.912  13.258  12.474 -0.5090  0.0456  0.2572
  474MOL0     C63888   6.780  13.240  12.423  0.1474  0.1151 -0.9154
  474MOL0     C63889   6.699  13.353  12.432  0.0106  0.4773  0.4552
  474MOL0     C63890   6.735  13.464  12.503  0.4614 -0.6825 -0.3134
  474MOL0     O63891   6.647  13.568  12.528 -0.2779  0.3939  0.3582
  474MOL0     C63892   6.698  13.705  12.531  0.0985  0.3280  0.4165
  474MOL0     C63893   6.634  13.773  12.652  0.0168 -1.1092  0.5562
  474MOL0     C63894   6.680  13.920  12.676  0.4684  0.4936  0.8082
  474MOL0     C63895   6.566  14.006  12.731 -0.6157  0.5763 -0.0636
  474MOL0     C63896   6.537  13.962  12.874 -1.2115  0.1055 -0.5704
  474MOL0     C63897   6.415  14.041  12.925  0.7303 -0.1182 -0.3018
  474MOL0     C63898   6.381  13.983  13.063 -0.8747 -0.2272 -0.6391
  474MOL0     C63899   6.376  14.100  13.167  0.1338  0.4433  0.5544
  474MOL0    Cl63900   6.539  14.180  13.175  0.3035  0.1171  0.2469
  474MOL0     C63901   6.855  13.456  12.569 -0.2133 -0.7654 -0.0291
  474MOL0     C63902   6.944  13.356  12.565  0.5508 -0.3522  0.6692
  474MOL0     O63903   6.968  13.098  12.244 -0.7750 -0.3798 -0.2112
  474MOL0     C63904   7.074  12.854  12.293 -0.2871  0.2272 -0.2502
  474MOL0     C63905   7.162  12.745  12.280  0.5392 -1.4117  0.0277
  474MOL0     N63906   7.158  12.209  12.519 -0.3651  0.7514 -0.0362
  474MOL0     N63907   7.034  12.155  12.484 -0.1307  0.4474  0.3349
  474MOL0     C63908   7.242  11.337  11.819  0.4586 -0.3946  0.2273
  474MOL0     C63909   7.259  11.299  11.684 -0.4987 -0.7264 -0.3486
  474MOL0     C63910   7.414  11.270  11.275 -0.8648 -0.0383 -0.6467
  474MOL0     C63911   7.472  11.150  11.274  0.5299  0.6535 -0.1729
  474MOL0     C63912   7.495  11.079  11.155 -0.3927  0.3475  0.8757
  474MOL0     C63913   7.456  11.133  11.030 -0.2326  0.2268  0.2996
  474MOL0     O63914   7.465  11.064  10.905 -0.3258 -0.4135 -0.0981
  474MOL0     C63915   7.437  10.925  10.906 -0.3311 -0.0728  0.4445
  474MOL0     C63916   7.377  10.901  10.777 -0.0414 -0.4360  0.8356
  474MOL0     C63917   7.470  10.917  10.654  1.2792  0.0527  0.3370
  474MOL0     C63918   7.383  10.907  10.526 -0.3389  0.5843 -0.5165
  474MOL0     C63919   7.297  10.788  10.505  0.1990 -0.8592  0.2384
  474MOL0     C63920   7.245  10.674  10.492  0.6934 -0.6344 -0.3463
  474MOL0     C63921   7.401  11.266  11.031 -0.0606  0.2395 -0.5268
  474MOL0     C63922   7.382  11.332  11.151 -0.7816  0.9598 -0.1461
  474MOL0     H63923   7.589  11.408  11.667 -0.4672  3.2281 -1.1389
  474MOL0     H63924   7.540  11.480  11.898 -0.1859  1.3161 -0.3729
  474MOL0     H63925   7.173  11.354  12.072  0.7356 -0.7925 -1.6113
  474MOL0     H63926   7.219  11.482  12.178  0.9157  0.6258 -0.0414
  474MOL0     H63927   7.057  11.534  11.919 -0.8773  1.3766 -0.2438
  474MOL0     H63928   7.002  11.511  12.084  0.2638 -1.9158  0.4073
  474MOL0     H63929   7.114  11.722  12.141 -2.7748  0.8822  0.6586
  474MOL0     H63930   7.174  11.746  11.983  3.6366 -1.7083  4.2301
  474MOL0     H63931   6.934  11.738  11.892 -1.6332  2.2046  0.1895
  474MOL0     H63932   6.873  11.713  12.057 -1.1596  0.0007  0.6978
  474MOL0     H63933   7.026  11.947  11.951  1.4792 -4.3510 -1.9127
  474MOL0     H63934   6.845  11.933  11.958 -0.6118 -2.0266  0.7816
  474MOL0     H63935   6.850  11.907  12.204 -1.9522 -0.5501 -4.3704
  474MOL0     H63936   7.031  11.942  12.186  0.7730  0.0885 -1.4418
  474MOL0     H63937   6.983  12.156  12.098  0.0367  3.6565  2.3672
  474MOL0     H63938   6.817  12.133  12.094 -0.1322  0.0140  1.0726
  474MOL0     H63939   6.822  12.100  12.349  1.3520 -2.0743 -2.2697
  474MOL0     H63940   6.822  12.262  12.286  1.6951  2.9453 -0.0227
  474MOL0     H63941   7.084  12.351  12.231 -1.5831 -0.5771 -1.5752
  474MOL0     H63942   7.410  12.305  12.428  1.2843  1.9270  1.7684
  474MOL0     H63943   7.329  12.421  12.306 -1.5006  3.1640  1.1761
  474MOL0     H63944   7.308  12.467  12.605 -0.6445 -1.2522 -0.4931
  474MOL0     H63945   7.242  12.563  12.475 -1.0913 -1.0858  0.1898
  474MOL0     H63946   7.535  12.510  12.512 -0.5834 -1.0398  0.9224
  474MOL0     H63947   7.455  12.649  12.563  0.1379 -1.5341  2.8395
  474MOL0     H63948   7.534  12.549  12.293  3.7782  2.1133  0.6860
  474MOL0     H63949   7.553  12.715  12.350  2.8199 -2.1044 -0.0193
  474MOL0     H63950   7.451  12.896  12.358  0.3571 -0.5762 -5.0180
  474MOL0     H63951   7.255  13.192  12.443 -1.6193 -1.9740  0.7805
  474MOL0     H63952   7.374  13.084  12.505 -1.7871  2.2070  0.7857
  474MOL0     H63953   7.391  13.156  12.340 -1.3071  0.9503 -0.9251
  474MOL0     H63954   6.760  13.152  12.363 -0.9913  1.0319 -1.9195
  474MOL0     H63955   6.607  13.360  12.375  1.7771  1.5383 -2.4988
  474MOL0     H63956   6.807  13.717  12.527  0.1834 -0.5286 -0.1729
  474MOL0     H63957   6.652  13.750  12.441  3.0527  0.9652 -0.8980
  474MOL0     H63958   6.526  13.758  12.638 -0.5337 -0.6224  3.5469
  474MOL0     H63959   6.659  13.713  12.740  1.8300 -1.9916 -0.5027
  474MOL0     H63960   6.691  13.951  12.572 -0.5015 -0.9618  0.2382
  474MOL0     H63961   6.772  13.922  12.735 -0.0919 -3.3677  2.1643
  474MOL0     H63962   6.607  14.108  12.730  0.0261  0.3272 -0.0313
  474MOL0     H63963   6.472  13.985  12.680 -0.5555  1.1633 -0.4215
  474MOL0     H63964   6.621  13.992  12.937 -0.0010 -0.3155 -1.9468
  474MOL0     H63965   6.516  13.856  12.885  1.7326 -0.5978 -1.0291
  474MOL0     H63966   6.437  14.145  12.901  0.2201  0.3968  1.3464
  474MOL0     H63967   6.328  14.021  12.862 -1.0786  1.0412  1.6889
  474MOL0     H63968   6.460  13.913  13.093 -1.6608 -0.1369  1.8770
  474MOL0     H63969   6.285  13.930  13.059 -2.0454  1.8064 -0.8060
  474MOL0     H63970   6.337  14.072  13.265 -2.0555  1.9884  0.1935
  474MOL0     H63971   6.300  14.164  13.121  1.0599  0.2500 -1.3514
  474MOL0     H63972   6.871  13.517  12.657  0.4982 -1.4074  0.3008
  474MOL0     H63973   7.045  13.354  12.605  0.6105 -2.0802  0.4979
  474MOL0     H63974   6.975  12.835  12.252 -1.1452  0.2396  1.6749
  474MOL0     H63975   7.117  12.649  12.257  0.5263 -1.9645  2.1341
  474MOL0     H63976   7.142  11.321  11.858 -0.0144 -1.8177 -1.4844
  474MOL0     H63977   7.178  11.256  11.626 -1.9895  0.2628  0.9089
  474MOL0     H63978   7.498  11.090  11.361  1.4378  0.3892 -0.6124
  474MOL0     H63979   7.529  10.976  11.158  1.0550  0.7023 -1.0461
  474MOL0     H63980   7.522  10.860  10.929 -1.2752 -0.6178  2.6560
  474MOL0     H63981   7.364  10.914  10.987  1.3703 -1.1037  1.9331
  474MOL0     H63982   7.286  10.961  10.770 -1.2282 -1.8673  2.8902
  474MOL0     H63983   7.327  10.804  10.773  4.0452 -2.7621 -0.2134
  474MOL0     H63984   7.547  10.839  10.662  0.2572 -2.5440 -7.0165
  474MOL0     H63985   7.513  11.016  10.640  3.5388 -0.6307  1.8031
  474MOL0     H63986   7.450  10.920  10.441 -2.3904  2.7489 -1.9188
  474MOL0     H63987   7.321  10.997  10.523 -0.5293  0.4658 -4.1794
  474MOL0     H63988   7.195  10.581  10.476  1.2467 -0.6736 -2.0960
  474MOL0     H63989   7.376  11.294  10.929 -2.1561 -2.2974 -0.8149
  474MOL0     H63990   7.334  11.428  11.135 -0.3023  0.7353 -3.6872
  475MOL0     O63991   5.648   3.034   1.920  0.7942 -0.0913  0.1973
  475MOL0     C63992   5.741   3.001   1.998  0.6395 -0.2754  0.5718
  475MOL0     O63993   5.770   2.873   2.037  0.2604  0.4634  0.2868
  475MOL0     C63994   5.695   2.770   1.993 -0.8105  0.9151 -0.3239
  475MOL0     C63995   5.648   2.684   2.087 -0.7055  0.1780  0.4323
  475MOL0     C63996   5.591   2.566   2.041  0.4181 -1.3963 -0.2629
  475MOL0     C63997   5.579   2.531   1.900  0.5191  0.5212  0.0647
  475MOL0     O63998   5.529   2.417   1.848  0.5026 -0.2176 -0.0622
  475MOL0     C63999   5.419   2.374   1.918 -0.3674 -0.6125  0.1721
  475MOL0     C64000   5.332   2.289   1.818 -0.3411  0.1569 -0.6711
  475MOL0     C64001   5.279   2.367   1.699  0.1256 -0.1372 -0.1406
  475MOL0     C64002   5.131   2.418   1.710  0.1219 -0.3980  0.2705
  475MOL0     C64003   5.031   2.318   1.770  0.8213 -0.1031 -0.5394
  475MOL0     C64004   5.008   2.360   1.917 -0.0428 -0.0769  0.0801
  475MOL0     C64005   4.920   2.253   1.988  0.3240 -0.2151  0.3636
  475MOL0     C64006   5.005   2.140   2.038 -0.1157 -0.1730  0.0492
  475MOL0     N64007   4.921   2.039   2.095  0.4679 -0.4444  0.4070
  475MOL0     C64008   4.882   2.036   2.226  0.6267 -0.4213  0.2086
  475MOL0     C64009   4.808   1.918   2.233 -0.2024 -0.5509 -0.4690
  475MOL0     C64010   4.752   1.848   2.362 -0.0620 -0.9404  0.4643
  475MOL0     C64011   4.679   1.953   2.446 -0.5014  0.2284  0.0874
  475MOL0     C64012   4.555   2.019   2.388 -0.3553  0.9389  0.7064
  475MOL0     C64013   4.501   2.120   2.487 -0.5072  0.8477  0.8569
  475MOL0     O64014   4.598   2.228   2.503  0.1384  0.4239  0.4833
  475MOL0     C64015   4.543   2.346   2.559  0.1171 -0.7493  0.5458
  475MOL0     C64016   4.409   2.374   2.588  0.2025 -1.0067 -0.0811
  475MOL0     C64017   4.369   2.503   2.639  1.0461  0.7372  0.7811
  475MOL0     C64018   4.223   2.534   2.646  0.0213 -0.4585 -0.7111
  475MOL0     C64019   4.474   2.587   2.680  0.4565  0.2945  0.6093
  475MOL0     C64020   4.451   2.717   2.752 -0.2584  0.3601  0.1305
  475MOL0     O64021   4.545   2.817   2.726 -0.3711 -0.3356 -0.9058
  475MOL0     C64022   4.527   2.936   2.789 -0.2339  0.1796 -0.8222
  475MOL0     C64023   4.408   3.000   2.814 -0.7957 -0.6835 -0.7565
  475MOL0     C64024   4.420   3.118   2.891  0.2419 -0.6393 -0.0578
  475MOL0     C64025   4.541   3.167   2.942 -0.5547  0.0510 -0.4058
  475MOL0     O64026   4.535   3.290   2.999 -0.4291  0.5135 -0.9882
  475MOL0     C64027   4.609   3.399   2.935 -0.9084 -0.4931 -0.0711
  475MOL0     C64028   4.692   3.473   3.049 -0.1434  0.8567 -0.2391
  475MOL0     C64029   4.775   3.385   3.145 -0.2866  0.0521 -0.0423
  475MOL0     C64030   4.924   3.409   3.118 -0.2276  0.2787 -0.3881
  475MOL0     C64031   5.000   3.299   3.190 -0.0289  0.1765 -0.2046
  475MOL0     C64032   5.154   3.333   3.178  0.0805  0.2809  0.4456
  475MOL0     C64033   5.243   3.203   3.221  0.1119 -0.6085  1.2406
  475MOL0     C64034   5.388   3.232   3.257 -0.2895  0.1377 -0.1739
  475MOL0    Cl64035   5.464   3.275   3.110 -0.0726  0.0927 -0.1105
  475MOL0     C64036   4.661   3.104   2.914  0.5921  0.2272  1.2109
  475MOL0     C64037   4.647   2.986   2.842 -0.7485  0.5538 -0.0637
  475MOL0     O64038   4.354   2.722   2.833 -0.3573  0.2677 -0.2165
  475MOL0     C64039   4.605   2.554   2.669 -0.4214 -0.3077  0.4155
  475MOL0     C64040   4.640   2.438   2.605 -0.1140  0.2671 -0.8942
  475MOL0     N64041   4.808   1.857   2.115 -0.0388  1.0903 -0.1043
  475MOL0     N64042   4.880   1.926   2.032  0.0777 -0.5754 -0.0455
  475MOL0     C64043   5.626   2.628   1.807 -0.1866  0.0049  0.8684
  475MOL0     C64044   5.676   2.751   1.855 -0.3077  0.2268  0.1308
  475MOL0     C64045   5.819   3.115   2.047 -0.0430 -0.1329  0.3324
  475MOL0     C64046   5.771   3.248   2.049 -1.2732 -0.1552 -0.1844
  475MOL0     C64047   5.845   3.354   2.110  0.3512 -0.4389 -0.6006
  475MOL0     C64048   5.965   3.333   2.182  1.1778  0.1353  0.9478
  475MOL0     O64049   6.025   3.437   2.257 -0.1503 -0.4312  0.1165
  475MOL0     C64050   6.118   3.405   2.361 -0.4828 -0.3266  0.2831
  475MOL0     C64051   6.195   3.528   2.411  0.3860 -0.7743  1.2163
  475MOL0     C64052   6.094   3.639   2.461  0.5047  0.6999  0.5704
  475MOL0     C64053   6.058   3.763   2.386 -0.2082  0.0207 -0.0046
  475MOL0     C64054   6.183   3.849   2.386  0.3052 -0.2400 -0.6386
  475MOL0     C64055   6.274   3.926   2.378 -0.8479 -0.0299 -0.8418
  475MOL0     C64056   6.009   3.198   2.177 -0.3999 -0.7270 -0.1196
  475MOL0     C64057   5.945   3.092   2.109  1.0911 -0.0779 -0.0347
  475MOL0     H64058   5.665   2.709   2.192 -4.0073 -1.5636  1.5332
  475MOL0     H64059   5.570   2.486   2.112  4.0873 -1.6343  0.7369
  475MOL0     H64060   5.446   2.314   2.005 -0.3836 -0.4329  0.3007
  475MOL0     H64061   5.372   2.470   1.940 -0.4631 -0.4723 -0.6085
  475MOL0     H64062   5.399   2.214   1.775 -1.5518  0.8846 -4.1979
  475MOL0     H64063   5.251   2.236   1.868  0.3727  0.6988  1.1297
  475MOL0     H64064   5.334   2.458   1.672 -0.8412 -0.3342 -3.1213
  475MOL0     H64065   5.276   2.297   1.616  0.3987 -2.1704  1.4884
  475MOL0     H64066   5.111   2.516   1.753 -4.2463 -0.3104 -1.4505
  475MOL0     H64067   5.111   2.428   1.603 -2.5545  1.2315  0.8333
  475MOL0     H64068   4.934   2.313   1.719  1.1634 -3.1494 -1.1045
  475MOL0     H64069   5.068   2.215   1.767  0.6516 -0.3773  3.0924
  475MOL0     H64070   5.101   2.380   1.972 -0.4008 -2.6106  1.8044
  475MOL0     H64071   4.960   2.458   1.924 -0.5146 -0.2081 -1.0953
  475MOL0     H64072   4.888   2.303   2.080  0.2733  1.6217 -0.6197
  475MOL0     H64073   4.835   2.222   1.927 -0.2251  2.1615 -0.1921
  475MOL0     H64074   5.076   2.167   2.117  0.5844 -0.6868 -0.3941
  475MOL0     H64075   5.065   2.104   1.954 -1.7702 -0.8100 -0.9001
  475MOL0     H64076   4.912   2.108   2.301  3.1666 -0.5067 -0.6182
  475MOL0     H64077   4.684   1.766   2.336  1.6147 -1.4459 -2.8090
  475MOL0     H64078   4.841   1.811   2.414  1.1208  1.0098 -0.0963
  475MOL0     H64079   4.758   2.029   2.459 -0.1941  0.3898 -2.2663
  475MOL0     H64080   4.650   1.925   2.548 -1.6824  2.9560  0.5952
  475MOL0     H64081   4.486   1.944   2.349  0.9795 -0.1384  0.3362
  475MOL0     H64082   4.579   2.081   2.300 -1.9075 -0.0436 -0.4537
  475MOL0     H64083   4.477   2.075   2.583  0.5903  0.4423  0.9573
  475MOL0     H64084   4.409   2.152   2.437 -0.6539  0.7551  1.0683
  475MOL0     H64085   4.334   2.304   2.553  1.6010 -1.0180 -3.4490
  475MOL0     H64086   4.187   2.494   2.741 -0.3613  1.5371  0.0423
  475MOL0     H64087   4.209   2.642   2.642 -1.1004 -0.5714 -0.3089
  475MOL0     H64088   4.180   2.491   2.555  1.9120  0.5758 -2.1681
  475MOL0     H64089   4.311   2.969   2.776 -0.8732 -1.8991  0.3690
  475MOL0     H64090   4.329   3.166   2.925  0.4601 -0.0451 -0.2994
  475MOL0     H64091   4.675   3.365   2.855 -1.4026  1.0689 -1.1974
  475MOL0     H64092   4.537   3.473   2.900 -0.6472  1.7293  3.5321
  475MOL0     H64093   4.749   3.552   2.998 -0.0914  1.4497  0.7133
  475MOL0     H64094   4.620   3.529   3.110 -0.7361 -0.1339 -0.0093
  475MOL0     H64095   4.746   3.281   3.131  1.1544 -0.3559 -0.1382
  475MOL0     H64096   4.759   3.425   3.246 -4.5603  1.0134 -0.9098
  475MOL0     H64097   4.935   3.402   3.009  0.6301  2.7545 -0.5261
  475MOL0     H64098   4.958   3.509   3.145  1.6189  0.2444 -2.3040
  475MOL0     H64099   4.974   3.197   3.159 -2.2921  0.3498  0.8975
  475MOL0     H64100   4.971   3.304   3.295  1.2825  2.0939  0.0984
  475MOL0     H64101   5.187   3.376   3.083  2.0812  0.8813  1.3670
  475MOL0     H64102   5.178   3.404   3.257 -0.8598 -2.0032  2.9330
  475MOL0     H64103   5.242   3.129   3.140  1.2716  0.9416 -0.2521
  475MOL0     H64104   5.201   3.151   3.307  2.7144 -1.1145  2.2899
  475MOL0     H64105   5.431   3.138   3.294  3.6658  0.0723 -4.0931
  475MOL0     H64106   5.411   3.317   3.321  0.2043 -0.6555  0.7321
  475MOL0     H64107   4.764   3.125   2.943  0.7232 -0.9738  1.6733
  475MOL0     H64108   4.732   2.920   2.823 -1.4413  0.0103 -1.4237
  475MOL0     H64109   4.690   2.610   2.706  0.2198 -2.6547  2.8658
  475MOL0     H64110   4.743   2.414   2.581  1.1993  3.8197  0.5531
  475MOL0     H64111   5.644   2.611   1.701  1.6917  1.1562  0.9552
  475MOL0     H64112   5.714   2.831   1.792  2.2543 -0.1957  0.9971
  475MOL0     H64113   5.685   3.290   1.997 -0.9160 -0.7868 -1.3202
  475MOL0     H64114   5.795   3.449   2.100 -2.1841 -1.3574  1.9514
  475MOL0     H64115   6.057   3.379   2.448  1.8732 -0.7531  1.8733
  475MOL0     H64116   6.194   3.331   2.336 -0.0265 -0.1903  1.2264
  475MOL0     H64117   6.253   3.566   2.326  0.5690  1.4216  2.2315
  475MOL0     H64118   6.264   3.489   2.487 -0.7948 -3.8930  0.8132
  475MOL0     H64119   6.138   3.660   2.559  0.8162  0.6450  0.4427
  475MOL0     H64120   5.997   3.593   2.480  1.8318 -1.1109  3.4943
  475MOL0     H64121   5.967   3.806   2.430  0.2867  0.3351  0.7362
  475MOL0     H64122   6.023   3.740   2.285 -1.2779  0.3861  0.2604
  475MOL0     H64123   6.363   3.984   2.363  1.7179 -3.4872 -0.3591
  475MOL0     H64124   6.108   3.172   2.213 -0.0132 -0.6367 -1.0890
  475MOL0     H64125   5.992   2.994   2.110  1.2308 -0.0315  2.2953
  476MOL0     O64126  10.687   0.591  10.067 -0.4585  0.3269 -0.1211
  476MOL0     C64127  10.718   0.567   9.947  1.2152 -0.0340  0.7230
  476MOL0     O64128  10.626   0.503   9.855 -0.3166 -0.2064 -0.1195
  476MOL0     C64129  10.509   0.442   9.907 -0.9053 -0.5060 -0.4272
  476MOL0     C64130  10.395   0.446   9.841  0.3245  0.0855  0.6208
  476MOL0     C64131  10.273   0.398   9.881  0.2184 -0.3143  0.1269
  476MOL0     C64132  10.272   0.328  10.005  0.6433  0.3008  0.3765
  476MOL0     O64133  10.172   0.240  10.050  1.2141 -0.3667  0.0554
  476MOL0     C64134  10.042   0.255   9.982 -0.7251 -0.2032 -0.3598
  476MOL0     C64135   9.928   0.160  10.049  0.4951 -0.5003 -0.4848
  476MOL0     C64136   9.795   0.193   9.983  0.8010 -0.1028  0.0456
  476MOL0     C64137   9.676   0.152  10.077 -0.4581  0.3769  0.1911
  476MOL0     C64138   9.532   0.200  10.055 -0.7282 -0.7654  0.6985
  476MOL0     C64139   9.492   0.199   9.907  0.3935  0.2110 -0.7176
  476MOL0     C64140   9.385   0.299   9.880  0.2252 -0.0379  0.1750
  476MOL0     C64141   9.242   0.248   9.925 -0.1770 -0.3116  0.0104
  476MOL0     N64142   9.160   0.184   9.816 -0.3179  0.0547 -0.0409
  476MOL0     C64143   9.046   0.228   9.769 -0.0914 -0.2155  0.2179
  476MOL0     C64144   9.013   0.151   9.657  0.6294  0.3716  0.0823
  476MOL0     C64145   8.875   0.171   9.584 -0.6969 -0.1787  0.1276
  476MOL0     C64146   8.838   0.314   9.526  0.3723 -0.4615 -0.3777
  476MOL0     C64147   8.937   0.362   9.407 -0.2099  1.5739 -0.7716
  476MOL0     C64148   9.083   0.411   9.448  0.1973 -0.1246  0.1382
  476MOL0     O64149   9.062   0.481   9.565  0.1067  0.4731  0.2603
  476MOL0     C64150   9.165   0.544   9.628  0.7882 -0.6713  0.8454
  476MOL0     C64151   9.299   0.543   9.586 -0.1919 -0.2607 -0.6747
  476MOL0     C64152   9.401   0.589   9.675  0.1928 -0.2721  0.3317
  476MOL0     C64153   9.554   0.583   9.627  0.1130  0.1080 -0.9307
  476MOL0     C64154   9.366   0.648   9.795 -0.2706 -0.3258  0.3396
  476MOL0     C64155   9.464   0.696   9.890 -0.5863  0.2363 -0.5531
  476MOL0     O64156   9.438   0.819   9.948  0.7064 -1.1413 -0.7562
  476MOL0     C64157   9.544   0.866  10.019  1.1021 -0.6313  0.7588
  476MOL0     C64158   9.554   0.833  10.158  0.6956 -0.6833  0.4957
  476MOL0     C64159   9.666   0.871  10.236 -0.1258  0.2771 -0.3607
  476MOL0     C64160   9.759   0.954  10.174  0.0691 -0.4691  0.2014
  476MOL0     O64161   9.881   0.992  10.229  0.1232 -0.0451 -1.4233
  476MOL0     C64162   9.905   0.990  10.370  0.9199  0.0509 -0.1480
  476MOL0     C64163   9.832   1.092  10.463  0.1924 -0.1435  0.5501
  476MOL0     C64164   9.879   1.078  10.608 -0.1039 -0.5930 -0.2397
  476MOL0     C64165   9.830   1.190  10.698  0.3522  0.2625  0.0932
  476MOL0     C64166   9.866   1.173  10.850 -0.6013  0.3813 -0.1449
  476MOL0     C64167   9.782   1.257  10.948  0.0807 -0.5497  0.3375
  476MOL0     C64168   9.824   1.241  11.094 -0.0412  0.0018 -0.0256
  476MOL0     C64169   9.771   1.358  11.174  0.6413  0.5196 -0.0734
  476MOL0    Cl64170   9.765   1.327  11.353 -0.1126  0.1517  0.2862
  476MOL0     C64171   9.744   1.001  10.038  0.1588 -0.1409  0.2130
  476MOL0     C64172   9.635   0.950   9.963  0.9201 -0.4539 -0.0086
  476MOL0     O64173   9.549   0.613   9.930 -0.0536 -0.4085 -0.5820
  476MOL0     C64174   9.231   0.653   9.835  0.4867  1.2208 -0.3439
  476MOL0     C64175   9.133   0.609   9.748  0.2979  1.0764  0.7551
  476MOL0     N64176   9.122   0.066   9.640  0.2661 -0.3179  0.3111
  476MOL0     N64177   9.203   0.078   9.735 -0.1222  0.2976 -0.0052
  476MOL0     C64178  10.381   0.316  10.082  0.0080 -0.0094 -0.6752
  476MOL0     C64179  10.498   0.375  10.035 -0.4494 -0.1915  0.5766
  476MOL0     C64180  10.841   0.614   9.886 -0.1079 -0.8376 -1.1452
  476MOL0     C64181  10.863   0.625   9.750  0.4975  0.4988  0.5016
  476MOL0     C64182  10.990   0.657   9.704  0.4006 -0.5338 -0.8332
  476MOL0     C64183  11.096   0.684   9.791 -0.8754  0.2150 -0.1412
  476MOL0     O64184  11.228   0.697   9.762 -0.0644 -0.3104 -0.2822
  476MOL0     C64185  11.272   0.636   9.638  0.0135 -0.8524 -0.2073
  476MOL0     C64186  11.391   0.702   9.583  0.2832 -0.3116  0.0828
  476MOL0     C64187  11.458   0.603   9.483  0.5575  0.4514 -0.3597
  476MOL0     C64188  11.548   0.673   9.376 -0.3803  0.5907 -0.5848
  476MOL0     C64189  11.661   0.743   9.445  0.4611 -0.3143  0.2818
  476MOL0     C64190  11.746   0.817   9.486  0.3329 -0.5496 -0.8480
  476MOL0     C64191  11.074   0.666   9.927  0.3167  0.0466 -1.2569
  476MOL0     C64192  10.947   0.626   9.977  0.9365  0.1324 -0.4603
  476MOL0     H64193  10.391   0.502   9.748 -0.9806  0.0736  0.6511
  476MOL0     H64194  10.187   0.405   9.814  0.7687  0.2226 -0.5414
  476MOL0     H64195   9.999   0.354   9.995 -0.6285 -0.4926  2.8478
  476MOL0     H64196  10.056   0.230   9.876  0.6841 -0.0734 -0.2248
  476MOL0     H64197   9.951   0.056  10.026 -0.6877 -1.3509  1.8974
  476MOL0     H64198   9.933   0.183  10.156 -0.8268 -0.0092 -0.5053
  476MOL0     H64199   9.774   0.300   9.977 -3.3016 -0.7444  0.0859
  476MOL0     H64200   9.786   0.155   9.880 -0.4752 -0.1358  0.1545
  476MOL0     H64201   9.677   0.043  10.087 -0.2839  0.3671  0.0646
  476MOL0     H64202   9.694   0.190  10.178  1.6819 -3.5333  1.4908
  476MOL0     H64203   9.467   0.145  10.124  2.0895 -2.8431  1.9110
  476MOL0     H64204   9.528   0.303  10.092 -0.9899 -0.3481 -0.4651
  476MOL0     H64205   9.580   0.218   9.845  1.1035 -0.4767  0.0492
  476MOL0     H64206   9.457   0.101   9.874  4.8208 -1.1397 -2.0192
  476MOL0     H64207   9.404   0.395   9.930 -2.6376  1.1273 -0.7026
  476MOL0     H64208   9.390   0.313   9.772  1.0796  2.2689  0.4520
  476MOL0     H64209   9.190   0.333   9.969  0.5326 -0.1514  0.5485
  476MOL0     H64210   9.250   0.173  10.003  0.6450  1.5388  1.7922
  476MOL0     H64211   8.987   0.307   9.814 -0.8533 -1.6875  1.9771
  476MOL0     H64212   8.885   0.104   9.498  3.2488  0.3602 -0.0152
  476MOL0     H64213   8.813   0.142   9.669 -0.5977  2.0075  1.0297
  476MOL0     H64214   8.833   0.386   9.609 -1.5725 -0.9539 -0.0141
  476MOL0     H64215   8.739   0.311   9.479  0.3990  3.2198 -0.9363
  476MOL0     H64216   8.887   0.448   9.362 -3.3176  1.6496  2.4451
  476MOL0     H64217   8.945   0.283   9.332  0.3671  2.5012 -1.7199
  476MOL0     H64218   9.119   0.466   9.361 -1.5356  0.4320 -0.2749
  476MOL0     H64219   9.141   0.320   9.465 -4.0168 -3.1046  0.1980
  476MOL0     H64220   9.326   0.499   9.491 -0.6819  0.6720 -1.2553
  476MOL0     H64221   9.622   0.643   9.688  1.7459 -0.6264 -1.9774
  476MOL0     H64222   9.596   0.482   9.634  0.1313  0.2246  1.6580
  476MOL0     H64223   9.568   0.614   9.523  0.7385 -0.3152 -0.9792
  476MOL0     H64224   9.486   0.761  10.202 -1.4717  0.7003 -0.3996
  476MOL0     H64225   9.690   0.811  10.323  1.8338 -1.0011 -1.6872
  476MOL0     H64226   9.909   0.887  10.408 -0.3705  1.0008  2.9330
  476MOL0     H64227  10.006   1.028  10.384  0.2946  1.5323  0.6050
  476MOL0     H64228   9.844   1.196  10.431 -0.7042  0.1163  1.0283
  476MOL0     H64229   9.724   1.075  10.458  0.2450 -0.0780 -1.4549
  476MOL0     H64230   9.987   1.090  10.619 -0.4915  2.6259  1.0970
  476MOL0     H64231   9.854   0.977  10.643  0.4572 -1.2180 -1.5670
  476MOL0     H64232   9.877   1.278  10.654  1.5183  0.6383  1.9450
  476MOL0     H64233   9.721   1.196  10.692  0.0088 -1.2212  3.0242
  476MOL0     H64234   9.974   1.188  10.847 -0.6610  0.7156 -0.8875
  476MOL0     H64235   9.856   1.068  10.881 -1.0229 -0.0013 -1.5285
  476MOL0     H64236   9.786   1.366  10.936  1.6418 -0.3096  2.4298
  476MOL0     H64237   9.674   1.245  10.938 -0.7947  3.2640  2.8312
  476MOL0     H64238   9.932   1.244  11.111 -0.0473  4.0628  0.3447
  476MOL0     H64239   9.789   1.143  11.129  1.4444 -1.2795 -1.8914
  476MOL0     H64240   9.670   1.386  11.141  1.0368  1.6539 -0.3467
  476MOL0     H64241   9.841   1.440  11.159 -1.8227  2.8607  0.4027
  476MOL0     H64242   9.810   1.072   9.990 -0.4447  2.4672  2.8675
  476MOL0     H64243   9.609   0.974   9.861  2.3647 -0.4007 -0.3839
  476MOL0     H64244   9.204   0.684   9.936 -0.5824 -2.1342  0.5277
  476MOL0     H64245   9.027   0.614   9.771  0.1571  1.9427 -0.0353
  476MOL0     H64246  10.375   0.269  10.180  0.8909 -1.3425 -1.2284
  476MOL0     H64247  10.590   0.367  10.093 -0.0834 -1.6695 -0.1415
  476MOL0     H64248  10.783   0.608   9.679  0.4727 -0.1133  0.6755
  476MOL0     H64249  10.987   0.652   9.596 -2.4955 -1.9745 -0.7802
  476MOL0     H64250  11.301   0.532   9.660  2.0303 -0.1016  0.9576
  476MOL0     H64251  11.202   0.643   9.554  0.6736  1.0396 -0.6361
  476MOL0     H64252  11.466   0.728   9.657  1.7751  0.4603 -1.6426
  476MOL0     H64253  11.355   0.793   9.535  2.1047 -0.6263 -2.0509
  476MOL0     H64254  11.388   0.544   9.423 -0.1663  0.1120  0.7866
  476MOL0     H64255  11.522   0.542   9.547  0.9798  2.3097  1.0820
  476MOL0     H64256  11.471   0.738   9.334 -2.7917 -3.2767 -2.7001
  476MOL0     H64257  11.585   0.613   9.292 -3.7066 -3.6831  0.6062
  476MOL0     H64258  11.818   0.885   9.527  0.2691  1.3291 -3.5837
  476MOL0     H64259  11.151   0.679  10.002 -2.8916  2.5814  1.9929
  476MOL0     H64260  10.925   0.618  10.082  1.2822  2.0138 -0.2127
  477MOL0     O64261   1.955   8.901   1.365  0.1650  0.0752 -1.0096
  477MOL0     C64262   2.018   9.004   1.381 -0.1062 -0.0139  1.0018
  477MOL0     O64263   2.124   9.025   1.460  0.0049  0.6102  0.2791
  477MOL0     C64264   2.171   8.919   1.539 -0.0897 -1.3872  0.8757
  477MOL0     C64265   2.210   8.797   1.472  0.5360 -0.7912 -0.4020
  477MOL0     C64266   2.260   8.686   1.552  0.1478  0.3886  0.3142
  477MOL0     C64267   2.263   8.701   1.696 -0.4625 -0.0191  0.1637
  477MOL0     O64268   2.330   8.610   1.772 -0.6273  0.5183  0.0609
  477MOL0     C64269   2.264   8.565   1.892  0.4899 -0.4436  0.0585
  477MOL0     C64270   2.341   8.474   1.979 -0.4044 -0.1401  0.8856
  477MOL0     C64271   2.478   8.525   1.995  0.0203  0.2297  0.1384
  477MOL0     C64272   2.529   8.481   2.143  0.3163 -0.4344 -0.5303
  477MOL0     C64273   2.554   8.335   2.158 -0.2723 -0.3300 -0.6824
  477MOL0     C64274   2.663   8.309   2.261 -0.0215  0.3362  0.3373
  477MOL0     C64275   2.725   8.169   2.250  0.0245  0.3626 -0.1107
  477MOL0     C64276   2.671   8.070   2.348 -0.3613 -0.6524 -0.3931
  477MOL0     N64277   2.702   8.097   2.491 -0.3830  0.5833 -0.6576
  477MOL0     C64278   2.817   8.061   2.553 -0.7991  0.7854  0.3062
  477MOL0     C64279   2.794   8.066   2.687  0.8023  0.3167  0.3048
  477MOL0     C64280   2.899   8.059   2.795 -0.9968 -1.1643  0.1798
  477MOL0     C64281   3.039   8.117   2.754  0.6878 -0.0575  0.3295
  477MOL0     C64282   3.009   8.269   2.751  1.0197  0.2457  0.0083
  477MOL0     C64283   3.124   8.339   2.695  0.4391 -0.7750  0.2046
  477MOL0     O64284   3.123   8.327   2.558  0.3026  0.8453 -0.5543
  477MOL0     C64285   3.072   8.416   2.473  0.7643  0.4070 -0.7725
  477MOL0     C64286   3.108   8.408   2.335  0.2749  0.0983 -1.0210
  477MOL0     C64287   3.051   8.485   2.240 -0.3540  0.7553  0.8975
  477MOL0     C64288   3.103   8.458   2.103 -0.4036 -0.3170 -1.0974
  477MOL0     C64289   2.957   8.579   2.269 -0.0495  0.1618 -0.9978
  477MOL0     C64290   2.882   8.661   2.172 -0.5421  0.2570 -0.1810
  477MOL0     O64291   2.828   8.774   2.216 -0.4860  0.0218 -0.4456
  477MOL0     C64292   2.726   8.845   2.143 -0.3546 -0.3013  0.1304
  477MOL0     C64293   2.693   8.977   2.202 -0.3470 -0.5070 -0.4133
  477MOL0     C64294   2.608   9.062   2.142 -0.7696  0.3629  0.0006
  477MOL0     C64295   2.527   9.010   2.038  1.6903  0.1360 -0.7049
  477MOL0     O64296   2.429   9.087   1.978  0.3556  0.5383  0.8358
  477MOL0     C64297   2.458   9.216   1.927 -1.0435 -0.2916  1.1485
  477MOL0     C64298   2.561   9.200   1.816 -0.2908 -0.8420  1.7429
  477MOL0     C64299   2.505   9.128   1.698 -0.5849  0.0407 -0.0529
  477MOL0     C64300   2.586   9.139   1.575  0.0910  0.2719 -0.0335
  477MOL0     C64301   2.537   9.045   1.457 -0.9705  0.8358 -0.5084
  477MOL0     C64302   2.556   9.091   1.315  0.4963  0.0620  0.0178
  477MOL0     C64303   2.512   8.996   1.208  0.8056 -0.2663 -0.3598
  477MOL0     C64304   2.362   8.994   1.188  0.0735 -0.2204 -1.1211
  477MOL0    Cl64305   2.296   9.121   1.078  0.1435 -0.2878 -0.0383
  477MOL0     C64306   2.554   8.879   1.979 -1.3530  0.0552 -0.0504
  477MOL0     C64307   2.655   8.811   2.029 -1.0377  0.7333 -0.3298
  477MOL0     O64308   2.864   8.614   2.059  0.5353 -0.4576  0.5643
  477MOL0     C64309   2.929   8.592   2.410  0.5166 -0.4121 -0.1344
  477MOL0     C64310   2.983   8.516   2.509 -0.1085 -0.5944 -0.0724
  477MOL0     N64311   2.654   8.111   2.701 -1.2460 -0.1089 -0.1603
  477MOL0     N64312   2.608   8.135   2.583 -0.8842  0.3730 -0.0150
  477MOL0     C64313   2.233   8.831   1.749  0.7607  0.3360 -0.3324
  477MOL0     C64314   2.178   8.933   1.680 -1.0754 -0.3486  0.5476
  477MOL0     C64315   1.986   9.109   1.279 -0.3363 -0.4315 -0.4535
  477MOL0     C64316   2.008   9.249   1.305 -0.8712  0.1187  0.4941
  477MOL0     C64317   1.981   9.345   1.208 -0.1089 -0.0250 -0.3421
  477MOL0     C64318   1.920   9.310   1.088  0.7471 -0.1483  0.8683
  477MOL0     O64319   1.874   9.393   0.987 -0.0512 -0.2126 -0.1037
  477MOL0     C64320   1.920   9.527   0.989  0.0012 -0.3163 -0.6532
  477MOL0     C64321   1.951   9.544   0.839 -0.4121 -0.1267 -1.2345
  477MOL0     C64322   1.854   9.505   0.737  0.4540 -0.6932 -0.7032
  477MOL0     C64323   1.889   9.573   0.601 -0.1100  0.7447 -0.6585
  477MOL0     C64324   1.957   9.481   0.508 -0.7085  0.2272 -0.5576
  477MOL0     C64325   2.010   9.408   0.428  0.0590 -0.4422  0.6397
  477MOL0     C64326   1.878   9.176   1.065  0.6191  0.2538 -0.7825
  477MOL0     C64327   1.923   9.082   1.156  0.3322  0.8193 -0.2490
  477MOL0     H64328   2.204   8.788   1.364  1.0323  1.2702 -0.6439
  477MOL0     H64329   2.286   8.595   1.500 -2.8808  1.1402 -2.9405
  477MOL0     H64330   2.231   8.659   1.937 -1.9364 -0.6326 -1.1656
  477MOL0     H64331   2.172   8.513   1.863  0.8169 -1.9143  1.5285
  477MOL0     H64332   2.279   8.472   2.069 -2.1188 -1.4348 -0.2536
  477MOL0     H64333   2.342   8.367   1.956  2.6890 -0.6655  2.9772
  477MOL0     H64334   2.551   8.503   1.916 -3.4799 -0.4618 -3.1907
  477MOL0     H64335   2.474   8.634   2.005 -1.8438 -0.0104  3.2262
  477MOL0     H64336   2.619   8.541   2.161 -2.3900  3.8164  0.0616
  477MOL0     H64337   2.457   8.525   2.212 -1.9331  0.5659 -3.3840
  477MOL0     H64338   2.466   8.284   2.199 -0.6881  0.6301 -0.3312
  477MOL0     H64339   2.581   8.283   2.066 -3.2932 -4.3930  0.4099
  477MOL0     H64340   2.748   8.375   2.244 -0.1292  0.3203 -0.2891
  477MOL0     H64341   2.617   8.334   2.357 -5.1938  1.6344 -2.1464
  477MOL0     H64342   2.694   8.135   2.151 -1.1406 -1.3778  0.8104
  477MOL0     H64343   2.834   8.174   2.252  0.1100  0.8605 -2.7883
  477MOL0     H64344   2.712   7.970   2.329  3.4059  0.4621  1.0654
  477MOL0     H64345   2.562   8.055   2.349 -0.5438  0.5286 -1.1501
  477MOL0     H64346   2.903   8.037   2.490 -1.5592 -2.2795  0.2729
  477MOL0     H64347   2.861   8.104   2.887 -1.2918 -2.1589  0.5467
  477MOL0     H64348   2.927   7.957   2.821  4.4394  0.3247  1.4985
  477MOL0     H64349   3.064   8.084   2.653  1.1572  4.8109 -1.3877
  477MOL0     H64350   3.107   8.091   2.836 -1.5835 -1.0931  2.0151
  477MOL0     H64351   2.992   8.314   2.849 -0.0651  2.5281 -1.1433
  477MOL0     H64352   2.921   8.302   2.695  0.5026  2.2149  1.8687
  477MOL0     H64353   3.219   8.312   2.743 -0.2647  1.0727  2.8516
  477MOL0     H64354   3.119   8.447   2.712  1.4575 -0.0934 -3.1097
  477MOL0     H64355   3.192   8.348   2.302  1.4477  0.1790  1.6151
  477MOL0     H64356   3.131   8.553   2.058 -0.4325 -0.0736 -0.5987
  477MOL0     H64357   3.191   8.391   2.103  0.8056  1.0954  1.7955
  477MOL0     H64358   3.026   8.426   2.032  0.2949 -0.7497 -1.6816
  477MOL0     H64359   2.746   9.001   2.294  0.7561  0.1599 -1.1854
  477MOL0     H64360   2.592   9.161   2.182  0.2717  2.6926 -4.6850
  477MOL0     H64361   2.371   9.268   1.888 -1.7559 -1.2110  1.4791
  477MOL0     H64362   2.517   9.272   2.000 -0.9565 -1.2690  1.8505
  477MOL0     H64363   2.583   9.300   1.776  0.6570 -1.7053 -0.0213
  477MOL0     H64364   2.649   9.142   1.847  1.2460  0.8707  0.7926
  477MOL0     H64365   2.409   9.176   1.679 -0.2383  1.3415  1.2733
  477MOL0     H64366   2.489   9.023   1.727 -0.4589 -0.1714 -0.7372
  477MOL0     H64367   2.574   9.241   1.535  0.8963 -0.9337 -3.8026
  477MOL0     H64368   2.689   9.109   1.596 -0.4380 -0.4329  1.6748
  477MOL0     H64369   2.428   9.040   1.467 -1.0295 -1.6336 -1.6610
  477MOL0     H64370   2.550   8.937   1.468 -0.6088  0.5513 -3.1709
  477MOL0     H64371   2.494   9.180   1.304 -2.2639 -1.7112  0.3763
  477MOL0     H64372   2.664   9.105   1.303  0.3628 -0.2482 -1.7049
  477MOL0     H64373   2.538   8.892   1.229 -2.9656 -0.8505  2.4721
  477MOL0     H64374   2.563   9.033   1.119 -0.4549 -0.0895 -1.0349
  477MOL0     H64375   2.325   9.007   1.291  0.4011 -0.1576 -1.0106
  477MOL0     H64376   2.315   8.898   1.165  1.6947 -1.4804  0.5415
  477MOL0     H64377   2.498   8.824   1.903  2.8945 -2.5806 -1.6385
  477MOL0     H64378   2.684   8.716   1.984 -2.9099 -0.8447  1.5763
  477MOL0     H64379   2.881   8.686   2.432 -0.4988 -0.0976 -3.2313
  477MOL0     H64380   2.955   8.544   2.610  1.6631 -0.5095  0.4245
  477MOL0     H64381   2.241   8.860   1.853 -0.8929  0.6671 -0.2741
  477MOL0     H64382   2.146   9.027   1.723  2.4563 -0.1476  3.1872
  477MOL0     H64383   2.064   9.270   1.395  2.3632  2.2457 -1.8417
  477MOL0     H64384   2.011   9.449   1.219 -3.7004  1.2550 -1.3874
  477MOL0     H64385   1.838   9.590   1.024 -1.0902 -1.0785 -1.7590
  477MOL0     H64386   2.015   9.544   1.041 -0.0498 -3.7427  0.8443
  477MOL0     H64387   2.050   9.496   0.834  0.5694  1.6667 -0.2045
  477MOL0     H64388   1.971   9.651   0.824 -1.3088  0.4894  1.4757
  477MOL0     H64389   1.752   9.530   0.767  1.2792  2.0563  0.1908
  477MOL0     H64390   1.847   9.398   0.717 -0.2383 -0.2932 -2.9362
  477MOL0     H64391   1.958   9.657   0.617  1.8082 -0.5135 -1.9029
  477MOL0     H64392   1.799   9.615   0.555 -0.9736  2.9004  2.6205
  477MOL0     H64393   2.044   9.331   0.362 -0.0400  0.6804 -0.7915
  477MOL0     H64394   1.819   9.157   0.977 -2.9311  0.9986  1.2496
  477MOL0     H64395   1.918   8.975   1.141  3.7215  0.5216 -0.0638
  478MOL0     O64396  11.405   8.496   1.859  0.1769 -0.0918  0.0446
  478MOL0     C64397  11.296   8.549   1.865  0.0897 -0.2711  0.4780
  478MOL0     O64398  11.175   8.492   1.836  0.0960 -0.6938  0.1814
  478MOL0     C64399  11.175   8.367   1.779  0.8579  0.1826  0.4687
  478MOL0     C64400  11.066   8.334   1.705 -0.6535 -0.1689  0.3333
  478MOL0     C64401  11.036   8.206   1.655  0.0062 -0.4623 -0.4380
  478MOL0     C64402  11.123   8.093   1.684  0.0385 -0.3281 -1.1651
  478MOL0     O64403  11.086   7.972   1.639 -0.3941 -0.0065  0.1035
  478MOL0     C64404  11.092   7.970   1.493  1.1771 -0.1670 -0.1147
  478MOL0     C64405  11.100   7.826   1.446  0.1197  0.6193  0.2949
  478MOL0     C64406  10.988   7.737   1.517  0.8147 -0.8281 -0.4755
  478MOL0     C64407  10.979   7.605   1.447  0.8748  0.8369 -0.7764
  478MOL0     C64408  11.081   7.501   1.502 -0.0797 -0.7519 -0.1290
  478MOL0     C64409  11.063   7.361   1.441  0.1894 -0.7235  0.0705
  478MOL0     C64410  11.137   7.261   1.520  0.5890  0.0853 -0.3012
  478MOL0     C64411  11.173   7.141   1.442 -0.6379  0.2683 -0.9341
  478MOL0     N64412  11.056   7.079   1.377  0.0814 -0.1664  0.5985
  478MOL0     C64413  10.959   6.991   1.429  0.0422 -0.4441  0.6663
  478MOL0     C64414  10.868   6.971   1.326  0.2087  0.4644  0.0754
  478MOL0     C64415  10.741   6.883   1.330 -0.0156 -0.2234 -0.5979
  478MOL0     C64416  10.773   6.741   1.284 -0.3908 -0.7830 -0.6613
  478MOL0     C64417  10.690   6.706   1.167  0.0525  0.9643 -0.1347
  478MOL0     C64418  10.722   6.566   1.107  0.0840 -0.2629 -0.0195
  478MOL0     O64419  10.702   6.456   1.198 -0.3871  0.3357 -1.1213
  478MOL0     C64420  10.725   6.328   1.152  0.0586 -0.5626  0.2311
  478MOL0     C64421  10.783   6.286   1.034 -0.8237 -0.8370 -0.3253
  478MOL0     C64422  10.830   6.155   1.011 -0.1005 -0.1407  0.1034
  478MOL0     C64423  10.901   6.120   0.878  0.4474  0.2259  0.4638
  478MOL0     C64424  10.791   6.056   1.118  0.7447 -0.0070  0.2761
  478MOL0     C64425  10.827   5.910   1.087  0.1177 -0.4597  0.4422
  478MOL0     O64426  10.951   5.876   1.020 -0.5982 -0.2143  0.0818
  478MOL0     C64427  11.000   5.748   1.007 -0.6236  0.2924 -0.0364
  478MOL0     C64428  11.139   5.739   1.017 -0.9566 -0.0571 -1.1542
  478MOL0     C64429  11.207   5.617   1.010 -0.8070 -0.9551  0.4931
  478MOL0     C64430  11.132   5.503   0.986 -0.2949 -0.0591  0.0525
  478MOL0     O64431  11.185   5.375   0.975  0.3365  0.0398  0.4034
  478MOL0     C64432  11.320   5.347   1.017  0.4354 -0.1566  0.5425
  478MOL0     C64433  11.346   5.192   1.014 -0.4345  0.0869  1.1058
  478MOL0     C64434  11.492   5.162   1.043 -0.8047  0.2530 -0.4267
  478MOL0     C64435  11.589   5.184   0.929  0.2660 -0.4579 -0.3014
  478MOL0     C64436  11.732   5.211   0.966  0.8959  0.3557  0.1022
  478MOL0     C64437  11.810   5.243   0.845  0.4878  0.4093  0.4322
  478MOL0     C64438  11.931   5.324   0.881  0.2296 -0.1639  1.2215
  478MOL0     C64439  11.911   5.476   0.890 -0.7465  0.3790  1.2143
  478MOL0    Cl64440  11.853   5.534   0.726  0.1319 -0.2902  0.2288
  478MOL0     C64441  10.995   5.508   0.978  0.8975 -0.3972  0.7239
  478MOL0     C64442  10.922   5.631   0.981 -0.0808  0.9551  0.7555
  478MOL0     O64443  10.738   5.832   1.123 -0.4624  0.1837  0.7274
  478MOL0     C64444  10.714   6.094   1.228 -0.2507  0.1765 -0.9186
  478MOL0     C64445  10.692   6.235   1.250  0.3133 -0.0142  0.3773
  478MOL0     N64446  10.916   7.026   1.210  0.8100 -0.0977 -0.6388
  478MOL0     N64447  11.027   7.092   1.242  0.5071  0.5161  0.0394
  478MOL0     C64448  11.241   8.133   1.756 -0.1788  0.8665  0.4199
  478MOL0     C64449  11.260   8.256   1.811 -1.1371  0.6042  0.0564
  478MOL0     C64450  11.302   8.688   1.916  0.3369  0.5285 -0.1711
  478MOL0     C64451  11.421   8.743   1.967 -0.7202  0.4511  0.3939
  478MOL0     C64452  11.422   8.870   2.016 -0.1787  0.3087  0.1443
  478MOL0     C64453  11.304   8.948   2.023  0.8517  0.2682 -0.2486
  478MOL0     O64454  11.312   9.083   2.064 -0.5887  0.0819  0.6601
  478MOL0     C64455  11.198   9.162   2.079  0.1039 -0.7566  0.5425
  478MOL0     C64456  11.263   9.302   2.072  0.9515  1.4341  0.8892
  478MOL0     C64457  11.151   9.413   2.076 -0.0232  0.2902 -0.7139
  478MOL0     C64458  11.164   9.531   1.987 -0.0201  0.4109  0.7037
  478MOL0     C64459  11.301   9.591   2.002 -0.0509  0.7589  0.5498
  478MOL0     C64460  11.407   9.645   2.019 -0.1440  0.9410  0.8082
  478MOL0     C64461  11.181   8.882   1.979 -0.2638  0.2333  0.6626
  478MOL0     C64462  11.185   8.759   1.920  0.5805  0.4615  0.3404
  478MOL0     H64463  10.989   8.410   1.698 -1.5936 -1.1431 -0.2868
  478MOL0     H64464  10.940   8.188   1.606 -1.1621  0.9545  1.1854
  478MOL0     H64465  10.999   8.016   1.459  0.3844 -2.0215 -0.5780
  478MOL0     H64466  11.181   8.026   1.462 -0.3249  2.8201  0.6208
  478MOL0     H64467  11.072   7.841   1.341 -3.6988 -1.0927  0.9011
  478MOL0     H64468  11.200   7.784   1.458  1.2840  2.9096 -0.6788
  478MOL0     H64469  11.005   7.721   1.623  0.4907  1.2495 -0.0758
  478MOL0     H64470  10.893   7.789   1.500  1.2776 -0.1823 -1.1582
  478MOL0     H64471  10.880   7.563   1.465  2.5179 -1.9675  2.9287
  478MOL0     H64472  10.987   7.615   1.338 -1.1488 -2.5925 -1.3774
  478MOL0     H64473  11.185   7.534   1.495  0.1763 -0.7875  2.4178
  478MOL0     H64474  11.053   7.501   1.608  1.3286 -0.3014  0.2598
  478MOL0     H64475  10.961   7.332   1.415  0.4018 -1.6575  0.2454
  478MOL0     H64476  11.106   7.367   1.341  1.2904  1.6878  0.6141
  478MOL0     H64477  11.218   7.313   1.572 -2.2069  3.4462  1.1218
  478MOL0     H64478  11.072   7.238   1.605  1.9525  0.3322  0.8443
  478MOL0     H64479  11.227   7.059   1.489 -0.6452  1.1873  0.7711
  478MOL0     H64480  11.247   7.174   1.368 -1.9213  0.0051 -2.3871
  478MOL0     H64481  10.960   6.960   1.533 -1.2217 -0.1696  0.7843
  478MOL0     H64482  10.699   6.884   1.431  0.2774 -5.4305 -0.1889
  478MOL0     H64483  10.669   6.935   1.266 -2.0137 -2.3418 -0.1979
  478MOL0     H64484  10.751   6.672   1.366  0.1150  0.8184  0.8950
  478MOL0     H64485  10.876   6.727   1.251 -1.1295 -6.8311 -1.3786
  478MOL0     H64486  10.705   6.771   1.079 -1.5569 -0.4369 -1.5181
  478MOL0     H64487  10.584   6.719   1.192 -1.1909 -1.9551 -3.1196
  478MOL0     H64488  10.817   6.575   1.055 -1.7133 -1.0803 -3.7472
  478MOL0     H64489  10.657   6.547   1.021  0.7684  1.2332 -0.8990
  478MOL0     H64490  10.808   6.357   0.956  4.0820 -2.6323 -0.7667
  478MOL0     H64491  10.991   6.059   0.889 -1.6021 -2.8707  1.5037
  478MOL0     H64492  10.828   6.077   0.808 -0.4480  4.7246 -1.7468
  478MOL0     H64493  10.938   6.203   0.818 -0.3374 -0.1730 -0.6108
  478MOL0     H64494  11.191   5.833   1.030 -0.1110 -0.4807 -1.4111
  478MOL0     H64495  11.311   5.608   1.042 -1.8670 -4.0159  3.6953
  478MOL0     H64496  11.381   5.406   0.949 -1.2494  1.3250  0.2516
  478MOL0     H64497  11.340   5.386   1.117  1.4202  2.5870 -0.6293
  478MOL0     H64498  11.284   5.139   1.087 -0.0345 -0.8746  0.7585
  478MOL0     H64499  11.312   5.159   0.916 -0.7758 -0.0050  1.2546
  478MOL0     H64500  11.504   5.054   1.059 -1.5679  0.2303  0.1012
  478MOL0     H64501  11.529   5.218   1.130 -1.1288  0.5183 -0.4573
  478MOL0     H64502  11.589   5.116   0.844  3.6926 -0.1512 -0.7027
  478MOL0     H64503  11.548   5.265   0.868  3.3352 -0.3388 -2.4393
  478MOL0     H64504  11.770   5.117   1.008  2.4142  0.6915 -0.4815
  478MOL0     H64505  11.741   5.285   1.047  0.6631 -0.0134  0.4730
  478MOL0     H64506  11.851   5.153   0.800  2.5832  0.9195  1.2049
  478MOL0     H64507  11.757   5.304   0.771  0.6714  0.1146  0.0575
  478MOL0     H64508  12.006   5.300   0.805 -0.3139 -1.5657  1.0967
  478MOL0     H64509  11.992   5.307   0.971  0.5406 -4.2619  0.4273
  478MOL0     H64510  12.003   5.531   0.907  0.3459 -0.4994 -1.2945
  478MOL0     H64511  11.846   5.511   0.971 -2.0798 -0.8868  0.7423
  478MOL0     H64512  10.933   5.423   0.952 -0.8879  1.3500 -1.0801
  478MOL0     H64513  10.814   5.626   0.971  0.1761 -1.0605 -2.6482
  478MOL0     H64514  10.693   6.021   1.305 -2.0027 -0.7959 -2.2572
  478MOL0     H64515  10.656   6.266   1.347 -0.0099 -1.0230  0.5856
  478MOL0     H64516  11.311   8.053   1.778 -1.8139 -0.3916  1.2296
  478MOL0     H64517  11.345   8.294   1.867 -2.1710  2.7148  0.3193
  478MOL0     H64518  11.515   8.688   1.970 -2.5265 -2.8368  2.0513
  478MOL0     H64519  11.509   8.915   2.064 -0.2682  2.5792 -1.6926
  478MOL0     H64520  11.113   9.155   2.009  0.2057 -1.3060  0.4746
  478MOL0     H64521  11.160   9.135   2.178 -1.5078 -1.3570 -0.2030
  478MOL0     H64522  11.312   9.303   1.974 -0.6808 -3.2056 -0.2465
  478MOL0     H64523  11.333   9.317   2.155 -0.5215  0.1523  2.4370
  478MOL0     H64524  11.153   9.456   2.177 -2.2008 -1.6115  0.2458
  478MOL0     H64525  11.055   9.362   2.064  1.1116 -2.0964 -0.1985
  478MOL0     H64526  11.086   9.605   2.008 -2.1092 -1.6791  0.6690
  478MOL0     H64527  11.153   9.496   1.884 -4.5902 -2.6952  1.9526
  478MOL0     H64528  11.499   9.701   2.026  0.3305  0.6866 -1.9669
  478MOL0     H64529  11.084   8.925   2.003  0.0748  0.4375  1.7620
  478MOL0     H64530  11.096   8.713   1.879  2.9268 -1.0105 -3.5918
  479MOL0     O64531   7.946   1.922   6.461 -0.1713 -0.1230 -0.0153
  479MOL0     C64532   8.059   1.881   6.464 -0.6896  0.1452  1.3048
  479MOL0     O64533   8.167   1.953   6.503  0.5561 -0.0724  0.0649
  479MOL0     C64534   8.145   2.077   6.559 -0.4159  0.4454 -0.3583
  479MOL0     C64535   8.075   2.182   6.508 -0.0778 -0.3936  0.4381
  479MOL0     C64536   8.037   2.295   6.580  0.0216 -0.0341  0.1908
  479MOL0     C64537   8.086   2.309   6.713 -0.2637  0.4016 -0.3407
  479MOL0     O64538   8.072   2.425   6.787 -1.0465  0.4730 -0.1154
  479MOL0     C64539   8.032   2.545   6.723 -0.0173 -0.5887  0.5244
  479MOL0     C64540   8.061   2.651   6.831 -0.1753  0.0944  0.0933
  479MOL0     C64541   8.213   2.689   6.824 -0.2414 -0.1799 -1.3149
  479MOL0     C64542   8.253   2.761   6.955  0.0631  0.2027 -0.9538
  479MOL0     C64543   8.336   2.891   6.948 -0.1115 -0.0069  0.7041
  479MOL0     C64544   8.468   2.885   6.866  0.0331 -0.2556  0.4900
  479MOL0     C64545   8.513   3.023   6.828  0.0560 -0.3568 -0.2580
  479MOL0     C64546   8.613   3.023   6.710 -0.0827  0.2080 -0.9632
  479MOL0     N64547   8.715   2.914   6.714 -0.1343 -0.0245  0.5132
  479MOL0     C64548   8.712   2.795   6.645 -0.9448 -0.7377  0.1526
  479MOL0     C64549   8.839   2.747   6.648  0.4095 -0.2243  0.3361
  479MOL0     C64550   8.884   2.624   6.585 -0.4100 -0.2575  0.4273
  479MOL0     C64551   8.950   2.654   6.450 -0.6332  0.4708  0.9903
  479MOL0     C64552   8.975   2.535   6.349  1.0424 -1.1882 -0.8168
  479MOL0     C64553   9.075   2.442   6.399  0.1471  0.0458 -0.5223
  479MOL0     O64554   9.100   2.348   6.287 -0.0586  0.1180 -0.2855
  479MOL0     C64555   9.129   2.219   6.315  0.1007 -0.0198 -1.6027
  479MOL0     C64556   9.234   2.188   6.402 -1.2103  0.0567 -0.3372
  479MOL0     C64557   9.262   2.065   6.452 -0.1570  0.8524 -1.2638
  479MOL0     C64558   9.367   2.050   6.551 -0.2551 -0.0477 -0.2468
  479MOL0     C64559   9.178   1.956   6.405  0.4263  0.4520  0.4075
  479MOL0     C64560   9.192   1.817   6.443 -0.4851  0.3248  0.3808
  479MOL0     O64561   9.088   1.737   6.476  0.1799  0.3630 -1.2908
  479MOL0     C64562   9.122   1.613   6.541 -0.2623  0.0274 -0.0282
  479MOL0     C64563   9.156   1.608   6.672  1.2747  0.0971  0.3610
  479MOL0     C64564   9.185   1.479   6.736 -0.1824 -1.0441 -0.1189
  479MOL0     C64565   9.168   1.367   6.661 -0.1974  0.0615 -0.5392
  479MOL0     O64566   9.194   1.243   6.725  0.0118  0.3297 -0.6650
  479MOL0     C64567   9.229   1.137   6.645  0.2290  0.4637 -0.5244
  479MOL0     C64568   9.358   1.151   6.566 -0.7634  0.0050  0.0481
  479MOL0     C64569   9.475   1.091   6.638  0.7045 -0.0377  0.1948
  479MOL0     C64570   9.534   1.196   6.729 -0.3205  0.0749 -0.1037
  479MOL0     C64571   9.633   1.128   6.820 -0.5641 -0.7668 -0.3223
  479MOL0     C64572   9.752   1.047   6.750 -0.2592 -0.2311 -0.3547
  479MOL0     C64573   9.852   1.121   6.659 -0.4487 -0.4184 -0.6944
  479MOL0     C64574   9.911   1.246   6.729  0.1723 -0.8019  0.3342
  479MOL0    Cl64575  10.030   1.320   6.618 -0.3502 -0.2423  0.3152
  479MOL0     C64576   9.138   1.381   6.524  0.2338  0.5385  0.5120
  479MOL0     C64577   9.135   1.502   6.460  0.5730 -0.2095 -0.3088
  479MOL0     O64578   9.311   1.776   6.452 -0.4098 -0.0304 -0.2745
  479MOL0     C64579   9.075   1.984   6.314 -0.0689 -0.4705 -0.0238
  479MOL0     C64580   9.057   2.110   6.264  0.5813 -0.1446 -0.8034
  479MOL0     N64581   8.906   2.816   6.748  0.5913 -0.2226  0.5830
  479MOL0     N64582   8.841   2.918   6.784  0.2122  0.1818  0.4982
  479MOL0     C64583   8.172   2.210   6.761 -0.2661  1.8893 -0.4873
  479MOL0     C64584   8.199   2.097   6.687  0.2079  0.6075 -0.1929
  479MOL0     C64585   8.086   1.747   6.413 -0.5953 -0.4434  0.0264
  479MOL0     C64586   8.204   1.678   6.442 -0.9132 -1.3891  0.4473
  479MOL0     C64587   8.239   1.559   6.385 -0.6830  0.6513 -0.3545
  479MOL0     C64588   8.159   1.493   6.288  0.1597  0.4683 -1.0370
  479MOL0     O64589   8.191   1.395   6.199 -0.9079 -0.1393 -0.5144
  479MOL0     C64590   8.334   1.370   6.181 -0.5609 -0.6520 -0.3511
  479MOL0     C64591   8.391   1.284   6.297 -0.2590 -0.5039  0.1261
  479MOL0     C64592   8.529   1.230   6.275  0.8722  0.3259 -0.8746
  479MOL0     C64593   8.622   1.251   6.401 -0.0157  0.6113  0.2244
  479MOL0     C64594   8.640   1.394   6.432  0.5718  0.3350 -0.2437
  479MOL0     C64595   8.644   1.510   6.450  0.1415 -0.6674 -0.1450
  479MOL0     C64596   8.037   1.553   6.253  0.4230 -0.8517 -0.3579
  479MOL0     C64597   8.011   1.687   6.313  0.1989 -0.0566  0.1091
  479MOL0     H64598   8.028   2.168   6.411 -2.7175 -2.1938  1.8392
  479MOL0     H64599   7.975   2.363   6.522 -0.4658  0.0626  0.8121
  479MOL0     H64600   8.089   2.567   6.633 -1.1445  0.4164  0.0271
  479MOL0     H64601   7.925   2.544   6.702 -0.1016  0.9493  0.7827
  479MOL0     H64602   8.003   2.743   6.824  0.1090  0.8643  4.6067
  479MOL0     H64603   8.029   2.620   6.931 -1.7580  1.1025 -0.0652
  479MOL0     H64604   8.280   2.605   6.801  1.8999  0.0223  3.0724
  479MOL0     H64605   8.227   2.770   6.752  0.6075  1.4573  0.6107
  479MOL0     H64606   8.157   2.790   6.999 -0.0713 -0.6694 -0.6601
  479MOL0     H64607   8.301   2.680   7.010 -0.6770 -2.4240 -3.9175
  479MOL0     H64608   8.282   2.974   6.903  0.9956  2.8721  4.2320
  479MOL0     H64609   8.370   2.922   7.047  0.2659  1.9825 -0.0135
  479MOL0     H64610   8.541   2.831   6.928  1.8456  0.5212 -0.8845
  479MOL0     H64611   8.449   2.819   6.781  0.9605 -3.7827  2.7678
  479MOL0     H64612   8.424   3.082   6.806 -0.6083 -0.6174  1.5326
  479MOL0     H64613   8.555   3.078   6.913 -1.4217 -0.2414  0.4275
  479MOL0     H64614   8.665   3.117   6.690  1.5040 -0.2470  0.7655
  479MOL0     H64615   8.545   3.003   6.626 -1.5359  1.1208 -0.0454
  479MOL0     H64616   8.631   2.752   6.588  2.0559 -3.5714 -2.3170
  479MOL0     H64617   8.951   2.561   6.645  2.5650  0.8278 -1.4885
  479MOL0     H64618   8.791   2.575   6.556 -0.8740  0.2579  1.0087
  479MOL0     H64619   9.052   2.694   6.458  2.4079 -5.3877 -1.8311
  479MOL0     H64620   8.897   2.733   6.397 -0.9937 -1.3508 -1.5657
  479MOL0     H64621   9.012   2.578   6.256  0.2299 -1.0134 -1.0619
  479MOL0     H64622   8.875   2.491   6.343 -0.9195  2.9896 -5.6221
  479MOL0     H64623   9.044   2.393   6.492  0.8982 -0.0191 -0.3035
  479MOL0     H64624   9.168   2.493   6.423  1.3752 -1.4403 -1.8808
  479MOL0     H64625   9.303   2.270   6.419 -0.4594 -0.3652 -1.2527
  479MOL0     H64626   9.333   2.026   6.652  1.3962  1.1726  0.6347
  479MOL0     H64627   9.450   1.985   6.525  0.9922  1.1126  0.6938
  479MOL0     H64628   9.416   2.146   6.572 -0.5106 -0.0478  0.3787
  479MOL0     H64629   9.158   1.703   6.724 -0.1178  0.5135 -0.3020
  479MOL0     H64630   9.216   1.474   6.839 -0.1221 -1.3312 -0.1510
  479MOL0     H64631   9.229   1.050   6.711 -2.2331 -0.2894 -1.4287
  479MOL0     H64632   9.143   1.107   6.585 -3.0311 -1.8603  4.6576
  479MOL0     H64633   9.339   1.083   6.483  3.9795 -0.1055 -1.2368
  479MOL0     H64634   9.377   1.252   6.528  1.6211 -0.5338 -0.3566
  479MOL0     H64635   9.547   1.057   6.563 -0.7732  1.9797 -2.3407
  479MOL0     H64636   9.446   1.000   6.692  0.9493 -1.0784 -1.3341
  479MOL0     H64637   9.585   1.279   6.679 -0.1308  1.2621  1.9460
  479MOL0     H64638   9.453   1.251   6.779  0.3259  0.4470  0.5620
  479MOL0     H64639   9.588   1.051   6.883 -0.7285  0.3205  0.9154
  479MOL0     H64640   9.682   1.195   6.891 -0.5124  1.5707 -2.4089
  479MOL0     H64641   9.815   1.004   6.829 -0.8088  1.7710  1.2498
  479MOL0     H64642   9.717   0.967   6.684 -1.4887  1.5009 -1.8992
  479MOL0     H64643   9.796   1.156   6.572 -0.7037  1.2572  0.1207
  479MOL0     H64644   9.929   1.046   6.636  0.8796  0.9064 -0.6851
  479MOL0     H64645   9.964   1.220   6.821  1.7505  2.8518  0.6279
  479MOL0     H64646   9.830   1.313   6.759 -0.9560 -2.6307  1.6397
  479MOL0     H64647   9.135   1.289   6.467  1.8471 -1.2879  3.1576
  479MOL0     H64648   9.147   1.507   6.353  2.1734  1.5078 -0.0952
  479MOL0     H64649   9.007   1.901   6.299 -1.1224 -0.3848  3.3355
  479MOL0     H64650   8.973   2.131   6.198 -3.5467 -4.2108  2.4935
  479MOL0     H64651   8.228   2.213   6.853  0.6529 -2.5356 -0.6873
  479MOL0     H64652   8.268   2.024   6.727 -0.5761  0.6143  1.2181
  479MOL0     H64653   8.269   1.720   6.518 -0.3379 -1.5558  0.0518
  479MOL0     H64654   8.343   1.534   6.399 -1.1004 -1.6147 -0.8551
  479MOL0     H64655   8.364   1.321   6.088 -1.1902  0.4141 -1.1415
  479MOL0     H64656   8.380   1.469   6.177  1.7879 -1.6053  0.9776
  479MOL0     H64657   8.338   1.190   6.278  0.7940 -1.0668 -0.0736
  479MOL0     H64658   8.355   1.320   6.394  1.2085  2.0830 -0.2017
  479MOL0     H64659   8.584   1.281   6.195  2.2545  4.2327  2.2281
  479MOL0     H64660   8.522   1.122   6.256 -0.1617  0.3409 -0.6356
  479MOL0     H64661   8.716   1.199   6.381 -1.2976 -1.2985 -1.1970
  479MOL0     H64662   8.576   1.201   6.486 -0.8572  0.6542 -0.2018
  479MOL0     H64663   8.667   1.611   6.479  1.0698 -1.7664  3.4321
  479MOL0     H64664   7.977   1.509   6.174  1.0443 -2.2494 -0.0833
  479MOL0     H64665   7.933   1.741   6.259 -0.2117 -0.4370  0.3135
  480MOL0     O64666   3.987   1.114   9.791  0.2650 -0.0420  0.3351
  480MOL0     C64667   3.875   1.092   9.848 -0.3930  1.2125 -0.2627
  480MOL0     O64668   3.865   1.072   9.987  0.8989 -0.0161 -0.4351
  480MOL0     C64669   3.948   1.116  10.089 -0.1222 -0.8326 -0.4038
  480MOL0     C64670   4.044   1.211  10.075 -0.1923 -0.3029  0.3393
  480MOL0     C64671   4.134   1.252  10.169  1.4200  0.1399  0.0477
  480MOL0     C64672   4.117   1.188  10.297 -0.7419 -1.1125  1.0276
  480MOL0     O64673   4.208   1.215  10.400 -0.3814  0.0847 -0.7121
  480MOL0     C64674   4.279   1.341  10.420  0.6842  0.1844  0.2954
  480MOL0     C64675   4.304   1.371  10.570  0.2145 -0.5515  0.2036
  480MOL0     C64676   4.341   1.514  10.604 -0.1230 -0.5035  0.3361
  480MOL0     C64677   4.478   1.557  10.551  0.9972  0.1070 -0.4377
  480MOL0     C64678   4.507   1.699  10.610  0.3088 -0.1488 -0.2517
  480MOL0     C64679   4.567   1.696  10.740 -0.7658  0.4813 -0.2310
  480MOL0     C64680   4.566   1.835  10.807 -0.6404  0.8908  0.6110
  480MOL0     C64681   4.685   1.846  10.912 -0.0289 -0.1989 -0.0911
  480MOL0     N64682   4.706   1.985  10.950 -0.1365 -0.3903 -0.3020
  480MOL0     C64683   4.827   2.028  10.992  0.0362  0.5017  0.3961
  480MOL0     C64684   4.801   2.164  11.011 -0.9823  0.5314  0.6334
  480MOL0     C64685   4.911   2.256  11.074 -0.2844 -0.1981  0.0537
  480MOL0     C64686   5.025   2.305  10.978  0.4816  1.0945  0.5393
  480MOL0     C64687   4.972   2.390  10.864  0.2130 -0.4407  0.2973
  480MOL0     C64688   5.091   2.436  10.769  0.2905  0.3470 -0.5958
  480MOL0     O64689   5.139   2.325  10.694 -0.6883  0.3673 -0.7169
  480MOL0     C64690   5.247   2.332  10.607 -0.5295  0.3652 -0.4434
  480MOL0     C64691   5.298   2.449  10.563  0.0762 -0.2881  0.6369
  480MOL0     C64692   5.398   2.461  10.457  0.0064 -0.2006  0.2112
  480MOL0     C64693   5.444   2.604  10.414  0.6601 -0.1701  0.6637
  480MOL0     C64694   5.452   2.336  10.411  0.2376 -0.8310  0.8451
  480MOL0     C64695   5.556   2.339  10.313 -1.0658  0.4994 -0.2843
  480MOL0     O64696   5.673   2.405  10.349 -1.1738  0.1822  0.1872
  480MOL0     C64697   5.768   2.413  10.261 -0.3008  0.4506  0.2243
  480MOL0     C64698   5.769   2.504  10.159 -0.6729 -0.2118  0.6540
  480MOL0     C64699   5.880   2.526  10.072  0.6777  0.9137  0.0008
  480MOL0     C64700   5.983   2.430  10.080  0.6113  0.4501  0.7184
  480MOL0     O64701   6.091   2.458   9.998 -0.6192  0.0310  0.1229
  480MOL0     C64702   6.204   2.375  10.012  0.2429 -1.4845 -0.8728
  480MOL0     C64703   6.310   2.414   9.908  0.3773 -0.8580  0.6618
  480MOL0     C64704   6.425   2.318   9.915 -0.0322 -0.3495 -0.7052
  480MOL0     C64705   6.539   2.345   9.815  0.3716  0.6374 -0.2351
  480MOL0     C64706   6.649   2.245   9.819  0.4970 -0.3045  0.0109
  480MOL0     C64707   6.780   2.282   9.747 -1.1413 -0.1423  0.2365
  480MOL0     C64708   6.769   2.271   9.591  0.4112  0.1866  0.1860
  480MOL0     C64709   6.674   2.154   9.533 -0.1945  0.5152  0.5807
  480MOL0    Cl64710   6.729   2.009   9.598  0.0151  0.0859  0.1532
  480MOL0     C64711   5.972   2.318  10.170 -0.5695 -0.9232  1.3703
  480MOL0     C64712   5.867   2.314  10.260 -0.1503  0.1497 -0.5487
  480MOL0     O64713   5.542   2.262  10.222 -0.6662 -0.9905  0.2878
  480MOL0     C64714   5.407   2.218  10.462  0.8116  0.1283 -0.1429
  480MOL0     C64715   5.298   2.215  10.557 -0.0709 -0.0503  0.6519
  480MOL0     N64716   4.668   2.188  10.989 -1.3573  0.3848  0.2927
  480MOL0     N64717   4.615   2.088  10.941 -0.3098  0.5789  0.2992
  480MOL0     C64718   4.023   1.100  10.324  0.0353 -0.5773  0.6965
  480MOL0     C64719   3.930   1.067  10.220 -0.1437  0.6815  0.0104
  480MOL0     C64720   3.762   1.060   9.760  0.3572 -1.3996  0.3215
  480MOL0     C64721   3.639   1.047   9.824 -0.7786  0.6537 -0.4308
  480MOL0     C64722   3.524   1.010   9.745 -0.2728 -0.8527 -0.3522
  480MOL0     C64723   3.533   0.984   9.614 -0.4105  0.2041  0.1834
  480MOL0     O64724   3.425   0.936   9.544 -0.0103 -0.4585 -0.5443
  480MOL0     C64725   3.384   0.985   9.416  0.9848 -0.2070 -0.8610
  480MOL0     C64726   3.318   0.872   9.334  0.0522  0.8294 -0.8797
  480MOL0     C64727   3.422   0.779   9.269  0.2994  1.1728 -0.4068
  480MOL0     C64728   3.500   0.852   9.163 -0.5850 -0.3963  0.0494
  480MOL0     C64729   3.597   0.757   9.112  0.1030 -1.6068 -0.0357
  480MOL0     C64730   3.675   0.687   9.055 -0.9447 -0.7893 -0.3404
  480MOL0     C64731   3.659   1.009   9.550  0.4528 -0.7881  0.7077
  480MOL0     C64732   3.773   1.035   9.620 -0.6402  0.8197  1.4772
  480MOL0     H64733   4.059   1.268   9.984 -1.6511 -1.0767 -0.4160
  480MOL0     H64734   4.218   1.321  10.165  3.1591 -1.3151  4.6442
  480MOL0     H64735   4.377   1.335  10.373  1.2117  0.1678  1.3667
  480MOL0     H64736   4.221   1.426  10.382  0.7983  0.1582  0.0635
  480MOL0     H64737   4.203   1.359  10.609 -0.5736  3.1172 -0.3437
  480MOL0     H64738   4.374   1.296  10.607  0.3281 -0.7079 -0.3250
  480MOL0     H64739   4.252   1.574  10.580 -0.6780 -0.5482  2.1197
  480MOL0     H64740   4.352   1.511  10.713  1.0182 -0.0968  0.2377
  480MOL0     H64741   4.549   1.480  10.582 -0.4077 -0.7020  0.9073
  480MOL0     H64742   4.473   1.562  10.441  0.4319 -3.4624 -0.6824
  480MOL0     H64743   4.575   1.751  10.542  0.5616 -3.3654 -2.7482
  480MOL0     H64744   4.412   1.749  10.632  1.0318 -0.4740  4.6832
  480MOL0     H64745   4.505   1.635  10.807  1.8304 -1.6310  0.4012
  480MOL0     H64746   4.666   1.650  10.741 -1.6581 -1.5439 -0.0356
  480MOL0     H64747   4.591   1.902  10.723  1.5413 -2.5231 -1.7229
  480MOL0     H64748   4.474   1.861  10.860 -0.2965 -1.8146  2.7020
  480MOL0     H64749   4.780   1.803  10.878  1.1153 -0.1727  2.8429
  480MOL0     H64750   4.656   1.785  10.997 -1.0316 -3.3762 -2.4942
  480MOL0     H64751   4.924   1.981  11.007  1.2918  2.7139 -0.2642
  480MOL0     H64752   4.858   2.343  11.115  0.8035 -0.4594  2.1766
  480MOL0     H64753   4.951   2.204  11.162 -0.9426 -1.1488 -0.1808
  480MOL0     H64754   5.073   2.217  10.934 -1.3966  1.1021 -1.7690
  480MOL0     H64755   5.099   2.366  11.030 -1.8609  4.3047  0.3792
  480MOL0     H64756   4.929   2.481  10.907 -0.6664 -0.4518 -0.5283
  480MOL0     H64757   4.892   2.340  10.809  1.6397 -1.3504 -1.0040
  480MOL0     H64758   5.160   2.495  10.831 -2.3843  1.6002  1.4150
  480MOL0     H64759   5.054   2.519  10.709  1.2015  1.9791  1.0177
  480MOL0     H64760   5.276   2.545  10.608  0.8957 -0.0709  0.5885
  480MOL0     H64761   5.537   2.639  10.459  0.6492  2.9652 -1.4216
  480MOL0     H64762   5.457   2.605  10.305  0.6966 -2.9264  0.5624
  480MOL0     H64763   5.368   2.681  10.431 -0.1899 -0.7737 -0.2481
  480MOL0     H64764   5.675   2.553  10.135 -0.8464 -0.7373  0.2426
  480MOL0     H64765   5.880   2.606   9.999  0.5679  1.1323  0.2361
  480MOL0     H64766   6.246   2.390  10.112 -0.4242  0.7736 -0.8800
  480MOL0     H64767   6.183   2.268  10.006 -1.0234 -1.7645  4.0884
  480MOL0     H64768   6.261   2.417   9.810 -0.0618  2.7399  0.8504
  480MOL0     H64769   6.348   2.516   9.914 -1.3792  0.2929 -3.7341
  480MOL0     H64770   6.376   2.221   9.912 -1.2487  0.0013  2.7958
  480MOL0     H64771   6.465   2.323  10.017 -1.0786 -0.2062 -0.2980
  480MOL0     H64772   6.486   2.345   9.719 -0.0943  2.1640  0.0029
  480MOL0     H64773   6.576   2.446   9.832  0.4417  0.1975  2.8499
  480MOL0     H64774   6.607   2.147   9.795 -0.2468 -0.9592  3.4892
  480MOL0     H64775   6.677   2.231   9.924  3.2948  2.2850 -0.2648
  480MOL0     H64776   6.814   2.384   9.766  0.2660 -0.8272  1.5553
  480MOL0     H64777   6.853   2.214   9.791 -2.2514 -3.3678 -2.4741
  480MOL0     H64778   6.871   2.266   9.552 -0.7131 -2.0165 -2.8282
  480MOL0     H64779   6.711   2.358   9.559 -1.1885 -0.4007  1.3735
  480MOL0     H64780   6.675   2.147   9.424  1.8791 -2.5357  0.6583
  480MOL0     H64781   6.568   2.178   9.544 -0.5988 -1.2345  0.8174
  480MOL0     H64782   6.053   2.245  10.163  0.2348  0.1109 -1.8698
  480MOL0     H64783   5.865   2.237  10.336 -1.7969 -0.0524 -0.7737
  480MOL0     H64784   5.441   2.121  10.426 -2.8052 -1.3124 -0.0696
  480MOL0     H64785   5.263   2.120  10.596 -1.8769  1.3453  2.6562
  480MOL0     H64786   4.023   1.050  10.420  2.0375  0.8335  1.4817
  480MOL0     H64787   3.848   0.997  10.234  1.2495 -1.7111 -2.6268
  480MOL0     H64788   3.635   1.067   9.930  3.4481  1.6389 -0.2818
  480MOL0     H64789   3.425   0.997   9.787 -0.7379  3.5886  0.4693
  480MOL0     H64790   3.308   1.062   9.434 -0.0558 -1.1033 -1.3122
  480MOL0     H64791   3.463   1.037   9.361 -1.9376  4.5038 -1.1979
  480MOL0     H64792   3.257   0.915   9.254  1.7732 -1.6205 -3.7356
  480MOL0     H64793   3.260   0.815   9.407  1.0828 -0.3755 -0.9706
  480MOL0     H64794   3.359   0.708   9.214  0.9744  1.8306 -2.1254
  480MOL0     H64795   3.483   0.719   9.337 -1.5301 -3.2788 -2.2985
  480MOL0     H64796   3.554   0.936   9.208 -1.1349 -0.4641  0.8556
  480MOL0     H64797   3.438   0.895   9.084  2.5825  0.4247 -2.1918
  480MOL0     H64798   3.750   0.629   9.005  2.4882  3.0944 -0.2901
  480MOL0     H64799   3.668   1.014   9.442  0.0071  0.1609  0.7062
  480MOL0     H64800   3.873   1.026   9.580 -0.5663 -1.0567  1.9944
  481MOL0     O64801  10.469   9.601   1.210 -0.1827 -0.3337 -0.3943
  481MOL0     C64802  10.362   9.662   1.211 -0.2939  0.6824 -0.2786
  481MOL0     O64803  10.264   9.651   1.306  0.1075 -0.4379 -0.0726
  481MOL0     C64804  10.279   9.563   1.405  0.5405  0.5818 -0.7247
  481MOL0     C64805  10.315   9.427   1.405  0.7361 -0.0203 -0.8952
  481MOL0     C64806  10.324   9.354   1.520  0.1190  0.0058  0.1599
  481MOL0     C64807  10.303   9.411   1.645  0.1480 -0.3583  0.5128
  481MOL0     O64808  10.299   9.335   1.751 -0.6880 -0.1732 -0.0637
  481MOL0     C64809  10.170   9.301   1.814  1.2375 -0.5456 -0.7663
  481MOL0     C64810  10.096   9.200   1.721  0.0445  0.4140 -0.1668
  481MOL0     C64811  10.024   9.092   1.815 -0.9475 -0.5864  0.6711
  481MOL0     C64812   9.975   8.967   1.740 -0.1711 -0.3146  0.5508
  481MOL0     C64813   9.903   8.876   1.829  0.9450  1.1858 -0.4466
  481MOL0     C64814   9.881   8.737   1.755  0.7902 -0.8319 -1.2083
  481MOL0     C64815   9.774   8.651   1.831 -0.3161 -0.2299 -0.0794
  481MOL0     C64816   9.807   8.502   1.819  0.5043  0.1181 -0.3778
  481MOL0     N64817   9.690   8.423   1.853 -0.3928  0.6684 -0.0029
  481MOL0     C64818   9.697   8.284   1.854 -0.3259  0.5237 -0.1265
  481MOL0     C64819   9.575   8.235   1.903  0.9144 -0.6047 -0.4593
  481MOL0     C64820   9.524   8.094   1.932  0.4019 -0.4224  0.8202
  481MOL0     C64821   9.411   8.045   1.830 -0.2845  0.3357  0.5152
  481MOL0     C64822   9.389   7.895   1.855  0.0516 -0.8132  0.3569
  481MOL0     C64823   9.247   7.855   1.892 -0.1564  1.0113 -1.5257
  481MOL0     O64824   9.239   7.898   2.026  0.0338  0.1677 -0.6197
  481MOL0     C64825   9.130   7.863   2.092  0.3332 -0.0474 -0.3019
  481MOL0     C64826   9.134   7.865   2.231 -0.3325  0.5963  0.7913
  481MOL0     C64827   9.023   7.848   2.310  0.2421 -0.4624  0.2814
  481MOL0     C64828   9.046   7.865   2.458  0.1630 -0.5019 -0.4060
  481MOL0     C64829   8.898   7.827   2.238  0.0245 -0.9691 -0.0788
  481MOL0     C64830   8.766   7.834   2.310 -0.1595 -0.5883 -0.7135
  481MOL0     O64831   8.652   7.797   2.236 -0.1532 -0.5195 -0.2130
  481MOL0     C64832   8.543   7.742   2.303 -0.2999  0.0867 -0.4799
  481MOL0     C64833   8.420   7.744   2.240  0.0980 -0.1825 -0.2289
  481MOL0     C64834   8.303   7.676   2.287 -0.5509  0.0093  0.0608
  481MOL0     C64835   8.311   7.607   2.411 -0.3499  0.3340  0.4964
  481MOL0     O64836   8.217   7.515   2.464 -0.2120 -0.7687  0.1907
  481MOL0     C64837   8.109   7.474   2.378  0.8715  0.2338 -0.5321
  481MOL0     C64838   8.037   7.357   2.440 -0.2784  0.1010 -0.0039
  481MOL0     C64839   7.905   7.318   2.372 -0.4259  0.1674 -0.0493
  481MOL0     C64840   7.845   7.193   2.432  1.0136  0.2499 -0.0668
  481MOL0     C64841   7.712   7.153   2.363  0.7228  0.0198  0.2478
  481MOL0     C64842   7.690   7.004   2.361 -0.3718 -0.2635 -0.5070
  481MOL0     C64843   7.648   6.936   2.495 -0.7303  0.4427  0.4726
  481MOL0     C64844   7.662   6.786   2.475 -0.1059 -0.2760  1.0902
  481MOL0    Cl64845   7.638   6.719   2.643  0.2926  0.4301  0.4271
  481MOL0     C64846   8.430   7.631   2.488 -0.0374  0.4392 -0.2262
  481MOL0     C64847   8.546   7.683   2.428  0.1043 -0.1846 -1.0903
  481MOL0     O64848   8.767   7.878   2.423  0.0675 -0.0897  0.1658
  481MOL0     C64849   8.901   7.807   2.100 -0.5103  0.0996  0.0619
  481MOL0     C64850   9.012   7.825   2.030 -0.4033  0.1804  0.1765
  481MOL0     N64851   9.499   8.348   1.931 -0.5071  0.3913 -0.2429
  481MOL0     N64852   9.569   8.454   1.902 -0.0267  0.1352 -0.2345
  481MOL0     C64853  10.250   9.541   1.645 -0.2821  0.6817 -0.3955
  481MOL0     C64854  10.240   9.618   1.532 -0.0638  0.4294  0.1678
  481MOL0     C64855  10.326   9.748   1.093 -0.2178 -0.1856 -0.4234
  481MOL0     C64856  10.205   9.807   1.082 -0.0676  0.7106  0.2123
  481MOL0     C64857  10.176   9.901   0.981 -0.2502  0.4538  0.3467
  481MOL0     C64858  10.265   9.938   0.887  0.3058  0.7763 -0.1714
  481MOL0     O64859  10.241  10.034   0.796 -0.2591  0.0848  0.1995
  481MOL0     C64860  10.280  10.012   0.663 -1.5757 -0.0733  0.2415
  481MOL0     C64861  10.169  10.066   0.564  0.1940 -0.4812 -0.1040
  481MOL0     C64862  10.234  10.110   0.431  0.5114 -0.7743 -0.1508
  481MOL0     C64863  10.341  10.225   0.421  0.3281  0.3089 -0.2489
  481MOL0     C64864  10.315  10.347   0.505 -0.0543  0.8179  1.0635
  481MOL0     C64865  10.310  10.445   0.563 -0.6746  0.8239 -0.3455
  481MOL0     C64866  10.398   9.887   0.903 -0.0731  0.1831 -0.2779
  481MOL0     C64867  10.421   9.790   1.005  0.6240  0.1648  0.4789
  481MOL0     H64868  10.331   9.384   1.307 -0.6532  1.8530 -2.0139
  481MOL0     H64869  10.344   9.247   1.524  2.1876  0.2437 -1.8234
  481MOL0     H64870  10.195   9.253   1.909  0.7544 -2.0837 -1.3806
  481MOL0     H64871  10.103   9.386   1.831  1.4159  0.0995 -2.9368
  481MOL0     H64872  10.029   9.249   1.649  1.7948  3.2687  0.0039
  481MOL0     H64873  10.170   9.150   1.658  1.9885  2.3126  0.5208
  481MOL0     H64874  10.094   9.071   1.896 -0.3893  0.0083  0.3444
  481MOL0     H64875   9.937   9.143   1.857 -1.2481 -0.5758  0.0631
  481MOL0     H64876   9.911   9.005   1.660 -0.6948 -2.2548  0.0097
  481MOL0     H64877  10.058   8.914   1.693 -0.8636 -0.7983 -0.1653
  481MOL0     H64878   9.964   8.865   1.919  0.2335  3.5022  0.3740
  481MOL0     H64879   9.806   8.918   1.858  1.4724  1.1500  1.5405
  481MOL0     H64880   9.857   8.754   1.650  0.4332  1.9606 -0.7676
  481MOL0     H64881   9.976   8.683   1.756  1.3957  0.1526  0.9055
  481MOL0     H64882   9.763   8.672   1.938  0.6509  1.5904 -0.2912
  481MOL0     H64883   9.675   8.667   1.786 -0.2264 -3.6972 -1.8266
  481MOL0     H64884   9.890   8.492   1.890  0.2345 -0.2647 -0.1062
  481MOL0     H64885   9.847   8.472   1.722  2.4627 -2.5661  1.1436
  481MOL0     H64886   9.790   8.229   1.840  0.0456  1.4923 -1.7499
  481MOL0     H64887   9.610   8.027   1.925  1.0033  0.5550 -2.3814
  481MOL0     H64888   9.486   8.104   2.035 -1.0997  1.1366  0.1627
  481MOL0     H64889   9.451   8.065   1.730 -0.7442  1.8700  0.6166
  481MOL0     H64890   9.327   8.113   1.843 -1.5544 -0.9958 -0.3733
  481MOL0     H64891   9.455   7.854   1.932 -1.5874 -1.3652  1.5283
  481MOL0     H64892   9.401   7.856   1.754 -0.1778  4.6310 -2.1197
  481MOL0     H64893   9.222   7.749   1.896  1.5943  0.6066  0.1546
  481MOL0     H64894   9.178   7.914   1.831 -0.5310  2.2992  0.0780
  481MOL0     H64895   9.230   7.888   2.275 -0.1642 -0.5854  1.0816
  481MOL0     H64896   8.970   7.831   2.529 -0.1150 -0.5300 -0.7111
  481MOL0     H64897   9.134   7.808   2.488  1.5708  2.4387  1.4059
  481MOL0     H64898   9.069   7.970   2.472 -2.7719 -0.0409  1.9090
  481MOL0     H64899   8.410   7.793   2.144  1.6166 -2.0331 -1.3994
  481MOL0     H64900   8.212   7.677   2.228  0.0280 -0.0026 -0.8485
  481MOL0     H64901   8.037   7.556   2.380 -1.6743 -1.8826  0.8938
  481MOL0     H64902   8.144   7.461   2.275  1.5646 -0.4847 -0.2156
  481MOL0     H64903   8.110   7.275   2.432  0.4706  0.8142 -0.7097
  481MOL0     H64904   8.023   7.357   2.548  1.8868  0.5313  0.3100
  481MOL0     H64905   7.916   7.313   2.263  0.2986  2.3401 -0.1383
  481MOL0     H64906   7.845   7.407   2.394  3.2047  2.7389  0.4680
  481MOL0     H64907   7.914   7.108   2.422  1.1541  0.0203  2.3213
  481MOL0     H64908   7.821   7.213   2.536 -0.4070  2.7303 -0.7949
  481MOL0     H64909   7.722   7.192   2.262  0.4272 -0.5920 -0.0209
  481MOL0     H64910   7.620   7.187   2.411  0.6027 -1.4890  1.1466
  481MOL0     H64911   7.606   6.996   2.291  0.6091  1.4051 -1.9652
  481MOL0     H64912   7.777   6.956   2.315 -0.9880 -2.4652  0.5352
  481MOL0     H64913   7.542   6.964   2.506 -1.5442 -2.4111  0.6142
  481MOL0     H64914   7.717   6.970   2.572 -1.1809 -1.9083  2.0084
  481MOL0     H64915   7.760   6.751   2.442 -1.2489 -1.8864 -0.8139
  481MOL0     H64916   7.598   6.734   2.404 -0.1002 -0.8953  1.5353
  481MOL0     H64917   8.425   7.581   2.584 -2.3415 -1.3698 -1.2068
  481MOL0     H64918   8.639   7.688   2.485  0.2488  2.3501 -1.4073
  481MOL0     H64919   8.821   7.812   2.026 -0.8967 -1.2514  0.3734
  481MOL0     H64920   8.994   7.821   1.923 -2.0161 -0.3497  0.4402
  481MOL0     H64921  10.220   9.571   1.745 -0.3518  0.8395 -0.4632
  481MOL0     H64922  10.202   9.719   1.543 -3.5777 -0.5980 -1.1257
  481MOL0     H64923  10.126   9.791   1.155 -0.5795 -1.3800 -0.7321
  481MOL0     H64924  10.077   9.947   0.978 -0.2880  0.3506 -0.0744
  481MOL0     H64925  10.378  10.060   0.656 -1.6365  0.3959  2.0845
  481MOL0     H64926  10.307   9.908   0.643  3.1212  0.8328  0.6786
  481MOL0     H64927  10.139  10.159   0.613  1.2938 -0.3780  0.4130
  481MOL0     H64928  10.089   9.995   0.542  2.5558 -2.8132 -1.8491
  481MOL0     H64929  10.149  10.144   0.371 -0.4333  2.8655  2.8933
  481MOL0     H64930  10.273  10.018   0.385 -0.4451 -0.7173 -1.1033
  481MOL0     H64931  10.350  10.258   0.317 -1.1067  0.3451 -0.3809
  481MOL0     H64932  10.437  10.187   0.455  0.0869 -1.6055 -1.5435
  481MOL0     H64933  10.332  10.538   0.612 -2.1003  0.5231  0.9144
  481MOL0     H64934  10.470   9.923   0.830 -0.2682  2.6113  0.6072
  481MOL0     H64935  10.523   9.754   1.005  0.3568 -0.9875 -3.3000
  482MOL0     O64936   5.708   2.162   1.735  0.0687 -0.4158 -0.4167
  482MOL0     C64937   5.757   2.104   1.646 -0.9752 -0.2988  0.4317
  482MOL0     O64938   5.892   2.089   1.623 -0.0759 -0.5756  0.9995
  482MOL0     C64939   5.983   2.152   1.701 -0.1613 -0.8972  0.6445
  482MOL0     C64940   6.073   2.069   1.775  0.3719  0.4255 -0.6008
  482MOL0     C64941   6.184   2.141   1.832  0.7553  0.0197  0.6964
  482MOL0     C64942   6.207   2.281   1.819 -0.0014 -0.3541 -0.1036
  482MOL0     O64943   6.316   2.349   1.872 -0.0833 -0.7979  1.0407
  482MOL0     C64944   6.403   2.284   1.964 -0.0838  1.1742 -0.3040
  482MOL0     C64945   6.510   2.388   2.015  0.6617 -0.6409  0.2400
  482MOL0     C64946   6.450   2.503   2.085  0.6436  0.3491 -1.1042
  482MOL0     C64947   6.543   2.617   2.135  0.0967  0.1128  0.1838
  482MOL0     C64948   6.624   2.566   2.258 -0.0826 -0.7816  0.2054
  482MOL0     C64949   6.685   2.674   2.334 -0.3040 -0.6143 -0.1259
  482MOL0     C64950   6.811   2.730   2.255 -0.1792 -0.5186 -0.6064
  482MOL0     C64951   6.848   2.870   2.309  0.2140 -0.1202 -0.0138
  482MOL0     N64952   6.934   2.854   2.432  0.9287  0.3098 -0.3007
  482MOL0     C64953   6.896   2.825   2.557  0.8117 -0.1115 -0.7998
  482MOL0     C64954   7.012   2.805   2.625  0.6494 -0.4604 -0.0444
  482MOL0     C64955   7.028   2.779   2.773 -1.2681  0.0788 -0.7055
  482MOL0     C64956   7.041   2.916   2.853 -0.2141  0.2842  0.4819
  482MOL0     C64957   6.902   2.959   2.897 -0.6603 -0.8467  0.0509
  482MOL0     C64958   6.920   3.050   3.013 -0.8472 -0.3792 -0.3038
  482MOL0     O64959   6.992   3.169   2.957  0.1176  0.8742 -1.0484
  482MOL0     C64960   7.006   3.268   3.047  0.2743 -0.6550 -0.9222
  482MOL0     C64961   7.001   3.265   3.191 -0.6534  0.0101 -0.9777
  482MOL0     C64962   7.006   3.382   3.276  0.3636  0.3334 -0.6471
  482MOL0     C64963   7.030   3.355   3.430 -0.3152  0.8039  0.2239
  482MOL0     C64964   7.026   3.512   3.210  0.5392 -0.6626 -0.2255
  482MOL0     C64965   7.046   3.648   3.271 -0.2243 -1.0418 -1.1232
  482MOL0     O64966   7.065   3.661   3.414 -0.6757  0.2315  0.7174
  482MOL0     C64967   7.069   3.768   3.491  0.1411 -0.1322  0.0956
  482MOL0     C64968   6.977   3.881   3.462 -0.1598  0.2024 -0.5515
  482MOL0     C64969   6.983   3.991   3.554 -0.3835  0.7743  0.1708
  482MOL0     C64970   7.057   3.999   3.668 -1.1445  0.7484 -0.2909
  482MOL0     O64971   7.053   4.105   3.757  0.2607 -0.1209 -0.8254
  482MOL0     C64972   6.925   4.174   3.773 -0.6972  0.5846  0.2992
  482MOL0     C64973   6.837   4.078   3.852  0.4553 -0.4317 -0.5216
  482MOL0     C64974   6.877   4.039   4.005 -0.7364  1.4801  1.2071
  482MOL0     C64975   6.774   3.945   4.070  0.1499 -0.1820  0.8603
  482MOL0     C64976   6.817   3.883   4.205 -0.5193  0.0974 -0.7537
  482MOL0     C64977   6.950   3.804   4.196  1.1985 -1.3955 -0.4491
  482MOL0     C64978   6.967   3.699   4.313  0.3048 -0.5652  0.0968
  482MOL0     C64979   6.881   3.588   4.297 -0.5681  0.5339 -0.0316
  482MOL0    Cl64980   6.864   3.499   4.451 -0.0763 -0.1838 -0.0494
  482MOL0     C64981   7.133   3.882   3.696  0.8263  0.4518  0.3311
  482MOL0     C64982   7.137   3.764   3.613 -0.0173 -0.1596 -0.6274
  482MOL0     O64983   7.030   3.743   3.200 -0.4113 -0.2674 -0.4131
  482MOL0     C64984   7.025   3.508   3.072 -0.7001  1.6298  0.9799
  482MOL0     C64985   7.015   3.397   2.995  1.0264  0.2597  0.2215
  482MOL0     N64986   7.113   2.820   2.545 -0.1188  0.6062  0.2620
  482MOL0     N64987   7.066   2.842   2.423 -1.1971 -0.0233 -0.5870
  482MOL0     C64988   6.107   2.349   1.757  0.2453 -0.8111  0.7086
  482MOL0     C64989   5.997   2.294   1.699 -1.0930  0.4196  0.5170
  482MOL0     C64990   5.668   2.031   1.553  0.2561  0.1594  0.7212
  482MOL0     C64991   5.714   1.912   1.483  0.1457 -0.6250 -0.4630
  482MOL0     C64992   5.629   1.847   1.388  0.5683 -0.2229 -0.7828
  482MOL0     C64993   5.501   1.890   1.372  0.1425 -0.2100  0.6773
  482MOL0     O64994   5.429   1.836   1.268 -0.8747  0.2634 -0.0148
  482MOL0     C64995   5.292   1.827   1.289 -0.4675 -0.1503 -0.1590
  482MOL0     C64996   5.210   1.921   1.204 -0.0113 -0.4764  0.1389
  482MOL0     C64997   5.062   1.913   1.249 -0.8865  0.2334 -0.1246
  482MOL0     C64998   4.998   2.055   1.241  1.5617  1.2186  0.6189
  482MOL0     C64999   4.995   2.085   1.100  0.9798  0.1852 -0.0329
  482MOL0     C65000   4.983   2.108   0.984  0.5632  0.3808 -0.6155
  482MOL0     C65001   5.451   2.000   1.447  0.8489  1.5842  1.1444
  482MOL0     C65002   5.532   2.063   1.533 -0.1534  0.4681  0.1565
  482MOL0     H65003   6.070   1.961   1.782 -0.3100  0.4158 -0.9577
  482MOL0     H65004   6.261   2.089   1.889  1.1890  0.9543  0.9723
  482MOL0     H65005   6.341   2.265   2.052 -1.7492  0.4091 -1.5870
  482MOL0     H65006   6.435   2.192   1.914 -1.9777 -0.9636  2.1259
  482MOL0     H65007   6.580   2.330   2.076  1.6861 -2.2175 -2.2583
  482MOL0     H65008   6.558   2.440   1.932 -1.6230  2.5749  0.7632
  482MOL0     H65009   6.378   2.560   2.026  2.6768  0.8668 -3.2331
  482MOL0     H65010   6.396   2.480   2.178 -0.5416 -0.4369 -1.9614
  482MOL0     H65011   6.617   2.647   2.060  3.4227 -0.3339  3.0370
  482MOL0     H65012   6.480   2.701   2.165 -0.9770 -0.1503 -1.2215
  482MOL0     H65013   6.556   2.511   2.325 -2.5433  1.2970 -0.4179
  482MOL0     H65014   6.705   2.501   2.223 -2.0291 -2.6649 -1.1315
  482MOL0     H65015   6.611   2.751   2.358 -0.1135 -0.5074  0.1138
  482MOL0     H65016   6.719   2.643   2.433  1.8289  0.8825 -0.3141
  482MOL0     H65017   6.904   2.673   2.263 -0.6044 -1.0464  0.6628
  482MOL0     H65018   6.783   2.742   2.149 -1.7029 -3.4901 -0.6368
  482MOL0     H65019   6.759   2.933   2.320  0.4824  0.2613 -0.0212
  482MOL0     H65020   6.908   2.917   2.230  0.8291 -0.8073  0.0372
  482MOL0     H65021   6.795   2.827   2.598  1.3397  1.1631  0.5655
  482MOL0     H65022   6.951   2.713   2.814  1.9751 -1.0722  4.4911
  482MOL0     H65023   7.120   2.726   2.798 -2.3819 -0.7488  2.1230
  482MOL0     H65024   7.096   2.988   2.792 -1.2214  0.1407 -0.6185
  482MOL0     H65025   7.093   2.897   2.948 -3.2286 -0.0672  2.2000
  482MOL0     H65026   6.845   2.873   2.933 -0.0539 -0.2584  2.6200
  482MOL0     H65027   6.833   2.993   2.819 -2.3829 -4.3487 -0.1383
  482MOL0     H65028   6.980   3.010   3.096  3.0871  2.6353 -1.3655
  482MOL0     H65029   6.823   3.075   3.056 -1.2818 -3.4992  0.7733
  482MOL0     H65030   7.006   3.166   3.236  1.9851  0.6603  0.3644
  482MOL0     H65031   7.125   3.400   3.460  0.8755 -2.3742  1.6883
  482MOL0     H65032   6.950   3.392   3.496 -0.6284  0.1313  0.2286
  482MOL0     H65033   7.048   3.249   3.451 -0.0816  0.6744 -0.5938
  482MOL0     H65034   6.903   3.871   3.383  0.2588  0.0415 -0.9236
  482MOL0     H65035   6.922   4.075   3.524 -0.8246  0.3448 -0.1529
  482MOL0     H65036   6.935   4.267   3.830  3.0360  2.0174 -2.3448
  482MOL0     H65037   6.877   4.193   3.676 -2.2313 -0.2164  0.8656
  482MOL0     H65038   6.741   4.122   3.876 -0.1020 -2.7516  2.0192
  482MOL0     H65039   6.826   3.989   3.788 -1.2575 -1.1844  0.7461
  482MOL0     H65040   6.907   4.134   4.050  2.3162  2.5304 -2.5331
  482MOL0     H65041   6.969   3.986   3.979 -0.5200  2.7260 -0.7763
  482MOL0     H65042   6.675   3.989   4.083 -1.7956 -3.5638 -1.0155
  482MOL0     H65043   6.762   3.869   3.992  5.8927 -2.1463  1.3919
  482MOL0     H65044   6.738   3.809   4.221  1.1449 -1.2915  1.7486
  482MOL0     H65045   6.818   3.949   4.292  1.8234 -2.9853  1.8117
  482MOL0     H65046   6.965   3.758   4.098  1.4922 -1.7455 -0.2444
  482MOL0     H65047   7.021   3.884   4.219 -0.7741  0.0837  0.8531
  482MOL0     H65048   6.950   3.737   4.415 -3.9268 -4.8134  1.3410
  482MOL0     H65049   7.074   3.678   4.308  0.9850  2.7512 -1.5318
  482MOL0     H65050   6.926   3.529   4.216 -0.6966 -2.5027  1.9474
  482MOL0     H65051   6.781   3.621   4.267 -2.6971 -0.9381  4.5935
  482MOL0     H65052   7.183   3.885   3.793  0.1752 -2.9899  0.9288
  482MOL0     H65053   7.207   3.688   3.646  2.4168  2.4953  0.8015
  482MOL0     H65054   7.043   3.594   3.009  0.7065  1.8099  1.5856
  482MOL0     H65055   7.016   3.394   2.886  2.5607 -2.3402  0.2091
  482MOL0     H65056   6.107   2.458   1.752 -1.5159 -0.7475  1.4880
  482MOL0     H65057   5.923   2.358   1.651 -0.0437  3.0620  2.1393
  482MOL0     H65058   5.810   1.869   1.508 -0.1861 -1.3875 -0.4938
  482MOL0     H65059   5.665   1.764   1.329  0.3377 -2.2022  1.6888
  482MOL0     H65060   5.261   1.728   1.252 -2.3295  0.8810 -1.5438
  482MOL0     H65061   5.255   1.833   1.391  2.0338 -2.2090  0.9883
  482MOL0     H65062   5.218   1.895   1.098  1.1611  1.6135 -0.3277
  482MOL0     H65063   5.259   2.018   1.210  0.1539 -0.5170 -0.5286
  482MOL0     H65064   5.056   1.890   1.356 -3.1068  0.8250 -0.0900
  482MOL0     H65065   5.005   1.834   1.200 -0.7026  0.1815 -0.2597
  482MOL0     H65066   5.057   2.122   1.305 -0.2639  3.5193  0.0373
  482MOL0     H65067   4.893   2.059   1.270  0.5730 -5.0902 -0.7885
  482MOL0     H65068   4.983   2.126   0.878 -3.6208  0.2866 -0.7926
  482MOL0     H65069   5.348   2.031   1.435  0.4186 -0.5206 -1.7001
  482MOL0     H65070   5.490   2.147   1.587  2.1709  1.4260  0.6154
  483MOL0     O65071   4.362   2.816   1.479  0.1893 -0.7519  0.7896
  483MOL0     C65072   4.370   2.863   1.362 -0.4611  0.0254 -0.9017
  483MOL0     O65073   4.468   2.959   1.327  0.2516 -0.3702 -0.2166
  483MOL0     C65074   4.527   3.022   1.431  0.5386 -0.1753 -0.1582
  483MOL0     C65075   4.636   2.956   1.488 -0.3491  0.2576  0.2982
  483MOL0     C65076   4.712   3.021   1.587  0.0886  0.5126  0.2269
  483MOL0     C65077   4.681   3.143   1.632 -0.3217 -0.7634  0.3785
  483MOL0     O65078   4.741   3.211   1.735 -0.1177 -0.2459 -0.3948
  483MOL0     C65079   4.869   3.166   1.794 -0.4179 -0.8236  0.2318
  483MOL0     C65080   4.851   3.054   1.896 -0.5527 -0.2673  0.1691
  483MOL0     C65081   4.980   3.039   1.968  0.2904  0.8465 -1.2640
  483MOL0     C65082   5.013   3.144   2.076  0.1998  0.3952 -0.6929
  483MOL0     C65083   5.151   3.134   2.126 -1.2207  0.5938  0.6300
  483MOL0     C65084   5.153   3.213   2.260  0.2718 -0.1482 -0.5595
  483MOL0     C65085   5.281   3.209   2.332  0.3897 -0.9575  0.5075
  483MOL0     C65086   5.313   3.069   2.368 -0.8540  0.0705  0.1850
  483MOL0     N65087   5.420   3.065   2.470  0.0175 -0.3084 -0.4685
  483MOL0     C65088   5.550   3.073   2.431  0.6947 -0.8970  0.5039
  483MOL0     C65089   5.618   3.098   2.544 -0.8297  0.5467  0.6317
  483MOL0     C65090   5.765   3.161   2.554 -0.0954  0.1635 -0.5937
  483MOL0     C65091   5.774   3.310   2.542 -0.1690  0.9559 -0.1767
  483MOL0     C65092   5.684   3.385   2.629 -0.0709  0.7037  0.4181
  483MOL0     C65093   5.570   3.442   2.554 -0.2647  0.3582  0.6163
  483MOL0     O65094   5.473   3.526   2.627 -0.2674  0.6703 -0.4488
  483MOL0     C65095   5.345   3.480   2.643 -1.3316  0.4691 -0.3362
  483MOL0     C65096   5.327   3.381   2.738 -0.4431  0.1145 -0.1298
  483MOL0     C65097   5.195   3.327   2.756 -0.2924 -0.4689  0.4432
  483MOL0     C65098   5.171   3.224   2.865 -0.2237  0.4591 -0.0355
  483MOL0     C65099   5.084   3.367   2.665  0.1588  0.6812  0.8008
  483MOL0     C65100   4.949   3.304   2.657 -0.1746 -0.5127  0.3179
  483MOL0     O65101   4.844   3.382   2.605 -0.0997  0.1735 -0.3015
  483MOL0     C65102   4.754   3.314   2.529 -0.1999 -0.1578  0.4929
  483MOL0     C65103   4.664   3.215   2.579  0.2882 -0.5213 -0.3254
  483MOL0     C65104   4.580   3.144   2.492 -0.6033 -0.3015  0.3842
  483MOL0     C65105   4.580   3.191   2.357 -0.9975  0.1898  0.0650
  483MOL0     O65106   4.503   3.114   2.283 -0.0189  0.1112 -0.1023
  483MOL0     C65107   4.549   3.093   2.146  0.3123  0.3655 -0.0167
  483MOL0     C65108   4.450   2.997   2.067  0.6574  0.2305  0.6462
  483MOL0     C65109   4.509   2.978   1.926 -0.5839  0.0243 -1.0149
  483MOL0     C65110   4.395   2.936   1.835 -0.8039 -0.1039 -0.0635
  483MOL0     C65111   4.316   2.816   1.888 -0.5271  0.3242 -0.5360
  483MOL0     C65112   4.422   2.704   1.903  0.6289 -0.7114 -0.1081
  483MOL0     C65113   4.501   2.674   1.771  0.2060  0.3361 -0.2439
  483MOL0     C65114   4.566   2.531   1.787 -0.0096  0.3112  0.9402
  483MOL0    Cl65115   4.729   2.542   1.706  0.2414  0.0079  0.0645
  483MOL0     C65116   4.653   3.304   2.311  0.2844  0.5745 -0.7925
  483MOL0     C65117   4.744   3.364   2.398  0.2467 -0.4746  0.3603
  483MOL0     O65118   4.948   3.184   2.675 -0.4820  0.4135 -0.1463
  483MOL0     C65119   5.108   3.479   2.583 -0.9626 -0.5504 -0.4513
  483MOL0     C65120   5.238   3.541   2.571  0.2198  0.3009 -0.6148
  483MOL0     N65121   5.524   3.081   2.649  0.1447 -0.5521 -0.1922
  483MOL0     N65122   5.405   3.062   2.608 -0.7015  0.0241  0.3527
  483MOL0     C65123   4.570   3.208   1.569 -0.8811  0.2795 -0.2699
  483MOL0     C65124   4.497   3.148   1.467  0.1615 -0.3602 -0.5439
  483MOL0     C65125   4.292   2.814   1.255 -0.9931  1.0264  0.0378
  483MOL0     C65126   4.297   2.884   1.132  0.4017  0.0048 -0.0303
  483MOL0     C65127   4.218   2.844   1.030 -0.3940 -0.4869  0.1590
  483MOL0     C65128   4.131   2.732   1.050  0.5121 -0.3739 -0.1284
  483MOL0     O65129   4.041   2.702   0.956 -0.1962  0.0353  0.3308
  483MOL0     C65130   4.095   2.654   0.830 -0.3759  0.5493  0.0548
  483MOL0     C65131   4.063   2.510   0.783 -0.4590  0.3869  0.3598
  483MOL0     C65132   3.915   2.485   0.812  1.0563  0.5180 -0.4481
  483MOL0     C65133   3.877   2.347   0.775  0.9643  0.9262 -0.7942
  483MOL0     C65134   3.738   2.317   0.816 -0.3630 -0.5521  0.2930
  483MOL0     C65135   3.619   2.302   0.849 -1.6963 -0.6199 -0.5468
  483MOL0     C65136   4.117   2.661   1.169  0.1849 -0.6215  0.3320
  483MOL0     C65137   4.207   2.704   1.276  0.6357 -0.0381 -0.0246
  483MOL0     H65138   4.666   2.859   1.448 -1.8619 -0.4542  0.8026
  483MOL0     H65139   4.789   2.959   1.632 -0.9995 -2.0311 -1.2133
  483MOL0     H65140   4.935   3.137   1.711  0.6294  0.5890  0.5337
  483MOL0     H65141   4.914   3.252   1.844  3.4047  0.6516 -4.9317
  483MOL0     H65142   4.779   3.097   1.965 -3.1475 -0.0026 -2.5000
  483MOL0     H65143   4.818   2.962   1.847 -2.6371  1.4001 -1.7881
  483MOL0     H65144   4.972   2.941   2.016  0.1682  0.5091 -1.9638
  483MOL0     H65145   5.067   3.035   1.902  2.0121  1.8157  0.8489
  483MOL0     H65146   5.003   3.245   2.034  0.2231  1.0940  0.9177
  483MOL0     H65147   4.952   3.127   2.165  2.8891  0.3654  1.2680
  483MOL0     H65148   5.169   3.028   2.147 -0.9551  0.7947  1.4769
  483MOL0     H65149   5.221   3.168   2.050 -0.4322  1.5051  1.7351
  483MOL0     H65150   5.128   3.318   2.242  3.4147  0.6417 -0.9553
  483MOL0     H65151   5.075   3.170   2.324  0.3050  3.9006  2.6089
  483MOL0     H65152   5.357   3.242   2.261  0.5055 -0.2194  0.9631
  483MOL0     H65153   5.283   3.262   2.428  2.2146 -3.6056  2.0732
  483MOL0     H65154   5.332   3.003   2.282 -0.4331 -0.1316  0.4289
  483MOL0     H65155   5.223   3.040   2.421  0.4019  0.9146  2.9416
  483MOL0     H65156   5.587   3.085   2.330  1.0824  0.7105  0.8210
  483MOL0     H65157   5.817   3.132   2.646 -1.3295 -1.4512 -0.3484
  483MOL0     H65158   5.830   3.113   2.480  1.0075 -1.5140  1.3461
  483MOL0     H65159   5.766   3.334   2.436  1.4328  3.8440  0.2486
  483MOL0     H65160   5.876   3.334   2.575  0.8439 -2.5576 -0.3717
  483MOL0     H65161   5.742   3.459   2.685  2.5734  1.2497 -2.7447
  483MOL0     H65162   5.633   3.321   2.701 -0.3869  0.2288 -0.2117
  483MOL0     H65163   5.514   3.364   2.501  0.0843  0.4337  0.1226
  483MOL0     H65164   5.611   3.498   2.469 -2.3799  0.9655 -0.0713
  483MOL0     H65165   5.417   3.347   2.789  1.5811  0.9842 -2.8811
  483MOL0     H65166   5.165   3.126   2.818  1.3565 -0.1662  0.9566
  483MOL0     H65167   5.255   3.222   2.936  0.8498  0.1634 -1.2657
  483MOL0     H65168   5.076   3.252   2.912 -0.3026  1.7298 -0.8988
  483MOL0     H65169   4.664   3.185   2.683 -3.7963 -0.0543 -0.0394
  483MOL0     H65170   4.539   3.052   2.533  1.5238 -0.1831  3.1191
  483MOL0     H65171   4.552   3.192   2.099 -1.8817  0.1620 -0.6743
  483MOL0     H65172   4.647   3.045   2.154 -1.0945 -2.2854  3.5595
  483MOL0     H65173   4.430   2.904   2.120 -0.6917  0.6170  0.8456
  483MOL0     H65174   4.351   3.042   2.062  0.9441  1.0734  1.9402
  483MOL0     H65175   4.593   2.908   1.927  0.2493  0.9828  0.3093
  483MOL0     H65176   4.540   3.077   1.891 -2.1233  2.1631  3.0660
  483MOL0     H65177   4.323   3.019   1.837  1.2826  1.9499  4.4966
  483MOL0     H65178   4.415   2.916   1.729  0.8764  0.6511  0.0842
  483MOL0     H65179   4.229   2.798   1.825 -2.1194  1.3937  1.2600
  483MOL0     H65180   4.262   2.828   1.983 -0.0991 -2.3997  0.1484
  483MOL0     H65181   4.492   2.719   1.985 -1.9562  0.3044  2.0633
  483MOL0     H65182   4.372   2.612   1.933  1.1643 -1.4239 -1.2975
  483MOL0     H65183   4.571   2.756   1.751 -2.9876  3.3727  0.2126
  483MOL0     H65184   4.428   2.663   1.690 -0.2539  2.6017 -0.1956
  483MOL0     H65185   4.511   2.447   1.745  1.1680  0.2980 -0.6550
  483MOL0     H65186   4.582   2.512   1.894 -0.2076  2.2713  1.3600
  483MOL0     H65187   4.641   3.342   2.210  1.7399  1.2990 -0.7247
  483MOL0     H65188   4.797   3.456   2.376 -2.9483  1.7473  1.2947
  483MOL0     H65189   5.035   3.517   2.512 -0.2872  1.1240 -0.3082
  483MOL0     H65190   5.260   3.616   2.496 -2.6425 -0.5334 -2.4666
  483MOL0     H65191   4.536   3.303   1.609 -2.4480 -0.4766  0.3095
  483MOL0     H65192   4.416   3.198   1.416 -0.3432 -1.9873 -1.4174
  483MOL0     H65193   4.348   2.980   1.123  0.0431  0.4871  2.4202
  483MOL0     H65194   4.213   2.907   0.942 -0.7453  2.7286  2.3009
  483MOL0     H65195   4.056   2.717   0.749  0.0491 -0.8193 -1.2548
  483MOL0     H65196   4.203   2.672   0.836 -0.2266 -0.7107  2.5280
  483MOL0     H65197   4.130   2.445   0.840  1.5205  2.0340  0.0105
  483MOL0     H65198   4.082   2.495   0.677  0.9272 -0.4464  0.6989
  483MOL0     H65199   3.845   2.549   0.758  0.7670  1.4354  0.9668
  483MOL0     H65200   3.898   2.489   0.920  3.5634  1.5274 -0.0266
  483MOL0     H65201   3.946   2.273   0.815 -0.8981 -0.9440 -0.8549
  483MOL0     H65202   3.889   2.330   0.667 -0.9709 -1.9110 -0.6843
  483MOL0     H65203   3.521   2.279   0.887 -1.9712 -0.8110 -1.3535
  483MOL0     H65204   4.040   2.584   1.168 -1.0893  0.4937 -3.4030
  483MOL0     H65205   4.195   2.656   1.372 -2.2485 -1.3378 -0.9298
  484MOL0     O65206   3.110   3.521   6.294  0.5387  0.1460 -0.0296
  484MOL0     C65207   2.992   3.508   6.323 -0.5016  1.3688 -0.8773
  484MOL0     O65208   2.937   3.396   6.376  0.7121 -0.1528 -0.1820
  484MOL0     C65209   3.005   3.277   6.383  0.8492 -0.8302 -0.6951
  484MOL0     C65210   3.064   3.216   6.266  0.1373  0.3128 -0.6903
  484MOL0     C65211   3.141   3.103   6.281  0.4639  1.1797  0.7729
  484MOL0     C65212   3.146   3.035   6.402 -0.3868  0.1142  0.0567
  484MOL0     O65213   3.205   2.905   6.409  0.1031 -0.1489  0.2178
  484MOL0     C65214   3.118   2.815   6.336  0.4806 -0.1415 -0.2898
  484MOL0     C65215   3.095   2.682   6.405  0.5424  0.3442 -0.3165
  484MOL0     C65216   3.048   2.720   6.547  0.6340 -0.8494 -0.4636
  484MOL0     C65217   2.992   2.598   6.628  0.9751 -0.3249 -0.0969
  484MOL0     C65218   2.994   2.599   6.783  1.0280 -0.0026  0.7674
  484MOL0     C65219   2.939   2.727   6.846  0.0317  0.1204  0.1312
  484MOL0     C65220   2.964   2.740   6.993  0.1117 -0.7071 -0.0595
  484MOL0     C65221   3.109   2.736   7.031 -0.5328 -0.0748 -1.3704
  484MOL0     N65222   3.206   2.830   6.985  0.1989  0.4147 -0.5801
  484MOL0     C65223   3.214   2.962   7.013  0.0088  0.3590 -0.1302
  484MOL0     C65224   3.288   3.019   6.924  0.7754 -0.0599  0.0607
  484MOL0     C65225   3.300   3.167   6.937 -0.2187  0.8855  0.3855
  484MOL0     C65226   3.389   3.219   6.828  0.8762 -0.3593  0.1434
  484MOL0     C65227   3.433   3.363   6.854  0.2666  0.4099  0.5587
  484MOL0     C65228   3.548   3.380   6.952 -0.1127 -0.3376  0.7923
  484MOL0     O65229   3.664   3.320   6.910  0.3386  0.4770 -0.6330
  484MOL0     C65230   3.744   3.377   6.808  0.6493 -0.3938 -0.1846
  484MOL0     C65231   3.807   3.291   6.720 -0.2203  0.2167  0.6271
  484MOL0     C65232   3.856   3.338   6.596  1.0721  0.4807  0.3614
  484MOL0     C65233   3.893   3.227   6.503  0.1848  0.0904 -0.2628
  484MOL0     C65234   3.871   3.478   6.565 -0.5336 -0.0250  0.3919
  484MOL0     C65235   3.944   3.532   6.452 -0.2017  0.1602 -1.0149
  484MOL0     O65236   3.903   3.647   6.405 -0.1012 -0.4092  0.4501
  484MOL0     C65237   3.971   3.691   6.286 -0.1792  0.9541 -0.9796
  484MOL0     C65238   4.082   3.771   6.291  0.4681  0.1032  0.2969
  484MOL0     C65239   4.148   3.812   6.175  0.4227 -1.8987 -0.1492
  484MOL0     C65240   4.107   3.756   6.053 -0.2741  1.1842  0.1081
  484MOL0     O65241   4.173   3.800   5.946 -0.2646  0.5421 -0.2213
  484MOL0     C65242   4.100   3.815   5.815 -0.1935 -0.4854  0.0179
  484MOL0     C65243   3.976   3.903   5.812 -0.5424  0.8012  0.1442
  484MOL0     C65244   4.034   4.045   5.814  1.3008 -1.2068 -0.3009
  484MOL0     C65245   3.914   4.139   5.835 -0.1681 -0.3033 -1.7905
  484MOL0     C65246   3.968   4.282   5.863  0.4757  0.7744  0.1909
  484MOL0     C65247   3.861   4.392   5.876 -0.4876  0.3377  0.4776
  484MOL0     C65248   3.905   4.535   5.921 -0.5484  0.2277  0.2863
  484MOL0     C65249   3.879   4.638   5.808 -0.4243 -0.4971  0.1675
  484MOL0    Cl65250   3.708   4.654   5.745 -0.1939 -0.2616  0.1182
  484MOL0     C65251   3.991   3.680   6.052 -0.0637 -1.2098  0.4533
  484MOL0     C65252   3.920   3.641   6.166  0.0833  0.9881  0.1568
  484MOL0     O65253   4.031   3.465   6.403  0.3102 -0.1320  0.2912
  484MOL0     C65254   3.816   3.558   6.659 -0.1068  0.2446  0.5853
  484MOL0     C65255   3.749   3.515   6.772  0.0271 -0.4359  0.1942
  484MOL0     N65256   3.340   2.925   6.840 -0.4025  0.3007  0.7749
  484MOL0     N65257   3.290   2.809   6.874 -0.5355 -0.9735 -0.0300
  484MOL0     C65258   3.092   3.093   6.515  0.0602 -0.7012  0.2280
  484MOL0     C65259   3.020   3.210   6.510  1.2656 -0.7860 -0.0198
  484MOL0     C65260   2.913   3.631   6.303 -0.6513 -0.5070 -0.0778
  484MOL0     C65261   2.980   3.749   6.266 -0.5877  0.3307  0.7666
  484MOL0     C65262   2.899   3.861   6.238 -0.5430 -0.5045  0.6967
  484MOL0     C65263   2.764   3.860   6.229  0.5212  0.2449 -0.3899
  484MOL0     O65264   2.711   3.983   6.186  0.4681 -0.0797 -0.0583
  484MOL0     C65265   2.561   3.986   6.172 -0.2734  0.5159 -0.4817
  484MOL0     C65266   2.500   3.914   6.050 -0.0517  0.7110 -0.0782
  484MOL0     C65267   2.537   3.967   5.905  0.1925  0.1792 -0.0880
  484MOL0     C65268   2.676   3.912   5.854 -0.6279 -0.4672  0.2955
  484MOL0     C65269   2.689   3.766   5.839  0.1221 -1.1357 -0.2647
  484MOL0     C65270   2.694   3.645   5.826  0.1192 -0.2316 -0.2262
  484MOL0     C65271   2.699   3.735   6.258 -0.1911  0.0325  0.3800
  484MOL0     C65272   2.776   3.627   6.308 -1.0077  0.8980 -0.1138
  484MOL0     H65273   3.050   3.271   6.173 -2.1221  2.3055  0.6968
  484MOL0     H65274   3.200   3.060   6.201 -1.7026  1.4877 -1.0954
  484MOL0     H65275   3.020   2.855   6.310 -0.5787  0.0180  3.4269
  484MOL0     H65276   3.167   2.786   6.242 -3.1119  0.6164 -2.5750
  484MOL0     H65277   3.017   2.625   6.352 -1.2862  0.6479  1.8904
  484MOL0     H65278   3.187   2.624   6.390  0.7577  0.0677  1.8015
  484MOL0     H65279   3.132   2.766   6.601  1.5807 -1.4123 -1.3992
  484MOL0     H65280   2.977   2.803   6.547 -0.0925 -1.4232  1.3073
  484MOL0     H65281   2.886   2.597   6.603  0.0491 -0.6036  3.2687
  484MOL0     H65282   3.050   2.511   6.596  1.2148  0.3058 -1.4297
  484MOL0     H65283   2.952   2.502   6.813  2.0754 -1.1383 -1.2432
  484MOL0     H65284   3.097   2.589   6.819  0.0618 -1.5720  3.4559
  484MOL0     H65285   2.968   2.817   6.791 -0.8365 -1.5818 -3.4225
  484MOL0     H65286   2.831   2.727   6.832  0.0257  1.9810 -0.0458
  484MOL0     H65287   2.922   2.827   7.044  2.0674 -1.8052  3.8818
  484MOL0     H65288   2.921   2.660   7.053 -0.4060 -0.5861 -0.2655
  484MOL0     H65289   3.153   2.638   7.009  0.6806  0.3611 -0.9634
  484MOL0     H65290   3.114   2.743   7.140  3.4161 -2.4155 -1.2087
  484MOL0     H65291   3.169   3.025   7.090 -0.6639 -0.3353  0.0526
  484MOL0     H65292   3.205   3.221   6.939 -0.3085  0.8021 -0.8914
  484MOL0     H65293   3.362   3.185   7.026  0.5025 -1.5270  0.4387
  484MOL0     H65294   3.335   3.229   6.734 -0.2780 -1.2657  0.6929
  484MOL0     H65295   3.480   3.160   6.809  0.9278 -0.3337  0.3097
  484MOL0     H65296   3.349   3.421   6.891 -2.7520 -2.1174 -1.8046
  484MOL0     H65297   3.467   3.407   6.760 -0.8857 -0.3026 -0.2195
  484MOL0     H65298   3.524   3.339   7.051 -0.4239  0.1781  0.9363
  484MOL0     H65299   3.560   3.486   6.978  0.2368 -0.0140 -0.6168
  484MOL0     H65300   3.814   3.185   6.740  1.0032  0.2911  0.6434
  484MOL0     H65301   3.996   3.192   6.518  1.5761  3.1303 -1.6699
  484MOL0     H65302   3.815   3.152   6.513 -0.8285  0.4239 -4.1279
  484MOL0     H65303   3.891   3.264   6.400 -1.7417  0.8412 -0.0010
  484MOL0     H65304   4.130   3.796   6.385  0.8525  2.2850 -0.4194
  484MOL0     H65305   4.234   3.878   6.169 -1.1042  0.4308  1.9463
  484MOL0     H65306   4.169   3.853   5.739 -1.5885  0.0638 -1.0147
  484MOL0     H65307   4.066   3.724   5.765  0.9918  0.2118 -2.1695
  484MOL0     H65308   3.911   3.894   5.725  0.0187  0.7823 -0.2813
  484MOL0     H65309   3.916   3.887   5.902  0.9603 -0.5784  0.9470
  484MOL0     H65310   4.081   4.077   5.721 -2.7964  4.1073 -0.9876
  484MOL0     H65311   4.104   4.055   5.897  0.9075  0.6636 -0.1593
  484MOL0     H65312   3.858   4.138   5.741 -3.1530  0.4690 -0.1679
  484MOL0     H65313   3.841   4.102   5.908 -0.3813  1.1717 -1.2201
  484MOL0     H65314   4.031   4.317   5.780 -2.7361  1.6598 -2.0877
  484MOL0     H65315   4.019   4.269   5.959 -1.3500  0.0892  1.0988
  484MOL0     H65316   3.797   4.405   5.788 -0.6478 -1.6131  0.2610
  484MOL0     H65317   3.792   4.366   5.958 -1.0448  0.1193 -0.0488
  484MOL0     H65318   4.008   4.531   5.957 -0.9646  2.0844  1.8665
  484MOL0     H65319   3.856   4.554   6.017  2.1619  1.9841  1.4470
  484MOL0     H65320   3.957   4.639   5.730  0.8691 -0.7641  1.4066
  484MOL0     H65321   3.908   4.733   5.854  0.1405 -0.7791  0.4046
  484MOL0     H65322   3.953   3.651   5.955 -1.0734 -1.1456  0.8220
  484MOL0     H65323   3.826   3.588   6.174  0.9691 -1.0049 -1.6182
  484MOL0     H65324   3.817   3.667   6.650 -1.3618  0.1848 -0.5863
  484MOL0     H65325   3.703   3.581   6.845  0.3443 -0.8466  0.7709
  484MOL0     H65326   3.103   3.037   6.608 -2.3457  0.7906  1.5145
  484MOL0     H65327   2.974   3.237   6.604 -0.1395  1.3896 -1.2710
  484MOL0     H65328   3.088   3.747   6.276 -0.3084 -1.8941 -1.7147
  484MOL0     H65329   2.940   3.957   6.211 -3.3782  1.1560  1.8535
  484MOL0     H65330   2.522   3.952   6.269  3.8732 -2.2007  0.5323
  484MOL0     H65331   2.531   4.091   6.162 -0.8079  0.3756 -0.3880
  484MOL0     H65332   2.393   3.923   6.067 -0.5398 -3.2306 -0.1076
  484MOL0     H65333   2.522   3.807   6.055 -0.1576  0.7476  2.2430
  484MOL0     H65334   2.528   4.076   5.902 -0.5635  0.1028 -0.9526
  484MOL0     H65335   2.464   3.928   5.833 -0.1175  1.3498 -0.4185
  484MOL0     H65336   2.750   3.963   5.917  1.6340  1.1108 -3.3136
  484MOL0     H65337   2.699   3.953   5.755 -0.2872 -0.0039  0.5617
  484MOL0     H65338   2.710   3.539   5.827 -0.6643 -0.3587 -0.2262
  484MOL0     H65339   2.593   3.725   6.238 -0.2634  1.3067 -0.0175
  484MOL0     H65340   2.731   3.534   6.340 -0.0057  0.1478 -0.8479
  485MOL0     O65341   7.194   4.087   1.132 -0.1543  0.3773  0.0848
  485MOL0     C65342   7.265   3.993   1.080  0.4493 -0.2185 -1.3161
  485MOL0     O65343   7.344   4.005   0.972  0.1238  0.1006 -0.0261
  485MOL0     C65344   7.359   4.123   0.898  0.0953 -0.1925  0.2239
  485MOL0     C65345   7.357   4.117   0.765  0.1744  0.3080  0.2812
  485MOL0     C65346   7.362   4.239   0.691 -0.5544  0.2340  0.8400
  485MOL0     C65347   7.404   4.361   0.751 -0.4591 -0.7244 -0.3656
  485MOL0     O65348   7.443   4.465   0.666  0.1523  0.3004 -0.3235
  485MOL0     C65349   7.439   4.602   0.707 -0.2089  0.4598  0.1005
  485MOL0     C65350   7.580   4.670   0.720 -0.9195  0.2882 -0.0567
  485MOL0     C65351   7.572   4.823   0.718 -0.7615  0.2865 -0.5713
  485MOL0     C65352   7.466   4.883   0.811  1.2057  0.0941  0.6775
  485MOL0     C65353   7.488   5.034   0.811  0.4383 -0.4894  0.4494
  485MOL0     C65354   7.369   5.090   0.885 -0.0701  0.1128 -0.7242
  485MOL0     C65355   7.394   5.239   0.901  0.8512  0.6395  0.1489
  485MOL0     C65356   7.299   5.319   0.987 -0.1073 -0.4724 -0.4845
  485MOL0     N65357   7.345   5.463   1.013 -0.6454  0.1583 -0.0618
  485MOL0     C65358   7.364   5.536   1.129 -0.2326  0.0010  0.3740
  485MOL0     C65359   7.419   5.650   1.095  0.1888  0.5292  0.7246
  485MOL0     C65360   7.433   5.774   1.171  0.6859 -1.1064  0.4126
  485MOL0     C65361   7.485   5.752   1.309 -0.4162 -0.6207 -0.2726
  485MOL0     C65362   7.636   5.730   1.322 -0.1558 -0.2997  0.1138
  485MOL0     C65363   7.709   5.845   1.251  0.4383  0.6649 -0.0813
  485MOL0     O65364   7.843   5.860   1.313  0.1229 -0.2543 -0.2188
  485MOL0     C65365   7.962   5.816   1.255  0.3643 -0.4100 -0.4070
  485MOL0     C65366   8.096   5.857   1.308  1.6596 -0.2810  0.4114
  485MOL0     C65367   8.216   5.824   1.247 -1.1492 -0.7319 -1.2775
  485MOL0     C65368   8.336   5.837   1.342  0.5213 -0.2237 -0.7824
  485MOL0     C65369   8.220   5.755   1.126  1.0422 -0.0062 -0.4868
  485MOL0     C65370   8.342   5.722   1.060 -0.1462 -0.0832 -0.2565
  485MOL0     O65371   8.360   5.604   1.004 -0.2245  0.4520 -0.0508
  485MOL0     C65372   8.469   5.578   0.926 -0.9614 -0.7581  0.7591
  485MOL0     C65373   8.594   5.567   0.979  0.7337 -0.1238 -0.5352
  485MOL0     C65374   8.709   5.534   0.904 -0.0572  0.5981 -0.5932
  485MOL0     C65375   8.702   5.494   0.774  0.3743 -0.1201  0.4107
  485MOL0     O65376   8.820   5.449   0.722 -0.3844 -0.4269  0.0781
  485MOL0     C65377   8.800   5.384   0.592  0.3996 -0.5018  0.2959
  485MOL0     C65378   8.933   5.310   0.550 -1.1337  0.7966 -0.1412
  485MOL0     C65379   8.920   5.231   0.421  0.8109 -0.2403  0.2533
  485MOL0     C65380   9.052   5.164   0.385 -0.8702 -0.3184  0.1061
  485MOL0     C65381   9.024   5.054   0.278  0.0218  0.1245 -0.4328
  485MOL0     C65382   9.008   5.114   0.139 -0.6534 -0.1887 -1.0966
  485MOL0     C65383   9.070   5.021   0.027  0.1668  0.5539  1.4895
  485MOL0     C65384   8.981   4.993  -0.094  1.0592 -0.8726 -0.8177
  485MOL0    Cl65385   9.088   4.904  -0.207 -0.5328 -0.6519 -0.0080
  485MOL0     C65386   8.568   5.503   0.715  0.8784 -0.0649  0.0480
  485MOL0     C65387   8.457   5.544   0.788  0.2501 -0.0934  0.0617
  485MOL0     O65388   8.434   5.811   1.064 -0.3021  0.8590  0.0974
  485MOL0     C65389   8.101   5.711   1.074 -0.1696  0.1096 -0.5322
  485MOL0     C65390   7.974   5.746   1.137  0.2937 -0.5210  0.5072
  485MOL0     N65391   7.449   5.642   0.966  0.1486 -0.3180 -0.1204
  485MOL0     N65392   7.402   5.532   0.919 -0.8383 -0.1673  0.3709
  485MOL0     C65393   7.415   4.366   0.893 -0.3246 -0.1048 -0.2707
  485MOL0     C65394   7.387   4.243   0.960  0.2272  0.7372  0.0717
  485MOL0     C65395   7.291   3.874   1.166  0.1862  0.0556  1.3009
  485MOL0     C65396   7.342   3.756   1.110  0.3798  0.3894 -0.3242
  485MOL0     C65397   7.372   3.647   1.197  0.0024  0.1534  1.3112
  485MOL0     C65398   7.342   3.648   1.335 -0.3110 -0.8086  0.0362
  485MOL0     O65399   7.345   3.551   1.433 -0.4550 -1.4458 -0.0507
  485MOL0     C65400   7.327   3.423   1.393  0.6822  0.3392  0.2571
  485MOL0     C65401   7.195   3.408   1.310  0.8889 -0.0562 -0.3384
  485MOL0     C65402   7.186   3.260   1.274  0.0995 -1.4343  0.9795
  485MOL0     C65403   7.063   3.230   1.189 -0.6521  0.0042 -0.1766
  485MOL0     C65404   6.939   3.269   1.257  1.0302  0.5128 -0.4824
  485MOL0     C65405   6.823   3.306   1.289 -0.9195  0.0279 -0.6585
  485MOL0     C65406   7.298   3.768   1.388 -0.0216  0.1207  0.6555
  485MOL0     C65407   7.281   3.877   1.299 -0.1113  0.0399 -0.0884
  485MOL0     H65408   7.338   4.031   0.702 -1.6055  2.3977 -2.2798
  485MOL0     H65409   7.371   4.225   0.584  0.2315 -1.1917  1.0685
  485MOL0     H65410   7.387   4.660   0.631  1.6787  2.7606  0.4515
  485MOL0     H65411   7.385   4.604   0.802 -2.5371  1.0248 -1.1551
  485MOL0     H65412   7.640   4.636   0.804 -0.6359  3.5732  1.2372
  485MOL0     H65413   7.637   4.647   0.629  0.5671 -0.2622  0.9922
  485MOL0     H65414   7.668   4.864   0.750 -1.0350 -0.1450  0.8807
  485MOL0     H65415   7.553   4.847   0.613  1.2627  2.1883 -0.5808
  485MOL0     H65416   7.369   4.853   0.772  1.7077 -0.4117 -0.2336
  485MOL0     H65417   7.488   4.852   0.914 -1.1550 -1.7161  0.7310
  485MOL0     H65418   7.589   5.060   0.845  0.5668 -0.4648  0.0542
  485MOL0     H65419   7.478   5.058   0.705  2.1966 -2.6064 -0.2554
  485MOL0     H65420   7.275   5.076   0.831 -0.4738  3.9964 -1.2990
  485MOL0     H65421   7.363   5.035   0.979 -1.2513 -2.0929 -1.9824
  485MOL0     H65422   7.496   5.240   0.941 -0.3058  1.3580  3.3539
  485MOL0     H65423   7.393   5.289   0.803  2.5679  1.0178  0.2818
  485MOL0     H65424   7.296   5.273   1.086  1.4427  1.1657  0.3817
  485MOL0     H65425   7.203   5.318   0.934  0.2840  0.4444 -1.2405
  485MOL0     H65426   7.321   5.508   1.224  0.8475 -3.4073  0.0111
  485MOL0     H65427   7.486   5.851   1.114 -2.0726 -0.1674 -1.0737
  485MOL0     H65428   7.331   5.811   1.185  0.5932 -1.5014  0.7665
  485MOL0     H65429   7.445   5.668   1.367  1.0601 -0.0345  1.7168
  485MOL0     H65430   7.466   5.845   1.364  1.7857 -0.7891  0.8810
  485MOL0     H65431   7.663   5.639   1.268  1.2072 -0.1150  0.4319
  485MOL0     H65432   7.665   5.719   1.426  0.6555  0.8157  0.0255
  485MOL0     H65433   7.657   5.940   1.267 -0.6955 -0.1875  1.4527
  485MOL0     H65434   7.703   5.837   1.142  0.0847  2.1276 -0.1981
  485MOL0     H65435   8.107   5.917   1.398 -0.4491  0.6338  0.1032
  485MOL0     H65436   8.303   5.837   1.447 -0.0850  0.5279 -0.9619
  485MOL0     H65437   8.399   5.747   1.343  1.8814  0.6756 -1.5913
  485MOL0     H65438   8.396   5.924   1.311  2.1932 -0.5351  1.2676
  485MOL0     H65439   8.605   5.581   1.086  1.6717 -1.5496 -0.4031
  485MOL0     H65440   8.797   5.505   0.961 -1.3353 -1.3879  0.4822
  485MOL0     H65441   8.706   5.328   0.595 -0.3582  0.7096 -0.0605
  485MOL0     H65442   8.794   5.466   0.520 -0.6880  0.8446  1.8414
  485MOL0     H65443   9.024   5.370   0.543 -0.3239 -0.3850 -0.2012
  485MOL0     H65444   8.956   5.232   0.624  1.3933  1.0732 -0.5470
  485MOL0     H65445   8.889   5.299   0.341  2.1746  0.6569  0.4459
  485MOL0     H65446   8.846   5.151   0.430  3.3396 -2.7327  0.1025
  485MOL0     H65447   9.125   5.240   0.353  2.1679 -2.7290  0.8335
  485MOL0     H65448   9.085   5.104   0.469  0.4476 -2.0574 -1.5660
  485MOL0     H65449   8.929   5.004   0.298 -0.0604  0.3181 -0.3363
  485MOL0     H65450   9.098   4.976   0.295  1.0544  1.2088  0.2252
  485MOL0     H65451   8.901   5.133   0.128 -1.3501 -1.5195  2.1794
  485MOL0     H65452   9.064   5.207   0.125 -1.1264  0.4467  0.9067
  485MOL0     H65453   9.078   4.920   0.068 -1.3321 -1.4328 -2.5173
  485MOL0     H65454   9.165   5.058  -0.014  1.0165 -1.0706  1.9155
  485MOL0     H65455   8.934   5.078  -0.144 -2.4295 -2.5327 -0.6831
  485MOL0     H65456   8.900   4.924  -0.067  0.0804  0.7233  0.4805
  485MOL0     H65457   8.555   5.485   0.609  3.3599  2.7092 -0.8621
  485MOL0     H65458   8.358   5.537   0.744  1.8051 -2.0148 -3.5846
  485MOL0     H65459   8.110   5.659   0.979  1.9875  2.6588 -1.8897
  485MOL0     H65460   7.880   5.717   1.092 -0.2786  2.3870 -0.3629
  485MOL0     H65461   7.453   4.454   0.944  0.2924  0.3966 -1.5575
  485MOL0     H65462   7.387   4.248   1.068  1.1046  1.1593  0.0620
  485MOL0     H65463   7.374   3.754   1.006  2.2396  0.7206  0.2006
  485MOL0     H65464   7.420   3.562   1.152 -1.3781 -0.6628  1.3090
  485MOL0     H65465   7.412   3.387   1.333  1.4901  2.9771 -0.3335
  485MOL0     H65466   7.325   3.366   1.486 -0.9914  1.5043  0.9879
  485MOL0     H65467   7.197   3.464   1.216 -2.1282 -0.5760 -0.8327
  485MOL0     H65468   7.112   3.447   1.370  1.7268  3.1077 -1.0497
  485MOL0     H65469   7.172   3.202   1.365 -1.0555 -1.2619  0.9212
  485MOL0     H65470   7.276   3.237   1.215  0.8369 -0.7122  1.7773
  485MOL0     H65471   7.060   3.121   1.185 -0.5041 -0.0372  0.6996
  485MOL0     H65472   7.071   3.274   1.089  3.3744  1.7193  0.6969
  485MOL0     H65473   6.723   3.339   1.314 -1.7470 -2.3517 -0.5412
  485MOL0     H65474   7.272   3.769   1.493  1.4287 -3.4177  1.1827
  485MOL0     H65475   7.266   3.974   1.347  0.4291  1.0375 -1.8507
  486MOL0     O65476   6.446   3.061   2.340  0.5879 -0.7500 -0.4588
  486MOL0     C65477   6.385   2.989   2.258 -0.4524  0.2738 -0.1647
  486MOL0     O65478   6.429   2.977   2.131  0.4142  0.5934  0.8229
  486MOL0     C65479   6.550   3.029   2.083  0.5136 -0.5358 -0.0326
  486MOL0     C65480   6.593   3.163   2.102  0.1334  0.7655  0.0346
  486MOL0     C65481   6.726   3.196   2.088  0.0988 -0.3264  0.9077
  486MOL0     C65482   6.813   3.106   2.025  0.3808  0.1308  0.1455
  486MOL0     O65483   6.942   3.147   2.013  0.2193 -0.3678  0.5699
  486MOL0     C65484   7.001   3.251   2.098 -0.8233  0.6598  0.5655
  486MOL0     C65485   7.009   3.390   2.018  1.2857  0.4006 -0.4057
  486MOL0     C65486   7.028   3.494   2.120 -0.1299  0.7422 -1.0387
  486MOL0     C65487   7.166   3.507   2.183 -0.1681 -0.6980 -0.4878
  486MOL0     C65488   7.180   3.622   2.283  0.4203  0.5894  0.3543
  486MOL0     C65489   7.322   3.648   2.330  0.7603  0.0923  0.3729
  486MOL0     C65490   7.317   3.708   2.479 -0.8455  0.1393 -0.2697
  486MOL0     C65491   7.263   3.849   2.493  0.6138  0.1344 -0.5198
  486MOL0     N65492   7.227   3.880   2.633 -0.8945  0.6285 -0.3808
  486MOL0     C65493   7.330   3.911   2.724 -0.0494 -0.4451  0.7128
  486MOL0     C65494   7.286   3.869   2.847  0.6987  0.6336 -0.5050
  486MOL0     C65495   7.362   3.889   2.973 -0.4783  0.6857  0.1241
  486MOL0     C65496   7.371   3.758   3.049  0.3382 -0.1387 -0.6705
  486MOL0     C65497   7.463   3.780   3.172 -0.0429 -1.2196  0.0485
  486MOL0     C65498   7.407   3.877   3.277  0.2351 -0.3379 -1.3901
  486MOL0     O65499   7.447   4.005   3.247 -0.0086  0.2817  0.0672
  486MOL0     C65500   7.448   4.096   3.352  0.2524 -0.0086  0.4110
  486MOL0     C65501   7.560   4.170   3.367  0.1335  0.8041  1.0251
  486MOL0     C65502   7.566   4.275   3.459  0.0887 -0.1803  0.6464
  486MOL0     C65503   7.691   4.356   3.473 -0.4220  0.6971  0.8202
  486MOL0     C65504   7.444   4.305   3.520 -0.8257 -0.5936 -0.0748
  486MOL0     C65505   7.431   4.428   3.615 -0.6521  0.6661  0.9626
  486MOL0     O65506   7.329   4.420   3.696  0.5606  0.3816 -0.9455
  486MOL0     C65507   7.292   4.512   3.792 -0.4723  0.1021  0.4670
  486MOL0     C65508   7.152   4.514   3.819 -0.5761 -0.4743  0.6549
  486MOL0     C65509   7.117   4.605   3.912  0.3282 -0.2381 -0.3290
  486MOL0     C65510   7.192   4.708   3.968 -0.6499 -0.2954 -0.4255
  486MOL0     O65511   7.121   4.808   4.019  0.6575 -0.1366  0.2864
  486MOL0     C65512   7.191   4.929   4.034  0.0575 -0.9826  0.7613
  486MOL0     C65513   7.084   5.028   4.101  0.9485 -0.1503  0.6869
  486MOL0     C65514   7.068   4.999   4.255  1.2601 -0.1408  0.3416
  486MOL0     C65515   7.108   5.117   4.347 -0.7993 -0.0553  0.7737
  486MOL0     C65516   7.097   5.073   4.488 -0.0656 -0.5823  0.9043
  486MOL0     C65517   7.081   5.183   4.594  0.4166 -0.2138 -0.1907
  486MOL0     C65518   7.085   5.117   4.732  0.6572 -0.3528 -0.3738
  486MOL0     C65519   7.099   5.211   4.858  0.1925 -0.7458 -0.5583
  486MOL0    Cl65520   6.949   5.317   4.875 -0.3711 -0.2787  0.4175
  486MOL0     C65521   7.329   4.706   3.928 -0.5007  0.5577  0.6244
  486MOL0     C65522   7.377   4.604   3.845  0.1983  0.1142  1.0523
  486MOL0     O65523   7.498   4.530   3.597  0.0056  0.6249 -0.0778
  486MOL0     C65524   7.334   4.216   3.513 -0.7247  0.4546  0.4112
  486MOL0     C65525   7.334   4.109   3.428 -1.1045 -0.6562 -0.3157
  486MOL0     N65526   7.152   3.823   2.829 -0.4178 -0.3576 -0.0759
  486MOL0     N65527   7.124   3.823   2.711 -0.5896  0.3642 -0.6345
  486MOL0     C65528   6.764   2.984   1.985  0.1747 -0.3148  0.0190
  486MOL0     C65529   6.633   2.942   2.009  0.3529  0.2962 -0.1330
  486MOL0     C65530   6.257   2.926   2.299  0.2589  1.5411 -0.1553
  486MOL0     C65531   6.190   2.967   2.417 -0.0119  0.6480 -0.6229
  486MOL0     C65532   6.066   2.911   2.456  0.1234 -0.5482 -0.9663
  486MOL0     C65533   6.012   2.807   2.377  0.5007 -0.6153 -0.8338
  486MOL0     O65534   5.889   2.734   2.400  0.1546 -1.0052  0.2473
  486MOL0     C65535   5.864   2.718   2.541 -0.6515  0.3073 -0.0959
  486MOL0     C65536   5.750   2.611   2.558 -0.3858 -0.0333  0.5366
  486MOL0     C65537   5.610   2.663   2.526  0.3505  0.2845  0.2810
  486MOL0     C65538   5.499   2.562   2.563 -0.3387 -0.2146  0.0211
  486MOL0     C65539   5.535   2.447   2.479 -0.0810 -0.8284  0.4182
  486MOL0     C65540   5.564   2.365   2.397  0.7640 -0.1300  0.3367
  486MOL0     C65541   6.080   2.760   2.266 -0.9162  1.0417 -0.0699
  486MOL0     C65542   6.205   2.820   2.228  1.0387  0.5812  0.9793
  486MOL0     H65543   6.518   3.231   2.140 -0.8356 -0.9927  1.3714
  486MOL0     H65544   6.763   3.293   2.121 -0.4748  0.1376  0.2064
  486MOL0     H65545   6.959   3.245   2.198  1.0360 -1.3530  1.3066
  486MOL0     H65546   7.100   3.208   2.119  0.4525  3.3807  0.5587
  486MOL0     H65547   7.085   3.400   1.940  1.2644  0.9137 -0.3686
  486MOL0     H65548   6.914   3.408   1.969  2.1720  2.8953 -1.3584
  486MOL0     H65549   6.993   3.592   2.085  1.1274  1.5604 -0.1020
  486MOL0     H65550   6.958   3.471   2.201 -0.2482 -0.5521 -1.4897
  486MOL0     H65551   7.198   3.418   2.239  1.0798  0.8171  1.3499
  486MOL0     H65552   7.251   3.522   2.115  1.6158  1.6985  2.0660
  486MOL0     H65553   7.143   3.712   2.233  0.3650  0.9013  0.9431
  486MOL0     H65554   7.110   3.601   2.365 -0.5318 -0.6528 -0.7385
  486MOL0     H65555   7.372   3.551   2.321  0.0946 -0.2852  0.7375
  486MOL0     H65556   7.371   3.717   2.261  0.8439 -0.3279  0.0038
  486MOL0     H65557   7.266   3.631   2.537  0.3325  0.5216  1.3458
  486MOL0     H65558   7.421   3.714   2.511 -0.6940 -1.3319 -0.4081
  486MOL0     H65559   7.168   3.872   2.444 -0.4331 -0.0525  1.3236
  486MOL0     H65560   7.337   3.920   2.456  2.5163 -1.4525  0.0503
  486MOL0     H65561   7.421   3.964   2.696 -0.5038  0.4231  0.8462
  486MOL0     H65562   7.459   3.931   2.946 -0.1822  1.5424  2.3254
  486MOL0     H65563   7.312   3.971   3.025 -2.4081  1.5175 -2.7439
  486MOL0     H65564   7.413   3.677   2.989  0.0153 -1.8312  1.2866
  486MOL0     H65565   7.274   3.729   3.089 -0.9827  1.0802 -2.8124
  486MOL0     H65566   7.560   3.810   3.132 -0.7532  0.3174 -0.5837
  486MOL0     H65567   7.475   3.684   3.223 -0.4061 -1.3945 -0.1910
  486MOL0     H65568   7.453   3.841   3.369 -0.3785 -0.5667 -1.1671
  486MOL0     H65569   7.298   3.866   3.276  0.2921 -1.4533 -4.0815
  486MOL0     H65570   7.651   4.135   3.321 -1.7751  1.5132 -3.8867
  486MOL0     H65571   7.769   4.303   3.418 -0.5108  2.2674 -0.9043
  486MOL0     H65572   7.674   4.450   3.421 -0.5267  1.2666  1.8675
  486MOL0     H65573   7.725   4.378   3.575 -2.4553  1.2680  1.4198
  486MOL0     H65574   7.072   4.449   3.785  0.2499 -1.2689  0.1693
  486MOL0     H65575   7.011   4.601   3.938  0.4309 -0.9678 -0.0117
  486MOL0     H65576   7.272   4.915   4.106  0.2652  0.2435  0.7822
  486MOL0     H65577   7.231   4.961   3.938  1.8749 -1.0294  1.4609
  486MOL0     H65578   7.117   5.131   4.082  1.9437 -1.0648 -3.3913
  486MOL0     H65579   6.988   5.030   4.048  1.8966  1.7681 -1.0995
  486MOL0     H65580   7.122   4.907   4.282  0.4406 -0.8522 -0.3974
  486MOL0     H65581   6.963   4.974   4.273  0.8583  0.3814 -1.1605
  486MOL0     H65582   7.212   5.149   4.335  0.2289 -2.9729  1.0697
  486MOL0     H65583   7.040   5.198   4.320 -0.2714  0.1218 -0.0429
  486MOL0     H65584   7.185   5.013   4.513  1.4737 -0.1142 -2.7989
  486MOL0     H65585   7.009   5.008   4.502 -2.2356  1.9455 -0.0721
  486MOL0     H65586   7.150   5.267   4.586 -1.7941  1.9010  1.4582
  486MOL0     H65587   6.980   5.225   4.595  0.3179 -0.3748  1.8276
  486MOL0     H65588   7.166   5.045   4.733 -0.3749 -1.5464 -0.2193
  486MOL0     H65589   6.991   5.066   4.754 -0.3443  0.7742 -1.8497
  486MOL0     H65590   7.192   5.265   4.842 -0.1447  0.3562  0.9796
  486MOL0     H65591   7.108   5.150   4.949 -4.2294 -3.5472 -1.6441
  486MOL0     H65592   7.389   4.794   3.952 -1.1293  0.5358  2.4125
  486MOL0     H65593   7.485   4.604   3.830  0.5575  2.3706  3.0236
  486MOL0     H65594   7.244   4.246   3.566  0.4730  2.7687  1.3147
  486MOL0     H65595   7.249   4.043   3.413 -0.0117 -1.9433 -1.1873
  486MOL0     H65596   6.837   2.915   1.944  0.4984  0.8858 -1.5161
  486MOL0     H65597   6.606   2.847   1.964 -0.5250  1.2385 -1.7058
  486MOL0     H65598   6.240   3.043   2.478  1.6687 -0.5986 -0.3590
  486MOL0     H65599   6.014   2.937   2.548  1.9188 -4.2503  1.3299
  486MOL0     H65600   5.947   2.672   2.595 -2.2958 -0.5683  1.7921
  486MOL0     H65601   5.836   2.816   2.579 -0.1620  0.1703  0.6369
  486MOL0     H65602   5.750   2.589   2.665  1.4484  2.9820  1.2886
  486MOL0     H65603   5.778   2.532   2.488  0.2376  0.7460 -0.1232
  486MOL0     H65604   5.590   2.687   2.421 -2.4104  0.8554  0.8561
  486MOL0     H65605   5.590   2.752   2.587  0.7545  1.0213 -0.6399
  486MOL0     H65606   5.400   2.596   2.533 -0.5845  1.4939  2.4685
  486MOL0     H65607   5.499   2.532   2.668  4.0574  3.0583  1.2560
  486MOL0     H65608   5.576   2.290   2.321 -0.3214 -1.3415  1.3276
  486MOL0     H65609   6.042   2.672   2.215  0.5703 -0.3567  1.1765
  486MOL0     H65610   6.262   2.785   2.143 -2.1881  0.5884 -1.3824
  487MOL0     O65611   6.742   8.089   2.748 -0.1572  0.5098  0.8292
  487MOL0     C65612   6.674   8.010   2.699 -0.1015 -0.4243 -0.1351
  487MOL0     O65613   6.598   8.031   2.590  0.8581  0.3860 -0.4027
  487MOL0     C65614   6.586   8.161   2.542  0.4920 -0.1600 -0.6121
  487MOL0     C65615   6.491   8.245   2.594 -0.0443  0.2293  0.1170
  487MOL0     C65616   6.495   8.377   2.543  0.4693  0.2163  0.4772
  487MOL0     C65617   6.566   8.419   2.441  0.1947 -0.2395 -0.3823
  487MOL0     O65618   6.554   8.546   2.392 -0.2046 -0.4830  0.1317
  487MOL0     C65619   6.507   8.560   2.261  0.6513 -0.6713  0.7186
  487MOL0     C65620   6.442   8.699   2.244  1.2250 -0.4496  0.3027
  487MOL0     C65621   6.390   8.728   2.096 -0.9726 -0.1046 -0.1707
  487MOL0     C65622   6.306   8.851   2.082  0.5499 -0.3328 -0.6782
  487MOL0     C65623   6.372   8.990   2.109  0.7741  0.6113 -0.2683
  487MOL0     C65624   6.273   9.096   2.167  0.5268 -0.4918  1.0005
  487MOL0     C65625   6.152   9.133   2.074 -0.4851  0.4857 -0.3695
  487MOL0     C65626   6.038   9.212   2.146 -0.2660  0.2049  0.6866
  487MOL0     N65627   6.087   9.347   2.192  0.1217 -0.3942  0.3250
  487MOL0     C65628   6.122   9.450   2.116  0.4317 -0.4816 -0.5893
  487MOL0     C65629   6.160   9.551   2.195  0.2810 -0.1396 -0.0339
  487MOL0     C65630   6.188   9.692   2.154  1.3297 -1.0313 -0.2953
  487MOL0     C65631   6.066   9.792   2.172 -0.9218  0.0965  0.0606
  487MOL0     C65632   5.960   9.780   2.056 -0.3545 -0.6045 -0.7066
  487MOL0     C65633   5.875   9.900   2.062 -0.1803 -0.7351 -0.7040
  487MOL0     O65634   5.950  10.001   1.994 -0.3990  0.0739 -0.0699
  487MOL0     C65635   5.883  10.111   1.945 -0.1388 -0.1966  0.6740
  487MOL0     C65636   5.953  10.200   1.858  1.5005 -0.3093 -0.9800
  487MOL0     C65637   5.888  10.306   1.796 -0.4261  0.9952  0.5135
  487MOL0     C65638   5.973  10.382   1.701 -0.6763  0.1033  0.9187
  487MOL0     C65639   5.750  10.334   1.827  0.7547 -0.6688  0.5590
  487MOL0     C65640   5.667  10.436   1.749 -0.4160 -0.5791  0.4477
  487MOL0     O65641   5.536  10.451   1.776 -0.1777 -0.5658  0.0274
  487MOL0     C65642   5.450  10.535   1.711  0.3023  0.6648 -0.5653
  487MOL0     C65643   5.479  10.655   1.662 -0.6839  0.2692  0.0005
  487MOL0     C65644   5.389  10.742   1.597  1.4908  1.2342  0.1230
  487MOL0     C65645   5.260  10.694   1.575  0.1812  0.7458  0.3226
  487MOL0     O65646   5.183  10.780   1.502 -0.1990 -0.2090 -0.2256
  487MOL0     C65647   5.041  10.748   1.501  0.8615 -0.0811  0.1663
  487MOL0     C65648   4.961  10.832   1.403 -1.2540 -0.6010 -1.1760
  487MOL0     C65649   4.817  10.834   1.440  0.4079 -0.2637 -0.7522
  487MOL0     C65650   4.729  10.904   1.335 -0.6641  0.6660 -0.7784
  487MOL0     C65651   4.593  10.951   1.373 -0.8785  0.5335 -0.2094
  487MOL0     C65652   4.605  11.066   1.469  0.0308 -0.2396  0.3555
  487MOL0     C65653   4.471  11.144   1.517 -0.2834 -0.3784  0.5767
  487MOL0     C65654   4.411  11.226   1.398 -0.5648 -0.4871  0.4634
  487MOL0    Cl65655   4.285  11.131   1.315 -0.0697  0.2793  0.4727
  487MOL0     C65656   5.219  10.569   1.626 -1.0626 -0.3112 -0.9566
  487MOL0     C65657   5.315  10.492   1.694 -0.4162  0.0322 -1.0326
  487MOL0     O65658   5.727  10.474   1.651  0.3993  0.0926 -0.4072
  487MOL0     C65659   5.684  10.250   1.912  0.9309  0.2632  0.0639
  487MOL0     C65660   5.747  10.139   1.974 -0.4887 -0.1190  0.0230
  487MOL0     N65661   6.146   9.509   2.328  0.0556 -0.1322  0.6163
  487MOL0     N65662   6.110   9.384   2.324 -0.2100  0.9425  0.1234
  487MOL0     C65663   6.667   8.335   2.387 -1.0913 -0.2253 -1.0012
  487MOL0     C65664   6.665   8.205   2.434  0.3110  0.7747 -0.1670
  487MOL0     C65665   6.646   7.887   2.774 -0.3220 -0.0286 -0.1508
  487MOL0     C65666   6.705   7.855   2.899  1.1304 -0.4116 -0.1672
  487MOL0     C65667   6.673   7.737   2.964 -0.4110  0.3782 -0.1843
  487MOL0     C65668   6.592   7.640   2.911 -0.0821  0.5351 -0.0844
  487MOL0     O65669   6.570   7.539   2.997  0.0447  0.5403 -0.0675
  487MOL0     C65670   6.475   7.433   2.961 -0.3385  0.4013  0.1657
  487MOL0     C65671   6.513   7.302   3.042 -0.1387  0.1904  0.0624
  487MOL0     C65672   6.405   7.189   3.028 -0.2608  0.0496  0.2614
  487MOL0     C65673   6.393   7.107   3.159  0.1521  1.1039 -0.6970
  487MOL0     C65674   6.522   7.062   3.217  0.3504 -0.4455  0.6841
  487MOL0     C65675   6.619   7.024   3.279  0.3945 -0.1161 -0.1315
  487MOL0     C65676   6.522   7.668   2.801 -0.6854 -0.5913 -0.0529
  487MOL0     C65677   6.559   7.783   2.727  0.5733  0.4403  0.0213
  487MOL0     H65678   6.419   8.223   2.672  0.6442  2.6186  1.5036
  487MOL0     H65679   6.429   8.453   2.584  1.4534  0.1519  2.3216
  487MOL0     H65680   6.585   8.547   2.186  1.6468 -2.7580  2.0409
  487MOL0     H65681   6.440   8.478   2.232 -1.4901  1.9077 -2.3921
  487MOL0     H65682   6.357   8.705   2.313  1.0820 -2.0648  0.3021
  487MOL0     H65683   6.509   8.777   2.279  1.9987 -2.0241  2.5397
  487MOL0     H65684   6.477   8.751   2.033  0.3719 -1.8342  0.9446
  487MOL0     H65685   6.336   8.653   2.038 -1.9512  2.3164 -2.6103
  487MOL0     H65686   6.253   8.849   1.986  0.6814 -1.6213 -0.7368
  487MOL0     H65687   6.214   8.839   2.141  2.0419 -0.5213  1.7653
  487MOL0     H65688   6.461   8.980   2.173 -0.4808  2.6862  1.9918
  487MOL0     H65689   6.415   9.025   2.015  2.1475  2.4211  0.9655
  487MOL0     H65690   6.239   9.084   2.270 -4.1279 -1.5994 -0.3919
  487MOL0     H65691   6.342   9.181   2.160  1.2111 -1.0942  0.2513
  487MOL0     H65692   6.192   9.180   1.983 -0.0054 -1.5683 -1.2744
  487MOL0     H65693   6.116   9.037   2.038  1.4612 -0.7342  0.7351
  487MOL0     H65694   6.012   9.150   2.232 -0.6048  0.6578  0.9137
  487MOL0     H65695   5.948   9.224   2.086 -1.1230 -1.6373  1.5413
  487MOL0     H65696   6.119   9.462   2.008  0.7395  3.7415 -0.3117
  487MOL0     H65697   6.273   9.731   2.210  2.1632 -1.9838 -0.8607
  487MOL0     H65698   6.226   9.690   2.052  0.9394 -1.3558 -0.4377
  487MOL0     H65699   6.119   9.887   2.161 -0.4364  0.3305  3.2366
  487MOL0     H65700   6.029   9.777   2.274  2.0680 -3.5183  0.8031
  487MOL0     H65701   5.902   9.689   2.068 -3.1693  1.0175 -1.1485
  487MOL0     H65702   6.004   9.774   1.956  4.7917  0.3005  1.1715
  487MOL0     H65703   5.851   9.924   2.166 -1.3841 -1.0190 -0.9058
  487MOL0     H65704   5.777   9.884   2.016  1.3059 -2.8771 -3.4390
  487MOL0     H65705   6.058  10.184   1.837  2.1575  3.3535 -1.1687
  487MOL0     H65706   6.076  10.371   1.737 -1.3738 -3.5475  2.2011
  487MOL0     H65707   5.964  10.346   1.598  0.1832 -1.0533  1.2223
  487MOL0     H65708   5.943  10.486   1.716 -1.5315 -0.1053  0.6864
  487MOL0     H65709   5.584  10.683   1.663  0.1267 -2.2530  3.1507
  487MOL0     H65710   5.419  10.838   1.557  1.5590  0.7425 -1.0670
  487MOL0     H65711   5.029  10.646   1.461 -0.7123 -0.3742  1.2584
  487MOL0     H65712   4.998  10.749   1.602  0.8293 -1.8268  0.1982
  487MOL0     H65713   5.009  10.930   1.411 -1.9509 -0.4145  1.3292
  487MOL0     H65714   4.978  10.798   1.300 -1.0364 -0.1551 -1.2904
  487MOL0     H65715   4.805  10.887   1.535 -0.2601 -1.9837  0.1664
  487MOL0     H65716   4.768  10.738   1.459  3.2162 -1.3765  1.7988
  487MOL0     H65717   4.780  10.984   1.281 -0.1758  1.6993  1.1345
  487MOL0     H65718   4.706  10.825   1.262 -1.4548 -0.7767  0.9619
  487MOL0     H65719   4.541  10.873   1.429  3.3968 -1.4350  1.5147
  487MOL0     H65720   4.528  10.980   1.289  1.1919  0.5524 -1.9086
  487MOL0     H65721   4.653  11.031   1.561  0.9822  1.6831  0.6292
  487MOL0     H65722   4.666  11.143   1.421 -2.4142  1.0677 -0.8241
  487MOL0     H65723   4.518  11.216   1.584  1.2465  1.4100 -2.2076
  487MOL0     H65724   4.401  11.076   1.567  2.1906 -3.6539 -0.0587
  487MOL0     H65725   4.494  11.244   1.328 -1.8124 -0.7588 -1.1483
  487MOL0     H65726   4.380  11.327   1.425  1.9735 -0.5454  4.3245
  487MOL0     H65727   5.112  10.553   1.623 -1.4145  0.8581  1.8340
  487MOL0     H65728   5.278  10.395   1.725  0.4581  0.3116  1.0942
  487MOL0     H65729   5.578  10.267   1.928  1.1975  4.7266 -1.5674
  487MOL0     H65730   5.680  10.084   2.039  1.5881 -3.0631 -0.1763
  487MOL0     H65731   6.725   8.369   2.302  0.4820 -0.7319 -0.1701
  487MOL0     H65732   6.730   8.131   2.388  1.4828  1.4284  0.4063
  487MOL0     H65733   6.784   7.921   2.935  0.4313  0.1019  0.4396
  487MOL0     H65734   6.727   7.720   3.057  1.8961  1.1113 -1.3164
  487MOL0     H65735   6.371   7.463   2.981 -0.1119  1.7498 -0.5235
  487MOL0     H65736   6.469   7.417   2.853  0.3917 -2.1987  0.4540
  487MOL0     H65737   6.522   7.325   3.148 -0.7193 -0.9376  0.3715
  487MOL0     H65738   6.612   7.271   3.008  0.4543 -0.3672  2.1504
  487MOL0     H65739   6.407   7.131   2.935 -3.5317  0.0953  0.0562
  487MOL0     H65740   6.308   7.239   3.016 -1.3326 -2.4519 -3.0850
  487MOL0     H65741   6.335   7.016   3.141 -1.4718  1.8592  0.3897
  487MOL0     H65742   6.337   7.163   3.235  0.9950  2.5509 -1.1090
  487MOL0     H65743   6.708   7.008   3.336  0.1463 -1.4986 -0.0968
  487MOL0     H65744   6.450   7.594   2.768 -1.6759  0.8813 -1.3216
  487MOL0     H65745   6.534   7.792   2.621  2.2753 -1.7690 -0.6571
  488MOL0     O65746  10.730   3.757   4.581 -0.0025 -0.2257 -0.1735
  488MOL0     C65747  10.770   3.738   4.695  0.4693 -0.2308 -0.0613
  488MOL0     O65748  10.709   3.788   4.807 -0.1823  0.7755  0.2413
  488MOL0     C65749  10.581   3.846   4.790 -0.3693 -1.2407 -0.7597
  488MOL0     C65750  10.548   3.961   4.710 -0.4271 -0.3910 -0.2923
  488MOL0     C65751  10.421   4.009   4.698  0.5050  0.1353  0.3464
  488MOL0     C65752  10.311   3.944   4.760 -0.2772 -0.3550 -0.1783
  488MOL0     O65753  10.192   3.998   4.775  0.2159  0.1733  0.4528
  488MOL0     C65754  10.129   4.086   4.675  0.0968  0.4423  0.6973
  488MOL0     C65755   9.976   4.086   4.675  0.9599  0.3157  0.3416
  488MOL0     C65756   9.932   4.188   4.576 -0.0691 -0.5529 -0.0108
  488MOL0     C65757   9.893   4.318   4.649 -0.1839  0.3743  0.4170
  488MOL0     C65758   9.827   4.434   4.564  0.1836 -0.6482 -0.7249
  488MOL0     C65759   9.932   4.525   4.493 -0.5747  0.3824 -0.3978
  488MOL0     C65760   9.875   4.639   4.417  0.1256  0.0190 -0.1344
  488MOL0     C65761   9.975   4.690   4.308  0.1137 -0.5071 -0.2588
  488MOL0     N65762   9.913   4.803   4.238 -0.4171 -0.1907  0.0363
  488MOL0     C65763   9.937   4.939   4.271 -0.2529  0.4537 -0.0570
  488MOL0     C65764   9.882   5.008   4.170  0.2506 -0.1550  1.4838
  488MOL0     C65765   9.919   5.154   4.132 -0.7251  0.9482 -0.2611
  488MOL0     C65766   9.848   5.263   4.222  0.7510 -0.5531  0.0384
  488MOL0     C65767   9.867   5.407   4.165  0.2322  0.3511  0.3872
  488MOL0     C65768   9.816   5.527   4.246 -0.4677  0.7680 -0.0644
  488MOL0     O65769   9.905   5.530   4.361  0.2475 -0.6079 -0.1692
  488MOL0     C65770   9.848   5.561   4.478 -0.5778  0.1291 -0.3438
  488MOL0     C65771   9.839   5.458   4.571  0.3726  0.9515 -0.7664
  488MOL0     C65772   9.807   5.473   4.708  0.9274 -0.0084  0.2759
  488MOL0     C65773   9.844   5.354   4.796 -0.5705 -0.1862  0.3935
  488MOL0     C65774   9.759   5.606   4.755  0.3070 -0.5163  0.1345
  488MOL0     C65775   9.729   5.631   4.909  0.1232  1.6913  0.2906
  488MOL0     O65776   9.693   5.757   4.940 -0.2331  0.3190 -0.6535
  488MOL0     C65777   9.751   5.822   5.056  0.0114  0.2774  0.6847
  488MOL0     C65778   9.701   5.945   5.102 -0.2328 -0.6724 -0.5802
  488MOL0     C65779   9.757   6.003   5.214  0.3238 -0.5183  0.0916
  488MOL0     C65780   9.872   5.963   5.275  0.1861  1.1207  0.0947
  488MOL0     O65781   9.917   6.022   5.387  0.4624 -0.7634 -0.6389
  488MOL0     C65782   9.862   6.146   5.430 -0.3181 -0.7336 -0.4325
  488MOL0     C65783   9.935   6.203   5.556  1.1416 -0.5257 -0.7716
  488MOL0     C65784  10.063   6.266   5.509  0.3093  0.4975  0.3300
  488MOL0     C65785  10.145   6.309   5.638  1.5750  0.0530 -0.1779
  488MOL0     C65786  10.288   6.276   5.620  0.2315  0.0277 -0.7515
  488MOL0     C65787  10.306   6.131   5.645 -0.9926  0.4604  0.2463
  488MOL0     C65788  10.442   6.098   5.712  0.3331 -0.5302  0.3281
  488MOL0     C65789  10.567   6.104   5.612 -0.7440 -0.0235  0.9647
  488MOL0    Cl65790  10.649   6.264   5.624 -0.2908 -0.5717  0.8771
  488MOL0     C65791   9.930   5.849   5.221 -1.0350 -0.3400  0.9829
  488MOL0     C65792   9.879   5.783   5.104  0.7410 -0.8350  0.8259
  488MOL0     O65793   9.738   5.542   4.988 -0.4264  0.0116  0.6379
  488MOL0     C65794   9.749   5.707   4.656 -0.1418  0.0607  0.2496
  488MOL0     C65795   9.791   5.686   4.520  1.0369 -1.1582  0.1464
  488MOL0     N65796   9.821   4.916   4.086 -0.3274  0.0473  0.6862
  488MOL0     N65797   9.833   4.796   4.124 -0.4351  0.2768 -0.0573
  488MOL0     C65798  10.348   3.845   4.847  0.1812 -0.3676  1.1480
  488MOL0     C65799  10.474   3.791   4.846 -0.6621  0.1822 -0.7363
  488MOL0     C65800  10.895   3.665   4.720  0.0087  0.0381  0.1992
  488MOL0     C65801  10.939   3.628   4.843 -0.1219 -0.1637  0.0629
  488MOL0     C65802  11.062   3.557   4.865 -0.4831  0.0326  0.9406
  488MOL0     C65803  11.143   3.526   4.759 -0.1277  0.6266  0.5233
  488MOL0     O65804  11.266   3.459   4.763 -0.2768  0.3102 -0.3596
  488MOL0     C65805  11.300   3.393   4.897 -0.6857 -0.5219 -0.1738
  488MOL0     C65806  11.352   3.502   4.994  0.4743  0.0185  0.4651
  488MOL0     C65807  11.502   3.502   5.000  1.0972  0.0440 -0.7534
  488MOL0     C65808  11.569   3.610   5.102  0.6556  0.7508 -0.2982
  488MOL0     C65809  11.593   3.735   5.027  0.6056 -0.2214  0.2453
  488MOL0     C65810  11.613   3.838   4.967 -0.1059 -0.0284  0.3732
  488MOL0     C65811  11.089   3.549   4.627 -0.8032  0.4998 -0.4859
  488MOL0     C65812  10.978   3.630   4.614 -0.4400 -0.6089  0.0938
  488MOL0     H65813  10.633   4.012   4.665  1.1304 -0.9932  1.8251
  488MOL0     H65814  10.401   4.092   4.631  0.4020  0.4484  0.7552
  488MOL0     H65815  10.159   4.191   4.684 -1.8323  0.9948  1.0769
  488MOL0     H65816  10.181   4.054   4.584  1.2480  0.9529  1.1528
  488MOL0     H65817   9.945   3.986   4.644  1.5641  0.0510  0.5722
  488MOL0     H65818   9.922   4.103   4.769 -1.2482  3.6697 -1.3578
  488MOL0     H65819  10.017   4.210   4.511  1.3771 -2.4529  1.1125
  488MOL0     H65820   9.851   4.146   4.516  0.0970 -0.8168 -0.0496
  488MOL0     H65821   9.813   4.309   4.723  0.7312  2.2608  1.7228
  488MOL0     H65822   9.984   4.363   4.690  1.6784 -1.4567 -1.4361
  488MOL0     H65823   9.753   4.396   4.493 -0.9454 -1.1845  0.6852
  488MOL0     H65824   9.776   4.507   4.628 -0.6317  1.0539 -3.1748
  488MOL0     H65825  10.003   4.560   4.569 -0.6996  0.8840 -0.5061
  488MOL0     H65826   9.986   4.465   4.420  1.4466  0.9408  0.5498
  488MOL0     H65827   9.784   4.603   4.369 -0.6918  0.9567  0.6678
  488MOL0     H65828   9.854   4.726   4.480  1.5393 -1.1772  2.1049
  488MOL0     H65829  10.006   4.615   4.234 -0.6633  1.2397 -2.4745
  488MOL0     H65830  10.065   4.735   4.351 -0.1423  2.1390 -2.2289
  488MOL0     H65831   9.994   4.979   4.354 -2.0133  2.3036  0.3410
  488MOL0     H65832  10.027   5.169   4.131 -0.2722 -1.7447  0.6973
  488MOL0     H65833   9.891   5.155   4.027 -3.4794 -1.0845  0.3240
  488MOL0     H65834   9.889   5.256   4.323 -2.2569  2.5230  1.6902
  488MOL0     H65835   9.740   5.251   4.239  0.4923  1.7098  0.2407
  488MOL0     H65836   9.814   5.406   4.070 -1.3151  0.7057  1.2131
  488MOL0     H65837   9.974   5.428   4.153  0.3571 -0.0088  0.8614
  488MOL0     H65838   9.710   5.513   4.271 -0.8930  1.3339 -1.4575
  488MOL0     H65839   9.833   5.618   4.188  2.7272  2.8954  3.6876
  488MOL0     H65840   9.867   5.359   4.537 -0.0834  0.1519  1.0881
  488MOL0     H65841   9.910   5.376   4.880 -2.4457  1.2997  1.5688
  488MOL0     H65842   9.751   5.313   4.837 -0.5956  1.6235  2.2690
  488MOL0     H65843   9.888   5.269   4.743 -2.0109 -3.1639  3.5885
  488MOL0     H65844   9.607   5.988   5.067  0.5012  0.3363 -1.3614
  488MOL0     H65845   9.706   6.095   5.243  2.7331  0.8746  0.1526
  488MOL0     H65846   9.860   6.226   5.356 -1.1849  0.0268  0.3997
  488MOL0     H65847   9.756   6.134   5.452 -0.4971  1.9745  0.5753
  488MOL0     H65848   9.867   6.276   5.601  3.3946  1.0778  0.2491
  488MOL0     H65849   9.958   6.120   5.624 -0.6787 -0.5611 -0.1648
  488MOL0     H65850  10.053   6.352   5.443  0.0401  1.3086  1.3889
  488MOL0     H65851  10.121   6.191   5.455 -1.1479 -1.6790  1.6299
  488MOL0     H65852  10.122   6.414   5.655  0.9236 -0.3314  1.5048
  488MOL0     H65853  10.109   6.267   5.732  0.5297 -1.1923 -1.0900
  488MOL0     H65854  10.350   6.331   5.691  0.7393 -1.0261 -0.3481
  488MOL0     H65855  10.325   6.305   5.522  0.5520  0.2201 -0.5762
  488MOL0     H65856  10.218   6.099   5.702 -0.9411 -3.2863 -1.5333
  488MOL0     H65857  10.286   6.074   5.554  0.4396 -0.7501  0.6665
  488MOL0     H65858  10.449   5.997   5.754 -0.5126  0.1648  2.2202
  488MOL0     H65859  10.450   6.166   5.797  1.9647  0.0538 -0.2521
  488MOL0     H65860  10.547   6.090   5.505 -0.1753  0.0156  0.8535
  488MOL0     H65861  10.644   6.031   5.636  1.5058  1.5022 -1.1684
  488MOL0     H65862  10.001   5.795   5.283  1.0649 -1.0455 -1.8388
  488MOL0     H65863   9.932   5.698   5.062  0.8412 -0.7535  0.7873
  488MOL0     H65864   9.720   5.807   4.689  3.8781  0.7143  2.4134
  488MOL0     H65865   9.799   5.769   4.450  4.7202 -0.9742  0.6209
  488MOL0     H65866  10.272   3.800   4.909  0.4405 -0.2856  1.5283
  488MOL0     H65867  10.495   3.697   4.896  3.4839  0.9246 -0.7189
  488MOL0     H65868  10.880   3.637   4.933  1.4023 -0.8927  1.1919
  488MOL0     H65869  11.087   3.525   4.966 -0.7152 -2.3672  0.2999
  488MOL0     H65870  11.214   3.338   4.938 -0.5700 -0.2702  0.4075
  488MOL0     H65871  11.377   3.317   4.884 -2.3474 -2.5085  0.8144
  488MOL0     H65872  11.323   3.479   5.097  3.1407  0.5859  1.4248
  488MOL0     H65873  11.306   3.596   4.962  2.4298  0.6017 -0.8341
  488MOL0     H65874  11.537   3.531   4.900  5.8046  0.1616  0.6479
  488MOL0     H65875  11.540   3.403   5.029 -0.2896 -0.0861  0.7716
  488MOL0     H65876  11.660   3.563   5.141  0.3127  0.8713  0.6585
  488MOL0     H65877  11.506   3.619   5.191 -1.6982 -2.2397 -1.4609
  488MOL0     H65878  11.636   3.915   4.895  0.9877 -0.1123  0.6107
  488MOL0     H65879  11.138   3.512   4.538 -1.0171  0.9820 -0.8073
  488MOL0     H65880  10.947   3.672   4.519  2.7069  0.0676 -0.7525
  489MOL0     O65881  10.299   1.865  10.038  0.4738 -0.2969 -0.4033
  489MOL0     C65882  10.191   1.919  10.059  0.5893 -0.4984  0.6174
  489MOL0     O65883  10.171   2.017  10.148  0.0375  0.5949  0.6441
  489MOL0     C65884  10.263   2.025  10.252  0.1608 -0.3454 -0.5454
  489MOL0     C65885  10.375   2.102  10.242 -0.6463 -0.2258  0.8974
  489MOL0     C65886  10.477   2.099  10.340  0.2992  0.2044  0.6378
  489MOL0     C65887  10.463   2.026  10.459  0.1855  0.5766  0.2719
  489MOL0     O65888  10.536   2.035  10.572 -0.6103 -0.3703 -0.1840
  489MOL0     C65889  10.499   2.147  10.644 -0.6286 -0.1131  0.8689
  489MOL0     C65890  10.544   2.163  10.788  0.2893 -0.0808  0.7517
  489MOL0     C65891  10.502   2.301  10.850 -0.1678  0.1955 -0.2960
  489MOL0     C65892  10.526   2.305  10.999 -0.2121 -0.1931  0.4634
  489MOL0     C65893  10.670   2.289  11.052 -0.7478  0.0285 -0.5995
  489MOL0     C65894  10.689   2.318  11.205 -0.3839 -0.5372  0.9259
  489MOL0     C65895  10.671   2.194  11.292 -0.8976  0.4783  0.5180
  489MOL0     C65896  10.525   2.146  11.308  0.5350 -0.7212  0.5399
  489MOL0     N65897  10.493   2.052  11.417  0.0459  0.3560  0.5291
  489MOL0     C65898  10.567   2.002  11.527 -0.0929 -0.9328  1.0625
  489MOL0     C65899  10.476   1.933  11.598  0.5726 -0.0513 -0.3470
  489MOL0     C65900  10.492   1.839  11.723  1.3813  0.2588 -0.0254
  489MOL0     C65901  10.551   1.907  11.845  0.7298 -0.4958 -0.8740
  489MOL0     C65902  10.699   1.939  11.855 -1.7021 -1.1450  0.1833
  489MOL0     C65903  10.715   2.016  11.983  0.6896 -0.3969  0.5687
  489MOL0     O65904  10.853   2.032  12.019 -0.0023  0.4159 -0.1965
  489MOL0     C65905  10.880   2.108  12.129 -0.7766 -0.1473 -0.6760
  489MOL0     C65906  11.010   2.104  12.187  0.4852  0.4692 -0.0041
  489MOL0     C65907  11.041   2.157  12.318  1.1271  0.6242  0.5455
  489MOL0     C65908  11.171   2.118  12.383  0.1964 -0.1014 -0.4457
  489MOL0     C65909  10.928   2.224  12.391  0.3385 -0.0864 -0.6429
  489MOL0     C65910  10.948   2.279  12.528  0.1712  0.5237  0.6483
  489MOL0     O65911  10.839   2.288  12.614 -0.4988  0.0727  0.0488
  489MOL0     C65912  10.841   2.345  12.732 -0.9361 -0.4970 -0.0314
  489MOL0     C65913  10.744   2.446  12.761 -0.7768  0.0702  1.1450
  489MOL0     C65914  10.749   2.513  12.874 -0.5978  0.3165  0.2787
  489MOL0     C65915  10.838   2.477  12.970 -1.1992 -0.1163  0.3049
  489MOL0     O65916  10.845   2.531  13.092 -0.7396  0.5918  0.1178
  489MOL0     C65917  10.733   2.610  13.127 -0.0594  0.1681 -0.5459
  489MOL0     C65918  10.737   2.652  13.276  0.6670 -0.2599 -0.1371
  489MOL0     C65919  10.879   2.701  13.312  0.6786  0.0344  0.7719
  489MOL0     C65920  10.893   2.754  13.457 -0.7771 -0.7009 -0.1315
  489MOL0     C65921  10.849   2.648  13.555 -0.5345  0.3071 -0.2664
  489MOL0     C65922  10.842   2.690  13.700 -0.0818  0.4130  0.4022
  489MOL0     C65923  10.735   2.792  13.729 -0.8565  0.3094  0.5780
  489MOL0     C65924  10.740   2.826  13.881 -0.7307 -0.8727  0.3200
  489MOL0    Cl65925  10.622   2.948  13.874 -0.7052 -0.6799  0.1958
  489MOL0     C65926  10.936   2.382  12.944 -0.7929 -1.2723  0.3103
  489MOL0     C65927  10.942   2.326  12.819 -0.0155  0.2911  0.4174
  489MOL0     O65928  11.062   2.311  12.544  0.5007  0.1958  0.5954
  489MOL0     C65929  10.805   2.236  12.327  0.6840 -0.1634  0.7679
  489MOL0     C65930  10.788   2.189  12.195 -0.2313 -0.5449  0.6454
  489MOL0     N65931  10.348   1.969  11.562 -0.2310 -0.0324  0.4804
  489MOL0     N65932  10.361   2.045  11.461  0.0379  0.2411  0.3997
  489MOL0     C65933  10.348   1.945  10.474  0.0511 -0.8535  1.5486
  489MOL0     C65934  10.250   1.936  10.368 -0.6401  0.2375 -0.2734
  489MOL0     C65935  10.081   1.861   9.975  0.6152 -0.7931 -0.3238
  489MOL0     C65936   9.951   1.919   9.974  0.1761  0.3997  0.3323
  489MOL0     C65937   9.847   1.856   9.909  0.4883 -0.8342  0.2418
  489MOL0     C65938   9.864   1.734   9.847 -0.2192  1.1025  0.2281
  489MOL0     O65939   9.772   1.663   9.775 -0.8419  0.3260 -0.0316
  489MOL0     C65940   9.638   1.716   9.783 -0.5091 -0.7307  0.3953
  489MOL0     C65941   9.546   1.628   9.696  0.1617 -0.7111  0.0599
  489MOL0     C65942   9.495   1.513   9.782  0.0354 -0.4989  1.1019
  489MOL0     C65943   9.388   1.437   9.702  0.8689  0.3467 -0.0773
  489MOL0     C65944   9.349   1.314   9.773  0.1330  0.5012  0.0549
  489MOL0     C65945   9.344   1.222   9.856 -0.7676 -0.1701  0.2971
  489MOL0     C65946   9.989   1.681   9.828  0.1576 -0.5225  1.0624
  489MOL0     C65947  10.092   1.739   9.895  0.6176 -0.4679 -0.7889
  489MOL0     H65948  10.399   2.175  10.166  0.4528  1.9821  3.2061
  489MOL0     H65949  10.556   2.171  10.327 -0.0132  0.7830  1.8421
  489MOL0     H65950  10.533   2.241  10.599 -1.0168  1.3271  3.3940
  489MOL0     H65951  10.391   2.162  10.648 -0.6221  0.8972 -1.4132
  489MOL0     H65952  10.496   2.078  10.838  0.0915 -0.4646 -0.0682
  489MOL0     H65953  10.652   2.143  10.797  0.7060 -1.7032 -4.5199
  489MOL0     H65954  10.557   2.386  10.808  1.7370 -2.1855 -3.0524
  489MOL0     H65955  10.394   2.314  10.837 -0.6715 -4.4384 -3.1563
  489MOL0     H65956  10.497   2.403  11.038 -0.0766  0.8096 -1.8203
  489MOL0     H65957  10.459   2.226  11.036 -0.5709 -2.1557 -3.7814
  489MOL0     H65958  10.698   2.188  11.021  1.1910  0.8653 -1.7238
  489MOL0     H65959  10.741   2.356  11.004  1.4271 -0.8284  1.2430
  489MOL0     H65960  10.790   2.359  11.216 -1.0427  0.4550  4.4902
  489MOL0     H65961  10.617   2.392  11.238  1.4009  1.3950  0.7064
  489MOL0     H65962  10.726   2.106  11.257  0.8344  1.7613 -0.1422
  489MOL0     H65963  10.724   2.207  11.387 -1.8917  1.1455  0.9960
  489MOL0     H65964  10.512   2.097  11.211 -3.6684 -0.4116  0.7497
  489MOL0     H65965  10.465   2.237  11.312  0.2094 -0.9330  3.5887
  489MOL0     H65966  10.676   2.002  11.528 -0.0016  1.5875 -0.3420
  489MOL0     H65967  10.396   1.804  11.762  1.4635 -0.9627 -0.8584
  489MOL0     H65968  10.547   1.748  11.699 -2.6680 -2.1562 -1.0513
  489MOL0     H65969  10.520   1.842  11.927 -0.3610  0.5270 -0.4491
  489MOL0     H65970  10.487   1.992  11.871  0.3497 -1.3974  1.3657
  489MOL0     H65971  10.738   2.009  11.781  0.2183 -0.7315  1.4968
  489MOL0     H65972  10.748   1.841  11.849  0.9561  0.1105 -0.4844
  489MOL0     H65973  10.670   1.961  12.067 -2.1597  1.3648  0.3377
  489MOL0     H65974  10.664   2.112  11.975  2.5254  0.7609  2.0664
  489MOL0     H65975  11.075   2.034  12.135  1.1162  2.2793 -1.7692
  489MOL0     H65976  11.234   2.207  12.388 -1.9876  1.5889 -1.1099
  489MOL0     H65977  11.147   2.091  12.486 -0.5661 -1.3676 -0.9301
  489MOL0     H65978  11.219   2.036  12.329  0.6448  1.8120 -3.1650
  489MOL0     H65979  10.656   2.460  12.699 -0.4890 -2.4660  0.0297
  489MOL0     H65980  10.686   2.601  12.881 -2.4683 -0.6597 -2.7247
  489MOL0     H65981  10.751   2.703  13.072  2.1506  0.5214  0.6610
  489MOL0     H65982  10.635   2.571  13.097 -1.9292  2.2136  2.3870
  489MOL0     H65983  10.662   2.727  13.303 -1.4730 -2.3304  0.0392
  489MOL0     H65984  10.727   2.555  13.327  0.7305 -0.7630 -1.0576
  489MOL0     H65985  10.903   2.788  13.250 -0.8299  0.1999  0.3863
  489MOL0     H65986  10.957   2.624  13.309  0.7709  0.1535 -1.2271
  489MOL0     H65987  10.999   2.779  13.465 -1.1456  0.7458  0.5904
  489MOL0     H65988  10.827   2.841  13.463  2.5408  1.9075  1.7211
  489MOL0     H65989  10.924   2.569  13.543 -0.4101  0.4141 -0.1928
  489MOL0     H65990  10.753   2.609  13.521  1.6421 -1.2319 -5.8138
  489MOL0     H65991  10.813   2.594  13.745  2.4949 -0.2471  0.8221
  489MOL0     H65992  10.938   2.716  13.745 -1.5805  1.5298  3.1761
  489MOL0     H65993  10.634   2.754  13.708 -1.8774  3.4532 -1.0057
  489MOL0     H65994  10.743   2.885  13.672 -0.4827  1.5352  2.5273
  489MOL0     H65995  10.834   2.875  13.907 -1.4723  3.3406 -3.7640
  489MOL0     H65996  10.710   2.738  13.940  1.2347 -1.3278  0.7298
  489MOL0     H65997  11.019   2.364  13.013  0.1008  1.5343  0.1004
  489MOL0     H65998  11.017   2.250  12.800  0.0516  0.5682 -0.4908
  489MOL0     H65999  10.725   2.298  12.367 -1.8398 -3.4965  1.3962
  489MOL0     H66000  10.685   2.207  12.165  0.1380 -2.0119 -1.8354
  489MOL0     H66001  10.343   1.902  10.573  4.2387 -3.3785  0.8690
  489MOL0     H66002  10.159   1.878  10.381  0.2388 -1.5567 -1.6838
  489MOL0     H66003   9.924   2.008  10.030 -2.8363  1.4909 -2.5129
  489MOL0     H66004   9.744   1.890   9.909  0.5164 -0.7355 -0.4661
  489MOL0     H66005   9.602   1.725   9.885 -3.6577  2.3373 -0.7854
  489MOL0     H66006   9.633   1.814   9.734  0.8352 -1.0352 -0.4143
  489MOL0     H66007   9.608   1.596   9.612 -1.1657  1.9770 -2.1161
  489MOL0     H66008   9.471   1.697   9.655 -1.0757 -2.9843 -1.7369
  489MOL0     H66009   9.436   1.555   9.864 -2.1379  0.5283 -0.8656
  489MOL0     H66010   9.574   1.442   9.807  0.1194 -0.9496 -0.3458
  489MOL0     H66011   9.407   1.422   9.595 -1.8449  1.6771 -0.8465
  489MOL0     H66012   9.297   1.499   9.704  1.0857  0.6425  1.5738
  489MOL0     H66013   9.334   1.142   9.927 -1.8800 -1.1414 -0.9003
  489MOL0     H66014  10.011   1.588   9.777  1.5534  0.3053  0.0662
  489MOL0     H66015  10.189   1.690   9.891  1.0186  0.2136  0.1765
  490MOL0     O66016   2.860   2.344  11.154  0.7810  0.3316  0.3514
  490MOL0     C66017   2.816   2.229  11.176  0.5054 -0.5415  0.6400
  490MOL0     O66018   2.687   2.175  11.155  0.4235 -1.0032 -0.2084
  490MOL0     C66019   2.582   2.249  11.107  0.8896  0.0079 -0.2101
  490MOL0     C66020   2.579   2.390  11.089 -1.0065 -0.7414 -0.0862
  490MOL0     C66021   2.461   2.455  11.075  0.5334 -1.0081  0.4575
  490MOL0     C66022   2.342   2.379  11.054  0.0848  0.1907  0.4803
  490MOL0     O66023   2.224   2.439  11.017 -0.2394  0.5986  0.7773
  490MOL0     C66024   2.200   2.577  11.030 -0.4159  0.2984  0.8116
  490MOL0     C66025   2.049   2.612  11.001  0.0623  0.6470  0.1515
  490MOL0     C66026   2.029   2.759  11.029  1.6713 -0.4124 -0.7970
  490MOL0     C66027   1.880   2.795  11.012  0.1965 -0.1772 -0.3585
  490MOL0     C66028   1.841   2.939  11.028  0.1704 -0.3473  0.3885
  490MOL0     C66029   1.904   3.009  11.150  0.2612 -1.1867 -0.2071
  490MOL0     C66030   1.834   3.143  11.160 -0.4116 -0.5539 -0.0189
  490MOL0     C66031   1.871   3.228  11.282 -0.0830  0.3237  0.1077
  490MOL0     N66032   1.779   3.348  11.289 -0.2943  0.7172 -0.3033
  490MOL0     C66033   1.814   3.479  11.268  0.6859 -0.5921  0.1317
  490MOL0     C66034   1.704   3.556  11.286 -0.5660  0.7901  0.2522
  490MOL0     C66035   1.693   3.704  11.291 -0.1511  0.4364 -0.2519
  490MOL0     C66036   1.618   3.743  11.420  0.6648 -0.4798 -0.4964
  490MOL0     C66037   1.474   3.817  11.405  0.2427 -0.1983  1.1419
  490MOL0     C66038   1.363   3.713  11.374 -0.3764  0.2076  0.6869
  490MOL0     O66039   1.237   3.763  11.323 -0.1209 -0.5883 -0.0475
  490MOL0     C66040   1.207   3.771  11.192 -0.8109  0.2224  0.6321
  490MOL0     C66041   1.302   3.819  11.100 -0.0583  0.3313  0.0203
  490MOL0     C66042   1.264   3.852  10.965 -0.2669 -0.6823 -0.1522
  490MOL0     C66043   1.366   3.923  10.882  0.2405 -0.3830 -0.4600
  490MOL0     C66044   1.127   3.826  10.926 -0.1543 -0.4233 -0.0707
  490MOL0     C66045   1.070   3.868  10.797  0.1462 -0.4408 -0.1731
  490MOL0     O66046   0.927   3.888  10.793  0.6267  0.3007 -0.0960
  490MOL0     C66047   0.842   3.935  10.696 -1.5967  0.9457  0.8135
  490MOL0     C66048   0.889   3.995  10.571 -0.4031 -0.8170 -0.2594
  490MOL0     C66049   0.791   4.063  10.493  0.0662 -0.4799  0.4126
  490MOL0     C66050   0.661   4.055  10.534 -0.1924 -0.8273 -0.0406
  490MOL0     O66051   0.580   4.142  10.464  0.4783  0.8728 -0.3490
  490MOL0     C66052   0.445   4.131  10.486 -0.0584 -0.8963 -0.1802
  490MOL0     C66053   0.385   4.258  10.425  0.1621 -0.3611 -0.2178
  490MOL0     C66054   0.233   4.272  10.446 -0.0680  0.1947 -0.3649
  490MOL0     C66055   0.168   4.368  10.347 -0.0148  0.0047 -0.2496
  490MOL0     C66056   0.039   4.433  10.403  0.4008 -0.5861 -0.1944
  490MOL0     C66057  -0.048   4.509  10.308 -0.5961 -0.5949 -0.0096
  490MOL0     C66058  -0.108   4.427  10.197  0.1455 -0.4410  0.2485
  490MOL0     C66059  -0.213   4.335  10.246  0.2389 -0.7652 -0.2820
  490MOL0    Cl66060  -0.347   4.424  10.314 -0.4518  0.0380  0.3707
  490MOL0     C66061   0.626   3.988  10.647  0.2492  0.8715 -0.9805
  490MOL0     C66062   0.713   3.930  10.731 -0.3477  0.1276  0.3513
  490MOL0     O66063   1.140   3.879  10.696 -0.5016 -0.1381 -0.0708
  490MOL0     C66064   1.033   3.787  11.025 -0.1520 -0.5058  0.8815
  490MOL0     C66065   1.076   3.760  11.156 -0.3892 -0.4060  0.1352
  490MOL0     N66066   1.604   3.470  11.312 -0.0009  0.3209  1.6283
  490MOL0     N66067   1.646   3.346  11.315 -0.0394 -0.4618 -0.2507
  490MOL0     C66068   2.350   2.244  11.058 -0.1310 -0.4718 -0.0591
  490MOL0     C66069   2.469   2.176  11.090  0.9511 -0.2621 -0.3988
  490MOL0     C66070   2.908   2.130  11.237 -0.4211  0.4405 -0.3811
  490MOL0     C66071   2.865   2.012  11.297  0.2076 -0.4327  0.0976
  490MOL0     C66072   2.956   1.914  11.339  0.0752 -0.3358  0.0778
  490MOL0     C66073   3.088   1.948  11.355 -0.1306  0.3792 -0.0467
  490MOL0     O66074   3.177   1.856  11.411 -1.0827  0.3884 -0.6105
  490MOL0     C66075   3.176   1.870  11.552 -0.3775  1.1152  0.7297
  490MOL0     C66076   3.283   1.972  11.596 -0.1112  0.4478 -0.2437
  490MOL0     C66077   3.424   1.903  11.590  0.1011 -0.5033  0.2764
  490MOL0     C66078   3.518   1.982  11.681  0.5015  0.9529  0.5461
  490MOL0     C66079   3.634   1.907  11.716 -1.1071  0.1918 -0.0803
  490MOL0     C66080   3.735   1.857  11.758  0.3134 -1.4352 -0.3254
  490MOL0     C66081   3.136   2.077  11.304 -0.6261  0.6688  0.3599
  490MOL0     C66082   3.048   2.159  11.236  0.7252 -0.3077  0.7695
  490MOL0     H66083   2.675   2.440  11.086 -0.4522 -1.6981  0.8614
  490MOL0     H66084   2.467   2.563  11.067  1.6551 -1.1381 -0.7599
  490MOL0     H66085   2.232   2.608  11.130 -0.9993  2.9191  0.2428
  490MOL0     H66086   2.258   2.633  10.956 -0.8374 -1.1280 -0.6582
  490MOL0     H66087   2.029   2.590  10.896  1.0196 -0.2092  0.1362
  490MOL0     H66088   1.984   2.549  11.064  1.1189  2.1375  2.9050
  490MOL0     H66089   2.077   2.795  11.121  1.3291 -0.4616 -0.5970
  490MOL0     H66090   2.080   2.815  10.950 -0.4374  2.9989  0.0676
  490MOL0     H66091   1.841   2.762  10.915 -1.5825 -1.4485  0.7365
  490MOL0     H66092   1.824   2.735  11.083 -0.8543 -1.5377 -2.2344
  490MOL0     H66093   1.863   2.978  10.929 -1.4311 -0.9731 -0.2536
  490MOL0     H66094   1.732   2.949  11.030  0.2275  0.7648 -1.1047
  490MOL0     H66095   1.910   2.951  11.243  1.5422 -3.2258 -1.4858
  490MOL0     H66096   2.007   3.021  11.117  0.4478  1.9785  1.1702
  490MOL0     H66097   1.854   3.197  11.067  1.1242 -0.1019  0.5466
  490MOL0     H66098   1.726   3.125  11.160 -0.2322 -1.7496 -0.6461
  490MOL0     H66099   1.973   3.264  11.299  0.9887 -1.9764 -0.9772
  490MOL0     H66100   1.852   3.154  11.360 -1.4507  0.6697  0.1206
  490MOL0     H66101   1.913   3.522  11.257  0.1859  0.5515 -0.0831
  490MOL0     H66102   1.793   3.747  11.303  1.8150 -3.9374  1.2586
  490MOL0     H66103   1.642   3.737  11.200 -1.8261  2.1574  1.2211
  490MOL0     H66104   1.685   3.817  11.466 -0.4729  1.2179 -1.4474
  490MOL0     H66105   1.602   3.657  11.485 -1.1624 -0.9732 -1.5195
  490MOL0     H66106   1.463   3.894  11.328 -1.7387 -0.5420  1.0184
  490MOL0     H66107   1.450   3.868  11.499 -0.0430  0.7555  0.5683
  490MOL0     H66108   1.351   3.647  11.461  0.3303  0.3534  0.9002
  490MOL0     H66109   1.419   3.663  11.294 -1.0729  0.5632 -0.0364
  490MOL0     H66110   1.406   3.827  11.130  1.3431 -4.7952 -2.2974
  490MOL0     H66111   1.308   3.989  10.817  0.4181 -1.6346 -1.9291
  490MOL0     H66112   1.440   3.976  10.943 -2.9586  1.6739  1.9634
  490MOL0     H66113   1.420   3.849  10.822 -1.9085 -1.2121 -1.4842
  490MOL0     H66114   0.991   3.974  10.540 -0.6368 -6.4946  1.6412
  490MOL0     H66115   0.811   4.132  10.412 -0.3005 -0.0924  0.6454
  490MOL0     H66116   0.396   4.044  10.442 -1.7692 -0.8581  1.4992
  490MOL0     H66117   0.406   4.124  10.589 -2.7432 -1.2177 -1.1241
  490MOL0     H66118   0.428   4.350  10.468  0.5639  0.2809 -1.9130
  490MOL0     H66119   0.400   4.266  10.317 -0.8651  3.0542 -0.2395
  490MOL0     H66120   0.211   4.308  10.547  0.4375 -1.7283  0.5005
  490MOL0     H66121   0.188   4.172  10.445 -0.9635  0.5518 -3.3237
  490MOL0     H66122   0.226   4.457  10.320 -0.2184  0.6883  1.4412
  490MOL0     H66123   0.162   4.318  10.249  0.8076  1.4013 -1.0508
  490MOL0     H66124   0.069   4.492  10.490  1.1903  0.0632 -0.8902
  490MOL0     H66125  -0.017   4.352  10.450  0.8028  0.4527  2.2155
  490MOL0     H66126  -0.115   4.571  10.369  0.7944 -1.0660  2.1152
  490MOL0     H66127   0.025   4.577  10.264  0.2525 -1.8981 -0.6782
  490MOL0     H66128  -0.026   4.372  10.151  3.2395  3.6978  0.1836
  490MOL0     H66129  -0.153   4.504  10.133 -3.5286 -2.1806  0.5258
  490MOL0     H66130  -0.180   4.264  10.323  0.5518 -1.7023 -1.2598
  490MOL0     H66131  -0.242   4.268  10.164  1.0107 -3.3695  1.4472
  490MOL0     H66132   0.526   3.977  10.689  1.6436  1.7726  3.0008
  490MOL0     H66133   0.684   3.879  10.822 -0.3064 -0.2623  0.1493
  490MOL0     H66134   0.925   3.789  11.017 -0.1281 -0.6227  0.5331
  490MOL0     H66135   1.002   3.719  11.223 -3.0108  1.1463 -1.6134
  490MOL0     H66136   2.252   2.200  11.040  0.3944 -3.3005  2.9504
  490MOL0     H66137   2.467   2.071  11.118 -0.9148 -0.2178 -0.2121
  490MOL0     H66138   2.761   1.981  11.297 -0.1671  0.6819 -1.3405
  490MOL0     H66139   2.903   1.827  11.377 -1.6460  1.2815  1.5887
  490MOL0     H66140   3.078   1.900  11.589 -1.1953  0.0422 -0.4769
  490MOL0     H66141   3.197   1.769  11.590  1.4456  0.5343 -1.5630
  490MOL0     H66142   3.268   1.996  11.701  1.8708  1.6273 -0.1862
  490MOL0     H66143   3.293   2.057  11.528  1.1562 -0.8966 -1.8116
  490MOL0     H66144   3.454   1.914  11.486 -2.5097  2.3942 -0.3049
  490MOL0     H66145   3.417   1.799  11.623  1.7969 -0.4710  0.8405
  490MOL0     H66146   3.467   2.017  11.770  0.0898  0.9515  0.3142
  490MOL0     H66147   3.554   2.071  11.628  4.7364  0.7718  2.7492
  490MOL0     H66148   3.824   1.808  11.792  0.5983 -0.9333 -0.3409
  490MOL0     H66149   3.243   2.093  11.295 -0.4301 -1.3143 -1.8031
  490MOL0     H66150   3.075   2.251  11.184  0.5284 -0.0419  1.1353
  491MOL0     O66151   0.577   3.203   9.835  0.5772  0.3878  0.4481
  491MOL0     C66152   0.591   3.297   9.911  0.3045 -0.1831  0.2473
  491MOL0     O66153   0.491   3.368   9.973  0.0245 -0.0156  0.2346
  491MOL0     C66154   0.365   3.318   9.990  0.7548 -0.7962 -0.5183
  491MOL0     C66155   0.317   3.333  10.121  0.6233 -0.1433  0.1902
  491MOL0     C66156   0.195   3.270  10.169  0.6008  0.7556 -0.6149
  491MOL0     C66157   0.119   3.193  10.080 -0.5852 -0.4509 -0.1460
  491MOL0     O66158   0.000   3.121  10.101 -0.0349 -0.4322  1.1949
  491MOL0     C66159  -0.012   3.088  10.240  0.3011 -0.1031 -0.1168
  491MOL0     C66160  -0.146   3.010  10.264 -0.7401  0.9172  0.0485
  491MOL0     C66161  -0.144   2.863  10.246  1.0004  0.7722 -0.1547
  491MOL0     C66162  -0.123   2.820  10.102 -0.7206 -0.1234 -1.2242
  491MOL0     C66163  -0.193   2.682  10.093  0.2925  0.1126 -0.2906
  491MOL0     C66164  -0.189   2.621   9.954 -0.2672  0.2817  0.2447
  491MOL0     C66165  -0.261   2.483   9.961  0.1547 -0.0343  0.6549
  491MOL0     C66166  -0.246   2.421   9.817 -0.2829 -0.4360 -0.7525
  491MOL0     N66167  -0.365   2.435   9.726 -0.4211  0.1752 -0.0312
  491MOL0     C66168  -0.406   2.336   9.638 -0.5545  0.3151  0.3134
  491MOL0     C66169  -0.505   2.391   9.564  0.0527  0.5410 -0.8026
  491MOL0     C66170  -0.577   2.308   9.471  0.4055  0.0152  0.2209
  491MOL0     C66171  -0.730   2.341   9.490 -0.1076  0.6063  0.2997
  491MOL0     C66172  -0.824   2.310   9.366 -1.4412  0.0311  0.1581
  491MOL0     C66173  -0.972   2.328   9.381 -0.1999  0.6602  0.1187
  491MOL0     O66174  -1.045   2.279   9.265  0.6797  0.0654 -0.6556
  491MOL0     C66175  -1.182   2.288   9.268  0.2541 -0.2044 -0.0265
  491MOL0     C66176  -1.253   2.233   9.155 -0.9223 -0.9713 -0.1279
  491MOL0     C66177  -1.390   2.240   9.156 -0.0113 -0.3349 -0.5134
  491MOL0     C66178  -1.458   2.191   9.030 -0.6020  0.4674  1.1443
  491MOL0     C66179  -1.468   2.270   9.269 -0.7265 -0.7324 -0.8716
  491MOL0     C66180  -1.616   2.272   9.272 -0.3514 -0.3765 -0.5028
  491MOL0     O66181  -1.676   2.153   9.248  0.7344 -0.5667  0.0403
  491MOL0     C66182  -1.807   2.155   9.208  1.3724 -0.3532 -1.0992
  491MOL0     C66183  -1.874   2.033   9.214 -0.0989  1.1172 -0.0267
  491MOL0     C66184  -2.009   2.016   9.159 -0.2808 -0.5245  0.1118
  491MOL0     C66185  -2.079   2.133   9.104  0.9828 -0.3463 -0.0178
  491MOL0     O66186  -2.208   2.137   9.066 -0.6273  0.3603 -0.7476
  491MOL0     C66187  -2.284   2.014   9.100  0.5603  0.4963  0.5131
  491MOL0     C66188  -2.427   2.033   9.042  0.7853 -0.3124 -0.3923
  491MOL0     C66189  -2.533   1.926   9.057  0.5415 -0.4520 -0.2439
  491MOL0     C66190  -2.655   1.962   8.986 -0.5868 -0.4379 -0.3235
  491MOL0     C66191  -2.782   1.884   9.025  0.4995 -1.1077  0.8729
  491MOL0     C66192  -2.818   1.844   9.167  0.1254 -1.3110  0.4057
  491MOL0     C66193  -2.950   1.763   9.164 -0.1016 -0.1604  1.1299
  491MOL0     C66194  -3.010   1.754   9.304  0.1179  0.0653 -0.4032
  491MOL0    Cl66195  -3.170   1.685   9.291  0.5847 -0.1631 -0.1149
  491MOL0     C66196  -2.005   2.247   9.089  0.8469  0.0940 -1.2045
  491MOL0     C66197  -1.871   2.259   9.139  0.7958 -0.2547  0.9147
  491MOL0     O66198  -1.668   2.373   9.315 -0.2637 -0.4690 -0.8482
  491MOL0     C66199  -1.405   2.319   9.380 -0.9559 -0.3134 -0.0602
  491MOL0     C66200  -1.257   2.325   9.378  0.6008 -0.6355 -1.0310
  491MOL0     N66201  -0.526   2.517   9.604 -0.0746 -0.5810  0.3502
  491MOL0     N66202  -0.446   2.546   9.701  0.0313  0.8282 -0.3590
  491MOL0     C66203   0.169   3.179   9.945 -0.7621 -0.7445 -0.7556
  491MOL0     C66204   0.285   3.243   9.900  0.0783  0.4686  0.1429
  491MOL0     C66205   0.731   3.359   9.911 -0.3302  0.6625 -0.3906
  491MOL0     C66206   0.750   3.476   9.987 -0.3755  0.0387 -0.1254
  491MOL0     C66207   0.868   3.542   9.988 -0.3051 -0.2718  0.0282
  491MOL0     C66208   0.977   3.484   9.920 -0.1974 -0.8837 -0.2439
  491MOL0     O66209   1.098   3.546   9.901  0.5725  0.0473 -0.2918
  491MOL0     C66210   1.118   3.693   9.900  0.6508  0.3286 -0.3240
  491MOL0     C66211   1.253   3.740   9.852  0.0522 -0.7014 -0.3963
  491MOL0     C66212   1.369   3.680   9.917 -0.4376 -0.2275  0.3068
  491MOL0     C66213   1.510   3.731   9.864 -0.1779 -0.1886  0.4666
  491MOL0     C66214   1.517   3.874   9.849 -0.5372 -0.0225  0.2530
  491MOL0     C66215   1.535   3.995   9.856  0.2347 -0.6292  0.6739
  491MOL0     C66216   0.958   3.365   9.851  0.0419 -0.5647 -0.1603
  491MOL0     C66217   0.832   3.305   9.834  0.6202 -0.1461 -0.9691
  491MOL0     H66218   0.372   3.393  10.193 -3.1506  3.0041  0.8029
  491MOL0     H66219   0.176   3.268  10.276 -2.1513  0.1482 -1.0371
  491MOL0     H66220   0.068   3.027  10.284 -0.1125 -0.0337  0.7578
  491MOL0     H66221  -0.021   3.180  10.299 -3.4316 -1.5021  1.8912
  491MOL0     H66222  -0.182   3.022  10.367 -0.9114 -0.3372  0.1591
  491MOL0     H66223  -0.228   3.043  10.200  0.1905  0.9004 -1.1957
  491MOL0     H66224  -0.057   2.827  10.302  2.9885  3.6270 -1.1758
  491MOL0     H66225  -0.236   2.824  10.291  0.4974  0.2847 -1.5636
  491MOL0     H66226  -0.174   2.878  10.024  1.7712  0.5658 -2.4822
  491MOL0     H66227  -0.017   2.813  10.075 -0.1182 -0.1442  0.9481
  491MOL0     H66228  -0.128   2.618  10.154 -1.5776 -0.0515  1.6443
  491MOL0     H66229  -0.295   2.681  10.132 -0.0290 -2.8324 -0.9376
  491MOL0     H66230  -0.242   2.685   9.884 -1.4712  1.1637  1.9025
  491MOL0     H66231  -0.086   2.613   9.918  0.2821  1.7375  1.3843
  491MOL0     H66232  -0.215   2.410  10.028 -0.1147 -0.4000  0.4418
  491MOL0     H66233  -0.364   2.503   9.995 -0.1321 -0.0731 -0.1779
  491MOL0     H66234  -0.233   2.313   9.827  2.4917 -0.3165 -2.1095
  491MOL0     H66235  -0.161   2.460   9.761  1.3521 -0.7701  1.3795
  491MOL0     H66236  -0.368   2.234   9.634 -0.2005  0.4413  0.3860
  491MOL0     H66237  -0.541   2.324   9.369 -1.4956 -2.7096 -1.0124
  491MOL0     H66238  -0.564   2.200   9.489  3.9115 -0.2641 -2.8214
  491MOL0     H66239  -0.748   2.448   9.508 -1.9839  0.3209  0.3760
  491MOL0     H66240  -0.755   2.292   9.585  1.8256 -0.3396  0.3554
  491MOL0     H66241  -0.794   2.207   9.344  3.0544  1.1952 -0.2212
  491MOL0     H66242  -0.811   2.371   9.276 -2.0696  0.2108  0.1838
  491MOL0     H66243  -1.004   2.430   9.405 -1.2458 -0.2022  2.8398
  491MOL0     H66244  -1.001   2.270   9.469  0.5300  1.9769  1.2718
  491MOL0     H66245  -1.206   2.201   9.062 -1.7779  3.4496 -2.3641
  491MOL0     H66246  -1.567   2.198   9.026 -0.7059 -1.4137 -0.5204
  491MOL0     H66247  -1.426   2.247   8.942 -0.6973 -2.0036 -0.5410
  491MOL0     H66248  -1.426   2.087   9.021 -1.0577  0.5377 -2.7892
  491MOL0     H66249  -1.834   1.952   9.274  0.4538 -0.3808 -2.3133
  491MOL0     H66250  -2.062   1.922   9.175 -1.3844  0.1446  0.5617
  491MOL0     H66251  -2.242   1.921   9.060  1.4586  0.9838  0.2883
  491MOL0     H66252  -2.291   1.991   9.207 -2.8375  0.5119  0.4070
  491MOL0     H66253  -2.463   2.125   9.089  2.7565 -0.3384  1.3381
  491MOL0     H66254  -2.414   2.057   8.936 -2.4188  0.2287 -0.7555
  491MOL0     H66255  -2.550   1.929   9.165  1.9400  2.1789 -0.0200
  491MOL0     H66256  -2.493   1.831   9.019  0.9788  0.3636 -1.9034
  491MOL0     H66257  -2.673   2.068   9.004  0.6770  0.2517 -2.6838
  491MOL0     H66258  -2.629   1.952   8.880  1.4709  3.5920 -0.4128
  491MOL0     H66259  -2.791   1.796   8.961 -0.4701 -0.9621  0.7874
  491MOL0     H66260  -2.861   1.953   8.992  2.1970  0.7509  0.5110
  491MOL0     H66261  -2.742   1.769   9.191 -0.9617 -3.4619 -2.2152
  491MOL0     H66262  -2.805   1.929   9.233  2.0964  1.3326 -3.0522
  491MOL0     H66263  -2.939   1.659   9.133 -4.1586 -0.2083 -0.8604
  491MOL0     H66264  -3.018   1.804   9.089 -0.7437 -3.3411 -0.1814
  491MOL0     H66265  -3.022   1.838   9.372 -3.9624  0.0256 -0.7949
  491MOL0     H66266  -2.960   1.672   9.358 -0.2418  1.0138  1.4539
  491MOL0     H66267  -2.054   2.341   9.061 -1.7259 -0.1698  1.8339
  491MOL0     H66268  -1.825   2.356   9.129 -1.5384  0.7579 -1.1625
  491MOL0     H66269  -1.464   2.359   9.462 -1.1718  1.1299 -0.8858
  491MOL0     H66270  -1.213   2.367   9.468  1.5164 -0.8086 -1.3873
  491MOL0     H66271   0.115   3.109   9.883 -1.9732  1.1320 -1.9318
  491MOL0     H66272   0.319   3.213   9.801  0.5119  1.3766  0.0104
  491MOL0     H66273   0.681   3.530  10.051  0.2130  1.0216 -0.2902
  491MOL0     H66274   0.885   3.634  10.043  1.9363 -0.7656  0.2310
  491MOL0     H66275   1.039   3.741   9.842  0.1956 -2.7335 -2.5197
  491MOL0     H66276   1.116   3.723  10.005 -0.2198 -2.8820  0.6862
  491MOL0     H66277   1.273   3.848   9.853  1.9907 -1.0106 -1.4278
  491MOL0     H66278   1.268   3.723   9.745  0.8328  2.4112 -0.8917
  491MOL0     H66279   1.364   3.573   9.896 -0.4340 -0.6554  2.3246
  491MOL0     H66280   1.378   3.701  10.023  3.9255  0.2652  0.0302
  491MOL0     H66281   1.521   3.683   9.767  3.2691  2.9872 -0.9749
  491MOL0     H66282   1.590   3.698   9.931  0.0876 -1.7645 -0.5830
  491MOL0     H66283   1.540   4.102   9.852  2.0865 -0.7103 -1.6455
  491MOL0     H66284   1.042   3.326   9.796 -2.2993 -1.4075 -3.4281
  491MOL0     H66285   0.836   3.207   9.787  1.3771 -0.6097  0.0151
  492MOL0     O66286   5.336   3.188   4.608 -0.2918  0.2254  0.3280
  492MOL0     C66287   5.453   3.144   4.618 -0.4957  0.3138 -0.6775
  492MOL0     O66288   5.569   3.225   4.625  0.3647  0.5517 -0.7278
  492MOL0     C66289   5.551   3.360   4.605 -0.9596  0.2898  1.1626
  492MOL0     C66290   5.536   3.401   4.471  0.1801 -0.3728  0.7045
  492MOL0     C66291   5.526   3.532   4.431 -0.8553  0.5438 -0.4740
  492MOL0     C66292   5.525   3.636   4.531 -0.0781 -0.6232  0.7604
  492MOL0     O66293   5.549   3.762   4.479  0.2947 -0.7015  0.1772
  492MOL0     C66294   5.432   3.817   4.408 -0.0177 -0.1357 -0.5961
  492MOL0     C66295   5.465   3.950   4.336  0.7811 -0.6552 -0.8050
  492MOL0     C66296   5.545   3.930   4.212 -0.0173  0.2962  0.4587
  492MOL0     C66297   5.618   4.052   4.144  0.0745 -0.0481  0.3875
  492MOL0     C66298   5.748   4.012   4.065  0.0104 -0.1977  0.2098
  492MOL0     C66299   5.813   4.140   4.009 -0.4016 -0.1177  0.6280
  492MOL0     C66300   5.913   4.098   3.897  0.5329 -0.3741 -0.5425
  492MOL0     C66301   5.991   4.226   3.850  0.9332  0.4088 -0.0734
  492MOL0     N66302   5.898   4.314   3.773 -0.4443 -0.1932 -0.3011
  492MOL0     C66303   5.922   4.338   3.640  0.0914  0.6731  0.6089
  492MOL0     C66304   5.814   4.420   3.608  0.1283 -0.2539  0.3320
  492MOL0     C66305   5.779   4.465   3.473  0.0121 -0.0784  0.4808
  492MOL0     C66306   5.665   4.395   3.414  0.3764 -0.7889 -0.2053
  492MOL0     C66307   5.692   4.235   3.397 -0.5020 -0.0781  0.2462
  492MOL0     C66308   5.562   4.153   3.390  0.0131  0.2636  0.8969
  492MOL0     O66309   5.593   4.022   3.334  0.4578 -0.7641 -0.1216
  492MOL0     C66310   5.548   3.918   3.412  0.3984  0.4604  0.5141
  492MOL0     C66311   5.585   3.919   3.552  0.3543  0.3230  0.5025
  492MOL0     C66312   5.558   3.807   3.632 -0.4251  0.0584 -0.8378
  492MOL0     C66313   5.588   3.808   3.781 -0.2596  0.0976 -0.3790
  492MOL0     C66314   5.507   3.687   3.581  0.8695  0.0571  0.1867
  492MOL0     C66315   5.479   3.561   3.659 -0.1735 -0.0060  0.4241
  492MOL0     O66316   5.567   3.521   3.758 -0.4694  0.9481  0.7188
  492MOL0     C66317   5.534   3.431   3.850 -0.5428  0.9522 -0.2292
  492MOL0     C66318   5.614   3.311   3.871  0.6453 -1.0331  0.7130
  492MOL0     C66319   5.590   3.211   3.978  0.2429 -0.0926 -0.6894
  492MOL0     C66320   5.490   3.237   4.069 -0.1949 -0.1339 -0.5613
  492MOL0     O66321   5.471   3.148   4.170 -0.7207  0.8553 -0.5688
  492MOL0     C66322   5.339   3.104   4.187  0.2377 -0.0601 -0.1733
  492MOL0     C66323   5.309   3.001   4.072 -0.5002 -1.2654 -0.2683
  492MOL0     C66324   5.199   2.898   4.096  0.0101 -0.8182  0.0458
  492MOL0     C66325   5.088   2.951   4.186 -0.5549  0.1878  0.9251
  492MOL0     C66326   4.973   2.852   4.208  1.2423 -0.2324  0.4386
  492MOL0     C66327   5.020   2.730   4.282 -0.7053  0.2282  0.3526
  492MOL0     C66328   4.907   2.664   4.363  0.7529  0.0371 -0.1491
  492MOL0     C66329   4.937   2.514   4.385  0.1126  0.7866 -0.8505
  492MOL0    Cl66330   5.083   2.497   4.496 -0.2392 -0.4428 -0.0254
  492MOL0     C66331   5.397   3.351   4.039 -1.3460 -0.4839  0.0127
  492MOL0     C66332   5.422   3.442   3.936  0.1280 -0.0906  0.0333
  492MOL0     O66333   5.384   3.494   3.621  0.3402 -0.8648  0.2408
  492MOL0     C66334   5.462   3.688   3.442 -0.4269 -0.2271 -0.7395
  492MOL0     C66335   5.474   3.802   3.363  0.2295 -0.3938 -0.2708
  492MOL0     N66336   5.731   4.431   3.721  0.4777 -0.4576  0.8482
  492MOL0     N66337   5.781   4.378   3.823 -0.6956 -0.4864  0.5235
  492MOL0     C66338   5.550   3.597   4.663  0.6381 -0.1062 -0.0937
  492MOL0     C66339   5.554   3.462   4.704 -0.8057 -0.5342  0.7449
  492MOL0     C66340   5.482   2.997   4.593 -0.7127  0.8479 -0.6654
  492MOL0     C66341   5.612   2.940   4.609 -0.0576 -0.6659 -1.2648
  492MOL0     C66342   5.641   2.805   4.576 -0.3516 -0.1287  0.5822
  492MOL0     C66343   5.535   2.728   4.534 -0.3013  0.6476 -0.3540
  492MOL0     O66344   5.553   2.587   4.526  0.0140 -0.3932  0.5364
  492MOL0     C66345   5.461   2.506   4.599 -0.1224 -0.5639 -0.9244
  492MOL0     C66346   5.534   2.388   4.657 -0.5540 -0.4205 -0.2339
  492MOL0     C66347   5.633   2.413   4.764 -0.2663  1.4831  0.1853
  492MOL0     C66348   5.687   2.272   4.809  0.2532  0.0168 -1.4797
  492MOL0     C66349   5.590   2.172   4.863 -0.6349 -0.4711 -0.6665
  492MOL0     C66350   5.515   2.093   4.903  0.3398 -0.8915  0.7346
  492MOL0     C66351   5.405   2.781   4.515 -0.1078  0.4925 -0.0915
  492MOL0     C66352   5.379   2.913   4.545  0.3988  0.2999 -0.3289
  492MOL0     H66353   5.537   3.321   4.398  1.2113 -0.8919  1.2559
  492MOL0     H66354   5.526   3.564   4.327 -2.1429  0.2051 -0.5934
  492MOL0     H66355   5.387   3.743   4.341  1.2837 -1.2675 -0.2748
  492MOL0     H66356   5.351   3.826   4.480 -2.5789 -0.9274 -3.1942
  492MOL0     H66357   5.373   4.010   4.331  0.0574 -1.6123  0.4393
  492MOL0     H66358   5.528   4.010   4.403  0.1687  1.0442 -1.7007
  492MOL0     H66359   5.614   3.848   4.233  1.5740  1.8096  1.4005
  492MOL0     H66360   5.470   3.904   4.136  2.0268  0.6541 -1.8160
  492MOL0     H66361   5.551   4.106   4.077 -2.2602 -1.1854  1.6575
  492MOL0     H66362   5.640   4.123   4.225 -0.8865  0.1614  0.4809
  492MOL0     H66363   5.818   3.970   4.138  0.0224 -1.3189 -0.4282
  492MOL0     H66364   5.739   3.936   3.987 -1.6006  1.1701 -1.0054
  492MOL0     H66365   5.735   4.204   3.968 -0.7019 -1.0109 -0.2370
  492MOL0     H66366   5.861   4.196   4.090  2.2442  2.2884 -2.3318
  492MOL0     H66367   5.993   4.039   3.944  1.7459  2.2360  0.9281
  492MOL0     H66368   5.874   4.035   3.817 -0.0668  1.4986 -1.7546
  492MOL0     H66369   6.078   4.196   3.791 -0.7402 -2.5914 -1.2142
  492MOL0     H66370   6.020   4.282   3.940  1.0025  0.6838 -0.2657
  492MOL0     H66371   6.004   4.308   3.576 -0.4640 -1.5964  0.8717
  492MOL0     H66372   5.746   4.568   3.492  0.3926  0.0622  0.3906
  492MOL0     H66373   5.871   4.476   3.414  0.5375 -1.2005  1.0609
  492MOL0     H66374   5.641   4.438   3.316  2.5434  0.3231 -0.3111
  492MOL0     H66375   5.577   4.410   3.478 -0.4002  1.8945 -1.7517
  492MOL0     H66376   5.752   4.192   3.478  3.0791  0.3257 -1.9581
  492MOL0     H66377   5.744   4.214   3.302  1.5694 -2.3285  1.7583
  492MOL0     H66378   5.494   4.203   3.320 -2.6090 -2.2564  1.4612
  492MOL0     H66379   5.507   4.154   3.485 -0.6102  1.0300  0.5422
  492MOL0     H66380   5.639   4.003   3.595  2.0306 -1.6561  2.4974
  492MOL0     H66381   5.503   3.786   3.847  0.0635  0.5354  0.1982
  492MOL0     H66382   5.680   3.754   3.805  0.4271  1.3222 -0.1751
  492MOL0     H66383   5.612   3.913   3.798  4.3740 -0.5622 -1.6381
  492MOL0     H66384   5.714   3.314   3.829  0.8434  1.1669  1.1851
  492MOL0     H66385   5.659   3.127   3.985  0.0665 -0.3463 -1.8201
  492MOL0     H66386   5.336   3.045   4.280  3.1550  3.8854  2.7488
  492MOL0     H66387   5.273   3.191   4.193  0.8380  0.2966  1.8563
  492MOL0     H66388   5.290   3.059   3.981  2.6154  0.8508  0.2546
  492MOL0     H66389   5.404   2.947   4.060 -0.1521 -1.2996  2.1545
  492MOL0     H66390   5.230   2.806   4.147 -2.4913 -1.1660  1.0915
  492MOL0     H66391   5.158   2.867   3.999  1.7239 -1.4449 -0.5191
  492MOL0     H66392   5.131   2.991   4.278  0.4351  1.6957 -0.1275
  492MOL0     H66393   5.052   3.041   4.135 -1.1693  0.7962  2.3926
  492MOL0     H66394   4.916   2.831   4.117  0.3678  1.1055  0.6491
  492MOL0     H66395   4.913   2.911   4.278  1.6825 -0.1455  0.7446
  492MOL0     H66396   5.067   2.661   4.212  0.9161  0.5736  1.0406
  492MOL0     H66397   5.097   2.751   4.357 -1.7089 -0.1005  1.4995
  492MOL0     H66398   4.820   2.668   4.296  2.0643  0.1419 -1.9227
  492MOL0     H66399   4.900   2.714   4.460  1.5234 -1.6384  0.8109
  492MOL0     H66400   4.964   2.458   4.295  1.2784 -1.6758  0.9181
  492MOL0     H66401   4.850   2.463   4.428 -0.2096 -0.3846 -2.7510
  492MOL0     H66402   5.313   3.367   4.106 -1.7046 -0.0105 -0.5317
  492MOL0     H66403   5.354   3.524   3.917  0.3987  0.4772  1.4391
  492MOL0     H66404   5.407   3.606   3.396  0.8468 -1.5194 -0.0131
  492MOL0     H66405   5.434   3.813   3.263 -1.1363  0.5853  0.3349
  492MOL0     H66406   5.568   3.672   4.739 -1.0608 -1.3784  1.6785
  492MOL0     H66407   5.581   3.433   4.805 -3.2170 -0.7539  1.3887
  492MOL0     H66408   5.687   3.002   4.656 -1.7302  1.4002 -1.1332
  492MOL0     H66409   5.737   2.756   4.583 -2.3568 -4.5880  0.3508
  492MOL0     H66410   5.411   2.567   4.675 -0.5053 -0.6710 -1.0875
  492MOL0     H66411   5.375   2.466   4.545 -0.7563 -1.9412  0.9751
  492MOL0     H66412   5.596   2.345   4.578  0.9492  0.6387  0.3169
  492MOL0     H66413   5.463   2.314   4.693 -0.4239 -0.9261 -0.9853
  492MOL0     H66414   5.583   2.463   4.848 -0.7537 -2.2939  2.3591
  492MOL0     H66415   5.715   2.476   4.730  2.0890 -2.1766 -1.5578
  492MOL0     H66416   5.762   2.281   4.889  2.2833 -0.3419 -3.2258
  492MOL0     H66417   5.742   2.216   4.733 -2.5862 -4.8472 -0.3306
  492MOL0     H66418   5.457   2.022   4.959  2.3016 -0.8302  2.9758
  492MOL0     H66419   5.333   2.706   4.482  2.0293 -0.8346 -2.0021
  492MOL0     H66420   5.279   2.956   4.544  0.7746  1.2072 -0.0534
  493MOL0     O66421   7.186   2.363  10.311  0.1776 -0.0275 -0.4740
  493MOL0     C66422   7.255   2.462  10.273  1.3834 -0.2017 -0.9511
  493MOL0     O66423   7.209   2.598  10.291 -0.0205 -0.7027 -0.5269
  493MOL0     C66424   7.091   2.622  10.362 -0.2936  0.2813 -0.0327
  493MOL0     C66425   7.083   2.730  10.451  0.4247 -0.3673  0.4157
  493MOL0     C66426   6.968   2.753  10.520 -0.3610  0.4814 -0.2356
  493MOL0     C66427   6.847   2.684  10.495 -0.7638  0.0866 -0.7764
  493MOL0     O66428   6.731   2.696  10.559 -0.6488 -0.7543  0.1754
  493MOL0     C66429   6.713   2.620  10.679 -0.7524  0.7911  0.4941
  493MOL0     C66430   6.672   2.707  10.790  0.8163 -0.7243  1.1175
  493MOL0     C66431   6.771   2.826  10.808 -0.1091 -0.1372 -1.8234
  493MOL0     C66432   6.729   2.917  10.933  0.3972  0.4973  0.3944
  493MOL0     C66433   6.833   3.017  10.980  0.2516 -0.1389  0.1400
  493MOL0     C66434   6.876   3.134  10.884  0.6827  0.2332 -0.2995
  493MOL0     C66435   7.014   3.102  10.816  0.7764  0.8105 -0.7670
  493MOL0     C66436   7.034   3.188  10.694 -0.1908  0.0899 -0.1691
  493MOL0     N66437   7.172   3.149  10.649 -0.3066 -0.0859 -0.0452
  493MOL0     C66438   7.299   3.189  10.700  0.6193 -0.2014 -0.3747
  493MOL0     C66439   7.379   3.126  10.613  0.1092 -0.2573  0.5991
  493MOL0     C66440   7.531   3.121  10.619 -1.2870 -0.1488  0.7411
  493MOL0     C66441   7.564   3.042  10.751  0.1525 -1.2097  1.6071
  493MOL0     C66442   7.709   3.002  10.768  0.6383  0.0520 -0.1593
  493MOL0     C66443   7.801   3.122  10.737 -0.6459  0.8157  0.2363
  493MOL0     O66444   7.927   3.130  10.818  0.3157 -0.3672  0.1226
  493MOL0     C66445   8.020   3.032  10.812 -0.0423 -0.1640  0.1461
  493MOL0     C66446   8.115   3.039  10.916 -0.0230 -0.3668  0.8563
  493MOL0     C66447   8.198   2.931  10.948  0.2290  1.3012  0.4421
  493MOL0     C66448   8.282   2.929  11.071  0.2891 -0.0948 -0.3323
  493MOL0     C66449   8.197   2.821  10.864 -0.5618 -0.0998 -0.6523
  493MOL0     C66450   8.273   2.690  10.882  0.5198 -0.4373 -0.1371
  493MOL0     O66451   8.197   2.586  10.846  0.5496 -0.9132 -1.3574
  493MOL0     C66452   8.245   2.459  10.852  0.1385  0.5602 -0.3676
  493MOL0     C66453   8.203   2.363  10.940  0.5543  0.1402 -0.4052
  493MOL0     C66454   8.255   2.228  10.942 -0.0190 -0.8621 -0.2932
  493MOL0     C66455   8.336   2.185  10.842 -0.4733  0.0011 -0.2000
  493MOL0     O66456   8.391   2.058  10.825 -0.0722  0.2439 -0.6133
  493MOL0     C66457   8.433   2.000  10.955 -0.6860 -0.6071  0.1727
  493MOL0     C66458   8.526   1.892  10.903 -0.0758 -0.1863  1.4027
  493MOL0     C66459   8.538   1.782  10.996 -0.3298 -0.0184  0.5195
  493MOL0     C66460   8.612   1.656  10.942  0.4686  0.1925 -0.4228
  493MOL0     C66461   8.716   1.603  11.040  1.0954  0.0287  0.3592
  493MOL0     C66462   8.651   1.526  11.163  0.3938  0.0691 -0.0087
  493MOL0     C66463   8.682   1.381  11.182  0.4056  0.0634  0.5778
  493MOL0     C66464   8.835   1.363  11.199  0.1710  1.0583  1.1270
  493MOL0    Cl66465   8.886   1.404  11.364 -0.1642  0.0237 -0.1628
  493MOL0     C66466   8.383   2.279  10.756  0.9276  0.0178  0.8952
  493MOL0     C66467   8.338   2.411  10.753  0.2924 -0.9272  0.6397
  493MOL0     O66468   8.380   2.680  10.931 -1.0365 -0.0936  0.4417
  493MOL0     C66469   8.112   2.821  10.752 -0.0832  0.5976 -0.3994
  493MOL0     C66470   8.023   2.926  10.726 -0.3801 -0.2205 -0.8576
  493MOL0     N66471   7.311   3.046  10.517  0.2062  0.1576  0.0706
  493MOL0     N66472   7.187   3.059  10.545  0.0971  0.4602 -0.5276
  493MOL0     C66473   6.851   2.579  10.410  0.0838 -0.2429 -0.2734
  493MOL0     C66474   6.968   2.549  10.336 -0.1741 -0.4679  0.1207
  493MOL0     C66475   7.367   2.452  10.186  0.3068 -0.3657  0.3343
  493MOL0     C66476   7.436   2.571  10.141  0.4910  0.0291 -0.5456
  493MOL0     C66477   7.553   2.544  10.066 -0.2777  0.8452  0.2513
  493MOL0     C66478   7.576   2.421  10.001 -0.6391 -0.2795 -0.0298
  493MOL0     O66479   7.683   2.423   9.915  0.6780  0.0860 -0.6417
  493MOL0     C66480   7.734   2.292   9.864  1.3438  0.2360 -0.0334
  493MOL0     C66481   7.668   2.262   9.728 -0.0962 -0.2652  0.9271
  493MOL0     C66482   7.711   2.369   9.615  0.5528 -0.0015  0.0209
  493MOL0     C66483   7.588   2.466   9.599  0.4963  0.1712 -0.7975
  493MOL0     C66484   7.631   2.606   9.576 -0.1434  0.3376 -0.9804
  493MOL0     C66485   7.665   2.723   9.547 -0.1392 -0.1372 -0.6247
  493MOL0     C66486   7.496   2.315  10.043 -0.3167  0.1224  0.0688
  493MOL0     C66487   7.397   2.327  10.136 -0.3709 -0.6943 -0.6046
  493MOL0     H66488   7.172   2.791  10.468 -0.6284  1.0736  1.0039
  493MOL0     H66489   6.976   2.842  10.581  3.1555  2.0075 -2.6143
  493MOL0     H66490   6.630   2.550  10.664 -1.3943  1.4317  0.9806
  493MOL0     H66491   6.811   2.580  10.709 -0.4798  1.8546  1.0647
  493MOL0     H66492   6.571   2.747  10.780  0.8796 -1.0306 -1.4037
  493MOL0     H66493   6.661   2.661  10.889 -0.7959  0.8291  1.7242
  493MOL0     H66494   6.861   2.769  10.832 -0.7584  0.4747  3.3253
  493MOL0     H66495   6.774   2.883  10.715 -1.5434  0.6005 -1.4550
  493MOL0     H66496   6.631   2.962  10.912  0.4661 -0.1098 -1.4063
  493MOL0     H66497   6.713   2.839  11.008  0.9945 -1.4348 -1.4011
  493MOL0     H66498   6.778   3.068  11.060 -1.6231 -2.0035  0.1071
  493MOL0     H66499   6.920   2.961  11.015  1.7302  2.5436  1.0875
  493MOL0     H66500   6.792   3.155  10.817 -0.4967 -0.1017  1.0331
  493MOL0     H66501   6.894   3.220  10.948 -2.5442 -0.1747  1.3260
  493MOL0     H66502   7.094   3.121  10.888  5.0720 -2.6004 -4.0041
  493MOL0     H66503   7.029   2.997  10.789  2.7291  0.1945  2.2066
  493MOL0     H66504   7.040   3.293  10.722 -0.1080  0.4141 -1.3379
  493MOL0     H66505   6.962   3.168  10.614 -0.4061  2.4967 -0.6571
  493MOL0     H66506   7.302   3.265  10.778 -1.1857  2.2682 -2.5144
  493MOL0     H66507   7.587   3.070  10.540  0.0634  0.6713  1.1497
  493MOL0     H66508   7.562   3.225  10.613 -3.3828  0.8255  4.0820
  493MOL0     H66509   7.502   2.952  10.755 -0.0307 -1.1473  0.4897
  493MOL0     H66510   7.523   3.102  10.832 -1.6258  2.7544 -1.8191
  493MOL0     H66511   7.739   2.919  10.702  1.0186  1.3841 -1.7334
  493MOL0     H66512   7.727   2.977  10.873  2.0360  0.6159 -0.2426
  493MOL0     H66513   7.751   3.217  10.761 -0.4932  0.3390  2.7845
  493MOL0     H66514   7.832   3.110  10.633  0.8408 -2.8385  0.9749
  493MOL0     H66515   8.111   3.126  10.981 -3.4714 -0.7639  1.3464
  493MOL0     H66516   8.242   3.005  11.138  1.4833  0.7086 -0.5143
  493MOL0     H66517   8.268   2.837  11.128  1.3775 -0.4794 -0.6708
  493MOL0     H66518   8.388   2.947  11.050 -0.5898  3.2933 -2.6880
  493MOL0     H66519   8.115   2.379  11.002 -0.0414 -3.1984 -0.2065
  493MOL0     H66520   8.214   2.165  11.020 -1.9255  1.2261  0.4731
  493MOL0     H66521   8.494   2.070  11.012  0.4565  0.4776 -2.2514
  493MOL0     H66522   8.346   1.970  11.014  0.0687  1.5884  2.6027
  493MOL0     H66523   8.476   1.855  10.813  0.4280  0.8838  0.6660
  493MOL0     H66524   8.627   1.925  10.877  0.2341 -2.3808 -0.4286
  493MOL0     H66525   8.443   1.745  11.036  0.9939 -1.9477  2.0665
  493MOL0     H66526   8.595   1.819  11.082 -1.8017  1.6178  0.8470
  493MOL0     H66527   8.543   1.575  10.922 -0.3473  0.7562  0.0723
  493MOL0     H66528   8.670   1.674  10.851  1.7625  0.2679  0.3821
  493MOL0     H66529   8.773   1.694  11.059 -0.9010  1.3059  0.5270
  493MOL0     H66530   8.774   1.528  10.986  0.0667 -0.3984 -0.1930
  493MOL0     H66531   8.678   1.567  11.261  1.8270 -0.0838 -0.3137
  493MOL0     H66532   8.545   1.552  11.165  0.5518  0.7292  1.4779
  493MOL0     H66533   8.656   1.318  11.096  3.4485  1.4911 -1.5744
  493MOL0     H66534   8.636   1.337  11.271 -4.1380  0.3586 -1.3424
  493MOL0     H66535   8.894   1.420  11.126 -0.3201 -0.9922 -0.9852
  493MOL0     H66536   8.871   1.263  11.175  0.2341  0.8099  2.2086
  493MOL0     H66537   8.461   2.251  10.685  1.3030  2.7680  0.1152
  493MOL0     H66538   8.361   2.483  10.676 -0.2428  0.4977  1.7670
  493MOL0     H66539   8.116   2.738  10.683  0.6380 -1.9956  2.5533
  493MOL0     H66540   7.962   2.941  10.638 -2.4300  1.3429  0.7408
  493MOL0     H66541   6.767   2.511  10.400 -0.7477  0.5367  1.0980
  493MOL0     H66542   6.977   2.466  10.265 -0.6522 -1.0533  0.7311
  493MOL0     H66543   7.420   2.672  10.176 -1.2386 -0.5290  0.3823
  493MOL0     H66544   7.617   2.628  10.039  1.0007  0.1359  0.9710
  493MOL0     H66545   7.844   2.290   9.867  1.4005  1.7901 -0.4745
  493MOL0     H66546   7.710   2.212   9.934 -2.7798  0.5314 -0.8741
  493MOL0     H66547   7.560   2.261   9.742 -0.1264 -2.4336  0.8043
  493MOL0     H66548   7.694   2.162   9.691  6.0251  0.7724  1.3367
  493MOL0     H66549   7.739   2.319   9.522  1.3058  2.0410 -0.9086
  493MOL0     H66550   7.793   2.432   9.648  0.4749 -1.1748  2.7525
  493MOL0     H66551   7.526   2.474   9.689 -0.1047 -1.5135 -1.0231
  493MOL0     H66552   7.517   2.431   9.523 -0.5853  1.9687 -0.6750
  493MOL0     H66553   7.685   2.825   9.520 -0.8016  0.1926  0.0878
  493MOL0     H66554   7.502   2.217   9.997 -3.7510 -1.5557  2.7450
  493MOL0     H66555   7.338   2.245  10.174 -0.7289 -1.7241 -3.2325
  494MOL0     O66556   2.437   2.435   4.455  0.5226 -0.5851 -1.0627
  494MOL0     C66557   2.445   2.355   4.361  0.0462  0.0014  0.2566
  494MOL0     O66558   2.340   2.296   4.300  0.0166  0.4864 -0.2355
  494MOL0     C66559   2.223   2.319   4.360  0.2635 -1.0153  0.0885
  494MOL0     C66560   2.149   2.431   4.332 -0.1628  0.1954 -0.0959
  494MOL0     C66561   2.026   2.451   4.394  0.1986 -0.1594 -0.0701
  494MOL0     C66562   1.973   2.359   4.477 -0.2492  0.7917 -0.6850
  494MOL0     O66563   1.848   2.385   4.530  0.1497 -0.2742 -0.2519
  494MOL0     C66564   1.845   2.415   4.676  0.5453  0.8355 -0.4419
  494MOL0     C66565   1.706   2.473   4.715 -1.0752 -0.1256  0.4009
  494MOL0     C66566   1.685   2.603   4.630  0.4598 -0.1183 -0.7782
  494MOL0     C66567   1.559   2.672   4.688 -0.4724  0.1390 -0.7630
  494MOL0     C66568   1.538   2.793   4.613 -0.3023 -0.7241  0.0931
  494MOL0     C66569   1.575   2.918   4.697 -1.1793 -0.8611  0.3897
  494MOL0     C66570   1.511   3.042   4.638 -0.8428 -0.6715 -0.9785
  494MOL0     C66571   1.550   3.179   4.708  0.0990 -0.1474 -0.3803
  494MOL0     N66572   1.525   3.290   4.619  0.3191 -0.2429 -0.2032
  494MOL0     C66573   1.406   3.358   4.609  0.4401  0.3159 -0.2408
  494MOL0     C66574   1.447   3.467   4.541 -0.6456 -0.1454 -0.3698
  494MOL0     C66575   1.365   3.585   4.532 -0.2370 -0.6309 -0.9271
  494MOL0     C66576   1.255   3.569   4.434 -0.7348  0.3266  0.3136
  494MOL0     C66577   1.313   3.548   4.285 -0.1326  0.0551 -0.6748
  494MOL0     C66578   1.325   3.397   4.254  0.5699  0.0459 -0.1515
  494MOL0     O66579   1.223   3.318   4.327  0.7152 -0.2416 -0.2056
  494MOL0     C66580   1.240   3.181   4.317 -0.1734  0.0297  0.2330
  494MOL0     C66581   1.319   3.109   4.224  0.9335  0.6629 -0.2112
  494MOL0     C66582   1.308   2.963   4.224 -0.4496  0.3903  0.2605
  494MOL0     C66583   1.392   2.893   4.125  0.5944 -0.1474  1.0043
  494MOL0     C66584   1.227   2.888   4.319  0.1492  0.0396 -0.1165
  494MOL0     C66585   1.216   2.745   4.316  0.6202 -1.0292 -0.9784
  494MOL0     O66586   1.249   2.689   4.431 -0.4116 -0.2538 -0.3944
  494MOL0     C66587   1.292   2.553   4.436 -0.2852 -1.4267  0.5454
  494MOL0     C66588   1.327   2.472   4.317 -0.3693  0.7990 -0.3953
  494MOL0     C66589   1.371   2.345   4.338 -0.7110  0.5002  0.5017
  494MOL0     C66590   1.377   2.288   4.462  1.1653 -0.7581 -0.1900
  494MOL0     O66591   1.426   2.164   4.489  0.0710  0.2844 -1.0150
  494MOL0     C66592   1.563   2.159   4.452 -0.4332 -0.1973  0.3284
  494MOL0     C66593   1.643   2.037   4.504 -0.0368 -0.1839 -0.5078
  494MOL0     C66594   1.565   1.905   4.501  0.4658 -0.6937  0.5867
  494MOL0     C66595   1.613   1.814   4.617 -0.4474 -0.0609 -0.8293
  494MOL0     C66596   1.515   1.687   4.614 -0.3674 -1.0144 -0.0502
  494MOL0     C66597   1.530   1.604   4.741 -0.0974 -0.2642 -0.6800
  494MOL0     C66598   1.435   1.486   4.760 -0.4975  0.0445  0.0125
  494MOL0     C66599   1.479   1.354   4.694 -0.6767  0.1013  0.2494
  494MOL0    Cl66600   1.624   1.271   4.764  0.3243 -0.2246  0.4577
  494MOL0     C66601   1.323   2.366   4.573  0.4377 -0.3945 -0.7983
  494MOL0     C66602   1.294   2.498   4.563  0.9441 -0.5257  0.8418
  494MOL0     O66603   1.198   2.701   4.204  1.2767  0.9792  0.6745
  494MOL0     C66604   1.148   2.969   4.401 -0.9814  0.2260  0.8267
  494MOL0     C66605   1.163   3.109   4.403  0.1604  0.8478  0.6153
  494MOL0     N66606   1.572   3.442   4.494 -0.2126 -1.0454  0.4019
  494MOL0     N66607   1.620   3.333   4.539  0.5625 -0.3112  0.9307
  494MOL0     C66608   2.047   2.249   4.513 -0.5231 -0.3193 -1.0002
  494MOL0     C66609   2.176   2.228   4.451 -0.2976 -0.6779  0.4448
  494MOL0     C66610   2.574   2.327   4.286  0.0766 -0.3152 -0.0953
  494MOL0     C66611   2.695   2.390   4.325 -0.0269  0.9386  0.7080
  494MOL0     C66612   2.808   2.375   4.247 -1.5200 -0.4270  0.1529
  494MOL0     C66613   2.811   2.288   4.140  0.4617 -0.8330  0.4364
  494MOL0     O66614   2.921   2.273   4.051  0.3145 -0.3833 -0.2268
  494MOL0     C66615   3.052   2.247   4.113  0.2162  0.2891  0.6010
  494MOL0     C66616   3.096   2.101   4.114 -0.4975 -0.1686 -0.0245
  494MOL0     C66617   3.014   2.025   4.214 -0.6830  0.7588  0.0540
  494MOL0     C66618   3.025   1.869   4.191 -0.6171 -0.0851  0.3222
  494MOL0     C66619   3.160   1.821   4.217 -0.0816 -0.4242  0.5883
  494MOL0     C66620   3.274   1.782   4.242 -0.2346 -0.3227  0.1154
  494MOL0     C66621   2.692   2.213   4.103 -0.3726  0.7483  0.0622
  494MOL0     C66622   2.574   2.237   4.173 -0.8649 -0.2625 -0.0965
  494MOL0     H66623   2.182   2.508   4.262 -0.0656 -1.1702 -1.6168
  494MOL0     H66624   1.957   2.534   4.379  2.2451  1.1827 -2.9136
  494MOL0     H66625   1.863   2.323   4.731 -0.7054  1.7728  1.6679
  494MOL0     H66626   1.919   2.490   4.707 -1.8909  4.6697 -2.9939
  494MOL0     H66627   1.623   2.402   4.710 -0.1972 -1.3817  2.3994
  494MOL0     H66628   1.707   2.501   4.821  0.5929  0.8890  0.1485
  494MOL0     H66629   1.770   2.669   4.647  0.6011 -0.0681 -1.6235
  494MOL0     H66630   1.679   2.572   4.525  1.6580 -1.5432 -0.4664
  494MOL0     H66631   1.471   2.607   4.681  0.0580 -0.5775 -0.8011
  494MOL0     H66632   1.561   2.690   4.796  0.5060  0.0922 -0.7667
  494MOL0     H66633   1.595   2.789   4.520 -2.0735 -0.2652 -1.0537
  494MOL0     H66634   1.433   2.805   4.584 -0.0613 -1.8284 -1.3601
  494MOL0     H66635   1.566   2.910   4.806 -2.6765 -1.8586  0.2242
  494MOL0     H66636   1.679   2.930   4.665 -1.4660 -0.5073 -0.4433
  494MOL0     H66637   1.550   3.053   4.536 -1.4755  1.0756 -1.0754
  494MOL0     H66638   1.403   3.023   4.646 -1.1421  0.5280 -1.8340
  494MOL0     H66639   1.647   3.174   4.758  1.5524 -0.5615 -3.0339
  494MOL0     H66640   1.476   3.183   4.788 -1.0650  1.4239 -1.4599
  494MOL0     H66641   1.311   3.345   4.659  0.6156 -1.2743 -0.2513
  494MOL0     H66642   1.321   3.589   4.632  1.2476 -0.8035 -0.2336
  494MOL0     H66643   1.423   3.674   4.505 -1.9884  1.2372  1.0408
  494MOL0     H66644   1.189   3.656   4.442 -2.2299 -0.9018  3.5243
  494MOL0     H66645   1.183   3.490   4.457  0.0663 -0.6768 -0.5554
  494MOL0     H66646   1.412   3.596   4.285 -0.6265  1.4955  3.7977
  494MOL0     H66647   1.241   3.588   4.214  0.1890 -0.5488 -1.3525
  494MOL0     H66648   1.430   3.368   4.270  0.6134 -1.2182 -2.3598
  494MOL0     H66649   1.316   3.385   4.146  2.1533 -2.7657 -0.0699
  494MOL0     H66650   1.389   3.158   4.158  1.9180  0.1570  0.4187
  494MOL0     H66651   1.422   2.790   4.147 -1.9400 -1.1706  0.0081
  494MOL0     H66652   1.333   2.895   4.033 -0.3005  1.5751  1.5701
  494MOL0     H66653   1.479   2.956   4.104 -1.3745  2.4694  0.2434
  494MOL0     H66654   1.326   2.505   4.214  1.0306 -0.1671 -0.7516
  494MOL0     H66655   1.413   2.280   4.261  3.3736  3.1339  0.1725
  494MOL0     H66656   1.575   2.152   4.344 -0.8851  2.5148  0.0202
  494MOL0     H66657   1.612   2.253   4.480  0.8040 -0.4554 -0.8380
  494MOL0     H66658   1.732   2.020   4.443  1.1219 -1.1881  1.3693
  494MOL0     H66659   1.666   2.068   4.607 -1.8506  1.3247 -0.5067
  494MOL0     H66660   1.571   1.849   4.408  0.3093 -1.1636  0.8555
  494MOL0     H66661   1.457   1.924   4.502  0.1429 -2.4024  0.4790
  494MOL0     H66662   1.714   1.780   4.595 -0.4623  0.2227 -1.3598
  494MOL0     H66663   1.613   1.858   4.717  1.7934 -0.2253 -0.7084
  494MOL0     H66664   1.546   1.629   4.526  2.3697  1.0957 -0.6221
  494MOL0     H66665   1.410   1.719   4.617  0.2135  1.1284  3.3906
  494MOL0     H66666   1.633   1.567   4.745 -1.1615 -3.4456  0.1886
  494MOL0     H66667   1.513   1.671   4.826 -0.1548 -2.1778  0.8920
  494MOL0     H66668   1.333   1.505   4.724 -0.8303 -3.7821 -1.6547
  494MOL0     H66669   1.444   1.465   4.867  0.1590 -0.0460 -0.0619
  494MOL0     H66670   1.512   1.388   4.596  1.5715 -0.0181  0.9209
  494MOL0     H66671   1.388   1.294   4.682 -0.5607 -0.4409  1.8534
  494MOL0     H66672   1.315   2.322   4.672 -1.0921 -0.0651 -0.7455
  494MOL0     H66673   1.256   2.556   4.647 -1.8012  0.5290 -0.9907
  494MOL0     H66674   1.088   2.922   4.479  0.3973 -1.5466  0.8939
  494MOL0     H66675   1.106   3.167   4.475  2.0792  0.8905  2.1619
  494MOL0     H66676   2.013   2.170   4.580 -0.1591  1.2528  1.1709
  494MOL0     H66677   2.235   2.141   4.478 -0.8237 -1.4271 -0.7310
  494MOL0     H66678   2.705   2.459   4.409  1.2637  0.8209  0.6719
  494MOL0     H66679   2.905   2.414   4.277 -0.2403 -2.4063 -1.2187
  494MOL0     H66680   3.127   2.299   4.053  1.2971 -0.6454  1.0925
  494MOL0     H66681   3.067   2.285   4.215  2.0618 -1.4887  1.0616
  494MOL0     H66682   3.201   2.109   4.145 -1.1377  2.5001  1.8448
  494MOL0     H66683   3.094   2.060   4.013  0.7326  0.6240 -0.3988
  494MOL0     H66684   2.912   2.052   4.185 -0.3371  0.6743 -1.3383
  494MOL0     H66685   3.044   2.059   4.313 -1.5623  2.9511 -0.3709
  494MOL0     H66686   2.997   1.842   4.089  1.9169 -2.1423  0.0789
  494MOL0     H66687   2.957   1.815   4.258  0.1166 -1.6365 -0.1495
  494MOL0     H66688   3.368   1.736   4.263 -0.0050  0.6812  1.3956
  494MOL0     H66689   2.679   2.149   4.017 -3.0080  2.1332 -0.6683
  494MOL0     H66690   2.484   2.187   4.141 -1.5625  0.8094  0.1375
  495MOL0     O66691  11.143   5.091   1.934 -0.6050 -0.4886 -0.4783
  495MOL0     C66692  11.028   5.104   1.897 -0.2423  0.5458  0.7441
  495MOL0     O66693  10.943   5.194   1.948  0.1785  0.4038 -1.0333
  495MOL0     C66694  10.986   5.271   2.060  0.3571 -0.3570 -0.1004
  495MOL0     C66695  11.043   5.402   2.041  0.3540  0.4291 -0.6998
  495MOL0     C66696  11.086   5.469   2.159 -0.2207  0.4731  0.3104
  495MOL0     C66697  11.076   5.413   2.285  0.5799  0.1884 -0.5926
  495MOL0     O66698  11.094   5.497   2.394  0.2695 -0.2500  1.0051
  495MOL0     C66699  11.127   5.442   2.517 -0.1228  0.1401 -0.8263
  495MOL0     C66700  11.183   5.549   2.614 -1.2560 -0.3275  0.6461
  495MOL0     C66701  11.208   5.491   2.750 -0.9264 -0.0574 -0.6064
  495MOL0     C66702  11.321   5.398   2.754 -0.1557 -0.2953  0.1663
  495MOL0     C66703  11.457   5.468   2.750 -0.4764 -0.1796 -0.0117
  495MOL0     C66704  11.568   5.369   2.769 -0.2973  1.0470 -0.4005
  495MOL0     C66705  11.710   5.436   2.766  0.1001 -0.3614  0.2583
  495MOL0     C66706  11.735   5.552   2.869  0.5408  0.0359 -1.0419
  495MOL0     N66707  11.722   5.500   3.012 -0.0325 -0.4314  0.3865
  495MOL0     C66708  11.819   5.459   3.093  0.0806 -0.2453  0.5344
  495MOL0     C66709  11.760   5.404   3.199  0.8586  0.0773  0.3206
  495MOL0     C66710  11.816   5.323   3.304 -0.2711  0.0626 -0.7385
  495MOL0     C66711  11.917   5.213   3.261  0.1343 -0.0228  1.7211
  495MOL0     C66712  12.021   5.161   3.370 -0.7993  0.0043  1.0126
  495MOL0     C66713  12.109   5.054   3.297  0.5270  0.7107  0.1068
  495MOL0     O66714  12.188   4.989   3.396 -0.0196  1.2097 -0.2030
  495MOL0     C66715  12.284   4.893   3.352  0.4819 -0.2821  0.1245
  495MOL0     C66716  12.368   4.848   3.443 -0.4271  0.4567  0.2446
  495MOL0     C66717  12.470   4.762   3.408  0.3196  0.4225  0.6398
  495MOL0     C66718  12.560   4.699   3.512  0.7850  0.3632 -0.6520
  495MOL0     C66719  12.464   4.708   3.271  0.6457  1.3614  0.6225
  495MOL0     C66720  12.562   4.597   3.231 -0.1436  0.3797  1.1571
  495MOL0     O66721  12.494   4.501   3.164 -1.1046 -0.4280 -0.1904
  495MOL0     C66722  12.567   4.394   3.129 -0.1233  0.5184  0.1907
  495MOL0     C66723  12.665   4.411   3.032 -0.0368  0.3383  0.8741
  495MOL0     C66724  12.731   4.290   2.983  0.5359  0.6693 -0.8561
  495MOL0     C66725  12.688   4.160   3.017 -0.6275  0.2473 -0.5688
  495MOL0     O66726  12.777   4.063   2.987  0.6616 -0.2090  0.3957
  495MOL0     C66727  12.750   3.938   3.036 -1.2699 -0.3227  0.4669
  495MOL0     C66728  12.845   3.828   2.979  0.3718  0.9061  0.1880
  495MOL0     C66729  12.816   3.760   2.838 -0.6336 -0.0608  0.2923
  495MOL0     C66730  12.706   3.654   2.840 -0.8536 -0.2090  0.5272
  495MOL0     C66731  12.644   3.624   2.702  0.3562 -0.9520  0.0139
  495MOL0     C66732  12.549   3.731   2.639 -0.4567 -0.3524 -0.7308
  495MOL0     C66733  12.518   3.701   2.495  0.3880 -0.4998 -0.2250
  495MOL0     C66734  12.449   3.561   2.481 -0.4071  0.8452 -0.0806
  495MOL0    Cl66735  12.343   3.570   2.344  0.1921 -0.3925 -0.2261
  495MOL0     C66736  12.588   4.153   3.113  1.3129 -0.0900  0.8684
  495MOL0     C66737  12.531   4.267   3.169 -0.3969  0.1251  0.1776
  495MOL0     O66738  12.684   4.595   3.270  0.0976 -0.6016  0.2343
  495MOL0     C66739  12.382   4.763   3.175  0.6027 -1.0513  0.9120
  495MOL0     C66740  12.284   4.851   3.217 -1.1862  0.3759 -1.2369
  495MOL0     N66741  11.620   5.421   3.188 -0.3296  1.1342  0.2136
  495MOL0     N66742  11.606   5.475   3.075 -0.2073  0.3910  0.2225
  495MOL0     C66743  11.014   5.283   2.302  0.0028  0.3761 -0.0459
  495MOL0     C66744  10.968   5.212   2.189  0.2649 -0.2315 -0.1320
  495MOL0     C66745  10.985   5.030   1.777  0.3295  0.2529  0.0795
  495MOL0     C66746  10.850   5.019   1.733 -0.5455 -0.3059 -1.1119
  495MOL0     C66747  10.814   4.956   1.617  0.3239  0.2424  0.1049
  495MOL0     C66748  10.907   4.887   1.542 -1.0726  0.8640 -0.5394
  495MOL0     O66749  10.896   4.805   1.429 -0.5208  0.9613 -0.2820
  495MOL0     C66750  10.768   4.749   1.402 -0.5744 -0.4559 -0.5030
  495MOL0     C66751  10.784   4.601   1.388  0.0734  0.0914  0.4628
  495MOL0     C66752  10.877   4.577   1.275 -0.3244 -0.3727 -0.0347
  495MOL0     C66753  10.855   4.443   1.192  0.9520 -0.1492 -0.4742
  495MOL0     C66754  10.975   4.419   1.115 -0.0143  0.2640  0.0343
  495MOL0     C66755  11.079   4.409   1.053 -0.1619  0.3800 -0.1766
  495MOL0     C66756  11.047   4.896   1.587 -0.8151  0.2107  0.7662
  495MOL0     C66757  11.083   4.970   1.697  0.2232  0.1637  1.0499
  495MOL0     H66758  11.067   5.444   1.944  0.8543  2.8501  0.3700
  495MOL0     H66759  11.121   5.571   2.143 -0.2067  1.0543  3.3896
  495MOL0     H66760  11.043   5.398   2.572 -0.8219  4.2571  1.8336
  495MOL0     H66761  11.199   5.361   2.500 -0.5234 -1.0419  2.5019
  495MOL0     H66762  11.276   5.592   2.576 -0.9173  0.4842  2.2824
  495MOL0     H66763  11.117   5.637   2.625  0.9646  1.3408  1.4422
  495MOL0     H66764  11.226   5.569   2.824  2.3243 -2.4020  1.3294
  495MOL0     H66765  11.118   5.440   2.786 -0.0201 -1.4588 -0.2171
  495MOL0     H66766  11.317   5.328   2.837 -1.5148 -2.7583 -1.8261
  495MOL0     H66767  11.312   5.325   2.672  1.4319  1.2222 -1.4686
  495MOL0     H66768  11.483   5.523   2.659  0.0703  1.6282  1.1761
  495MOL0     H66769  11.463   5.537   2.834 -0.5156  1.6941 -1.4660
  495MOL0     H66770  11.551   5.304   2.855  2.3111 -2.9927 -2.6276
  495MOL0     H66771  11.579   5.291   2.693  1.7416  1.8976 -1.0451
  495MOL0     H66772  11.783   5.358   2.792 -0.0808 -0.7371 -0.3383
  495MOL0     H66773  11.743   5.473   2.669  2.6862  2.9560  2.1745
  495MOL0     H66774  11.670   5.639   2.857  1.6834  1.7962  3.5321
  495MOL0     H66775  11.833   5.595   2.846  0.1700 -0.6833 -4.4620
  495MOL0     H66776  11.926   5.462   3.074 -0.2493  1.9532 -1.5297
  495MOL0     H66777  11.871   5.382   3.378  1.2432  0.3321 -2.0188
  495MOL0     H66778  11.736   5.266   3.351 -1.7499  1.4021 -1.5304
  495MOL0     H66779  11.973   5.247   3.174  0.5377 -2.3550  0.9975
  495MOL0     H66780  11.859   5.125   3.233  1.7833 -0.7732  0.5541
  495MOL0     H66781  11.982   5.123   3.465 -1.1078  2.5450  1.9604
  495MOL0     H66782  12.083   5.243   3.407  0.3679  0.4196 -1.6208
  495MOL0     H66783  12.169   5.110   3.225 -1.3635  1.2033 -1.1516
  495MOL0     H66784  12.047   4.980   3.246  0.8772 -1.7024  2.8994
  495MOL0     H66785  12.372   4.881   3.546  0.2820  1.2090 -0.0181
  495MOL0     H66786  12.666   4.724   3.504  1.4057 -2.2166 -1.7268
  495MOL0     H66787  12.531   4.726   3.613 -1.3103 -4.9069  0.5105
  495MOL0     H66788  12.546   4.591   3.501  1.3558  0.2129  0.0744
  495MOL0     H66789  12.686   4.508   2.989 -2.9542  0.6338 -0.1177
  495MOL0     H66790  12.815   4.293   2.914  0.9569  1.0417 -0.3390
  495MOL0     H66791  12.752   3.950   3.145 -2.7758 -0.0717  0.4870
  495MOL0     H66792  12.646   3.911   3.017 -0.4227 -1.6241 -3.0584
  495MOL0     H66793  12.949   3.860   2.993  0.5505 -0.9020  4.6257
  495MOL0     H66794  12.825   3.745   3.047 -0.5707  1.4058  0.5267
  495MOL0     H66795  12.904   3.719   2.787 -1.0969 -0.8473  0.0948
  495MOL0     H66796  12.775   3.837   2.772 -2.3534  0.3381  1.7288
  495MOL0     H66797  12.754   3.563   2.877 -0.2356 -0.7001 -1.4099
  495MOL0     H66798  12.626   3.685   2.909  0.8867  2.0367  1.6667
  495MOL0     H66799  12.595   3.526   2.699  0.6950 -1.1185 -2.8308
  495MOL0     H66800  12.728   3.605   2.635  0.7401 -3.2487  1.0387
  495MOL0     H66801  12.463   3.737   2.707  1.1618  6.0751  1.4372
  495MOL0     H66802  12.593   3.830   2.653  2.9344 -1.9554  1.0340
  495MOL0     H66803  12.598   3.699   2.419 -0.6194 -1.5412 -1.2913
  495MOL0     H66804  12.453   3.780   2.457 -1.2815 -3.2249 -3.5394
  495MOL0     H66805  12.385   3.531   2.565 -1.9128  0.9339 -1.1463
  495MOL0     H66806  12.523   3.482   2.464 -0.2215  0.9882  0.0595
  495MOL0     H66807  12.558   4.062   3.165 -0.2160 -0.2641 -0.2639
  495MOL0     H66808  12.460   4.247   3.249 -2.2107  0.1825 -1.3375
  495MOL0     H66809  12.385   4.735   3.071 -1.3114 -0.6377  0.7116
  495MOL0     H66810  12.209   4.890   3.150 -1.0599  1.6395 -0.6734
  495MOL0     H66811  10.983   5.247   2.400  3.1229 -0.6202  0.6992
  495MOL0     H66812  10.922   5.114   2.199 -1.7482  0.5857 -1.0293
  495MOL0     H66813  10.786   5.077   1.799  1.8664 -0.1413  1.2607
  495MOL0     H66814  10.710   4.949   1.586  0.6210 -1.0486 -0.6683
  495MOL0     H66815  10.695   4.763   1.482  1.8990  2.0938  1.5114
  495MOL0     H66816  10.736   4.797   1.309  0.2261  0.8120 -0.1526
  495MOL0     H66817  10.687   4.552   1.371  1.7596 -3.0060 -1.2234
  495MOL0     H66818  10.821   4.554   1.479  1.1373  1.2008  0.6250
  495MOL0     H66819  10.982   4.593   1.301  0.0758 -1.0666 -1.1574
  495MOL0     H66820  10.858   4.653   1.199 -0.3556 -1.2624 -0.9405
  495MOL0     H66821  10.764   4.451   1.132 -1.6291  0.4177  3.1853
  495MOL0     H66822  10.833   4.352   1.248  1.2554  1.1841  1.9487
  495MOL0     H66823  11.172   4.405   0.999  1.5584  0.8657  2.5597
  495MOL0     H66824  11.120   4.841   1.529 -1.7648  0.4888 -0.7497
  495MOL0     H66825  11.186   4.984   1.728  0.5900 -0.7960  0.3256
  496MOL0     O66826   4.881   2.004   7.518 -0.0675 -0.6464  0.0724
  496MOL0     C66827   4.866   1.884   7.522 -0.5500  0.1483  0.2706
  496MOL0     O66828   4.806   1.823   7.630 -0.5604  0.3205  0.0806
  496MOL0     C66829   4.800   1.900   7.742  0.6594 -0.4216 -0.1250
  496MOL0     C66830   4.671   1.944   7.787 -0.4189 -0.4350 -0.7806
  496MOL0     C66831   4.663   2.028   7.907  0.1701 -0.3528 -0.3935
  496MOL0     C66832   4.774   2.056   7.989  0.2097 -0.9048 -0.3164
  496MOL0     O66833   4.755   2.145   8.094 -0.6998  0.0119 -0.4171
  496MOL0     C66834   4.873   2.176   8.167  0.1413 -0.7913 -0.0691
  496MOL0     C66835   4.848   2.286   8.262 -0.8470 -0.1871 -0.3277
  496MOL0     C66836   4.767   2.241   8.386  0.0797 -0.8804  0.1940
  496MOL0     C66837   4.761   2.348   8.492 -0.8825 -1.5144  0.1394
  496MOL0     C66838   4.637   2.332   8.592 -0.2521 -0.4606 -0.0240
  496MOL0     C66839   4.505   2.368   8.523  0.7846 -0.8598 -0.2045
  496MOL0     C66840   4.395   2.388   8.631  0.5179 -0.4506  0.3135
  496MOL0     C66841   4.347   2.254   8.696 -0.3529  0.2822 -0.7377
  496MOL0     N66842   4.245   2.290   8.783  0.9750  0.2984  0.6171
  496MOL0     C66843   4.109   2.268   8.766 -0.3122  0.7470 -0.3375
  496MOL0     C66844   4.056   2.285   8.889  0.4674  0.1256 -0.5432
  496MOL0     C66845   3.908   2.273   8.913  0.0907  0.7008  0.0488
  496MOL0     C66846   3.831   2.379   8.829  0.1814  0.2107  0.8462
  496MOL0     C66847   3.680   2.360   8.830  0.4829 -0.4968 -0.1991
  496MOL0     C66848   3.613   2.414   8.960  0.2537  0.3110  0.3062
  496MOL0     O66849   3.475   2.401   8.934 -0.3728 -1.2341  1.3492
  496MOL0     C66850   3.384   2.356   9.027 -0.3109  0.6207 -0.0322
  496MOL0     C66851   3.410   2.355   9.171 -0.1558 -0.0567  1.0030
  496MOL0     C66852   3.314   2.302   9.265  0.1044  0.6315  0.1209
  496MOL0     C66853   3.322   2.333   9.412  0.0520  1.5860  0.0161
  496MOL0     C66854   3.209   2.232   9.217 -0.1217 -0.0730 -0.2251
  496MOL0     C66855   3.130   2.140   9.304 -0.1152 -0.7054  0.1008
  496MOL0     O66856   2.994   2.130   9.280  0.6104 -0.2625 -0.6374
  496MOL0     C66857   2.907   2.066   9.371  0.8598 -0.1847  0.5806
  496MOL0     C66858   2.932   2.034   9.508 -0.5638 -0.5721  0.2534
  496MOL0     C66859   2.827   1.967   9.584  0.1687 -0.4801  0.0896
  496MOL0     C66860   2.706   1.930   9.515  0.3160 -0.6435 -0.1526
  496MOL0     O66861   2.603   1.854   9.570  0.2247  0.1406 -0.5754
  496MOL0     C66862   2.526   1.928   9.661 -0.1429 -1.0121 -0.1491
  496MOL0     C66863   2.509   1.865   9.796 -0.6447 -0.1169 -0.4356
  496MOL0     C66864   2.632   1.848   9.891  0.3279 -0.4945 -0.1145
  496MOL0     C66865   2.680   1.982   9.956  0.2498  0.1756 -0.1250
  496MOL0     C66866   2.773   1.956  10.069  1.0908  0.1851  0.0832
  496MOL0     C66867   2.843   2.092  10.108 -0.0803 -0.2781  0.3031
  496MOL0     C66868   2.936   2.069  10.237 -0.1018 -0.7200  0.5466
  496MOL0     C66869   2.952   2.214  10.302  0.2441 -0.3116  0.2536
  496MOL0    Cl66870   2.976   2.348  10.188 -0.0626  0.8420  0.4467
  496MOL0     C66871   2.679   1.981   9.382 -0.0060  0.5066 -0.2035
  496MOL0     C66872   2.779   2.037   9.313  0.2605  1.1873  0.0439
  496MOL0     O66873   3.194   2.087   9.400 -0.2679  0.4654  0.2590
  496MOL0     C66874   3.184   2.224   9.079 -0.3248 -0.0606  0.7271
  496MOL0     C66875   3.265   2.292   8.984 -0.1625 -0.4697  0.5268
  496MOL0     N66876   4.155   2.339   8.969 -0.2108 -0.0146  0.4918
  496MOL0     N66877   4.273   2.333   8.905  0.5999  1.0503 -0.8625
  496MOL0     C66878   4.897   1.995   7.947  0.3339 -1.3615  0.4308
  496MOL0     C66879   4.904   1.919   7.828  0.4024  1.0679  0.2955
  496MOL0     C66880   4.875   1.807   7.400  0.6650 -0.1098 -0.3393
  496MOL0     C66881   4.921   1.870   7.284  0.1211 -0.8928 -0.3976
  496MOL0     C66882   4.917   1.810   7.162  0.6426 -0.2343 -0.9032
  496MOL0     C66883   4.873   1.675   7.148 -0.8597  0.1373 -0.0342
  496MOL0     O66884   4.879   1.614   7.027 -0.3330 -0.4682 -0.3915
  496MOL0     C66885   4.982   1.514   7.016  0.2385 -0.2382  0.3294
  496MOL0     C66886   5.123   1.571   7.039 -0.4547 -0.0442 -0.2559
  496MOL0     C66887   5.234   1.473   6.986  0.9872  0.0773 -0.4700
  496MOL0     C66888   5.216   1.330   7.015 -0.7953  0.3857  0.8538
  496MOL0     C66889   5.196   1.305   7.159 -0.7901  0.4540  0.3389
  496MOL0     C66890   5.182   1.276   7.280  0.2031 -0.5202 -0.4986
  496MOL0     C66891   4.821   1.609   7.262  0.1830 -0.0495  0.2062
  496MOL0     C66892   4.831   1.673   7.391  0.5578  0.5548  0.2645
  496MOL0     H66893   4.581   1.919   7.732  0.3324 -3.4172 -0.7981
  496MOL0     H66894   4.562   2.054   7.939  1.3891  0.9078  2.8634
  496MOL0     H66895   4.906   2.086   8.219  0.1376 -1.7642 -1.6807
  496MOL0     H66896   4.951   2.217   8.103 -0.4316 -0.5516 -0.6282
  496MOL0     H66897   4.949   2.315   8.292 -1.6924  2.4441  0.3355
  496MOL0     H66898   4.797   2.371   8.216  0.0150 -0.9778 -2.8874
  496MOL0     H66899   4.666   2.219   8.350 -0.0566 -3.3454  1.8494
  496MOL0     H66900   4.801   2.147   8.431 -1.4161 -0.8213  1.5417
  496MOL0     H66901   4.856   2.349   8.547  0.8976  2.9306 -2.4982
  496MOL0     H66902   4.762   2.444   8.440  0.0742 -0.7191  1.5667
  496MOL0     H66903   4.621   2.237   8.642  1.6888 -1.2732 -0.8362
  496MOL0     H66904   4.649   2.408   8.670  0.6843 -0.4688 -0.1438
  496MOL0     H66905   4.515   2.450   8.452  1.0715  0.6079  1.4637
  496MOL0     H66906   4.471   2.282   8.465  2.3407 -0.7024 -1.4220
  496MOL0     H66907   4.427   2.452   8.713 -0.8073  0.3776  0.2194
  496MOL0     H66908   4.304   2.427   8.585 -1.9399 -3.3889  2.2570
  496MOL0     H66909   4.434   2.216   8.750  1.2408  2.1778 -1.8069
  496MOL0     H66910   4.327   2.180   8.617  2.2928 -0.1700 -1.0779
  496MOL0     H66911   4.071   2.207   8.685 -0.9379  0.4349  0.1730
  496MOL0     H66912   3.892   2.165   8.904  0.1130  0.1141  4.6526
  496MOL0     H66913   3.892   2.292   9.019 -0.6403 -1.5473  0.4090
  496MOL0     H66914   3.854   2.366   8.723 -0.2855 -0.9603  0.8708
  496MOL0     H66915   3.863   2.480   8.855 -1.2748  0.0152  3.8214
  496MOL0     H66916   3.654   2.254   8.837  0.8774 -0.5010  2.1506
  496MOL0     H66917   3.638   2.422   8.751  4.3411  1.6055 -0.8612
  496MOL0     H66918   3.643   2.519   8.972  1.3590  0.3744 -2.3153
  496MOL0     H66919   3.637   2.363   9.054 -0.9761 -0.7442  0.0847
  496MOL0     H66920   3.495   2.406   9.214 -2.0089  2.3125  2.0923
  496MOL0     H66921   3.227   2.325   9.465  0.3885  1.5541  0.6182
  496MOL0     H66922   3.384   2.258   9.461 -4.9507 -1.4948  2.4626
  496MOL0     H66923   3.360   2.432   9.440  1.7313  0.4202  2.0831
  496MOL0     H66924   3.025   2.046   9.562  1.4314 -1.0396 -2.7779
  496MOL0     H66925   2.853   1.944   9.686 -1.8912 -0.2026  0.7199
  496MOL0     H66926   2.551   2.034   9.672  0.1897 -1.0696 -0.3261
  496MOL0     H66927   2.425   1.927   9.618 -1.3019 -0.5940  2.3870
  496MOL0     H66928   2.440   1.931   9.849  1.3916  2.9118 -1.2975
  496MOL0     H66929   2.463   1.766   9.784  1.5374 -1.5467  2.0599
  496MOL0     H66930   2.724   1.810   9.846  0.6789  1.6897 -1.3999
  496MOL0     H66931   2.598   1.787   9.975 -0.6561  0.4535  0.2044
  496MOL0     H66932   2.729   2.049   9.885 -2.7128 -0.0316 -2.5852
  496MOL0     H66933   2.592   2.040   9.986 -0.5387 -1.4534  0.8339
  496MOL0     H66934   2.840   1.873  10.045  1.7230  0.2517  1.5066
  496MOL0     H66935   2.716   1.930  10.159 -0.7306  4.0107  0.2080
  496MOL0     H66936   2.892   2.153  10.032 -2.4555  2.1512  0.5762
  496MOL0     H66937   2.762   2.158  10.138  0.8814  1.7243 -1.2245
  496MOL0     H66938   3.026   2.049  10.179 -0.9769 -1.1166 -0.7039
  496MOL0     H66939   2.912   1.998  10.316  0.4696  1.2706  2.6289
  496MOL0     H66940   3.043   2.210  10.361  1.6870  3.3097 -1.4309
  496MOL0     H66941   2.867   2.250  10.361 -1.3115  0.7854 -2.4191
  496MOL0     H66942   2.581   1.968   9.337 -0.6001  0.6786  0.9859
  496MOL0     H66943   2.754   2.074   9.215  0.8039 -1.1998 -1.0680
  496MOL0     H66944   3.091   2.182   9.042 -0.6740  1.3554 -0.0596
  496MOL0     H66945   3.234   2.294   8.880 -0.3880 -0.6732  0.5875
  496MOL0     H66946   4.980   1.991   8.017 -0.5863 -2.0091  1.5268
  496MOL0     H66947   4.991   1.862   7.797 -0.6323  1.3427 -3.6719
  496MOL0     H66948   4.954   1.974   7.285  0.6018 -1.0273 -1.0064
  496MOL0     H66949   4.931   1.870   7.073 -1.7337 -0.9729 -1.8589
  496MOL0     H66950   4.961   1.428   7.080 -1.2773 -0.8569 -0.9497
  496MOL0     H66951   4.980   1.490   6.909 -1.4297  0.3762  0.1920
  496MOL0     H66952   5.141   1.584   7.146 -0.5495 -2.3337  0.0796
  496MOL0     H66953   5.124   1.669   6.991  0.3075 -1.1168 -2.6056
  496MOL0     H66954   5.330   1.513   7.020 -0.6232  3.2601  0.7400
  496MOL0     H66955   5.244   1.488   6.878  0.9339 -0.7439 -0.5999
  496MOL0     H66956   5.292   1.261   6.977  0.3663  0.9953  1.9746
  496MOL0     H66957   5.130   1.296   6.957  0.5528 -1.7225 -0.0315
  496MOL0     H66958   5.155   1.243   7.378 -0.0924  1.2117  0.0467
  496MOL0     H66959   4.801   1.504   7.243 -0.5447  0.2054 -0.4778
  496MOL0     H66960   4.798   1.620   7.479 -2.0274 -1.9789 -2.0311
  497MOL0     O66961   1.439   0.882   1.292  0.1419  0.8127 -0.2522
  497MOL0     C66962   1.370   0.908   1.193  0.0346  1.0259 -0.3828
  497MOL0     O66963   1.397   1.002   1.107  0.5756  0.6691  0.3476
  497MOL0     C66964   1.515   1.076   1.120  0.0795  0.4467  0.2245
  497MOL0     C66965   1.640   1.032   1.167 -0.2033  0.1170  0.7943
  497MOL0     C66966   1.745   1.125   1.188  0.1782  0.3335 -0.3035
  497MOL0     C66967   1.724   1.260   1.171  0.0252 -0.3974 -0.8090
  497MOL0     O66968   1.833   1.342   1.188 -0.4701 -0.1097 -0.2686
  497MOL0     C66969   1.905   1.340   1.315 -0.3585 -0.6941 -0.3358
  497MOL0     C66970   1.907   1.480   1.385  0.0314  0.0220  0.2513
  497MOL0     C66971   1.970   1.591   1.298 -0.2312  0.2421  0.1071
  497MOL0     C66972   1.928   1.732   1.343  0.0314  0.4654  0.4426
  497MOL0     C66973   2.024   1.838   1.267  0.6254  0.3986  0.4063
  497MOL0     C66974   1.967   1.980   1.261  0.4283 -0.1729 -0.1322
  497MOL0     C66975   1.847   1.989   1.164  0.3766 -0.2787 -0.3223
  497MOL0     C66976   1.877   1.997   1.016  0.9703  0.1461 -0.2831
  497MOL0     N66977   1.755   2.016   0.938 -0.4421  0.4937 -0.4134
  497MOL0     C66978   1.658   1.922   0.921  0.3617 -0.0084  0.2441
  497MOL0     C66979   1.563   1.990   0.847 -0.9131  0.0205  0.1220
  497MOL0     C66980   1.436   1.927   0.793  0.2663 -0.3535 -0.2159
  497MOL0     C66981   1.336   2.024   0.730  0.6419 -0.6232 -0.5310
  497MOL0     C66982   1.208   1.962   0.669 -0.0650  0.0472  1.0838
  497MOL0     C66983   1.099   1.945   0.769  0.1704 -0.0681  0.5740
  497MOL0     O66984   0.985   1.894   0.694 -0.2781 -0.4716 -0.6453
  497MOL0     C66985   0.871   1.863   0.766  0.7982 -0.3608 -0.1998
  497MOL0     C66986   0.847   1.886   0.910 -0.1025  0.0779  0.4747
  497MOL0     C66987   0.729   1.858   0.973  0.2064 -0.3878 -0.5143
  497MOL0     C66988   0.704   1.883   1.116  0.5884  0.0637  0.0937
  497MOL0     C66989   0.629   1.803   0.895 -0.0428  0.0323  0.4126
  497MOL0     C66990   0.497   1.769   0.952 -0.2291 -0.9886 -0.8477
  497MOL0     O66991   0.403   1.862   0.947 -0.3870  0.1076  0.4099
  497MOL0     C66992   0.282   1.857   1.013 -0.1191  0.0178  0.7144
  497MOL0     C66993   0.190   1.960   0.977 -0.1716 -0.1475 -0.8005
  497MOL0     C66994   0.053   1.960   1.015 -0.1984  0.7297 -0.0700
  497MOL0     C66995   0.007   1.855   1.104  0.0906 -0.7007  0.4147
  497MOL0     O66996  -0.128   1.850   1.149 -0.4721  0.4252  0.1045
  497MOL0     C66997  -0.138   1.894   1.288 -0.4953 -0.0629  0.9919
  497MOL0     C66998  -0.260   1.986   1.316  0.2599 -0.0583  0.3050
  497MOL0     C66999  -0.385   1.921   1.258 -0.0967 -0.5887 -0.7679
  497MOL0     C67000  -0.513   1.954   1.335  0.3923 -0.0256  0.3733
  497MOL0     C67001  -0.616   1.844   1.303  0.2029 -0.4448  0.3486
  497MOL0     C67002  -0.761   1.864   1.358 -0.2350  0.0198  0.5835
  497MOL0     C67003  -0.817   1.993   1.290 -0.3763 -0.3928 -1.2315
  497MOL0     C67004  -0.970   2.002   1.298  0.2872  0.3295  0.4814
  497MOL0    Cl67005  -1.032   2.115   1.177 -0.0401 -0.0484 -0.1824
  497MOL0     C67006   0.101   1.755   1.155  0.1388 -0.1328  0.7632
  497MOL0     C67007   0.240   1.760   1.113 -0.4574  0.3859 -0.1373
  497MOL0     O67008   0.483   1.653   0.991  0.0522 -0.7553 -0.1395
  497MOL0     C67009   0.659   1.758   0.763 -0.4449  0.1278  0.1296
  497MOL0     C67010   0.780   1.791   0.702  0.5570 -1.1381  0.0818
  497MOL0     N67011   1.599   2.120   0.837  0.0616  0.6978 -0.6731
  497MOL0     N67012   1.724   2.140   0.889  0.1566  0.4477 -0.6299
  497MOL0     C67013   1.598   1.305   1.136 -0.2447 -0.3445  0.0680
  497MOL0     C67014   1.488   1.210   1.104  0.1691 -0.8235 -0.3144
  497MOL0     C67015   1.243   0.824   1.166  0.1901  0.0909  0.0961
  497MOL0     C67016   1.140   0.875   1.088  0.0981  1.1521  0.0018
  497MOL0     C67017   1.025   0.803   1.064  0.6281  0.7135 -1.0844
  497MOL0     C67018   1.012   0.667   1.104  0.5290 -0.3411  0.3813
  497MOL0     O67019   0.899   0.597   1.062 -0.0105 -0.1041 -0.8952
  497MOL0     C67020   0.846   0.491   1.136  0.9441  0.5184 -0.0982
  497MOL0     C67021   0.695   0.478   1.137  0.8792  0.4294 -0.1354
  497MOL0     C67022   0.630   0.487   1.005  0.7681  0.2346  0.0935
  497MOL0     C67023   0.688   0.410   0.886 -0.4584  0.4748 -1.4618
  497MOL0     C67024   0.692   0.273   0.924  0.8264  0.0010 -0.4347
  497MOL0     C67025   0.688   0.158   0.960  0.0047  0.1066  0.8686
  497MOL0     C67026   1.118   0.621   1.182 -0.2846 -0.1498  0.2338
  497MOL0     C67027   1.228   0.695   1.214 -0.6033  0.3014 -0.8286
  497MOL0     H67028   1.645   0.923   1.170  1.4744  0.2068  2.2139
  497MOL0     H67029   1.847   1.093   1.208 -0.3734  0.3205  3.0945
  497MOL0     H67030   1.876   1.260   1.384  0.0366 -0.4639  0.1005
  497MOL0     H67031   2.007   1.316   1.283 -1.2345  0.9193 -5.2698
  497MOL0     H67032   1.801   1.504   1.396  0.4357  1.9871  0.1714
  497MOL0     H67033   1.963   1.466   1.479 -3.2996  1.7766  2.6999
  497MOL0     H67034   2.077   1.605   1.316 -0.5529  3.9108 -0.0835
  497MOL0     H67035   1.952   1.567   1.193  0.0363 -1.5876  0.4469
  497MOL0     H67036   1.821   1.744   1.321 -0.0783  2.3727  1.7133
  497MOL0     H67037   1.926   1.754   1.450  1.0144  0.5103  0.4590
  497MOL0     H67038   2.123   1.832   1.312 -0.4799 -0.1278  2.9626
  497MOL0     H67039   2.047   1.810   1.164 -1.3767  4.5038 -1.4077
  497MOL0     H67040   1.934   2.009   1.362 -2.7086  2.5364 -1.7409
  497MOL0     H67041   2.046   2.048   1.228  2.8317 -1.9319  1.5632
  497MOL0     H67042   1.786   1.899   1.177  2.1660 -1.3345  1.2855
  497MOL0     H67043   1.785   2.073   1.197  0.1515 -0.0562 -1.2690
  497MOL0     H67044   1.925   1.900   1.003 -0.7017 -1.1757  2.4844
  497MOL0     H67045   1.937   2.082   0.981 -0.1150  0.3003 -1.8422
  497MOL0     H67046   1.646   1.827   0.971  3.2339 -1.3099 -1.2570
  497MOL0     H67047   1.456   1.848   0.720 -1.4441 -2.5603  1.5660
  497MOL0     H67048   1.398   1.874   0.881 -1.0520  1.0253  0.0826
  497MOL0     H67049   1.378   2.089   0.652 -0.8963 -0.0356 -0.8899
  497MOL0     H67050   1.320   2.097   0.809 -1.4831 -3.6054  2.0099
  497MOL0     H67051   1.225   1.866   0.619 -1.6317  1.6478 -2.9340
  497MOL0     H67052   1.168   2.037   0.600  1.8119 -0.5730 -0.8090
  497MOL0     H67053   1.068   2.038   0.819 -0.9697  0.2703 -0.6870
  497MOL0     H67054   1.139   1.874   0.841 -1.0260 -1.5425 -0.1702
  497MOL0     H67055   0.930   1.928   0.966  0.7099  1.8048 -1.8352
  497MOL0     H67056   0.659   1.795   1.162  0.3428 -0.6056 -1.3656
  497MOL0     H67057   0.794   1.918   1.168 -0.8065  4.1784  0.1004
  497MOL0     H67058   0.631   1.963   1.125 -1.9777 -2.0815 -0.5785
  497MOL0     H67059   0.220   2.026   0.896  3.8641 -3.5191 -2.4176
  497MOL0     H67060  -0.020   2.037   0.995 -0.1741  1.7745  3.3037
  497MOL0     H67061  -0.131   1.805   1.351 -0.8156 -2.0779 -1.6420
  497MOL0     H67062  -0.050   1.953   1.314  0.2852 -0.4682 -0.5911
  497MOL0     H67063  -0.262   2.001   1.425 -1.7871 -3.1873  0.8386
  497MOL0     H67064  -0.244   2.081   1.265 -0.0797 -0.0371  0.2333
  497MOL0     H67065  -0.369   1.813   1.265 -3.9897 -1.3251 -0.8329
  497MOL0     H67066  -0.397   1.944   1.152 -2.8171 -1.8530 -0.8209
  497MOL0     H67067  -0.500   1.957   1.443 -0.6310  0.6980  0.4931
  497MOL0     H67068  -0.546   2.052   1.299 -0.1884 -0.7596 -1.1943
  497MOL0     H67069  -0.573   1.752   1.345  2.3498 -0.0537 -0.8381
  497MOL0     H67070  -0.629   1.832   1.195  3.6208 -0.3888 -0.1632
  497MOL0     H67071  -0.828   1.782   1.329 -1.4690  1.0467  0.4334
  497MOL0     H67072  -0.774   1.856   1.466 -0.0372 -0.8235  0.5506
  497MOL0     H67073  -0.788   1.990   1.184 -0.4782 -1.3899 -1.2398
  497MOL0     H67074  -0.767   2.085   1.320  0.2801 -0.6134 -1.6319
  497MOL0     H67075  -1.006   2.023   1.399 -1.7484  0.2601 -0.1936
  497MOL0     H67076  -1.016   1.903   1.294  1.4589 -0.2163 -0.0107
  497MOL0     H67077   0.059   1.681   1.223  0.4839 -1.8153 -0.8058
  497MOL0     H67078   0.307   1.697   1.171  0.7992  1.1311 -0.7411
  497MOL0     H67079   0.586   1.697   0.712 -1.2648  0.5387  0.7777
  497MOL0     H67080   0.784   1.776   0.595 -1.2179 -1.9453  0.1037
  497MOL0     H67081   1.572   1.410   1.133 -1.0076 -0.5422 -0.4829
  497MOL0     H67082   1.387   1.240   1.076  1.0341  3.6484  0.5737
  497MOL0     H67083   1.141   0.976   1.046  2.2213  0.8289 -0.8231
  497MOL0     H67084   0.952   0.841   0.994  0.5361  1.4391 -0.6069
  497MOL0     H67085   0.895   0.402   1.097 -4.5083 -3.5676  1.0936
  497MOL0     H67086   0.883   0.498   1.239  2.2484  2.6893 -0.6621
  497MOL0     H67087   0.658   0.559   1.200  0.4065  1.1768 -1.3218
  497MOL0     H67088   0.659   0.387   1.183 -1.2969  0.7705 -1.0508
  497MOL0     H67089   0.625   0.592   0.977 -1.4738 -0.4308 -2.3903
  497MOL0     H67090   0.526   0.457   1.016  1.0293 -0.7634 -0.0047
  497MOL0     H67091   0.789   0.448   0.868 -1.0507  2.6909 -0.4519
  497MOL0     H67092   0.634   0.429   0.793 -0.5850 -0.3892 -1.5783
  497MOL0     H67093   0.686   0.053   0.981 -1.1204 -0.4883 -1.8149
  497MOL0     H67094   1.140   0.521   1.219  2.6378  0.4287  0.2860
  497MOL0     H67095   1.303   0.663   1.285  0.4817  1.6207 -1.3413
  498MOL0     O67096   6.328   7.390   8.272  0.2365 -0.1474  0.0244
  498MOL0     C67097   6.396   7.407   8.375  0.5090 -0.1165  0.5637
  498MOL0     O67098   6.363   7.355   8.497 -1.0854 -0.4464 -0.6158
  498MOL0     C67099   6.236   7.346   8.547 -1.6254  0.8781  0.5197
  498MOL0     C67100   6.236   7.354   8.687  0.3642  0.5867 -0.5899
  498MOL0     C67101   6.117   7.336   8.765 -0.8700 -0.0520 -0.7989
  498MOL0     C67102   5.993   7.334   8.699  0.3288  0.3405  0.4914
  498MOL0     O67103   5.861   7.331   8.755 -0.4381 -0.1876 -0.1428
  498MOL0     C67104   5.841   7.372   8.887  0.6975 -0.5793 -0.4007
  498MOL0     C67105   5.869   7.524   8.901  0.0659  1.2583 -0.7060
  498MOL0     C67106   5.788   7.585   9.016 -0.1607  0.7222 -0.5919
  498MOL0     C67107   5.835   7.533   9.151 -0.1052 -0.6815  0.0788
  498MOL0     C67108   5.721   7.572   9.260 -0.7037  0.2871  0.7293
  498MOL0     C67109   5.706   7.719   9.270  0.4856 -0.1098  0.1633
  498MOL0     C67110   5.686   7.775   9.408  0.5290 -0.1563 -0.5923
  498MOL0     C67111   5.681   7.936   9.422  0.6193  0.0712  0.4577
  498MOL0     N67112   5.807   7.997   9.377  0.1998 -0.6462  0.0723
  498MOL0     C67113   5.818   8.118   9.312  0.1851  0.3185 -0.7060
  498MOL0     C67114   5.945   8.146   9.298  0.3447 -0.0935 -0.5626
  498MOL0     C67115   5.996   8.267   9.222 -0.2783 -0.2736 -0.1385
  498MOL0     C67116   6.150   8.258   9.201  0.8505  0.7637  0.1143
  498MOL0     C67117   6.210   8.370   9.109 -0.3449 -1.0607 -0.2317
  498MOL0     C67118   6.352   8.422   9.150 -0.9623 -0.2298  0.9321
  498MOL0     O67119   6.395   8.524   9.052 -0.2737  0.3721  0.3508
  498MOL0     C67120   6.434   8.485   8.924  0.7774  0.3127 -0.3876
  498MOL0     C67121   6.437   8.349   8.878  0.0573  0.1600 -0.8710
  498MOL0     C67122   6.472   8.314   8.754 -0.3953 -0.7613  0.1907
  498MOL0     C67123   6.455   8.170   8.719  0.4036  0.6436 -0.5565
  498MOL0     C67124   6.510   8.423   8.668  0.1950  0.0339  0.2141
  498MOL0     C67125   6.562   8.395   8.535  0.9185 -0.5925 -0.1483
  498MOL0     O67126   6.675   8.469   8.497 -0.8673  0.5912  0.3567
  498MOL0     C67127   6.742   8.423   8.390 -0.8208 -0.2161  0.8975
  498MOL0     C67128   6.681   8.387   8.266  0.8213  0.5236  0.0279
  498MOL0     C67129   6.742   8.341   8.152  0.6257  0.2083 -0.4439
  498MOL0     C67130   6.878   8.315   8.162 -0.3188  0.3774 -1.0412
  498MOL0     O67131   6.951   8.261   8.057  0.2008 -0.4650 -0.6681
  498MOL0     C67132   6.944   8.303   7.925  0.1217 -0.4685 -0.0621
  498MOL0     C67133   7.068   8.239   7.869 -0.0646  0.3523  0.1040
  498MOL0     C67134   7.074   8.260   7.716  0.5685 -0.0381 -0.2831
  498MOL0     C67135   7.156   8.391   7.687 -0.2409 -0.5757  0.4483
  498MOL0     C67136   7.143   8.433   7.541 -0.4262  0.5433 -0.4350
  498MOL0     C67137   7.006   8.454   7.483 -0.9194  0.3011  0.5530
  498MOL0     C67138   6.914   8.539   7.570  0.2460 -0.4282 -0.4277
  498MOL0     C67139   6.786   8.591   7.494 -0.3173  0.2015 -0.9768
  498MOL0    Cl67140   6.681   8.451   7.454  0.4092  0.2586  0.2307
  498MOL0     C67141   6.950   8.343   8.284 -0.1047  0.8361  0.0251
  498MOL0     C67142   6.882   8.398   8.396 -0.2538  1.1688  0.7096
  498MOL0     O67143   6.501   8.310   8.472  0.3009 -0.6626  0.3105
  498MOL0     C67144   6.495   8.561   8.703 -0.6313  0.2510  1.2391
  498MOL0     C67145   6.466   8.596   8.834  0.0977  0.3027  0.5371
  498MOL0     N67146   6.020   8.039   9.349  0.0739 -0.2891 -0.0914
  498MOL0     N67147   5.936   7.944   9.394  0.1049  0.1725 -0.0394
  498MOL0     C67148   6.000   7.318   8.555  0.4815  0.2023  0.3488
  498MOL0     C67149   6.115   7.326   8.479 -0.3431 -0.4723 -0.0446
  498MOL0     C67150   6.514   7.489   8.354  0.4968 -0.4155 -1.3164
  498MOL0     C67151   6.628   7.459   8.421 -0.8249  0.6072  0.3400
  498MOL0     C67152   6.738   7.543   8.419  0.0604  0.0613 -0.1061
  498MOL0     C67153   6.739   7.662   8.340 -0.0732  1.1645 -0.7780
  498MOL0     O67154   6.858   7.732   8.344 -0.0781  0.9127  0.5462
  498MOL0     C67155   6.876   7.844   8.261 -0.0590 -0.4953  0.7065
  498MOL0     C67156   7.016   7.906   8.258 -0.8304  0.2133 -0.3477
  498MOL0     C67157   7.067   7.970   8.388  0.3601  0.2700  0.3120
  498MOL0     C67158   7.098   7.875   8.508  0.0480  0.2704  0.1412
  498MOL0     C67159   7.196   7.772   8.481  0.0470  0.2091  1.0682
  498MOL0     C67160   7.265   7.674   8.449 -0.1129  0.7125 -0.3691
  498MOL0     C67161   6.626   7.697   8.273 -0.4172  0.2779 -0.7617
  498MOL0     C67162   6.515   7.608   8.277 -0.0845 -0.5684  0.1260
  498MOL0     H67163   6.335   7.350   8.730  0.4328  0.8226 -0.7255
  498MOL0     H67164   6.115   7.334   8.874 -1.0177  0.3177 -0.7932
  498MOL0     H67165   5.738   7.358   8.919  1.2347 -2.4374  0.6782
  498MOL0     H67166   5.892   7.307   8.959 -1.8593 -0.0448  2.0773
  498MOL0     H67167   5.976   7.540   8.913  0.0851  0.7514 -0.1776
  498MOL0     H67168   5.843   7.564   8.802  0.4163  0.1677 -1.2595
  498MOL0     H67169   5.804   7.692   9.031  0.6663  0.5589 -0.2820
  498MOL0     H67170   5.684   7.557   8.997 -0.2044 -0.6238  1.3402
  498MOL0     H67171   5.841   7.424   9.142  0.3881 -0.6158 -0.4569
  498MOL0     H67172   5.935   7.575   9.163 -1.3038  2.7242 -0.8575
  498MOL0     H67173   5.626   7.532   9.223 -2.0156  5.1157 -1.9752
  498MOL0     H67174   5.757   7.540   9.359 -0.3497  2.4610  1.3487
  498MOL0     H67175   5.800   7.762   9.236  0.1192  0.5739 -0.0054
  498MOL0     H67176   5.630   7.764   9.205 -0.6151 -0.1453  1.3777
  498MOL0     H67177   5.598   7.728   9.453 -1.0563  1.7609 -1.5204
  498MOL0     H67178   5.768   7.742   9.472 -1.0078  0.6223  1.8905
  498MOL0     H67179   5.660   7.961   9.526 -0.4630 -2.3440  0.8920
  498MOL0     H67180   5.596   7.976   9.365  2.0427 -1.6179 -3.1213
  498MOL0     H67181   5.745   8.197   9.302  0.5978  0.7091 -0.6342
  498MOL0     H67182   5.950   8.261   9.123  3.5244 -0.3693 -2.1194
  498MOL0     H67183   5.973   8.354   9.285  1.8281 -0.6105  1.2121
  498MOL0     H67184   6.196   8.170   9.156  2.5831  0.8666  1.5523
  498MOL0     H67185   6.176   8.275   9.306 -1.8854  3.7938  0.4653
  498MOL0     H67186   6.140   8.453   9.120 -1.0622 -1.8520  1.6577
  498MOL0     H67187   6.213   8.336   9.006 -1.4689 -0.9478 -0.3202
  498MOL0     H67188   6.436   8.352   9.158  1.7541  2.8558  1.5246
  498MOL0     H67189   6.352   8.472   9.247  0.2806 -0.1092  0.8843
  498MOL0     H67190   6.418   8.265   8.945 -1.1235  0.8145 -0.3593
  498MOL0     H67191   6.360   8.170   8.664  0.9231  1.5691 -1.4873
  498MOL0     H67192   6.535   8.128   8.658  1.2389 -0.2859  1.1082
  498MOL0     H67193   6.457   8.099   8.802  1.4970 -1.3281 -2.1840
  498MOL0     H67194   6.573   8.384   8.261  0.9019 -2.1491 -3.4343
  498MOL0     H67195   6.681   8.313   8.067 -1.0152 -1.1601  1.1100
  498MOL0     H67196   6.855   8.272   7.870  0.5616 -1.2585 -0.3530
  498MOL0     H67197   6.964   8.411   7.926 -1.0012 -0.2457 -0.7878
  498MOL0     H67198   7.158   8.273   7.922 -0.6518 -2.5630  3.3234
  498MOL0     H67199   7.076   8.131   7.887 -1.6813  0.0577 -0.7654
  498MOL0     H67200   6.972   8.263   7.675  0.3793 -0.1416  0.1732
  498MOL0     H67201   7.125   8.176   7.669  2.2173 -0.5998  2.3198
  498MOL0     H67202   7.143   8.475   7.756  0.6782  0.5805 -0.7268
  498MOL0     H67203   7.260   8.367   7.710  0.6865 -1.3776 -3.8089
  498MOL0     H67204   7.182   8.354   7.478 -0.3349 -1.1635  1.6495
  498MOL0     H67205   7.209   8.519   7.530  0.7099 -0.6490 -4.1867
  498MOL0     H67206   7.026   8.520   7.398  4.1495 -2.0065 -0.4019
  498MOL0     H67207   6.955   8.364   7.446  0.3998  0.8975 -3.1748
  498MOL0     H67208   6.960   8.632   7.604 -0.0230 -0.5336  0.2298
  498MOL0     H67209   6.885   8.474   7.653  4.2729  0.8881  2.3101
  498MOL0     H67210   6.807   8.657   7.409  0.5108  3.2089  1.4108
  498MOL0     H67211   6.739   8.654   7.570  1.2241  0.5746 -0.2833
  498MOL0     H67212   7.053   8.308   8.281 -0.3229 -0.1403  2.0021
  498MOL0     H67213   6.936   8.398   8.490  0.1020 -1.1728  0.5626
  498MOL0     H67214   6.531   8.639   8.637  0.8970 -0.7548  0.8241
  498MOL0     H67215   6.468   8.701   8.863  0.2847  0.1314  1.1385
  498MOL0     H67216   5.906   7.326   8.502 -0.4317  0.7026  1.9869
  498MOL0     H67217   6.113   7.330   8.370 -0.3972 -0.1914 -0.0350
  498MOL0     H67218   6.634   7.364   8.473 -2.5524 -1.0901 -2.3195
  498MOL0     H67219   6.833   7.512   8.461  0.1989 -0.2534 -0.6448
  498MOL0     H67220   6.832   7.841   8.161  1.1707  0.1035  0.1288
  498MOL0     H67221   6.812   7.913   8.317  1.4109 -0.4141  2.3672
  498MOL0     H67222   7.018   7.979   8.177 -4.2309 -0.6747 -1.4062
  498MOL0     H67223   7.094   7.833   8.235  0.1470  0.6704  1.2980
  498MOL0     H67224   6.996   8.048   8.417 -0.3628 -1.2671  3.0378
  498MOL0     H67225   7.169   8.001   8.367  1.6955 -1.6796  3.2568
  498MOL0     H67226   7.005   7.830   8.544 -0.2104  2.4954  2.5374
  498MOL0     H67227   7.128   7.935   8.594 -0.3201  1.6198 -0.6400
  498MOL0     H67228   7.332   7.592   8.432  0.4972  1.4764 -1.9000
  498MOL0     H67229   6.626   7.785   8.209  1.2301  1.4992  0.8011
  498MOL0     H67230   6.429   7.645   8.221 -2.4018  0.4283  3.9504
  499MOL0     O67231   4.827   0.577   2.201  0.7528 -0.6612 -0.3827
  499MOL0     C67232   4.760   0.656   2.263  0.9093 -0.3090  0.3786
  499MOL0     O67233   4.808   0.780   2.309  0.2090 -0.0205  0.0412
  499MOL0     C67234   4.923   0.823   2.248  0.2865 -0.3608 -0.5259
  499MOL0     C67235   4.941   0.850   2.113 -0.9367 -0.3037 -1.2759
  499MOL0     C67236   5.037   0.930   2.061 -0.2175 -0.0730 -0.2756
  499MOL0     C67237   5.105   1.017   2.151 -0.0936 -0.9110 -0.3981
  499MOL0     O67238   5.177   1.123   2.096  1.3969  0.7783 -0.2120
  499MOL0     C67239   5.301   1.100   2.027 -0.4762  1.0953  0.1984
  499MOL0     C67240   5.396   1.219   2.038 -0.7284  0.1318 -0.1897
  499MOL0     C67241   5.451   1.233   2.178  0.2564 -0.3128  0.2785
  499MOL0     C67242   5.581   1.312   2.185  0.1850 -0.3268  0.2871
  499MOL0     C67243   5.651   1.304   2.320 -0.3565 -0.0425  0.7865
  499MOL0     C67244   5.768   1.405   2.348 -0.7973 -0.0519  0.4805
  499MOL0     C67245   5.818   1.400   2.494 -0.8855  0.3990  0.6135
  499MOL0     C67246   5.940   1.488   2.513 -0.5025  0.5680 -0.3744
  499MOL0     N67247   5.924   1.633   2.495  0.3920 -0.1945 -0.3352
  499MOL0     C67248   5.938   1.720   2.599  0.5538 -0.6766  0.0233
  499MOL0     C67249   5.939   1.842   2.549 -0.8287 -0.2724  0.8933
  499MOL0     C67250   5.975   1.971   2.633 -1.2155  0.4863 -0.2991
  499MOL0     C67251   5.901   2.088   2.569 -0.2978  0.2416 -0.9688
  499MOL0     C67252   5.909   2.223   2.640  0.5929  0.9571  0.6069
  499MOL0     C67253   6.033   2.231   2.729  0.1895  0.1558 -0.1208
  499MOL0     O67254   6.037   2.374   2.742 -0.5581 -0.4688 -0.7556
  499MOL0     C67255   6.128   2.434   2.824  0.7571 -0.9362 -0.1454
  499MOL0     C67256   6.239   2.366   2.872  0.5360 -0.0507 -0.7669
  499MOL0     C67257   6.319   2.418   2.973 -0.2154  0.1237  0.0236
  499MOL0     C67258   6.419   2.323   3.028 -0.0511  1.1009 -0.6009
  499MOL0     C67259   6.318   2.553   2.998  0.0875 -0.4736  0.2351
  499MOL0     C67260   6.409   2.636   3.093  0.1287 -0.1641  0.7160
  499MOL0     O67261   6.346   2.757   3.150 -0.1012  0.4761  0.5925
  499MOL0     C67262   6.421   2.827   3.238 -0.0959  0.6805 -0.6737
  499MOL0     C67263   6.352   2.869   3.350 -0.1237 -0.2034 -0.6147
  499MOL0     C67264   6.410   2.956   3.446 -0.5224  0.1459 -0.4299
  499MOL0     C67265   6.541   2.986   3.439  0.3627 -0.4696  0.9177
  499MOL0     O67266   6.590   3.080   3.528 -0.3782  0.3208  0.5172
  499MOL0     C67267   6.732   3.065   3.554 -0.6728 -0.6857  0.1636
  499MOL0     C67268   6.767   3.193   3.626 -0.8877 -0.2311 -0.8767
  499MOL0     C67269   6.712   3.193   3.765  0.5433 -0.4529  0.3564
  499MOL0     C67270   6.760   3.312   3.844 -0.0263 -0.4423 -0.0217
  499MOL0     C67271   6.699   3.319   3.987 -0.6591 -0.4590  0.2979
  499MOL0     C67272   6.545   3.336   3.992 -1.3675  0.0020 -0.5525
  499MOL0     C67273   6.500   3.343   4.136  0.3551  0.2225 -0.2230
  499MOL0     C67274   6.347   3.359   4.169  1.0607  1.0075 -0.1457
  499MOL0    Cl67275   6.264   3.200   4.157  0.6650  0.2004  0.1733
  499MOL0     C67276   6.613   2.947   3.318 -1.1432 -0.2865 -0.7335
  499MOL0     C67277   6.555   2.870   3.225 -0.1222  0.5998  0.5174
  499MOL0     O67278   6.519   2.596   3.116 -0.0390  0.8528 -0.0182
  499MOL0     C67279   6.215   2.628   2.928  0.6316 -0.5071  0.4010
  499MOL0     C67280   6.119   2.566   2.849  0.1677  0.8231  0.1386
  499MOL0     N67281   5.944   1.833   2.408 -0.4292 -0.3530 -1.7130
  499MOL0     N67282   5.934   1.704   2.386  0.4050 -0.2285 -0.6229
  499MOL0     C67283   5.092   0.999   2.290  0.0294  0.0551 -0.1337
  499MOL0     C67284   4.996   0.899   2.333 -0.5876  0.0682 -0.8537
  499MOL0     C67285   4.612   0.607   2.294  1.3392  0.3740  0.5893
  499MOL0     C67286   4.571   0.474   2.258  0.3702 -0.1961  0.8439
  499MOL0     C67287   4.449   0.422   2.291 -0.1877  0.5103 -1.3822
  499MOL0     C67288   4.354   0.503   2.354  0.5399 -0.5547  0.3532
  499MOL0     O67289   4.239   0.449   2.407 -0.1724 -0.0330 -0.1618
  499MOL0     C67290   4.243   0.429   2.544  0.7759  0.6576 -0.0089
  499MOL0     C67291   4.288   0.294   2.577  0.3506 -0.0100  0.3057
  499MOL0     C67292   4.303   0.289   2.728  0.1654  0.4965 -0.0889
  499MOL0     C67293   4.339   0.147   2.767 -0.5744 -0.1799 -0.2915
  499MOL0     C67294   4.363   0.138   2.912 -0.4603  0.5767  0.4132
  499MOL0     C67295   4.373   0.141   3.031  0.2885 -0.2082 -0.5494
  499MOL0     C67296   4.397   0.634   2.390 -0.6702 -0.2736  0.4318
  499MOL0     C67297   4.526   0.692   2.359  1.4089 -0.1543 -0.9215
  499MOL0     H67298   4.870   0.794   2.054  0.0950 -1.8193 -1.1289
  499MOL0     H67299   5.040   0.963   1.957 -0.9460  0.2881 -0.1864
  499MOL0     H67300   5.365   1.017   2.061  0.0714  0.7902 -1.4693
  499MOL0     H67301   5.278   1.076   1.922 -0.1218 -2.6358  0.8308
  499MOL0     H67302   5.486   1.211   1.976  0.1109 -1.5880  1.1497
  499MOL0     H67303   5.337   1.301   1.997  0.8769  1.1684 -0.5523
  499MOL0     H67304   5.371   1.283   2.234  0.2070  3.4091 -2.7280
  499MOL0     H67305   5.475   1.141   2.232  2.0912 -0.0872 -0.0970
  499MOL0     H67306   5.653   1.267   2.117  1.3511  1.5171  0.2300
  499MOL0     H67307   5.573   1.415   2.147  4.4193 -0.6629 -2.1964
  499MOL0     H67308   5.579   1.297   2.401 -1.4257 -0.2213 -0.1641
  499MOL0     H67309   5.704   1.208   2.316  0.8320  0.6194 -0.2631
  499MOL0     H67310   5.843   1.407   2.269 -0.1340  1.1360  1.1033
  499MOL0     H67311   5.726   1.505   2.330 -1.3564 -0.1982  0.9390
  499MOL0     H67312   5.732   1.432   2.553 -0.7639  5.0029 -1.3008
  499MOL0     H67313   5.853   1.297   2.510 -0.7918  0.5189  1.2444
  499MOL0     H67314   6.010   1.448   2.439 -0.0730 -2.6392  1.6058
  499MOL0     H67315   5.966   1.474   2.619 -0.5931  0.3084 -0.3862
  499MOL0     H67316   5.943   1.688   2.703  0.1695 -2.2067 -0.3997
  499MOL0     H67317   5.960   1.968   2.741  1.4457  3.7064  0.3367
  499MOL0     H67318   6.083   1.989   2.624 -0.9432 -0.1218  1.4789
  499MOL0     H67319   5.800   2.048   2.555 -0.0981 -1.3563  1.6422
  499MOL0     H67320   5.937   2.101   2.467  1.1010  0.3841 -0.4727
  499MOL0     H67321   5.821   2.242   2.703 -1.9165  4.7406 -3.4682
  499MOL0     H67322   5.911   2.306   2.569  0.6220  2.2522  2.0497
  499MOL0     H67323   6.120   2.192   2.676  1.0684 -0.9959  2.0895
  499MOL0     H67324   6.023   2.176   2.823  0.1960 -3.2613 -1.9554
  499MOL0     H67325   6.242   2.260   2.850 -4.2526 -0.3461 -0.9536
  499MOL0     H67326   6.417   2.327   3.137  1.9176  0.9272 -0.5380
  499MOL0     H67327   6.381   2.222   3.011 -0.3666  1.3265 -1.2639
  499MOL0     H67328   6.523   2.327   2.995 -0.2345 -4.3553 -2.8924
  499MOL0     H67329   6.248   2.840   3.364  0.3078 -0.8655  1.6735
  499MOL0     H67330   6.356   3.003   3.528 -1.5195 -1.8911  0.1541
  499MOL0     H67331   6.755   2.980   3.619  3.1854 -0.6161 -0.8485
  499MOL0     H67332   6.793   3.065   3.463 -0.7976  2.8378 -0.0320
  499MOL0     H67333   6.876   3.190   3.629 -0.9036 -0.9865 -0.9042
  499MOL0     H67334   6.732   3.275   3.562 -3.1923 -0.8174 -0.4554
  499MOL0     H67335   6.748   3.106   3.820  3.7141  0.6274  0.2382
  499MOL0     H67336   6.603   3.199   3.758  0.6403  1.3012 -0.0869
  499MOL0     H67337   6.868   3.314   3.854 -0.1942 -0.9910  2.5326
  499MOL0     H67338   6.727   3.409   3.805 -0.7590  0.5633  2.8460
  499MOL0     H67339   6.737   3.409   4.036 -0.6312 -0.8189  0.9437
  499MOL0     H67340   6.737   3.235   4.045  2.8019  0.7888  0.0952
  499MOL0     H67341   6.528   3.430   3.939  1.1794  0.7139 -0.2408
  499MOL0     H67342   6.494   3.252   3.944  0.6003 -0.9293 -1.0958
  499MOL0     H67343   6.550   3.427   4.187  0.6108 -0.6732  1.0485
  499MOL0     H67344   6.545   3.254   4.182  0.9023 -1.1690 -3.1963
  499MOL0     H67345   6.294   3.424   4.098  1.3025  0.9778 -0.3557
  499MOL0     H67346   6.344   3.395   4.272  0.4369  1.1835 -0.2247
  499MOL0     H67347   6.712   2.989   3.304 -1.5639  1.6864  1.5434
  499MOL0     H67348   6.599   2.837   3.132  1.6382  0.2123  1.4500
  499MOL0     H67349   6.225   2.736   2.942 -0.8456 -0.1492 -1.1051
  499MOL0     H67350   6.034   2.613   2.801 -1.2343 -2.5773 -1.0009
  499MOL0     H67351   5.137   1.061   2.367 -0.9908 -2.2829  2.5573
  499MOL0     H67352   4.979   0.894   2.440  1.2197 -0.2163 -0.5392
  499MOL0     H67353   4.637   0.419   2.192 -0.1759  0.5972 -0.4027
  499MOL0     H67354   4.418   0.322   2.261 -3.9590  1.8665 -2.5218
  499MOL0     H67355   4.313   0.496   2.595  2.7048 -0.9670 -0.3828
  499MOL0     H67356   4.140   0.448   2.576  0.0512  0.5865 -2.1364
  499MOL0     H67357   4.390   0.275   2.542  0.7477  1.2124  0.7387
  499MOL0     H67358   4.215   0.224   2.535 -1.8289  1.4059  1.5343
  499MOL0     H67359   4.206   0.320   2.769  0.1123 -0.1598  0.3143
  499MOL0     H67360   4.380   0.354   2.770  1.0488  1.9147 -3.5863
  499MOL0     H67361   4.427   0.108   2.717 -0.0497  1.0228 -0.3500
  499MOL0     H67362   4.265   0.074   2.735 -0.3618 -0.3374 -0.4212
  499MOL0     H67363   4.352   0.139   3.136  3.0270  0.7695  0.0887
  499MOL0     H67364   4.322   0.703   2.428  2.0802  1.7594  2.6193
  499MOL0     H67365   4.553   0.793   2.388  1.2209 -1.4144  4.7801
  500MOL0     O67366   1.505   4.738   6.614 -0.1773 -0.5879 -0.3803
  500MOL0     C67367   1.600   4.660   6.597  1.2173  0.2003 -0.7629
  500MOL0     O67368   1.689   4.636   6.486  0.5981 -0.0891 -0.0210
  500MOL0     C67369   1.702   4.740   6.403  0.3833 -0.4674  0.2170
  500MOL0     C67370   1.656   4.725   6.277  0.7403 -0.7466 -0.0876
  500MOL0     C67371   1.666   4.830   6.187  0.3514 -0.9218  0.2593
  500MOL0     C67372   1.730   4.944   6.211  0.7962  0.2468 -0.3053
  500MOL0     O67373   1.741   5.023   6.097  0.4101 -0.1234  1.2172
  500MOL0     C67374   1.810   5.147   6.116 -0.7661 -0.1958  0.3609
  500MOL0     C67375   1.795   5.232   5.995 -0.7832 -0.0857 -0.0150
  500MOL0     C67376   1.812   5.162   5.862  0.1868  0.7345 -0.3294
  500MOL0     C67377   1.814   5.253   5.744 -0.2030  0.2536  0.2079
  500MOL0     C67378   1.942   5.343   5.743  0.3685 -0.6088  0.5329
  500MOL0     C67379   1.933   5.435   5.616  0.5965 -0.2586  0.4818
  500MOL0     C67380   1.948   5.581   5.640  0.5696 -0.5729 -0.1058
  500MOL0     C67381   1.929   5.659   5.508  0.2085  0.0557  0.8642
  500MOL0     N67382   1.994   5.794   5.506  0.3520  0.8927 -0.1965
  500MOL0     C67383   1.933   5.907   5.545 -0.9260 -0.0953 -0.1192
  500MOL0     C67384   2.023   6.005   5.518  0.2371 -0.3097  0.5522
  500MOL0     C67385   1.991   6.153   5.516  0.3201 -0.0378  0.0768
  500MOL0     C67386   1.881   6.177   5.411 -0.2434 -0.1515 -0.7873
  500MOL0     C67387   1.831   6.319   5.433 -0.3555 -0.4439  0.5202
  500MOL0     C67388   1.756   6.379   5.318  0.5260 -0.0161  1.2666
  500MOL0     O67389   1.828   6.357   5.198 -0.5462  0.0696 -0.1918
  500MOL0     C67390   1.773   6.421   5.085 -0.4470 -0.1421 -0.6970
  500MOL0     C67391   1.854   6.412   4.970  0.2732 -0.1693  0.4102
  500MOL0     C67392   1.811   6.462   4.843  0.1087 -0.1090 -0.9914
  500MOL0     C67393   1.908   6.461   4.733  0.2129  1.1548 -0.0760
  500MOL0     C67394   1.677   6.524   4.833 -0.3866  0.1050 -0.4101
  500MOL0     C67395   1.629   6.589   4.710  0.6149  0.0475 -0.2736
  500MOL0     O67396   1.501   6.635   4.715 -0.1973 -0.0355  0.0826
  500MOL0     C67397   1.446   6.736   4.641 -0.4551 -0.3397 -0.2822
  500MOL0     C67398   1.310   6.734   4.627  0.4257  0.1763 -0.3557
  500MOL0     C67399   1.238   6.839   4.568 -0.5671 -0.9108  0.9016
  500MOL0     C67400   1.314   6.950   4.522  0.1407 -0.6758 -0.0955
  500MOL0     O67401   1.259   7.053   4.456  0.2457 -0.0304  0.5781
  500MOL0     C67402   1.204   7.015   4.334  0.2909  0.3398  0.0002
  500MOL0     C67403   1.095   7.112   4.291 -0.7190 -1.2132  1.4297
  500MOL0     C67404   0.963   7.111   4.362 -0.6206 -0.4957  1.3467
  500MOL0     C67405   0.877   7.230   4.348 -0.0323  0.0036 -0.5706
  500MOL0     C67406   0.753   7.238   4.432 -0.0718 -0.4205 -0.4901
  500MOL0     C67407   0.692   7.375   4.391 -0.2287 -0.7581 -0.2677
  500MOL0     C67408   0.561   7.393   4.455  0.2314  0.4566  0.3056
  500MOL0     C67409   0.449   7.379   4.347 -0.2478  0.2178 -0.8606
  500MOL0    Cl67410   0.454   7.234   4.247  0.6642 -0.6112 -0.2020
  500MOL0     C67411   1.454   6.948   4.535 -0.2000 -0.6713 -1.4015
  500MOL0     C67412   1.521   6.846   4.595 -0.2215 -0.4997 -0.1802
  500MOL0     O67413   1.699   6.605   4.613  0.0758  0.3440  1.0794
  500MOL0     C67414   1.607   6.537   4.952  0.7592 -0.9751 -0.9249
  500MOL0     C67415   1.645   6.482   5.078  0.7858  0.3160  0.0550
  500MOL0     N67416   2.124   5.959   5.443 -0.6553 -0.1360 -0.1491
  500MOL0     N67417   2.108   5.827   5.440 -0.0775  0.5905 -0.0259
  500MOL0     C67418   1.792   4.960   6.334  0.2764 -0.1635 -0.2528
  500MOL0     C67419   1.766   4.857   6.432 -0.5696  0.6244 -0.3036
  500MOL0     C67420   1.614   4.560   6.711  0.1634 -0.0881 -0.6788
  500MOL0     C67421   1.520   4.569   6.821 -0.5799  0.7803  0.3475
  500MOL0     C67422   1.535   4.492   6.942 -0.4311 -0.0618 -0.1831
  500MOL0     C67423   1.637   4.400   6.961  0.2604 -0.4720 -0.2971
  500MOL0     O67424   1.659   4.308   7.062  0.2715  0.0291  0.5037
  500MOL0     C67425   1.559   4.286   7.163  0.6369 -0.0975  1.2776
  500MOL0     C67426   1.620   4.187   7.273 -0.3813 -0.0725  0.2700
  500MOL0     C67427   1.657   4.040   7.223  0.2400 -0.1467  0.7407
  500MOL0     C67428   1.529   3.956   7.178  0.0112 -0.1578  0.4387
  500MOL0     C67429   1.574   3.816   7.140 -0.0547 -0.2537 -0.6958
  500MOL0     C67430   1.622   3.714   7.121 -0.9277 -0.2293  0.3900
  500MOL0     C67431   1.726   4.388   6.849 -0.8097 -0.9276  0.5362
  500MOL0     C67432   1.718   4.467   6.726  0.0296  0.0388 -0.1098
  500MOL0     H67433   1.630   4.624   6.246 -3.2751  0.4480 -1.1375
  500MOL0     H67434   1.616   4.809   6.093 -0.4978  2.3162 -0.1641
  500MOL0     H67435   1.764   5.187   6.206 -0.8826 -0.8083  0.5799
  500MOL0     H67436   1.914   5.122   6.139 -1.7432 -4.1013  1.2232
  500MOL0     H67437   1.695   5.275   6.005  0.2988  2.2417  1.6754
  500MOL0     H67438   1.863   5.317   6.002 -1.5519  0.4027  2.2903
  500MOL0     H67439   1.902   5.099   5.862 -0.2936  0.0148  0.6909
  500MOL0     H67440   1.726   5.094   5.854  1.7678 -1.8869  2.6425
  500MOL0     H67441   1.817   5.190   5.655 -1.2358  0.1174  0.2571
  500MOL0     H67442   1.723   5.313   5.734  0.8429  1.8114 -0.4204
  500MOL0     H67443   1.969   5.407   5.828  0.6025  3.3541 -2.2640
  500MOL0     H67444   2.021   5.270   5.726  0.3839 -0.6161  0.6393
  500MOL0     H67445   2.014   5.405   5.548  0.6714  1.8702 -0.4420
  500MOL0     H67446   1.840   5.422   5.560  0.2880  4.2381 -0.3882
  500MOL0     H67447   1.863   5.618   5.698 -1.2154  1.3692 -3.6769
  500MOL0     H67448   2.042   5.600   5.694 -0.3740 -0.2476  1.4941
  500MOL0     H67449   1.822   5.668   5.487 -0.2183  1.7506  3.2854
  500MOL0     H67450   1.984   5.611   5.428  0.3352  0.7328  0.5398
  500MOL0     H67451   1.831   5.919   5.580 -0.2951  1.5725  1.3537
  500MOL0     H67452   1.964   6.192   5.614  3.9073  2.2613  0.3483
  500MOL0     H67453   2.079   6.210   5.485 -0.9316  0.5394 -2.7622
  500MOL0     H67454   1.794   6.112   5.421 -1.2939  1.0720 -1.6109
  500MOL0     H67455   1.919   6.155   5.311 -0.6985 -2.1087 -0.5716
  500MOL0     H67456   1.911   6.392   5.449  1.1075 -1.6151 -1.0665
  500MOL0     H67457   1.778   6.326   5.529  0.1286  2.1213  0.6881
  500MOL0     H67458   1.729   6.482   5.342  0.2013  0.5514 -1.2753
  500MOL0     H67459   1.664   6.321   5.309 -1.2510  2.8424 -0.6063
  500MOL0     H67460   1.950   6.362   4.983 -0.8171 -1.7334  3.5718
  500MOL0     H67461   1.914   6.559   4.685 -0.9477  1.2224 -0.1136
  500MOL0     H67462   1.999   6.433   4.786 -0.3483 -0.2786  0.1749
  500MOL0     H67463   1.878   6.385   4.660  1.7855 -0.0606  0.4952
  500MOL0     H67464   1.254   6.656   4.677 -2.1706  3.3373  2.0880
  500MOL0     H67465   1.131   6.847   4.585 -0.4363  1.9657  0.9115
  500MOL0     H67466   1.292   7.003   4.270 -0.3130  1.7401 -1.1658
  500MOL0     H67467   1.157   6.917   4.349 -0.3913  0.8195  1.0894
  500MOL0     H67468   1.150   7.204   4.315 -0.4893 -1.8847  3.7122
  500MOL0     H67469   1.085   7.119   4.183  2.8614  1.8289  1.0860
  500MOL0     H67470   0.973   7.088   4.469  1.6320  1.3138  1.5972
  500MOL0     H67471   0.903   7.035   4.311 -0.9516 -0.5061  1.7490
  500MOL0     H67472   0.942   7.306   4.393  0.5410 -0.5491 -0.4445
  500MOL0     H67473   0.859   7.246   4.242  0.9703  3.3791 -0.3536
  500MOL0     H67474   0.779   7.238   4.538 -4.3570 -0.5445  0.7693
  500MOL0     H67475   0.691   7.149   4.416  1.6166 -1.9652  1.1819
  500MOL0     H67476   0.759   7.458   4.415  1.3722 -2.9411  3.6856
  500MOL0     H67477   0.687   7.374   4.281  3.6346 -0.1859 -0.6177
  500MOL0     H67478   0.560   7.493   4.500  2.4576  0.8918 -0.4857
  500MOL0     H67479   0.537   7.335   4.545  1.0826  2.5001  1.9211
  500MOL0     H67480   0.447   7.470   4.287 -1.2145  2.1605  1.9159
  500MOL0     H67481   0.356   7.383   4.405  1.4511 -0.7511  2.1847
  500MOL0     H67482   1.501   7.044   4.515 -1.2653 -0.4741 -3.1155
  500MOL0     H67483   1.627   6.859   4.611  0.3046 -1.7436 -2.2733
  500MOL0     H67484   1.515   6.595   4.950  1.3521  0.0206 -0.3929
  500MOL0     H67485   1.578   6.485   5.163  0.6416  1.2164 -0.0836
  500MOL0     H67486   1.850   5.045   6.367  2.4118 -1.0718 -1.4816
  500MOL0     H67487   1.791   4.869   6.537  1.4628 -1.6779 -0.4411
  500MOL0     H67488   1.436   4.633   6.797 -0.3150  1.1363  0.3476
  500MOL0     H67489   1.460   4.491   7.020  1.5985  1.1305  1.9170
  500MOL0     H67490   1.542   4.383   7.210  0.3221 -0.7608  2.5524
  500MOL0     H67491   1.473   4.242   7.112  0.1036 -0.4574  2.4711
  500MOL0     H67492   1.557   4.187   7.363  0.7232  1.9858  1.1107
  500MOL0     H67493   1.704   4.240   7.318 -1.2786  0.4991  1.3412
  500MOL0     H67494   1.695   3.982   7.308 -0.7040 -0.6296  0.8513
  500MOL0     H67495   1.740   4.046   7.152  0.2789  0.3088  0.8185
  500MOL0     H67496   1.487   4.006   7.090 -2.5127 -1.1088  1.0189
  500MOL0     H67497   1.457   3.940   7.259  2.0850 -2.4688  1.9815
  500MOL0     H67498   1.670   3.623   7.094 -2.6039 -0.8373 -0.6606
  500MOL0     H67499   1.804   4.313   6.856  1.5933  1.5368  2.3308
  500MOL0     H67500   1.783   4.481   6.639 -0.3498 -0.1907 -0.4315
  501MOL0     O67501   9.940   7.771   8.120  0.3994 -0.2521 -1.0177
  501MOL0     C67502  10.061   7.751   8.129 -0.3841  0.4332 -1.0388
  501MOL0     O67503  10.129   7.640   8.080  0.5110  0.3855 -0.4492
  501MOL0     C67504  10.048   7.528   8.045  0.0805  0.2466  0.4052
  501MOL0     C67505  10.030   7.411   8.129 -0.1821  0.4395 -0.2704
  501MOL0     C67506   9.943   7.312   8.085  0.3694  0.2468  0.3080
  501MOL0     C67507   9.864   7.325   7.970  0.8019 -0.3975 -0.0585
  501MOL0     O67508   9.757   7.233   7.952 -0.3776  0.1717 -0.0213
  501MOL0     C67509   9.714   7.201   7.819  0.5099 -1.3667 -0.9666
  501MOL0     C67510   9.818   7.142   7.726  0.3105 -1.0924  1.2618
  501MOL0     C67511   9.765   7.100   7.585 -0.0553 -0.4970 -0.4578
  501MOL0     C67512   9.656   6.992   7.593 -0.4184  0.3979  0.1533
  501MOL0     C67513   9.598   6.971   7.452  0.1643  0.1872 -0.0911
  501MOL0     C67514   9.685   6.919   7.344 -0.1620  0.2162  0.5524
  501MOL0     C67515   9.605   6.892   7.212  0.6918  0.1857 -0.3445
  501MOL0     C67516   9.656   6.764   7.154  0.4878  0.3971 -0.4741
  501MOL0     N67517   9.557   6.702   7.064 -0.7887 -0.3801 -0.8638
  501MOL0     C67518   9.518   6.760   6.955 -0.3524  0.3611  0.7517
  501MOL0     C67519   9.424   6.676   6.898 -1.0550  0.9726 -0.6446
  501MOL0     C67520   9.347   6.687   6.771 -0.2218 -0.5880 -0.2727
  501MOL0     C67521   9.349   6.823   6.696  0.0948 -1.2466 -0.1058
  501MOL0     C67522   9.477   6.844   6.612  0.7466 -0.3804  0.8813
  501MOL0     C67523   9.451   6.968   6.522  0.1532 -0.4100  0.2951
  501MOL0     O67524   9.413   7.083   6.598  0.0214 -0.1949  0.3559
  501MOL0     C67525   9.358   7.187   6.527 -0.4319  0.0384  0.1730
  501MOL0     C67526   9.442   7.264   6.453 -0.7016 -0.8568  0.6930
  501MOL0     C67527   9.391   7.362   6.371  0.3199  0.9637 -0.2718
  501MOL0     C67528   9.494   7.436   6.298  0.0750 -0.1197 -0.3291
  501MOL0     C67529   9.256   7.390   6.364  0.8601  0.8393  0.8973
  501MOL0     C67530   9.194   7.508   6.295  0.4857  1.2666  0.1908
  501MOL0     O67531   9.270   7.618   6.288 -0.8130  1.2777  0.4178
  501MOL0     C67532   9.239   7.729   6.213 -0.4262  0.0333  0.6788
  501MOL0     C67533   9.348   7.810   6.169  0.0947 -0.2695 -0.7914
  501MOL0     C67534   9.326   7.917   6.083 -1.3928 -0.1954 -0.5904
  501MOL0     C67535   9.204   7.947   6.037  0.3323  0.2047 -0.1722
  501MOL0     O67536   9.182   8.041   5.943  0.2416 -0.0727  0.6828
  501MOL0     C67537   9.275   8.146   5.917 -0.0567 -0.1287  1.0224
  501MOL0     C67538   9.230   8.221   5.795 -0.7832 -0.0388 -0.2855
  501MOL0     C67539   9.095   8.284   5.816  0.4262 -0.3348 -0.4923
  501MOL0     C67540   9.066   8.394   5.713 -0.0874 -0.2403 -0.5962
  501MOL0     C67541   9.108   8.538   5.762 -0.9400 -0.0460 -0.3151
  501MOL0     C67542   9.129   8.624   5.636  0.3057 -1.1631  1.0560
  501MOL0     C67543   9.211   8.750   5.660 -0.6172 -0.2772 -0.3618
  501MOL0     C67544   9.195   8.840   5.538 -0.8495 -0.1953 -0.5187
  501MOL0    Cl67545   9.052   8.927   5.539  0.7576  0.3847  0.3870
  501MOL0     C67546   9.089   7.872   6.075 -0.3907 -0.3433  0.3928
  501MOL0     C67547   9.107   7.774   6.172  0.6154 -0.0748 -0.2089
  501MOL0     O67548   9.086   7.492   6.244  0.0850 -0.2086 -1.0649
  501MOL0     C67549   9.171   7.300   6.434  1.4474 -0.2258  0.6551
  501MOL0     C67550   9.223   7.200   6.516  0.3959 -0.2673 -0.2910
  501MOL0     N67551   9.415   6.566   6.981 -0.2200  1.0656 -0.6338
  501MOL0     N67552   9.496   6.579   7.081  0.1649  0.4671  0.5800
  501MOL0     C67553   9.883   7.432   7.890 -0.2539 -0.4097  0.6374
  501MOL0     C67554   9.971   7.533   7.926 -0.6434  0.2003 -0.9932
  501MOL0     C67555  10.144   7.859   8.207 -0.1151  0.6666 -0.1503
  501MOL0     C67556  10.286   7.851   8.182  0.0452 -0.4120  0.2735
  501MOL0     C67557  10.373   7.934   8.257  0.3124 -0.9248 -0.3171
  501MOL0     C67558  10.326   8.047   8.323 -0.2485  0.4335 -0.3701
  501MOL0     O67559  10.424   8.128   8.368  0.0717 -0.5300 -1.2507
  501MOL0     C67560  10.384   8.257   8.423  1.0063 -0.2577  0.4873
  501MOL0     C67561  10.497   8.362   8.443 -0.1496  0.5520  0.6939
  501MOL0     C67562  10.532   8.437   8.315 -0.8361  0.6238  0.1529
  501MOL0     C67563  10.624   8.353   8.230  1.0352  1.3162  0.1402
  501MOL0     C67564  10.760   8.371   8.275  0.9663 -0.0295  0.1801
  501MOL0     C67565  10.876   8.386   8.295 -0.6702 -0.1903 -0.1815
  501MOL0     C67566  10.182   8.054   8.343 -0.2274  0.3299 -0.2576
  501MOL0     C67567  10.093   7.961   8.285  0.9469  0.1473 -0.9524
  501MOL0     H67568  10.075   7.404   8.228 -2.2123 -1.3288  0.6225
  501MOL0     H67569   9.911   7.234   8.152 -0.6239  1.0198  0.7580
  501MOL0     H67570   9.637   7.126   7.835 -0.0553 -0.2709  2.1114
  501MOL0     H67571   9.672   7.296   7.784  0.1552 -0.9654  0.4795
  501MOL0     H67572   9.913   7.195   7.716 -0.3459 -0.1553 -0.2261
  501MOL0     H67573   9.832   7.048   7.782 -2.0783 -1.3643  1.5133
  501MOL0     H67574   9.711   7.190   7.554 -0.7412  0.7614  3.6950
  501MOL0     H67575   9.848   7.079   7.518 -1.1374  1.0625 -2.4119
  501MOL0     H67576   9.707   6.901   7.626  1.7858  1.1779 -0.8440
  501MOL0     H67577   9.566   7.014   7.650 -1.1541  0.6040 -1.0624
  501MOL0     H67578   9.500   6.924   7.448  0.6603 -0.7897 -2.3430
  501MOL0     H67579   9.582   7.075   7.422  1.6036 -0.2480 -2.6258
  501MOL0     H67580   9.764   6.992   7.323 -1.9681  1.5797 -2.1573
  501MOL0     H67581   9.729   6.829   7.386  0.6677  0.8800  1.1504
  501MOL0     H67582   9.498   6.885   7.232  0.1669  3.5154 -1.2799
  501MOL0     H67583   9.604   6.968   7.133 -2.2380  1.4320  0.7416
  501MOL0     H67584   9.674   6.685   7.227 -1.2514 -0.6867 -1.1583
  501MOL0     H67585   9.753   6.784   7.108  1.4136 -1.9848  0.3315
  501MOL0     H67586   9.538   6.854   6.905  0.4927 -0.1641  0.0878
  501MOL0     H67587   9.391   6.616   6.701 -0.9392  0.0918 -1.4458
  501MOL0     H67588   9.246   6.655   6.797 -0.6430 -1.2996 -2.5720
  501MOL0     H67589   9.354   6.906   6.767 -0.9515  1.1428 -2.6493
  501MOL0     H67590   9.269   6.837   6.623  1.0348  0.3074 -0.8785
  501MOL0     H67591   9.491   6.757   6.546 -0.8175  0.1556 -0.2227
  501MOL0     H67592   9.565   6.863   6.674  1.2417 -0.6287  0.2717
  501MOL0     H67593   9.378   6.940   6.446  3.0036 -3.5575 -1.5547
  501MOL0     H67594   9.543   6.989   6.467 -0.4908 -2.9398 -1.9491
  501MOL0     H67595   9.546   7.236   6.435  0.1604  0.1200  3.5582
  501MOL0     H67596   9.542   7.510   6.363  1.0764 -2.0094  1.1826
  501MOL0     H67597   9.570   7.366   6.263 -2.4013 -3.2383  0.1118
  501MOL0     H67598   9.455   7.482   6.207  0.6917 -2.7671 -2.0434
  501MOL0     H67599   9.452   7.792   6.197  1.3873  2.0587 -3.6076
  501MOL0     H67600   9.410   7.972   6.041 -0.8262 -0.1469  0.5757
  501MOL0     H67601   9.293   8.202   6.009  1.7113  0.7620  0.1886
  501MOL0     H67602   9.375   8.122   5.878 -0.6123  3.6174 -3.7025
  501MOL0     H67603   9.295   8.302   5.761 -1.5140  0.5808 -0.2333
  501MOL0     H67604   9.231   8.149   5.713  2.7587 -2.9407  1.9335
  501MOL0     H67605   9.084   8.314   5.921  0.0593  0.9381 -0.8727
  501MOL0     H67606   9.019   8.209   5.796  2.9315 -2.7969 -1.4369
  501MOL0     H67607   9.136   8.373   5.632  0.3306  0.1543 -0.3395
  501MOL0     H67608   8.962   8.397   5.679 -0.6001  1.8566  0.9849
  501MOL0     H67609   9.202   8.541   5.817 -1.2733  0.7750  0.2294
  501MOL0     H67610   9.030   8.583   5.824 -0.1757  1.5846 -0.4747
  501MOL0     H67611   9.190   8.573   5.560 -2.6470 -0.3552 -2.0920
  501MOL0     H67612   9.031   8.644   5.592 -0.0870 -1.3447  1.8313
  501MOL0     H67613   9.316   8.719   5.656 -0.4868 -0.1617  1.3776
  501MOL0     H67614   9.190   8.789   5.760 -0.0676 -1.7307  0.3433
  501MOL0     H67615   9.183   8.786   5.444 -2.6579  1.1154 -1.1075
  501MOL0     H67616   9.287   8.900   5.539 -1.0893  0.3510  3.2114
  501MOL0     H67617   8.994   7.902   6.033 -0.6961  2.6581  2.9214
  501MOL0     H67618   9.012   7.748   6.217  1.4263 -0.6639  1.2569
  501MOL0     H67619   9.064   7.319   6.442  1.9598  3.4290  0.5834
  501MOL0     H67620   9.158   7.135   6.573  0.2510 -0.6382 -0.8698
  501MOL0     H67621   9.831   7.446   7.796  0.9535 -3.3600 -0.6127
  501MOL0     H67622   9.977   7.617   7.858 -1.6074 -1.0263 -2.6623
  501MOL0     H67623  10.331   7.771   8.124  3.3638  1.4521  0.0603
  501MOL0     H67624  10.479   7.910   8.246  0.9940  0.8234  1.8705
  501MOL0     H67625  10.324   8.308   8.346 -1.0002 -0.5638  1.7725
  501MOL0     H67626  10.331   8.256   8.519  1.9041  0.0870  1.0011
  501MOL0     H67627  10.579   8.297   8.475 -0.6381 -0.2279  0.3852
  501MOL0     H67628  10.466   8.437   8.517 -0.4608 -0.0662  1.2045
  501MOL0     H67629  10.562   8.536   8.348 -4.0679  1.9796 -0.5559
  501MOL0     H67630  10.444   8.445   8.250 -2.3568 -1.6942  1.7658
  501MOL0     H67631  10.625   8.390   8.127  3.5590 -2.9538 -1.6512
  501MOL0     H67632  10.596   8.248   8.230  1.3220  1.2066  1.7675
  501MOL0     H67633  10.983   8.390   8.302 -0.6827  0.6544 -0.3766
  501MOL0     H67634  10.141   8.132   8.406 -0.3404 -1.6284  2.2588
  501MOL0     H67635   9.990   7.965   8.318  1.5518  2.4071  0.9913
  502MOL0     O67636   9.760   2.079   0.655 -0.4605  0.6232  0.3733
  502MOL0     C67637   9.772   2.118   0.539  0.3687  0.1971 -0.1171
  502MOL0     O67638   9.893   2.110   0.467  0.4928 -0.1506  0.1906
  502MOL0     C67639  10.015   2.069   0.524 -0.1226 -0.3737  0.6216
  502MOL0     C67640  10.048   2.111   0.650  0.3781 -0.5186  0.7349
  502MOL0     C67641  10.178   2.085   0.709 -0.3799 -0.1776 -0.1425
  502MOL0     C67642  10.279   2.013   0.632  1.3499 -0.1455 -0.3018
  502MOL0     O67643  10.408   1.994   0.667 -0.1624  0.0821 -0.3090
  502MOL0     C67644  10.448   2.057   0.790  0.3093 -0.1446  0.1270
  502MOL0     C67645  10.565   1.992   0.861 -0.2124 -0.0659  0.0250
  502MOL0     C67646  10.511   1.863   0.925  0.5412  0.0125 -0.8484
  502MOL0     C67647  10.584   1.741   0.883  0.1836  0.2828  0.8702
  502MOL0     C67648  10.736   1.719   0.931 -0.4181 -0.5516  0.4966
  502MOL0     C67649  10.810   1.609   0.854  0.3243 -0.2703 -1.3641
  502MOL0     C67650  10.961   1.606   0.866  1.3294 -0.6974  0.0254
  502MOL0     C67651  11.004   1.597   1.007  0.0017 -0.3595  0.2429
  502MOL0     N67652  11.155   1.580   1.029  0.8047  0.0388  0.3880
  502MOL0     C67653  11.252   1.619   0.945 -0.2507 -0.7317 -0.2545
  502MOL0     C67654  11.357   1.532   0.969  0.7644  0.3263  0.2936
  502MOL0     C67655  11.486   1.546   0.897  0.6895  0.5559 -0.1317
  502MOL0     C67656  11.578   1.437   0.957 -0.6576 -0.6885  1.1763
  502MOL0     C67657  11.708   1.414   0.869 -1.3665  0.4325  0.2326
  502MOL0     C67658  11.708   1.305   0.765 -0.3570  0.2198 -0.7595
  502MOL0     O67659  11.607   1.333   0.667  0.2223 -0.1536 -0.1253
  502MOL0     C67660  11.587   1.228   0.587 -0.2804  0.0795  0.3395
  502MOL0     C67661  11.580   1.270   0.448 -0.3563 -0.1254  0.3085
  502MOL0     C67662  11.557   1.172   0.346  0.8026 -0.8592  0.1488
  502MOL0     C67663  11.542   1.212   0.213  0.7878  0.5972 -0.4631
  502MOL0     C67664  11.538   1.038   0.382  0.0375  0.1058  0.1076
  502MOL0     C67665  11.511   0.929   0.288  0.4614 -0.2059 -0.1644
  502MOL0     O67666  11.590   0.814   0.295  0.0224  0.5129  0.1571
  502MOL0     C67667  11.558   0.721   0.203 -0.3079  1.4109  0.4332
  502MOL0     C67668  11.520   0.585   0.231  0.6541  0.1021  0.4308
  502MOL0     C67669  11.511   0.491   0.129  0.3689  0.3401  0.1191
  502MOL0     C67670  11.532   0.530  -0.002  0.1308 -0.8780 -0.9705
  502MOL0     O67671  11.526   0.436  -0.101  0.8100  0.3728  0.2532
  502MOL0     C67672  11.630   0.385  -0.179  0.0419  1.0930 -0.2037
  502MOL0     C67673  11.674   0.244  -0.152  0.1737 -0.4575  0.6696
  502MOL0     C67674  11.743   0.232  -0.017  0.0032 -0.0323  0.1708
  502MOL0     C67675  11.785   0.087   0.023  0.3678  0.6160 -0.0909
  502MOL0     C67676  11.788   0.059   0.171 -0.5647  0.2762 -0.7015
  502MOL0     C67677  11.673   0.102   0.264  0.0090 -0.7728  0.5594
  502MOL0     C67678  11.542   0.054   0.220  1.2249 -0.1945  0.4245
  502MOL0     C67679  11.428   0.070   0.323  0.3410  0.6351  1.0062
  502MOL0    Cl67680  11.409   0.248   0.361 -0.4118  0.3370 -0.3227
  502MOL0     C67681  11.557   0.663  -0.033  0.4417  0.0054 -0.6312
  502MOL0     C67682  11.578   0.751   0.070 -0.3035 -0.4588  0.1339
  502MOL0     O67683  11.423   0.943   0.207  0.6846  0.6089  0.3090
  502MOL0     C67684  11.552   1.004   0.512 -0.2523  0.3901 -0.4771
  502MOL0     C67685  11.567   1.095   0.614  0.2332 -0.1720  0.0629
  502MOL0     N67686  11.321   1.444   1.058  0.4792  0.6854 -0.1683
  502MOL0     N67687  11.203   1.467   1.094 -0.4922  0.5112 -0.2183
  502MOL0     C67688  10.240   1.970   0.505 -0.1879 -0.1334  0.1382
  502MOL0     C67689  10.112   1.993   0.456 -0.1891  0.5808  0.0934
  502MOL0     C67690   9.651   2.161   0.469 -0.4068  0.6580  0.1518
  502MOL0     C67691   9.529   2.120   0.525  0.1253  0.1109  0.2977
  502MOL0     C67692   9.412   2.122   0.444 -0.2249  0.3189  0.5514
  502MOL0     C67693   9.407   2.183   0.319 -1.3944 -0.2085 -0.1357
  502MOL0     O67694   9.297   2.181   0.245 -0.0886  0.7995  0.7784
  502MOL0     C67695   9.267   2.049   0.190 -0.2339 -0.1949 -0.3988
  502MOL0     C67696   9.359   1.993   0.079 -0.9191  0.3741  0.7592
  502MOL0     C67697   9.305   1.864   0.010 -0.5397  0.3862 -0.1910
  502MOL0     C67698   9.247   1.755   0.104 -0.0919  0.0860  0.5854
  502MOL0     C67699   9.214   1.635   0.020  0.0376  0.1527  0.1708
  502MOL0     C67700   9.173   1.539  -0.038 -0.2122  0.4083  0.0293
  502MOL0     C67701   9.524   2.238   0.266  0.3169 -0.5164 -0.0474
  502MOL0     C67702   9.647   2.221   0.340 -0.4788 -0.2026 -0.8400
  502MOL0     H67703   9.979   2.161   0.718 -0.4615 -1.1863  0.3874
  502MOL0     H67704  10.204   2.138   0.800 -0.7525  0.1154 -0.2062
  502MOL0     H67705  10.462   2.165   0.793 -2.8447  0.4022  4.1743
  502MOL0     H67706  10.368   2.046   0.864 -0.7715 -1.1219 -1.1380
  502MOL0     H67707  10.649   1.960   0.800 -2.4389 -2.1799 -2.1756
  502MOL0     H67708  10.609   2.058   0.937 -0.7992  0.9299 -0.4821
  502MOL0     H67709  10.506   1.869   1.034  1.4307  2.0561 -0.8760
  502MOL0     H67710  10.407   1.840   0.897  0.0273 -0.9704  1.5849
  502MOL0     H67711  10.524   1.655   0.913  0.0396  0.4528  1.0748
  502MOL0     H67712  10.597   1.745   0.775 -0.1253 -0.4792  0.7999
  502MOL0     H67713  10.799   1.807   0.943  2.7579 -2.4299 -1.1130
  502MOL0     H67714  10.736   1.689   1.036 -2.4629 -0.5013  0.5505
  502MOL0     H67715  10.750   1.519   0.874 -0.4066  0.4776 -0.0423
  502MOL0     H67716  10.796   1.622   0.746  0.7706 -0.8205 -1.4958
  502MOL0     H67717  10.990   1.520   0.805  1.6671 -1.1157  0.7580
  502MOL0     H67718  10.995   1.700   0.823 -0.6928 -0.1833 -0.5453
  502MOL0     H67719  10.944   1.521   1.060  1.3159 -1.4225  0.2583
  502MOL0     H67720  10.983   1.690   1.059 -0.3931 -0.7401  0.7806
  502MOL0     H67721  11.263   1.701   0.876  0.5559  0.9687  1.7822
  502MOL0     H67722  11.464   1.537   0.790 -1.8694 -0.7570  0.4320
  502MOL0     H67723  11.525   1.647   0.913  0.3746  1.0000 -1.9198
  502MOL0     H67724  11.535   1.338   0.971 -0.6495 -0.6641  1.3659
  502MOL0     H67725  11.609   1.485   1.050 -0.0876  0.3488  0.4769
  502MOL0     H67726  11.788   1.388   0.939 -1.2007 -0.0601 -0.1423
  502MOL0     H67727  11.731   1.509   0.819 -0.2251  1.7279  2.9690
  502MOL0     H67728  11.687   1.210   0.816 -1.5538  0.0302 -1.5523
  502MOL0     H67729  11.808   1.294   0.723 -0.3877 -2.0624 -0.3957
  502MOL0     H67730  11.579   1.372   0.413 -2.5782 -0.1682  0.1114
  502MOL0     H67731  11.576   1.127   0.153 -1.0444  0.3406 -1.2296
  502MOL0     H67732  11.434   1.220   0.194  0.5557  0.1388  0.6244
  502MOL0     H67733  11.596   1.305   0.197 -0.5344  1.6857  1.0419
  502MOL0     H67734  11.511   0.548   0.333 -0.3236 -2.3918 -0.4879
  502MOL0     H67735  11.493   0.384   0.140 -0.3843  0.6143  1.7406
  502MOL0     H67736  11.591   0.395  -0.280 -0.5037  1.7598  0.0690
  502MOL0     H67737  11.720   0.448  -0.178 -0.2316  1.4852  1.4282
  502MOL0     H67738  11.584   0.183  -0.165 -1.3843  1.9066 -0.1553
  502MOL0     H67739  11.744   0.215  -0.232 -0.1129  2.8835 -0.9445
  502MOL0     H67740  11.664   0.262   0.053 -1.8836  1.7941 -2.5068
  502MOL0     H67741  11.823   0.304   0.002  1.0199 -1.5276  1.8644
  502MOL0     H67742  11.715   0.014  -0.018 -1.8389  1.4071  2.0097
  502MOL0     H67743  11.877   0.059  -0.029 -1.2909 -1.3945 -2.1539
  502MOL0     H67744  11.874   0.112   0.212  0.8531 -2.3092 -0.1157
  502MOL0     H67745  11.798  -0.049   0.188  0.9999  0.2010 -1.8468
  502MOL0     H67746  11.687   0.062   0.365 -1.6826  1.7128  1.8868
  502MOL0     H67747  11.689   0.209   0.283 -0.9521 -0.5196  0.0059
  502MOL0     H67748  11.546  -0.052   0.196 -0.7862 -0.1979 -0.1220
  502MOL0     H67749  11.518   0.111   0.130  1.9350  0.4835  0.6590
  502MOL0     H67750  11.432   0.010   0.414 -2.3808 -0.8717  0.2184
  502MOL0     H67751  11.336   0.037   0.274 -0.2613  2.7306  0.6465
  502MOL0     H67752  11.549   0.699  -0.135  3.0171  1.4130 -0.4291
  502MOL0     H67753  11.624   0.847   0.046  0.9808 -1.1707 -0.3611
  502MOL0     H67754  11.565   0.899   0.537  1.1093  0.7452  0.4136
  502MOL0     H67755  11.569   1.063   0.718 -3.5436  2.0399  1.0420
  502MOL0     H67756  10.313   1.919   0.443  2.8153  0.3435  2.9688
  502MOL0     H67757  10.079   1.972   0.355 -1.2757  2.2481  0.0568
  502MOL0     H67758   9.528   2.086   0.627  0.7731 -0.1543  0.2206
  502MOL0     H67759   9.321   2.076   0.481  0.8319 -1.4550  1.0482
  502MOL0     H67760   9.262   1.975   0.271 -0.0165 -2.0073 -1.9704
  502MOL0     H67761   9.164   2.051   0.155  0.4482 -1.1967 -2.6521
  502MOL0     H67762   9.458   1.984   0.125 -0.5523  0.3599 -0.0186
  502MOL0     H67763   9.363   2.068  -0.001  2.7073  1.4186  1.7025
  502MOL0     H67764   9.383   1.830  -0.059  0.6760  2.0725  0.2858
  502MOL0     H67765   9.212   1.900  -0.035  0.3643  1.4646 -1.2471
  502MOL0     H67766   9.159   1.781   0.163  0.4945  1.5915  0.8223
  502MOL0     H67767   9.326   1.724   0.174  0.8991  1.2296 -0.0003
  502MOL0     H67768   9.142   1.444  -0.076 -1.3408  0.7931 -0.0515
  502MOL0     H67769   9.525   2.272   0.163 -2.3654 -0.8518 -0.2417
  502MOL0     H67770   9.731   2.264   0.287 -0.9567 -0.4784 -1.8467
  503MOL0     O67771  10.839   1.954   4.835  0.1081 -0.3290  0.1663
  503MOL0     C67772  10.813   2.073   4.848 -0.3938  0.2516  1.0778
  503MOL0     O67773  10.870   2.176   4.781 -0.3920 -0.2348  0.6617
  503MOL0     C67774  10.950   2.155   4.668  0.9006 -0.1967 -0.0038
  503MOL0     C67775  10.926   2.046   4.580 -0.0935 -0.9415 -0.1417
  503MOL0     C67776  11.002   2.037   4.468 -0.5924  0.2120 -0.6059
  503MOL0     C67777  11.116   2.123   4.442  0.1789  0.1520 -0.2366
  503MOL0     O67778  11.201   2.119   4.337 -0.0477  0.0172  0.2414
  503MOL0     C67779  11.146   2.061   4.213 -0.3119  0.3227  0.2128
  503MOL0     C67780  11.228   2.127   4.096  0.1201 -0.2475 -1.0008
  503MOL0     C67781  11.380   2.112   4.124  0.6657 -0.8803  0.3469
  503MOL0     C67782  11.468   2.156   3.997  0.3530 -0.3411 -0.4983
  503MOL0     C67783  11.619   2.143   4.015  0.5296  0.1750  0.7254
  503MOL0     C67784  11.669   2.226   4.123  0.4612  0.3038  1.3103
  503MOL0     C67785  11.825   2.232   4.132 -0.8426  0.7978  0.5909
  503MOL0     C67786  11.893   2.333   4.037  0.7719 -0.4592 -0.1279
  503MOL0     N67787  12.042   2.311   4.047 -0.0885 -0.5341  0.4792
  503MOL0     C67788  12.119   2.378   4.136  0.9434  1.5159 -0.2863
  503MOL0     C67789  12.243   2.342   4.101  1.3194 -0.0069 -0.1645
  503MOL0     C67790  12.372   2.406   4.147  0.2268  0.0137  0.7848
  503MOL0     C67791  12.461   2.295   4.199 -0.0411 -0.1821 -0.2112
  503MOL0     C67792  12.412   2.249   4.331 -0.6272 -0.5427  0.4074
  503MOL0     C67793  12.513   2.160   4.413  0.1377 -0.3799 -0.0786
  503MOL0     O67794  12.587   2.081   4.320  0.0483 -0.2210  0.3484
  503MOL0     C67795  12.544   1.955   4.291  0.3014  0.3112 -0.2098
  503MOL0     C67796  12.480   1.872   4.390 -0.5714  0.3081 -0.6323
  503MOL0     C67797  12.411   1.749   4.354 -0.0371  0.1853  0.2094
  503MOL0     C67798  12.347   1.686   4.475  0.5771 -0.2184  0.2930
  503MOL0     C67799  12.401   1.708   4.218  0.0554  0.2697 -0.8670
  503MOL0     C67800  12.338   1.582   4.176 -0.0057 -0.3030 -0.4499
  503MOL0     O67801  12.377   1.536   4.053  0.3623 -0.6607 -0.1854
  503MOL0     C67802  12.294   1.443   3.996 -0.9876  1.1486  0.5718
  503MOL0     C67803  12.308   1.311   4.037  0.2157  0.1283 -0.9794
  503MOL0     C67804  12.213   1.218   3.987  0.0236 -0.1220 -0.5258
  503MOL0     C67805  12.118   1.247   3.886 -0.5544 -0.5489 -0.6097
  503MOL0     O67806  12.026   1.159   3.832  0.0530  0.3529 -0.5524
  503MOL0     C67807  12.057   1.024   3.829  0.4741  0.3120  0.4230
  503MOL0     C67808  11.944   0.971   3.920  0.0624 -0.4120  0.1944
  503MOL0     C67809  11.987   0.826   3.964 -0.4158 -1.4575  0.5928
  503MOL0     C67810  12.069   0.824   4.085 -0.5858  0.9225 -0.3020
  503MOL0     C67811  12.080   0.684   4.154  0.5796 -0.4896 -0.0630
  503MOL0     C67812  11.954   0.626   4.222  0.6628 -0.3930  0.6173
  503MOL0     C67813  11.892   0.717   4.323 -0.0993 -0.9143 -0.2449
  503MOL0     C67814  11.808   0.648   4.418  0.3153  0.6823  0.1276
  503MOL0    Cl67815  11.666   0.571   4.338  0.2185 -0.6081 -0.2154
  503MOL0     C67816  12.120   1.385   3.838 -0.8503  0.2303 -0.6883
  503MOL0     C67817  12.206   1.479   3.894  0.1519  1.2497 -0.2296
  503MOL0     O67818  12.267   1.525   4.252  0.0447 -0.1379  0.1184
  503MOL0     C67819  12.481   1.792   4.129  0.9455  0.3666  0.6162
  503MOL0     C67820  12.545   1.907   4.165 -0.1113  1.0986  0.5390
  503MOL0     N67821  12.233   2.256   3.992  0.2093 -0.1118  0.3883
  503MOL0     N67822  12.107   2.231   3.966 -0.3446 -0.1891 -0.5563
  503MOL0     C67823  11.142   2.220   4.532 -0.7009 -0.3812 -0.4669
  503MOL0     C67824  11.065   2.235   4.643  0.6542  0.0262 -0.7348
  503MOL0     C67825  10.708   2.111   4.946  0.0376 -0.4790 -0.9956
  503MOL0     C67826  10.652   2.012   5.032  1.1944  0.0044  0.0820
  503MOL0     C67827  10.533   2.056   5.093  0.1051  0.0286 -0.0073
  503MOL0     C67828  10.473   2.182   5.082  0.9716 -0.7087 -0.1573
  503MOL0     O67829  10.353   2.209   5.152 -0.3262  0.5932 -0.0383
  503MOL0     C67830  10.290   2.347   5.162 -0.2099  0.8416  0.1938
  503MOL0     C67831  10.355   2.448   5.251  0.1810 -0.1078  0.2319
  503MOL0     C67832  10.398   2.388   5.385 -0.6119  0.2509 -0.1904
  503MOL0     C67833  10.436   2.491   5.486  0.6714  0.6779 -0.5052
  503MOL0     C67834  10.550   2.571   5.435 -0.3506  0.0931 -0.3665
  503MOL0     C67835  10.640   2.641   5.390  0.2809 -0.1119  0.4530
  503MOL0     C67836  10.535   2.280   5.005 -0.3460 -0.7073  0.2754
  503MOL0     C67837  10.649   2.242   4.934  0.5910  0.6147  1.2228
  503MOL0     H67838  10.851   1.970   4.599 -2.7513  2.1510  3.2916
  503MOL0     H67839  10.969   1.965   4.394 -0.9257  0.4186 -0.6607
  503MOL0     H67840  11.166   1.953   4.223 -2.4704 -0.0225  1.2675
  503MOL0     H67841  11.039   2.072   4.196  0.0269  4.5918 -0.1443
  503MOL0     H67842  11.196   2.094   3.997 -3.8814  1.1686 -0.3529
  503MOL0     H67843  11.197   2.231   4.103 -1.3969 -0.7584  0.5343
  503MOL0     H67844  11.400   2.182   4.206 -2.6185  0.3794  0.2152
  503MOL0     H67845  11.416   2.012   4.150  4.0989 -0.2559 -1.4601
  503MOL0     H67846  11.437   2.099   3.909 -3.0388 -1.7277  1.3821
  503MOL0     H67847  11.447   2.263   3.985  0.4973 -0.2345  0.1464
  503MOL0     H67848  11.642   2.038   4.035  2.0893 -0.3117 -2.8690
  503MOL0     H67849  11.676   2.179   3.929  3.4847  0.1284  2.5478
  503MOL0     H67850  11.617   2.320   4.106  0.8795  0.3573  0.2807
  503MOL0     H67851  11.634   2.195   4.222 -0.0454  0.1343  1.0806
  503MOL0     H67852  11.862   2.265   4.229 -2.0324 -1.5293  1.9211
  503MOL0     H67853  11.871   2.135   4.113  0.5001  1.7411 -1.3572
  503MOL0     H67854  11.871   2.434   4.075 -0.7354 -1.4161  1.7174
  503MOL0     H67855  11.855   2.329   3.935  1.4131 -5.1703 -0.3896
  503MOL0     H67856  12.091   2.451   4.211 -1.0803  0.5930 -0.0639
  503MOL0     H67857  12.420   2.449   4.059  0.2650  2.4758  1.9051
  503MOL0     H67858  12.359   2.489   4.218 -0.1712  0.7640 -0.1412
  503MOL0     H67859  12.562   2.337   4.208 -0.3861  0.3171  1.9500
  503MOL0     H67860  12.461   2.215   4.125  0.9505  1.6856 -2.3877
  503MOL0     H67861  12.327   2.183   4.309 -0.9682  1.0449 -4.4287
  503MOL0     H67862  12.381   2.335   4.391  0.4942 -1.3643  2.2171
  503MOL0     H67863  12.468   2.101   4.493  0.7897 -0.6841  0.0773
  503MOL0     H67864  12.588   2.223   4.462  0.2594 -0.2572 -0.4117
  503MOL0     H67865  12.474   1.900   4.495 -2.2647 -0.7519 -0.4057
  503MOL0     H67866  12.238   1.685   4.462  0.6547 -2.0343 -0.5600
  503MOL0     H67867  12.380   1.582   4.465 -1.8086 -0.9896 -0.1063
  503MOL0     H67868  12.375   1.729   4.571 -0.8587 -0.8009  0.9995
  503MOL0     H67869  12.385   1.300   4.112 -0.6323  3.4275  0.5444
  503MOL0     H67870  12.222   1.119   4.030 -1.4163  1.4117  3.9797
  503MOL0     H67871  12.044   0.987   3.727 -2.2067  1.9362  0.0821
  503MOL0     H67872  12.156   0.993   3.864  0.1844 -1.4561 -0.1989
  503MOL0     H67873  11.944   1.040   4.006 -1.1553  2.1732 -1.7454
  503MOL0     H67874  11.856   0.956   3.858  0.7485 -1.1324 -0.6248
  503MOL0     H67875  12.027   0.774   3.877 -1.6358 -2.0807  0.3981
  503MOL0     H67876  11.895   0.771   3.985 -2.4178  0.6961 -1.7883
  503MOL0     H67877  12.171   0.859   4.067  0.9050 -1.4342  2.6575
  503MOL0     H67878  12.018   0.887   4.158 -0.1834  2.4433 -1.2705
  503MOL0     H67879  12.160   0.696   4.227  1.1678 -0.3154 -0.7257
  503MOL0     H67880  12.114   0.616   4.074 -1.8200  1.8386 -3.3397
  503MOL0     H67881  11.893   0.591   4.138  2.9259 -0.3361 -1.1149
  503MOL0     H67882  11.980   0.541   4.286 -1.6183  0.1590  2.4319
  503MOL0     H67883  11.842   0.797   4.268  0.4755  1.1820  2.1048
  503MOL0     H67884  11.977   0.764   4.373 -0.7165  2.0547 -1.7279
  503MOL0     H67885  11.761   0.721   4.485 -0.6357 -0.8846  1.2182
  503MOL0     H67886  11.854   0.566   4.474 -1.3792 -0.3619  0.0357
  503MOL0     H67887  12.045   1.419   3.768 -0.3919  1.1505 -0.7387
  503MOL0     H67888  12.207   1.581   3.859 -1.3541  1.1950 -0.4817
  503MOL0     H67889  12.486   1.757   4.027 -0.8013 -0.6668  0.8514
  503MOL0     H67890  12.595   1.973   4.094 -0.8323  1.2686  0.1791
  503MOL0     H67891  11.220   2.290   4.503 -1.4609  1.5802  1.8289
  503MOL0     H67892  11.085   2.327   4.697  3.0759  0.6861 -2.5933
  503MOL0     H67893  10.680   1.907   5.041  1.6721  0.0072 -1.2059
  503MOL0     H67894  10.469   1.987   5.146  2.1615 -2.6054 -0.7658
  503MOL0     H67895  10.283   2.378   5.058 -0.9109  0.5087  0.1320
  503MOL0     H67896  10.190   2.326   5.201 -0.2780  0.2778 -0.2723
  503MOL0     H67897  10.282   2.529   5.256 -1.3249 -1.4121  0.2653
  503MOL0     H67898  10.448   2.483   5.206  0.0393  0.6628  0.5174
  503MOL0     H67899  10.487   2.325   5.380 -0.0616  0.4943  3.4637
  503MOL0     H67900  10.325   2.317   5.426  0.4957 -0.1112  1.2562
  503MOL0     H67901  10.467   2.439   5.576  0.2306 -0.0934 -0.7930
  503MOL0     H67902  10.351   2.559   5.496 -0.2916 -0.5827  0.1767
  503MOL0     H67903  10.724   2.688   5.342  0.5233 -1.3045 -0.3498
  503MOL0     H67904  10.479   2.368   4.974 -2.1943 -1.7809  0.4365
  503MOL0     H67905  10.700   2.324   4.884 -1.5496  0.3356 -1.6731
  504MOL0     O67906   0.456   1.698   5.745  0.4265  0.2411 -0.2066
  504MOL0     C67907   0.418   1.777   5.661  1.0487 -0.1720 -0.0759
  504MOL0     O67908   0.332   1.753   5.560  0.5078  0.5668  0.2701
  504MOL0     C67909   0.243   1.645   5.562 -0.9487 -0.0836  0.0884
  504MOL0     C67910   0.271   1.549   5.471  0.9571 -0.6163  0.4752
  504MOL0     C67911   0.185   1.437   5.471  0.4444 -1.0041  0.8301
  504MOL0     C67912   0.077   1.419   5.554  0.9556 -0.3785 -0.3504
  504MOL0     O67913  -0.002   1.312   5.541 -0.0876  0.2135 -0.6032
  504MOL0     C67914  -0.142   1.336   5.549  0.1544  0.8058 -0.5927
  504MOL0     C67915  -0.225   1.207   5.520  0.2945  0.1665  0.1540
  504MOL0     C67916  -0.225   1.175   5.372  0.2671  0.3870 -0.2803
  504MOL0     C67917  -0.274   1.033   5.344  0.0217 -0.0798  0.2864
  504MOL0     C67918  -0.409   1.004   5.422 -0.0990  0.7161 -0.2623
  504MOL0     C67919  -0.462   0.869   5.385 -0.0750  0.2604 -0.0326
  504MOL0     C67920  -0.363   0.750   5.420  0.6383 -0.6004 -0.0158
  504MOL0     C67921  -0.305   0.742   5.571 -0.4963 -0.3005  0.4023
  504MOL0     N67922  -0.412   0.707   5.661 -0.2476 -0.5727  0.1901
  504MOL0     C67923  -0.503   0.783   5.735 -0.5957 -0.0027  0.4885
  504MOL0     C67924  -0.540   0.707   5.838  0.6153  0.5180 -0.0625
  504MOL0     C67925  -0.634   0.735   5.951  0.5150 -0.1944  0.7213
  504MOL0     C67926  -0.570   0.722   6.090  0.6877  0.1799  0.2715
  504MOL0     C67927  -0.527   0.581   6.139  0.8453  0.3045 -0.3209
  504MOL0     C67928  -0.485   0.583   6.288 -0.9085  1.3047 -0.1233
  504MOL0     O67929  -0.365   0.650   6.302 -0.6061  0.2860 -0.8109
  504MOL0     C67930  -0.364   0.768   6.355  0.1751 -0.5361 -0.2428
  504MOL0     C67931  -0.235   0.818   6.360  0.3398 -0.0244 -0.2664
  504MOL0     C67932  -0.218   0.954   6.399 -1.1072  1.0595 -0.5908
  504MOL0     C67933  -0.078   1.012   6.389 -0.1408  0.0604 -0.7225
  504MOL0     C67934  -0.335   1.036   6.439 -0.2572 -0.3819  0.2718
  504MOL0     C67935  -0.329   1.179   6.484 -0.1639 -0.5909 -0.1835
  504MOL0     O67936  -0.227   1.259   6.424 -0.6319  0.2479  0.1531
  504MOL0     C67937  -0.249   1.394   6.406  0.6639 -0.2524 -0.3228
  504MOL0     C67938  -0.242   1.448   6.280 -0.0942  0.3277 -0.2158
  504MOL0     C67939  -0.230   1.579   6.268  1.1668 -0.8115 -0.6025
  504MOL0     C67940  -0.253   1.666   6.381 -1.1463  0.0386 -0.1880
  504MOL0     O67941  -0.251   1.797   6.365  0.5056  0.6788 -0.6938
  504MOL0     C67942  -0.132   1.863   6.306 -0.5194  0.3675 -0.4556
  504MOL0     C67943  -0.070   1.953   6.416  0.6657 -0.3358  0.2665
  504MOL0     C67944  -0.148   2.088   6.444  0.0355  0.3953  0.4107
  504MOL0     C67945  -0.127   2.192   6.333  0.6306  0.1079  0.1989
  504MOL0     C67946  -0.197   2.313   6.392 -0.4253 -0.6051  0.3190
  504MOL0     C67947  -0.163   2.443   6.318  0.2572  0.1959  0.0807
  504MOL0     C67948  -0.198   2.568   6.401  0.2459 -0.0253  0.5952
  504MOL0     C67949  -0.144   2.701   6.337  0.6264  0.2240  0.0419
  504MOL0    Cl67950  -0.193   2.839   6.434 -0.4542  0.8181  0.2647
  504MOL0     C67951  -0.277   1.611   6.506 -0.2097 -0.1850  0.2328
  504MOL0     C67952  -0.261   1.471   6.519 -0.8415 -0.4582  0.1187
  504MOL0     O67953  -0.415   1.219   6.560 -0.3146  0.2385 -0.2188
  504MOL0     C67954  -0.461   0.974   6.446 -0.1415  0.5891 -0.2302
  504MOL0     C67955  -0.479   0.846   6.396  0.2214 -0.3307 -0.1264
  504MOL0     N67956  -0.482   0.581   5.831  0.7438 -1.0134 -0.2502
  504MOL0     N67957  -0.410   0.585   5.722 -0.1429  0.2924  0.0465
  504MOL0     C67958   0.063   1.515   5.653 -0.6781  0.5520 -0.9245
  504MOL0     C67959   0.139   1.631   5.656 -0.8520  0.3570 -0.5236
  504MOL0     C67960   0.469   1.911   5.661 -0.3152  1.2764 -1.1914
  504MOL0     C67961   0.563   1.950   5.765  0.2520 -0.0680  0.0398
  504MOL0     C67962   0.606   2.079   5.778  0.1882 -0.6194  0.1512
  504MOL0     C67963   0.557   2.169   5.684 -0.0804 -0.5026  0.8749
  504MOL0     O67964   0.608   2.301   5.686 -0.0547  0.2234  0.1291
  504MOL0     C67965   0.540   2.424   5.672  0.2155 -0.7937 -0.0006
  504MOL0     C67966   0.538   2.490   5.812 -0.1026 -0.4093 -0.6271
  504MOL0     C67967   0.524   2.399   5.935  0.7768  0.4989 -1.3284
  504MOL0     C67968   0.385   2.327   5.954 -0.1804 -0.0886  0.3170
  504MOL0     C67969   0.315   2.370   6.077 -0.1410 -0.8522 -0.0745
  504MOL0     C67970   0.228   2.392   6.154 -0.7479  0.2400 -0.3019
  504MOL0     C67971   0.454   2.136   5.594 -0.4505  0.3550  0.2601
  504MOL0     C67972   0.407   2.006   5.580  0.4805  0.0696 -0.2617
  504MOL0     H67973   0.343   1.567   5.391 -0.6825 -0.4431 -1.0109
  504MOL0     H67974   0.207   1.370   5.389 -0.1273  2.3755 -2.3149
  504MOL0     H67975  -0.154   1.354   5.656 -0.6559  0.3680 -0.6033
  504MOL0     H67976  -0.177   1.413   5.479  2.3971 -0.2820 -3.1173
  504MOL0     H67977  -0.186   1.127   5.583  0.2458 -0.0066 -0.0336
  504MOL0     H67978  -0.328   1.223   5.553 -0.5879  0.5658 -2.5357
  504MOL0     H67979  -0.289   1.253   5.328  2.0692  0.7849 -2.3456
  504MOL0     H67980  -0.127   1.174   5.324  0.0314 -2.0104 -0.8276
  504MOL0     H67981  -0.294   1.036   5.237  2.8916  0.4933 -0.3262
  504MOL0     H67982  -0.191   0.967   5.372  2.1353  0.7598 -3.3898
  504MOL0     H67983  -0.405   1.010   5.531 -0.4052  1.6371 -0.2961
  504MOL0     H67984  -0.482   1.082   5.400 -2.5425 -1.6853 -1.3495
  504MOL0     H67985  -0.555   0.849   5.438  0.4759 -0.2160  0.7787
  504MOL0     H67986  -0.487   0.864   5.278 -0.9143 -0.2882  0.1881
  504MOL0     H67987  -0.422   0.659   5.407 -0.6378 -0.1729  2.2920
  504MOL0     H67988  -0.289   0.742   5.340 -3.2789  3.8313 -4.7647
  504MOL0     H67989  -0.263   0.841   5.593  0.9539 -1.1164  1.4387
  504MOL0     H67990  -0.217   0.677   5.567 -0.1468  0.1749  0.2406
  504MOL0     H67991  -0.525   0.887   5.716  0.6654  0.6222  2.2504
  504MOL0     H67992  -0.669   0.837   5.933 -0.4104 -0.5752  0.2804
  504MOL0     H67993  -0.720   0.667   5.938  1.6480 -1.1126 -3.4545
  504MOL0     H67994  -0.655   0.747   6.155 -0.2416 -1.8861 -0.0722
  504MOL0     H67995  -0.493   0.798   6.107  0.0457  0.4068  2.5807
  504MOL0     H67996  -0.442   0.535   6.087  0.0734 -3.3588  1.3258
  504MOL0     H67997  -0.614   0.515   6.127  0.8365  0.2244  0.1664
  504MOL0     H67998  -0.460   0.479   6.313  3.6718  1.6832 -2.1523
  504MOL0     H67999  -0.557   0.604   6.369 -0.7741 -0.9798  0.6812
  504MOL0     H68000  -0.155   0.746   6.342  1.2287  0.3657  1.8202
  504MOL0     H68001  -0.056   1.086   6.467  2.2538 -1.5239  0.2229
  504MOL0     H68002   0.001   0.938   6.397 -0.5510 -0.2848  0.2732
  504MOL0     H68003  -0.072   1.076   6.300 -4.1286  0.9578 -0.5495
  504MOL0     H68004  -0.235   1.371   6.204 -0.8447 -1.2872  1.2910
  504MOL0     H68005  -0.203   1.617   6.170  3.3284 -1.7575 -0.4387
  504MOL0     H68006  -0.062   1.785   6.276  0.5043  0.0727  2.3631
  504MOL0     H68007  -0.162   1.924   6.221 -3.1490  1.4327  1.0922
  504MOL0     H68008  -0.085   1.894   6.506 -0.5075 -1.1083 -0.4144
  504MOL0     H68009   0.034   1.985   6.406  0.9641 -1.2707  0.2544
  504MOL0     H68010  -0.110   2.133   6.536 -0.9409 -3.2967  2.8322
  504MOL0     H68011  -0.255   2.067   6.450 -0.1527  1.5061  1.1353
  504MOL0     H68012  -0.023   2.204   6.305 -0.0403  1.0291 -2.0900
  504MOL0     H68013  -0.175   2.152   6.243 -0.6300 -1.0010  1.3084
  504MOL0     H68014  -0.187   2.332   6.499 -0.5452 -3.2935  0.8694
  504MOL0     H68015  -0.305   2.305   6.379 -0.1424 -1.7295 -1.9631
  504MOL0     H68016  -0.054   2.446   6.312  0.3486 -0.8203  0.8144
  504MOL0     H68017  -0.219   2.462   6.226  0.6149  1.6058  0.1434
  504MOL0     H68018  -0.156   2.562   6.502 -0.3188 -1.6367  0.7536
  504MOL0     H68019  -0.307   2.568   6.399  0.2044  1.4681  1.2407
  504MOL0     H68020  -0.195   2.707   6.240 -0.1446  0.6107  0.4604
  504MOL0     H68021  -0.036   2.693   6.323  0.4092 -1.1955 -0.9695
  504MOL0     H68022  -0.276   1.677   6.592 -3.3578  1.2901 -0.7136
  504MOL0     H68023  -0.247   1.440   6.622 -3.5117  0.5529  0.8828
  504MOL0     H68024  -0.546   1.034   6.478 -2.8786 -0.5927 -4.4541
  504MOL0     H68025  -0.584   0.820   6.390 -0.1209  0.8322  0.4705
  504MOL0     H68026  -0.003   1.514   5.740 -1.3742  3.9593 -1.2521
  504MOL0     H68027   0.124   1.705   5.734  0.4146 -2.6211  2.8378
  504MOL0     H68028   0.605   1.876   5.832 -0.5245 -0.6202 -0.0708
  504MOL0     H68029   0.680   2.128   5.841 -0.8437  2.9197 -1.1353
  504MOL0     H68030   0.607   2.477   5.603 -2.4474 -0.1522 -2.2573
  504MOL0     H68031   0.437   2.419   5.636 -0.5984 -0.9640  2.1976
  504MOL0     H68032   0.451   2.555   5.825  0.1117 -0.2116 -0.1641
  504MOL0     H68033   0.628   2.552   5.806 -0.0104 -0.4253  0.3640
  504MOL0     H68034   0.550   2.464   6.019  0.0704 -1.0915  0.1750
  504MOL0     H68035   0.599   2.319   5.936  0.4518 -0.0124 -5.1742
  504MOL0     H68036   0.408   2.221   5.968  1.2063  0.3409  1.5393
  504MOL0     H68037   0.329   2.342   5.861  1.9989 -0.8066 -1.1939
  504MOL0     H68038   0.148   2.395   6.225 -0.1658 -0.1959  0.3951
  504MOL0     H68039   0.421   2.211   5.523  1.3990  2.1043  1.1287
  504MOL0     H68040   0.322   1.996   5.513 -3.5533 -0.2347  4.3570
  505MOL0     O68041   5.989   6.979   9.153 -0.2572 -0.0169  0.1352
  505MOL0     C68042   6.061   6.895   9.100  0.6354  1.1606 -0.1391
  505MOL0     O68043   6.166   6.829   9.161 -0.1921 -0.2536 -0.0630
  505MOL0     C68044   6.175   6.814   9.298 -0.5998  0.4548 -0.6252
  505MOL0     C68045   6.072   6.797   9.381  0.2002  1.0458  0.4861
  505MOL0     C68046   6.095   6.757   9.513  0.2160 -0.2883 -0.1934
  505MOL0     C68047   6.222   6.745   9.571  0.8718  0.5173  0.1922
  505MOL0     O68048   6.252   6.693   9.688  0.3102  0.0222  0.9999
  505MOL0     C68049   6.145   6.670   9.773  0.0305 -0.3790 -0.0322
  505MOL0     C68050   6.192   6.604   9.892 -0.5216 -0.3776 -0.4379
  505MOL0     C68051   6.245   6.470   9.883  1.5705  0.3785 -0.1528
  505MOL0     C68052   6.280   6.418  10.025 -0.1384  0.6830  0.1341
  505MOL0     C68053   6.324   6.270  10.029 -0.5830  0.2727  0.6760
  505MOL0     C68054   6.473   6.257   9.974  0.3631 -0.6648  0.0109
  505MOL0     C68055   6.511   6.125   9.903  0.1885  0.1856  0.1824
  505MOL0     C68056   6.501   6.005   9.993  0.0798 -0.3661 -0.3995
  505MOL0     N68057   6.516   5.875   9.932 -0.3084  0.5427  0.0288
  505MOL0     C68058   6.619   5.840   9.854 -0.0792  0.1714  0.7115
  505MOL0     C68059   6.597   5.718   9.808 -0.2006  1.0234  1.4839
  505MOL0     C68060   6.696   5.644   9.717  0.2272  0.1548 -1.3373
  505MOL0     C68061   6.700   5.695   9.577  1.2886  0.6233  0.6511
  505MOL0     C68062   6.805   5.637   9.488 -0.1052 -0.3065  0.5834
  505MOL0     C68063   6.808   5.704   9.350  0.0187 -0.2424 -0.6687
  505MOL0     O68064   6.917   5.796   9.362  0.0913 -0.9258 -0.6845
  505MOL0     C68065   6.883   5.916   9.437  0.3921 -0.1218  0.4195
  505MOL0     C68066   6.945   5.957   9.558 -0.2343 -0.7860  0.1885
  505MOL0     C68067   6.925   6.082   9.612 -0.0186 -0.0933 -0.6835
  505MOL0     C68068   7.000   6.101   9.740 -0.0803  0.6181 -0.5259
  505MOL0     C68069   6.826   6.166   9.556  1.4742  0.6082  1.2554
  505MOL0     C68070   6.766   6.297   9.619  0.3508  0.3252 -0.2861
  505MOL0     O68071   6.843   6.363   9.709 -0.7113 -0.2818 -0.6622
  505MOL0     C68072   6.783   6.464   9.786  0.6000 -1.4639  0.7057
  505MOL0     C68073   6.713   6.580   9.742 -1.4355  0.0749  0.3408
  505MOL0     C68074   6.656   6.672   9.833 -0.4779 -0.3870  0.3804
  505MOL0     C68075   6.674   6.655   9.968  0.0405 -0.5244  0.0698
  505MOL0     O68076   6.609   6.729  10.064 -0.5485  0.4280  0.5828
  505MOL0     C68077   6.519   6.833  10.024 -1.1634  1.1655  0.3333
  505MOL0     C68078   6.492   6.898  10.156  0.6254 -0.4392 -0.3020
  505MOL0     C68079   6.368   6.995  10.143 -0.4201 -0.7406 -0.3877
  505MOL0     C68080   6.418   7.139  10.167 -0.7016 -0.1970 -0.4246
  505MOL0     C68081   6.304   7.232  10.196 -0.0704  0.6945 -0.0801
  505MOL0     C68082   6.244   7.215  10.336  0.2380  0.0945  0.2137
  505MOL0     C68083   6.287   7.316  10.438  0.5361 -0.6735 -0.1293
  505MOL0     C68084   6.337   7.457  10.386  0.2954 -0.0487 -0.4146
  505MOL0    Cl68085   6.203   7.531  10.303  0.1448  0.1564  0.0977
  505MOL0     C68086   6.735   6.543  10.008 -1.0254  0.4179 -0.1734
  505MOL0     C68087   6.793   6.440   9.928  0.8055  0.1768  0.2871
  505MOL0     O68088   6.659   6.330   9.571  0.1895 -0.1153 -0.0963
  505MOL0     C68089   6.756   6.115   9.439 -0.4808 -0.6690  1.0986
  505MOL0     C68090   6.790   5.996   9.375  1.1495 -0.1147 -0.1572
  505MOL0     N68091   6.470   5.681   9.859 -0.6277 -0.0301  0.2128
  505MOL0     N68092   6.422   5.777   9.941 -0.2852  0.2749  0.2905
  505MOL0     C68093   6.333   6.784   9.483  0.3308  0.4958  0.8101
  505MOL0     C68094   6.308   6.811   9.349  0.3132  0.1620 -0.5374
  505MOL0     C68095   6.036   6.868   8.960 -0.5402  0.6179 -0.2155
  505MOL0     C68096   6.126   6.786   8.898 -0.1067  0.7261  0.2956
  505MOL0     C68097   6.135   6.780   8.755 -1.4360 -0.7776  0.2776
  505MOL0     C68098   6.056   6.853   8.678  0.2131 -0.4635 -0.2920
  505MOL0     O68099   6.075   6.833   8.544 -0.2686  0.1235  0.5286
  505MOL0     C68100   6.035   6.952   8.463 -0.3159 -1.3994 -0.4701
  505MOL0     C68101   6.096   6.947   8.327  0.8297  0.8191 -0.3228
  505MOL0     C68102   6.013   7.037   8.233  0.9154  0.5372  0.7840
  505MOL0     C68103   6.083   7.059   8.093 -0.1068 -0.6864 -0.8911
  505MOL0     C68104   6.089   6.943   8.007 -0.3547 -0.1220 -0.1976
  505MOL0     C68105   6.086   6.848   7.923 -0.5658 -0.4382 -0.3189
  505MOL0     C68106   5.955   6.940   8.733 -0.3692 -0.0322  0.6834
  505MOL0     C68107   5.946   6.950   8.877  0.0252  0.7065  0.3457
  505MOL0     H68108   5.971   6.785   9.343  0.5555 -1.3756  0.1565
  505MOL0     H68109   6.001   6.738   9.564  0.8734 -3.2206  0.1330
  505MOL0     H68110   6.113   6.772   9.796  1.3038  0.3645 -1.4061
  505MOL0     H68111   6.079   6.604   9.717  1.4768 -3.2814  1.4522
  505MOL0     H68112   6.273   6.668   9.930 -1.1890  0.8019 -0.9680
  505MOL0     H68113   6.114   6.607   9.968  1.2638 -1.3812  1.5473
  505MOL0     H68114   6.168   6.407   9.838  4.8886 -3.4420 -1.1426
  505MOL0     H68115   6.339   6.475   9.827  3.2500 -1.6467  2.2109
  505MOL0     H68116   6.354   6.482  10.076 -0.5758  2.7327 -1.6433
  505MOL0     H68117   6.197   6.425  10.095 -1.2683 -1.6022 -0.8972
  505MOL0     H68118   6.314   6.227  10.129 -0.3979  0.7344  0.8959
  505MOL0     H68119   6.261   6.210   9.962 -2.4895  2.3339  0.5125
  505MOL0     H68120   6.496   6.337   9.903  1.9239 -0.4769  0.6949
  505MOL0     H68121   6.538   6.275  10.060  1.0146 -0.1574 -0.5811
  505MOL0     H68122   6.449   6.102   9.817  1.4165  2.3559 -1.3644
  505MOL0     H68123   6.609   6.136   9.856  1.0303  0.2299  1.8470
  505MOL0     H68124   6.408   6.012  10.050  0.5725  2.7742  0.1465
  505MOL0     H68125   6.582   6.009  10.066  0.8142  0.5550 -1.2277
  505MOL0     H68126   6.714   5.885   9.825  1.8977 -3.0580  1.6993
  505MOL0     H68127   6.797   5.648   9.760  0.1089  1.1785 -1.1175
  505MOL0     H68128   6.647   5.547   9.728 -1.5865  1.2736  1.6449
  505MOL0     H68129   6.712   5.802   9.595  2.8380  0.4156  1.0055
  505MOL0     H68130   6.603   5.678   9.530  1.9564 -1.6046 -0.0563
  505MOL0     H68131   6.778   5.533   9.469  1.9262 -0.4557 -2.0698
  505MOL0     H68132   6.907   5.632   9.527 -0.0518 -0.7863  0.3882
  505MOL0     H68133   6.709   5.747   9.328 -1.5182 -2.5972  1.0760
  505MOL0     H68134   6.833   5.635   9.269  2.2269 -1.0033  0.5867
  505MOL0     H68135   7.024   5.902   9.608  0.0935 -0.9539 -0.5058
  505MOL0     H68136   7.047   6.012   9.782 -1.2030  0.7459  1.0937
  505MOL0     H68137   7.076   6.179   9.753  0.1973 -0.0053  1.9829
  505MOL0     H68138   6.918   6.126   9.808  0.1892 -0.4460  0.2093
  505MOL0     H68139   6.684   6.578   9.637  0.4729  3.7226 -0.4375
  505MOL0     H68140   6.598   6.754   9.792  0.2746  0.8508  1.6750
  505MOL0     H68141   6.570   6.903   9.958 -0.2008 -1.2398 -1.5936
  505MOL0     H68142   6.434   6.796   9.967  0.7317 -0.5432 -1.5299
  505MOL0     H68143   6.477   6.821  10.232 -2.0365  1.4900  1.3126
  505MOL0     H68144   6.586   6.952  10.172  1.6316 -1.5134 -2.2376
  505MOL0     H68145   6.291   6.959  10.213  0.1944  0.8191  1.1715
  505MOL0     H68146   6.330   7.000  10.041 -0.6470  2.7525 -0.2553
  505MOL0     H68147   6.476   7.141  10.259  0.2115  1.6373 -0.9818
  505MOL0     H68148   6.490   7.173  10.092  1.7798 -2.2316  0.8886
  505MOL0     H68149   6.224   7.199  10.128  1.3282 -0.6431 -1.1224
  505MOL0     H68150   6.309   7.336  10.161 -0.6110  0.3885 -1.1284
  505MOL0     H68151   6.136   7.223  10.324  0.1735  0.8625  1.1512
  505MOL0     H68152   6.267   7.116  10.377 -1.4830 -1.9690 -3.2670
  505MOL0     H68153   6.370   7.265  10.488  0.5900 -1.6076 -1.1275
  505MOL0     H68154   6.202   7.329  10.506 -1.1385  0.2534 -2.2525
  505MOL0     H68155   6.424   7.439  10.322  0.0568 -0.5419 -0.6081
  505MOL0     H68156   6.373   7.510  10.475 -0.7992 -2.2785  1.4688
  505MOL0     H68157   6.754   6.526  10.114  1.7726  0.7730 -0.5341
  505MOL0     H68158   6.829   6.342   9.958  1.4539  0.5906  0.9043
  505MOL0     H68159   6.680   6.170   9.384  1.9848  0.4180 -1.4479
  505MOL0     H68160   6.733   5.965   9.288 -0.3919  1.0895  0.3710
  505MOL0     H68161   6.436   6.776   9.516  0.0570 -0.8117  1.4460
  505MOL0     H68162   6.396   6.831   9.289  1.3494  1.6423  1.3317
  505MOL0     H68163   6.193   6.719   8.950 -2.4322 -3.3458 -1.4779
  505MOL0     H68164   6.203   6.706   8.714 -2.2001 -0.6810 -1.2341
  505MOL0     H68165   5.926   6.960   8.467 -0.1708  1.5896 -0.6567
  505MOL0     H68166   6.077   7.034   8.522 -2.1805  0.4104 -1.5264
  505MOL0     H68167   6.087   6.842   8.298  0.3955  1.1089 -1.2814
  505MOL0     H68168   6.201   6.977   8.327  1.6086 -1.6624  0.4355
  505MOL0     H68169   5.994   7.136   8.275  5.2040  2.0070 -0.2603
  505MOL0     H68170   5.918   6.992   8.203  0.1838  2.1301  0.5860
  505MOL0     H68171   6.185   7.096   8.106 -0.1194 -1.5276  2.5840
  505MOL0     H68172   6.042   7.145   8.040 -0.9079 -1.7441 -2.0346
  505MOL0     H68173   6.076   6.766   7.854  1.3963 -0.2078 -0.9546
  505MOL0     H68174   5.886   7.008   8.684  2.6247  2.7416  0.0382
  505MOL0     H68175   5.869   7.016   8.915 -0.3294 -0.6106  2.0312
  506MOL0     O68176   0.212   9.196  10.719  0.7739 -0.0581  0.4126
  506MOL0     C68177   0.297   9.274  10.764  0.2764  0.6967  0.6027
  506MOL0     O68178   0.359   9.364  10.694 -1.5440  0.6045  0.0412
  506MOL0     C68179   0.351   9.378  10.556  0.0773  0.0704 -0.3877
  506MOL0     C68180   0.368   9.507  10.509  1.2086 -0.3020  0.0545
  506MOL0     C68181   0.350   9.542  10.376 -1.2340  0.5521 -0.7129
  506MOL0     C68182   0.324   9.445  10.282 -0.6992 -0.1879  0.4831
  506MOL0     O68183   0.299   9.478  10.150 -0.2645 -0.5602 -0.0993
  506MOL0     C68184   0.190   9.415  10.076 -0.8070  0.2960  0.1436
  506MOL0     C68185   0.206   9.434   9.927 -0.8771  0.0753  0.3617
  506MOL0     C68186   0.078   9.410   9.849  0.0004  0.0736 -0.5393
  506MOL0     C68187   0.041   9.262   9.832  0.1842 -1.0171  0.2698
  506MOL0     C68188   0.126   9.192   9.730 -0.3000 -0.5370  1.1357
  506MOL0     C68189   0.042   9.078   9.675  0.0146  0.4971 -0.0918
  506MOL0     C68190   0.101   8.991   9.564 -0.5255  0.6579 -0.2841
  506MOL0     C68191   0.110   9.075   9.433 -0.3190 -0.3253 -0.0774
  506MOL0     N68192   0.159   8.982   9.330  0.1813  0.1573 -0.0211
  506MOL0     C68193   0.082   8.907   9.248 -0.3582  0.1779  0.5749
  506MOL0     C68194   0.161   8.873   9.144  0.3738 -0.4728  0.0105
  506MOL0     C68195   0.128   8.792   9.024 -0.0352  0.0270 -0.2007
  506MOL0     C68196   0.221   8.806   8.909  0.5636  1.3548  0.5607
  506MOL0     C68197   0.172   8.932   8.841  1.1906 -0.7242  0.4951
  506MOL0     C68198   0.255   8.958   8.712  0.2589 -0.3671 -0.5262
  506MOL0     O68199   0.203   9.064   8.634  0.1772 -0.5719 -0.4662
  506MOL0     C68200   0.248   9.069   8.506  1.0225 -0.9219  0.6011
  506MOL0     C68201   0.377   9.073   8.476 -0.5618  0.0777  0.3045
  506MOL0     C68202   0.418   9.094   8.343 -0.0701 -0.5196 -0.9972
  506MOL0     C68203   0.563   9.069   8.311  0.4174  0.3882 -0.2178
  506MOL0     C68204   0.323   9.114   8.241 -0.5582 -0.3999 -0.0684
  506MOL0     C68205   0.359   9.120   8.101  0.6529 -0.5196  0.0833
  506MOL0     O68206   0.268   9.196   8.032  0.7856  0.2610  0.4268
  506MOL0     C68207   0.304   9.257   7.914 -0.4189 -0.5112  0.4346
  506MOL0     C68208   0.300   9.193   7.799 -0.1395  0.6333  0.0255
  506MOL0     C68209   0.340   9.258   7.687  0.9020 -0.4166  0.4119
  506MOL0     C68210   0.385   9.396   7.686 -0.2488 -0.7719 -0.2288
  506MOL0     O68211   0.406   9.470   7.576 -0.0254  0.5823 -0.0699
  506MOL0     C68212   0.312   9.452   7.470 -0.7611  0.7090  0.1863
  506MOL0     C68213   0.162   9.446   7.511 -0.1153  0.0100 -0.6261
  506MOL0     C68214   0.068   9.442   7.389 -0.2676  0.7350  0.3688
  506MOL0     C68215   0.006   9.577   7.363 -0.0108  0.0889  0.2503
  506MOL0     C68216  -0.081   9.579   7.235 -0.0931  0.4888  0.5965
  506MOL0     C68217   0.009   9.556   7.105  0.3873  0.0662 -0.1364
  506MOL0     C68218  -0.066   9.565   6.958  0.3747 -0.2468 -0.3797
  506MOL0     C68219  -0.114   9.708   6.931  0.2210 -0.2345  0.0386
  506MOL0    Cl68220  -0.120   9.743   6.758 -0.1449 -0.2390 -0.2325
  506MOL0     C68221   0.398   9.458   7.807  0.0757 -0.4813 -0.5067
  506MOL0     C68222   0.350   9.394   7.923  0.5115  0.2839  0.5357
  506MOL0     O68223   0.460   9.066   8.053  0.3403  0.2653 -0.0107
  506MOL0     C68224   0.188   9.124   8.275  0.1185  0.5475 -0.2401
  506MOL0     C68225   0.150   9.104   8.413  0.0090  0.2394 -0.3373
  506MOL0     N68226   0.278   8.928   9.165 -0.6129 -0.3389 -0.3238
  506MOL0     N68227   0.285   8.998   9.273 -0.2286 -0.2770 -0.2862
  506MOL0     C68228   0.317   9.315  10.320 -0.1507  0.6638  0.0275
  506MOL0     C68229   0.325   9.278  10.456 -0.3861  0.3110 -0.4480
  506MOL0     C68230   0.339   9.255  10.910  0.3799 -0.4823  0.5168
  506MOL0     C68231   0.461   9.311  10.947  0.1157 -0.7703  0.4956
  506MOL0     C68232   0.522   9.275  11.068  0.4532  0.0813  0.2937
  506MOL0     C68233   0.449   9.203  11.165 -0.2209 -0.5432  0.0710
  506MOL0     O68234   0.517   9.176  11.275  0.1519  0.3085  0.2604
  506MOL0     C68235   0.465   9.105  11.390  1.5131 -0.4203  0.0041
  506MOL0     C68236   0.494   8.952  11.395 -0.7274 -0.6249 -0.2884
  506MOL0     C68237   0.499   8.897  11.543  1.0118 -0.2108 -0.6730
  506MOL0     C68238   0.640   8.912  11.611  0.7624 -0.2306 -0.1069
  506MOL0     C68239   0.623   8.926  11.758 -0.0403  0.3834 -0.6470
  506MOL0     C68240   0.609   8.926  11.884 -0.6802  0.4868  0.3798
  506MOL0     C68241   0.315   9.159  11.135  0.0802  0.2438  0.1615
  506MOL0     C68242   0.258   9.190  11.010 -0.1913  0.7004  0.2969
  506MOL0     H68243   0.386   9.579  10.588  0.7186 -2.0687  1.8517
  506MOL0     H68244   0.366   9.646  10.348 -0.1280  1.0730  1.5860
  506MOL0     H68245   0.190   9.308  10.095 -1.2866  0.3721  0.6025
  506MOL0     H68246   0.096   9.459  10.111 -1.9322 -0.4263 -1.8049
  506MOL0     H68247   0.253   9.528   9.895 -1.4667 -0.0754 -0.9932
  506MOL0     H68248   0.270   9.354   9.888 -1.3793 -1.1183  1.8983
  506MOL0     H68249  -0.001   9.469   9.897 -0.2366  0.3022 -1.2047
  506MOL0     H68250   0.098   9.457   9.752  0.0121  1.5217  0.1244
  506MOL0     H68251   0.039   9.206   9.926  0.1913  1.5060  1.8580
  506MOL0     H68252  -0.061   9.264   9.795  1.0198 -1.3118 -2.2344
  506MOL0     H68253   0.152   9.256   9.645 -5.1056 -1.5870 -1.4680
  506MOL0     H68254   0.220   9.156   9.772  0.7105 -1.2470 -1.5721
  506MOL0     H68255   0.029   9.010   9.760  4.8395 -0.5787  0.0846
  506MOL0     H68256  -0.050   9.111   9.625  0.2839  1.2945 -0.0716
  506MOL0     H68257   0.202   8.954   9.585 -0.3397  1.7717  0.9305
  506MOL0     H68258   0.030   8.910   9.546  2.0688 -1.8818  0.0656
  506MOL0     H68259   0.180   9.156   9.455 -1.2677  0.3309  0.6314
  506MOL0     H68260   0.015   9.112   9.393  0.0611  0.4556 -0.2639
  506MOL0     H68261  -0.020   8.872   9.247 -0.1398 -0.4622  0.0035
  506MOL0     H68262   0.141   8.687   9.051  2.4967 -0.2408 -2.0463
  506MOL0     H68263   0.026   8.810   8.988 -0.4562 -1.1254  0.3906
  506MOL0     H68264   0.215   8.718   8.844  0.0055  1.7543  0.0580
  506MOL0     H68265   0.327   8.819   8.931  0.8109  1.4112 -0.6114
  506MOL0     H68266   0.163   9.022   8.903  0.1796 -1.0610  0.8727
  506MOL0     H68267   0.065   8.923   8.816  1.2893 -0.8020  0.0935
  506MOL0     H68268   0.257   8.867   8.653  1.7921 -0.8025  0.1376
  506MOL0     H68269   0.352   8.995   8.749 -0.4695  2.0071 -0.8203
  506MOL0     H68270   0.456   9.048   8.546  1.8483 -2.1418 -2.8965
  506MOL0     H68271   0.563   8.973   8.259 -0.2064  0.4283 -0.3018
  506MOL0     H68272   0.603   9.150   8.249 -0.6419 -0.7343 -2.5102
  506MOL0     H68273   0.626   9.046   8.398  1.0939 -3.4316 -1.5223
  506MOL0     H68274   0.260   9.092   7.804 -0.3526  0.7867  2.8943
  506MOL0     H68275   0.330   9.207   7.591 -1.7526 -2.4501  1.6400
  506MOL0     H68276   0.325   9.544   7.412  1.8051 -0.9223 -2.0728
  506MOL0     H68277   0.338   9.368   7.405  1.1979  2.1373 -0.9963
  506MOL0     H68278   0.133   9.355   7.564 -2.0617  0.6526 -0.4878
  506MOL0     H68279   0.147   9.532   7.577 -0.3354 -0.0044 -0.6563
  506MOL0     H68280  -0.003   9.360   7.403 -0.1887 -0.1528 -3.4256
  506MOL0     H68281   0.127   9.410   7.303 -1.2559  0.1126 -0.0953
  506MOL0     H68282  -0.057   9.594   7.450 -2.9467 -1.7029 -1.3576
  506MOL0     H68283   0.073   9.663   7.366  0.2823 -0.1515  2.6833
  506MOL0     H68284  -0.136   9.672   7.216 -1.6829 -0.6765 -0.8299
  506MOL0     H68285  -0.164   9.509   7.248 -1.9069  2.2115 -1.0303
  506MOL0     H68286   0.091   9.627   7.104  0.5565  0.0889  3.3869
  506MOL0     H68287   0.051   9.456   7.095  1.5266  0.7635 -3.9800
  506MOL0     H68288  -0.152   9.497   6.958 -2.4453  2.9799  0.7945
  506MOL0     H68289  -0.000   9.541   6.875  0.9218  0.3056 -0.1156
  506MOL0     H68290  -0.044   9.779   6.976  0.2328 -0.5176  0.4738
  506MOL0     H68291  -0.205   9.739   6.983  0.3882 -1.0911  0.8703
  506MOL0     H68292   0.435   9.558   7.826  0.6145 -0.1315 -3.0661
  506MOL0     H68293   0.350   9.456   8.012 -2.2305  3.0176 -1.1507
  506MOL0     H68294   0.119   9.151   8.195  1.5615  0.5364 -1.5503
  506MOL0     H68295   0.049   9.107   8.452 -1.0277 -1.3546 -2.6593
  506MOL0     H68296   0.307   9.238  10.245  0.1709  1.7843 -1.2024
  506MOL0     H68297   0.315   9.174  10.486  0.1931  0.3150 -0.2423
  506MOL0     H68298   0.519   9.366  10.873 -1.0976 -0.9319 -0.6094
  506MOL0     H68299   0.626   9.297  11.090  0.4049  0.2634  0.3458
  506MOL0     H68300   0.522   9.151  11.473  1.1927 -1.7188  0.9689
  506MOL0     H68301   0.359   9.128  11.394  1.9029  1.9387 -1.2688
  506MOL0     H68302   0.589   8.933  11.344  0.9198 -0.5149  2.5340
  506MOL0     H68303   0.420   8.903  11.331 -1.5923  2.8664 -2.2285
  506MOL0     H68304   0.474   8.790  11.542 -2.0339  0.3920 -0.2080
  506MOL0     H68305   0.422   8.943  11.606  2.3053  2.0368 -0.6325
  506MOL0     H68306   0.695   9.001  11.578 -2.7646  2.0328 -0.4213
  506MOL0     H68307   0.710   8.830  11.590  4.4217  2.6393 -0.2195
  506MOL0     H68308   0.588   8.942  11.988  3.8073 -0.7989  1.6816
  506MOL0     H68309   0.256   9.104  11.207  1.0042 -0.0974  0.6779
  506MOL0     H68310   0.159   9.154  10.984  0.4395 -1.8818  1.1560
  507MOL0     O68311   3.406   0.041   7.585 -0.1714 -0.2785 -0.1627
  507MOL0     C68312   3.509   0.105   7.600  0.4289 -0.1584  0.5702
  507MOL0     O68313   3.574   0.169   7.492  0.4405  0.6373 -0.1613
  507MOL0     C68314   3.558   0.133   7.362 -0.9821  0.6562 -0.2159
  507MOL0     C68315   3.501   0.009   7.317 -1.1206  0.7514 -0.4976
  507MOL0     C68316   3.493  -0.017   7.180  0.0972 -0.4672 -0.3390
  507MOL0     C68317   3.538   0.074   7.087 -0.9671 -0.2740 -0.2107
  507MOL0     O68318   3.513   0.039   6.956 -0.5348 -0.2199 -0.0807
  507MOL0     C68319   3.397   0.125   6.921  0.8855 -0.1304  0.3293
  507MOL0     C68320   3.362   0.106   6.774 -0.4749 -0.4110 -0.1064
  507MOL0     C68321   3.346  -0.044   6.741 -0.3739 -0.2053  0.4887
  507MOL0     C68322   3.204  -0.067   6.674  0.3869  0.1158  0.1760
  507MOL0     C68323   3.182  -0.207   6.612 -0.8767  0.0210 -0.4833
  507MOL0     C68324   3.216  -0.315   6.711  0.6345  1.1475 -0.8066
  507MOL0     C68325   3.190  -0.449   6.646 -0.5082  0.0284 -0.5332
  507MOL0     C68326   3.244  -0.569   6.734  0.2380 -1.0090  0.0653
  507MOL0     N68327   3.179  -0.586   6.863  0.3660 -0.1239 -0.2872
  507MOL0     C68328   3.053  -0.535   6.897 -0.3111 -0.8135 -0.2655
  507MOL0     C68329   3.022  -0.613   7.005  1.1257  0.5030  0.2329
  507MOL0     C68330   2.886  -0.598   7.073  0.4102 -0.0863  0.6206
  507MOL0     C68331   2.836  -0.714   7.153 -0.8745 -1.2064 -0.1140
  507MOL0     C68332   2.697  -0.679   7.200 -0.9355 -0.6471  0.1967
  507MOL0     C68333   2.631  -0.792   7.276  0.4236 -0.1610 -0.6834
  507MOL0     O68334   2.566  -0.883   7.189 -0.7338 -0.5745  0.2428
  507MOL0     C68335   2.451  -0.940   7.222  0.0157 -0.1476  0.2075
  507MOL0     C68336   2.426  -1.075   7.192  0.0384  0.2503 -0.0758
  507MOL0     C68337   2.305  -1.138   7.228 -0.1405  0.6065 -0.5181
  507MOL0     C68338   2.263  -1.274   7.172 -0.1028 -0.5374  0.6997
  507MOL0     C68339   2.224  -1.075   7.326  0.3631  0.1526  0.5184
  507MOL0     C68340   2.120  -1.136   7.416 -0.1691  0.2172 -0.3798
  507MOL0     O68341   2.125  -1.271   7.447 -0.4626 -0.3503 -0.5565
  507MOL0     C68342   2.065  -1.326   7.556  0.0108 -0.1885  0.0440
  507MOL0     C68343   2.148  -1.423   7.619  0.8685 -0.5564 -0.3816
  507MOL0     C68344   2.099  -1.485   7.733 -1.3258  0.4521 -1.3173
  507MOL0     C68345   1.982  -1.451   7.792 -0.1735 -0.4742  0.2582
  507MOL0     O68346   1.926  -1.523   7.895  0.6551  0.9148  0.1706
  507MOL0     C68347   1.956  -1.661   7.908 -0.9428 -0.6306 -0.4631
  507MOL0     C68348   1.829  -1.740   7.970 -0.3326 -0.0371  0.7073
  507MOL0     C68349   1.795  -1.731   8.111  0.9458 -0.0650  1.0234
  507MOL0     C68350   1.782  -1.586   8.161  0.5516 -0.4165 -1.0722
  507MOL0     C68351   1.703  -1.567   8.300  0.5083 -0.9488 -0.3627
  507MOL0     C68352   1.750  -1.653   8.414 -0.5875 -0.2505 -0.8972
  507MOL0     C68353   1.620  -1.725   8.460 -0.5795 -0.1082  0.2616
  507MOL0     C68354   1.658  -1.795   8.591 -1.0692 -0.6159 -0.2086
  507MOL0    Cl68355   1.580  -1.948   8.626  0.8138  0.1784  0.5589
  507MOL0     C68356   1.901  -1.356   7.732 -0.1529 -0.5498 -0.5456
  507MOL0     C68357   1.942  -1.295   7.608  0.9690  1.0154  0.2506
  507MOL0     O68358   2.035  -1.060   7.455  0.4067  0.4872  0.0374
  507MOL0     C68359   2.245  -0.933   7.346  0.2317  0.0196  0.3702
  507MOL0     C68360   2.350  -0.860   7.282  0.2059  0.2703 -0.1867
  507MOL0     N68361   3.124  -0.710   7.031  0.3734 -0.0304 -0.4319
  507MOL0     N68362   3.213  -0.690   6.945 -1.2485  0.6812  0.0411
  507MOL0     C68363   3.597   0.186   7.124 -1.1125 -0.4208  0.1825
  507MOL0     C68364   3.615   0.217   7.260 -0.0123 -0.7956 -1.1416
  507MOL0     C68365   3.569   0.104   7.732 -0.0522  0.9147 -0.6304
  507MOL0     C68366   3.694   0.154   7.749 -0.4869 -0.2782  0.1182
  507MOL0     C68367   3.741   0.167   7.872  0.5977 -0.7007  0.0902
  507MOL0     C68368   3.673   0.118   7.989 -0.4454  0.3846 -0.4019
  507MOL0     O68369   3.711   0.153   8.117 -0.6828 -0.2303 -0.2484
  507MOL0     C68370   3.654   0.084   8.225 -0.1434  0.1195  0.6226
  507MOL0     C68371   3.721  -0.060   8.242  0.0284 -0.0400  0.3509
  507MOL0     C68372   3.871  -0.065   8.204 -0.4086  0.2553  0.1006
  507MOL0     C68373   3.962   0.006   8.308  0.6088  0.3603  0.3832
  507MOL0     C68374   3.952  -0.064   8.429 -0.5390  0.4682 -0.2848
  507MOL0     C68375   3.942  -0.087   8.545  0.4119  0.2456  0.4505
  507MOL0     C68376   3.548   0.056   7.969  0.0262  0.0761 -0.0332
  507MOL0     C68377   3.501   0.046   7.843 -0.0966  0.2926 -0.3755
  507MOL0     H68378   3.463  -0.058   7.393  1.8936  2.4771  2.8259
  507MOL0     H68379   3.452  -0.110   7.143  1.9793 -1.8294  0.8759
  507MOL0     H68380   3.317   0.102   6.993  1.7633 -1.3817  0.9424
  507MOL0     H68381   3.423   0.231   6.929  1.6345 -0.0627 -2.3096
  507MOL0     H68382   3.268   0.160   6.754  0.0089 -0.3606 -2.6803
  507MOL0     H68383   3.441   0.159   6.720 -2.1460  1.1463 -1.1358
  507MOL0     H68384   3.426  -0.063   6.669  1.6574  3.0239  1.6821
  507MOL0     H68385   3.374  -0.110   6.824  0.5861 -2.2977 -1.4107
  507MOL0     H68386   3.133  -0.054   6.756  2.2139 -0.8072  1.9913
  507MOL0     H68387   3.188   0.010   6.597 -1.7369 -0.5582 -0.1138
  507MOL0     H68388   3.082  -0.220   6.572 -0.6175  0.4471 -1.2876
  507MOL0     H68389   3.248  -0.211   6.525 -0.9899  0.9686 -0.6207
  507MOL0     H68390   3.323  -0.317   6.731  0.5325 -0.2631 -0.2727
  507MOL0     H68391   3.155  -0.320   6.802 -0.1725 -0.9613 -1.3941
  507MOL0     H68392   3.083  -0.471   6.633 -0.3383 -1.6353  0.5485
  507MOL0     H68393   3.247  -0.442   6.553  0.2855  2.3358  0.0794
  507MOL0     H68394   3.353  -0.563   6.745 -0.0506  1.4787  2.7947
  507MOL0     H68395   3.230  -0.658   6.671 -2.4749  0.7048 -1.9611
  507MOL0     H68396   3.004  -0.449   6.854  1.5686  1.4063  1.7782
  507MOL0     H68397   2.905  -0.514   7.141 -0.0733 -0.0946  0.7661
  507MOL0     H68398   2.813  -0.565   6.999  1.2230 -0.3715 -0.3271
  507MOL0     H68399   2.903  -0.731   7.238 -1.3364  0.4397  0.6180
  507MOL0     H68400   2.836  -0.807   7.095  0.5736 -0.0205 -2.1655
  507MOL0     H68401   2.636  -0.657   7.111  0.5853 -2.8730 -1.4945
  507MOL0     H68402   2.688  -0.590   7.264 -1.3034 -0.7285  0.2655
  507MOL0     H68403   2.561  -0.746   7.346 -1.3652 -0.6289 -2.0987
  507MOL0     H68404   2.704  -0.848   7.335 -0.4837 -1.0012 -0.3388
  507MOL0     H68405   2.497  -1.116   7.121 -0.1000  0.2696 -0.2261
  507MOL0     H68406   2.159  -1.285   7.137 -0.4033 -2.7181  2.0474
  507MOL0     H68407   2.331  -1.299   7.090  2.2532 -0.6127  2.5698
  507MOL0     H68408   2.275  -1.359   7.240 -4.3757 -2.2152 -0.2665
  507MOL0     H68409   2.246  -1.460   7.594  0.7764 -2.3160  1.5656
  507MOL0     H68410   2.163  -1.565   7.769  0.9739  1.2827 -3.3451
  507MOL0     H68411   1.984  -1.707   7.813 -2.0399  0.8080 -1.5168
  507MOL0     H68412   2.037  -1.684   7.978 -1.2197 -3.6245 -0.9732
  507MOL0     H68413   1.743  -1.702   7.913  0.8272  0.5623 -0.7172
  507MOL0     H68414   1.820  -1.846   7.944 -0.3742 -0.0896  0.9331
  507MOL0     H68415   1.867  -1.788   8.171  2.6475  0.0038 -0.8452
  507MOL0     H68416   1.696  -1.774   8.126  0.8263  0.6675  2.6117
  507MOL0     H68417   1.875  -1.533   8.183 -1.1492  1.2827  3.1569
  507MOL0     H68418   1.719  -1.527   8.094 -2.9251  0.1001  2.2804
  507MOL0     H68419   1.594  -1.570   8.288  0.2973  0.5619  0.7672
  507MOL0     H68420   1.710  -1.463   8.332 -1.5274 -1.0852  0.7089
  507MOL0     H68421   1.839  -1.710   8.387  1.1900  2.0730 -0.3309
  507MOL0     H68422   1.783  -1.600   8.504 -1.5332 -2.2816  0.7202
  507MOL0     H68423   1.592  -1.801   8.386 -0.9269  0.5441 -0.2940
  507MOL0     H68424   1.530  -1.663   8.461 -0.8133 -0.1426 -3.5238
  507MOL0     H68425   1.649  -1.724   8.673 -3.9055  2.6224 -2.9694
  507MOL0     H68426   1.766  -1.804   8.601 -0.4536  2.2085 -2.7099
  507MOL0     H68427   1.809  -1.328   7.782  0.2120 -2.2679  1.2347
  507MOL0     H68428   1.874  -1.235   7.548  0.9014 -1.1030 -1.9423
  507MOL0     H68429   2.178  -0.877   7.411  0.9272  0.2976  0.8531
  507MOL0     H68430   2.371  -0.755   7.299 -1.1010  0.4564  0.4708
  507MOL0     H68431   3.646   0.244   7.047 -0.2670 -0.7253  0.4799
  507MOL0     H68432   3.649   0.317   7.288 -2.0281 -1.0718  3.0845
  507MOL0     H68433   3.760   0.187   7.670  2.1680 -2.6710  1.1412
  507MOL0     H68434   3.829   0.229   7.881  1.1604 -1.0780 -2.0431
  507MOL0     H68435   3.673   0.142   8.316  3.5357  1.6929 -0.9498
  507MOL0     H68436   3.547   0.065   8.219 -0.0252 -0.2736 -0.4317
  507MOL0     H68437   3.669  -0.124   8.170  1.8871 -0.5536 -0.5850
  507MOL0     H68438   3.708  -0.097   8.344  1.0782 -0.8849  0.1890
  507MOL0     H68439   3.882  -0.016   8.106 -1.0340  0.6677  0.2294
  507MOL0     H68440   3.913  -0.165   8.191  0.1388  0.7403 -2.2401
  507MOL0     H68441   3.921   0.108   8.305 -0.9963 -0.2680 -0.6460
  507MOL0     H68442   4.068   0.007   8.281  0.3234 -2.6404 -1.2538
  507MOL0     H68443   3.943  -0.079   8.652  0.7237 -0.6757  0.5200
  507MOL0     H68444   3.485   0.014   8.046  1.0515 -1.3815  0.0434
  507MOL0     H68445   3.407  -0.004   7.824  2.3285 -3.5233 -4.0001
  508MOL0     O68446   0.635  11.268   1.849 -0.1779 -0.4309 -0.0860
  508MOL0     C68447   0.758  11.266   1.828  0.2098  0.1230  0.5759
  508MOL0     O68448   0.850  11.352   1.873 -0.1216 -0.0647 -0.8130
  508MOL0     C68449   0.815  11.420   1.984 -0.7734  0.6728 -1.6033
  508MOL0     C68450   0.862  11.383   2.116 -0.3767  0.1940 -0.4017
  508MOL0     C68451   0.817  11.454   2.218 -0.4531 -0.5505 -0.6674
  508MOL0     C68452   0.749  11.570   2.207 -0.3126  0.4210  1.2081
  508MOL0     O68453   0.729  11.662   2.308  0.0619  1.3493 -1.2106
  508MOL0     C68454   0.660  11.614   2.427 -0.2147  0.5979 -0.4034
  508MOL0     C68455   0.613  11.729   2.529  0.2887  0.6419  0.0618
  508MOL0     C68456   0.546  11.850   2.467  0.5960  0.9303  0.2235
  508MOL0     C68457   0.564  11.960   2.563 -0.2098 -0.0396 -0.9711
  508MOL0     C68458   0.477  12.077   2.525  0.3093 -0.7420  0.1189
  508MOL0     C68459   0.513  12.211   2.596  0.1093 -0.2479  0.3694
  508MOL0     C68460   0.452  12.336   2.535 -0.1102 -0.2964  0.1756
  508MOL0     C68461   0.424  12.446   2.639 -0.4202 -0.2078  0.0686
  508MOL0     N68462   0.340  12.412   2.750  0.9196 -0.5541  0.2722
  508MOL0     C68463   0.231  12.331   2.730 -0.2088 -0.6744 -0.6066
  508MOL0     C68464   0.164  12.353   2.839  0.5591  0.1642 -0.2024
  508MOL0     C68465   0.026  12.295   2.860 -0.8674 -0.7109 -0.6657
  508MOL0     C68466  -0.066  12.330   2.742  0.2172  0.2500 -0.7188
  508MOL0     C68467  -0.216  12.286   2.771 -0.1682  0.3625 -0.9976
  508MOL0     C68468  -0.309  12.327   2.656  1.1432 -0.1580  0.0152
  508MOL0     O68469  -0.398  12.429   2.703 -0.3804  0.6758  1.5567
  508MOL0     C68470  -0.527  12.397   2.742 -0.5943  0.3812 -0.7079
  508MOL0     C68471  -0.641  12.476   2.724  0.9244  0.1652 -0.7801
  508MOL0     C68472  -0.773  12.442   2.774 -0.1976  0.2312 -0.5273
  508MOL0     C68473  -0.888  12.527   2.739  0.3811 -0.3592 -0.3742
  508MOL0     C68474  -0.794  12.322   2.853  0.1582 -0.4900 -0.5225
  508MOL0     C68475  -0.919  12.281   2.930  0.0609  0.0493  0.4394
  508MOL0     O68476  -1.019  12.371   2.960 -0.1101 -0.9775  0.5409
  508MOL0     C68477  -1.141  12.327   3.001  0.7587 -0.1723  0.3284
  508MOL0     C68478  -1.253  12.380   2.936  0.6615 -0.5243  0.0000
  508MOL0     C68479  -1.383  12.343   2.963 -0.0968 -0.0891 -0.3523
  508MOL0     C68480  -1.407  12.261   3.071  0.7544 -0.0923 -0.5235
  508MOL0     O68481  -1.534  12.234   3.106  0.0197  0.8835 -0.4239
  508MOL0     C68482  -1.565  12.170   3.224 -0.1774  0.9634 -0.7221
  508MOL0     C68483  -1.716  12.187   3.253  0.2517 -0.4486 -0.2093
  508MOL0     C68484  -1.762  12.114   3.383 -0.9124 -0.3095  0.3108
  508MOL0     C68485  -1.913  12.148   3.416 -0.2862  0.3589 -0.0696
  508MOL0     C68486  -1.965  12.073   3.535 -0.0133  0.2206 -0.3753
  508MOL0     C68487  -1.962  11.917   3.519 -0.1686 -0.1403 -0.0595
  508MOL0     C68488  -2.032  11.832   3.627  0.1627  0.5975 -0.3480
  508MOL0     C68489  -2.170  11.880   3.640  0.2233  0.1470 -0.0686
  508MOL0    Cl68490  -2.262  11.749   3.731  0.1093  0.3502  0.0005
  508MOL0     C68491  -1.301  12.204   3.141 -0.0097 -0.1763  0.4491
  508MOL0     C68492  -1.172  12.242   3.108  0.0423 -0.9575  0.1757
  508MOL0     O68493  -0.935  12.163   2.960  0.6463  0.0878 -0.0087
  508MOL0     C68494  -0.681  12.236   2.857  0.4695 -0.4262  0.1813
  508MOL0     C68495  -0.554  12.274   2.811  0.1202  0.3497  0.0384
  508MOL0     N68496   0.217  12.454   2.907 -0.8959 -0.3635 -0.0071
  508MOL0     N68497   0.329  12.489   2.858  0.1382  0.6587  0.8843
  508MOL0     C68498   0.700  11.614   2.079  0.6414  0.0636 -0.0618
  508MOL0     C68499   0.731  11.534   1.970  0.0319 -0.3701  0.2931
  508MOL0     C68500   0.808  11.147   1.756  0.3149 -0.2430 -0.0932
  508MOL0     C68501   0.931  11.102   1.787  0.3144  1.5853 -0.0210
  508MOL0     C68502   0.965  10.975   1.729  0.5645  0.4763 -0.1441
  508MOL0     C68503   0.877  10.897   1.659 -0.1662  1.2350  0.6466
  508MOL0     O68504   0.935  10.771   1.634  0.3505  0.0140  0.9337
  508MOL0     C68505   0.857  10.674   1.564 -0.1012  0.1408  0.8984
  508MOL0     C68506   0.868  10.704   1.406 -0.0871 -0.5351 -0.3823
  508MOL0     C68507   0.811  10.582   1.327 -1.0541  0.1102 -0.1025
  508MOL0     C68508   0.717  10.639   1.225 -0.5793  0.3108 -0.3270
  508MOL0     C68509   0.597  10.721   1.287 -0.3262 -0.2988  0.5289
  508MOL0     C68510   0.521  10.799   1.340  0.3372 -0.2712  0.4122
  508MOL0     C68511   0.751  10.939   1.631 -0.2792  1.3246 -0.7293
  508MOL0     C68512   0.719  11.068   1.666  1.2391  0.7523 -1.5044
  508MOL0     H68513   0.942  11.311   2.126  0.8898  1.2590 -2.1936
  508MOL0     H68514   0.861  11.419   2.311 -0.6239 -1.1148 -0.7956
  508MOL0     H68515   0.570  11.554   2.411 -0.9135  1.5156 -0.0036
  508MOL0     H68516   0.726  11.552   2.489  1.0165  1.2834 -0.9906
  508MOL0     H68517   0.537  11.680   2.589 -1.6287 -1.7613 -3.8939
  508MOL0     H68518   0.707  11.745   2.583  1.9281  1.2156 -2.7402
  508MOL0     H68519   0.597  11.889   2.378 -0.1367  0.4109 -0.4370
  508MOL0     H68520   0.440  11.832   2.451  0.3716  1.2367  1.2601
  508MOL0     H68521   0.542  11.932   2.666 -1.4679  1.8978 -0.6622
  508MOL0     H68522   0.672  11.981   2.559 -0.0246 -0.3458  1.3569
  508MOL0     H68523   0.478  12.095   2.417  1.7953  1.8470  0.5103
  508MOL0     H68524   0.380  12.060   2.572  0.3546  1.9217  1.3516
  508MOL0     H68525   0.485  12.198   2.701 -1.2013 -0.6504 -0.0087
  508MOL0     H68526   0.620  12.232   2.597 -0.3491  2.4164  0.1055
  508MOL0     H68527   0.508  12.374   2.449 -0.0560  0.0778  0.3724
  508MOL0     H68528   0.359  12.293   2.498 -1.1167  0.0623  2.1364
  508MOL0     H68529   0.384  12.534   2.587  3.2390  0.7657 -1.4421
  508MOL0     H68530   0.518  12.487   2.676  1.5422 -0.0873 -4.3905
  508MOL0     H68531   0.197  12.271   2.646 -1.3600 -1.1799  0.1929
  508MOL0     H68532   0.039  12.187   2.852 -3.0921 -1.0378 -0.5019
  508MOL0     H68533  -0.011  12.332   2.956 -0.6050 -1.8840 -0.0948
  508MOL0     H68534  -0.019  12.277   2.659  2.9824  3.3695 -1.3668
  508MOL0     H68535  -0.062  12.437   2.717  1.4910  1.2833  3.0779
  508MOL0     H68536  -0.243  12.339   2.862 -1.2011 -1.9838  0.1506
  508MOL0     H68537  -0.221  12.182   2.805  2.0031 -0.1182 -1.9430
  508MOL0     H68538  -0.375  12.246   2.624 -1.0685  1.1457  1.0797
  508MOL0     H68539  -0.253  12.348   2.564  0.4547  0.4197 -0.2786
  508MOL0     H68540  -0.633  12.574   2.679 -0.4894  1.1475  0.9630
  508MOL0     H68541  -0.985  12.480   2.719  0.1917  1.1953 -3.6470
  508MOL0     H68542  -0.891  12.607   2.814  1.0758 -1.3339  0.7322
  508MOL0     H68543  -0.873  12.582   2.646  0.7743  1.1668  0.5417
  508MOL0     H68544  -1.230  12.444   2.852 -0.1101 -0.8448 -0.4703
  508MOL0     H68545  -1.465  12.386   2.906  0.1215  2.2989  0.9941
  508MOL0     H68546  -1.535  12.066   3.215 -1.2662  0.7787 -2.6698
  508MOL0     H68547  -1.501  12.209   3.304 -1.9560  1.6688  0.4118
  508MOL0     H68548  -1.745  12.291   3.272 -0.4870 -0.7081  0.1178
  508MOL0     H68549  -1.765  12.151   3.162 -1.0871  3.5467 -1.2739
  508MOL0     H68550  -1.695  12.138   3.466 -2.0318  0.3372  1.0700
  508MOL0     H68551  -1.761  12.006   3.367  0.1360 -0.8052  3.1506
  508MOL0     H68552  -1.922  12.255   3.432  1.5940  0.4132  0.9043
  508MOL0     H68553  -1.982  12.123   3.335 -3.4907  0.1807  2.4966
  508MOL0     H68554  -2.071  12.098   3.543 -0.1135  0.2973 -1.7423
  508MOL0     H68555  -1.928  12.108   3.632 -1.0984  1.9672 -0.5650
  508MOL0     H68556  -2.002  11.890   3.421  2.0717  0.8109 -1.3151
  508MOL0     H68557  -1.860  11.878   3.526 -1.0907 -2.4630  2.2510
  508MOL0     H68558  -2.005  11.841   3.733 -3.0110 -3.5582  1.1167
  508MOL0     H68559  -2.034  11.726   3.601  0.4192  0.0186  1.7908
  508MOL0     H68560  -2.216  11.889   3.541  0.0813 -3.0704 -0.3942
  508MOL0     H68561  -2.182  11.973   3.696  1.9338  0.2057  0.2438
  508MOL0     H68562  -1.308  12.134   3.223  1.7549  0.8103  1.4883
  508MOL0     H68563  -1.091  12.194   3.162  1.7579  3.7477  2.3068
  508MOL0     H68564  -0.678  12.147   2.918  1.3478  2.5667  5.0335
  508MOL0     H68565  -0.479  12.207   2.852 -1.1383 -0.5266  1.0254
  508MOL0     H68566   0.643  11.706   2.080 -1.5769 -1.1361  3.2761
  508MOL0     H68567   0.687  11.561   1.874  2.0856 -3.7884 -1.8372
  508MOL0     H68568   0.996  11.157   1.855 -0.2886 -1.4839  3.3504
  508MOL0     H68569   1.058  10.927   1.757 -1.2757 -3.0625  0.4753
  508MOL0     H68570   0.904  10.577   1.585 -1.0431 -0.9180 -1.5095
  508MOL0     H68571   0.751  10.671   1.590 -0.2454  2.7190  0.8734
  508MOL0     H68572   0.974  10.706   1.376  0.1804 -0.1464  0.5730
  508MOL0     H68573   0.823  10.799   1.378 -1.4965 -1.8362 -2.9232
  508MOL0     H68574   0.754  10.512   1.389 -1.7172  1.9210  1.4471
  508MOL0     H68575   0.895  10.527   1.284 -1.3035  1.4443 -2.4622
  508MOL0     H68576   0.672  10.568   1.155 -0.0485 -1.3225  0.9124
  508MOL0     H68577   0.778  10.692   1.151 -2.4021  0.0971 -2.0702
  508MOL0     H68578   0.458  10.870   1.389  0.4188  0.2592 -0.2333
  508MOL0     H68579   0.675  10.883   1.578  0.1121  0.3090 -0.2427
  508MOL0     H68580   0.622  11.114   1.654  0.6454  0.1217  0.4019
  509MOL0     O68581   7.982   2.065   1.627 -0.7883 -0.1236  0.4123
  509MOL0     C68582   7.972   1.942   1.622  0.1257 -0.5294  0.1154
  509MOL0     O68583   7.884   1.871   1.705  0.1584  0.0668 -0.9720
  509MOL0     C68584   7.786   1.924   1.784 -0.0092  0.0519  0.2735
  509MOL0     C68585   7.797   2.047   1.865 -0.3849 -0.5201  0.6812
  509MOL0     C68586   7.687   2.113   1.923  0.3177 -0.6086 -0.9961
  509MOL0     C68587   7.561   2.057   1.921  0.5413  0.7699 -0.9115
  509MOL0     O68588   7.458   2.132   1.969  0.5038  0.0055 -0.2049
  509MOL0     C68589   7.328   2.112   1.922 -0.4331  0.1876 -0.0344
  509MOL0     C68590   7.258   2.003   2.008  0.4454 -0.4939 -0.5703
  509MOL0     C68591   7.204   2.057   2.143  0.5525 -1.0487  0.1421
  509MOL0     C68592   7.299   2.101   2.254  0.4864 -0.1949  0.4673
  509MOL0     C68593   7.350   1.976   2.336 -0.2020  0.0790  0.1823
  509MOL0     C68594   7.448   2.004   2.458 -0.2747  0.4270  0.8421
  509MOL0     C68595   7.587   2.056   2.402  0.5414 -0.7110 -0.8659
  509MOL0     C68596   7.688   1.947   2.436 -0.6537  0.9735  0.7729
  509MOL0     N68597   7.824   1.971   2.387  0.6039 -0.2879  0.1382
  509MOL0     C68598   7.863   1.996   2.260 -0.7286 -0.2009 -0.3362
  509MOL0     C68599   8.000   2.011   2.273  0.0940 -0.6376  0.0960
  509MOL0     C68600   8.096   2.055   2.164 -0.0850 -0.6224  0.1014
  509MOL0     C68601   8.096   1.949   2.052 -0.2941  0.3156 -0.3751
  509MOL0     C68602   8.176   1.976   1.923  0.7745 -0.3532  1.0076
  509MOL0     C68603   8.336   1.986   1.956 -0.2868  0.2518 -0.6741
  509MOL0     O68604   8.406   1.996   1.830 -0.9949  0.8617  0.5341
  509MOL0     C68605   8.512   1.916   1.823  0.5323 -0.4178  0.8958
  509MOL0     C68606   8.607   1.891   1.922  0.3257 -1.0959 -0.2898
  509MOL0     C68607   8.700   1.797   1.910 -0.5133 -0.4490  0.6978
  509MOL0     C68608   8.795   1.772   2.024 -0.6085  0.6998 -0.0911
  509MOL0     C68609   8.716   1.724   1.788 -0.5476 -0.7160  0.8794
  509MOL0     C68610   8.816   1.621   1.741 -1.0563 -1.1134 -0.8673
  509MOL0     O68611   8.877   1.531   1.825  0.0176 -0.3598 -0.1823
  509MOL0     C68612   8.984   1.453   1.781 -0.6481  0.8932 -1.2392
  509MOL0     C68613   8.969   1.330   1.720 -0.4055  0.0794 -0.7777
  509MOL0     C68614   9.075   1.251   1.687  0.0150  0.8386  0.4717
  509MOL0     C68615   9.202   1.289   1.724  0.3513 -0.2101 -0.0782
  509MOL0     O68616   9.303   1.201   1.709  0.5655 -0.4047 -0.4916
  509MOL0     C68617   9.420   1.258   1.649 -0.6160 -0.3865 -0.1743
  509MOL0     C68618   9.461   1.171   1.532 -0.8934 -0.1662  0.0918
  509MOL0     C68619   9.576   1.238   1.458  0.0428  0.5044 -0.0816
  509MOL0     C68620   9.618   1.149   1.335  0.4422  0.4750  0.7417
  509MOL0     C68621   9.724   1.049   1.368  0.3466  0.8760  0.3970
  509MOL0     C68622   9.778   0.999   1.228 -0.0790  0.1659 -0.9538
  509MOL0     C68623   9.864   0.877   1.243  0.0373  0.1083  0.7140
  509MOL0     C68624   9.890   0.814   1.111  0.0846  1.1690 -0.3581
  509MOL0    Cl68625   9.951   0.652   1.152  0.3173 -0.3162  0.0122
  509MOL0     C68626   9.220   1.411   1.796 -0.2931 -0.1896  0.6245
  509MOL0     C68627   9.114   1.495   1.819  0.3726 -0.1187 -0.4567
  509MOL0     O68628   8.864   1.640   1.624  0.0912 -0.6570  0.2821
  509MOL0     C68629   8.623   1.759   1.682  0.2224  0.1629  0.1482
  509MOL0     C68630   8.511   1.841   1.715 -0.1442  0.4590  0.7633
  509MOL0     N68631   8.030   2.023   2.405 -0.3184 -0.4994 -0.0404
  509MOL0     N68632   7.926   1.984   2.469  0.3143 -0.6105 -0.4375
  509MOL0     C68633   7.550   1.926   1.872  0.5525  0.4154  0.3149
  509MOL0     C68634   7.662   1.855   1.805  0.1489 -1.1299  0.6147
  509MOL0     C68635   8.050   1.869   1.519  0.1801 -1.0425 -0.2706
  509MOL0     C68636   8.142   1.938   1.445 -0.3703  0.3161  0.2683
  509MOL0     C68637   8.223   1.874   1.341  0.1088  0.6193 -0.5793
  509MOL0     C68638   8.210   1.739   1.321 -0.1472  0.4302  0.4994
  509MOL0     O68639   8.284   1.666   1.227  0.2334 -0.6406  0.0781
  509MOL0     C68640   8.364   1.743   1.133 -0.3400 -1.0915 -0.2992
  509MOL0     C68641   8.403   1.665   1.013  0.6513  1.0994 -0.1201
  509MOL0     C68642   8.531   1.700   0.942  0.3308 -0.4290 -0.1409
  509MOL0     C68643   8.524   1.838   0.874 -0.4246  0.8715 -0.6278
  509MOL0     C68644   8.447   1.832   0.751  0.3087 -0.1305  0.3145
  509MOL0     C68645   8.371   1.839   0.654  0.2085  0.1937  0.4131
  509MOL0     C68646   8.123   1.662   1.405 -0.1196 -0.1344  0.3220
  509MOL0     C68647   8.044   1.727   1.497 -0.1911 -0.2426 -0.3288
  509MOL0     H68648   7.896   2.089   1.852 -0.6153 -0.2392 -0.2950
  509MOL0     H68649   7.708   2.211   1.966 -0.3568  1.1590 -4.2965
  509MOL0     H68650   7.271   2.204   1.941  0.0366  1.3019 -3.2587
  509MOL0     H68651   7.317   2.108   1.813 -5.6108 -0.4983  0.2595
  509MOL0     H68652   7.174   1.981   1.941  1.0368 -0.9940 -1.1539
  509MOL0     H68653   7.322   1.920   2.037 -0.0722 -1.3118 -1.7005
  509MOL0     H68654   7.155   2.152   2.117  0.0355 -1.5620 -0.8390
  509MOL0     H68655   7.130   1.992   2.189  1.7239 -1.8595  0.9048
  509MOL0     H68656   7.384   2.154   2.210 -0.4638  2.9094  2.0750
  509MOL0     H68657   7.240   2.158   2.326  0.0942 -0.1719  0.1329
  509MOL0     H68658   7.258   1.937   2.380 -1.1909  1.7488 -0.3040
  509MOL0     H68659   7.380   1.903   2.260 -0.2979 -1.5225  1.6037
  509MOL0     H68660   7.398   2.086   2.512 -1.2113  0.2646  0.2514
  509MOL0     H68661   7.451   1.913   2.519  3.1132 -0.4096 -0.4030
  509MOL0     H68662   7.586   2.082   2.296  4.0404 -0.2312 -0.8931
  509MOL0     H68663   7.604   2.146   2.463 -1.9491 -0.4279 -0.4660
  509MOL0     H68664   7.647   1.861   2.384  0.3200  0.6826  0.4722
  509MOL0     H68665   7.695   1.932   2.545  0.7855 -1.3223  0.4365
  509MOL0     H68666   7.806   2.008   2.168 -0.2728 -2.5781 -1.0034
  509MOL0     H68667   8.059   2.152   2.128  0.0425  0.1049  1.8197
  509MOL0     H68668   8.193   2.078   2.209  0.3927  0.4621 -1.4231
  509MOL0     H68669   7.987   1.943   2.037 -1.7185  1.9701  6.1016
  509MOL0     H68670   8.130   1.851   2.087 -0.0613  0.8497  0.9713
  509MOL0     H68671   8.141   2.065   1.870  2.9357  0.6175  1.1273
  509MOL0     H68672   8.151   1.906   1.843 -1.6753  3.3768 -1.8221
  509MOL0     H68673   8.384   1.917   2.027  3.3446  3.1842  0.0602
  509MOL0     H68674   8.336   2.075   2.020 -0.7074 -0.6043  0.5663
  509MOL0     H68675   8.612   1.946   2.015 -0.9534 -4.4612  1.9757
  509MOL0     H68676   8.899   1.773   1.991 -0.1306  0.8163  1.3453
  509MOL0     H68677   8.786   1.857   2.092  1.8046 -1.0458  2.6663
  509MOL0     H68678   8.773   1.675   2.071 -0.6588  0.4000 -0.7276
  509MOL0     H68679   8.872   1.288   1.696 -1.8070  0.9341  2.6777
  509MOL0     H68680   9.058   1.153   1.645  1.0999  1.4455 -1.5188
  509MOL0     H68681   9.405   1.360   1.611  0.9485 -1.9436 -6.0899
  509MOL0     H68682   9.507   1.258   1.714 -0.8915  1.3869  0.2386
  509MOL0     H68683   9.493   1.070   1.561 -0.1363  1.2574  5.1297
  509MOL0     H68684   9.374   1.168   1.465 -0.9068  2.1981 -0.0747
  509MOL0     H68685   9.663   1.248   1.523  0.9678  0.7774 -1.3089
  509MOL0     H68686   9.543   1.339   1.431  1.5476  0.8932 -0.5780
  509MOL0     H68687   9.527   1.102   1.295  0.0567  3.8507 -3.0380
  509MOL0     H68688   9.650   1.219   1.258 -0.1244 -2.7605 -2.7588
  509MOL0     H68689   9.681   0.967   1.427 -1.8422  3.0536  2.0215
  509MOL0     H68690   9.816   1.081   1.416  0.8515 -0.0913  0.1032
  509MOL0     H68691   9.689   0.982   1.167 -1.4552  1.7721  0.5127
  509MOL0     H68692   9.837   1.077   1.178  0.3537  0.3626 -0.1555
  509MOL0     H68693   9.809   0.810   1.310  0.8775 -0.2935  1.0202
  509MOL0     H68694   9.958   0.898   1.296  1.3664 -5.8569  1.4911
  509MOL0     H68695   9.949   0.874   1.040 -2.0809  1.0242 -2.4212
  509MOL0     H68696   9.798   0.794   1.055  1.3721 -0.9548 -1.8754
  509MOL0     H68697   9.315   1.443   1.836 -1.2927  1.2545  1.9712
  509MOL0     H68698   9.137   1.582   1.879 -0.8680 -0.4696  0.5601
  509MOL0     H68699   8.645   1.705   1.591  1.0854 -0.4016  0.6767
  509MOL0     H68700   8.418   1.848   1.661 -0.0447 -2.6659 -0.0233
  509MOL0     H68701   7.448   1.889   1.860  0.6790  0.0978  0.2078
  509MOL0     H68702   7.644   1.755   1.767 -0.9598 -0.4993 -0.6018
  509MOL0     H68703   8.145   2.046   1.455 -2.2254  0.3270  1.0813
  509MOL0     H68704   8.296   1.936   1.290  0.7730  1.0436  0.8390
  509MOL0     H68705   8.297   1.822   1.099 -1.6855 -2.7892 -1.7866
  509MOL0     H68706   8.455   1.786   1.174  0.0659 -2.4441  0.2855
  509MOL0     H68707   8.320   1.658   0.942 -0.2785  0.0891  1.0200
  509MOL0     H68708   8.415   1.559   1.039  1.8021  1.2048 -0.1833
  509MOL0     H68709   8.551   1.640   0.853 -2.6864  0.5888 -1.6327
  509MOL0     H68710   8.619   1.688   1.007  2.1716  1.7739 -2.0627
  509MOL0     H68711   8.615   1.887   0.840 -1.8281  2.4591 -2.3311
  509MOL0     H68712   8.470   1.904   0.942  1.1641  0.2827  1.2982
  509MOL0     H68713   8.306   1.834   0.570  0.2033  2.6691  0.2064
  509MOL0     H68714   8.122   1.554   1.392 -0.9161 -0.1368  0.4043
  509MOL0     H68715   7.969   1.669   1.551 -4.2156  5.3675  1.0163
  510MOL0     O68716   6.637   1.669   3.812  0.1178 -0.0186 -0.9525
  510MOL0     C68717   6.715   1.630   3.723  0.3785 -0.0583 -0.6094
  510MOL0     O68718   6.708   1.517   3.660 -0.8554 -0.3197  0.2834
  510MOL0     C68719   6.627   1.415   3.686  0.2360  0.3962  0.0114
  510MOL0     C68720   6.682   1.293   3.702 -0.5705 -0.2855  0.0245
  510MOL0     C68721   6.601   1.183   3.748 -0.3987  0.2549 -0.6904
  510MOL0     C68722   6.463   1.196   3.773 -0.4296 -0.3610  0.2535
  510MOL0     O68723   6.386   1.086   3.795 -0.4368  0.3207 -0.3730
  510MOL0     C68724   6.244   1.093   3.771  0.4653 -0.2740 -0.4991
  510MOL0     C68725   6.177   0.970   3.830 -0.3046 -0.3024  0.2331
  510MOL0     C68726   6.023   0.980   3.838  0.8506 -0.1911 -0.3126
  510MOL0     C68727   5.962   0.849   3.882 -0.2483 -0.9225 -0.3180
  510MOL0     C68728   5.806   0.866   3.878  0.5745  0.2907 -0.8637
  510MOL0     C68729   5.741   0.725   3.848 -0.7713 -0.2748  0.1656
  510MOL0     C68730   5.584   0.724   3.879  0.0116 -0.3919  0.6830
  510MOL0     C68731   5.505   0.765   3.758 -0.6067 -0.4208 -0.3548
  510MOL0     N68732   5.359   0.776   3.771 -0.3430 -0.5857 -0.5343
  510MOL0     C68733   5.290   0.766   3.880 -0.3497  0.1915  0.3177
  510MOL0     C68734   5.160   0.759   3.849 -0.3387  0.0467  0.3279
  510MOL0     C68735   5.047   0.735   3.943  0.2658  0.2170  0.1470
  510MOL0     C68736   4.983   0.850   4.024 -0.7965  0.1110 -0.0567
  510MOL0     C68737   4.911   0.943   3.929 -0.6380 -0.3571 -0.0189
  510MOL0     C68738   4.835   1.050   3.991  0.6944 -0.2600  0.5463
  510MOL0     O68739   4.762   0.990   4.102  0.0794 -0.4846 -0.1327
  510MOL0     C68740   4.637   0.921   4.086 -0.2628 -1.1346  0.2851
  510MOL0     C68741   4.568   0.900   3.965 -0.1381 -0.5697  0.4826
  510MOL0     C68742   4.456   0.810   3.957 -0.4569 -0.2051  0.2199
  510MOL0     C68743   4.374   0.783   3.830 -0.7273 -0.1050  0.2499
  510MOL0     C68744   4.406   0.769   4.083  0.5277 -0.8817  0.3424
  510MOL0     C68745   4.281   0.693   4.102 -0.0972 -0.4176  0.1994
  510MOL0     O68746   4.204   0.711   4.212  0.1340 -0.3142  0.5879
  510MOL0     C68747   4.085   0.649   4.203  0.0771 -0.0756  0.4765
  510MOL0     C68748   4.077   0.525   4.260  0.2232 -0.4118 -1.0025
  510MOL0     C68749   3.962   0.450   4.241 -0.8228  0.6659 -0.8195
  510MOL0     C68750   3.840   0.502   4.180  0.0462  0.3650  0.2288
  510MOL0     O68751   3.737   0.411   4.164 -0.5392  0.3341  0.3167
  510MOL0     C68752   3.604   0.470   4.158 -0.2409 -0.0898 -0.4770
  510MOL0     C68753   3.504   0.360   4.166  0.4289  0.5774  0.5852
  510MOL0     C68754   3.517   0.248   4.059 -0.2624 -0.5167 -0.2613
  510MOL0     C68755   3.501   0.274   3.908  0.4960  0.0735 -0.2416
  510MOL0     C68756   3.569   0.171   3.821 -0.8271 -0.0989  0.6531
  510MOL0     C68757   3.564   0.209   3.659  0.3142  0.2526 -0.6605
  510MOL0     C68758   3.633   0.351   3.622 -0.3913  0.7761  0.3283
  510MOL0     C68759   3.686   0.349   3.481  0.4970  0.0464  0.1759
  510MOL0    Cl68760   3.843   0.279   3.497 -0.1038 -0.2053  0.4876
  510MOL0     C68761   3.847   0.643   4.139  0.4306  0.0222 -0.3458
  510MOL0     C68762   3.968   0.705   4.148  0.4494 -0.1791 -0.7755
  510MOL0     O68763   4.250   0.621   4.007  0.3832 -0.2627 -0.6093
  510MOL0     C68764   4.468   0.796   4.201 -0.3772 -0.3876 -0.6840
  510MOL0     C68765   4.588   0.867   4.204  0.0990  0.6846  0.1753
  510MOL0     N68766   5.157   0.779   3.716 -0.4080 -0.1606 -0.2960
  510MOL0     N68767   5.273   0.789   3.666 -0.1998  0.0308  0.3262
  510MOL0     C68768   6.418   1.327   3.760 -1.5234  0.0889 -0.2491
  510MOL0     C68769   6.495   1.433   3.716 -0.4476  0.6412  0.5555
  510MOL0     C68770   6.819   1.723   3.686 -0.6119  0.2647  0.3389
  510MOL0     C68771   6.825   1.861   3.722 -0.6420  0.2442  0.1130
  510MOL0     C68772   6.936   1.937   3.690 -0.2963 -0.4574  0.2009
  510MOL0     C68773   7.051   1.883   3.609  0.0231 -0.5468  0.4834
  510MOL0     O68774   7.154   1.963   3.569  0.2906 -0.4367  1.3692
  510MOL0     C68775   7.286   1.899   3.603 -0.1168  0.8771 -0.1657
  510MOL0     C68776   7.373   2.019   3.634  0.0421 -0.2479 -0.6433
  510MOL0     C68777   7.315   2.090   3.756  0.4020 -0.9441 -0.4466
  510MOL0     C68778   7.418   2.199   3.810  1.0219 -0.1081  1.2244
  510MOL0     C68779   7.437   2.308   3.710  0.4825  0.2099 -0.1685
  510MOL0     C68780   7.457   2.417   3.664  0.3728 -0.9136 -0.2297
  510MOL0     C68781   7.049   1.747   3.588  0.8049 -0.1024 -0.5854
  510MOL0     C68782   6.936   1.670   3.627  0.0943  0.6670  0.6031
  510MOL0     H68783   6.785   1.284   3.669 -1.3092  0.7255 -2.9520
  510MOL0     H68784   6.647   1.084   3.746  0.7652  0.6586  1.8912
  510MOL0     H68785   6.204   1.177   3.829 -1.6405 -1.3754 -0.2662
  510MOL0     H68786   6.219   1.099   3.665  0.0661  0.8869 -0.3513
  510MOL0     H68787   6.207   0.893   3.758 -2.1910 -2.0583  1.2144
  510MOL0     H68788   6.226   0.950   3.926  1.6034  1.7181 -0.2239
  510MOL0     H68789   5.991   1.062   3.903  2.9875  0.6165 -0.2331
  510MOL0     H68790   5.986   1.000   3.737  1.1182 -5.3325 -1.7052
  510MOL0     H68791   5.999   0.769   3.817 -2.6685 -3.2472  0.9947
  510MOL0     H68792   5.989   0.822   3.985 -3.6098 -0.8605  0.6870
  510MOL0     H68793   5.767   0.899   3.974 -0.3145 -0.1574 -1.0542
  510MOL0     H68794   5.768   0.944   3.812 -2.0852 -1.0158 -1.0315
  510MOL0     H68795   5.768   0.698   3.746  3.4305  2.2101  0.3887
  510MOL0     H68796   5.793   0.652   3.910  0.2004  0.0579 -0.2511
  510MOL0     H68797   5.550   0.625   3.911 -0.5575  0.1734  1.8565
  510MOL0     H68798   5.561   0.789   3.964 -0.6880  2.9400 -1.8415
  510MOL0     H68799   5.527   0.701   3.672 -1.7749 -2.4163  0.7473
  510MOL0     H68800   5.543   0.864   3.735 -3.5274  0.7108 -0.7528
  510MOL0     H68801   5.331   0.761   3.980  1.5732 -2.0225 -0.5268
  510MOL0     H68802   4.967   0.685   3.889 -0.8799  2.1883 -0.0759
  510MOL0     H68803   5.082   0.662   4.017  1.6507  1.6041  0.9253
  510MOL0     H68804   5.053   0.902   4.089 -2.3179  1.3866  0.6366
  510MOL0     H68805   4.911   0.802   4.092 -0.9171 -0.2157 -0.4091
  510MOL0     H68806   4.832   0.896   3.870 -0.7833  0.2169 -0.2943
  510MOL0     H68807   4.974   0.995   3.856 -1.5934  2.0169  0.7284
  510MOL0     H68808   4.766   1.094   3.918  0.0518  0.8453  1.7775
  510MOL0     H68809   4.908   1.124   4.027 -1.1249  0.3441  3.2342
  510MOL0     H68810   4.603   0.947   3.873  0.6657  0.0453  1.0962
  510MOL0     H68811   4.366   0.677   3.805  1.8269 -0.7919  1.9370
  510MOL0     H68812   4.269   0.808   3.850 -0.4529 -0.1583  1.9092
  510MOL0     H68813   4.420   0.843   3.751 -3.4288  0.5088 -0.9618
  510MOL0     H68814   4.155   0.464   4.304 -0.1813 -1.3488 -1.5425
  510MOL0     H68815   3.985   0.355   4.288  0.6559  2.6939  3.1009
  510MOL0     H68816   3.596   0.539   4.242  0.3366 -2.7660  1.9239
  510MOL0     H68817   3.595   0.518   4.060 -3.2542  2.1324  0.7327
  510MOL0     H68818   3.530   0.314   4.262  0.9250 -3.0788 -1.1380
  510MOL0     H68819   3.401   0.398   4.165 -0.3288 -1.3334  0.3860
  510MOL0     H68820   3.433   0.182   4.084 -1.7424  2.0569  2.2945
  510MOL0     H68821   3.617   0.208   4.079  1.0422  3.4648  2.4952
  510MOL0     H68822   3.397   0.275   3.874 -0.7941 -4.1657  2.8012
  510MOL0     H68823   3.543   0.373   3.889 -0.8908  0.6660 -0.3414
  510MOL0     H68824   3.522   0.078   3.854 -0.8944  0.9401  3.9290
  510MOL0     H68825   3.673   0.173   3.854 -0.8675  1.2311  0.7606
  510MOL0     H68826   3.620   0.135   3.603  0.4521  0.7001 -1.1231
  510MOL0     H68827   3.464   0.198   3.616  1.4570 -1.0454 -3.1825
  510MOL0     H68828   3.717   0.380   3.686  1.0735  0.6916 -1.4988
  510MOL0     H68829   3.558   0.429   3.643  0.1013  0.9265  1.6441
  510MOL0     H68830   3.693   0.454   3.451  6.5302  0.4426  1.7739
  510MOL0     H68831   3.617   0.299   3.412 -0.1219  0.2906  0.6145
  510MOL0     H68832   3.768   0.687   4.081  0.4994 -1.1198 -1.3534
  510MOL0     H68833   3.981   0.791   4.083 -0.3127 -0.9735 -2.0102
  510MOL0     H68834   4.422   0.763   4.293 -1.0539 -2.3441 -1.6504
  510MOL0     H68835   4.624   0.893   4.303 -1.3272 -3.6117  2.0504
  510MOL0     H68836   6.315   1.357   3.778 -2.3361 -1.6243 -1.7842
  510MOL0     H68837   6.454   1.533   3.719  1.4847  1.6557 -2.1803
  510MOL0     H68838   6.739   1.899   3.777  0.2867  0.6313  1.3212
  510MOL0     H68839   6.922   2.042   3.712 -0.7614 -0.9402  2.4661
  510MOL0     H68840   7.274   1.831   3.688  1.9706  2.1586  1.2409
  510MOL0     H68841   7.337   1.843   3.525  3.8295  2.1950  1.2439
  510MOL0     H68842   7.392   2.079   3.544  1.0896  2.2035  1.1252
  510MOL0     H68843   7.473   1.985   3.662  0.2689  2.1035  1.7516
  510MOL0     H68844   7.285   2.015   3.830  0.0800  1.7901  2.3723
  510MOL0     H68845   7.220   2.138   3.730  0.4281 -1.2433 -1.1291
  510MOL0     H68846   7.506   2.138   3.832  1.2660 -0.3840 -0.4124
  510MOL0     H68847   7.382   2.236   3.907 -1.5067  1.1067 -0.0843
  510MOL0     H68848   7.462   2.519   3.631 -1.2639 -0.6815  0.1809
  510MOL0     H68849   7.119   1.712   3.514 -0.4165  3.4319 -3.7377
  510MOL0     H68850   6.958   1.564   3.617  1.9454  1.1218 -0.5392
  511MOL0     O68851   3.737   9.113   0.204  0.4146  0.4385  0.4066
  511MOL0     C68852   3.669   9.020   0.260  0.2461 -0.5358 -0.0250
  511MOL0     O68853   3.719   8.900   0.304 -0.1187  0.0742  0.5556
  511MOL0     C68854   3.854   8.872   0.282 -0.0167 -0.1473  0.2406
  511MOL0     C68855   3.901   8.864   0.148 -0.1556  0.9561  0.2667
  511MOL0     C68856   4.042   8.853   0.122  0.1092  0.0699 -0.0413
  511MOL0     C68857   4.130   8.869   0.236 -0.3482  0.9934  0.5512
  511MOL0     O68858   4.271   8.863   0.231  0.1644 -0.2492 -0.5591
  511MOL0     C68859   4.350   8.814   0.121 -0.2965 -0.0150 -0.1824
  511MOL0     C68860   4.424   8.940   0.062  0.9745  0.6235 -1.2941
  511MOL0     C68861   4.314   9.033   0.003 -0.1225  0.1060  0.1079
  511MOL0     C68862   4.274   9.147   0.094 -0.0839  0.0295  0.1278
  511MOL0     C68863   4.169   9.231   0.020 -0.3826 -0.1711  0.2802
  511MOL0     C68864   4.119   9.340   0.115 -0.2152  0.2200 -0.2412
  511MOL0     C68865   4.067   9.454   0.026 -0.1108  0.0128  0.6679
  511MOL0     C68866   4.046   9.585   0.109  0.3356 -0.5566 -0.1244
  511MOL0     N68867   3.974   9.694   0.036 -0.1161 -0.2082  0.1603
  511MOL0     C68868   3.879   9.664  -0.063 -0.7869 -0.0203  0.1118
  511MOL0     C68869   3.878   9.762  -0.141  0.1726  0.3695  0.0587
  511MOL0     C68870   3.789   9.790  -0.262 -0.1481  0.1178 -0.1486
  511MOL0     C68871   3.826   9.700  -0.378 -0.5098 -0.9005 -0.7118
  511MOL0     C68872   3.976   9.727  -0.421 -0.2724 -0.0100 -0.0095
  511MOL0     C68873   4.016   9.869  -0.453  0.0030  0.3355 -1.1767
  511MOL0     O68874   4.144   9.871  -0.514  0.1426  0.3886 -0.7654
  511MOL0     C68875   4.256   9.834  -0.444  0.1941  0.8126 -0.2642
  511MOL0     C68876   4.263   9.837  -0.303 -0.3339 -0.2838 -0.1790
  511MOL0     C68877   4.382   9.797  -0.235  0.0909 -0.7952 -0.3563
  511MOL0     C68878   4.355   9.795  -0.087  0.0850  0.3842  0.0511
  511MOL0     C68879   4.498   9.759  -0.304  0.3922  0.6508  0.1956
  511MOL0     C68880   4.610   9.683  -0.245  0.8913 -0.2759  0.2175
  511MOL0     O68881   4.717   9.659  -0.327  0.0587 -0.0897 -0.5166
  511MOL0     C68882   4.831   9.586  -0.295  0.4209  0.3524 -0.2495
  511MOL0     C68883   4.834   9.486  -0.188 -0.4847  0.3934 -0.5410
  511MOL0     C68884   4.955   9.413  -0.162 -0.7918  0.2586  0.8771
  511MOL0     C68885   5.066   9.430  -0.247 -0.1470 -0.6274 -0.8541
  511MOL0     O68886   5.187   9.364  -0.221  0.2663  0.2668 -0.0423
  511MOL0     C68887   5.280   9.355  -0.331 -0.5442  0.3443 -0.7736
  511MOL0     C68888   5.410   9.289  -0.272 -0.6959 -0.3670  0.3949
  511MOL0     C68889   5.398   9.148  -0.205 -0.3019 -0.2778 -0.3806
  511MOL0     C68890   5.539   9.096  -0.158  0.3355 -0.2086 -0.1208
  511MOL0     C68891   5.540   8.952  -0.101  0.5387 -0.6336  0.0665
  511MOL0     C68892   5.680   8.901  -0.070  0.8858 -0.1912 -0.0029
  511MOL0     C68893   5.762   8.887  -0.199  0.3480 -0.1558 -0.3261
  511MOL0     C68894   5.897   8.834  -0.168  0.1694  0.1158  0.6673
  511MOL0    Cl68895   5.993   8.953  -0.086  0.4514  0.3713 -0.0495
  511MOL0     C68896   5.062   9.522  -0.345  0.7639 -0.5532 -0.6115
  511MOL0     C68897   4.944   9.595  -0.377  0.2024 -0.8394  0.9366
  511MOL0     O68898   4.605   9.645  -0.126  0.6826 -0.3608  0.4748
  511MOL0     C68899   4.492   9.789  -0.438 -0.1067 -0.0134  0.0568
  511MOL0     C68900   4.377   9.817  -0.513 -0.6032  0.3422  0.4840
  511MOL0     N68901   3.966   9.858  -0.091 -0.7378 -0.8663 -0.1397
  511MOL0     N68902   4.026   9.818   0.017  1.0021 -0.1330  0.8012
  511MOL0     C68903   4.078   8.887   0.367  0.4278 -0.1146  0.0467
  511MOL0     C68904   3.941   8.890   0.385 -0.4055  0.1532 -0.2275
  511MOL0     C68905   3.517   9.043   0.279  1.0028  0.6098  0.5037
  511MOL0     C68906   3.458   9.168   0.254  0.7298  0.0325  0.1731
  511MOL0     C68907   3.314   9.175   0.258 -0.1083  0.2954  0.0525
  511MOL0     C68908   3.230   9.071   0.278 -0.0532 -1.2099  0.3440
  511MOL0     O68909   3.098   9.103   0.266 -0.1559 -0.2896 -0.0148
  511MOL0     C68910   3.042   9.114   0.395 -0.3789  0.4744 -0.5961
  511MOL0     C68911   2.930   9.002   0.414  0.1934 -0.2708 -0.1955
  511MOL0     C68912   2.822   9.005   0.306 -1.0313  0.9980 -0.5481
  511MOL0     C68913   2.705   8.911   0.351  0.4714 -0.5820  0.2794
  511MOL0     C68914   2.753   8.772   0.337 -0.4415 -0.3566 -0.5709
  511MOL0     C68915   2.782   8.668   0.285 -0.2852  0.6984  0.0495
  511MOL0     C68916   3.292   8.952   0.324  0.6736  0.0866  0.1747
  511MOL0     C68917   3.431   8.930   0.323 -0.2449 -0.3399  0.1741
  511MOL0     H68918   3.826   8.868   0.070  0.6891 -0.5423 -0.6724
  511MOL0     H68919   4.076   8.843   0.020 -2.8335 -0.1396 -1.0923
  511MOL0     H68920   4.419   8.732   0.143 -0.8169 -0.3107  0.3774
  511MOL0     H68921   4.284   8.783   0.039  2.1608 -0.3543 -2.1730
  511MOL0     H68922   4.487   8.991   0.134  0.5163 -0.3665 -0.1555
  511MOL0     H68923   4.483   8.905  -0.024  0.1639 -0.9806 -1.2515
  511MOL0     H68924   4.360   9.082  -0.084  4.1462 -1.5770  1.1292
  511MOL0     H68925   4.224   8.980  -0.027  1.6462 -3.9587  1.3921
  511MOL0     H68926   4.233   9.109   0.188 -0.3478  2.6733  1.1554
  511MOL0     H68927   4.356   9.214   0.119 -1.4756  1.5365  0.8069
  511MOL0     H68928   4.208   9.272  -0.073  0.9083 -2.8957 -0.4862
  511MOL0     H68929   4.083   9.167  -0.003 -0.0869  0.1570 -1.9965
  511MOL0     H68930   4.039   9.297   0.176  0.9026  0.0901  1.1954
  511MOL0     H68931   4.205   9.371   0.175  0.0266  0.9120 -0.9192
  511MOL0     H68932   4.146   9.471  -0.048  2.0627  0.5189  2.9803
  511MOL0     H68933   3.980   9.423  -0.034  0.7842 -0.6115 -0.3295
  511MOL0     H68934   4.136   9.616   0.162 -1.2628  0.5752  2.0606
  511MOL0     H68935   3.983   9.561   0.195 -1.9326  0.2105 -1.4903
  511MOL0     H68936   3.828   9.568  -0.077  1.3900 -1.1602 -0.4117
  511MOL0     H68937   3.684   9.767  -0.239 -0.5237  2.1423  0.4272
  511MOL0     H68938   3.797   9.897  -0.285  0.5168  0.8528  2.9372
  511MOL0     H68939   3.753   9.723  -0.456 -1.9481 -0.9894  0.5578
  511MOL0     H68940   3.822   9.594  -0.353 -1.9296 -0.5410  0.7241
  511MOL0     H68941   3.984   9.678  -0.518 -0.0672  2.1231 -1.1352
  511MOL0     H68942   4.049   9.688  -0.350  1.0394  2.2165 -0.0621
  511MOL0     H68943   4.012   9.941  -0.371 -1.7613 -0.4502 -0.5271
  511MOL0     H68944   3.946   9.902  -0.531  0.5348 -1.6084 -2.5471
  511MOL0     H68945   4.175   9.861  -0.244  0.3016  0.0113  0.6573
  511MOL0     H68946   4.323   9.692  -0.065 -0.1722  0.6047  0.7356
  511MOL0     H68947   4.445   9.828  -0.035  0.5796 -1.0555  0.1719
  511MOL0     H68948   4.264   9.851  -0.063 -0.1749 -0.1853  0.4391
  511MOL0     H68949   4.750   9.455  -0.126  0.1969 -0.9930 -0.2700
  511MOL0     H68950   4.969   9.334  -0.089  1.3768 -2.5002 -2.1811
  511MOL0     H68951   5.238   9.299  -0.416  2.1130 -0.0049 -1.9585
  511MOL0     H68952   5.312   9.452  -0.370  0.4696  0.0883 -0.5950
  511MOL0     H68953   5.487   9.282  -0.349  0.6942 -0.3258  1.7272
  511MOL0     H68954   5.450   9.358  -0.196  1.6364  1.8048 -2.5573
  511MOL0     H68955   5.343   9.085  -0.276 -3.1834  1.0514  0.5442
  511MOL0     H68956   5.331   9.167  -0.121 -0.3808  3.7863 -1.1458
  511MOL0     H68957   5.584   9.089  -0.258  1.3031  1.3926  0.1750
  511MOL0     H68958   5.604   9.163  -0.102 -0.2544  4.0288 -3.8799
  511MOL0     H68959   5.501   8.883  -0.176  1.9511  0.3612 -1.6699
  511MOL0     H68960   5.477   8.960  -0.012 -0.5659  0.6875 -0.7883
  511MOL0     H68961   5.727   8.972  -0.001  1.0713 -1.2206  0.9448
  511MOL0     H68962   5.677   8.807  -0.016  0.4799  0.4099  1.0484
  511MOL0     H68963   5.781   8.983  -0.248  0.6330 -0.4003 -0.6993
  511MOL0     H68964   5.700   8.831  -0.271 -2.2713  1.3853  0.5697
  511MOL0     H68965   5.943   8.802  -0.262 -0.5687 -1.8510  0.9117
  511MOL0     H68966   5.894   8.744  -0.106 -0.8712  1.7262  3.1232
  511MOL0     H68967   5.130   9.545  -0.426 -1.0359  0.8243 -1.8118
  511MOL0     H68968   4.951   9.677  -0.448  1.9617  1.6172  3.7319
  511MOL0     H68969   4.585   9.784  -0.493 -0.3729 -1.2047 -0.3179
  511MOL0     H68970   4.365   9.824  -0.621 -0.7597 -1.8694  0.3147
  511MOL0     H68971   4.154   8.885   0.444 -1.4929  3.1589  2.2848
  511MOL0     H68972   3.899   8.909   0.484 -2.5897  1.4798 -1.3261
  511MOL0     H68973   3.527   9.248   0.230  0.6116 -0.1097 -0.6616
  511MOL0     H68974   3.256   9.267   0.248 -0.3763  0.0832 -0.3437
  511MOL0     H68975   3.115   9.098   0.474 -1.6624  1.1299  0.7818
  511MOL0     H68976   2.996   9.210   0.420 -0.1457  1.1590 -2.6434
  511MOL0     H68977   2.883   9.023   0.511  1.3027  4.3170 -0.4114
  511MOL0     H68978   2.982   8.906   0.408  1.9829  0.6411 -0.1816
  511MOL0     H68979   2.868   8.959   0.218  2.3118  0.8767  1.0977
  511MOL0     H68980   2.777   9.103   0.292 -2.0784  0.4644 -1.0543
  511MOL0     H68981   2.622   8.920   0.280 -1.5845  0.9641  2.7033
  511MOL0     H68982   2.665   8.937   0.450 -2.8816 -2.4459 -0.4275
  511MOL0     H68983   2.808   8.586   0.221 -0.8648  1.1118 -0.7172
  511MOL0     H68984   3.231   8.863   0.338  0.0889 -0.0239 -2.5272
  511MOL0     H68985   3.469   8.837   0.363 -0.8681  0.3025  2.4062
  512MOL0     O68986   1.943   4.553   4.492  0.6349 -0.1979 -0.1726
  512MOL0     C68987   1.973   4.568   4.608  0.4013  0.5151 -0.1957
  512MOL0     O68988   2.030   4.680   4.658  0.3915 -0.4391 -0.4560
  512MOL0     C68989   2.004   4.782   4.572 -0.2462  0.2759 -0.5628
  512MOL0     C68990   2.092   4.804   4.468 -0.4604  0.1623  0.0651
  512MOL0     C68991   2.066   4.904   4.367 -0.2214  0.2385 -1.1191
  512MOL0     C68992   1.942   4.973   4.365  0.0152 -0.5799  0.6528
  512MOL0     O68993   1.931   5.081   4.292  0.0292 -0.3157  0.5284
  512MOL0     C68994   1.796   5.124   4.264  0.3522  0.3399 -0.3538
  512MOL0     C68995   1.779   5.191   4.127 -1.0448 -1.0319 -0.7429
  512MOL0     C68996   1.636   5.236   4.101 -0.5456  0.5354 -0.3939
  512MOL0     C68997   1.601   5.294   3.970 -0.9307  0.8531  0.1002
  512MOL0     C68998   1.682   5.411   3.922  0.3027 -0.1553 -1.2648
  512MOL0     C68999   1.687   5.521   4.035  0.1140  0.7740 -0.1880
  512MOL0     C69000   1.771   5.629   3.968 -0.3872  0.3361 -0.1799
  512MOL0     C69001   1.794   5.748   4.066 -0.2654 -0.1707 -0.2701
  512MOL0     N69002   1.844   5.869   4.007  0.4475  0.3837 -0.0934
  512MOL0     C69003   1.969   5.917   4.027 -0.2747  0.0177 -0.2520
  512MOL0     C69004   1.968   6.052   3.992  0.2744  0.3456 -1.2834
  512MOL0     C69005   2.085   6.134   3.986 -1.0936  0.3927 -0.1808
  512MOL0     C69006   2.142   6.131   3.845 -0.2107 -0.4428 -0.1500
  512MOL0     C69007   2.056   6.144   3.723  0.8574  0.0373  0.0900
  512MOL0     C69008   1.960   6.268   3.729 -0.1373  0.3984 -0.1699
  512MOL0     O69009   1.907   6.293   3.598 -0.1231  0.5132 -0.4428
  512MOL0     C69010   1.777   6.267   3.567 -0.2633 -0.0984  0.4029
  512MOL0     C69011   1.692   6.175   3.635  0.0775 -0.0855  0.2816
  512MOL0     C69012   1.559   6.150   3.592  0.0463  0.1030 -0.8499
  512MOL0     C69013   1.478   6.056   3.682  0.5800  1.1185 -0.1061
  512MOL0     C69014   1.513   6.199   3.471  0.4387  0.1722  0.6909
  512MOL0     C69015   1.379   6.181   3.415  0.2022  0.8109  0.9426
  512MOL0     O69016   1.332   6.058   3.383 -0.0848  0.3056 -0.7637
  512MOL0     C69017   1.203   6.030   3.370  1.2686 -0.8030 -0.2179
  512MOL0     C69018   1.125   6.091   3.267 -0.4187  0.0710  0.8822
  512MOL0     C69019   0.995   6.067   3.247 -0.1763  0.6651  0.4114
  512MOL0     C69020   0.937   5.983   3.349  1.1801  0.9793  0.8026
  512MOL0     O69021   0.806   5.949   3.351  0.2020 -0.0878 -0.2725
  512MOL0     C69022   0.713   6.020   3.284 -0.2520  0.1847 -0.5033
  512MOL0     C69023   0.567   5.991   3.344 -0.7629 -1.3372  0.9020
  512MOL0     C69024   0.458   6.055   3.266  0.5713 -0.2556  0.2942
  512MOL0     C69025   0.323   6.045   3.333 -0.0769  0.5378  0.7890
  512MOL0     C69026   0.338   6.107   3.480  0.3793 -0.1025 -1.1144
  512MOL0     C69027   0.212   6.118   3.572 -0.3781  0.0735 -0.0565
  512MOL0     C69028   0.244   6.195   3.694  0.2177 -0.2698  0.6976
  512MOL0     C69029   0.115   6.215   3.772  0.4525  0.3668  0.7504
  512MOL0    Cl69030   0.165   6.249   3.942 -0.2996 -0.2611  0.1623
  512MOL0     C69031   1.002   5.927   3.455  0.6790 -0.3864  0.0858
  512MOL0     C69032   1.138   5.942   3.457 -0.5308 -0.2840  0.5274
  512MOL0     O69033   1.305   6.283   3.425 -0.7294  0.0935  0.4174
  512MOL0     C69034   1.589   6.300   3.409  0.5436 -0.4182  0.4052
  512MOL0     C69035   1.722   6.328   3.446  0.2228 -0.0505  0.2153
  512MOL0     N69036   1.835   6.085   3.973  0.5427 -0.5879  0.4462
  512MOL0     N69037   1.767   5.970   3.965 -0.2652  0.7954 -0.7444
  512MOL0     C69038   1.851   4.938   4.465  0.3952  0.6092 -0.4571
  512MOL0     C69039   1.874   4.845   4.566 -0.8831 -0.4411  0.1029
  512MOL0     C69040   1.955   4.459   4.701 -0.3696  0.1557 -0.1939
  512MOL0     C69041   1.901   4.336   4.661 -1.3106  0.2980  0.1435
  512MOL0     C69042   1.880   4.235   4.758 -0.5023  0.1396  0.2377
  512MOL0     C69043   1.909   4.257   4.895 -0.1526 -0.8788 -0.1502
  512MOL0     O69044   1.883   4.171   4.999 -1.3207  0.0932 -0.0810
  512MOL0     C69045   1.813   4.048   4.972 -0.3644 -0.9078  0.6499
  512MOL0     C69046   1.883   3.933   4.904 -0.2744  0.3271  0.6692
  512MOL0     C69047   1.931   3.817   5.000 -0.2306  0.4230 -0.4410
  512MOL0     C69048   2.023   3.868   5.113  0.6579  0.3164  0.4884
  512MOL0     C69049   2.048   3.751   5.195 -0.4470 -0.3297 -0.4763
  512MOL0     C69050   2.076   3.644   5.249  0.2756  0.2670 -0.7068
  512MOL0     C69051   1.974   4.376   4.939 -0.2957 -0.8203  0.2995
  512MOL0     C69052   1.997   4.468   4.837  0.8881 -0.3411 -0.0401
  512MOL0     H69053   2.188   4.759   4.443  2.0649  4.3883  1.2095
  512MOL0     H69054   2.135   4.936   4.290 -1.5342  1.6825 -1.7524
  512MOL0     H69055   1.728   5.038   4.267 -0.9405  1.2948  3.6968
  512MOL0     H69056   1.766   5.200   4.336  0.0167  0.2466 -0.3936
  512MOL0     H69057   1.853   5.272   4.118  0.6090 -2.4722 -0.6499
  512MOL0     H69058   1.811   5.114   4.056 -1.4641  0.2634 -2.4253
  512MOL0     H69059   1.577   5.143   4.103  1.5003 -0.8216 -0.0868
  512MOL0     H69060   1.602   5.302   4.181 -1.6301  0.7124 -0.9685
  512MOL0     H69061   1.615   5.221   3.889  1.0024  0.1179  1.0547
  512MOL0     H69062   1.498   5.332   3.970 -0.6806  2.0069  4.2398
  512MOL0     H69063   1.786   5.379   3.908  1.3983  1.1431  2.7146
  512MOL0     H69064   1.642   5.451   3.829  1.0148  0.8588 -1.1494
  512MOL0     H69065   1.589   5.560   4.065  0.5130  0.6490  1.3819
  512MOL0     H69066   1.731   5.484   4.128 -1.4089  1.2976  0.7817
  512MOL0     H69067   1.865   5.578   3.947 -2.1515 -5.1193  3.2433
  512MOL0     H69068   1.720   5.668   3.879 -1.5136  0.9385  0.6988
  512MOL0     H69069   1.861   5.723   4.149  0.5819  0.4069 -0.7652
  512MOL0     H69070   1.711   5.776   4.131  1.2378  0.5401  1.4270
  512MOL0     H69071   2.046   5.842   4.042 -0.1667  0.1637 -0.0639
  512MOL0     H69072   2.043   6.233   4.005  1.4007  1.6211 -0.7301
  512MOL0     H69073   2.159   6.099   4.058 -0.2679 -0.2031 -1.2911
  512MOL0     H69074   2.191   6.034   3.837 -0.2893 -0.6288  1.4067
  512MOL0     H69075   2.222   6.206   3.840 -1.4052  0.8386 -0.7062
  512MOL0     H69076   1.988   6.058   3.716  0.7209  0.1437  0.1014
  512MOL0     H69077   2.117   6.149   3.633  2.0339 -0.0929  0.8559
  512MOL0     H69078   2.022   6.355   3.755  0.9464 -0.2774 -0.4408
  512MOL0     H69079   1.887   6.260   3.810 -1.7096  3.8069 -1.0659
  512MOL0     H69080   1.741   6.124   3.717  0.6790  0.9966  0.6117
  512MOL0     H69081   1.511   5.952   3.689  1.1644  1.1840 -1.5072
  512MOL0     H69082   1.457   6.102   3.779 -4.1423  0.2298 -0.4544
  512MOL0     H69083   1.373   6.049   3.652 -0.8334  1.1235  4.2463
  512MOL0     H69084   1.166   6.158   3.192 -0.3328 -0.1265  0.7515
  512MOL0     H69085   0.927   6.099   3.168 -2.0168 -2.4089  0.5628
  512MOL0     H69086   0.740   6.125   3.272  0.1725  0.1455  0.0654
  512MOL0     H69087   0.711   5.976   3.184 -0.4256 -0.0727 -0.3883
  512MOL0     H69088   0.545   5.884   3.350 -2.5667 -0.9543  1.8857
  512MOL0     H69089   0.571   6.036   3.444  0.9266  2.3474 -0.6272
  512MOL0     H69090   0.452   6.001   3.172  0.3323  0.8026 -0.3101
  512MOL0     H69091   0.470   6.162   3.249 -0.2299 -0.3591 -0.9985
  512MOL0     H69092   0.247   6.108   3.286  0.4084  1.2091  0.9063
  512MOL0     H69093   0.294   5.939   3.340  1.1852 -0.2057 -2.9149
  512MOL0     H69094   0.388   6.204   3.473 -1.9720  1.5879  2.6423
  512MOL0     H69095   0.398   6.042   3.544 -0.4919  0.7960  0.6738
  512MOL0     H69096   0.124   6.160   3.524 -2.1966 -1.3029  1.8759
  512MOL0     H69097   0.185   6.015   3.596 -0.8041  0.1833 -0.0684
  512MOL0     H69098   0.273   6.295   3.659  3.1324 -1.3881 -0.3779
  512MOL0     H69099   0.320   6.148   3.757  1.0039  0.8681  0.6155
  512MOL0     H69100   0.059   6.121   3.776  1.2053 -0.1512 -0.3397
  512MOL0     H69101   0.049   6.285   3.721  0.4046 -1.6199 -2.1221
  512MOL0     H69102   0.948   5.867   3.528 -0.6164  0.4933 -0.1005
  512MOL0     H69103   1.197   5.897   3.536 -0.4293 -3.7945 -1.3690
  512MOL0     H69104   1.548   6.347   3.320  0.1901 -0.7033  0.4164
  512MOL0     H69105   1.789   6.390   3.387 -1.5048 -0.3636 -2.2349
  512MOL0     H69106   1.754   4.986   4.468 -0.0007 -0.2455  1.0862
  512MOL0     H69107   1.803   4.812   4.641 -2.0341 -2.7848 -1.9098
  512MOL0     H69108   1.858   4.313   4.564 -0.8333 -0.6143  0.1422
  512MOL0     H69109   1.840   4.141   4.721  0.4557 -0.7916  1.4847
  512MOL0     H69110   1.765   4.018   5.065  0.9128 -1.2625  1.2155
  512MOL0     H69111   1.719   4.080   4.926 -0.5308 -0.7985  1.0613
  512MOL0     H69112   1.964   3.967   4.840  1.7448 -1.3595  2.1574
  512MOL0     H69113   1.811   3.891   4.833  1.6945 -0.4368 -0.9749
  512MOL0     H69114   1.986   3.737   4.950 -1.3105  0.8857 -2.4874
  512MOL0     H69115   1.844   3.762   5.038  0.8402 -2.7692 -2.2251
  512MOL0     H69116   1.970   3.947   5.168 -1.3563 -1.1412  0.7618
  512MOL0     H69117   2.116   3.910   5.075  1.9870 -3.1013 -0.4043
  512MOL0     H69118   2.123   3.562   5.300 -0.7387  0.5345  0.7116
  512MOL0     H69119   2.010   4.383   5.041  4.5341 -3.1782 -0.9919
  512MOL0     H69120   2.033   4.565   4.868  0.6923  0.1201 -1.1952
  513MOL0     O69121   8.778   0.919   0.618  0.3217 -0.2652  0.8860
  513MOL0     C69122   8.887   0.861   0.592  0.0093 -0.3898  0.3690
  513MOL0     O69123   8.908   0.726   0.592  1.0574 -0.2740  0.1157
  513MOL0     C69124   8.803   0.639   0.596 -0.3668  0.5584 -0.5772
  513MOL0     C69125   8.761   0.597   0.726 -0.8745 -0.7040  0.3236
  513MOL0     C69126   8.674   0.493   0.734  0.5219  0.8093  0.2108
  513MOL0     C69127   8.607   0.445   0.615 -0.4801  0.2525 -0.0649
  513MOL0     O69128   8.516   0.334   0.625 -0.9834 -0.5464  0.1053
  513MOL0     C69129   8.379   0.373   0.631  0.3626 -0.6614  0.5183
  513MOL0     C69130   8.309   0.361   0.493 -0.3495  0.4718  0.8969
  513MOL0     C69131   8.333   0.228   0.410 -0.7963  0.2039 -1.4129
  513MOL0     C69132   8.286   0.097   0.478 -0.3465 -0.7465  0.4425
  513MOL0     C69133   8.305  -0.017   0.378 -0.2419  0.3136 -0.5376
  513MOL0     C69134   8.273  -0.147   0.452  0.2491 -0.7823 -0.6532
  513MOL0     C69135   8.275  -0.266   0.360  0.3511 -0.5648 -0.3089
  513MOL0     C69136   8.218  -0.377   0.446 -0.3953 -0.3013  0.7171
  513MOL0     N69137   8.076  -0.365   0.462  0.6953  0.2116 -0.7217
  513MOL0     C69138   7.986  -0.361   0.355  0.8389  0.5669 -0.1472
  513MOL0     C69139   7.871  -0.334   0.415 -0.7939 -0.0620  0.3054
  513MOL0     C69140   7.738  -0.319   0.352  0.9103 -0.4334  0.0765
  513MOL0     C69141   7.624  -0.380   0.437 -0.1939  0.0025  0.8703
  513MOL0     C69142   7.654  -0.515   0.505  0.7267  0.2724  0.1958
  513MOL0     C69143   7.643  -0.627   0.398 -0.2780 -0.4409  0.6762
  513MOL0     O69144   7.764  -0.640   0.328  0.4992  0.3201 -0.3997
  513MOL0     C69145   7.744  -0.712   0.215  0.8203 -0.2727 -0.2071
  513MOL0     C69146   7.770  -0.848   0.210 -0.1550 -1.1107  0.3940
  513MOL0     C69147   7.734  -0.923   0.096  0.2204  0.2300 -0.0908
  513MOL0     C69148   7.743  -1.068   0.118 -0.9546 -0.1742 -0.9702
  513MOL0     C69149   7.686  -0.862  -0.022  0.7158  0.1905 -0.3282
  513MOL0     C69150   7.664  -0.940  -0.147 -0.0396 -0.5278  0.5679
  513MOL0     O69151   7.635  -0.863  -0.253 -0.2088  0.0022  0.6528
  513MOL0     C69152   7.603  -0.916  -0.373  0.0790  0.1223  0.2856
  513MOL0     C69153   7.686  -0.993  -0.453  0.0095  0.0720 -0.1755
  513MOL0     C69154   7.652  -1.043  -0.578 -0.7104  0.4850 -0.5525
  513MOL0     C69155   7.531  -1.012  -0.632 -0.3183  0.8674  0.4774
  513MOL0     O69156   7.496  -1.050  -0.759  0.2563  0.4277  0.5093
  513MOL0     C69157   7.538  -0.952  -0.858 -0.1658  0.4188 -0.1968
  513MOL0     C69158   7.528  -0.994  -1.010  0.9248 -0.4274 -1.2839
  513MOL0     C69159   7.582  -0.889  -1.100 -1.2793 -0.0475 -0.1528
  513MOL0     C69160   7.733  -0.874  -1.099  0.5678  0.6868 -0.8781
  513MOL0     C69161   7.793  -0.801  -1.213  0.1693 -0.1454 -0.0363
  513MOL0     C69162   7.942  -0.787  -1.207  0.2828  0.1697  0.4411
  513MOL0     C69163   7.996  -0.730  -1.336 -0.8463  0.3945  1.1728
  513MOL0     C69164   7.981  -0.809  -1.467  0.3562 -0.2548 -0.9953
  513MOL0    Cl69165   8.115  -0.926  -1.458 -0.2640  0.4771  0.0454
  513MOL0     C69166   7.440  -0.935  -0.548  0.4723  0.0486  0.4667
  513MOL0     C69167   7.480  -0.885  -0.421  0.2828  0.4789  0.7642
  513MOL0     O69168   7.655  -1.057  -0.147 -0.4847  0.3064  0.8848
  513MOL0     C69169   7.675  -0.724  -0.023  0.2279 -0.2346 -1.3122
  513MOL0     C69170   7.691  -0.651   0.098  0.6844 -0.0975 -0.0565
  513MOL0     N69171   7.894  -0.300   0.551  0.0346  0.5906 -0.0310
  513MOL0     N69172   8.020  -0.321   0.580 -0.0410 -0.1192 -0.3569
  513MOL0     C69173   8.649   0.483   0.489  0.8272 -1.5283 -0.0686
  513MOL0     C69174   8.759   0.573   0.482 -0.9562  0.0799  0.9227
  513MOL0     C69175   9.009   0.936   0.570  0.5291  1.0191  0.0148
  513MOL0     C69176   9.121   0.875   0.524 -0.1238  0.4609  0.3674
  513MOL0     C69177   9.238   0.944   0.499  0.3586  0.4656  0.4357
  513MOL0     C69178   9.239   1.087   0.503  0.2579 -0.7328 -0.5588
  513MOL0     O69179   9.343   1.171   0.486 -0.9142 -0.1120 -0.0577
  513MOL0     C69180   9.435   1.122   0.384 -0.0037  0.1649  0.8190
  513MOL0     C69181   9.375   1.130   0.251 -1.1943 -0.5728  0.3681
  513MOL0     C69182   9.477   1.102   0.139  0.4019  0.9220  0.1412
  513MOL0     C69183   9.460   1.185   0.016  0.4176  0.7090 -0.2557
  513MOL0     C69184   9.344   1.134  -0.049 -1.0883  1.3375 -0.0624
  513MOL0     C69185   9.243   1.092  -0.097  0.5415  0.1662 -0.8273
  513MOL0     C69186   9.121   1.150   0.547  0.6005 -0.6697  1.3832
  513MOL0     C69187   9.015   1.078   0.579 -0.6013  0.6041  0.0896
  513MOL0     H69188   8.802   0.655   0.808  1.0376 -2.4659  0.7135
  513MOL0     H69189   8.638   0.451   0.827  0.6234 -1.3671 -0.6594
  513MOL0     H69190   8.336   0.309   0.709  1.1825 -0.5901  1.0467
  513MOL0     H69191   8.368   0.477   0.663 -0.5720  0.1124 -2.0933
  513MOL0     H69192   8.204   0.360   0.524 -0.7732 -0.6390 -0.4584
  513MOL0     H69193   8.322   0.441   0.419 -0.4896 -1.4336 -1.3343
  513MOL0     H69194   8.278   0.241   0.316 -3.2324 -1.5878 -0.3529
  513MOL0     H69195   8.436   0.220   0.375 -0.6525 -0.6771 -0.8310
  513MOL0     H69196   8.349   0.079   0.567 -0.0901  0.4600  0.5120
  513MOL0     H69197   8.180   0.108   0.500 -0.6367 -0.0598 -1.2111
  513MOL0     H69198   8.246  -0.005   0.286  0.2095 -1.6865 -1.1325
  513MOL0     H69199   8.410  -0.024   0.349  0.6237  3.4154  1.3308
  513MOL0     H69200   8.341  -0.160   0.536 -1.8238  4.3069  2.2899
  513MOL0     H69201   8.178  -0.125   0.502 -0.6600 -1.7345 -1.9003
  513MOL0     H69202   8.224  -0.243   0.266  1.4052 -0.4978 -0.8677
  513MOL0     H69203   8.376  -0.301   0.337  0.9593 -1.3299  2.9655
  513MOL0     H69204   8.266  -0.378   0.545  0.3982  0.9006  0.3666
  513MOL0     H69205   8.244  -0.469   0.392 -1.4356 -1.6291  2.3689
  513MOL0     H69206   8.022  -0.371   0.253  1.9798 -1.9891  0.4085
  513MOL0     H69207   7.726  -0.210   0.348 -0.8881 -0.6356 -3.3392
  513MOL0     H69208   7.747  -0.364   0.253 -0.1499 -2.9064  1.0181
  513MOL0     H69209   7.531  -0.389   0.380 -0.9180 -2.6049  2.2683
  513MOL0     H69210   7.591  -0.304   0.509  0.8369 -0.5710  1.9777
  513MOL0     H69211   7.573  -0.528   0.578 -0.5618 -0.7622 -1.3500
  513MOL0     H69212   7.748  -0.523   0.561  0.8012 -1.1877 -0.0956
  513MOL0     H69213   7.565  -0.595   0.328 -0.1575 -2.0162 -0.2134
  513MOL0     H69214   7.625  -0.722   0.450 -0.0733  0.7829  3.1312
  513MOL0     H69215   7.799  -0.911   0.294  0.2873 -3.7185 -1.6023
  513MOL0     H69216   7.797  -1.095   0.209  0.7332 -2.9080 -2.6431
  513MOL0     H69217   7.644  -1.116   0.118 -2.6093  2.9394  0.1986
  513MOL0     H69218   7.811  -1.107   0.042 -0.0300  1.6229 -1.1313
  513MOL0     H69219   7.780  -1.014  -0.403 -1.1237 -2.0306  1.1927
  513MOL0     H69220   7.730  -1.105  -0.621  0.0566  0.7623  0.4071
  513MOL0     H69221   7.479  -0.861  -0.846  0.1840  0.8647 -1.7091
  513MOL0     H69222   7.644  -0.934  -0.838 -0.6614  2.6134  0.7712
  513MOL0     H69223   7.588  -1.084  -1.024  4.5587  1.0663  2.5629
  513MOL0     H69224   7.424  -1.018  -1.032 -1.0744  1.6729  4.0452
  513MOL0     H69225   7.526  -0.797  -1.080 -3.6791 -1.6937  1.2435
  513MOL0     H69226   7.572  -0.929  -1.201  0.1786 -2.4446  0.5655
  513MOL0     H69227   7.763  -0.814  -1.013  0.3398  0.0468 -0.3342
  513MOL0     H69228   7.788  -0.962  -1.064  1.5242  2.5650  2.7163
  513MOL0     H69229   7.750  -0.703  -1.233 -2.5204 -1.2787 -0.3455
  513MOL0     H69230   7.771  -0.866  -1.299  1.3389 -0.8862  0.1921
  513MOL0     H69231   7.957  -0.731  -1.114  1.2882 -1.9050  1.5827
  513MOL0     H69232   7.989  -0.885  -1.197 -1.1449 -0.5369  0.5643
  513MOL0     H69233   8.100  -0.696  -1.325 -0.6252 -0.2504  1.1816
  513MOL0     H69234   7.944  -0.636  -1.351  0.6852  1.3884  1.8181
  513MOL0     H69235   7.999  -0.745  -1.554  1.2112 -3.9183 -3.7859
  513MOL0     H69236   7.875  -0.835  -1.481 -0.2541  1.5880 -0.1282
  513MOL0     H69237   7.347  -0.889  -0.583  0.7470 -0.6824 -1.3377
  513MOL0     H69238   7.418  -0.809  -0.375 -1.4632 -1.2584  1.4533
  513MOL0     H69239   7.657  -0.674  -0.117  1.4803 -0.3721 -1.6432
  513MOL0     H69240   7.667  -0.547   0.078 -0.4781 -0.9730 -4.0278
  513MOL0     H69241   8.592   0.446   0.404 -0.5529  1.1206 -0.4015
  513MOL0     H69242   8.824   0.583   0.396  0.8666 -1.2164  2.0675
  513MOL0     H69243   9.122   0.767   0.515  0.9823  0.5862 -1.6218
  513MOL0     H69244   9.325   0.884   0.475  1.8689  1.8288  2.1746
  513MOL0     H69245   9.523   1.186   0.389 -1.3566  1.9932  2.4961
  513MOL0     H69246   9.457   1.018   0.413 -1.3370 -0.1442  0.7892
  513MOL0     H69247   9.334   1.227   0.221  0.1191 -0.2703 -0.5718
  513MOL0     H69248   9.291   1.060   0.243 -0.1218 -1.7133 -3.6080
  513MOL0     H69249   9.466   0.994   0.123  0.7112  0.8199  0.5876
  513MOL0     H69250   9.580   1.122   0.170  0.1770  1.5251  0.5008
  513MOL0     H69251   9.536   1.163  -0.059 -2.0515 -2.2673 -2.1575
  513MOL0     H69252   9.454   1.293   0.033  3.4301  0.7911  0.7314
  513MOL0     H69253   9.149   1.058  -0.135  0.8116  0.6958 -2.0028
  513MOL0     H69254   9.111   1.258   0.548 -0.3964 -0.6195 -1.8821
  513MOL0     H69255   8.922   1.124   0.610 -2.1693 -1.9557 -0.5163
  514MOL0     O69256   6.345   2.973   6.307 -0.7017 -0.8858  0.4315
  514MOL0     C69257   6.359   2.850   6.331 -0.4354 -0.3591  0.0584
  514MOL0     O69258   6.478   2.783   6.321  0.0533  0.0567  0.2521
  514MOL0     C69259   6.585   2.854   6.280  0.2784 -0.6027 -0.5651
  514MOL0     C69260   6.704   2.849   6.365  0.4406 -0.3177  0.2480
  514MOL0     C69261   6.815   2.932   6.341 -0.3797 -0.6298  0.2435
  514MOL0     C69262   6.821   3.015   6.224  0.7154 -0.6564 -0.2892
  514MOL0     O69263   6.922   3.107   6.193 -0.5644  0.2851 -0.9736
  514MOL0     C69264   7.042   3.094   6.273  0.0937  0.9682 -0.4880
  514MOL0     C69265   7.157   3.177   6.215  0.3318 -0.0771  0.4981
  514MOL0     C69266   7.133   3.320   6.251  1.0272  0.2603 -0.1963
  514MOL0     C69267   7.226   3.417   6.182  0.1870  0.1046 -0.3040
  514MOL0     C69268   7.210   3.565   6.238 -0.3764 -0.1447  0.3110
  514MOL0     C69269   7.284   3.669   6.151  0.8418  0.1680  0.1240
  514MOL0     C69270   7.252   3.812   6.200 -0.2645  0.3030  0.0218
  514MOL0     C69271   7.356   3.905   6.136  1.0420 -0.1793  0.1097
  514MOL0     N69272   7.474   3.918   6.213 -0.8419  0.5699  0.7223
  514MOL0     C69273   7.494   4.010   6.319 -0.2878 -0.3398  0.1296
  514MOL0     C69274   7.568   3.936   6.406  0.1105 -1.0838  0.5564
  514MOL0     C69275   7.601   3.968   6.551 -0.8481  0.2499  0.4971
  514MOL0     C69276   7.688   4.097   6.570  0.3290  0.5316 -0.2076
  514MOL0     C69277   7.691   4.143   6.715 -0.9595  0.8432 -0.8037
  514MOL0     C69278   7.803   4.083   6.808 -0.6360  0.0519 -0.3985
  514MOL0     O69279   7.772   3.942   6.842 -0.3550  0.5019  1.0668
  514MOL0     C69280   7.834   3.885   6.948 -0.0296 -1.0064  0.5097
  514MOL0     C69281   7.806   3.755   6.962 -0.1587 -0.1700 -0.2136
  514MOL0     C69282   7.863   3.677   7.060  0.9091 -0.4636 -0.1248
  514MOL0     C69283   7.802   3.535   7.074 -0.0250 -0.3510 -0.2362
  514MOL0     C69284   7.959   3.735   7.152 -0.2022  0.0641  1.2533
  514MOL0     C69285   8.031   3.666   7.260  0.4187  0.4016 -0.4478
  514MOL0     O69286   8.121   3.743   7.325  0.2868  0.0730 -0.0243
  514MOL0     C69287   8.211   3.683   7.409 -0.2651  0.3457 -0.3643
  514MOL0     C69288   8.205   3.703   7.542 -0.3888  0.9978 -0.0835
  514MOL0     C69289   8.283   3.643   7.642  0.5865  0.9253  0.6248
  514MOL0     C69290   8.379   3.545   7.597  0.1946 -0.2029  0.3460
  514MOL0     O69291   8.448   3.485   7.697 -0.2034  0.4481  0.4470
  514MOL0     C69292   8.590   3.482   7.660  0.0559 -0.1856 -0.5545
  514MOL0     C69293   8.636   3.340   7.651  0.2543  1.3670  0.2102
  514MOL0     C69294   8.579   3.252   7.767 -0.3199 -0.5215  0.1646
  514MOL0     C69295   8.649   3.109   7.773  1.1648  0.0311 -0.4227
  514MOL0     C69296   8.567   3.038   7.881  0.5502 -0.2424  0.8758
  514MOL0     C69297   8.612   2.896   7.883 -0.6181 -0.0938  0.1190
  514MOL0     C69298   8.522   2.803   7.960  0.0271 -0.4819  0.8742
  514MOL0     C69299   8.405   2.769   7.871  0.0171 -0.5306 -0.8509
  514MOL0    Cl69300   8.299   2.641   7.953  0.2070 -0.5153  0.0098
  514MOL0     C69301   8.383   3.522   7.459 -0.7424  0.9343 -0.8410
  514MOL0     C69302   8.304   3.589   7.366  0.7679 -0.6462 -0.5970
  514MOL0     O69303   8.015   3.550   7.285  0.2374  0.3416 -0.1652
  514MOL0     C69304   7.973   3.875   7.138 -0.6201  0.6321  0.4304
  514MOL0     C69305   7.909   3.948   7.038 -0.0415  0.8788  0.1016
  514MOL0     N69306   7.616   3.831   6.336 -0.6236  0.1869  0.2035
  514MOL0     N69307   7.556   3.818   6.222 -0.6112  0.3733 -0.4974
  514MOL0     C69308   6.717   3.001   6.136 -0.5636  1.0907  0.1055
  514MOL0     C69309   6.601   2.925   6.158  0.8582  0.0415 -0.3525
  514MOL0     C69310   6.240   2.781   6.377 -0.2675 -0.5697  0.4259
  514MOL0     C69311   6.109   2.837   6.369  0.1095 -0.2834  0.0205
  514MOL0     C69312   6.007   2.759   6.425 -0.5322  0.5445  0.6799
  514MOL0     C69313   6.025   2.629   6.470  0.0382  1.1715 -0.7339
  514MOL0     O69314   5.919   2.542   6.501 -0.0951 -0.6505  0.0501
  514MOL0     C69315   5.825   2.589   6.602  0.0200 -0.3635 -0.6004
  514MOL0     C69316   5.884   2.543   6.742  0.3301  0.7768  0.0645
  514MOL0     C69317   5.816   2.627   6.848 -0.0929 -0.6753 -0.5012
  514MOL0     C69318   5.866   2.774   6.863  0.2950  0.4024  0.5700
  514MOL0     C69319   5.996   2.777   6.928 -0.6984 -0.5260 -0.0197
  514MOL0     C69320   6.093   2.766   6.994  0.6064 -0.0593  1.3947
  514MOL0     C69321   6.141   2.569   6.452 -1.2576  0.3089 -0.3943
  514MOL0     C69322   6.251   2.641   6.412 -0.8405  0.1880  0.4273
  514MOL0     H69323   6.709   2.785   6.452 -0.2359 -1.1024 -0.2813
  514MOL0     H69324   6.897   2.932   6.412  1.5271 -3.3222 -1.7353
  514MOL0     H69325   7.033   3.114   6.380  3.2261 -4.0189  1.0824
  514MOL0     H69326   7.070   2.989   6.260 -0.0120  1.2245 -3.6504
  514MOL0     H69327   7.258   3.145   6.244  1.2165  1.1795 -1.0214
  514MOL0     H69328   7.151   3.165   6.106  0.6844  0.0041  0.4668
  514MOL0     H69329   7.031   3.345   6.222  1.8217  2.1214 -1.5614
  514MOL0     H69330   7.145   3.330   6.359  1.1168 -2.0987  0.0657
  514MOL0     H69331   7.329   3.380   6.181 -0.5088 -2.0917  0.8369
  514MOL0     H69332   7.192   3.420   6.078 -0.0831  2.5422 -0.1909
  514MOL0     H69333   7.107   3.597   6.221  0.0986  1.5223  0.3658
  514MOL0     H69334   7.246   3.575   6.340  0.9220  4.2510 -0.3463
  514MOL0     H69335   7.391   3.646   6.162  0.5293 -0.8966  1.0716
  514MOL0     H69336   7.254   3.663   6.046  0.6058  0.4133  0.1770
  514MOL0     H69337   7.161   3.838   6.145 -0.8043 -0.9855  0.2694
  514MOL0     H69338   7.261   3.810   6.309  3.9701 -4.0776 -0.0629
  514MOL0     H69339   7.310   4.004   6.125 -2.1249 -1.5124 -0.0023
  514MOL0     H69340   7.374   3.872   6.033  0.8614 -1.3072  0.4229
  514MOL0     H69341   7.448   4.107   6.335  0.6228  0.0940  0.1214
  514MOL0     H69342   7.506   3.986   6.601  0.4280  1.2991  2.7177
  514MOL0     H69343   7.644   3.881   6.602  2.7529  0.9877 -0.9699
  514MOL0     H69344   7.657   4.180   6.506  1.5427 -0.0910 -1.6612
  514MOL0     H69345   7.790   4.068   6.545  0.6398  2.6629 -1.6185
  514MOL0     H69346   7.602   4.109   6.768  1.7024 -0.0633  3.6795
  514MOL0     H69347   7.707   4.251   6.726  0.5993  0.9670 -3.4870
  514MOL0     H69348   7.807   4.150   6.894 -0.3440 -1.4463  0.7875
  514MOL0     H69349   7.898   4.079   6.755 -1.4695  1.6703 -2.1755
  514MOL0     H69350   7.747   3.700   6.889  0.6525 -2.3621  0.7034
  514MOL0     H69351   7.748   3.530   7.169  1.7577  1.2816  0.9561
  514MOL0     H69352   7.728   3.518   6.996  1.4545 -0.8100 -1.6051
  514MOL0     H69353   7.877   3.455   7.067  2.6579  2.0829 -1.3183
  514MOL0     H69354   8.143   3.781   7.586 -0.5161 -0.7333  3.1005
  514MOL0     H69355   8.293   3.676   7.745  1.1538 -1.0704  1.2434
  514MOL0     H69356   8.628   3.529   7.569  4.2690  0.5345  1.3427
  514MOL0     H69357   8.646   3.539   7.735 -2.6210  1.9682 -0.0479
  514MOL0     H69358   8.579   3.309   7.563 -0.4985  2.1225  0.4148
  514MOL0     H69359   8.744   3.341   7.638  0.0289  3.1814 -2.1082
  514MOL0     H69360   8.471   3.243   7.755 -0.2204 -1.2503 -0.1839
  514MOL0     H69361   8.606   3.316   7.852 -0.4236  0.2073 -0.3413
  514MOL0     H69362   8.636   3.057   7.677 -0.6765 -3.1216  1.3899
  514MOL0     H69363   8.756   3.120   7.796  1.1119 -0.0499 -0.1358
  514MOL0     H69364   8.461   3.041   7.855  0.7002 -3.7033 -0.8153
  514MOL0     H69365   8.593   3.094   7.970 -1.5677  3.2772 -0.5236
  514MOL0     H69366   8.625   2.858   7.781 -1.2901  0.0903 -0.0441
  514MOL0     H69367   8.714   2.903   7.920 -0.5599  0.6998 -0.1613
  514MOL0     H69368   8.490   2.838   8.059 -0.5771  1.4784  0.0195
  514MOL0     H69369   8.589   2.717   7.972  1.0542  0.4164  1.9071
  514MOL0     H69370   8.434   2.727   7.774  1.5604  1.1283 -1.1699
  514MOL0     H69371   8.343   2.858   7.860 -2.9219 -2.4025 -0.3426
  514MOL0     H69372   8.446   3.443   7.422 -2.4849 -0.5820 -0.7274
  514MOL0     H69373   8.311   3.571   7.259  0.4044  3.5560 -1.4715
  514MOL0     H69374   8.022   3.925   7.221  1.7614 -1.6498  0.5419
  514MOL0     H69375   7.945   4.050   7.028  1.1740  0.2955 -2.0639
  514MOL0     H69376   6.727   3.054   6.042  1.0238 -0.8388 -0.8973
  514MOL0     H69377   6.519   2.911   6.089  1.2655 -1.3961 -0.5716
  514MOL0     H69378   6.099   2.929   6.313  1.7962 -1.1619 -1.8725
  514MOL0     H69379   5.906   2.799   6.426  0.4494  3.7100 -2.7576
  514MOL0     H69380   5.812   2.697   6.593 -1.2464 -0.6473 -2.9876
  514MOL0     H69381   5.730   2.540   6.577  0.5145 -2.9144  1.9420
  514MOL0     H69382   5.992   2.559   6.755  0.0510  2.5501  0.3834
  514MOL0     H69383   5.858   2.437   6.757 -1.5104  0.8047 -2.3146
  514MOL0     H69384   5.807   2.569   6.940  0.2377 -0.2497 -0.1970
  514MOL0     H69385   5.713   2.634   6.811 -0.2937  0.3330  0.2013
  514MOL0     H69386   5.808   2.842   6.926  0.5969  1.2395 -0.0373
  514MOL0     H69387   5.870   2.817   6.763  0.6629  1.8205  1.1698
  514MOL0     H69388   6.188   2.769   7.043  1.2450  4.1200  0.3190
  514MOL0     H69389   6.151   2.465   6.481  0.9785  0.1726 -1.4205
  514MOL0     H69390   6.342   2.581   6.402 -0.5745  0.3813  1.4942
  515MOL0     O69391   4.386   3.207   0.992 -0.1482  0.0715  0.7316
  515MOL0     C69392   4.466   3.284   0.930 -0.4857 -0.2951  0.0064
  515MOL0     O69393   4.464   3.311   0.794  0.0349  0.4332  0.2969
  515MOL0     C69394   4.365   3.246   0.724 -0.0601 -0.3527  0.8490
  515MOL0     C69395   4.248   3.314   0.697  0.5835 -0.0706  0.3519
  515MOL0     C69396   4.142   3.241   0.638 -1.0522 -1.3003 -0.1732
  515MOL0     C69397   4.149   3.106   0.598 -0.7769  0.6606  0.8290
  515MOL0     O69398   4.037   3.057   0.535 -0.8692 -0.5999  0.7011
  515MOL0     C69399   4.021   2.913   0.543 -0.3967 -1.1474 -0.1219
  515MOL0     C69400   3.901   2.862   0.477  0.1460 -1.0041  0.2262
  515MOL0     C69401   3.844   2.731   0.540 -0.5798 -0.1431  0.1267
  515MOL0     C69402   3.729   2.673   0.458 -0.8448 -0.5121 -0.4789
  515MOL0     C69403   3.654   2.553   0.523  0.0593 -0.2609 -0.5128
  515MOL0     C69404   3.525   2.518   0.459 -0.0697 -0.9846 -0.1503
  515MOL0     C69405   3.487   2.378   0.518 -0.2258 -0.2061 -0.4840
  515MOL0     C69406   3.364   2.310   0.452  0.5979 -0.2065  0.2978
  515MOL0     N69407   3.329   2.186   0.523  0.2226  0.4751 -0.1814
  515MOL0     C69408   3.420   2.092   0.578 -0.0267  0.4135  0.6342
  515MOL0     C69409   3.340   1.994   0.623  0.3197  0.1681 -0.0326
  515MOL0     C69410   3.378   1.865   0.682  0.3337  0.7756 -0.2342
  515MOL0     C69411   3.375   1.866   0.837  0.2035  0.3330  0.4298
  515MOL0     C69412   3.458   1.773   0.918 -0.0573  0.2834 -0.2348
  515MOL0     C69413   3.605   1.788   0.886 -0.1493 -0.7377 -0.7106
  515MOL0     O69414   3.641   1.923   0.903 -0.0966  0.6182  0.2500
  515MOL0     C69415   3.775   1.954   0.890  0.0685 -0.9631 -0.3771
  515MOL0     C69416   3.828   1.947   0.761 -0.3204 -0.3250  0.0219
  515MOL0     C69417   3.961   1.989   0.743 -0.9890  0.1620 -0.8189
  515MOL0     C69418   4.015   1.997   0.594  1.5255 -0.1978  0.5928
  515MOL0     C69419   4.039   2.016   0.854 -0.4936 -0.7569 -0.5872
  515MOL0     C69420   4.184   2.046   0.853  0.2430  0.3745  0.1077
  515MOL0     O69421   4.229   2.164   0.783  0.0772  0.5870  0.1708
  515MOL0     C69422   4.360   2.202   0.775 -0.0852 -0.2478 -0.0265
  515MOL0     C69423   4.397   2.284   0.665  0.1574  0.5251  0.0434
  515MOL0     C69424   4.526   2.331   0.659 -0.0714  0.1096 -0.0272
  515MOL0     C69425   4.625   2.301   0.758  0.7506 -0.6538 -0.1016
  515MOL0     O69426   4.758   2.338   0.745 -0.0560 -0.7815 -0.1137
  515MOL0     C69427   4.792   2.482   0.720  0.5721  0.0469  0.5470
  515MOL0     C69428   4.907   2.516   0.814 -0.3904 -0.0548 -1.3453
  515MOL0     C69429   4.909   2.456   0.952  0.1075  0.1612  0.1003
  515MOL0     C69430   4.990   2.551   1.042  0.2921  0.3989  0.3797
  515MOL0     C69431   5.028   2.499   1.182 -0.4412  0.9172 -0.1832
  515MOL0     C69432   5.106   2.592   1.271  0.3092 -0.1786 -0.7708
  515MOL0     C69433   5.027   2.724   1.296  0.0486  0.6071  0.4675
  515MOL0     C69434   5.058   2.789   1.429  0.0137 -0.5229  0.6523
  515MOL0    Cl69435   4.978   2.946   1.444  0.1239  0.0253  0.2482
  515MOL0     C69436   4.587   2.212   0.863 -0.1270 -0.7540  0.5938
  515MOL0     C69437   4.455   2.174   0.876  0.4745 -0.2662  1.3867
  515MOL0     O69438   4.248   1.968   0.924  0.6145 -0.0612 -0.6242
  515MOL0     C69439   3.984   2.000   0.981 -0.4013 -0.8399 -0.2646
  515MOL0     C69440   3.850   1.983   1.002 -0.0785 -1.2466  0.8554
  515MOL0     N69441   3.214   2.035   0.612 -0.5252  0.6074  0.3575
  515MOL0     N69442   3.204   2.141   0.554  0.1807 -0.1328  0.3171
  515MOL0     C69443   4.267   3.037   0.626  0.3837 -0.0432 -0.2697
  515MOL0     C69444   4.374   3.113   0.683  0.0698  0.9150 -0.7816
  515MOL0     C69445   4.579   3.335   1.007  0.0476 -0.4517  0.6411
  515MOL0     C69446   4.601   3.313   1.139  0.2153 -0.2878 -0.3216
  515MOL0     C69447   4.714   3.373   1.205 -0.1192 -0.5737  0.2756
  515MOL0     C69448   4.795   3.469   1.138  0.2097  0.7223 -0.6565
  515MOL0     O69449   4.880   3.547   1.207 -0.3206  0.4905  0.4774
  515MOL0     C69450   4.980   3.469   1.271  0.0023  0.2001  0.1887
  515MOL0     C69451   5.063   3.376   1.176 -1.0238  0.2872 -0.5721
  515MOL0     C69452   5.199   3.330   1.242 -0.2115 -0.3839 -0.7403
  515MOL0     C69453   5.303   3.277   1.141  0.5176 -0.4905  0.9754
  515MOL0     C69454   5.369   3.394   1.078  0.5562  0.4264 -0.6201
  515MOL0     C69455   5.448   3.462   1.018 -0.1584 -0.2150  0.3197
  515MOL0     C69456   4.766   3.493   1.010  0.1213  0.2186 -0.1659
  515MOL0     C69457   4.665   3.429   0.937  0.4753  0.0585 -0.9073
  515MOL0     H69458   4.237   3.420   0.718  0.2833  0.4030 -1.9788
  515MOL0     H69459   4.047   3.293   0.624 -0.6741 -0.2480  0.9813
  515MOL0     H69460   4.103   2.853   0.502  0.0198  1.5570 -3.7021
  515MOL0     H69461   4.015   2.900   0.651  0.0208  1.3530  0.2484
  515MOL0     H69462   3.820   2.935   0.492 -0.6187 -1.6528 -0.6823
  515MOL0     H69463   3.928   2.852   0.372 -0.5553 -1.8436  0.1238
  515MOL0     H69464   3.920   2.656   0.562 -2.0999 -1.1497  2.3423
  515MOL0     H69465   3.794   2.761   0.633 -1.0671 -0.3725 -0.0609
  515MOL0     H69466   3.663   2.758   0.437  1.6691  1.5654 -0.4550
  515MOL0     H69467   3.770   2.645   0.361 -2.9280 -0.9632 -1.2769
  515MOL0     H69468   3.728   2.473   0.514  0.6890 -0.0083  1.8732
  515MOL0     H69469   3.633   2.584   0.626  2.4129  5.0099 -1.2801
  515MOL0     H69470   3.443   2.589   0.471 -0.9148 -1.9552 -0.0655
  515MOL0     H69471   3.541   2.505   0.352  0.3778 -2.6728  0.0983
  515MOL0     H69472   3.576   2.315   0.519  0.5274  0.7756 -1.9065
  515MOL0     H69473   3.457   2.393   0.622 -3.1978 -1.0471 -1.1372
  515MOL0     H69474   3.384   2.287   0.347 -0.1203 -3.3852  0.7519
  515MOL0     H69475   3.283   2.383   0.461  0.7495 -0.1195  0.9961
  515MOL0     H69476   3.528   2.088   0.570 -0.2205 -2.8902 -2.9682
  515MOL0     H69477   3.327   1.775   0.647  0.7381 -0.4644  2.1209
  515MOL0     H69478   3.475   1.835   0.642 -1.2786 -1.2579 -2.9611
  515MOL0     H69479   3.271   1.845   0.864 -0.5295  1.2168 -1.5646
  515MOL0     H69480   3.402   1.968   0.865 -0.2714  0.4569  0.4497
  515MOL0     H69481   3.427   1.672   0.891 -0.7545  0.2622  0.6112
  515MOL0     H69482   3.435   1.781   1.024  0.9314  0.8557 -0.0515
  515MOL0     H69483   3.624   1.757   0.782 -5.3695  0.6548 -2.3890
  515MOL0     H69484   3.658   1.718   0.951 -0.6159 -0.0487  0.4438
  515MOL0     H69485   3.757   1.943   0.679 -2.7068  0.8257  1.9176
  515MOL0     H69486   3.976   2.088   0.548  0.4893 -0.5243  0.7764
  515MOL0     H69487   4.124   2.001   0.593  1.5090  1.0858  1.2059
  515MOL0     H69488   3.970   1.917   0.534 -0.0577 -0.4285  1.9804
  515MOL0     H69489   4.332   2.321   0.587  0.9292  2.9065  0.4573
  515MOL0     H69490   4.562   2.385   0.572  1.2114 -0.4244  0.1499
  515MOL0     H69491   4.827   2.503   0.619 -2.1636  4.6304  0.3292
  515MOL0     H69492   4.711   2.549   0.748  1.2964  0.7449  1.0035
  515MOL0     H69493   5.005   2.496   0.770  0.4579  2.9867 -1.0980
  515MOL0     H69494   4.923   2.625   0.813  0.6801 -0.0847  1.4504
  515MOL0     H69495   4.946   2.353   0.952  1.1846  0.5435  0.5562
  515MOL0     H69496   4.812   2.449   1.002  0.2509 -0.8404  0.2765
  515MOL0     H69497   5.087   2.555   0.992  0.3529 -2.9650 -0.0209
  515MOL0     H69498   4.949   2.652   1.041 -2.3938 -0.5727 -2.4206
  515MOL0     H69499   5.084   2.407   1.165  1.9256  2.3515 -0.5650
  515MOL0     H69500   4.936   2.482   1.239  0.2520  3.4995  1.9407
  515MOL0     H69501   5.107   2.543   1.369  4.0839  0.2188 -0.4606
  515MOL0     H69502   5.208   2.617   1.239  1.2457 -3.6492 -0.8943
  515MOL0     H69503   4.921   2.696   1.303  0.8468 -2.7719  0.6405
  515MOL0     H69504   5.030   2.798   1.216 -3.4818  0.3000 -0.1297
  515MOL0     H69505   5.165   2.806   1.447 -0.0712  3.7646 -1.6667
  515MOL0     H69506   4.997   2.739   1.504 -0.1444 -2.0808 -0.4658
  515MOL0     H69507   4.663   2.188   0.937 -0.2346  0.8374  1.2669
  515MOL0     H69508   4.421   2.120   0.963  2.1319 -1.4721  1.3282
  515MOL0     H69509   4.045   2.033   1.065  0.5511  1.3732 -1.7122
  515MOL0     H69510   3.802   1.971   1.098 -1.4601 -0.3872  0.2994
  515MOL0     H69511   4.266   2.929   0.617  0.1577 -0.2009  1.3086
  515MOL0     H69512   4.465   3.058   0.707 -0.8437  0.2806  1.4465
  515MOL0     H69513   4.540   3.247   1.201  2.8926 -2.6444  0.0249
  515MOL0     H69514   4.708   3.358   1.312  0.3426 -1.0908  0.2328
  515MOL0     H69515   5.048   3.546   1.310 -0.2963  0.9460 -0.7249
  515MOL0     H69516   4.947   3.413   1.359  1.4262 -0.1755  0.5110
  515MOL0     H69517   5.090   3.438   1.090  0.2309 -2.7615 -2.5363
  515MOL0     H69518   5.007   3.290   1.139  0.7465 -0.7830 -0.8565
  515MOL0     H69519   5.182   3.252   1.316  2.7416 -2.0550 -1.6240
  515MOL0     H69520   5.251   3.410   1.295 -0.9932 -0.0108 -0.5243
  515MOL0     H69521   5.262   3.199   1.077  2.8948 -2.0996  1.3158
  515MOL0     H69522   5.375   3.213   1.192  0.7001 -0.1447  1.1543
  515MOL0     H69523   5.524   3.511   0.961 -1.1983  1.7845  0.5763
  515MOL0     H69524   4.832   3.571   0.972 -0.1214  2.2217  3.1397
  515MOL0     H69525   4.651   3.460   0.834  1.3565  1.6254 -0.5989
  516MOL0     O69526  11.123   7.926   3.767 -0.2416  0.0752 -0.3361
  516MOL0     C69527  11.033   7.939   3.851 -0.3169 -0.3255 -0.2224
  516MOL0     O69528  10.947   7.847   3.890  0.8732  0.7297 -0.4028
  516MOL0     C69529  10.959   7.701   3.859 -0.4117  0.1046 -0.3247
  516MOL0     C69530  10.990   7.665   3.731 -0.4527  0.5659 -0.0150
  516MOL0     C69531  10.969   7.534   3.684 -0.3367  0.0057  0.3914
  516MOL0     C69532  10.942   7.438   3.779  0.9962 -0.0440 -0.3406
  516MOL0     O69533  10.980   7.315   3.743  0.1152 -0.0697  0.2385
  516MOL0     C69534  10.892   7.226   3.669 -0.3859 -0.0594  0.0315
  516MOL0     C69535  10.933   7.079   3.674  0.6786  0.6327  0.1266
  516MOL0     C69536  10.825   6.994   3.603 -0.5972  0.2329  0.0362
  516MOL0     C69537  10.854   6.843   3.610 -0.0050  0.3516 -0.1866
  516MOL0     C69538  10.751   6.759   3.540  0.8629  0.0094  0.5109
  516MOL0     C69539  10.806   6.614   3.509  0.1718 -0.0773  0.8391
  516MOL0     C69540  10.697   6.534   3.438 -0.9079  0.0902 -0.1840
  516MOL0     C69541  10.717   6.380   3.450  0.3189 -0.6568  0.2258
  516MOL0     N69542  10.628   6.293   3.373  0.1531  0.5786  0.9752
  516MOL0     C69543  10.509   6.243   3.427 -0.0321 -0.7672  0.4962
  516MOL0     C69544  10.455   6.182   3.319  0.1107 -0.4235  0.1000
  516MOL0     C69545  10.313   6.137   3.309 -0.1971  0.1991  0.3631
  516MOL0     C69546  10.291   5.996   3.362  0.6250  0.3669  0.0499
  516MOL0     C69547  10.339   5.888   3.260 -0.7163  0.4371 -0.1298
  516MOL0     C69548  10.232   5.850   3.165  0.5440 -0.4193  0.1856
  516MOL0     O69549  10.290   5.781   3.049  0.7270 -0.4060 -0.3394
  516MOL0     C69550  10.224   5.795   2.934  0.3040 -0.4918  2.0393
  516MOL0     C69551  10.313   5.786   2.821  0.8925  0.1515 -0.4528
  516MOL0     C69552  10.270   5.787   2.682 -0.0635 -0.4450  0.4535
  516MOL0     C69553  10.380   5.771   2.581 -0.5580 -0.5948  0.5179
  516MOL0     C69554  10.133   5.813   2.651 -0.0406 -0.2825 -0.6280
  516MOL0     C69555  10.068   5.779   2.517 -0.1273  0.0687 -1.2195
  516MOL0     O69556  10.149   5.725   2.424 -0.4857 -0.6510  0.5111
  516MOL0     C69557  10.095   5.680   2.306 -0.8510 -0.8911 -0.0308
  516MOL0     C69558   9.993   5.746   2.227 -0.2640  0.1442 -0.1760
  516MOL0     C69559   9.944   5.689   2.109  0.5456 -1.2692 -0.5574
  516MOL0     C69560  10.017   5.588   2.040  0.3901 -0.2525 -0.0080
  516MOL0     O69561   9.966   5.523   1.934  0.5462  0.1872 -0.3389
  516MOL0     C69562   9.835   5.568   1.869  0.0672  0.1118  0.5895
  516MOL0     C69563   9.707   5.518   1.937  0.6989 -0.9849  0.5584
  516MOL0     C69564   9.724   5.363   1.970 -0.2795 -0.3956  0.2121
  516MOL0     C69565   9.732   5.259   1.855  0.9357 -0.3650 -0.1228
  516MOL0     C69566   9.609   5.261   1.768 -0.7225 -0.1162 -0.6411
  516MOL0     C69567   9.588   5.133   1.683 -0.3174 -0.2418 -0.2668
  516MOL0     C69568   9.518   5.020   1.747 -0.1475 -0.2175  0.6201
  516MOL0     C69569   9.449   4.925   1.655  0.1597 -0.0610 -0.1032
  516MOL0    Cl69570   9.455   4.753   1.703  0.1640  0.0108 -0.2976
  516MOL0     C69571  10.120   5.532   2.117 -1.0432  0.1421 -0.2041
  516MOL0     C69572  10.153   5.572   2.247  0.3313  1.1228  0.8998
  516MOL0     O69573   9.958   5.821   2.501 -0.2292 -0.7811 -0.7492
  516MOL0     C69574  10.052   5.846   2.766  0.4602  1.0670  0.4239
  516MOL0     C69575  10.086   5.820   2.899  0.5815 -0.9867 -0.8171
  516MOL0     N69576  10.542   6.188   3.209  0.3908 -0.8792  0.6084
  516MOL0     N69577  10.646   6.255   3.243  0.4899  0.2022 -0.1518
  516MOL0     C69578  10.919   7.469   3.918  0.1056 -1.6123 -0.1686
  516MOL0     C69579  10.935   7.601   3.956 -1.9476 -0.4181 -1.0989
  516MOL0     C69580  11.003   8.076   3.901  0.2731 -0.4293  0.3141
  516MOL0     C69581  11.073   8.197   3.866 -0.7413  0.3166 -1.3565
  516MOL0     C69582  11.048   8.322   3.930 -0.0267  0.3939 -1.0609
  516MOL0     C69583  10.944   8.326   4.017  0.8070 -0.4534  0.1908
  516MOL0     O69584  10.915   8.442   4.090 -0.2203  0.6296  0.7020
  516MOL0     C69585  10.963   8.578   4.059 -0.0485  1.1466 -0.2121
  516MOL0     C69586  10.935   8.694   4.152 -0.2634  0.2087  0.0947
  516MOL0     C69587  11.026   8.697   4.273  0.2461 -0.5947  0.2136
  516MOL0     C69588  11.006   8.826   4.352  0.8208 -0.9361  0.2961
  516MOL0     C69589  10.874   8.818   4.422  0.1630 -0.2744  0.0461
  516MOL0     C69590  10.776   8.821   4.494  0.5155 -0.1830  0.5048
  516MOL0     C69591  10.857   8.215   4.042 -0.3124 -0.1399 -0.5979
  516MOL0     C69592  10.889   8.092   3.986 -0.8004  0.5019  0.2491
  516MOL0     H69593  11.043   7.734   3.665 -1.5854  0.1222 -1.4357
  516MOL0     H69594  10.986   7.502   3.582 -1.7495 -3.6810  1.1507
  516MOL0     H69595  10.788   7.240   3.699  0.1401  0.3215  1.7556
  516MOL0     H69596  10.900   7.255   3.563  2.3448 -0.4469  0.0729
  516MOL0     H69597  11.030   7.061   3.625  0.5250  0.7339 -0.2164
  516MOL0     H69598  10.940   7.045   3.778 -0.4994 -3.7089 -1.0289
  516MOL0     H69599  10.729   7.002   3.654 -0.1028 -0.8228  1.1765
  516MOL0     H69600  10.816   7.020   3.497 -3.2895  1.5613  0.5176
  516MOL0     H69601  10.956   6.826   3.574  0.5313  1.2467  0.8422
  516MOL0     H69602  10.845   6.833   3.719 -1.9285  0.2192 -0.3260
  516MOL0     H69603  10.663   6.751   3.605  0.2942 -0.4090 -0.2928
  516MOL0     H69604  10.727   6.797   3.441  1.2693  1.7852  1.0405
  516MOL0     H69605  10.882   6.625   3.432 -2.4137 -0.7629 -2.0194
  516MOL0     H69606  10.842   6.564   3.600 -1.0822 -0.1815  1.3081
  516MOL0     H69607  10.600   6.570   3.476 -1.1669 -0.9325  0.1453
  516MOL0     H69608  10.710   6.562   3.333  5.2063  0.6072  0.3549
  516MOL0     H69609  10.713   6.351   3.555 -0.6268 -0.9041  0.1305
  516MOL0     H69610  10.818   6.354   3.417  1.2559  0.7847  1.7788
  516MOL0     H69611  10.481   6.261   3.530  0.2157 -3.2002  1.0557
  516MOL0     H69612  10.234   6.203   3.344 -0.4740 -0.0811  0.2770
  516MOL0     H69613  10.288   6.122   3.203  1.3494 -4.8953  0.4599
  516MOL0     H69614  10.185   5.983   3.385  0.4286  3.4668  1.3153
  516MOL0     H69615  10.340   5.981   3.459  0.6928  1.3772  0.1784
  516MOL0     H69616  10.372   5.791   3.299 -0.2720  0.5016 -0.3474
  516MOL0     H69617  10.425   5.915   3.199  0.7074 -2.6547  0.3135
  516MOL0     H69618  10.168   5.933   3.133  0.2753 -0.4564  0.6245
  516MOL0     H69619  10.165   5.785   3.220  2.3400 -0.8667  1.9601
  516MOL0     H69620  10.416   5.765   2.845 -0.4553 -2.1539  4.6200
  516MOL0     H69621  10.395   5.666   2.556  0.2969  0.2904 -3.4139
  516MOL0     H69622  10.373   5.823   2.484  0.5962  1.2431  1.3432
  516MOL0     H69623  10.473   5.814   2.620 -1.4729  0.9631  1.0501
  516MOL0     H69624   9.956   5.833   2.281  1.0213 -1.1084  2.9811
  516MOL0     H69625   9.840   5.705   2.080  0.2910 -2.4673 -0.3518
  516MOL0     H69626   9.841   5.677   1.866 -0.5141  0.1256 -0.8516
  516MOL0     H69627   9.831   5.532   1.766 -2.5179  2.3283 -0.1794
  516MOL0     H69628   9.656   5.572   2.017 -2.4608  1.1978 -2.6362
  516MOL0     H69629   9.626   5.533   1.865  0.5496  1.8758  1.1941
  516MOL0     H69630   9.638   5.330   2.030 -1.5507  0.0227 -1.3106
  516MOL0     H69631   9.803   5.347   2.045  0.9821 -1.3840 -1.2611
  516MOL0     H69632   9.816   5.272   1.786  0.2775  2.0810 -0.5599
  516MOL0     H69633   9.745   5.164   1.907 -2.4600 -0.5348  0.6766
  516MOL0     H69634   9.609   5.354   1.709 -3.3228 -1.1940 -2.5319
  516MOL0     H69635   9.528   5.273   1.839 -0.8832 -0.5833 -0.7445
  516MOL0     H69636   9.534   5.161   1.593 -1.6941 -3.0063 -0.3908
  516MOL0     H69637   9.688   5.098   1.654 -0.9325 -1.2247 -1.2541
  516MOL0     H69638   9.446   5.057   1.821 -1.8269 -0.6688 -0.7277
  516MOL0     H69639   9.596   4.972   1.807  1.7038  0.8962 -0.8058
  516MOL0     H69640   9.487   4.930   1.552  2.5326 -2.1446  0.5684
  516MOL0     H69641   9.345   4.954   1.640 -0.1225 -0.4973  0.9648
  516MOL0     H69642  10.169   5.441   2.085  0.6616 -0.1399  2.8411
  516MOL0     H69643  10.225   5.513   2.303  0.9887  1.7185  0.6948
  516MOL0     H69644   9.945   5.857   2.761  0.4967  1.2406  0.0186
  516MOL0     H69645  10.011   5.825   2.976  1.0248  1.3579 -0.4595
  516MOL0     H69646  10.919   7.389   3.991  3.6891 -3.0683 -1.5107
  516MOL0     H69647  10.927   7.636   4.058 -0.1369 -0.4504 -0.9257
  516MOL0     H69648  11.154   8.181   3.795  2.3555  1.8823  1.5495
  516MOL0     H69649  11.108   8.412   3.923  1.9228 -0.6303  1.1488
  516MOL0     H69650  11.071   8.576   4.043 -0.1799 -0.9609 -1.1717
  516MOL0     H69651  10.908   8.604   3.968 -4.3750 -1.6006  1.3422
  516MOL0     H69652  10.830   8.697   4.181 -1.0184 -1.6758 -2.1008
  516MOL0     H69653  10.946   8.791   4.103 -1.1620  0.7717  0.9740
  516MOL0     H69654  11.125   8.700   4.225 -1.8041  1.7780 -4.4879
  516MOL0     H69655  11.018   8.620   4.350  0.7566  1.8760  2.9213
  516MOL0     H69656  11.028   8.915   4.292  1.2131 -0.9467  0.4193
  516MOL0     H69657  11.086   8.834   4.428  0.0643  2.4585  0.9104
  516MOL0     H69658  10.691   8.820   4.559  0.1595 -0.7262  0.0383
  516MOL0     H69659  10.772   8.228   4.108 -1.0013 -0.5878 -1.3710
  516MOL0     H69660  10.830   8.008   4.021  0.4275  0.3502  2.1563
  517MOL0     O69661   0.047  10.091   8.321  0.0977 -0.8157 -0.5271
  517MOL0     C69662   0.148  10.150   8.356  0.1949 -0.8339  1.0379
  517MOL0     O69663   0.189  10.177   8.486  0.2338  0.1256  0.0455
  517MOL0     C69664   0.101  10.107   8.569 -1.0299 -0.2547 -0.1596
  517MOL0     C69665   0.078   9.968   8.565 -1.1592  0.1785  0.3521
  517MOL0     C69666  -0.005   9.903   8.656  0.6016 -0.5778  0.0235
  517MOL0     C69667  -0.058   9.978   8.758  0.0851 -0.5940 -0.3410
  517MOL0     O69668  -0.115   9.907   8.855  0.1181  0.0603  0.0376
  517MOL0     C69669  -0.201   9.985   8.945 -0.4965  0.6944  0.4472
  517MOL0     C69670  -0.281   9.888   9.036  0.0307 -0.4833 -0.2862
  517MOL0     C69671  -0.416   9.939   9.089  0.1690 -0.5700 -0.5561
  517MOL0     C69672  -0.490   9.837   9.177 -0.8630  0.4744 -0.7798
  517MOL0     C69673  -0.632   9.883   9.218 -0.2552 -0.0588  0.4714
  517MOL0     C69674  -0.690   9.780   9.318  0.7922 -0.2113  0.9528
  517MOL0     C69675  -0.634   9.771   9.456  0.3588  0.2938  0.1878
  517MOL0     C69676  -0.680   9.638   9.535 -0.0511  0.5693  1.1327
  517MOL0     N69677  -0.794   9.657   9.627 -0.4033  1.2216  0.5165
  517MOL0     C69678  -0.913   9.593   9.629 -0.3937 -0.4437  0.5159
  517MOL0     C69679  -0.981   9.628   9.738 -0.8012 -0.8651 -0.4588
  517MOL0     C69680  -1.111   9.572   9.797 -0.1493 -0.4766  0.1885
  517MOL0     C69681  -1.230   9.634   9.713 -0.5089  0.0391  0.4453
  517MOL0     C69682  -1.357   9.560   9.770  0.3771 -0.3343  0.4978
  517MOL0     C69683  -1.383   9.576   9.921 -1.5356 -0.0982  0.0574
  517MOL0     O69684  -1.333   9.703   9.967  0.8271  0.4264 -0.4290
  517MOL0     C69685  -1.351   9.747  10.094  0.3390  0.1162  0.3380
  517MOL0     C69686  -1.464   9.828  10.120 -1.4814 -0.7148 -0.5621
  517MOL0     C69687  -1.498   9.848  10.254  0.2518 -0.3023 -0.1373
  517MOL0     C69688  -1.625   9.919  10.281  0.3202 -0.0553  0.5013
  517MOL0     C69689  -1.417   9.797  10.364 -0.4481 -0.4986  0.7350
  517MOL0     C69690  -1.450   9.812  10.510 -0.6914  1.1577 -0.2377
  517MOL0     O69691  -1.369   9.734  10.601 -0.4859 -0.5880  1.3906
  517MOL0     C69692  -1.351   9.782  10.729  0.1777 -0.4368 -0.1004
  517MOL0     C69693  -1.422   9.718  10.834 -0.1892  0.2759  0.6868
  517MOL0     C69694  -1.400   9.755  10.957 -0.7474 -0.2415 -0.4239
  517MOL0     C69695  -1.336   9.878  10.991  0.0757 -0.2157 -0.5064
  517MOL0     O69696  -1.315   9.919  11.117 -0.0039 -0.2327  0.4583
  517MOL0     C69697  -1.387  10.033  11.145  0.3143 -0.5959 -0.5676
  517MOL0     C69698  -1.384  10.063  11.295 -0.1344  0.0191  0.0969
  517MOL0     C69699  -1.473  10.185  11.339  0.0107 -0.8314  0.0932
  517MOL0     C69700  -1.451  10.199  11.487 -0.2231  0.2161 -0.8676
  517MOL0     C69701  -1.527  10.321  11.550  0.9111  0.6039 -0.0873
  517MOL0     C69702  -1.479  10.346  11.698 -0.2482 -0.7025 -1.3579
  517MOL0     C69703  -1.515  10.488  11.738  0.8940  0.1769 -0.6842
  517MOL0     C69704  -1.666  10.513  11.765  0.0796  0.4334  0.3702
  517MOL0    Cl69705  -1.722  10.413  11.902  0.0771 -0.1640 -0.2134
  517MOL0     C69706  -1.279   9.945  10.886 -0.0358  0.8210 -0.2077
  517MOL0     C69707  -1.290   9.903  10.757  0.1979 -0.1680 -0.1677
  517MOL0     O69708  -1.543   9.883  10.547  0.1107 -0.4242 -0.7486
  517MOL0     C69709  -1.314   9.721  10.326 -0.2601  0.0742 -0.7603
  517MOL0     C69710  -1.277   9.693  10.192  0.5879 -0.3550 -0.9471
  517MOL0     N69711  -0.890   9.719   9.806 -0.7585  0.5915 -0.9723
  517MOL0     N69712  -0.773   9.729   9.743  0.5259 -0.3409  0.0056
  517MOL0     C69713  -0.057  10.122   8.750  0.2073 -1.2308 -0.9610
  517MOL0     C69714   0.030  10.186   8.666  0.8074 -0.8968 -0.1592
  517MOL0     C69715   0.241  10.214   8.256 -0.4039  0.7794  0.0964
  517MOL0     C69716   0.238  10.172   8.119  0.6193 -0.0541 -0.0518
  517MOL0     C69717   0.331  10.218   8.025  0.6143 -0.2565 -0.3429
  517MOL0     C69718   0.423  10.316   8.065  0.4070 -0.5511  0.0734
  517MOL0     O69719   0.500  10.392   7.975  0.0013 -0.3243  0.2734
  517MOL0     C69720   0.469  10.395   7.838  0.4104 -0.2877  0.9441
  517MOL0     C69721   0.531  10.278   7.741  0.0608 -0.4901 -0.5475
  517MOL0     C69722   0.672  10.312   7.698  0.5980 -0.1214  0.0999
  517MOL0     C69723   0.728  10.193   7.613  0.0172 -0.8873 -0.2643
  517MOL0     C69724   0.875  10.192   7.610 -0.7812 -0.8446 -0.1286
  517MOL0     C69725   0.998  10.211   7.618  0.0584 -0.2903  0.7850
  517MOL0     C69726   0.443  10.348   8.196 -0.0464  0.1739 -0.0238
  517MOL0     C69727   0.349  10.304   8.289  1.6184  0.5538 -0.0675
  517MOL0     H69728   0.127   9.905   8.492 -0.9949 -1.3798  1.7505
  517MOL0     H69729  -0.018   9.795   8.664  2.5521 -0.8056  0.9796
  517MOL0     H69730  -0.146  10.046   9.017  0.3057 -2.3412  2.5699
  517MOL0     H69731  -0.282  10.032   8.888  0.2821 -1.9277 -3.1928
  517MOL0     H69732  -0.287   9.796   8.977  0.6670  0.4364 -1.8539
  517MOL0     H69733  -0.224   9.871   9.129 -0.0026  0.8013 -0.0110
  517MOL0     H69734  -0.397  10.033   9.142 -0.6349 -0.5384 -0.3103
  517MOL0     H69735  -0.472   9.953   8.996  1.5717  1.2844 -1.2037
  517MOL0     H69736  -0.494   9.741   9.124 -0.5851 -0.3743  0.6677
  517MOL0     H69737  -0.429   9.828   9.268 -2.6029 -0.0475  0.3855
  517MOL0     H69738  -0.623   9.985   9.257 -1.0146  0.1126  0.2178
  517MOL0     H69739  -0.704   9.886   9.136  1.0059 -1.8512 -0.7625
  517MOL0     H69740  -0.791   9.818   9.337  1.8424  1.5918  3.5825
  517MOL0     H69741  -0.702   9.681   9.272 -0.2928 -0.8188  2.4665
  517MOL0     H69742  -0.526   9.783   9.460  0.2107  1.4541  1.6844
  517MOL0     H69743  -0.679   9.852   9.515  0.3367  2.5791 -2.7797
  517MOL0     H69744  -0.598   9.595   9.594 -0.4384 -0.6322  0.8075
  517MOL0     H69745  -0.705   9.564   9.459  0.1021  1.8211 -0.2013
  517MOL0     H69746  -0.955   9.525   9.555 -0.8920  1.2671 -0.8499
  517MOL0     H69747  -1.115   9.463   9.796  0.4447 -0.6265  3.4168
  517MOL0     H69748  -1.122   9.601   9.902  3.2706 -4.0682  1.7592
  517MOL0     H69749  -1.219   9.622   9.605  2.8946  0.1004  0.6671
  517MOL0     H69750  -1.245   9.739   9.739 -1.0990 -0.8329  4.2714
  517MOL0     H69751  -1.358   9.453   9.747 -2.3256 -0.7293  2.0437
  517MOL0     H69752  -1.434   9.610   9.712 -0.3138 -1.8317  0.0722
  517MOL0     H69753  -1.318   9.495   9.957 -3.3386 -2.2164 -1.1675
  517MOL0     H69754  -1.490   9.561   9.943 -1.5382  2.0725  1.8880
  517MOL0     H69755  -1.523   9.869  10.039  0.0567  2.2158 -0.3626
  517MOL0     H69756  -1.687   9.871  10.357  0.8297 -3.6016 -1.0703
  517MOL0     H69757  -1.600  10.020  10.313 -0.8462  0.8329 -1.2521
  517MOL0     H69758  -1.689   9.917  10.192 -1.5381  0.1581  1.7758
  517MOL0     H69759  -1.493   9.637  10.817 -0.0617  0.6840 -2.2419
  517MOL0     H69760  -1.446   9.704  11.041 -1.8735 -1.6755 -1.8511
  517MOL0     H69761  -1.352  10.129  11.107  2.3425 -1.4180 -0.9194
  517MOL0     H69762  -1.492  10.030  11.115 -0.5374  0.0179  2.0797
  517MOL0     H69763  -1.413   9.974  11.352 -5.2524  1.9296  1.0341
  517MOL0     H69764  -1.276  10.074  11.309  0.7704 -3.0088 -3.0875
  517MOL0     H69765  -1.576  10.154  11.323  0.3337 -1.6310 -0.4589
  517MOL0     H69766  -1.439  10.283  11.303  2.7782  0.2043  4.6947
  517MOL0     H69767  -1.475  10.106  11.540  1.0676 -0.4332 -1.3946
  517MOL0     H69768  -1.342  10.210  11.490 -0.2081  0.5121 -2.1474
  517MOL0     H69769  -1.635  10.306  11.560  1.2884 -2.0535  1.0578
  517MOL0     H69770  -1.499  10.406  11.489  3.0306 -0.7692 -1.1388
  517MOL0     H69771  -1.516  10.275  11.772  0.2360 -0.1002 -0.5224
  517MOL0     H69772  -1.372  10.332  11.718 -0.9456 -1.1159  2.9143
  517MOL0     H69773  -1.484  10.565  11.668 -0.2962  1.1767 -0.1483
  517MOL0     H69774  -1.459  10.523  11.826 -0.8055  2.7397 -0.5358
  517MOL0     H69775  -1.721  10.481  11.676 -2.9713  1.3641  1.7757
  517MOL0     H69776  -1.697  10.617  11.778 -4.1179 -0.4535 -0.9542
  517MOL0     H69777  -1.220  10.034  10.907  2.9651 -0.9854 -0.4656
  517MOL0     H69778  -1.257   9.966  10.674 -4.4004  0.5724 -1.7379
  517MOL0     H69779  -1.245   9.683  10.401  0.8132  0.9016 -1.2950
  517MOL0     H69780  -1.201   9.618  10.170  0.3141 -1.4398  1.4850
  517MOL0     H69781  -0.105  10.199   8.810 -1.0023 -2.1017 -0.7616
  517MOL0     H69782   0.045  10.293   8.653  2.5863 -0.7632  2.3528
  517MOL0     H69783   0.164  10.098   8.090 -0.1951  0.7935 -0.1788
  517MOL0     H69784   0.314  10.163   7.934 -3.9330  0.1555  0.0265
  517MOL0     H69785   0.361  10.381   7.828  0.4925 -2.0364  2.1293
  517MOL0     H69786   0.493  10.493   7.795  0.8163 -0.6642  0.3001
  517MOL0     H69787   0.452  10.269   7.665  0.8740 -0.1800 -1.4559
  517MOL0     H69788   0.532  10.187   7.800 -3.7602 -0.4214 -0.1450
  517MOL0     H69789   0.731  10.325   7.788 -2.3091 -0.2202  2.1764
  517MOL0     H69790   0.668  10.409   7.649 -1.8766 -1.5902 -2.9557
  517MOL0     H69791   0.686  10.214   7.514 -2.1721  0.9003  0.9278
  517MOL0     H69792   0.695  10.097   7.652  1.9816 -1.3445  0.3582
  517MOL0     H69793   1.102  10.237   7.616  0.1460 -0.3793  2.5143
  517MOL0     H69794   0.520  10.418   8.226  2.6107 -1.8398 -1.6740
  517MOL0     H69795   0.350  10.347   8.388 -1.5830 -0.3410  0.4390
  518MOL0     O69796   8.862   8.001   7.631 -0.0814  0.1771 -0.0811
  518MOL0     C69797   8.835   7.939   7.525  0.4195  0.5995 -0.4810
  518MOL0     O69798   8.902   7.957   7.403  0.7200 -0.7009 -0.8239
  518MOL0     C69799   9.020   8.017   7.400 -0.0962 -0.6587  0.3555
  518MOL0     C69800   9.044   8.119   7.307  0.3324 -0.3229 -0.3578
  518MOL0     C69801   9.165   8.183   7.310 -0.3260  0.2141  0.7918
  518MOL0     C69802   9.267   8.144   7.400  0.0625 -0.6884  0.7943
  518MOL0     O69803   9.389   8.201   7.381 -0.0832  0.0229 -0.5886
  518MOL0     C69804   9.497   8.178   7.478 -0.1507  0.8345 -0.6255
  518MOL0     C69805   9.629   8.259   7.468 -0.0262  0.5074 -0.1831
  518MOL0     C69806   9.737   8.176   7.395 -0.2433 -0.5505  0.6853
  518MOL0     C69807   9.850   8.282   7.362 -0.0576 -0.6545 -0.4608
  518MOL0     C69808   9.986   8.221   7.342  0.0108  0.0316  0.0776
  518MOL0     C69809  10.102   8.327   7.349  1.0877 -0.1496 -1.6795
  518MOL0     C69810  10.239   8.287   7.299 -1.1529  0.7616 -0.0159
  518MOL0     C69811  10.318   8.177   7.375 -0.3697 -0.1965  0.1287
  518MOL0     N69812  10.443   8.149   7.297 -0.6610  1.1809  0.2096
  518MOL0     C69813  10.434   8.091   7.173  0.5170 -0.5585  0.4994
  518MOL0     C69814  10.568   8.079   7.139 -0.3098 -0.3580 -0.8265
  518MOL0     C69815  10.622   8.025   7.013 -0.4146 -0.1945  0.2593
  518MOL0     C69816  10.660   8.152   6.929  0.6680 -0.1546 -0.3442
  518MOL0     C69817  10.667   8.121   6.780  0.1550 -0.4084  0.7062
  518MOL0     C69818  10.541   8.160   6.713 -0.0731 -0.5001  0.0759
  518MOL0     O69819  10.428   8.097   6.781 -0.0856  0.2768  0.0452
  518MOL0     C69820  10.304   8.102   6.713 -0.3077 -0.3791  0.1332
  518MOL0     C69821  10.281   8.127   6.573 -0.7921 -0.4488 -1.5339
  518MOL0     C69822  10.155   8.120   6.518 -0.0628  0.5029  0.5334
  518MOL0     C69823  10.145   8.147   6.373  0.4765  0.1756 -0.8273
  518MOL0     C69824  10.047   8.110   6.604  0.8387 -0.1283 -0.4224
  518MOL0     C69825   9.905   8.116   6.556  0.0686  0.6152  0.1863
  518MOL0     O69826   9.826   8.033   6.634 -0.2306 -0.2079  0.6157
  518MOL0     C69827   9.686   8.049   6.634 -0.6410  1.1698  0.8499
  518MOL0     C69828   9.626   8.053   6.756  0.5568  0.2536  0.0916
  518MOL0     C69829   9.486   8.038   6.759 -0.9143  0.8890  0.4138
  518MOL0     C69830   9.408   8.042   6.642  0.1754 -0.2786  0.6061
  518MOL0     O69831   9.279   8.013   6.665 -0.9000 -0.8067 -0.0705
  518MOL0     C69832   9.220   7.903   6.586  0.8378 -0.6974  0.4382
  518MOL0     C69833   9.101   7.836   6.663  0.2123  0.7004  0.5324
  518MOL0     C69834   9.057   7.725   6.563 -0.6669  0.3557  0.2608
  518MOL0     C69835   8.942   7.645   6.622  0.6737  0.2533 -0.5783
  518MOL0     C69836   8.873   7.545   6.521 -0.6650 -0.2321  0.2014
  518MOL0     C69837   8.755   7.478   6.583  0.3890 -0.1112 -0.1467
  518MOL0     C69838   8.790   7.368   6.679 -0.0706 -0.1303 -0.0187
  518MOL0     C69839   8.673   7.322   6.767  0.3614 -1.2117  0.0089
  518MOL0    Cl69840   8.729   7.163   6.841 -0.2244  0.5115 -0.4921
  518MOL0     C69841   9.467   8.062   6.519  0.2697 -0.3125  0.1425
  518MOL0     C69842   9.607   8.071   6.510  0.0228 -0.9752 -0.5943
  518MOL0     O69843   9.868   8.179   6.456  0.4783  0.1156 -0.7624
  518MOL0     C69844  10.067   8.079   6.738 -0.2851  0.0368 -0.1857
  518MOL0     C69845  10.192   8.077   6.790  0.0392 -0.5460  0.0823
  518MOL0     N69846  10.648   8.129   7.240 -0.1005  0.2202 -0.6643
  518MOL0     N69847  10.574   8.184   7.331 -1.0296  1.6268  0.0588
  518MOL0     C69848   9.245   8.037   7.488 -0.0078 -0.0905  0.1908
  518MOL0     C69849   9.119   7.972   7.484 -0.9754  0.2485  0.2316
  518MOL0     C69850   8.712   7.875   7.510 -0.3753  0.7862 -0.4445
  518MOL0     C69851   8.668   7.795   7.615  0.0913 -0.6841 -0.6316
  518MOL0     C69852   8.551   7.726   7.603 -0.3289 -1.0666  0.4196
  518MOL0     C69853   8.474   7.734   7.485  1.5621  0.6006 -0.8380
  518MOL0     O69854   8.363   7.644   7.473 -0.5144  0.3390  0.1741
  518MOL0     C69855   8.231   7.703   7.456 -0.3203 -0.1267 -0.6803
  518MOL0     C69856   8.167   7.673   7.307  1.0893 -0.8897  0.1487
  518MOL0     C69857   8.018   7.726   7.293  0.5903  0.6064 -0.0522
  518MOL0     C69858   7.992   7.880   7.302  1.0518  0.5927  0.4127
  518MOL0     C69859   8.060   7.973   7.215  0.2969  0.4169  0.5116
  518MOL0     C69860   8.120   8.046   7.137 -1.3933  0.2380 -0.3681
  518MOL0     C69861   8.514   7.818   7.383 -0.3565 -0.2114  1.0077
  518MOL0     C69862   8.633   7.889   7.394  0.5357  0.0085 -0.7129
  518MOL0     H69863   8.958   8.132   7.243  0.1271 -0.2144 -0.0633
  518MOL0     H69864   9.184   8.266   7.243  1.2582 -1.9452 -1.5800
  518MOL0     H69865   9.463   8.204   7.579  0.2867  0.7417 -0.4509
  518MOL0     H69866   9.506   8.069   7.486  0.8373  0.9893  0.8371
  518MOL0     H69867   9.608   8.349   7.410  0.1713  1.1009  0.6420
  518MOL0     H69868   9.667   8.280   7.569  0.8289  1.5847 -0.7159
  518MOL0     H69869   9.777   8.094   7.456 -2.2365 -0.7291  1.8260
  518MOL0     H69870   9.698   8.136   7.301 -0.0359 -2.9380  1.5285
  518MOL0     H69871   9.828   8.350   7.279 -0.6681  0.3189  0.4675
  518MOL0     H69872   9.845   8.353   7.445  1.4268  0.4806 -1.2936
  518MOL0     H69873  10.003   8.155   7.428  0.6974  4.6048  3.9017
  518MOL0     H69874   9.990   8.170   7.246  0.4508  0.7089 -0.2715
  518MOL0     H69875  10.064   8.410   7.289 -2.0038 -0.8703 -0.9228
  518MOL0     H69876  10.105   8.361   7.453 -0.2131 -0.8073 -1.4029
  518MOL0     H69877  10.237   8.263   7.192 -1.0008 -3.4958  0.7444
  518MOL0     H69878  10.309   8.370   7.305  0.1404  0.0639 -3.3404
  518MOL0     H69879  10.261   8.084   7.379 -0.4427 -0.1508  0.1638
  518MOL0     H69880  10.335   8.220   7.474  1.0431 -0.2416 -0.0813
  518MOL0     H69881  10.345   8.060   7.120 -1.0738  3.6883  0.3302
  518MOL0     H69882  10.720   7.978   7.019  0.3381  1.0065 -1.7091
  518MOL0     H69883  10.547   7.963   6.962  3.6958 -6.0416  0.3897
  518MOL0     H69884  10.757   8.180   6.972  1.4417 -2.7824 -0.1697
  518MOL0     H69885  10.594   8.238   6.945  1.1181  0.2157 -0.4570
  518MOL0     H69886  10.702   8.019   6.762  1.6807  0.0177  1.1304
  518MOL0     H69887  10.741   8.191   6.740 -0.5227  0.7764  1.4747
  518MOL0     H69888  10.550   8.139   6.606 -1.3100 -0.1497 -0.1194
  518MOL0     H69889  10.534   8.269   6.705  0.3747 -0.3570  1.4684
  518MOL0     H69890  10.359   8.141   6.499  2.1276 -0.6662  1.2485
  518MOL0     H69891  10.242   8.146   6.324  1.6581 -1.6352  1.3607
  518MOL0     H69892  10.085   8.070   6.323 -1.5840 -0.1949  1.9645
  518MOL0     H69893  10.089   8.241   6.371 -1.6899 -0.9809  0.6962
  518MOL0     H69894   9.670   8.050   6.855 -0.1836  3.9862  0.6843
  518MOL0     H69895   9.441   8.002   6.851 -2.5360  0.2002 -0.6219
  518MOL0     H69896   9.188   7.948   6.491  0.8835 -2.2289 -0.3263
  518MOL0     H69897   9.286   7.821   6.559 -1.8321 -2.8099 -0.0429
  518MOL0     H69898   9.133   7.783   6.753 -1.0200  0.8680  1.0904
  518MOL0     H69899   9.020   7.906   6.689  0.2476  1.3398 -0.9753
  518MOL0     H69900   9.138   7.659   6.532  0.4255  1.5308  0.5276
  518MOL0     H69901   9.029   7.772   6.468  0.7513 -1.9464 -1.3780
  518MOL0     H69902   8.976   7.596   6.714  2.7275 -2.4635 -2.5997
  518MOL0     H69903   8.869   7.716   6.662  0.0565  0.2084 -1.5853
  518MOL0     H69904   8.931   7.454   6.502  0.6525  0.4973  0.6017
  518MOL0     H69905   8.863   7.591   6.423 -0.3135 -0.0025  0.2726
  518MOL0     H69906   8.694   7.548   6.641 -0.4068 -0.1251 -0.9479
  518MOL0     H69907   8.682   7.434   6.514  1.1118 -0.2871 -0.8128
  518MOL0     H69908   8.879   7.394   6.737  0.8569  0.9024 -1.8042
  518MOL0     H69909   8.811   7.286   6.609 -1.9487 -1.6893  1.1721
  518MOL0     H69910   8.590   7.303   6.699  2.1789  2.1723 -3.6390
  518MOL0     H69911   8.652   7.396   6.845  2.1589 -0.9015  0.2544
  518MOL0     H69912   9.425   8.060   6.420  0.0766 -0.1472  0.2227
  518MOL0     H69913   9.651   8.080   6.411  2.8503  2.7042  0.7601
  518MOL0     H69914   9.987   8.055   6.808 -2.1977 -1.3415 -2.6736
  518MOL0     H69915  10.221   8.041   6.888  3.6550 -1.6383 -1.2229
  518MOL0     H69916   9.322   7.997   7.554  1.8293  0.6769 -1.3819
  518MOL0     H69917   9.104   7.892   7.556  0.4011 -0.9253 -0.7395
  518MOL0     H69918   8.720   7.789   7.710  1.8163  1.9410 -1.2957
  518MOL0     H69919   8.503   7.660   7.675 -1.1699 -0.7528  0.1668
  518MOL0     H69920   8.173   7.653   7.534  0.5105  2.0293  1.4694
  518MOL0     H69921   8.221   7.810   7.476 -1.6173 -0.3948  0.2000
  518MOL0     H69922   8.179   7.565   7.294  1.7713 -0.9998  1.6243
  518MOL0     H69923   8.230   7.721   7.231 -0.9457  2.8755  0.5895
  518MOL0     H69924   7.955   7.671   7.363 -1.0235  0.9088 -1.1996
  518MOL0     H69925   7.989   7.691   7.193  1.0506 -0.0071  0.0250
  518MOL0     H69926   8.005   7.917   7.404 -0.1219 -0.4073  0.9462
  518MOL0     H69927   7.884   7.892   7.290  0.7886 -1.3510  0.4186
  518MOL0     H69928   8.178   8.100   7.065 -0.8211 -2.0356 -1.7179
  518MOL0     H69929   8.460   7.823   7.288  0.0705  0.5893  0.7928
  518MOL0     H69930   8.648   7.962   7.315 -0.2708  0.4846 -0.4415
  519MOL0     O69931  11.180   6.914   6.155 -0.5143  0.3832 -0.1775
  519MOL0     C69932  11.202   6.981   6.250 -0.2513  0.3641  0.5125
  519MOL0     O69933  11.135   6.991   6.367  0.3035  0.5054  0.2249
  519MOL0     C69934  11.019   6.917   6.400 -0.7766  0.2712 -0.4023
  519MOL0     C69935  11.008   6.908   6.536 -1.0340  0.9490 -0.0461
  519MOL0     C69936  10.901   6.846   6.587  0.5419 -0.4415  0.6110
  519MOL0     C69937  10.802   6.787   6.506  0.7626 -0.1659 -0.5313
  519MOL0     O69938  10.702   6.730   6.583 -0.0976  0.1409  0.5682
  519MOL0     C69939  10.581   6.697   6.509 -0.0354  0.7989 -0.6719
  519MOL0     C69940  10.483   6.625   6.620 -0.6095 -0.8053 -0.0605
  519MOL0     C69941  10.469   6.718   6.749  0.3190 -0.5468 -0.0587
  519MOL0     C69942  10.361   6.670   6.843 -0.1183  0.3890 -0.0373
  519MOL0     C69943  10.346   6.759   6.957  0.2074 -0.2941  0.2331
  519MOL0     C69944  10.232   6.714   7.042  0.3182  0.6002  0.0787
  519MOL0     C69945  10.196   6.818   7.144 -0.0050 -1.0858 -0.4336
  519MOL0     C69946  10.102   6.765   7.255 -0.3264 -0.2747  0.1542
  519MOL0     N69947  10.124   6.814   7.392 -0.5405 -0.1525  0.3319
  519MOL0     C69948  10.212   6.754   7.486 -0.2990 -1.1677 -0.2498
  519MOL0     C69949  10.183   6.819   7.608  0.8075  0.7496 -0.5546
  519MOL0     C69950  10.247   6.787   7.737  0.0288  0.2524 -0.2760
  519MOL0     C69951  10.169   6.691   7.814 -0.2887  0.5865  0.0736
  519MOL0     C69952  10.179   6.547   7.780 -0.3730  0.9528  0.2397
  519MOL0     C69953  10.061   6.476   7.857 -0.2523  0.8992 -1.2450
  519MOL0     O69954  10.068   6.335   7.830  0.2060 -0.3293 -0.0465
  519MOL0     C69955   9.985   6.253   7.913  0.4526 -0.1401 -0.2781
  519MOL0     C69956   9.844   6.254   7.900 -0.0322 -0.1547  0.4166
  519MOL0     C69957   9.767   6.172   7.976  0.3389  0.3237  0.2402
  519MOL0     C69958   9.617   6.178   7.947  0.6167 -0.3881  0.7286
  519MOL0     C69959   9.830   6.089   8.077 -0.2883  0.0613 -0.0632
  519MOL0     C69960   9.761   6.003   8.168  0.2765 -0.4836 -0.0804
  519MOL0     O69961   9.788   6.013   8.303 -0.1092 -0.9811  0.1758
  519MOL0     C69962   9.723   5.938   8.393  0.0360  0.2645 -0.3827
  519MOL0     C69963   9.591   5.904   8.404 -0.4610  0.9321  0.0447
  519MOL0     C69964   9.548   5.815   8.500 -0.0327  0.5074  1.1435
  519MOL0     C69965   9.638   5.762   8.588  0.4674 -0.2580 -0.0204
  519MOL0     O69966   9.598   5.676   8.684  0.0655 -0.4118 -0.6984
  519MOL0     C69967   9.468   5.609   8.687  0.1538 -0.6699  0.3429
  519MOL0     C69968   9.482   5.482   8.615  0.5018 -0.3456  1.2873
  519MOL0     C69969   9.510   5.498   8.471 -0.3356  0.3928  0.7888
  519MOL0     C69970   9.528   5.371   8.391  0.1510  0.2536 -0.1357
  519MOL0     C69971   9.390   5.330   8.317 -0.0290 -0.7225 -0.5182
  519MOL0     C69972   9.354   5.412   8.193 -0.6254  0.9379  0.5970
  519MOL0     C69973   9.436   5.400   8.070  0.4788 -0.2198 -0.2398
  519MOL0     C69974   9.397   5.500   7.965  0.5562  0.3332  0.0224
  519MOL0    Cl69975   9.236   5.455   7.898  0.1283 -0.1017  0.7881
  519MOL0     C69976   9.773   5.797   8.579  1.3146  0.5928 -0.1395
  519MOL0     C69977   9.813   5.890   8.480  0.7379  1.5361 -0.2388
  519MOL0     O69978   9.692   5.911   8.115  0.5565 -0.0139 -0.8574
  519MOL0     C69979   9.968   6.081   8.085 -0.0332  0.4724 -0.4485
  519MOL0     C69980  10.038   6.161   8.006  0.0907 -0.0040 -0.8104
  519MOL0     N69981  10.082   6.907   7.586  0.7028  0.1049  0.8774
  519MOL0     N69982  10.060   6.911   7.454  0.3074  0.0846  0.2287
  519MOL0     C69983  10.819   6.807   6.368 -0.4610  0.2529 -0.4089
  519MOL0     C69984  10.931   6.861   6.311 -0.5616 -0.1788 -0.1413
  519MOL0     C69985  11.301   7.090   6.238 -0.6416 -0.4130  0.4097
  519MOL0     C69986  11.317   7.204   6.334  0.4185 -0.8791 -0.5493
  519MOL0     C69987  11.433   7.290   6.310  0.3713  0.1339 -0.8368
  519MOL0     C69988  11.535   7.271   6.211  0.6905 -0.5272 -0.4772
  519MOL0     O69989  11.643   7.357   6.219 -0.4709 -0.6818 -0.0662
  519MOL0     C69990  11.754   7.369   6.125  0.3730 -0.0970 -0.1068
  519MOL0     C69991  11.889   7.409   6.201  0.1658 -0.7819  0.4737
  519MOL0     C69992  11.946   7.292   6.271  0.7247 -0.4665  1.0225
  519MOL0     C69993  12.007   7.185   6.172 -0.2999  0.3984  0.5907
  519MOL0     C69994  11.927   7.070   6.135  0.2812 -0.5864 -0.1867
  519MOL0     C69995  11.871   6.975   6.086  0.1321 -0.8874 -0.6987
  519MOL0     C69996  11.511   7.168   6.120 -0.0241  0.1323  0.0385
  519MOL0     C69997  11.397   7.079   6.131  0.0797 -0.8177  0.0191
  519MOL0     H69998  11.082   6.954   6.600  1.2975  0.3070 -2.1070
  519MOL0     H69999  10.888   6.822   6.693  2.4434  0.0399  0.9766
  519MOL0     H70000  10.532   6.785   6.467  1.3993  2.1345  0.3232
  519MOL0     H70001  10.603   6.628   6.428 -0.6134 -0.6724  0.3810
  519MOL0     H70002  10.389   6.586   6.582 -0.3450 -4.0744  2.2116
  519MOL0     H70003  10.547   6.545   6.659  2.5146  1.7684  0.5896
  519MOL0     H70004  10.561   6.730   6.806  1.0205 -0.1476 -1.2468
  519MOL0     H70005  10.433   6.810   6.703 -1.2687 -2.6353 -3.4347
  519MOL0     H70006  10.264   6.676   6.793  0.2456  0.8096 -0.7039
  519MOL0     H70007  10.373   6.562   6.862 -0.9711 -0.1305 -2.2034
  519MOL0     H70008  10.440   6.752   7.014  0.9736 -0.5418 -1.0258
  519MOL0     H70009  10.317   6.862   6.937 -3.1943 -0.6605  2.4632
  519MOL0     H70010  10.138   6.698   6.988  0.6267  1.2164 -0.6656
  519MOL0     H70011  10.254   6.620   7.094 -0.3830 -0.0607 -0.7836
  519MOL0     H70012  10.284   6.856   7.197 -0.4980  2.9516 -2.1640
  519MOL0     H70013  10.146   6.898   7.090 -2.7375 -1.7553  0.9605
  519MOL0     H70014  10.117   6.657   7.245 -1.2101 -0.2646 -1.6027
  519MOL0     H70015  10.001   6.798   7.228 -1.9995 -0.8547  4.8473
  519MOL0     H70016  10.267   6.664   7.459  0.2102 -0.4432 -1.7210
  519MOL0     H70017  10.351   6.758   7.718 -0.1396 -0.2236 -0.4896
  519MOL0     H70018  10.258   6.876   7.799 -2.7721 -0.3641  1.2499
  519MOL0     H70019  10.068   6.734   7.819 -0.3066  0.4703  1.0294
  519MOL0     H70020  10.195   6.696   7.920 -3.2725 -2.2614  1.1254
  519MOL0     H70021  10.273   6.509   7.822 -1.2427 -1.2911  0.2896
  519MOL0     H70022  10.165   6.534   7.673  0.0115 -0.6526  0.3653
  519MOL0     H70023   9.966   6.518   7.823  0.2629  1.0118 -2.6276
  519MOL0     H70024  10.074   6.490   7.965 -1.8033  0.7191 -1.0113
  519MOL0     H70025   9.790   6.315   7.829  0.2198 -2.9134 -2.3451
  519MOL0     H70026   9.587   6.281   7.926  0.7508 -0.5973 -0.5271
  519MOL0     H70027   9.596   6.104   7.869 -0.2578 -3.8402  3.9495
  519MOL0     H70028   9.558   6.157   8.036  0.5830 -0.2712  0.7349
  519MOL0     H70029   9.516   5.952   8.341 -2.8905  2.7899  3.9330
  519MOL0     H70030   9.441   5.798   8.502  0.1303 -0.9871 -0.3700
  519MOL0     H70031   9.439   5.587   8.790 -1.1929 -0.1551  0.0906
  519MOL0     H70032   9.391   5.673   8.644  0.7363 -0.2129 -0.0286
  519MOL0     H70033   9.554   5.414   8.662  2.5036  0.5909 -0.2787
  519MOL0     H70034   9.381   5.438   8.615 -0.2402  1.2181 -0.4942
  519MOL0     H70035   9.613   5.534   8.462 -0.9644  1.6372 -2.8134
  519MOL0     H70036   9.439   5.567   8.426  1.3500  1.7327  0.0942
  519MOL0     H70037   9.612   5.377   8.320 -0.1802 -0.9659 -0.6756
  519MOL0     H70038   9.549   5.279   8.446 -3.2619 -0.9827 -0.6197
  519MOL0     H70039   9.309   5.360   8.384  0.7759 -1.1227  0.6782
  519MOL0     H70040   9.403   5.225   8.290  0.8677 -1.1730  1.4500
  519MOL0     H70041   9.255   5.378   8.161 -0.8521  2.3638 -0.2958
  519MOL0     H70042   9.356   5.514   8.232  1.9680  1.6476 -1.2255
  519MOL0     H70043   9.426   5.299   8.031  1.6770 -0.1795 -0.6844
  519MOL0     H70044   9.542   5.412   8.091  0.9250 -1.5843 -1.5474
  519MOL0     H70045   9.467   5.495   7.881 -0.2909  0.4409 -0.7083
  519MOL0     H70046   9.404   5.607   7.989  0.0468  1.2020 -3.1858
  519MOL0     H70047   9.830   5.756   8.662 -1.6785  0.2188  1.9270
  519MOL0     H70048   9.919   5.911   8.466  1.5392 -1.8172 -0.1247
  519MOL0     H70049  10.010   6.013   8.159 -2.3814 -1.8528 -1.0988
  519MOL0     H70050  10.146   6.155   8.015  0.4794  0.4405 -3.9165
  519MOL0     H70051  10.749   6.767   6.296 -0.5309  0.1470 -0.2815
  519MOL0     H70052  10.955   6.867   6.206 -0.1822  1.0179 -0.0029
  519MOL0     H70053  11.238   7.222   6.407  0.4616 -0.4787 -0.5990
  519MOL0     H70054  11.440   7.370   6.383  0.1777 -0.4230 -0.1936
  519MOL0     H70055  11.769   7.278   6.067 -1.4386  0.8268 -2.1505
  519MOL0     H70056  11.722   7.446   6.055 -0.6519  0.3427  0.8139
  519MOL0     H70057  11.869   7.472   6.289  2.0155  0.6599 -0.0483
  519MOL0     H70058  11.957   7.469   6.140 -1.4119 -0.3128 -0.8825
  519MOL0     H70059  11.873   7.247   6.339 -0.6728 -2.3697 -1.5276
  519MOL0     H70060  12.026   7.336   6.331  0.5118  0.3492  0.7150
  519MOL0     H70061  12.104   7.146   6.206 -0.4803 -0.8746 -0.2746
  519MOL0     H70062  12.029   7.242   6.081 -1.6736 -1.4934 -1.0460
  519MOL0     H70063  11.830   6.896   6.027  2.1662 -0.3610 -3.0253
  519MOL0     H70064  11.592   7.157   6.048  1.0496  2.3475  0.8279
  519MOL0     H70065  11.385   7.001   6.056  1.7296 -0.0804 -1.0718
  520MOL0     O70066   7.736   5.174   7.846 -0.0047  0.1212 -0.4203
  520MOL0     C70067   7.709   5.132   7.958  0.5461 -0.3636  0.0186
  520MOL0     O70068   7.754   5.014   8.002  0.3332 -0.3863 -0.1918
  520MOL0     C70069   7.810   4.927   7.916 -0.3822 -0.7479  0.3749
  520MOL0     C70070   7.741   4.814   7.878  0.2827 -0.7189 -0.4741
  520MOL0     C70071   7.790   4.725   7.778 -0.4274  0.5018 -0.0562
  520MOL0     C70072   7.913   4.752   7.704  0.0194 -0.5924 -0.2625
  520MOL0     O70073   7.968   4.674   7.613 -0.7584  0.0252  0.0198
  520MOL0     C70074   7.903   4.686   7.486 -0.2199  1.2108  0.1823
  520MOL0     C70075   7.991   4.621   7.373 -0.5020  0.2701  0.2054
  520MOL0     C70076   7.956   4.467   7.353  0.8503 -0.0373 -0.1346
  520MOL0     C70077   8.037   4.386   7.241  0.2892 -0.4291  0.0471
  520MOL0     C70078   8.005   4.431   7.105  0.8112  0.1481  0.8779
  520MOL0     C70079   8.078   4.325   7.013  0.4537 -0.0788 -0.9935
  520MOL0     C70080   8.045   4.352   6.871  1.0956 -0.3909  1.0697
  520MOL0     C70081   8.138   4.276   6.778  0.7862  0.3072  0.6618
  520MOL0     N70082   8.103   4.303   6.637 -0.3229  0.3883  0.3261
  520MOL0     C70083   8.194   4.358   6.544  0.3366  0.5469  0.0042
  520MOL0     C70084   8.139   4.349   6.424  0.2818  0.2757  0.0303
  520MOL0     C70085   8.189   4.406   6.297 -0.7054  0.6356  0.1500
  520MOL0     C70086   8.092   4.483   6.224 -0.2245  0.1311 -0.0807
  520MOL0     C70087   8.063   4.615   6.293 -0.1561 -0.0647 -1.3418
  520MOL0     C70088   7.982   4.705   6.203 -0.1309 -0.0995  0.0203
  520MOL0     O70089   8.068   4.756   6.108 -0.0677  0.8075 -0.0513
  520MOL0     C70090   8.010   4.839   6.012 -0.2391 -0.3248 -0.2950
  520MOL0     C70091   8.095   4.933   5.951 -0.4805 -0.2943  0.6516
  520MOL0     C70092   8.040   5.032   5.866 -0.1575 -0.4361  0.1762
  520MOL0     C70093   8.135   5.139   5.821 -0.6102  0.7749 -0.5603
  520MOL0     C70094   7.898   5.048   5.836 -0.2149  0.1387  0.2322
  520MOL0     C70095   7.844   5.148   5.758 -0.8472  0.5212  0.5802
  520MOL0     O70096   7.898   5.272   5.765  0.2197 -0.8704  0.6841
  520MOL0     C70097   7.853   5.359   5.667 -0.7330  0.8144 -0.5161
  520MOL0     C70098   7.945   5.370   5.559  0.2890 -0.8076  0.0792
  520MOL0     C70099   7.918   5.448   5.445  0.1181  0.3724  0.7157
  520MOL0     C70100   7.797   5.511   5.440 -0.2815  0.0659 -0.4851
  520MOL0     O70101   7.758   5.592   5.329 -0.1134  0.0740  0.2909
  520MOL0     C70102   7.860   5.684   5.291 -0.3113  0.4280  0.5191
  520MOL0     C70103   7.864   5.676   5.138 -0.4726  0.4674 -0.7034
  520MOL0     C70104   7.895   5.534   5.096  0.2574 -0.2425  0.2593
  520MOL0     C70105   7.866   5.512   4.947 -0.6269  0.1073  0.3882
  520MOL0     C70106   7.970   5.570   4.846  0.1467 -0.2237  0.2230
  520MOL0     C70107   7.951   5.508   4.705  0.0409 -0.0129  0.6119
  520MOL0     C70108   8.025   5.583   4.600 -1.3212  0.3516  0.0906
  520MOL0     C70109   7.941   5.624   4.480 -0.2805  0.9914  0.6878
  520MOL0    Cl70110   8.055   5.719   4.379  0.1008  0.2090 -0.0152
  520MOL0     C70111   7.702   5.501   5.549  0.6051 -0.1220 -0.2674
  520MOL0     C70112   7.742   5.437   5.676  0.9273 -0.3218 -0.0031
  520MOL0     O70113   7.741   5.118   5.689 -0.0498 -0.3659 -0.8152
  520MOL0     C70114   7.816   4.950   5.896  0.4822  0.9692 -0.6590
  520MOL0     C70115   7.872   4.848   5.983  0.8549 -0.1265  0.4559
  520MOL0     N70116   8.016   4.286   6.449  0.5193 -0.1308 -0.0306
  520MOL0     N70117   7.993   4.263   6.575 -0.2657 -0.3447 -0.2422
  520MOL0     C70118   7.988   4.845   7.758 -0.4717 -0.9219  0.1370
  520MOL0     C70119   7.939   4.943   7.849 -0.8197  0.9550  0.1106
  520MOL0     C70120   7.624   5.220   8.037  0.3891 -0.5488 -0.0191
  520MOL0     C70121   7.621   5.212   8.175  0.4036  0.8493  0.5091
  520MOL0     C70122   7.565   5.308   8.255  0.8850  0.3032  0.7331
  520MOL0     C70123   7.487   5.408   8.201 -0.1381 -0.7430 -0.1271
  520MOL0     O70124   7.437   5.501   8.287 -0.1602 -0.1903 -0.4113
  520MOL0     C70125   7.307   5.545   8.248  0.3543 -0.3504  0.5589
  520MOL0     C70126   7.211   5.572   8.367 -0.7017 -0.3432 -0.5199
  520MOL0     C70127   7.241   5.699   8.432 -0.8660 -0.3120 -0.2766
  520MOL0     C70128   7.203   5.716   8.583 -0.0359 -1.1317  0.3829
  520MOL0     C70129   7.061   5.681   8.612 -0.4480 -0.3293 -0.8270
  520MOL0     C70130   6.949   5.638   8.622 -0.5787 -0.3730 -0.1519
  520MOL0     C70131   7.486   5.423   8.062 -0.6074 -0.5852  1.4406
  520MOL0     C70132   7.560   5.332   7.978 -0.8858 -0.5819 -0.6007
  520MOL0     H70133   7.646   4.793   7.927 -0.2422 -0.5779 -1.4076
  520MOL0     H70134   7.735   4.631   7.771 -2.1242  1.5183 -1.2078
  520MOL0     H70135   7.804   4.640   7.472 -0.2334  1.7809 -1.7697
  520MOL0     H70136   7.878   4.792   7.475 -1.1937  1.0446  0.6139
  520MOL0     H70137   7.966   4.681   7.285  2.7768  1.9223  0.2718
  520MOL0     H70138   8.100   4.615   7.380 -0.5865 -3.9433  1.0506
  520MOL0     H70139   7.984   4.422   7.448  1.6217  0.8477  0.0721
  520MOL0     H70140   7.849   4.451   7.336  0.4869  2.6720 -0.9157
  520MOL0     H70141   8.145   4.401   7.253  0.5410 -0.6865 -1.6898
  520MOL0     H70142   8.003   4.283   7.256  1.4788 -0.8514 -0.0825
  520MOL0     H70143   7.897   4.428   7.086  0.9313 -0.1519  0.2017
  520MOL0     H70144   8.032   4.537   7.094 -3.6411  1.7775  3.2635
  520MOL0     H70145   8.187   4.336   7.025  0.6409 -1.3004 -1.4349
  520MOL0     H70146   8.049   4.221   7.032  4.0390 -1.4959 -2.4063
  520MOL0     H70147   7.946   4.319   6.837  1.4606 -1.6772  1.2149
  520MOL0     H70148   8.069   4.453   6.836  3.6128 -2.2285 -3.2999
  520MOL0     H70149   8.141   4.168   6.792  2.4348 -0.0794 -1.8689
  520MOL0     H70150   8.241   4.311   6.785  1.0112 -0.1660 -0.1243
  520MOL0     H70151   8.285   4.415   6.565 -1.0579  2.7132  0.4835
  520MOL0     H70152   8.290   4.447   6.307  0.6609 -0.7730 -5.0724
  520MOL0     H70153   8.209   4.320   6.232 -2.2654 -0.0299  0.4946
  520MOL0     H70154   7.999   4.426   6.212 -0.8489  1.4921 -2.2606
  520MOL0     H70155   8.124   4.497   6.121  0.0356 -4.9985 -0.9837
  520MOL0     H70156   8.157   4.664   6.319 -0.9579  0.2648  1.2547
  520MOL0     H70157   8.015   4.587   6.387  0.9144  2.2860 -0.0000
  520MOL0     H70158   7.948   4.782   6.272 -0.7306  2.2774 -2.7381
  520MOL0     H70159   7.901   4.647   6.158  0.7402 -0.3678 -1.2838
  520MOL0     H70160   8.201   4.935   5.974 -0.0509 -4.0610 -0.3414
  520MOL0     H70161   8.240   5.108   5.819  0.0591  2.7912  0.3548
  520MOL0     H70162   8.120   5.156   5.714 -4.5301 -0.2799 -0.3356
  520MOL0     H70163   8.122   5.234   5.874 -0.8745  0.8320 -0.7275
  520MOL0     H70164   8.040   5.319   5.557  0.1716 -0.9977 -1.0607
  520MOL0     H70165   7.990   5.458   5.364 -0.7224  0.6787 -0.0064
  520MOL0     H70166   7.830   5.788   5.311 -0.1767  0.4287  0.7137
  520MOL0     H70167   7.962   5.662   5.324 -0.0829 -1.3007 -1.1542
  520MOL0     H70168   7.767   5.713   5.105 -0.3491  2.2768  0.7772
  520MOL0     H70169   7.956   5.731   5.114  0.2614 -1.2128 -1.9391
  520MOL0     H70170   7.832   5.463   5.150  0.5510 -0.2659  0.5749
  520MOL0     H70171   7.996   5.512   5.132  0.5310  1.9731  1.0538
  520MOL0     H70172   7.871   5.403   4.933  0.5272  0.2475 -0.4095
  520MOL0     H70173   7.762   5.534   4.921 -0.7950 -2.4981 -1.6058
  520MOL0     H70174   8.077   5.558   4.870  0.1733 -0.9571 -0.2298
  520MOL0     H70175   7.951   5.677   4.843 -3.3686 -0.7586 -0.1773
  520MOL0     H70176   7.970   5.401   4.698 -3.0466 -0.5895 -4.7288
  520MOL0     H70177   7.844   5.511   4.680 -0.1634 -5.9287 -0.5018
  520MOL0     H70178   8.108   5.523   4.562 -0.8815  1.4159 -0.6826
  520MOL0     H70179   8.065   5.673   4.647  0.3309 -0.9878  1.3684
  520MOL0     H70180   7.861   5.694   4.506 -2.1950 -1.3536  1.4905
  520MOL0     H70181   7.893   5.543   4.424 -0.0462 -0.3393  2.3545
  520MOL0     H70182   7.605   5.549   5.538  0.2372 -0.8498 -0.2307
  520MOL0     H70183   7.679   5.438   5.765  2.3688 -3.8455  1.2209
  520MOL0     H70184   7.709   4.955   5.877  0.7313 -0.5472 -2.8769
  520MOL0     H70185   7.799   4.770   6.004  0.5527 -0.7830 -2.5477
  520MOL0     H70186   8.090   4.861   7.722  0.6090  0.9419  3.5196
  520MOL0     H70187   8.001   5.029   7.874  2.8624 -0.6768 -2.5874
  520MOL0     H70188   7.673   5.129   8.221 -3.2453 -2.0883 -0.1582
  520MOL0     H70189   7.571   5.300   8.363  2.3210  0.6667  0.7088
  520MOL0     H70190   7.311   5.635   8.187 -2.4096 -1.9884 -2.3037
  520MOL0     H70191   7.263   5.465   8.188 -0.7655  1.0877 -0.5896
  520MOL0     H70192   7.234   5.502   8.448  0.5715 -1.3325 -1.6893
  520MOL0     H70193   7.105   5.585   8.344 -0.5976  2.2641  0.1848
  520MOL0     H70194   7.195   5.781   8.376  0.0479  0.4517  0.0598
  520MOL0     H70195   7.348   5.723   8.433 -1.8234  5.1755  1.1972
  520MOL0     H70196   7.219   5.824   8.589 -0.0473 -0.9824 -1.7469
  520MOL0     H70197   7.269   5.664   8.653  1.9288  1.3132  0.5110
  520MOL0     H70198   6.847   5.605   8.613 -0.5180 -0.0304 -3.8704
  520MOL0     H70199   7.433   5.503   8.011 -0.7319 -1.0029  0.9134
  520MOL0     H70200   7.581   5.351   7.874  0.5288  3.1157  0.2030
  521MOL0     O70201   9.784  10.443   4.701 -0.2288 -0.6114 -0.3663
  521MOL0     C70202   9.850  10.537   4.751  1.1349  0.9123  0.2407
  521MOL0     O70203   9.926  10.528   4.867 -0.4761  0.5739 -0.0278
  521MOL0     C70204   9.903  10.430   4.961 -0.1274 -0.8250 -1.2559
  521MOL0     C70205   9.774  10.399   5.000  0.7903 -0.2920 -0.8857
  521MOL0     C70206   9.751  10.328   5.119  0.0268 -0.1276 -0.1815
  521MOL0     C70207   9.849  10.281   5.200 -0.8590  0.5737 -0.7668
  521MOL0     O70208   9.828  10.220   5.321  0.4529 -0.3689  0.1496
  521MOL0     C70209   9.751  10.102   5.336  0.4304  0.8164  0.8588
  521MOL0     C70210   9.774  10.038   5.478  1.1464  0.0886 -0.6394
  521MOL0     C70211   9.734   9.894   5.497  0.1848  1.0217  0.1544
  521MOL0     C70212   9.833   9.785   5.434 -0.2756  0.7342  0.1829
  521MOL0     C70213   9.762   9.646   5.419 -0.9994 -0.3520  0.3683
  521MOL0     C70214   9.747   9.588   5.555  0.0271 -0.0239  0.3329
  521MOL0     C70215   9.871   9.545   5.619 -0.2313  0.0694 -0.4243
  521MOL0     C70216   9.849   9.455   5.740 -0.4454  0.4663  0.0454
  521MOL0     N70217   9.827   9.317   5.715 -0.1264  1.0700  0.8926
  521MOL0     C70218   9.920   9.218   5.658  0.7902 -0.1635 -0.2175
  521MOL0     C70219   9.844   9.116   5.633  0.4843  1.2458 -0.8002
  521MOL0     C70220   9.878   8.986   5.566 -0.4026  1.1769 -0.0093
  521MOL0     C70221   9.944   8.888   5.671 -0.4440 -0.4262 -0.0919
  521MOL0     C70222   9.855   8.841   5.780 -0.1104  0.3339 -0.2486
  521MOL0     C70223   9.747   8.741   5.732 -0.2899  0.4912  0.6919
  521MOL0     O70224   9.795   8.613   5.676 -0.2703  0.2052  0.6781
  521MOL0     C70225   9.871   8.528   5.761  1.3549 -0.1437 -0.5857
  521MOL0     C70226   9.848   8.510   5.894  0.3613 -0.4857  0.2505
  521MOL0     C70227   9.949   8.467   5.979 -0.3574 -0.2808 -0.1379
  521MOL0     C70228   9.917   8.457   6.130  0.0643  0.9160 -0.8537
  521MOL0     C70229  10.075   8.428   5.933 -0.3013  0.4815  0.5221
  521MOL0     C70230  10.183   8.380   6.016 -0.0571  0.2778 -0.3349
  521MOL0     O70231  10.312   8.406   5.971  0.7538 -0.0988  0.6132
  521MOL0     C70232  10.417   8.378   6.055  0.2416  0.1128 -0.1481
  521MOL0     C70233  10.489   8.264   6.039  0.4764  0.0045 -0.4048
  521MOL0     C70234  10.596   8.234   6.127  0.2193 -0.7959 -0.1755
  521MOL0     C70235  10.617   8.325   6.243  1.2277  0.1415 -0.8883
  521MOL0     O70236  10.708   8.286   6.338 -0.0568 -0.5749  0.2311
  521MOL0     C70237  10.835   8.242   6.292 -0.9453  0.5961 -0.0431
  521MOL0     C70238  10.945   8.242   6.402 -0.5361  0.8053 -0.0331
  521MOL0     C70239  11.082   8.247   6.338  0.0012  0.3336  0.8375
  521MOL0     C70240  11.115   8.134   6.237  0.5454  0.2464 -0.8413
  521MOL0     C70241  11.096   7.997   6.296  0.5107  0.7816  0.1620
  521MOL0     C70242  11.126   7.888   6.187  0.4699  0.9975  0.0759
  521MOL0     C70243  11.237   7.921   6.084 -0.0643  0.1175 -1.2459
  521MOL0     C70244  11.381   7.920   6.143  0.3184  0.3793 -0.0205
  521MOL0    Cl70245  11.496   8.019   6.045  0.0296  0.2256  0.1274
  521MOL0     C70246  10.538   8.430   6.256 -0.0533 -0.6298 -0.3448
  521MOL0     C70247  10.445   8.457   6.159 -0.7448  0.5748  0.9142
  521MOL0     O70248  10.164   8.308   6.107  0.0309  0.1275  0.0043
  521MOL0     C70249  10.097   8.434   5.798 -0.4523  0.2513 -0.1654
  521MOL0     C70250   9.994   8.487   5.718 -0.1732 -0.2929  0.2859
  521MOL0     N70251   9.712   9.147   5.667 -0.6958 -0.1136  1.2719
  521MOL0     N70252   9.706   9.263   5.726  0.5209  0.3467  0.7457
  521MOL0     C70253   9.984  10.307   5.163  0.2806 -0.2972 -0.1398
  521MOL0     C70254  10.006  10.382   5.047  0.4547 -0.4603 -0.2125
  521MOL0     C70255   9.864  10.665   4.668  0.0348 -0.5058 -0.0881
  521MOL0     C70256   9.841  10.658   4.530  0.1200  0.7178 -0.0119
  521MOL0     C70257   9.827  10.767   4.453 -0.5688 -0.1374  0.6026
  521MOL0     C70258   9.838  10.898   4.512  0.7296 -0.0442  0.1072
  521MOL0     O70259   9.805  11.020   4.444  0.3261 -0.4987 -0.4802
  521MOL0     C70260   9.747  11.024   4.315 -0.4877 -1.1081  0.3997
  521MOL0     C70261   9.698  11.163   4.274  0.0379 -0.3803 -0.6212
  521MOL0     C70262   9.816  11.256   4.250  0.5607  0.3317 -0.5767
  521MOL0     C70263   9.926  11.208   4.164 -0.0863  0.3392  0.1093
  521MOL0     C70264   9.886  11.193   4.021 -0.5504 -1.6705 -0.2241
  521MOL0     C70265   9.847  11.198   3.907  0.2152 -0.2574 -0.3543
  521MOL0     C70266   9.880  10.904   4.647  0.2497  0.6455  0.9978
  521MOL0     C70267   9.900  10.791   4.724  0.1396  0.5951 -0.2387
  521MOL0     H70268   9.681  10.428   4.953 -2.2832 -2.5161  3.1616
  521MOL0     H70269   9.645  10.320   5.143  0.4527  0.4075  2.1521
  521MOL0     H70270   9.645  10.118   5.314 -0.4353 -1.0799  3.1208
  521MOL0     H70271   9.800  10.030   5.270  2.0378  0.0236  2.7782
  521MOL0     H70272   9.871  10.064   5.521 -0.1600 -0.1717  2.7729
  521MOL0     H70273   9.711  10.102   5.539  0.2844 -2.4603  1.3526
  521MOL0     H70274   9.723   9.879   5.605 -0.4474  1.1059  0.1062
  521MOL0     H70275   9.629   9.883   5.469 -0.6865 -0.3738  3.4055
  521MOL0     H70276   9.853   9.824   5.334 -2.3218 -2.2064 -1.5105
  521MOL0     H70277   9.922   9.773   5.496 -1.6075 -4.4312  1.6128
  521MOL0     H70278   9.674   9.659   5.356  0.9026  2.4561 -2.0169
  521MOL0     H70279   9.835   9.588   5.361  1.3760  1.8745  0.9285
  521MOL0     H70280   9.699   9.664   5.617  1.0344  0.5768  0.3831
  521MOL0     H70281   9.694   9.492   5.552  1.1796 -0.6701  0.1285
  521MOL0     H70282   9.937   9.495   5.548 -0.5988  1.3180 -1.6813
  521MOL0     H70283   9.925   9.632   5.659  1.3828  0.0076 -2.2896
  521MOL0     H70284   9.762   9.483   5.800  0.9406 -2.6821  4.0139
  521MOL0     H70285   9.944   9.463   5.794  0.5413  0.4506 -1.6073
  521MOL0     H70286  10.027   9.217   5.640  0.6686 -0.2646 -0.9751
  521MOL0     H70287   9.795   8.943   5.509 -2.4815  1.0545  2.9069
  521MOL0     H70288   9.955   8.996   5.489  0.1175 -1.2207  0.1265
  521MOL0     H70289  10.031   8.940   5.714 -1.0642  2.1077 -1.6873
  521MOL0     H70290   9.977   8.798   5.617 -0.5650 -0.6616  0.2229
  521MOL0     H70291   9.819   8.925   5.840  0.7327 -1.2916  2.6777
  521MOL0     H70292   9.913   8.788   5.855 -3.3643 -1.8867  0.9146
  521MOL0     H70293   9.687   8.761   5.643  1.5887  2.1091 -0.3042
  521MOL0     H70294   9.685   8.722   5.820  1.5587 -1.9631  1.5831
  521MOL0     H70295   9.751   8.540   5.933 -1.3618 -4.8137 -0.1661
  521MOL0     H70296   9.992   8.511   6.189  0.3953  1.1555 -1.4914
  521MOL0     H70297   9.813   8.476   6.158 -0.5111 -3.3201  0.6735
  521MOL0     H70298   9.920   8.357   6.175 -2.1651  1.9154  1.8112
  521MOL0     H70299  10.476   8.190   5.961 -1.3640 -0.3234  0.1681
  521MOL0     H70300  10.663   8.148   6.121  2.4545  0.4809  3.0042
  521MOL0     H70301  10.824   8.137   6.263 -1.0727  0.1812  1.4620
  521MOL0     H70302  10.868   8.310   6.212  0.9929 -1.0410 -0.7388
  521MOL0     H70303  10.927   8.331   6.463  3.8368  3.1054 -1.6983
  521MOL0     H70304  10.933   8.161   6.475  2.3390  0.8414  0.5700
  521MOL0     H70305  11.149   8.269   6.422  2.0164  0.4854 -0.7398
  521MOL0     H70306  11.093   8.340   6.283 -1.4622  0.8091  1.2989
  521MOL0     H70307  11.049   8.138   6.150  2.8119 -1.9624 -2.7932
  521MOL0     H70308  11.218   8.151   6.203  0.8249 -3.0805 -2.0137
  521MOL0     H70309  11.003   7.970   6.348  1.0880  0.7594  1.2145
  521MOL0     H70310  11.181   7.992   6.364 -0.1511 -2.2869  0.9157
  521MOL0     H70311  11.149   7.793   6.236  0.8733  0.3592 -1.2814
  521MOL0     H70312  11.033   7.865   6.133  0.5021 -0.2582  0.5125
  521MOL0     H70313  11.212   8.015   6.035 -0.4441 -0.6232 -2.5093
  521MOL0     H70314  11.245   7.850   6.001  2.9079 -2.5507  1.0796
  521MOL0     H70315  11.421   7.818   6.147 -1.1500 -0.2823 -0.9370
  521MOL0     H70316  11.389   7.960   6.244 -0.2773  0.5498 -0.0359
  521MOL0     H70317  10.561   8.489   6.344  2.9050 -2.2111  0.0477
  521MOL0     H70318  10.367   8.531   6.176 -0.5163  0.4177  2.8463
  521MOL0     H70319  10.189   8.417   5.743 -1.4644 -1.8156 -1.3394
  521MOL0     H70320  10.027   8.495   5.615  1.9434 -1.2491  0.8507
  521MOL0     H70321  10.066  10.287   5.232  0.6810  1.4139 -0.0952
  521MOL0     H70322  10.112  10.398   5.030  1.2779 -4.4399  0.0790
  521MOL0     H70323   9.834  10.566   4.473 -1.4870  0.9996 -0.3463
  521MOL0     H70324   9.802  10.760   4.348 -0.8883 -1.6251  0.7506
  521MOL0     H70325   9.811  10.975   4.241 -0.1629  2.5953 -2.0720
  521MOL0     H70326   9.652  10.972   4.330 -2.5076  2.9947  4.3725
  521MOL0     H70327   9.630  11.205   4.349 -0.4021 -0.4878 -0.9575
  521MOL0     H70328   9.645  11.153   4.179 -0.3183 -0.1316 -0.4502
  521MOL0     H70329   9.859  11.270   4.349 -1.5327 -0.5768  0.5346
  521MOL0     H70330   9.776  11.352   4.216  1.3463  0.4610 -1.1545
  521MOL0     H70331   9.972  11.116   4.199 -0.1982  0.1526 -0.2383
  521MOL0     H70332  10.007  11.281   4.151  1.5814 -1.2369  1.2367
  521MOL0     H70333   9.822  11.198   3.803  3.0216  2.4880 -1.2247
  521MOL0     H70334   9.891  11.010   4.667  2.3803  0.1144  3.0136
  521MOL0     H70335   9.939  10.792   4.825 -1.3147 -2.5999  0.4952
  522MOL0     O70336  10.007   3.730  10.548 -0.6080  0.4826 -0.2302
  522MOL0     C70337  10.092   3.659  10.490 -0.2338 -0.9444  0.2344
  522MOL0     O70338  10.123   3.665  10.358 -0.3971 -0.0692 -0.3539
  522MOL0     C70339  10.066   3.759  10.272 -0.2839  0.0269  0.6249
  522MOL0     C70340  10.089   3.727  10.140 -1.0909  0.1341  0.8285
  522MOL0     C70341  10.019   3.792  10.036 -0.6760  0.1322  0.1037
  522MOL0     C70342   9.941   3.907  10.059 -0.6855  0.2724  0.2501
  522MOL0     O70343   9.875   3.987   9.967 -0.1148 -0.3928 -0.2042
  522MOL0     C70344   9.928   3.979   9.833 -0.1663  0.1944 -0.4090
  522MOL0     C70345   9.836   3.889   9.760 -0.1228  0.5042  0.1717
  522MOL0     C70346   9.888   3.866   9.623 -0.8246  0.3770 -0.6664
  522MOL0     C70347  10.016   3.780   9.618 -0.1294 -0.4195 -0.4816
  522MOL0     C70348  10.036   3.714   9.474 -0.7753  0.2557  0.3456
  522MOL0     C70349  10.060   3.817   9.363  0.0351 -0.3685 -0.8358
  522MOL0     C70350  10.182   3.904   9.370  0.6882 -1.1992 -0.0130
  522MOL0     C70351  10.184   3.989   9.236  0.8332 -0.1685  0.6240
  522MOL0     N70352  10.119   4.122   9.246 -0.2027  0.1335  0.2139
  522MOL0     C70353  10.174   4.213   9.325  0.6776  0.2387 -0.0907
  522MOL0     C70354  10.086   4.307   9.357  0.4429  0.0355 -0.8106
  522MOL0     C70355  10.104   4.430   9.441  0.0001 -0.9286  0.2174
  522MOL0     C70356  10.120   4.553   9.351  0.4678 -0.3771  0.4284
  522MOL0     C70357   9.984   4.620   9.319  0.0157  0.1313  0.1509
  522MOL0     C70358  10.014   4.749   9.234  0.1970  0.2384 -0.8419
  522MOL0     O70359   9.891   4.826   9.223 -0.3244 -0.4840 -0.7363
  522MOL0     C70360   9.887   4.922   9.130 -0.5992 -0.2958 -0.0793
  522MOL0     C70361   9.767   4.923   9.057 -0.0242  0.2254  0.2791
  522MOL0     C70362   9.745   5.005   8.940 -0.6513  0.8436  0.3190
  522MOL0     C70363   9.624   4.975   8.861 -0.3710 -0.2400  0.4225
  522MOL0     C70364   9.851   5.091   8.900  0.0211  0.6790  0.4160
  522MOL0     C70365   9.845   5.180   8.775  0.2718 -0.2211  0.8741
  522MOL0     O70366   9.957   5.244   8.723  0.3372 -0.8187 -0.7954
  522MOL0     C70367   9.946   5.307   8.603 -0.2909  0.3720 -0.2762
  522MOL0     C70368   9.972   5.232   8.485 -0.7706 -0.0774 -0.5164
  522MOL0     C70369   9.970   5.291   8.364  0.1955  0.4222 -0.3715
  522MOL0     C70370   9.938   5.427   8.342  0.4841  0.1763 -0.2624
  522MOL0     O70371   9.914   5.466   8.217 -0.5756 -0.9420 -0.2371
  522MOL0     C70372   9.876   5.598   8.174 -0.5632 -0.2730 -0.3297
  522MOL0     C70373   9.882   5.613   8.027  0.1348  0.3551 -0.9210
  522MOL0     C70374  10.031   5.623   7.969  0.4589 -0.3172  0.3796
  522MOL0     C70375  10.071   5.772   7.980 -0.8284  0.4925  0.8902
  522MOL0     C70376  10.211   5.760   7.920 -0.2837 -0.4469  0.2261
  522MOL0     C70377  10.266   5.908   7.910 -0.6242 -0.2104 -1.0264
  522MOL0     C70378  10.411   5.913   7.849  0.9684  0.3576 -0.3131
  522MOL0     C70379  10.491   6.038   7.872  0.2108  0.2200 -0.2392
  522MOL0    Cl70380  10.381   6.179   7.819 -0.1724 -0.0376 -0.3455
  522MOL0     C70381   9.922   5.502   8.457 -0.4177 -0.0429  0.1644
  522MOL0     C70382   9.920   5.444   8.588  0.0476 -0.0919  0.6769
  522MOL0     O70383   9.735   5.204   8.732  0.6505 -0.6437 -0.0235
  522MOL0     C70384   9.968   5.091   8.969  0.7823 -0.0982 -0.1241
  522MOL0     C70385   9.986   5.011   9.085  0.0927  0.4217 -0.2030
  522MOL0     N70386   9.975   4.278   9.280  0.0135  0.6783 -0.1527
  522MOL0     N70387   9.994   4.159   9.216  0.6121  0.1186  0.3394
  522MOL0     C70388   9.918   3.939  10.195  0.0146  0.5628  0.4119
  522MOL0     C70389   9.969   3.862  10.301 -0.7630 -0.4509  1.1869
  522MOL0     C70390  10.169   3.563  10.567  0.4784 -1.4749  0.3117
  522MOL0     C70391  10.109   3.515  10.687  0.6214 -0.3299 -0.0213
  522MOL0     C70392  10.180   3.433  10.774  0.3197  0.2580  0.7711
  522MOL0     C70393  10.312   3.399  10.749  0.6150 -0.1199 -0.2048
  522MOL0     O70394  10.374   3.318  10.836 -0.1723  0.2975 -0.3291
  522MOL0     C70395  10.490   3.249  10.780  0.8152  0.0796  0.3440
  522MOL0     C70396  10.539   3.154  10.890  0.2078  0.0887  0.6236
  522MOL0     C70397  10.661   3.039  10.861  0.7566 -0.4717  0.4477
  522MOL0     C70398  10.591   2.902  10.822  0.8146  0.4198  0.0895
  522MOL0     C70399  10.688   2.799  10.801 -0.5112 -0.0922  1.0980
  522MOL0     C70400  10.780   2.715  10.779 -0.0297 -0.2211 -0.2197
  522MOL0     C70401  10.376   3.452  10.635  0.3123 -0.8748 -0.8181
  522MOL0     C70402  10.303   3.523  10.537  0.4677  0.2618  1.0324
  522MOL0     H70403  10.153   3.645  10.110 -1.1591  0.6365 -0.7496
  522MOL0     H70404  10.032   3.755   9.935  1.0974  0.6341  0.1062
  522MOL0     H70405   9.930   4.071   9.774  0.3560 -0.6604 -1.7757
  522MOL0     H70406  10.035   3.957   9.840  0.0023  1.3994  1.3904
  522MOL0     H70407   9.850   3.791   9.806  1.4562  0.6514  0.0395
  522MOL0     H70408   9.729   3.913   9.767 -0.4407 -0.9598  0.7578
  522MOL0     H70409   9.799   3.831   9.570 -0.5436  0.6494 -1.3215
  522MOL0     H70410   9.919   3.962   9.582 -1.5242  0.8076 -0.2090
  522MOL0     H70411  10.105   3.824   9.663 -0.5241 -1.6194  1.6221
  522MOL0     H70412   9.997   3.703   9.693 -0.9180 -1.4019 -1.6497
  522MOL0     H70413  10.125   3.654   9.490 -1.6962 -1.2907 -0.0676
  522MOL0     H70414   9.951   3.648   9.450 -1.2105  0.7888  0.3959
  522MOL0     H70415  10.057   3.763   9.268  0.0397 -0.6753 -0.6602
  522MOL0     H70416   9.965   3.872   9.368 -1.3712 -2.8074  2.0756
  522MOL0     H70417  10.169   3.977   9.450  1.6441 -0.6695 -0.3304
  522MOL0     H70418  10.278   3.853   9.381  0.4933 -1.3905  0.8363
  522MOL0     H70419  10.131   3.930   9.161 -0.9471  0.3633  1.4115
  522MOL0     H70420  10.289   3.995   9.205  0.4384  0.2130 -0.7280
  522MOL0     H70421  10.273   4.190   9.362  0.1107 -2.4351 -0.0632
  522MOL0     H70422  10.021   4.442   9.512 -0.7019  1.7503 -0.9288
  522MOL0     H70423  10.190   4.415   9.507  0.6658  0.7634 -0.1979
  522MOL0     H70424  10.179   4.531   9.261 -2.5034 -0.0722 -1.7524
  522MOL0     H70425  10.178   4.621   9.414  0.6628 -0.1329 -0.0096
  522MOL0     H70426   9.959   4.655   9.420 -0.1518  2.4177 -0.6187
  522MOL0     H70427   9.904   4.558   9.277 -5.1076  4.4047  2.3616
  522MOL0     H70428  10.051   4.712   9.138  0.8218  3.0452 -1.8022
  522MOL0     H70429  10.086   4.815   9.283 -0.1475 -0.6811  0.9694
  522MOL0     H70430   9.691   4.847   9.068 -2.0703  2.0389 -0.5855
  522MOL0     H70431   9.649   4.966   8.755  0.8269 -2.3903  0.8250
  522MOL0     H70432   9.566   4.885   8.882 -0.6896  0.2905  1.9008
  522MOL0     H70433   9.557   5.060   8.874  0.5305  0.6909 -0.7062
  522MOL0     H70434   9.969   5.124   8.496 -5.6055  0.0919  3.1216
  522MOL0     H70435   9.994   5.233   8.275  2.2809  1.3415 -0.4635
  522MOL0     H70436   9.776   5.616   8.214  0.9571  0.7854  3.4582
  522MOL0     H70437   9.932   5.683   8.213 -2.7596  0.3009  1.8724
  522MOL0     H70438   9.835   5.525   7.983  0.2261 -0.5414  0.6858
  522MOL0     H70439   9.813   5.690   7.990  0.5446  0.5878 -1.2173
  522MOL0     H70440  10.036   5.587   7.866  4.0681  0.7865  0.0051
  522MOL0     H70441  10.100   5.556   8.020  1.4751 -0.8321 -1.5629
  522MOL0     H70442  10.003   5.829   7.916 -0.4275 -0.8324 -0.7987
  522MOL0     H70443  10.073   5.809   8.083  1.3289 -1.1708  1.5067
  522MOL0     H70444  10.223   5.722   7.818  3.2954  3.3124 -1.0276
  522MOL0     H70445  10.279   5.705   7.987  1.3601 -0.0952 -1.0965
  522MOL0     H70446  10.204   5.970   7.843  1.7871  1.1804 -2.1115
  522MOL0     H70447  10.263   5.958   8.007 -1.0216 -1.7196 -0.2397
  522MOL0     H70448  10.407   5.897   7.741 -1.3186  0.4452 -0.2944
  522MOL0     H70449  10.460   5.826   7.894 -0.2413 -0.4642 -0.5489
  522MOL0     H70450  10.584   6.021   7.817  0.8841 -0.5356  1.0786
  522MOL0     H70451  10.516   6.051   7.978 -5.4855  0.9776  1.3561
  522MOL0     H70452   9.899   5.608   8.460  0.0890  0.0410  1.9264
  522MOL0     H70453   9.910   5.493   8.684  0.4931 -0.5431  0.9618
  522MOL0     H70454  10.057   5.144   8.938  2.1681 -0.9615  2.1489
  522MOL0     H70455  10.085   5.014   9.129  0.6683  0.9314 -1.4614
  522MOL0     H70456   9.861   4.029  10.217  3.0149  1.9969  3.1616
  522MOL0     H70457   9.955   3.898  10.403 -0.5189  1.9382  0.4571
  522MOL0     H70458  10.005   3.541  10.706 -0.0835 -1.5653 -1.9135
  522MOL0     H70459  10.121   3.394  10.856 -1.3972 -1.7157 -1.2676
  522MOL0     H70460  10.465   3.199  10.686  1.0783  2.4170 -1.0366
  522MOL0     H70461  10.579   3.309  10.761 -0.3545  2.4603  1.9465
  522MOL0     H70462  10.454   3.102  10.934  1.1773 -2.2238 -0.1088
  522MOL0     H70463  10.582   3.224  10.963 -0.5612  0.0325  1.1351
  522MOL0     H70464  10.737   3.019  10.937  1.4500 -0.2384 -0.1700
  522MOL0     H70465  10.706   3.076  10.768 -1.8411 -3.1687 -2.0824
  522MOL0     H70466  10.519   2.912  10.740 -0.6474 -0.1499  1.2581
  522MOL0     H70467  10.532   2.857  10.902  1.3835 -1.6676 -0.5873
  522MOL0     H70468  10.850   2.635  10.769 -0.0986 -0.5664  1.6481
  522MOL0     H70469  10.482   3.439  10.614  0.1214 -0.3667 -2.2194
  522MOL0     H70470  10.354   3.563  10.449 -0.8645  0.3427  0.2776
  523MOL0     O70471   8.437   8.535   8.444  0.3116 -0.4427 -0.2332
  523MOL0     C70472   8.505   8.539   8.340 -0.4127 -0.0693  0.4418
  523MOL0     O70473   8.457   8.518   8.215 -0.1462  0.7381  0.6842
  523MOL0     C70474   8.336   8.441   8.200 -0.3986  0.3774  0.3014
  523MOL0     C70475   8.335   8.314   8.257 -0.5099  0.4130 -0.8315
  523MOL0     C70476   8.231   8.222   8.247 -0.7988 -0.0413 -0.3740
  523MOL0     C70477   8.126   8.252   8.170  1.1619 -0.2586 -0.2788
  523MOL0     O70478   8.015   8.177   8.155  0.2590 -0.0107 -0.6275
  523MOL0     C70479   8.017   8.036   8.174 -0.2786  0.6482  0.2522
  523MOL0     C70480   7.979   8.004   8.314  0.2128 -0.5660 -0.5074
  523MOL0     C70481   7.945   7.864   8.345 -0.6664  0.7587 -0.5502
  523MOL0     C70482   8.081   7.789   8.357 -0.4503  0.3443 -0.3911
  523MOL0     C70483   8.159   7.808   8.488 -1.0822  0.6425 -1.0458
  523MOL0     C70484   8.316   7.776   8.463  0.6686 -0.8154 -0.4251
  523MOL0     C70485   8.345   7.636   8.418  0.5142  0.1337  0.2787
  523MOL0     C70486   8.488   7.624   8.362 -0.0947  0.0443 -0.8258
  523MOL0     N70487   8.500   7.479   8.327  0.0025  1.1848 -0.1994
  523MOL0     C70488   8.419   7.405   8.246  1.3729  0.5935 -0.2359
  523MOL0     C70489   8.473   7.285   8.246 -0.3267  0.1444 -0.3995
  523MOL0     C70490   8.417   7.158   8.189  1.0743 -0.4770 -0.5856
  523MOL0     C70491   8.515   7.045   8.179  0.0816  0.0894 -0.0013
  523MOL0     C70492   8.443   6.911   8.180 -0.1870 -0.5066 -0.0414
  523MOL0     C70493   8.506   6.801   8.086 -0.4224 -0.3693 -0.1593
  523MOL0     O70494   8.440   6.675   8.117 -0.0060  0.4898  0.9236
  523MOL0     C70495   8.476   6.575   8.028 -0.1892  0.2653 -0.7759
  523MOL0     C70496   8.463   6.583   7.893  0.1221  0.0545  0.0173
  523MOL0     C70497   8.500   6.474   7.813 -0.3738  0.1013 -0.0206
  523MOL0     C70498   8.481   6.498   7.659  0.4963  0.9347 -0.3919
  523MOL0     C70499   8.557   6.358   7.871  0.3192 -0.8505  0.0559
  523MOL0     C70500   8.604   6.246   7.784 -0.0807 -0.3033  0.0592
  523MOL0     O70501   8.717   6.186   7.831  0.3673  0.1188 -0.3365
  523MOL0     C70502   8.784   6.103   7.748  0.6802  1.0972 -0.2355
  523MOL0     C70503   8.853   5.988   7.802 -0.3924  0.3958 -0.0084
  523MOL0     C70504   8.923   5.901   7.710  0.6061 -0.3165 -0.4472
  523MOL0     C70505   8.954   5.943   7.582  0.1606 -0.2485 -0.4870
  523MOL0     O70506   9.031   5.866   7.498 -0.3759 -0.1530 -0.2472
  523MOL0     C70507   9.132   5.775   7.541 -0.1253 -0.7126 -0.1984
  523MOL0     C70508   9.268   5.837   7.565  0.0013  0.0553  0.3143
  523MOL0     C70509   9.319   5.919   7.442 -0.2199 -0.7443  0.3809
  523MOL0     C70510   9.458   5.984   7.450  0.2223 -0.8330 -0.9044
  523MOL0     C70511   9.569   5.886   7.400  0.2261  0.3416  1.2110
  523MOL0     C70512   9.715   5.935   7.428 -0.6080  0.7816 -0.2642
  523MOL0     C70513   9.750   5.932   7.581  0.0950 -0.8801 -0.0206
  523MOL0     C70514   9.892   5.980   7.612 -0.6657 -0.4383 -0.4565
  523MOL0    Cl70515  10.023   5.893   7.524  0.4737 -0.0756  0.4720
  523MOL0     C70516   8.894   6.060   7.535 -0.3009 -0.0054  0.6219
  523MOL0     C70517   8.808   6.135   7.618  0.6610 -0.3481 -0.0304
  523MOL0     O70518   8.541   6.222   7.685 -1.7433  0.0969 -0.1032
  523MOL0     C70519   8.575   6.353   8.009  0.2001 -0.2329  0.1887
  523MOL0     C70520   8.525   6.457   8.088  1.0187  0.7392  0.3499
  523MOL0     N70521   8.585   7.287   8.332  0.1448  0.2555  0.0939
  523MOL0     N70522   8.593   7.397   8.389  0.1875  0.5338  0.0469
  523MOL0     C70523   8.129   8.367   8.099  0.3798 -0.4900 -0.6230
  523MOL0     C70524   8.232   8.457   8.110  0.7167 -0.4223  0.0634
  523MOL0     C70525   8.646   8.588   8.342  0.3120 -0.2443  0.4520
  523MOL0     C70526   8.696   8.674   8.438  0.6522 -0.9729 -0.8977
  523MOL0     C70527   8.828   8.708   8.445 -0.0647  0.1428 -0.3238
  523MOL0     C70528   8.916   8.658   8.355  0.5650 -0.5881  0.5416
  523MOL0     O70529   9.050   8.669   8.377  0.3451  0.0172 -0.5386
  523MOL0     C70530   9.150   8.656   8.272  0.4510  1.2480 -0.1816
  523MOL0     C70531   9.150   8.773   8.167  0.1406 -0.5774  0.1683
  523MOL0     C70532   9.270   8.762   8.072  0.5530  0.0966  0.6447
  523MOL0     C70533   9.248   8.637   7.975 -0.0817 -0.4190  0.0888
  523MOL0     C70534   9.296   8.500   8.017  0.9671  0.2725  0.7875
  523MOL0     C70535   9.338   8.392   8.039 -0.1549  0.1077 -0.9347
  523MOL0     C70536   8.870   8.568   8.246  0.3612 -0.2090 -0.8756
  523MOL0     C70537   8.738   8.542   8.241 -0.2614 -0.1799  0.7842
  523MOL0     H70538   8.425   8.292   8.315  0.9035  2.3905 -2.1528
  523MOL0     H70539   8.224   8.129   8.302 -3.8364  1.7205  2.6022
  523MOL0     H70540   7.948   7.984   8.107  0.2903  0.9656 -0.5969
  523MOL0     H70541   8.116   8.001   8.143 -0.1002 -1.0967  2.5083
  523MOL0     H70542   8.059   8.039   8.380  0.5991  1.0766 -1.7593
  523MOL0     H70543   7.885   8.058   8.328 -1.1768 -2.4594 -1.9936
  523MOL0     H70544   7.891   7.854   8.439  0.2165 -1.2104 -0.2154
  523MOL0     H70545   7.891   7.820   8.260  1.8387 -0.4146 -1.6445
  523MOL0     H70546   8.058   7.683   8.344  0.8079 -0.0162  0.1010
  523MOL0     H70547   8.142   7.812   8.270 -0.0813 -0.0620 -0.2483
  523MOL0     H70548   8.145   7.907   8.531  0.4239  0.6968 -0.6247
  523MOL0     H70549   8.119   7.739   8.563 -0.1110  2.1741  1.0077
  523MOL0     H70550   8.349   7.848   8.388  0.0522 -0.2425 -0.1618
  523MOL0     H70551   8.378   7.776   8.553 -1.3489  0.3486  1.0493
  523MOL0     H70552   8.316   7.571   8.501 -1.0025  1.0106  0.4833
  523MOL0     H70553   8.280   7.610   8.334  0.0592 -3.4032  1.5735
  523MOL0     H70554   8.566   7.636   8.437  0.0511 -1.0174 -0.7832
  523MOL0     H70555   8.506   7.682   8.271 -0.1420  0.5050 -0.5385
  523MOL0     H70556   8.329   7.448   8.203  0.1403 -2.3685 -0.9154
  523MOL0     H70557   8.335   7.125   8.254  2.2202 -1.1194  0.5720
  523MOL0     H70558   8.368   7.179   8.094  0.3015 -0.8932 -0.2881
  523MOL0     H70559   8.590   7.038   8.258 -0.3511 -1.9706  0.2877
  523MOL0     H70560   8.562   7.043   8.080 -0.5091 -0.9551 -0.2896
  523MOL0     H70561   8.336   6.920   8.160 -0.5203 -1.9706  0.9036
  523MOL0     H70562   8.447   6.863   8.278 -1.6567 -1.4000 -0.3856
  523MOL0     H70563   8.614   6.800   8.102 -0.6085  0.1874  1.3393
  523MOL0     H70564   8.490   6.828   7.981  0.7070 -2.6294 -0.9874
  523MOL0     H70565   8.423   6.678   7.857 -0.4327 -1.4034 -3.6416
  523MOL0     H70566   8.401   6.428   7.635  2.5749 -1.9759  0.5475
  523MOL0     H70567   8.452   6.600   7.632 -3.0931 -0.9404 -5.0790
  523MOL0     H70568   8.573   6.471   7.606  0.4331 -0.9327  0.3619
  523MOL0     H70569   8.841   5.972   7.909 -3.4002 -0.4993 -0.3894
  523MOL0     H70570   8.970   5.814   7.754  5.4186  1.6307 -1.1294
  523MOL0     H70571   9.103   5.716   7.628  1.4900  0.9337  1.5411
  523MOL0     H70572   9.138   5.698   7.463  1.9041 -0.9630  0.1347
  523MOL0     H70573   9.272   5.896   7.656  1.1299  2.0238 -0.9273
  523MOL0     H70574   9.322   5.746   7.595  2.0895  1.4255  0.9190
  523MOL0     H70575   9.244   5.992   7.412 -0.0410 -1.6372 -2.5533
  523MOL0     H70576   9.315   5.849   7.358 -1.6484  1.2362 -1.2853
  523MOL0     H70577   9.443   6.070   7.385  2.4627  1.2971  1.1788
  523MOL0     H70578   9.485   6.012   7.552  0.0329 -2.4153 -0.3822
  523MOL0     H70579   9.552   5.854   7.296 -0.6695 -0.8685  1.7082
  523MOL0     H70580   9.552   5.803   7.468  1.2693  0.7093  1.9465
  523MOL0     H70581   9.782   5.859   7.386 -1.8883 -0.5248  0.0015
  523MOL0     H70582   9.732   6.036   7.389  1.3924  1.2507  1.6302
  523MOL0     H70583   9.745   5.827   7.613 -1.7036 -1.2930 -1.4905
  523MOL0     H70584   9.682   5.993   7.642 -0.0500  0.5043 -1.5100
  523MOL0     H70585   9.914   5.985   7.719  1.0873 -0.2579 -0.7993
  523MOL0     H70586   9.902   6.085   7.582 -0.4747 -0.7816 -1.6620
  523MOL0     H70587   8.906   6.100   7.435  2.9515 -3.6308 -0.7067
  523MOL0     H70588   8.772   6.222   7.563  0.7555 -0.2304  0.0937
  523MOL0     H70589   8.624   6.266   8.053 -1.8977 -1.8810 -0.5508
  523MOL0     H70590   8.520   6.440   8.195  1.8336  1.2713  0.4880
  523MOL0     H70591   8.063   8.389   8.015 -0.4182  0.0533  0.1237
  523MOL0     H70592   8.238   8.552   8.057  1.9154 -0.8591 -0.6371
  523MOL0     H70593   8.625   8.715   8.508  0.3566 -2.0544 -0.5429
  523MOL0     H70594   8.863   8.785   8.514 -3.2827  2.7169 -1.3124
  523MOL0     H70595   9.245   8.659   8.327  1.4979 -0.1343 -1.8335
  523MOL0     H70596   9.147   8.560   8.220  1.3765 -0.2229  2.2997
  523MOL0     H70597   9.163   8.868   8.220  0.3191  0.0313 -0.9313
  523MOL0     H70598   9.061   8.774   8.104 -0.0253 -3.8411  0.1938
  523MOL0     H70599   9.358   8.759   8.136 -0.8004 -0.7275  2.5537
  523MOL0     H70600   9.278   8.849   8.007  4.4395 -0.8141 -0.3861
  523MOL0     H70601   9.305   8.664   7.886 -0.8953  0.1713 -0.2606
  523MOL0     H70602   9.141   8.635   7.952  0.3075 -0.2901 -1.9816
  523MOL0     H70603   9.390   8.300   8.055 -4.6374 -2.3510  1.2810
  523MOL0     H70604   8.940   8.522   8.177 -0.2855 -0.0784 -1.6284
  523MOL0     H70605   8.708   8.473   8.163  4.7288 -0.1428 -1.5694
  524MOL0     O70606   2.568   5.235   7.896 -0.1851  0.2959  0.4653
  524MOL0     C70607   2.509   5.318   7.824  0.4171 -0.4020 -0.6983
  524MOL0     O70608   2.380   5.369   7.849 -0.3045 -0.1106 -0.4855
  524MOL0     C70609   2.330   5.332   7.971  0.4537  0.1609  0.5632
  524MOL0     C70610   2.314   5.424   8.073  0.6012  0.5084 -0.3050
  524MOL0     C70611   2.269   5.397   8.207 -0.3363 -0.0873  0.1137
  524MOL0     C70612   2.227   5.267   8.242  0.3753 -0.2351  0.2092
  524MOL0     O70613   2.181   5.226   8.368  0.3281 -0.3626 -0.5107
  524MOL0     C70614   2.212   5.314   8.479  0.4617 -0.3550  1.3900
  524MOL0     C70615   2.223   5.217   8.596 -0.6599 -0.1886  0.4708
  524MOL0     C70616   2.091   5.157   8.642  2.1970  0.1939 -0.1296
  524MOL0     C70617   2.104   5.111   8.789 -0.3056  0.0092  0.8242
  524MOL0     C70618   1.975   5.044   8.822 -0.0871 -0.3023  0.6813
  524MOL0     C70619   1.940   5.059   8.974 -0.2195 -0.2708  0.6202
  524MOL0     C70620   1.828   4.973   9.030  0.9397 -1.2146  0.7993
  524MOL0     C70621   1.759   5.013   9.154 -0.1394  0.2442 -0.6545
  524MOL0     N70622   1.657   4.921   9.206  0.1131 -0.3310 -1.1970
  524MOL0     C70623   1.638   4.794   9.172  1.0368 -0.2016 -0.4884
  524MOL0     C70624   1.517   4.755   9.221 -0.1105 -0.1304  0.1284
  524MOL0     C70625   1.467   4.614   9.218 -0.8627  0.5531  0.9511
  524MOL0     C70626   1.338   4.594   9.133 -0.0802 -0.5429 -0.6664
  524MOL0     C70627   1.307   4.449   9.145 -0.7494  0.6570  0.8494
  524MOL0     C70628   1.216   4.413   9.262 -0.4881  0.0333  0.1773
  524MOL0     O70629   1.091   4.368   9.221  0.2807 -0.0727  0.1362
  524MOL0     C70630   1.006   4.335   9.325  0.1151 -0.2236  0.3604
  524MOL0     C70631   1.023   4.339   9.467  0.7518  0.0598  1.0825
  524MOL0     C70632   0.913   4.329   9.544  0.4432  0.0125 -0.1444
  524MOL0     C70633   0.938   4.383   9.679  0.0323 -0.2954 -0.4114
  524MOL0     C70634   0.784   4.296   9.495  1.1009  0.0723 -0.5410
  524MOL0     C70635   0.660   4.287   9.573 -0.2776  0.4776 -0.4273
  524MOL0     O70636   0.547   4.228   9.516  0.2171 -0.5271 -0.3145
  524MOL0     C70637   0.434   4.237   9.592  0.2390 -0.1181 -0.6826
  524MOL0     C70638   0.390   4.121   9.663 -0.9422 -0.2673  0.4910
  524MOL0     C70639   0.276   4.127   9.735 -0.8770 -0.1326  0.6273
  524MOL0     C70640   0.202   4.244   9.752 -0.3736 -0.1256 -0.3933
  524MOL0     O70641   0.100   4.226   9.843 -0.2972 -0.0008 -0.0465
  524MOL0     C70642  -0.011   4.316   9.837  0.2286  0.0831 -1.1989
  524MOL0     C70643  -0.101   4.292   9.707 -0.7729  0.6895  0.1693
  524MOL0     C70644  -0.245   4.332   9.717 -0.1274 -0.8963  0.2366
  524MOL0     C70645  -0.328   4.240   9.804 -0.6749  1.5107 -0.8849
  524MOL0     C70646  -0.475   4.264   9.764  0.2363  0.3219 -0.1973
  524MOL0     C70647  -0.589   4.221   9.856  0.6481 -0.8561 -0.2309
  524MOL0     C70648  -0.605   4.315   9.980  0.2108  0.1179 -0.9095
  524MOL0     C70649  -0.730   4.277  10.060  0.2634  0.1231 -0.8048
  524MOL0    Cl70650  -0.759   4.377  10.212 -0.3170  0.3571  0.0750
  524MOL0     C70651   0.246   4.360   9.679  0.4940 -0.2054 -0.5118
  524MOL0     C70652   0.357   4.354   9.589  0.0395 -0.3135 -0.3541
  524MOL0     O70653   0.672   4.326   9.695 -0.4506 -0.0845  0.5006
  524MOL0     C70654   0.771   4.274   9.359 -1.0561 -0.5731  1.3850
  524MOL0     C70655   0.883   4.292   9.281 -1.3691 -0.3965  0.4002
  524MOL0     N70656   1.465   4.861   9.295  0.1270  0.1015  0.1141
  524MOL0     N70657   1.549   4.956   9.282 -0.8469 -0.2555  0.3150
  524MOL0     C70658   2.230   5.179   8.134 -0.4473  0.1584  0.8935
  524MOL0     C70659   2.277   5.209   8.003  0.4485 -0.7046  0.3252
  524MOL0     C70660   2.575   5.368   7.696  0.4587  0.0935  0.3882
  524MOL0     C70661   2.708   5.341   7.653  0.2034 -0.2868 -1.1941
  524MOL0     C70662   2.758   5.394   7.537 -0.4203  0.0248 -0.3099
  524MOL0     C70663   2.675   5.464   7.445  0.5855 -0.4959  0.3020
  524MOL0     O70664   2.726   5.498   7.323 -0.1182  0.5025  0.4934
  524MOL0     C70665   2.691   5.629   7.259 -0.3271 -0.0443  0.0199
  524MOL0     C70666   2.581   5.624   7.152 -0.0839 -0.3263  1.3624
  524MOL0     C70667   2.598   5.751   7.055 -0.1043 -0.4938 -0.6244
  524MOL0     C70668   2.596   5.886   7.121 -0.5827 -0.4297 -0.1211
  524MOL0     C70669   2.472   5.905   7.207 -0.0123 -0.9430 -0.7095
  524MOL0     C70670   2.370   5.941   7.270 -0.0905  0.1186 -1.2732
  524MOL0     C70671   2.548   5.507   7.493 -0.3310  0.1252  0.1251
  524MOL0     C70672   2.502   5.455   7.609  0.4732 -0.4063  0.4146
  524MOL0     H70673   2.334   5.527   8.045  0.1214  0.6017 -0.3031
  524MOL0     H70674   2.277   5.478   8.279  4.5355 -1.2167  1.2052
  524MOL0     H70675   2.310   5.360   8.468  0.2842 -0.0541  1.0651
  524MOL0     H70676   2.134   5.389   8.495  1.4112  1.6805 -2.4486
  524MOL0     H70677   2.289   5.132   8.578  0.9536  0.5043  2.6493
  524MOL0     H70678   2.261   5.271   8.683  0.0296 -0.4614  0.3441
  524MOL0     H70679   2.004   5.223   8.636  1.1323 -1.2764 -1.9781
  524MOL0     H70680   2.072   5.071   8.576  1.3732 -1.5073  2.1977
  524MOL0     H70681   2.184   5.036   8.791 -1.1650 -1.1141 -2.2429
  524MOL0     H70682   2.120   5.205   8.843  0.6615  1.0046 -1.1257
  524MOL0     H70683   1.892   5.097   8.774  1.0490  0.8096 -0.0885
  524MOL0     H70684   1.975   4.938   8.794 -2.0789  0.0066 -0.7555
  524MOL0     H70685   2.031   5.033   9.028 -1.6956  1.3545  4.1760
  524MOL0     H70686   1.912   5.163   8.993 -1.9781 -0.5630 -0.1120
  524MOL0     H70687   1.755   4.972   8.949  2.5111  1.7572 -0.8274
  524MOL0     H70688   1.860   4.868   9.042  2.1502 -1.2238 -1.8402
  524MOL0     H70689   1.719   5.114   9.141 -0.3928  0.2854  0.3252
  524MOL0     H70690   1.835   5.018   9.233 -1.6438 -2.8445  1.1798
  524MOL0     H70691   1.706   4.730   9.115  0.6719 -0.1551 -0.9832
  524MOL0     H70692   1.546   4.548   9.183  0.7174  1.2479  3.0166
  524MOL0     H70693   1.436   4.578   9.316  2.2525 -1.7054  1.2242
  524MOL0     H70694   1.358   4.639   9.036  2.4489 -1.6931 -0.7635
  524MOL0     H70695   1.253   4.644   9.181 -0.3029 -0.3340 -1.2626
  524MOL0     H70696   1.403   4.397   9.152  0.3052  2.2458 -0.8769
  524MOL0     H70697   1.256   4.422   9.052 -0.2286  0.1992  0.6914
  524MOL0     H70698   1.204   4.503   9.322 -0.5920 -0.9191  1.6440
  524MOL0     H70699   1.259   4.342   9.333 -1.4469 -2.5789 -1.6761
  524MOL0     H70700   1.124   4.352   9.504  0.6965 -3.7803  3.0291
  524MOL0     H70701   0.863   4.461   9.697  2.0337  2.2484 -2.3236
  524MOL0     H70702   0.928   4.318   9.767  1.1852 -0.3867 -0.3326
  524MOL0     H70703   1.036   4.428   9.694  0.1043 -0.3109 -0.8143
  524MOL0     H70704   0.454   4.033   9.649 -1.2708 -0.3220 -0.8085
  524MOL0     H70705   0.259   4.036   9.793  3.2151 -1.6318 -0.1961
  524MOL0     H70706  -0.061   4.300   9.934  4.3097 -0.2516  1.0825
  524MOL0     H70707   0.011   4.422   9.849 -1.7934  0.2552  2.8164
  524MOL0     H70708  -0.055   4.335   9.618  2.5566  2.2481  2.4443
  524MOL0     H70709  -0.100   4.185   9.685 -0.3463  0.8017 -0.3610
  524MOL0     H70710  -0.290   4.329   9.617 -2.1820  1.9709  0.9565
  524MOL0     H70711  -0.246   4.435   9.754  0.2079 -1.8794  3.2852
  524MOL0     H70712  -0.324   4.133   9.781  0.2964  1.5354 -0.8645
  524MOL0     H70713  -0.299   4.251   9.909  1.3727 -1.8910 -0.9687
  524MOL0     H70714  -0.482   4.220   9.664  3.7758  0.1126 -0.5061
  524MOL0     H70715  -0.492   4.371   9.745  0.5553 -0.0830 -3.2393
  524MOL0     H70716  -0.680   4.225   9.795  0.6915 -5.7665 -1.0333
  524MOL0     H70717  -0.572   4.116   9.879 -0.0252 -1.0859 -0.7574
  524MOL0     H70718  -0.613   4.421   9.956  1.3961  0.4732  0.1569
  524MOL0     H70719  -0.527   4.293  10.053 -1.1425 -0.9498  0.2920
  524MOL0     H70720  -0.743   4.172  10.089 -0.2069  0.0022 -1.4318
  524MOL0     H70721  -0.814   4.294   9.992  1.7374  1.8060 -2.2884
  524MOL0     H70722   0.190   4.452   9.689 -0.2001 -0.7719  1.0744
  524MOL0     H70723   0.368   4.439   9.522 -1.1739  0.6929  0.6720
  524MOL0     H70724   0.683   4.258   9.299  0.6301 -1.4258 -1.0380
  524MOL0     H70725   0.879   4.286   9.173  1.1035  1.0933  0.1642
  524MOL0     H70726   2.192   5.079   8.151 -0.3548 -0.2870 -1.2341
  524MOL0     H70727   2.297   5.136   7.925  0.5334  2.0359 -2.3780
  524MOL0     H70728   2.759   5.286   7.731  0.6372  2.5517  0.6751
  524MOL0     H70729   2.852   5.358   7.498  0.2945  1.5847 -0.0854
  524MOL0     H70730   2.672   5.706   7.335  0.4592 -0.2210  0.4086
  524MOL0     H70731   2.780   5.659   7.204 -0.8833 -0.1109 -0.9419
  524MOL0     H70732   2.480   5.621   7.195 -0.5282  1.2132  0.5396
  524MOL0     H70733   2.603   5.536   7.091  2.0043  0.5035  0.8502
  524MOL0     H70734   2.513   5.754   6.986 -1.9547  5.8309  1.2513
  524MOL0     H70735   2.686   5.731   6.993 -0.6328 -1.8510 -0.9745
  524MOL0     H70736   2.602   5.966   7.047 -0.8362 -1.1442 -0.9354
  524MOL0     H70737   2.685   5.895   7.185  0.7402 -1.0807 -1.7985
  524MOL0     H70738   2.288   5.989   7.320 -1.0281 -1.2198 -1.4808
  524MOL0     H70739   2.482   5.573   7.438 -0.5260  0.1752  0.4223
  524MOL0     H70740   2.402   5.495   7.625  1.6248  1.8706  2.5706
  525MOL0     O70741   3.093   5.947  10.274  0.5722 -0.6964 -0.0779
  525MOL0     C70742   3.125   5.841  10.329 -0.7771  0.4338 -0.1881
  525MOL0     O70743   3.043   5.730  10.328 -0.5317 -0.1771  0.2726
  525MOL0     C70744   2.920   5.733  10.271 -0.2226  0.1026 -0.1611
  525MOL0     C70745   2.905   5.711  10.129  0.6654  1.6179 -0.3190
  525MOL0     C70746   2.774   5.695  10.073  0.6504 -1.4180 -0.4447
  525MOL0     C70747   2.659   5.727  10.160  0.1893 -0.0279 -0.7338
  525MOL0     O70748   2.519   5.734  10.129 -0.1911  0.5101  0.0995
  525MOL0     C70749   2.472   5.719   9.995  0.0355 -0.0255  0.4283
  525MOL0     C70750   2.460   5.858   9.938 -0.3569 -0.3661  0.1757
  525MOL0     C70751   2.526   5.881   9.798 -0.5545 -0.1252 -0.1982
  525MOL0     C70752   2.618   6.009   9.803 -0.1354 -0.6699 -0.2483
  525MOL0     C70753   2.754   6.013   9.881  0.5779 -0.1972 -0.3641
  525MOL0     C70754   2.806   6.157   9.869  0.3941  0.3559 -0.9131
  525MOL0     C70755   2.939   6.164   9.952 -0.3300 -0.0313 -1.0206
  525MOL0     C70756   3.022   6.287   9.933  0.4239 -0.7023 -0.4242
  525MOL0     N70757   3.079   6.281   9.799 -0.2824 -0.5373 -0.5053
  525MOL0     C70758   3.156   6.179   9.743 -0.3757 -0.1070  0.2650
  525MOL0     C70759   3.171   6.218   9.613  0.2739  0.4020 -0.1150
  525MOL0     C70760   3.260   6.158   9.506 -0.1546  0.6177  0.0983
  525MOL0     C70761   3.371   6.062   9.554  0.2591  0.2901 -0.1548
  525MOL0     C70762   3.477   6.142   9.633  0.0399  0.5143  0.1651
  525MOL0     C70763   3.605   6.056   9.652  0.8222 -0.4166  0.3771
  525MOL0     O70764   3.578   5.953   9.750  0.5314 -0.9656  0.2267
  525MOL0     C70765   3.656   5.967   9.860 -0.7283 -0.1251  1.8035
  525MOL0     C70766   3.631   6.050   9.969 -0.5072 -0.3699  0.3597
  525MOL0     C70767   3.706   6.048  10.091  0.0023  0.3913  0.2499
  525MOL0     C70768   3.663   6.137  10.208 -0.4794  0.3679 -0.0925
  525MOL0     C70769   3.816   5.953  10.090 -0.2347 -0.0161  0.6749
  525MOL0     C70770   3.910   5.945  10.212 -0.5680  0.1950  0.6528
  525MOL0     O70771   4.012   5.863  10.198 -0.0704  0.9308 -0.8339
  525MOL0     C70772   4.065   5.808  10.308  0.6206 -0.2358 -0.4950
  525MOL0     C70773   3.986   5.751  10.414 -0.1359  0.5650 -0.3309
  525MOL0     C70774   4.044   5.687  10.520 -0.4223  0.1329 -0.4891
  525MOL0     C70775   4.181   5.666  10.524  0.1911  0.2604 -0.4638
  525MOL0     O70776   4.242   5.583  10.612  0.1351  0.2054  0.0720
  525MOL0     C70777   4.180   5.521  10.717  0.2512  0.4302 -0.1742
  525MOL0     C70778   4.296   5.432  10.790  0.6095 -0.0843 -0.1627
  525MOL0     C70779   4.237   5.352  10.904 -0.0877  0.4542 -0.3502
  525MOL0     C70780   4.341   5.257  10.962  0.8891 -0.3238  0.6326
  525MOL0     C70781   4.268   5.172  11.067 -1.4772 -0.0907  0.1985
  525MOL0     C70782   4.367   5.074  11.139  0.0007 -0.6445 -0.5765
  525MOL0     C70783   4.291   4.972  11.219  0.3190  0.3591 -0.2593
  525MOL0     C70784   4.366   4.841  11.254  0.1427 -0.3450 -0.6567
  525MOL0    Cl70785   4.512   4.883  11.349 -0.0865 -0.0357  0.5953
  525MOL0     C70786   4.255   5.739  10.426 -0.1161  0.4220 -0.1384
  525MOL0     C70787   4.198   5.805  10.319  0.9322  0.4462  1.0237
  525MOL0     O70788   3.888   6.006  10.310  0.1472 -0.4217  0.6127
  525MOL0     C70789   3.825   5.863   9.983  0.2885  0.1930  1.3210
  525MOL0     C70790   3.744   5.868   9.870 -0.0554  0.5635 -0.4181
  525MOL0     N70791   3.087   6.327   9.594 -0.1122  0.8116  1.2933
  525MOL0     N70792   3.031   6.353   9.697 -0.0635  0.0664 -0.2517
  525MOL0     C70793   2.675   5.747  10.298 -0.9410 -0.6720 -0.3017
  525MOL0     C70794   2.809   5.745  10.354 -0.0745  0.2055  0.9643
  525MOL0     C70795   3.251   5.837  10.407  0.1290 -0.0465 -0.4435
  525MOL0     C70796   3.297   5.724  10.464  0.4136  0.6871  0.1529
  525MOL0     C70797   3.420   5.718  10.534  0.3724 -0.2666  0.9223
  525MOL0     C70798   3.501   5.825  10.542  0.0105 -0.1682 -0.3957
  525MOL0     O70799   3.624   5.811  10.611 -0.5145  0.1387  0.0012
  525MOL0     C70800   3.679   5.923  10.668  0.2803  0.1377  0.2074
  525MOL0     C70801   3.798   5.875  10.750 -0.4833 -0.1017  0.6589
  525MOL0     C70802   3.903   5.987  10.761 -0.0863  0.3780  0.6485
  525MOL0     C70803   4.018   5.934  10.845 -1.0021  0.5585  0.1074
  525MOL0     C70804   4.140   6.012  10.820  1.1315  0.7454 -0.4085
  525MOL0     C70805   4.232   6.089  10.808  0.1638  0.5919  0.5159
  525MOL0     C70806   3.446   5.945  10.497 -0.1504  0.7164 -0.9020
  525MOL0     C70807   3.326   5.953  10.427 -0.2260  0.0177  1.1184
  525MOL0     H70808   2.990   5.692  10.065 -0.4839 -0.6502 -1.2744
  525MOL0     H70809   2.755   5.662   9.971 -1.7076 -0.5056 -0.3501
  525MOL0     H70810   2.544   5.660   9.937 -0.5828  1.3826 -1.9151
  525MOL0     H70811   2.375   5.668   9.994 -0.7685  1.4006 -1.6443
  525MOL0     H70812   2.356   5.891   9.929  0.2244  1.4169 -0.6986
  525MOL0     H70813   2.491   5.930  10.014  0.1273 -0.0481 -0.3124
  525MOL0     H70814   2.590   5.795   9.775 -1.5249 -0.1058 -3.4093
  525MOL0     H70815   2.462   5.899   9.712 -1.0861  0.6665  0.3420
  525MOL0     H70816   2.649   6.035   9.702  0.7229 -2.6624 -0.5379
  525MOL0     H70817   2.551   6.087   9.840 -1.6537 -0.2235 -3.6140
  525MOL0     H70818   2.748   5.979   9.985  1.3973 -0.7477 -0.4903
  525MOL0     H70819   2.828   5.950   9.831  0.4225 -1.9653  1.5073
  525MOL0     H70820   2.820   6.170   9.761  1.6529 -1.7097 -1.0496
  525MOL0     H70821   2.728   6.223   9.908  1.0161  1.2838 -1.1949
  525MOL0     H70822   2.921   6.172  10.060  2.3190  2.8241 -0.6507
  525MOL0     H70823   2.998   6.072   9.954 -0.2168  0.0353  1.3670
  525MOL0     H70824   3.107   6.297  10.002  1.3021 -0.1522 -1.5423
  525MOL0     H70825   2.966   6.380   9.942  0.1021 -1.0795  2.3713
  525MOL0     H70826   3.202   6.093   9.791 -1.6879 -2.3164 -2.1828
  525MOL0     H70827   3.193   6.104   9.437 -0.6182  2.4600 -0.9679
  525MOL0     H70828   3.314   6.227   9.441  0.1679 -2.9226 -3.8658
  525MOL0     H70829   3.422   6.027   9.464  0.9492  0.3252  0.2145
  525MOL0     H70830   3.335   5.972   9.605 -1.5686  0.4907 -1.0195
  525MOL0     H70831   3.423   6.162   9.725  0.6722 -4.4584  1.9448
  525MOL0     H70832   3.498   6.238   9.586  0.1160 -1.0368 -3.2862
  525MOL0     H70833   3.692   6.119   9.672  1.6367 -0.5949 -2.2056
  525MOL0     H70834   3.636   6.003   9.561 -0.6358 -1.5773  0.5230
  525MOL0     H70835   3.544   6.115   9.964  0.5541  1.1521  1.2160
  525MOL0     H70836   3.742   6.203  10.244 -3.2550  1.4269  4.9431
  525MOL0     H70837   3.566   6.180  10.184 -1.0251 -1.2028 -0.8619
  525MOL0     H70838   3.653   6.079  10.300 -3.8284  1.6571  0.4867
  525MOL0     H70839   3.878   5.762  10.403 -0.6269 -1.4184  1.7527
  525MOL0     H70840   3.979   5.651  10.600  2.3541 -1.0814  1.4051
  525MOL0     H70841   4.142   5.590  10.794  0.5299 -0.2570  0.5958
  525MOL0     H70842   4.102   5.452  10.685  0.0491  0.5286  0.0971
  525MOL0     H70843   4.352   5.374  10.717 -0.3289  0.7017 -1.5530
  525MOL0     H70844   4.365   5.502  10.839  2.1342 -1.3802 -0.4211
  525MOL0     H70845   4.150   5.303  10.860 -0.0445  0.4210 -0.3986
  525MOL0     H70846   4.210   5.421  10.985  1.2697 -1.2871  1.7174
  525MOL0     H70847   4.391   5.199  10.884  0.7697  0.8585 -0.3564
  525MOL0     H70848   4.416   5.314  11.018 -0.6547  0.2536  2.2094
  525MOL0     H70849   4.186   5.118  11.019 -2.5768  0.9135  0.9041
  525MOL0     H70850   4.221   5.239  11.140  1.1589  1.8216  0.2786
  525MOL0     H70851   4.420   5.008  11.070  1.0887 -1.7666  1.2288
  525MOL0     H70852   4.449   5.113  11.200  0.4545  2.5887 -3.0365
  525MOL0     H70853   4.193   4.953  11.175 -0.0127  1.9824 -0.3151
  525MOL0     H70854   4.263   5.027  11.310 -0.3254 -1.1079  0.4562
  525MOL0     H70855   4.398   4.803  11.156 -2.7510 -4.9338 -0.1161
  525MOL0     H70856   4.306   4.764  11.304  1.1623 -0.9840 -0.3748
  525MOL0     H70857   4.363   5.728  10.424  0.0212 -0.6468  3.9063
  525MOL0     H70858   4.251   5.846  10.234  2.1501 -1.2778  0.8849
  525MOL0     H70859   3.904   5.788   9.988 -1.6468 -1.9970  0.8758
  525MOL0     H70860   3.761   5.787   9.799  2.7814  0.7484 -0.0644
  525MOL0     H70861   2.598   5.768  10.372 -0.1920 -2.5686  1.1196
  525MOL0     H70862   2.817   5.786  10.454 -2.6394  2.5489  0.3283
  525MOL0     H70863   3.245   5.629  10.469  0.6247  0.6343  3.3282
  525MOL0     H70864   3.452   5.622  10.573 -0.4796  0.4437  3.6328
  525MOL0     H70865   3.696   5.990  10.584 -1.3358  0.3138 -0.0072
  525MOL0     H70866   3.606   5.967  10.738 -1.8811 -1.5886 -0.8527
  525MOL0     H70867   3.835   5.786  10.698 -0.3383 -0.1043  0.7656
  525MOL0     H70868   3.760   5.847  10.849 -3.6643  0.3511 -0.3229
  525MOL0     H70869   3.858   6.071  10.815  3.1033  3.1563 -0.6400
  525MOL0     H70870   3.933   6.027  10.663  1.4196 -2.9614 -0.3844
  525MOL0     H70871   4.047   5.831  10.825 -0.3474  0.6329  0.6485
  525MOL0     H70872   3.992   5.941  10.951  1.9864  1.2084  0.8780
  525MOL0     H70873   4.308   6.161  10.785  1.1785 -0.9965 -1.3998
  525MOL0     H70874   3.485   6.042  10.526 -1.9525  1.0139  0.7191
  525MOL0     H70875   3.290   6.047  10.388 -0.8779 -0.3508  0.8140
  526MOL0     O70876  11.023   7.575   9.514  0.0271  0.8555  0.7702
  526MOL0     C70877  11.041   7.464   9.462 -0.0386  1.3623  0.5614
  526MOL0     O70878  10.958   7.412   9.368  0.4490  1.0462 -0.8496
  526MOL0     C70879  10.859   7.499   9.333  0.1713  0.3744  0.2424
  526MOL0     C70880  10.892   7.606   9.249  0.8340 -0.1124  0.0334
  526MOL0     C70881  10.798   7.709   9.232 -0.0509  0.6793 -0.1129
  526MOL0     C70882  10.676   7.711   9.291  0.1171 -0.6076  0.4759
  526MOL0     O70883  10.601   7.821   9.250  0.2454  0.1308  0.5129
  526MOL0     C70884  10.482   7.777   9.187  0.2500  0.5081  0.2885
  526MOL0     C70885  10.501   7.792   9.031  0.3239 -0.3758 -0.1138
  526MOL0     C70886  10.517   7.939   8.995  0.7301  1.4053  0.0700
  526MOL0     C70887  10.384   8.000   8.942 -0.4403  0.3724 -0.0984
  526MOL0     C70888  10.394   8.151   8.923 -0.2448 -0.0538  0.4197
  526MOL0     C70889  10.277   8.203   8.838  0.7701  1.0299  0.8795
  526MOL0     C70890  10.292   8.357   8.814  0.5503  0.8671 -1.3096
  526MOL0     C70891  10.154   8.431   8.784 -0.9314 -0.1284 -0.3595
  526MOL0     N70892  10.112   8.404   8.650  0.1829  0.5817 -0.8748
  526MOL0     C70893  10.025   8.305   8.632  0.4860 -0.7944 -1.3476
  526MOL0     C70894  10.000   8.313   8.499  0.1391 -0.2182 -0.2021
  526MOL0     C70895   9.888   8.237   8.422 -0.0880 -1.0961 -1.4776
  526MOL0     C70896   9.767   8.327   8.414 -0.0451  0.3429 -0.7388
  526MOL0     C70897   9.759   8.416   8.283  0.6345  1.2500 -0.7218
  526MOL0     C70898   9.629   8.496   8.275 -0.3585  1.0733  0.6713
  526MOL0     O70899   9.593   8.579   8.387  0.2986 -0.8287 -0.6719
  526MOL0     C70900   9.631   8.715   8.369 -1.1126 -0.4490  0.2581
  526MOL0     C70901   9.551   8.813   8.422 -0.5773  0.4883 -0.1413
  526MOL0     C70902   9.554   8.944   8.392 -0.1982  0.5348  0.7748
  526MOL0     C70903   9.432   9.033   8.419 -0.5036  0.4148 -0.4039
  526MOL0     C70904   9.679   8.993   8.330 -0.7349  0.2987  0.0540
  526MOL0     C70905   9.715   9.139   8.333 -0.0835 -0.6460 -0.0558
  526MOL0     O70906   9.851   9.168   8.310 -0.1953  0.4767 -0.3430
  526MOL0     C70907   9.891   9.297   8.335  0.2899 -0.2986  0.5660
  526MOL0     C70908   9.941   9.331   8.462 -0.0550 -0.7547  0.4403
  526MOL0     C70909   9.982   9.467   8.485  0.2284 -0.4856 -0.1751
  526MOL0     C70910   9.968   9.570   8.391  0.3339 -0.2760 -0.5030
  526MOL0     O70911   9.998   9.701   8.426 -0.3449  0.7032  0.8232
  526MOL0     C70912   9.943   9.808   8.344  0.6907 -0.7220  0.1089
  526MOL0     C70913  10.029   9.939   8.354 -0.2198  0.1247  0.0739
  526MOL0     C70914  10.097   9.958   8.497  0.1365 -0.0822  0.1449
  526MOL0     C70915  10.179  10.085   8.498  0.3764  0.4075  1.1503
  526MOL0     C70916  10.266  10.087   8.621 -0.7853 -0.8628  0.4193
  526MOL0     C70917  10.203  10.122   8.755 -0.3729  0.6992 -0.1798
  526MOL0     C70918  10.290  10.122   8.874 -0.1890 -0.0657 -0.2907
  526MOL0     C70919  10.240  10.208   8.989  1.0319 -0.9584  0.4358
  526MOL0    Cl70920  10.081  10.140   9.050 -0.0563 -0.1705 -0.2355
  526MOL0     C70921   9.915   9.533   8.272  0.6992  0.0025 -0.5394
  526MOL0     C70922   9.868   9.402   8.243  0.4534  0.4203 -0.2956
  526MOL0     O70923   9.634   9.227   8.354  0.6203 -0.3714  0.1218
  526MOL0     C70924   9.760   8.902   8.268  0.0400  1.2142  0.0594
  526MOL0     C70925   9.736   8.761   8.291 -0.1991 -0.0625  0.4078
  526MOL0     N70926  10.072   8.406   8.440 -0.1239 -1.3767  0.4298
  526MOL0     N70927  10.134   8.461   8.537 -0.3481  0.6618 -0.0757
  526MOL0     C70928  10.632   7.598   9.362 -0.1272  0.3503  0.1923
  526MOL0     C70929  10.731   7.493   9.387 -0.5300 -0.0256 -0.1949
  526MOL0     C70930  11.152   7.369   9.501  0.2791  1.3413 -0.5622
  526MOL0     C70931  11.233   7.392   9.614  0.1570  0.6321 -0.5309
  526MOL0     C70932  11.335   7.298   9.647 -0.6967 -0.6049  0.0652
  526MOL0     C70933  11.370   7.195   9.555  0.1980 -0.5968 -0.5361
  526MOL0     O70934  11.481   7.113   9.569  0.3980 -0.9677  0.1655
  526MOL0     C70935  11.572   7.157   9.668  0.4870  0.5262  0.2537
  526MOL0     C70936  11.528   7.110   9.820 -0.7295  0.8379 -1.0224
  526MOL0     C70937  11.587   6.981   9.862  1.0622  0.6186 -0.4464
  526MOL0     C70938  11.495   6.864   9.829 -0.5942 -0.8836 -0.2497
  526MOL0     C70939  11.559   6.747   9.873  0.4288  1.2933 -0.1775
  526MOL0     C70940  11.612   6.642   9.904 -0.4583  0.3500 -0.5018
  526MOL0     C70941  11.288   7.175   9.439  0.0058  0.4517  0.5202
  526MOL0     C70942  11.182   7.259   9.416  0.0437  0.3067  0.1170
  526MOL0     H70943  10.996   7.616   9.219  1.7052 -2.2245  2.0463
  526MOL0     H70944  10.825   7.799   9.179 -0.0517 -0.3080 -1.8451
  526MOL0     H70945  10.446   7.684   9.231  0.5726  0.3460  0.2110
  526MOL0     H70946  10.395   7.842   9.204 -0.8118 -1.1727  1.6600
  526MOL0     H70947  10.590   7.743   8.991 -0.4321 -0.5411 -1.6717
  526MOL0     H70948  10.408   7.754   8.986 -0.6821  2.9136 -1.1222
  526MOL0     H70949  10.538   8.000   9.083 -3.7048  2.3176  0.7509
  526MOL0     H70950  10.595   7.950   8.919  0.0601  1.6449 -0.6005
  526MOL0     H70951  10.385   7.963   8.839 -1.9251 -2.5382  0.8053
  526MOL0     H70952  10.290   7.967   8.986 -0.4568  0.9347  0.2892
  526MOL0     H70953  10.397   8.209   9.016  0.5710  0.1877  0.2477
  526MOL0     H70954  10.486   8.178   8.872 -1.2147  1.9759 -0.3685
  526MOL0     H70955  10.272   8.140   8.749 -0.1893  5.4234 -2.5297
  526MOL0     H70956  10.180   8.195   8.888  0.1478  0.3157 -0.4097
  526MOL0     H70957  10.340   8.423   8.887  0.7233  0.2899 -0.8964
  526MOL0     H70958  10.358   8.353   8.727 -0.6386  1.1486 -2.2438
  526MOL0     H70959  10.167   8.539   8.794 -0.2356 -0.3678  1.9778
  526MOL0     H70960  10.079   8.409   8.860 -0.9906  0.9240 -0.1035
  526MOL0     H70961   9.986   8.236   8.707  0.2230 -1.3787 -2.0079
  526MOL0     H70962   9.922   8.200   8.325  0.3833 -1.9013 -1.0126
  526MOL0     H70963   9.865   8.147   8.480  4.5225 -1.2174  0.6280
  526MOL0     H70964   9.751   8.396   8.498 -1.3546  1.6640 -2.0118
  526MOL0     H70965   9.687   8.254   8.432  1.6904 -1.2722  0.7549
  526MOL0     H70966   9.761   8.369   8.184 -1.5459  0.5932 -0.5235
  526MOL0     H70967   9.849   8.478   8.278  1.6855 -0.3344 -2.8959
  526MOL0     H70968   9.550   8.421   8.264  1.3978 -0.8900  0.8703
  526MOL0     H70969   9.637   8.550   8.180 -0.9730  0.9988  0.5733
  526MOL0     H70970   9.474   8.753   8.470 -0.4274 -0.3951 -0.9858
  526MOL0     H70971   9.357   8.968   8.467  0.6839 -1.0919 -0.5097
  526MOL0     H70972   9.455   9.105   8.498 -4.5909  1.3131  0.1806
  526MOL0     H70973   9.394   9.092   8.335  2.1178  0.1651 -1.8640
  526MOL0     H70974   9.942   9.257   8.542 -2.4429 -1.6670 -0.2937
  526MOL0     H70975  10.007   9.510   8.581  0.2834  3.0900 -1.6700
  526MOL0     H70976   9.935   9.781   8.239 -0.5344  0.3320 -0.0970
  526MOL0     H70977   9.840   9.823   8.377  0.2377 -1.7289 -0.7947
  526MOL0     H70978  10.111   9.928   8.282 -0.6488  0.4379 -0.4677
  526MOL0     H70979   9.978  10.031   8.326  0.6432  1.1024  1.5421
  526MOL0     H70980  10.168   9.876   8.507  0.5058 -0.2678 -2.9998
  526MOL0     H70981  10.032   9.949   8.584  0.4641 -3.3778  0.1578
  526MOL0     H70982  10.237  10.079   8.406  1.2729  0.9406  1.6687
  526MOL0     H70983  10.108  10.168   8.501  1.0632  1.1372 -1.0300
  526MOL0     H70984  10.350  10.152   8.592 -2.9150 -0.1062 -5.5421
  526MOL0     H70985  10.313   9.990   8.640  3.9301  1.2751  1.1225
  526MOL0     H70986  10.158  10.222   8.752  0.1723  0.9832  0.7582
  526MOL0     H70987  10.116  10.057   8.765  0.0402  0.0651 -0.6724
  526MOL0     H70988  10.389  10.157   8.844  0.4598 -2.4110 -1.0594
  526MOL0     H70989  10.306  10.021   8.914  2.3109  0.0125 -0.9078
  526MOL0     H70990  10.227  10.312   8.959 -0.5614  0.0111  3.9849
  526MOL0     H70991  10.308  10.212   9.075  0.4133 -1.3132  0.9501
  526MOL0     H70992   9.890   9.606   8.196 -1.3295 -0.0418  0.0091
  526MOL0     H70993   9.831   9.390   8.141  1.1113 -0.6158 -0.4258
  526MOL0     H70994   9.851   8.924   8.214 -0.2214 -3.2852 -2.6821
  526MOL0     H70995   9.801   8.686   8.248 -0.9470 -0.7795  0.4900
  526MOL0     H70996  10.537   7.586   9.413 -1.7654  3.4208 -1.8544
  526MOL0     H70997  10.702   7.420   9.462 -2.5371  2.4600  1.6509
  526MOL0     H70998  11.223   7.473   9.685  2.4300  0.4052  0.1331
  526MOL0     H70999  11.382   7.303   9.745 -2.4306 -4.7081  1.3218
  526MOL0     H71000  11.667   7.113   9.636 -0.6187 -0.5593 -1.7064
  526MOL0     H71001  11.574   7.266   9.678 -0.3374  0.5271  0.5118
  526MOL0     H71002  11.419   7.107   9.822 -0.7364  0.8096 -1.3600
  526MOL0     H71003  11.544   7.189   9.893  0.5061 -0.2098 -0.1032
  526MOL0     H71004  11.601   6.980   9.970  2.2007 -2.5801 -0.5131
  526MOL0     H71005  11.686   6.966   9.817  0.2073 -1.8606 -1.7328
  526MOL0     H71006  11.480   6.872   9.721  0.1034  1.9644 -0.2154
  526MOL0     H71007  11.395   6.877   9.872 -1.7019 -1.7894 -2.3663
  526MOL0     H71008  11.664   6.550   9.919 -0.5644  0.5782  1.5882
  526MOL0     H71009  11.320   7.100   9.368 -2.1223 -1.3375  1.3372
  526MOL0     H71010  11.118   7.238   9.331  1.0886 -0.5468 -0.4897
  527MOL0     O71011   0.079  10.391  11.482 -0.1621 -0.2800 -0.9899
  527MOL0     C71012   0.167  10.361  11.567 -0.8124  0.4973 -1.0071
  527MOL0     O71013   0.268  10.436  11.618 -1.3341  0.1360 -0.4025
  527MOL0     C71014   0.281  10.566  11.573 -0.2703  0.0401  0.1889
  527MOL0     C71015   0.185  10.658  11.601  0.7068 -0.0488 -0.3369
  527MOL0     C71016   0.205  10.785  11.551 -0.0974 -0.3328  0.6880
  527MOL0     C71017   0.309  10.823  11.481  0.1873  0.0379  0.2787
  527MOL0     O71018   0.323  10.947  11.428  0.1153 -0.8973 -0.7785
  527MOL0     C71019   0.426  11.026  11.489 -0.4283  1.2678 -0.0787
  527MOL0     C71020   0.425  11.165  11.431 -0.7971  0.9142 -0.2956
  527MOL0     C71021   0.429  11.164  11.281 -0.5625  0.4530 -0.1071
  527MOL0     C71022   0.485  11.296  11.226  0.4395 -0.8787  0.1561
  527MOL0     C71023   0.630  11.287  11.181  0.4091  0.0505 -0.1681
  527MOL0     C71024   0.639  11.238  11.041  0.1277 -0.4225  0.8706
  527MOL0     C71025   0.774  11.191  10.995 -0.2947 -0.5605 -0.0489
  527MOL0     C71026   0.816  11.056  11.048 -0.5069 -0.1686 -0.8038
  527MOL0     N71027   0.946  11.003  10.990  0.2885 -0.7632 -0.4440
  527MOL0     C71028   1.062  11.071  11.026  0.1377  0.2171  0.6264
  527MOL0     C71029   1.147  11.026  10.934 -1.0221  0.0223  0.8575
  527MOL0     C71030   1.294  11.076  10.907  0.4464  0.0802  0.0255
  527MOL0     C71031   1.374  11.102  11.039  0.2696  0.8516 -0.2409
  527MOL0     C71032   1.433  10.978  11.102 -0.8226 -0.5663 -0.6185
  527MOL0     C71033   1.559  10.941  11.026  0.6138 -0.4399  0.0893
  527MOL0     O71034   1.516  10.830  10.934  0.0713 -1.1360  0.6284
  527MOL0     C71035   1.551  10.844  10.801  1.2317 -0.5750  0.0665
  527MOL0     C71036   1.684  10.879  10.770  0.8955 -0.6431 -0.5982
  527MOL0     C71037   1.734  10.883  10.638 -0.1580 -0.4374  0.2257
  527MOL0     C71038   1.876  10.932  10.616 -0.2580  0.2889 -0.4741
  527MOL0     C71039   1.642  10.861  10.533  0.2090  0.2294  0.4017
  527MOL0     C71040   1.677  10.843  10.390  0.6205 -0.0471  0.9084
  527MOL0     O71041   1.592  10.817  10.293  0.8826 -0.2548  0.1523
  527MOL0     C71042   1.616  10.853  10.160 -0.2451 -0.7601 -1.2225
  527MOL0     C71043   1.554  10.774  10.061  0.6155  0.9549 -0.2904
  527MOL0     C71044   1.558  10.805   9.928  0.6885  0.4319 -0.9576
  527MOL0     C71045   1.623  10.918   9.885 -0.0369 -0.3395  1.0075
  527MOL0     O71046   1.597  10.956   9.751 -0.9436 -0.0011 -0.2240
  527MOL0     C71047   1.637  11.087   9.703  0.6869 -0.3241 -1.0699
  527MOL0     C71048   1.597  11.089   9.553 -0.8576  0.7863 -1.1681
  527MOL0     C71049   1.665  10.982   9.466  0.7854 -1.0293  0.3342
  527MOL0     C71050   1.638  11.023   9.321  0.2406  0.4229  0.0597
  527MOL0     C71051   1.652  10.890   9.241 -1.4211 -0.7036  0.4052
  527MOL0     C71052   1.625  10.925   9.091  0.3445 -0.0844 -0.0707
  527MOL0     C71053   1.612  10.809   8.995 -0.6046  0.3243 -0.2135
  527MOL0     C71054   1.541  10.847   8.865 -0.2763 -0.7753  0.1120
  527MOL0    Cl71055   1.655  10.944   8.773 -0.4531 -0.4023  0.2075
  527MOL0     C71056   1.694  11.001   9.978  0.8253  0.1722 -0.6081
  527MOL0     C71057   1.696  10.959  10.114  0.6457 -0.2589 -0.8221
  527MOL0     O71058   1.799  10.848  10.372 -0.8804  0.3914  0.3904
  527MOL0     C71059   1.503  10.835  10.566 -0.1666  0.3551  0.8243
  527MOL0     C71060   1.457  10.831  10.703 -0.8048  0.2986  0.1854
  527MOL0     N71061   1.086  10.947  10.842  0.4541 -1.0087  0.1808
  527MOL0     N71062   0.955  10.938  10.873  0.0573 -0.7423  0.1819
  527MOL0     C71063   0.412  10.736  11.453  0.9086  0.1838  0.5751
  527MOL0     C71064   0.394  10.608  11.491  0.5866  0.5730 -0.8803
  527MOL0     C71065   0.156  10.223  11.636  0.6598 -0.1669 -0.1852
  527MOL0     C71066   0.036  10.147  11.613 -0.9055 -0.0253  0.1255
  527MOL0     C71067  -0.001  10.030  11.684 -0.3547 -0.5894 -0.3264
  527MOL0     C71068   0.091   9.983  11.786  0.9255 -1.2611  0.2590
  527MOL0     O71069   0.057   9.861  11.830  0.0206  0.0318  0.5807
  527MOL0     C71070   0.160   9.797  11.915  0.2057 -0.3017  0.3808
  527MOL0     C71071   0.107   9.652  11.938  0.9708 -0.5372  0.0833
  527MOL0     C71072  -0.027   9.646  12.016 -0.3419  0.6065  0.1515
  527MOL0     C71073  -0.023   9.638  12.159 -0.0141 -0.0469 -0.6717
  527MOL0     C71074   0.040   9.517  12.202 -0.5123 -0.0193 -0.9643
  527MOL0     C71075   0.084   9.414  12.246 -0.6921  0.3670 -0.5181
  527MOL0     C71076   0.210  10.056  11.801  0.3454  0.0008 -0.4004
  527MOL0     C71077   0.240  10.175  11.734 -0.1690 -0.4053  0.9234
  527MOL0     H71078   0.088  10.630  11.642  1.6412 -1.0602  1.2807
  527MOL0     H71079   0.130  10.862  11.565 -0.1167 -0.8439  4.6970
  527MOL0     H71080   0.411  11.034  11.597  1.9399  2.8907  0.1995
  527MOL0     H71081   0.521  10.981  11.460 -0.7065  0.8935 -0.4121
  527MOL0     H71082   0.352  11.229  11.481 -3.4210 -2.3181  0.3226
  527MOL0     H71083   0.522  11.210  11.453 -1.2813  1.2370  1.3326
  527MOL0     H71084   0.484  11.075  11.248 -1.9462 -1.1189  1.5789
  527MOL0     H71085   0.327  11.149  11.243 -0.6985  0.3203  0.3102
  527MOL0     H71086   0.423  11.335  11.145 -1.3945 -0.7002  1.5912
  527MOL0     H71087   0.472  11.373  11.303 -4.8218 -0.9303 -0.3633
  527MOL0     H71088   0.665  11.390  11.188 -0.1649  0.1805  1.2705
  527MOL0     H71089   0.683  11.212  11.241 -1.7814 -1.4108  0.0620
  527MOL0     H71090   0.561  11.162  11.025 -0.3995 -0.5052  3.4345
  527MOL0     H71091   0.619  11.319  10.970 -2.8388 -1.4654  0.3610
  527MOL0     H71092   0.774  11.181  10.886  1.7289 -0.1259 -0.1337
  527MOL0     H71093   0.848  11.265  11.024  0.3410 -1.3773  0.4446
  527MOL0     H71094   0.736  10.987  11.021 -1.7137 -0.2721  2.5830
  527MOL0     H71095   0.825  11.063  11.156 -0.0868  2.8005 -0.9481
  527MOL0     H71096   1.078  11.144  11.105 -1.5419  2.6145 -1.0811
  527MOL0     H71097   1.348  11.015  10.834 -0.9371 -0.6119 -0.4589
  527MOL0     H71098   1.281  11.173  10.858 -2.0161 -0.9976 -1.6185
  527MOL0     H71099   1.301  11.136  11.113  0.6474  1.6151 -0.2075
  527MOL0     H71100   1.451  11.180  11.030 -2.3123  3.9243  2.0047
  527MOL0     H71101   1.361  10.897  11.089  1.1415 -2.6054  0.5492
  527MOL0     H71102   1.456  10.996  11.208 -1.0081  0.1578 -0.6962
  527MOL0     H71103   1.625  10.910  11.107 -0.1339 -1.2144  0.4154
  527MOL0     H71104   1.599  11.031  10.978  0.9905 -0.8083 -0.2910
  527MOL0     H71105   1.759  10.902  10.846 -2.3372  0.3681  2.5751
  527MOL0     H71106   1.941  10.849  10.584 -1.7073 -1.5501  1.1576
  527MOL0     H71107   1.889  11.008  10.539  0.9124  0.4706 -0.1168
  527MOL0     H71108   1.926  10.964  10.708 -1.1885  0.7251 -0.1142
  527MOL0     H71109   1.506  10.679  10.081 -0.7478  1.5134 -0.7682
  527MOL0     H71110   1.488  10.759   9.859  1.0110 -5.1205  1.8337
  527MOL0     H71111   1.570  11.158   9.752  1.4220  0.0595 -0.5957
  527MOL0     H71112   1.739  11.126   9.714 -0.5490  3.1327 -0.4118
  527MOL0     H71113   1.489  11.075   9.548 -0.6852 -0.6502 -1.3143
  527MOL0     H71114   1.607  11.188   9.507  2.1874 -0.4595 -3.5466
  527MOL0     H71115   1.626  10.882   9.486  1.1430 -1.0762  0.8106
  527MOL0     H71116   1.774  10.978   9.465  0.8139 -0.3387  0.3630
  527MOL0     H71117   1.537  11.060   9.301 -0.7537 -2.6631 -1.3878
  527MOL0     H71118   1.709  11.094   9.280  0.4209  1.3429  1.8507
  527MOL0     H71119   1.590  10.811   9.285 -0.6672 -1.0308  0.9013
  527MOL0     H71120   1.759  10.869   9.248 -0.8772  0.1002 -3.2974
  527MOL0     H71121   1.526  10.971   9.077  0.5591 -0.2407 -2.6305
  527MOL0     H71122   1.703  10.994   9.056  1.9911 -1.7197  0.2740
  527MOL0     H71123   1.558  10.728   9.044 -0.5952  0.6318  0.3113
  527MOL0     H71124   1.712  10.766   8.978 -0.6783 -1.8400  3.6744
  527MOL0     H71125   1.446  10.900   8.882 -1.5600 -3.3168  1.3353
  527MOL0     H71126   1.522  10.750   8.820  1.6741 -0.0185 -2.5924
  527MOL0     H71127   1.749  11.091   9.952  2.0566 -0.3404  0.0952
  527MOL0     H71128   1.765  11.012  10.179 -0.6071 -1.7509  1.8708
  527MOL0     H71129   1.447  10.815  10.475  2.2419 -2.5355 -0.2040
  527MOL0     H71130   1.352  10.808  10.723 -1.4426  2.5148 -0.3202
  527MOL0     H71131   0.509  10.771  11.418 -0.2704  3.1476 -0.0661
  527MOL0     H71132   0.470  10.533  11.477 -3.4176 -3.5667 -3.3123
  527MOL0     H71133  -0.022  10.187  11.530 -1.4970  1.4999  1.2125
  527MOL0     H71134  -0.093   9.976  11.663 -1.1384 -0.0811  1.6150
  527MOL0     H71135   0.253   9.794  11.856 -1.0065  1.3558 -1.7593
  527MOL0     H71136   0.164   9.852  12.009  1.8112 -0.0996  0.2324
  527MOL0     H71137   0.187   9.587  11.975  0.6296 -1.3941 -0.6526
  527MOL0     H71138   0.085   9.617  11.837 -3.5834 -0.4000  0.8592
  527MOL0     H71139  -0.096   9.566  11.987 -3.3636  2.9654  0.3174
  527MOL0     H71140  -0.092   9.732  11.999 -1.6879 -0.1663  1.1723
  527MOL0     H71141  -0.125   9.651  12.197 -0.5851  4.2790 -3.0212
  527MOL0     H71142   0.035   9.722  12.197 -1.0535  1.0135 -1.3322
  527MOL0     H71143   0.115   9.319  12.286 -1.3479  1.1985  2.2297
  527MOL0     H71144   0.282  10.021  11.874  1.8913  2.9736 -0.3688
  527MOL0     H71145   0.327  10.221  11.781 -1.6518  0.4813  2.9451
  528MOL0     O71146   6.091   9.474   4.342 -0.4059 -0.2015  0.0276
  528MOL0     C71147   6.154   9.505   4.244 -0.0137 -0.5536  0.3454
  528MOL0     O71148   6.238   9.424   4.175 -0.1717 -0.0012 -0.1500
  528MOL0     C71149   6.258   9.291   4.208 -0.2568  0.0543 -0.6932
  528MOL0     C71150   6.369   9.276   4.300  0.0541 -0.0419  0.8010
  528MOL0     C71151   6.411   9.151   4.335  0.4395 -0.4644 -0.5568
  528MOL0     C71152   6.336   9.035   4.302 -0.2416 -0.4805  0.7920
  528MOL0     O71153   6.372   8.917   4.358 -0.3584  0.2890 -0.9733
  528MOL0     C71154   6.275   8.814   4.345 -0.2871 -0.9689  0.2943
  528MOL0     C71155   6.326   8.695   4.419  0.1105 -0.1842 -0.6223
  528MOL0     C71156   6.210   8.607   4.474  0.4571  0.0265  0.6815
  528MOL0     C71157   6.267   8.489   4.563 -0.3534  0.3454 -0.9043
  528MOL0     C71158   6.153   8.398   4.605 -0.7392  0.6376 -0.6637
  528MOL0     C71159   6.169   8.298   4.720 -0.8315 -0.2665 -0.0375
  528MOL0     C71160   6.274   8.194   4.687 -0.0827 -0.9741  1.3022
  528MOL0     C71161   6.269   8.087   4.794 -0.2039 -0.4095  0.0521
  528MOL0     N71162   6.397   8.016   4.781 -0.7889 -0.6583  0.1875
  528MOL0     C71163   6.424   7.896   4.723  0.4209  0.3790  0.1659
  528MOL0     C71164   6.550   7.873   4.740 -0.5461 -0.3693  0.4920
  528MOL0     C71165   6.626   7.753   4.671 -0.4508  0.3992 -0.4153
  528MOL0     C71166   6.758   7.798   4.598  0.2989 -0.4716  0.4886
  528MOL0     C71167   6.727   7.912   4.504  0.1909  0.2240  0.3877
  528MOL0     C71168   6.843   7.968   4.417 -0.1913 -0.2522  1.2319
  528MOL0     O71169   6.795   8.071   4.332 -0.2532 -0.0787  0.7258
  528MOL0     C71170   6.899   8.136   4.261  0.3811 -0.2775  0.0128
  528MOL0     C71171   6.985   8.067   4.173 -0.3225 -0.1497  0.0157
  528MOL0     C71172   7.079   8.123   4.097 -0.0449 -0.2824  0.5115
  528MOL0     C71173   7.169   8.033   4.013 -0.1694  0.1738 -0.4105
  528MOL0     C71174   7.080   8.267   4.086  0.5409  0.3321  0.5392
  528MOL0     C71175   7.159   8.353   3.993  0.8761  0.3234 -0.0923
  528MOL0     O71176   7.133   8.485   3.991  0.6442 -0.3146 -0.1459
  528MOL0     C71177   7.215   8.569   3.916 -0.1590  0.4508 -0.6634
  528MOL0     C71178   7.166   8.650   3.824  0.8056 -0.3755  1.0373
  528MOL0     C71179   7.255   8.738   3.750  0.1620  0.1719  0.1797
  528MOL0     C71180   7.394   8.730   3.758  0.2229 -0.1088  1.0748
  528MOL0     O71181   7.460   8.810   3.666  0.6449  0.0107 -0.7145
  528MOL0     C71182   7.592   8.781   3.657 -0.2308  0.5380 -0.3024
  528MOL0     C71183   7.658   8.832   3.517  0.8547 -0.4129 -0.0934
  528MOL0     C71184   7.596   8.757   3.395  0.3454  0.4597 -0.2523
  528MOL0     C71185   7.642   8.810   3.259 -0.2306  0.1339 -0.9551
  528MOL0     C71186   7.543   8.774   3.142  0.2044  0.0040 -0.3164
  528MOL0     C71187   7.544   8.622   3.116 -0.1812 -0.1681 -0.4828
  528MOL0     C71188   7.454   8.583   2.998  0.4480 -0.2881 -0.0108
  528MOL0     C71189   7.452   8.436   2.980  0.4485 -0.5741 -0.4367
  528MOL0    Cl71190   7.616   8.371   2.933 -0.0481  0.5227  0.2365
  528MOL0     C71191   7.445   8.642   3.852 -0.7189  0.7225  0.1119
  528MOL0     C71192   7.361   8.566   3.930 -0.5592  0.0086  0.7272
  528MOL0     O71193   7.244   8.287   3.929 -0.5485  0.0629 -0.4149
  528MOL0     C71194   6.996   8.345   4.179 -0.7180  0.1933  0.3877
  528MOL0     C71195   6.913   8.275   4.268  0.3091  0.8647 -1.3405
  528MOL0     N71196   6.600   7.973   4.822 -0.6248  0.0064 -0.2853
  528MOL0     N71197   6.508   8.063   4.851  0.0329  0.2443  0.1748
  528MOL0     C71198   6.232   9.057   4.209  0.8986  0.0756 -0.3950
  528MOL0     C71199   6.194   9.184   4.162 -0.1290  0.3085 -0.3183
  528MOL0     C71200   6.141   9.644   4.191 -0.1992  0.2120  0.8325
  528MOL0     C71201   6.197   9.685   4.074 -0.5906 -0.4376  0.0060
  528MOL0     C71202   6.205   9.820   4.031  1.1491 -0.8411 -0.3764
  528MOL0     C71203   6.148   9.922   4.109  0.0719 -0.3621  0.6944
  528MOL0     O71204   6.142  10.056   4.057  0.1778  0.3231 -0.8177
  528MOL0     C71205   6.075  10.167   4.133  0.1683 -0.1363 -0.1317
  528MOL0     C71206   5.976  10.237   4.045  0.3262  0.3484  0.6338
  528MOL0     C71207   5.884  10.331   4.127 -1.0934 -0.0495 -0.0267
  528MOL0     C71208   5.787  10.413   4.042 -0.8700  1.0173  0.0287
  528MOL0     C71209   5.858  10.516   3.975 -0.3308  0.2317 -0.8557
  528MOL0     C71210   5.898  10.619   3.925 -1.1507  0.0565 -0.0502
  528MOL0     C71211   6.093   9.887   4.230  0.8402 -0.2184  0.2547
  528MOL0     C71212   6.093   9.754   4.275  0.4154  0.4736 -0.0989
  528MOL0     H71213   6.432   9.362   4.320  0.2706  0.6412 -2.2990
  528MOL0     H71214   6.491   9.133   4.407 -1.2799 -0.7019  1.3813
  528MOL0     H71215   6.176   8.841   4.384 -0.6185 -0.3001 -0.9505
  528MOL0     H71216   6.277   8.798   4.236  3.1681 -0.5314  0.1694
  528MOL0     H71217   6.392   8.641   4.350  0.5962 -1.5893  0.8936
  528MOL0     H71218   6.388   8.729   4.502  3.3515 -2.0718 -2.0806
  528MOL0     H71219   6.136   8.667   4.527 -1.0117  1.5625 -2.8568
  528MOL0     H71220   6.171   8.569   4.379  1.4626  2.0663 -0.5921
  528MOL0     H71221   6.338   8.430   4.504 -0.8815  2.0323 -3.3854
  528MOL0     H71222   6.323   8.520   4.651  1.9432 -0.9573 -1.8221
  528MOL0     H71223   6.067   8.460   4.632 -0.6655  0.2284  0.5456
  528MOL0     H71224   6.119   8.346   4.515 -1.5803 -0.4080  0.2267
  528MOL0     H71225   6.188   8.359   4.808  1.6589 -0.8958 -0.0524
  528MOL0     H71226   6.077   8.239   4.728  0.6167 -2.7528 -0.5977
  528MOL0     H71227   6.259   8.154   4.587  1.8334  1.0855  0.1099
  528MOL0     H71228   6.371   8.245   4.694 -1.7042  3.3306 -2.7128
  528MOL0     H71229   6.185   8.017   4.787  0.0538 -0.6958 -0.2065
  528MOL0     H71230   6.260   8.132   4.893 -2.7019 -0.0400 -0.2715
  528MOL0     H71231   6.364   7.825   4.667  1.9521 -0.1826 -0.8522
  528MOL0     H71232   6.656   7.690   4.755 -0.3220  0.9917 -0.0035
  528MOL0     H71233   6.562   7.690   4.609  0.0759 -2.2135  1.5552
  528MOL0     H71234   6.795   7.718   4.534 -1.4245 -0.2105 -0.9106
  528MOL0     H71235   6.836   7.840   4.663  2.2846 -0.3251 -1.8562
  528MOL0     H71236   6.676   7.997   4.550  1.2577  1.3824 -0.5163
  528MOL0     H71237   6.645   7.881   4.439 -1.4728 -0.9039  2.8863
  528MOL0     H71238   6.892   7.884   4.367  2.0078  1.2031  0.7907
  528MOL0     H71239   6.918   8.021   4.477  0.1501  0.6374  0.0536
  528MOL0     H71240   6.979   7.960   4.156 -0.1653  0.2693 -3.4285
  528MOL0     H71241   7.161   7.928   4.042  0.8178  0.8314  2.6073
  528MOL0     H71242   7.152   8.041   3.906  0.3263 -0.3563 -0.5350
  528MOL0     H71243   7.273   8.059   4.035 -0.4150  0.6633  0.2243
  528MOL0     H71244   7.059   8.650   3.808  0.7452 -0.6977  1.4306
  528MOL0     H71245   7.220   8.811   3.677  2.5754  4.5374  2.9605
  528MOL0     H71246   7.650   8.833   3.734 -3.7324 -3.0585  5.5710
  528MOL0     H71247   7.603   8.672   3.653  0.5494  0.6433 -1.3822
  528MOL0     H71248   7.633   8.937   3.504 -1.7071 -0.9608 -0.2371
  528MOL0     H71249   7.767   8.825   3.521  0.9861  1.4981  0.8339
  528MOL0     H71250   7.491   8.789   3.393  0.3390  0.4052 -0.9569
  528MOL0     H71251   7.612   8.650   3.406  0.9913  0.6485  0.8407
  528MOL0     H71252   7.644   8.919   3.269 -1.3713 -0.0389  2.1246
  528MOL0     H71253   7.745   8.772   3.253  0.8116  2.7426 -1.3274
  528MOL0     H71254   7.570   8.823   3.048  1.5322 -1.7183 -0.8849
  528MOL0     H71255   7.448   8.815   3.177  0.3131  2.9218 -2.9630
  528MOL0     H71256   7.650   8.597   3.115  0.1009  0.9696 -1.5432
  528MOL0     H71257   7.498   8.570   3.200 -2.5957  0.4720 -1.2962
  528MOL0     H71258   7.498   8.625   2.907 -3.4734  1.7096 -1.1874
  528MOL0     H71259   7.350   8.614   3.012  0.7227  0.4303  0.5589
  528MOL0     H71260   7.378   8.418   2.901 -0.0699  1.6550 -0.5516
  528MOL0     H71261   7.425   8.389   3.075  1.9511  2.2633  1.5387
  528MOL0     H71262   7.553   8.637   3.868 -0.5155 -2.0873 -1.4300
  528MOL0     H71263   7.420   8.502   3.995 -0.2091 -0.9272 -0.4824
  528MOL0     H71264   7.005   8.453   4.191  4.0424 -0.0410  1.0146
  528MOL0     H71265   6.853   8.327   4.342 -3.2886 -3.6354 -0.5969
  528MOL0     H71266   6.172   8.977   4.167 -3.8986  2.0522  1.9674
  528MOL0     H71267   6.132   9.204   4.075  0.3036 -1.6193 -1.1298
  528MOL0     H71268   6.231   9.609   4.004 -0.6262 -0.3699 -0.0846
  528MOL0     H71269   6.245   9.851   3.935 -1.1600  3.8065 -0.1438
  528MOL0     H71270   6.020  10.137   4.224 -0.3087 -0.4278 -0.5089
  528MOL0     H71271   6.160  10.235   4.143 -0.4576  1.1044 -2.6769
  528MOL0     H71272   5.905  10.163   4.005 -0.2857 -0.0829  2.4252
  528MOL0     H71273   6.021  10.291   3.961 -0.2401  1.8817  1.2815
  528MOL0     H71274   5.935  10.389   4.204 -1.8859 -1.3012  1.5144
  528MOL0     H71275   5.840  10.270   4.207  1.7680 -0.7754  1.1277
  528MOL0     H71276   5.727  10.466   4.117  0.8828  2.7288  0.2914
  528MOL0     H71277   5.717  10.345   3.993  0.3382 -1.0520  1.0277
  528MOL0     H71278   5.938  10.701   3.868  0.8502 -1.7972 -1.4660
  528MOL0     H71279   6.054   9.964   4.295 -0.3159  2.2288 -3.1271
  528MOL0     H71280   6.067   9.741   4.380  0.6716 -0.1337 -0.1100
  529MOL0     O71281  11.397  10.526   2.580 -0.2073 -0.4380  0.3053
  529MOL0     C71282  11.419  10.426   2.647 -0.3166  1.3398 -0.5717
  529MOL0     O71283  11.505  10.406   2.753  0.5667 -0.4298 -1.5324
  529MOL0     C71284  11.570  10.516   2.811  0.1276  0.6893 -0.2239
  529MOL0     C71285  11.507  10.610   2.886  0.5692 -0.3179  0.0877
  529MOL0     C71286  11.584  10.706   2.943 -0.7438  1.4638 -0.8395
  529MOL0     C71287  11.728  10.716   2.913 -0.4113  0.6606  0.3848
  529MOL0     O71288  11.781  10.821   2.989  0.2265 -0.2415  0.6962
  529MOL0     C71289  11.914  10.857   2.963 -0.7942  1.1799  0.0746
  529MOL0     C71290  11.974  10.933   3.078  0.9927  0.6401 -0.3099
  529MOL0     C71291  11.945  10.871   3.211  0.5483  0.3687  0.0211
  529MOL0     C71292  11.955  10.958   3.335  0.0235 -1.0099  0.9882
  529MOL0     C71293  12.077  11.057   3.322 -0.2429  0.0039 -0.8482
  529MOL0     C71294  12.113  11.104   3.467  0.8420  0.0651  0.3125
  529MOL0     C71295  12.243  11.193   3.454 -0.4849 -0.5250 -0.1860
  529MOL0     C71296  12.274  11.284   3.575 -0.2077 -0.1860  0.2765
  529MOL0     N71297  12.177  11.387   3.612  0.0370 -0.3612 -0.0968
  529MOL0     C71298  12.061  11.423   3.542  0.6056  0.3631 -0.2287
  529MOL0     C71299  11.992  11.505   3.621  1.0811  0.3436 -0.8060
  529MOL0     C71300  11.868  11.579   3.604  0.0685 -0.7150  0.8974
  529MOL0     C71301  11.885  11.718   3.538  0.4309  0.6870  0.1800
  529MOL0     C71302  11.982  11.714   3.410 -0.2569 -0.1279 -0.3708
  529MOL0     C71303  11.926  11.657   3.292  0.9587  0.1365  0.2211
  529MOL0     O71304  11.994  11.693   3.179 -0.0941 -0.4217  0.6525
  529MOL0     C71305  11.990  11.599   3.078 -0.0788  0.2654 -0.9586
  529MOL0     C71306  11.906  11.483   3.065  0.2891  0.3863  0.2295
  529MOL0     C71307  11.907  11.402   2.949 -0.2579 -0.1913  0.3179
  529MOL0     C71308  11.802  11.302   2.933  0.0685 -0.6776 -0.3910
  529MOL0     C71309  12.005  11.428   2.852  0.6579 -0.5605  0.5521
  529MOL0     C71310  12.015  11.354   2.734 -0.7812 -0.2183  0.6207
  529MOL0     O71311  12.054  11.222   2.744 -0.2394  0.0460  1.5714
  529MOL0     C71312  12.070  11.155   2.620  0.5270  0.2138 -0.0455
  529MOL0     C71313  11.982  11.054   2.589  0.3397  0.0925  0.8909
  529MOL0     C71314  11.990  10.970   2.475  0.4781 -0.4726  0.0947
  529MOL0     C71315  12.104  10.992   2.402  1.1043  2.1384  0.9426
  529MOL0     O71316  12.120  10.918   2.284  0.1103 -0.4394 -1.1534
  529MOL0     C71317  12.134  10.993   2.158 -0.2670 -0.7479  0.0511
  529MOL0     C71318  12.199  10.909   2.053 -0.2629 -0.1348  0.2663
  529MOL0     C71319  12.348  10.878   2.080 -0.5715  0.9637  0.6321
  529MOL0     C71320  12.398  10.759   1.992  1.0008  1.1219 -0.6708
  529MOL0     C71321  12.441  10.633   2.068  0.9538  1.1557 -0.3011
  529MOL0     C71322  12.539  10.538   1.981 -0.2636 -0.1592 -0.1920
  529MOL0     C71323  12.560  10.394   2.031 -0.0329  0.9117 -0.4490
  529MOL0     C71324  12.643  10.376   2.163  0.8014 -0.7083  0.0821
  529MOL0    Cl71325  12.565  10.459   2.295  0.1910  0.3105  0.3864
  529MOL0     C71326  12.190  11.097   2.431 -0.4589 -0.1335 -0.1203
  529MOL0     C71327  12.179  11.174   2.540  0.6697 -0.4385 -0.1911
  529MOL0     O71328  11.998  11.421   2.630  0.3997 -0.5169 -0.3671
  529MOL0     C71329  12.082  11.540   2.869  0.1703 -0.0834  0.9550
  529MOL0     C71330  12.078  11.618   2.977 -0.0602 -0.4773  1.2256
  529MOL0     N71331  12.059  11.511   3.741  0.1079 -1.1148 -0.2691
  529MOL0     N71332  12.173  11.455   3.727 -0.3084 -0.7601 -0.6384
  529MOL0     C71333  11.787  10.619   2.839  0.3226  0.1251 -0.1737
  529MOL0     C71334  11.706  10.509   2.789 -0.5157  0.7898 -0.0630
  529MOL0     C71335  11.340  10.307   2.605  0.0814  0.0916 -1.1077
  529MOL0     C71336  11.215  10.324   2.538 -0.7966  1.2093  0.8066
  529MOL0     C71337  11.133  10.220   2.510  0.0759 -0.3699 -0.2172
  529MOL0     C71338  11.181  10.089   2.537  0.0150 -0.7635 -0.0410
  529MOL0     O71339  11.118   9.966   2.518 -0.9342 -0.1394  0.0358
  529MOL0     C71340  11.020   9.949   2.415 -0.1898  0.1959  0.4489
  529MOL0     C71341  10.879   9.947   2.475  0.1506  0.3247  0.5119
  529MOL0     C71342  10.832   9.813   2.533 -0.3356  0.3967 -0.2142
  529MOL0     C71343  10.923   9.769   2.646  0.3374  0.4090 -0.1158
  529MOL0     C71344  10.873   9.635   2.695  0.5534  0.9955  0.2978
  529MOL0     C71345  10.855   9.520   2.726  1.4984 -0.1263  0.6129
  529MOL0     C71346  11.307  10.071   2.594 -0.3169  0.1294 -0.3047
  529MOL0     C71347  11.375  10.178   2.642  0.1894 -0.2461  0.1574
  529MOL0     H71348  11.404  10.612   2.920  0.0983  0.2107 -1.3048
  529MOL0     H71349  11.536  10.783   3.003 -0.6285  1.0210 -0.1639
  529MOL0     H71350  11.970  10.763   2.964 -1.4564  0.6894 -2.5564
  529MOL0     H71351  11.941  10.907   2.870  0.9722 -1.9164 -1.2404
  529MOL0     H71352  12.081  10.951   3.060  1.1800 -0.1005  0.0394
  529MOL0     H71353  11.914  11.023   3.059  0.4297  0.2001 -0.6336
  529MOL0     H71354  11.851  10.815   3.213  0.9355 -0.3037 -0.1930
  529MOL0     H71355  12.011  10.785   3.229 -1.2314 -1.0582  0.1082
  529MOL0     H71356  11.866  11.020   3.351  2.6630  3.4417  0.1194
  529MOL0     H71357  11.963  10.884   3.415 -0.1792 -1.1549  0.8761
  529MOL0     H71358  12.169  11.014   3.279  2.5241  1.3889  3.0848
  529MOL0     H71359  12.050  11.136   3.252  0.4347 -0.3031 -1.4712
  529MOL0     H71360  12.036  11.169   3.510  0.6570  1.3827 -1.8305
  529MOL0     H71361  12.130  11.024   3.539  1.5525 -1.6988 -1.6995
  529MOL0     H71362  12.327  11.126   3.437  0.0642  0.3666 -1.0657
  529MOL0     H71363  12.224  11.253   3.365 -0.6298 -0.2466  0.0329
  529MOL0     H71364  12.368  11.335   3.552 -0.3367 -0.0852 -0.0356
  529MOL0     H71365  12.296  11.234   3.669 -0.9138  0.9768  1.0919
  529MOL0     H71366  12.033  11.387   3.443  0.0374  0.7051 -0.1906
  529MOL0     H71367  11.798  11.527   3.538  2.2727  0.9100 -3.0654
  529MOL0     H71368  11.821  11.578   3.703 -0.5370  0.2409  0.6345
  529MOL0     H71369  11.934  11.792   3.603  1.8778  1.1795 -1.4116
  529MOL0     H71370  11.790  11.764   3.508  0.8545  2.1058  0.9387
  529MOL0     H71371  12.077  11.669   3.440  0.6713 -0.2043 -3.1288
  529MOL0     H71372  11.995  11.819   3.381  1.2792 -0.8482 -2.5865
  529MOL0     H71373  11.825  11.695   3.271  1.6685  0.2839 -3.7136
  529MOL0     H71374  11.926  11.548   3.301  0.6419  0.2479  2.1060
  529MOL0     H71375  11.830  11.444   3.132 -0.6803 -2.1924 -2.1563
  529MOL0     H71376  11.762  11.319   2.833  2.3465  0.6886 -1.1500
  529MOL0     H71377  11.842  11.201   2.943 -1.6638 -1.2340  1.4267
  529MOL0     H71378  11.720  11.314   3.004  0.2263  0.9623 -0.4460
  529MOL0     H71379  11.905  11.043   2.665 -0.9835 -0.3580 -0.4533
  529MOL0     H71380  11.906  10.904   2.451  0.6021 -0.3478 -0.6876
  529MOL0     H71381  12.036  11.033   2.131  0.9560  1.6047 -1.3085
  529MOL0     H71382  12.198  11.081   2.173  0.5501 -0.4601 -4.0241
  529MOL0     H71383  12.147  10.813   2.056 -0.3821 -0.0438  1.8303
  529MOL0     H71384  12.178  10.964   1.960 -0.9919  2.3259  1.7996
  529MOL0     H71385  12.358  10.863   2.188 -0.4057 -0.2998  0.4542
  529MOL0     H71386  12.400  10.965   2.038  0.0999 -1.4637 -4.3346
  529MOL0     H71387  12.320  10.717   1.927  0.9955 -2.1103  1.2216
  529MOL0     H71388  12.485  10.789   1.932  0.5257  0.8078 -1.5403
  529MOL0     H71389  12.358  10.571   2.102  1.1171  0.1707 -1.6309
  529MOL0     H71390  12.490  10.666   2.160 -0.1356 -0.4426  0.9072
  529MOL0     H71391  12.486  10.533   1.885 -1.7021  0.6639  0.5202
  529MOL0     H71392  12.632  10.591   1.957 -1.0575  1.6182  0.4343
  529MOL0     H71393  12.610  10.338   1.951 -1.8717 -1.0133 -0.3198
  529MOL0     H71394  12.459  10.353   2.039  0.5531 -0.6497 -0.5802
  529MOL0     H71395  12.742  10.415   2.137  0.1379 -0.3715 -2.1622
  529MOL0     H71396  12.666  10.270   2.178 -1.6821 -1.2617  0.3865
  529MOL0     H71397  12.283  11.118   2.380  0.8478  1.1573  2.6128
  529MOL0     H71398  12.265  11.234   2.570 -0.0014  2.0530 -2.7710
  529MOL0     H71399  12.168  11.554   2.805 -1.6351 -0.0975 -1.6181
  529MOL0     H71400  12.143  11.705   2.981 -0.2334 -0.4039  3.3301
  529MOL0     H71401  11.890  10.606   2.808 -0.5480 -3.6609 -2.1299
  529MOL0     H71402  11.760  10.434   2.732  0.2788  3.2182 -2.7426
  529MOL0     H71403  11.201  10.429   2.517  0.5067  1.6943  2.2459
  529MOL0     H71404  11.040  10.244   2.459 -0.7072 -2.5750  0.0586
  529MOL0     H71405  11.032  10.026   2.338  0.4835 -0.8032 -0.4827
  529MOL0     H71406  11.029   9.852   2.365 -0.7294 -0.6227  1.8808
  529MOL0     H71407  10.811   9.964   2.391 -1.1290 -5.2253  0.0367
  529MOL0     H71408  10.860  10.027   2.547 -2.0395 -1.0257  1.5266
  529MOL0     H71409  10.840   9.745   2.448  1.3827  1.4982 -1.0046
  529MOL0     H71410  10.731   9.820   2.574  0.4879  0.2525  1.9802
  529MOL0     H71411  10.922   9.838   2.732 -1.6254  0.8861 -0.4597
  529MOL0     H71412  11.025   9.763   2.609  0.8859  1.9342  1.0518
  529MOL0     H71413  10.825   9.419   2.744  0.3652  0.2022  0.6503
  529MOL0     H71414  11.341   9.969   2.608 -0.8964 -0.3817 -2.2913
  529MOL0     H71415  11.468  10.166   2.697  2.1616  0.4541 -2.7605
  530MOL0     O71416   2.366   9.023  10.709 -0.7658  0.2076  0.1909
  530MOL0     C71417   2.461   9.095  10.738  0.8898 -0.0355 -0.5166
  530MOL0     O71418   2.581   9.049  10.765  0.5945 -0.1334 -0.3897
  530MOL0     C71419   2.607   8.912  10.764 -0.8810 -0.3689 -0.8145
  530MOL0     C71420   2.596   8.829  10.653 -0.6434  0.6274 -0.0073
  530MOL0     C71421   2.624   8.691  10.666  0.5060 -0.2086 -0.8836
  530MOL0     C71422   2.697   8.639  10.771 -0.2367 -0.2310 -0.0640
  530MOL0     O71423   2.733   8.507  10.760 -1.0720  1.0876 -0.0034
  530MOL0     C71424   2.792   8.435  10.873  0.7709  0.5438  0.3556
  530MOL0     C71425   2.947   8.423  10.847  0.1580 -0.6237  0.0312
  530MOL0     C71426   3.024   8.540  10.914  0.0581  0.3730  0.2497
  530MOL0     C71427   3.174   8.498  10.908 -1.1108 -0.7188 -0.9260
  530MOL0     C71428   3.262   8.624  10.920 -0.6409  0.7151  0.5093
  530MOL0     C71429   3.235   8.694  11.049  0.2335  0.5732  0.0804
  530MOL0     C71430   3.355   8.789  11.081  1.0516  0.4362 -0.2960
  530MOL0     C71431   3.352   8.904  10.973 -0.0567 -0.3092 -0.3032
  530MOL0     N71432   3.244   8.999  10.964  0.4646 -0.2111 -0.8473
  530MOL0     C71433   3.183   9.068  10.861  0.3596 -0.1091 -0.3814
  530MOL0     C71434   3.068   9.127  10.912  1.1415 -0.1044  0.7635
  530MOL0     C71435   2.960   9.212  10.841 -0.2700  0.2774  0.1915
  530MOL0     C71436   3.015   9.309  10.737 -0.2637  0.6278  0.0165
  530MOL0     C71437   3.081   9.433  10.803 -0.4151  0.1630 -0.1292
  530MOL0     C71438   2.998   9.527  10.886  0.4579  0.1325 -0.7642
  530MOL0     O71439   2.870   9.549  10.827  0.0837  0.3588 -0.5426
  530MOL0     C71440   2.840   9.673  10.783 -0.3111 -0.2338  0.5964
  530MOL0     C71441   2.853   9.794  10.849 -0.3830 -0.1172  1.0655
  530MOL0     C71442   2.798   9.912  10.790  0.2000  0.9922  0.6538
  530MOL0     C71443   2.803  10.024  10.883  0.5303 -0.1901 -0.6353
  530MOL0     C71444   2.747   9.914  10.655 -0.3080  0.4729  0.1446
  530MOL0     C71445   2.706  10.033  10.588 -0.1441 -0.8555 -0.3641
  530MOL0     O71446   2.654  10.131  10.667  0.7592  0.2270 -0.2389
  530MOL0     C71447   2.631  10.264  10.636  0.7980  0.7852 -0.0775
  530MOL0     C71448   2.638  10.355  10.740  0.1262  0.4399 -0.9878
  530MOL0     C71449   2.614  10.497  10.729  0.2876 -1.3772 -0.0537
  530MOL0     C71450   2.569  10.544  10.608 -0.2020  1.0040  0.5392
  530MOL0     O71451   2.512  10.668  10.595  0.6746 -0.0501  0.3786
  530MOL0     C71452   2.493  10.747  10.715  0.2397  0.2237 -0.5343
  530MOL0     C71453   2.411  10.875  10.669  0.2870 -0.3232 -1.2306
  530MOL0     C71454   2.283  10.869  10.592  0.0538  0.5651 -0.2372
  530MOL0     C71455   2.300  10.853  10.435 -0.6311  0.0049 -1.4363
  530MOL0     C71456   2.172  10.840  10.369  0.7979 -0.0558  0.5357
  530MOL0     C71457   2.191  10.854  10.219 -0.6443 -0.2312  0.4582
  530MOL0     C71458   2.081  10.824  10.133  0.7800 -0.0146 -0.0842
  530MOL0     C71459   2.109  10.776   9.996 -0.9414 -0.5173 -0.0890
  530MOL0    Cl71460   2.192  10.891   9.872  0.2866  0.1717 -0.2551
  530MOL0     C71461   2.563  10.453  10.502 -0.3783  0.2150 -0.7311
  530MOL0     C71462   2.590  10.309  10.511 -0.2998  0.5526  0.0778
  530MOL0     O71463   2.704  10.038  10.465  0.3622  0.6729  0.3298
  530MOL0     C71464   2.740   9.790  10.596 -0.3122  0.5203  0.3453
  530MOL0     C71465   2.780   9.680  10.654 -0.2997  0.3969 -0.4693
  530MOL0     N71466   3.063   9.086  11.040  0.2742  0.3128 -0.5721
  530MOL0     N71467   3.166   9.017  11.078  0.2749 -0.8424 -0.2661
  530MOL0     C71468   2.729   8.729  10.868 -0.1925 -0.4966 -0.5654
  530MOL0     C71469   2.679   8.862  10.870 -0.1055  0.8894 -0.7810
  530MOL0     C71470   2.443   9.240  10.728  0.2086 -0.3757 -0.1977
  530MOL0     C71471   2.531   9.323  10.795 -0.0929 -1.1231 -0.0015
  530MOL0     C71472   2.519   9.467  10.795  0.1711  0.5810  1.2556
  530MOL0     C71473   2.404   9.512  10.725 -0.6915  0.3380 -0.0789
  530MOL0     O71474   2.371   9.644  10.714 -0.3955 -0.7282  0.5606
  530MOL0     C71475   2.424   9.738  10.800 -0.1816 -0.5675  0.2600
  530MOL0     C71476   2.398   9.723  10.948 -0.9486  0.8121  0.5079
  530MOL0     C71477   2.246   9.727  10.971  0.1389 -0.3677 -0.0761
  530MOL0     C71478   2.197   9.724  11.121 -0.2763 -0.6339 -0.2402
  530MOL0     C71479   2.306   9.722  11.224 -0.5470 -0.0501  1.3110
  530MOL0     C71480   2.397   9.716  11.300 -0.2032  0.5083 -0.0461
  530MOL0     C71481   2.320   9.422  10.659  0.3432  0.4301  0.3035
  530MOL0     C71482   2.338   9.286  10.660 -0.1119 -0.2241  1.1079
  530MOL0     H71483   2.547   8.863  10.563  1.5607  1.1878 -1.0560
  530MOL0     H71484   2.599   8.615  10.593 -0.5373 -3.4161  2.4817
  530MOL0     H71485   2.771   8.479  10.970  0.4041  1.4256 -0.1149
  530MOL0     H71486   2.767   8.328  10.868  0.5056  0.5675 -5.2168
  530MOL0     H71487   2.980   8.326  10.885  3.3789 -0.4986 -2.0316
  530MOL0     H71488   2.966   8.425  10.739  1.8124  3.1401  0.2289
  530MOL0     H71489   2.996   8.632  10.863  0.4180  1.2474  1.5813
  530MOL0     H71490   2.992   8.559  11.017 -1.7283 -1.7189  0.1504
  530MOL0     H71491   3.197   8.424  10.984 -0.4736  0.3370 -0.0573
  530MOL0     H71492   3.198   8.455  10.811 -0.4954 -3.0079  0.1908
  530MOL0     H71493   3.365   8.588  10.920 -1.2612 -1.2571 -1.2142
  530MOL0     H71494   3.247   8.702  10.845  0.1093  1.2004  0.8561
  530MOL0     H71495   3.137   8.743  11.052  0.9701  2.3429 -2.0618
  530MOL0     H71496   3.241   8.614  11.124  2.2025 -0.4960 -1.1059
  530MOL0     H71497   3.357   8.823  11.185  3.5275 -0.0165 -0.1525
  530MOL0     H71498   3.447   8.731  11.078 -0.7837 -2.6925 -1.6212
  530MOL0     H71499   3.376   8.849  10.881  0.2424  1.3054 -1.2364
  530MOL0     H71500   3.447   8.959  10.971 -1.0210  1.4088 -0.6858
  530MOL0     H71501   3.209   9.076  10.756  0.4339  1.2783 -0.2696
  530MOL0     H71502   2.898   9.128  10.809 -0.2581  0.8897 -1.5273
  530MOL0     H71503   2.907   9.268  10.918 -0.6687 -0.2128  0.2823
  530MOL0     H71504   2.946   9.328  10.654 -0.5562 -0.5629 -0.0420
  530MOL0     H71505   3.098   9.257  10.689  2.3015  1.9448  2.7229
  530MOL0     H71506   3.134   9.488  10.724  0.5884  1.4004  1.3601
  530MOL0     H71507   3.164   9.391  10.860  0.1330  0.7331 -0.4906
  530MOL0     H71508   3.056   9.618  10.901 -1.1699  1.1780 -0.6328
  530MOL0     H71509   2.980   9.494  10.989  1.5255  0.8159 -0.3399
  530MOL0     H71510   2.900   9.794  10.947  2.3041 -0.8124 -0.1198
  530MOL0     H71511   2.844  10.112  10.835 -1.6705  0.0465 -2.2372
  530MOL0     H71512   2.701  10.047  10.917  0.2069 -1.3607 -0.7436
  530MOL0     H71513   2.861  10.008  10.974  0.7473  2.7140 -0.1718
  530MOL0     H71514   2.639  10.311  10.840 -4.6506  2.1580  0.1065
  530MOL0     H71515   2.611  10.551  10.823 -1.5263 -0.7818 -0.4177
  530MOL0     H71516   2.422  10.701  10.785  2.3056 -2.0769  0.1779
  530MOL0     H71517   2.591  10.769  10.758 -0.0832 -3.5735  2.7573
  530MOL0     H71518   2.382  10.938  10.754 -1.2839 -0.0623 -1.9194
  530MOL0     H71519   2.482  10.921  10.599  1.8292 -0.3531  0.2474
  530MOL0     H71520   2.228  10.962  10.608 -1.9747 -0.8885  1.9186
  530MOL0     H71521   2.214  10.792  10.626  0.5079 -0.4880 -1.6359
  530MOL0     H71522   2.350  10.946  10.406 -1.0414  0.8476  0.3746
  530MOL0     H71523   2.367  10.770  10.412  1.9035  1.0351  1.5605
  530MOL0     H71524   2.102  10.916  10.403  2.1816  0.9700  1.1579
  530MOL0     H71525   2.131  10.741  10.394  0.1305 -0.4410 -1.8679
  530MOL0     H71526   2.227  10.956  10.202 -0.3056 -0.4495 -0.1555
  530MOL0     H71527   2.280  10.796  10.195 -1.4473 -0.4728 -2.2712
  530MOL0     H71528   2.002  10.900  10.127  0.7198  0.2248  2.5055
  530MOL0     H71529   2.028  10.745  10.187 -0.1342 -1.9060 -3.4636
  530MOL0     H71530   2.021  10.741   9.941  2.1047 -0.2109 -5.9915
  530MOL0     H71531   2.185  10.699  10.010  1.3915  1.5115 -0.9353
  530MOL0     H71532   2.528  10.485  10.405  0.8664  5.4632  0.2106
  530MOL0     H71533   2.583  10.249  10.421 -3.2011  1.9751 -0.7692
  530MOL0     H71534   2.684   9.774  10.505  0.4341  1.1087 -0.2293
  530MOL0     H71535   2.767   9.582  10.609  0.8616  0.4823 -1.0236
  530MOL0     H71536   2.793   8.704  10.952  1.3569  0.0516 -1.5329
  530MOL0     H71537   2.689   8.932  10.953 -3.5766  1.3537 -0.6054
  530MOL0     H71538   2.624   9.281  10.833  1.4285  2.6319  0.8222
  530MOL0     H71539   2.584   9.539  10.843  0.8653  2.7630 -2.5562
  530MOL0     H71540   2.533   9.730  10.786 -0.2409 -0.6739 -0.1379
  530MOL0     H71541   2.392   9.838  10.769  0.8697  0.9303  3.5625
  530MOL0     H71542   2.457   9.802  10.996  0.8661  2.8832 -4.4653
  530MOL0     H71543   2.435   9.628  10.987 -1.6490  1.0231  1.7570
  530MOL0     H71544   2.200   9.645  10.914 -1.4702  0.2891  0.2198
  530MOL0     H71545   2.205   9.821  10.933 -2.1709 -0.7174  1.3534
  530MOL0     H71546   2.144   9.632  11.148 -0.1860  0.1584  3.2251
  530MOL0     H71547   2.129   9.803  11.153  0.9494  0.0459  0.7929
  530MOL0     H71548   2.470   9.711  11.378 -0.7627 -0.5103  0.4295
  530MOL0     H71549   2.236   9.470  10.610 -1.8430 -2.7912  0.5421
  530MOL0     H71550   2.271   9.216  10.611  1.2563 -0.4093 -0.6013
  531MOL0     O71551   6.779   6.516   6.568  1.1244 -0.7373  0.5910
  531MOL0     C71552   6.772   6.474   6.453 -0.5669  0.0947  0.2145
  531MOL0     O71553   6.777   6.344   6.409 -0.3841  0.6788  0.1769
  531MOL0     C71554   6.814   6.244   6.496 -0.1246  0.5242  0.2330
  531MOL0     C71555   6.744   6.122   6.517 -0.8623 -0.6103 -0.1295
  531MOL0     C71556   6.793   6.027   6.605 -0.0579  0.0921 -0.4748
  531MOL0     C71557   6.914   6.040   6.664  0.3943 -0.6602 -0.5475
  531MOL0     O71558   6.960   5.937   6.744  0.1750  0.5147 -0.2466
  531MOL0     C71559   7.083   5.878   6.688  0.2300  0.6058 -0.5301
  531MOL0     C71560   7.134   5.766   6.773  0.2955  0.9306  0.8546
  531MOL0     C71561   7.270   5.716   6.728  0.1775 -0.2309 -0.1445
  531MOL0     C71562   7.330   5.642   6.847 -0.4654 -0.2345  0.7740
  531MOL0     C71563   7.468   5.572   6.802  0.2655  0.0242  0.7075
  531MOL0     C71564   7.547   5.541   6.924 -0.2403 -0.2990  0.1732
  531MOL0     C71565   7.472   5.454   7.026 -0.4898  0.0244  0.1732
  531MOL0     C71566   7.446   5.317   6.966 -0.0640 -0.2590 -1.0390
  531MOL0     N71567   7.338   5.245   7.040 -1.0844  0.0625  0.1421
  531MOL0     C71568   7.198   5.264   7.046  0.3241 -0.8468 -0.1750
  531MOL0     C71569   7.156   5.166   7.120  0.7978  0.2093  0.3118
  531MOL0     C71570   7.018   5.136   7.179  0.4652  0.7983 -0.6373
  531MOL0     C71571   7.010   5.202   7.315  0.1798  0.7008 -0.4926
  531MOL0     C71572   7.056   5.342   7.340 -0.2449 -0.0572  0.2542
  531MOL0     C71573   7.003   5.436   7.233  0.6181 -0.4416  0.1261
  531MOL0     O71574   6.912   5.517   7.297 -0.6628  0.0221 -0.4114
  531MOL0     C71575   6.870   5.632   7.226  0.3534 -0.1464  0.8514
  531MOL0     C71576   6.822   5.735   7.295 -0.4783  0.4856  0.0381
  531MOL0     C71577   6.771   5.859   7.250  0.1639 -0.8985 -0.0145
  531MOL0     C71578   6.729   5.961   7.344 -1.1845 -0.9516 -0.2600
  531MOL0     C71579   6.758   5.869   7.110  0.0042  0.1475  0.0644
  531MOL0     C71580   6.689   5.988   7.049  0.3593  0.6581 -0.1859
  531MOL0     O71581   6.683   6.112   7.101 -0.1300  0.3660 -0.0308
  531MOL0     C71582   6.612   6.209   7.034 -0.3605 -0.3450  0.8433
  531MOL0     C71583   6.493   6.247   7.097 -0.3645 -0.4126 -0.5309
  531MOL0     C71584   6.411   6.347   7.042 -0.2679  0.0785  0.2179
  531MOL0     C71585   6.441   6.396   6.913  0.4660  0.0087  0.4353
  531MOL0     O71586   6.368   6.503   6.866  0.4201  0.7749  0.1207
  531MOL0     C71587   6.431   6.613   6.806  0.7962 -0.6640  0.2782
  531MOL0     C71588   6.315   6.707   6.748  0.0760  0.0638  0.1982
  531MOL0     C71589   6.258   6.776   6.873  0.1646 -0.0252 -0.0804
  531MOL0     C71590   6.106   6.789   6.853  0.5585 -0.7613 -0.4180
  531MOL0     C71591   6.040   6.836   6.986 -0.6029  0.7208 -0.6508
  531MOL0     C71592   5.916   6.918   6.968  0.2205 -0.5284 -0.5313
  531MOL0     C71593   5.888   7.010   7.090  0.6531  0.6546  0.8948
  531MOL0     C71594   5.970   7.132   7.092  0.6791 -0.2003  1.0527
  531MOL0    Cl71595   5.858   7.255   7.035  0.1612 -0.4503  0.1937
  531MOL0     C71596   6.561   6.352   6.842 -0.0079  0.1555 -0.5089
  531MOL0     C71597   6.650   6.257   6.904 -0.7648  0.4337 -0.0363
  531MOL0     O71598   6.618   5.954   6.950  0.0661  0.4981 -0.4267
  531MOL0     C71599   6.798   5.752   7.032 -0.8230 -0.2164  0.0080
  531MOL0     C71600   6.846   5.636   7.088 -0.8832 -0.0873  0.9767
  531MOL0     N71601   7.255   5.092   7.156  0.6133  0.4265  0.5838
  531MOL0     N71602   7.367   5.146   7.128 -0.5275 -0.5597  0.2577
  531MOL0     C71603   6.987   6.153   6.652 -0.0993 -0.0903 -0.5341
  531MOL0     C71604   6.932   6.260   6.568 -0.3697 -0.0275 -0.8990
  531MOL0     C71605   6.758   6.578   6.354  0.2681 -0.0235  0.3054
  531MOL0     C71606   6.706   6.711   6.384  0.1182  0.8215 -0.0091
  531MOL0     C71607   6.707   6.814   6.281 -0.7301  1.0403  0.0691
  531MOL0     C71608   6.731   6.772   6.143  0.6430 -0.4539  0.3934
  531MOL0     O71609   6.689   6.861   6.044 -0.1271 -0.8469 -0.2822
  531MOL0     C71610   6.689   6.825   5.904  0.1235 -0.4283  0.1446
  531MOL0     C71611   6.555   6.767   5.875  0.4024  0.4001  1.1673
  531MOL0     C71612   6.432   6.859   5.901 -0.6429 -0.0538  0.0138
  531MOL0     C71613   6.301   6.790   5.931  0.0932 -0.1173  0.1341
  531MOL0     C71614   6.241   6.755   5.803  0.5437 -0.1118 -0.6258
  531MOL0     C71615   6.205   6.711   5.699  0.7858 -0.5567 -0.1021
  531MOL0     C71616   6.772   6.642   6.123 -0.1100 -0.4195  0.1766
  531MOL0     C71617   6.789   6.549   6.219  0.3242  0.3843  0.1323
  531MOL0     H71618   6.657   6.115   6.452 -0.6258 -1.0213 -0.3980
  531MOL0     H71619   6.737   5.937   6.624 -0.2022  0.1594 -0.5818
  531MOL0     H71620   7.072   5.846   6.584 -0.1611  1.3916 -0.7410
  531MOL0     H71621   7.158   5.957   6.676 -1.0985  1.7916 -1.5090
  531MOL0     H71622   7.126   5.790   6.879  0.6262 -2.0128  1.6531
  531MOL0     H71623   7.060   5.685   6.762 -2.9603  2.8906  5.3326
  531MOL0     H71624   7.265   5.662   6.633 -0.1671 -0.5361  0.0444
  531MOL0     H71625   7.328   5.806   6.708 -2.7749  1.4957 -1.5842
  531MOL0     H71626   7.348   5.706   6.934 -2.7683  2.4683 -0.5856
  531MOL0     H71627   7.252   5.570   6.876 -0.0581  0.5402  4.2177
  531MOL0     H71628   7.452   5.485   6.738  2.1874 -0.4126  0.7655
  531MOL0     H71629   7.529   5.647   6.750  0.4363 -0.5374  0.0892
  531MOL0     H71630   7.639   5.491   6.893 -0.5182 -0.8211  0.1760
  531MOL0     H71631   7.561   5.635   6.979  2.6556 -0.9787  0.7545
  531MOL0     H71632   7.535   5.444   7.114 -0.7876  4.5417  1.1028
  531MOL0     H71633   7.376   5.500   7.054 -0.9442 -1.3855  1.0522
  531MOL0     H71634   7.530   5.249   6.981 -0.3718 -0.7145 -1.3968
  531MOL0     H71635   7.437   5.324   6.858  2.1219  0.4107 -1.2235
  531MOL0     H71636   7.146   5.351   7.008  2.1852  2.0731  3.2825
  531MOL0     H71637   6.932   5.166   7.117  0.8480  0.4951 -1.3273
  531MOL0     H71638   7.005   5.028   7.192  1.8108  0.8170  1.1420
  531MOL0     H71639   7.078   5.146   7.380 -1.5388 -0.2962  0.5265
  531MOL0     H71640   6.909   5.193   7.357  0.6026  1.8451  0.8418
  531MOL0     H71641   7.165   5.338   7.323 -0.3640 -0.4697 -0.4644
  531MOL0     H71642   7.042   5.373   7.444  0.1016  0.8435  0.0476
  531MOL0     H71643   6.958   5.381   7.150  1.5161 -1.5366  0.3418
  531MOL0     H71644   7.089   5.492   7.192  0.3464  0.2721  0.5112
  531MOL0     H71645   6.854   5.732   7.399  0.4714  3.0312 -0.1030
  531MOL0     H71646   6.774   6.060   7.330 -3.9834  0.2186 -1.9198
  531MOL0     H71647   6.624   5.984   7.325 -0.6442  1.0971 -1.0443
  531MOL0     H71648   6.739   5.931   7.449  1.6019 -2.2289 -0.7972
  531MOL0     H71649   6.470   6.210   7.196 -1.5074  0.6039 -0.3932
  531MOL0     H71650   6.329   6.403   7.085  0.9636  3.6734 -1.6839
  531MOL0     H71651   6.491   6.651   6.889  0.1372 -0.7856  0.8202
  531MOL0     H71652   6.500   6.576   6.729 -1.0460 -3.5245 -0.1503
  531MOL0     H71653   6.353   6.779   6.675 -1.1356 -1.6968 -2.3384
  531MOL0     H71654   6.239   6.642   6.704 -0.1183  1.2279 -1.2697
  531MOL0     H71655   6.299   6.877   6.879 -2.8470  1.4800 -2.3365
  531MOL0     H71656   6.278   6.717   6.963 -3.2234  0.0595  0.8439
  531MOL0     H71657   6.091   6.860   6.772  2.3403  2.7663  2.0752
  531MOL0     H71658   6.053   6.698   6.824  2.5677 -2.4493  0.8628
  531MOL0     H71659   6.120   6.898   7.029 -2.7569  1.9870  1.8215
  531MOL0     H71660   6.019   6.749   7.049  3.3022  0.9171  1.2730
  531MOL0     H71661   5.917   6.968   6.870  0.9691  0.5384  0.0028
  531MOL0     H71662   5.829   6.852   6.971 -0.2185  0.0394 -0.6114
  531MOL0     H71663   5.895   6.953   7.183  1.2033 -0.5535  0.1307
  531MOL0     H71664   5.781   7.030   7.075  0.7275 -1.2969 -4.7222
  531MOL0     H71665   6.066   7.118   7.041  0.1096 -1.4358  0.2571
  531MOL0     H71666   5.980   7.165   7.195 -2.6741  3.2826  0.5035
  531MOL0     H71667   6.601   6.392   6.749 -1.0440 -1.8459 -1.8900
  531MOL0     H71668   6.745   6.229   6.860 -1.2389 -1.3158 -0.0387
  531MOL0     H71669   6.788   5.749   6.924 -2.3326  1.1031  0.0866
  531MOL0     H71670   6.852   5.544   7.031 -0.7329 -0.3239  1.3660
  531MOL0     H71671   7.084   6.172   6.697  0.3545 -0.1779 -1.4372
  531MOL0     H71672   6.992   6.349   6.555  0.6627 -0.7219 -0.9693
  531MOL0     H71673   6.681   6.725   6.489  0.3071 -1.6006  0.4194
  531MOL0     H71674   6.666   6.910   6.310 -1.2926  0.8265 -0.0038
  531MOL0     H71675   6.678   6.913   5.840  1.1267 -2.0271 -2.3960
  531MOL0     H71676   6.766   6.758   5.864 -0.3662 -1.7493  1.3231
  531MOL0     H71677   6.537   6.675   5.931  3.7733 -3.0195 -2.6356
  531MOL0     H71678   6.561   6.744   5.768  2.3777  2.1629  0.8318
  531MOL0     H71679   6.412   6.927   5.818 -0.6041 -0.7688 -0.5976
  531MOL0     H71680   6.458   6.929   5.981 -0.5361  1.1386 -1.0275
  531MOL0     H71681   6.234   6.859   5.983 -1.6510  0.7288 -2.9874
  531MOL0     H71682   6.323   6.700   5.989 -1.3543 -0.4460  0.1926
  531MOL0     H71683   6.185   6.681   5.598 -2.3225  1.4597 -0.2266
  531MOL0     H71684   6.791   6.609   6.021 -0.9946  1.5786 -0.6940
  531MOL0     H71685   6.824   6.453   6.182  1.4684  1.3320 -1.3663
  532MOL0     O71686   4.042   3.609   0.839  0.8031 -0.5094  0.0265
  532MOL0     C71687   3.962   3.639   0.748  0.5015  0.4719  0.6634
  532MOL0     O71688   3.947   3.766   0.692  0.3353  0.5417 -0.8953
  532MOL0     C71689   4.022   3.867   0.737  0.1538  0.1067  0.3035
  532MOL0     C71690   4.147   3.863   0.790 -0.3598 -0.1801 -0.9629
  532MOL0     C71691   4.209   3.984   0.831  0.3692 -0.3564 -0.2522
  532MOL0     C71692   4.147   4.109   0.829 -0.1330  0.1429  0.0043
  532MOL0     O71693   4.219   4.218   0.868  0.0875  0.3480 -0.2362
  532MOL0     C71694   4.165   4.343   0.877  0.7645 -0.3595  0.6091
  532MOL0     C71695   4.264   4.420   0.965 -0.2537  0.8425 -0.2478
  532MOL0     C71696   4.253   4.372   1.111  0.4111  0.5096  0.0070
  532MOL0     C71697   4.327   4.243   1.159 -0.4155 -0.8691  0.0640
  532MOL0     C71698   4.336   4.234   1.314 -0.0128  0.9649 -0.1725
  532MOL0     C71699   4.360   4.088   1.357 -0.1329 -0.1799 -0.8771
  532MOL0     C71700   4.379   4.085   1.508  0.2802  0.8009  0.2638
  532MOL0     C71701   4.254   4.123   1.585  0.2058  0.3067 -0.1608
  532MOL0     N71702   4.147   4.019   1.569  1.0599 -0.5583 -0.6658
  532MOL0     C71703   4.033   4.021   1.489 -0.1538  0.0404  0.4926
  532MOL0     C71704   3.987   3.896   1.503 -1.2467 -0.2423  0.2640
  532MOL0     C71705   3.879   3.844   1.421 -0.2605  0.2374  0.1354
  532MOL0     C71706   3.906   3.691   1.402  0.5210 -0.2329  0.2322
  532MOL0     C71707   3.776   3.637   1.323  0.6065 -1.1871  0.4793
  532MOL0     C71708   3.782   3.491   1.289  0.5088 -0.3249 -0.5782
  532MOL0     O71709   3.717   3.452   1.168 -0.2681  0.3017  0.1437
  532MOL0     C71710   3.593   3.396   1.172  0.0076 -1.1033 -0.7173
  532MOL0     C71711   3.490   3.473   1.216 -0.5283  0.8432  0.6241
  532MOL0     C71712   3.360   3.417   1.219  0.8364 -0.4229 -0.3295
  532MOL0     C71713   3.247   3.515   1.244 -0.5142  0.3445 -0.4525
  532MOL0     C71714   3.343   3.281   1.187 -0.0651  0.4400 -0.0871
  532MOL0     C71715   3.212   3.208   1.187  0.6734 -0.5398  0.2321
  532MOL0     O71716   3.099   3.276   1.234  0.4798  0.3689  0.8966
  532MOL0     C71717   2.977   3.216   1.251  0.1438  0.6583  0.2406
  532MOL0     C71718   2.909   3.135   1.157  0.9334  0.0157  0.5926
  532MOL0     C71719   2.791   3.067   1.183 -0.3188  0.0883  0.1865
  532MOL0     C71720   2.724   3.075   1.307 -0.4448  0.5061  0.6134
  532MOL0     O71721   2.609   3.017   1.361  0.7309 -0.6824  0.7671
  532MOL0     C71722   2.512   2.966   1.269  0.0997  0.5748  0.5322
  532MOL0     C71723   2.427   2.883   1.354  0.7994  0.6204  0.1541
  532MOL0     C71724   2.324   2.815   1.266  0.0920  0.0016  0.5768
  532MOL0     C71725   2.246   2.698   1.340 -0.8002  0.6322  0.6986
  532MOL0     C71726   2.133   2.652   1.251 -0.4582 -0.4755  0.1366
  532MOL0     C71727   2.060   2.528   1.303 -0.8250 -0.1950  0.2621
  532MOL0     C71728   1.925   2.505   1.232  0.5314  0.0818 -0.8338
  532MOL0     C71729   1.922   2.442   1.092  0.3530 -0.4044  0.1206
  532MOL0    Cl71730   2.038   2.304   1.056 -0.2229  0.0082  0.0702
  532MOL0     C71731   2.795   3.153   1.401 -0.0832  0.2386 -0.0673
  532MOL0     C71732   2.910   3.222   1.375 -0.3382  0.1074  0.2105
  532MOL0     O71733   3.219   3.092   1.141 -0.1804  0.0969  0.6883
  532MOL0     C71734   3.456   3.204   1.146  0.2747  0.5299  0.8576
  532MOL0     C71735   3.581   3.266   1.138 -0.1307  0.6630  0.2077
  532MOL0     N71736   4.059   3.827   1.596 -0.6216 -0.4091  0.0398
  532MOL0     N71737   4.149   3.909   1.644  0.0180 -0.0640  0.0371
  532MOL0     C71738   4.025   4.114   0.774 -0.7705 -0.1362  0.1701
  532MOL0     C71739   3.958   3.993   0.733 -0.6730 -0.4281  0.2409
  532MOL0     C71740   3.880   3.538   0.685  0.3142  0.4074 -0.0898
  532MOL0     C71741   3.837   3.547   0.554  0.2390  0.6077 -0.6761
  532MOL0     C71742   3.767   3.446   0.481 -0.4178 -0.5582 -0.3124
  532MOL0     C71743   3.716   3.334   0.550 -1.0412  0.0972  0.2308
  532MOL0     O71744   3.628   3.243   0.491 -0.5202 -0.1697 -0.2433
  532MOL0     C71745   3.605   3.121   0.558 -0.7103  0.0774  0.3557
  532MOL0     C71746   3.466   3.118   0.630 -0.9568 -0.2501 -0.0750
  532MOL0     C71747   3.480   3.047   0.764  0.1872  1.1197  0.3858
  532MOL0     C71748   3.334   2.999   0.798 -0.0264  0.1177  0.7202
  532MOL0     C71749   3.237   3.109   0.814 -1.4029  0.2242  0.1144
  532MOL0     C71750   3.141   3.179   0.811  0.9265  0.1268 -0.5793
  532MOL0     C71751   3.750   3.327   0.688  1.2629 -0.2295  0.2211
  532MOL0     C71752   3.839   3.414   0.752  0.5645  0.2439 -0.3467
  532MOL0     H71753   4.213   3.778   0.804  0.6154  0.3225 -2.3210
  532MOL0     H71754   4.310   3.971   0.869  0.8151 -0.2548 -1.3724
  532MOL0     H71755   4.156   4.377   0.774 -3.0344 -1.7397  0.3278
  532MOL0     H71756   4.067   4.349   0.926  1.6178  1.0013  2.2788
  532MOL0     H71757   4.370   4.415   0.941  0.9126 -0.3402  4.1327
  532MOL0     H71758   4.225   4.522   0.960  0.9512  1.5212  2.3890
  532MOL0     H71759   4.288   4.450   1.179  1.8887 -0.3026  0.2413
  532MOL0     H71760   4.146   4.359   1.126  0.5372 -1.5110 -0.4752
  532MOL0     H71761   4.275   4.154   1.122 -1.3671 -0.0286 -0.6661
  532MOL0     H71762   4.432   4.244   1.129  0.2316 -0.0550  2.1864
  532MOL0     H71763   4.409   4.302   1.357 -1.0044  1.3945  0.8757
  532MOL0     H71764   4.241   4.271   1.353 -1.9435  0.3148 -3.7855
  532MOL0     H71765   4.282   4.019   1.324 -1.2052  1.8195 -2.7923
  532MOL0     H71766   4.453   4.052   1.310 -0.4075 -4.0126  1.0791
  532MOL0     H71767   4.403   3.983   1.541  1.1030  0.8620 -0.1149
  532MOL0     H71768   4.463   4.152   1.529  1.7564 -0.5785 -0.9782
  532MOL0     H71769   4.223   4.222   1.550  0.4772  0.5615  0.3116
  532MOL0     H71770   4.280   4.119   1.691 -0.2643 -0.7370 -0.0695
  532MOL0     H71771   3.992   4.107   1.437 -4.7465  0.5737  4.3413
  532MOL0     H71772   3.783   3.867   1.467 -0.2711  1.0941 -0.2875
  532MOL0     H71773   3.875   3.889   1.321 -3.2356 -4.1033 -2.0286
  532MOL0     H71774   3.914   3.637   1.497 -0.7672 -2.6185 -0.9412
  532MOL0     H71775   3.992   3.689   1.335 -0.6729  2.5145 -1.5962
  532MOL0     H71776   3.783   3.699   1.233  0.4135 -0.4749  0.9387
  532MOL0     H71777   3.684   3.653   1.379 -0.7172  0.5377 -2.0021
  532MOL0     H71778   3.750   3.436   1.378 -0.0428  0.8208 -0.0506
  532MOL0     H71779   3.885   3.458   1.271  1.2343  0.1902  2.1563
  532MOL0     H71780   3.518   3.576   1.237  1.6130  1.0786 -2.6625
  532MOL0     H71781   3.157   3.503   1.182 -2.7490  2.8939  1.9892
  532MOL0     H71782   3.219   3.502   1.349  2.9283  0.3514  0.5784
  532MOL0     H71783   3.278   3.618   1.223  0.1581  0.7057  1.9594
  532MOL0     H71784   2.952   3.136   1.057  0.2148  0.5447  0.2874
  532MOL0     H71785   2.744   3.023   1.095 -1.0107  0.0423  0.5767
  532MOL0     H71786   2.454   3.053   1.236  0.4147  0.7892  0.5339
  532MOL0     H71787   2.547   2.923   1.175 -1.8712  0.0753 -0.0176
  532MOL0     H71788   2.483   2.807   1.409  3.3601  3.8187  2.3324
  532MOL0     H71789   2.363   2.951   1.411 -0.2948  1.4412 -1.9351
  532MOL0     H71790   2.375   2.782   1.175  0.4682  1.8569  0.0696
  532MOL0     H71791   2.252   2.893   1.240  1.3420  1.2525  0.7435
  532MOL0     H71792   2.318   2.623   1.375 -0.3668  0.5313 -0.3676
  532MOL0     H71793   2.204   2.743   1.430 -0.0849  2.3455  0.2321
  532MOL0     H71794   2.177   2.631   1.153 -3.2285  1.0768 -1.5831
  532MOL0     H71795   2.063   2.732   1.222  4.0136  3.4860 -1.1394
  532MOL0     H71796   2.124   2.440   1.303 -0.0872  0.3295  1.1918
  532MOL0     H71797   2.040   2.543   1.409 -0.0146  3.8822  0.0028
  532MOL0     H71798   1.864   2.595   1.229 -1.4015 -1.1519 -0.3197
  532MOL0     H71799   1.868   2.445   1.303  1.9654  1.5240  1.6483
  532MOL0     H71800   1.956   2.514   1.016 -0.7675  1.2383  1.1130
  532MOL0     H71801   1.818   2.412   1.082 -0.0889  1.5849 -2.5875
  532MOL0     H71802   2.748   3.149   1.498 -2.8639  0.8046 -1.2958
  532MOL0     H71803   2.968   3.280   1.446  0.7894 -2.8438  1.8815
  532MOL0     H71804   3.439   3.111   1.094 -1.8480  0.7835  1.0348
  532MOL0     H71805   3.670   3.212   1.110 -2.0415 -2.5714 -0.0885
  532MOL0     H71806   3.966   4.204   0.765  1.2864  1.2854  0.1832
  532MOL0     H71807   3.863   4.002   0.680 -0.5214  0.1832  0.0736
  532MOL0     H71808   3.851   3.637   0.496 -0.3976  0.9879 -0.2538
  532MOL0     H71809   3.723   3.466   0.384  0.0500  3.6702  0.1810
  532MOL0     H71810   3.589   3.042   0.484 -0.2967 -0.0355  0.3824
  532MOL0     H71811   3.689   3.083   0.616  3.3303  3.1090 -2.8999
  532MOL0     H71812   3.416   3.060   0.552  2.1884  0.1055 -2.5906
  532MOL0     H71813   3.418   3.216   0.642  0.6145  0.6095 -0.4832
  532MOL0     H71814   3.519   3.114   0.841  1.3813 -0.8463  1.5697
  532MOL0     H71815   3.547   2.960   0.759  1.6573  2.2340  0.1361
  532MOL0     H71816   3.346   2.950   0.895  0.2204  0.3160  0.7921
  532MOL0     H71817   3.296   2.933   0.721  0.5319  1.6225 -0.9158
  532MOL0     H71818   3.074   3.260   0.829  0.6042 -0.2951  0.2004
  532MOL0     H71819   3.719   3.248   0.756  1.5943  0.8131  1.6191
  532MOL0     H71820   3.851   3.395   0.859 -1.7749 -1.9666 -0.3959
  533MOL0     O71821   0.811   2.601  11.177 -0.3604  0.2848 -1.3612
  533MOL0     C71822   0.846   2.686  11.087  0.5986  0.8549  0.1353
  533MOL0     O71823   0.947   2.667  10.995  0.2220 -0.6568  0.2775
  533MOL0     C71824   0.982   2.545  10.949 -0.2098  0.0543 -0.9402
  533MOL0     C71825   0.904   2.429  10.958 -0.3659 -0.5390 -0.1099
  533MOL0     C71826   0.955   2.318  10.905 -0.6763 -0.9920  0.9755
  533MOL0     C71827   1.074   2.308  10.848 -0.9372 -0.4936  0.1588
  533MOL0     O71828   1.112   2.184  10.800  0.3885  0.2120  0.0706
  533MOL0     C71829   1.216   2.157  10.699  0.4105 -0.0138  0.3310
  533MOL0     C71830   1.170   2.216  10.564 -0.4148  0.2955 -0.3071
  533MOL0     C71831   1.037   2.170  10.508 -0.1018 -0.0672 -0.0296
  533MOL0     C71832   1.016   2.191  10.356 -0.3963 -0.1217  0.4009
  533MOL0     C71833   0.865   2.164  10.326 -0.0715 -0.5613  0.9367
  533MOL0     C71834   0.828   2.208  10.186 -0.1000  0.1835  0.2118
  533MOL0     C71835   0.680   2.187  10.158 -0.0446  0.3913  0.6616
  533MOL0     C71836   0.653   2.041  10.134  0.6852  0.6996  0.1100
  533MOL0     N71837   0.524   2.000  10.062  0.8970 -0.2162  0.6007
  533MOL0     C71838   0.409   2.067  10.091  0.7284  0.3229  0.1679
  533MOL0     C71839   0.325   2.022   9.994  0.3342  0.5020  0.3390
  533MOL0     C71840   0.187   2.074   9.978  0.4380 -0.1586 -0.1406
  533MOL0     C71841   0.088   2.043  10.102 -1.0454 -0.2372 -0.3213
  533MOL0     C71842   0.079   2.151  10.207 -0.5419 -0.4793 -0.2057
  533MOL0     C71843  -0.024   2.113  10.314 -0.8949 -0.9854 -0.0186
  533MOL0     O71844   0.035   2.006  10.397 -0.7982 -0.2001 -0.7917
  533MOL0     C71845  -0.029   1.996  10.521 -0.3462  0.6331 -1.2842
  533MOL0     C71846   0.034   2.035  10.637  0.7138 -0.8943 -0.4930
  533MOL0     C71847  -0.019   2.011  10.768  0.6086 -0.2834  0.3781
  533MOL0     C71848   0.060   2.061  10.887  0.0989 -0.2953 -1.4069
  533MOL0     C71849  -0.145   1.942  10.773 -0.4018 -0.4782  0.2313
  533MOL0     C71850  -0.213   1.902  10.899 -0.1143 -0.6935 -0.1580
  533MOL0     O71851  -0.128   1.840  10.984  0.0240 -0.6562  0.5190
  533MOL0     C71852  -0.166   1.770  11.092 -0.5537  0.7608 -0.1274
  533MOL0     C71853  -0.285   1.690  11.107 -0.5850  0.0515  0.5784
  533MOL0     C71854  -0.311   1.605  11.217  0.3231  0.2454 -0.7999
  533MOL0     C71855  -0.217   1.598  11.316 -0.5756 -0.0991 -0.0130
  533MOL0     O71856  -0.241   1.513  11.419  0.0208  0.2359  0.3349
  533MOL0     C71857  -0.281   1.590  11.543 -0.0385  0.9023 -0.3206
  533MOL0     C71858  -0.333   1.482  11.646  0.8507 -1.0071 -0.4247
  533MOL0     C71859  -0.406   1.366  11.582  0.1159  0.0399 -0.6189
  533MOL0     C71860  -0.480   1.263  11.672  0.6603  0.1956 -0.0049
  533MOL0     C71861  -0.376   1.184  11.756 -0.2416  0.7239  0.2513
  533MOL0     C71862  -0.456   1.086  11.844  0.6453  0.2950  0.0874
  533MOL0     C71863  -0.365   0.986  11.917  0.6994  0.1384  0.2070
  533MOL0     C71864  -0.462   0.888  11.997 -0.3714  0.2771 -1.3073
  533MOL0    Cl71865  -0.352   0.780  12.084 -0.4760  0.1041 -0.1280
  533MOL0     C71866  -0.103   1.686  11.304  0.7608  0.1144 -0.2364
  533MOL0     C71867  -0.075   1.765  11.195 -1.0044 -0.3056  0.3581
  533MOL0     O71868  -0.334   1.922  10.918  0.4443  0.2911 -0.3592
  533MOL0     C71869  -0.205   1.910  10.653 -0.7356 -0.4121 -0.9755
  533MOL0     C71870  -0.152   1.940  10.528  0.3625 -0.2426 -0.0842
  533MOL0     N71871   0.396   1.941   9.901  0.1964 -0.6730 -0.6545
  533MOL0     N71872   0.512   1.927   9.942  0.1229  0.2595  0.3911
  533MOL0     C71873   1.158   2.419  10.835  0.0316  0.2541 -0.1469
  533MOL0     C71874   1.105   2.538  10.884 -0.0004 -0.4940  0.1384
  533MOL0     C71875   0.800   2.826  11.107  0.4393  0.0006 -0.5894
  533MOL0     C71876   0.684   2.851  11.188  0.4623  0.1579 -0.8860
  533MOL0     C71877   0.636   2.977  11.216  0.3695  0.0755  0.3644
  533MOL0     C71878   0.710   3.092  11.173  0.2542  0.5345  0.4145
  533MOL0     O71879   0.652   3.211  11.203  0.3716  0.1957  0.0988
  533MOL0     C71880   0.717   3.338  11.176 -0.0058  0.0972  0.6767
  533MOL0     C71881   0.704   3.380  11.025  0.7076  1.2733  0.9929
  533MOL0     C71882   0.784   3.513  10.996  0.4869 -0.3031 -0.3021
  533MOL0     C71883   0.737   3.572  10.851  0.2527 -0.0033 -0.2000
  533MOL0     C71884   0.588   3.628  10.836 -0.4919 -0.0076  0.3089
  533MOL0     C71885   0.476   3.671  10.837  0.7112  0.0928  0.4152
  533MOL0     C71886   0.828   3.072  11.094  0.0625  0.9235 -0.4536
  533MOL0     C71887   0.867   2.938  11.061 -0.4126 -0.0280 -0.1466
  533MOL0     H71888   0.801   2.435  10.993 -1.9409 -1.2221 -4.1261
  533MOL0     H71889   0.890   2.232  10.912  0.3375 -1.6811  2.0919
  533MOL0     H71890   1.307   2.204  10.738 -1.6297  2.8298  1.9860
  533MOL0     H71891   1.226   2.048  10.691  0.9382  0.1439 -1.9831
  533MOL0     H71892   1.180   2.325  10.566  5.8143  0.0609  2.0417
  533MOL0     H71893   1.249   2.175  10.501  1.6048  1.9260  1.0221
  533MOL0     H71894   1.058   2.063  10.521  0.4918 -0.1279 -1.3342
  533MOL0     H71895   0.962   2.200  10.582 -1.1364 -0.3415 -0.9270
  533MOL0     H71896   1.038   2.296  10.337  1.7152 -0.1645  2.2379
  533MOL0     H71897   1.083   2.130  10.295  0.9252  1.6495  0.0204
  533MOL0     H71898   0.830   2.061  10.337 -0.8788 -0.6194 -1.5612
  533MOL0     H71899   0.794   2.225  10.381  0.1005  0.1740  0.3613
  533MOL0     H71900   0.826   2.317  10.182 -1.1737  0.2052  1.0258
  533MOL0     H71901   0.894   2.157  10.115  0.3423 -2.6017  2.4278
  533MOL0     H71902   0.606   2.218  10.232 -0.5219  0.8210  0.0178
  533MOL0     H71903   0.666   2.236  10.061  0.8657  2.2124  1.4011
  533MOL0     H71904   0.650   1.992  10.232  0.9861 -2.9841 -1.5514
  533MOL0     H71905   0.739   2.010  10.075  2.4829  1.3836  2.2672
  533MOL0     H71906   0.388   2.144  10.165 -1.0687 -2.1584  2.4203
  533MOL0     H71907   0.195   2.183   9.970  1.3941  0.0134  2.2504
  533MOL0     H71908   0.136   2.033   9.890 -2.4442 -1.7066  2.0419
  533MOL0     H71909   0.105   1.941  10.140  0.0632 -0.1894 -0.6274
  533MOL0     H71910  -0.010   2.026  10.058 -1.4246  1.8572 -0.3843
  533MOL0     H71911   0.044   2.248  10.170 -1.0161 -0.8892 -0.8413
  533MOL0     H71912   0.175   2.171  10.256 -1.0637  1.0204  0.2937
  533MOL0     H71913  -0.115   2.079  10.265 -1.1263 -1.4662  0.7373
  533MOL0     H71914  -0.047   2.204  10.369 -3.3967 -2.2132  1.1101
  533MOL0     H71915   0.130   2.082  10.620  1.4679 -2.2359 -0.1227
  533MOL0     H71916  -0.011   2.100  10.961 -1.2001  0.7216 -3.1074
  533MOL0     H71917   0.124   1.985  10.931 -2.7102 -0.8564  2.2377
  533MOL0     H71918   0.120   2.149  10.864 -1.0246  0.8495 -0.1346
  533MOL0     H71919  -0.343   1.685  11.016  1.8305  1.9039 -1.2117
  533MOL0     H71920  -0.404   1.550  11.218  0.0748  0.6596 -0.8898
  533MOL0     H71921  -0.198   1.640  11.593 -1.3566  0.9292  1.9987
  533MOL0     H71922  -0.358   1.665  11.519 -0.0676  0.6770 -0.9401
  533MOL0     H71923  -0.242   1.449  11.696  0.7360 -1.5442 -0.5636
  533MOL0     H71924  -0.398   1.516  11.728  0.3850  0.4162 -1.3492
  533MOL0     H71925  -0.326   1.313  11.529  0.1221  0.8324 -1.4286
  533MOL0     H71926  -0.478   1.393  11.503  2.2775  0.4019 -2.5836
  533MOL0     H71927  -0.539   1.325  11.739 -0.4960  0.4714 -1.2535
  533MOL0     H71928  -0.544   1.189  11.624 -1.8521  3.8729 -2.8810
  533MOL0     H71929  -0.325   1.252  11.824 -1.3305  0.3110  1.5169
  533MOL0     H71930  -0.304   1.145  11.683  0.4274  1.3921  0.5375
  533MOL0     H71931  -0.516   1.152  11.907  2.0231  0.0554  1.7522
  533MOL0     H71932  -0.529   1.028  11.787  1.3810  0.5926 -1.1999
  533MOL0     H71933  -0.297   1.034  11.989 -0.3953  2.7501 -0.4154
  533MOL0     H71934  -0.305   0.918  11.855  0.1241 -2.3498  2.1972
  533MOL0     H71935  -0.533   0.828  11.939 -1.6563 -1.1440  1.5410
  533MOL0     H71936  -0.521   0.943  12.071  0.8996 -0.2468  0.1669
  533MOL0     H71937  -0.037   1.694  11.390  0.6525 -1.5312  0.0376
  533MOL0     H71938   0.003   1.839  11.183 -0.3749 -1.0416 -0.1403
  533MOL0     H71939  -0.304   1.866  10.663 -1.2066  0.7837 -0.1744
  533MOL0     H71940  -0.210   1.912  10.441 -0.8040  1.0838  0.2262
  533MOL0     H71941   1.248   2.424  10.773 -0.9478  1.3887 -1.5525
  533MOL0     H71942   1.165   2.625  10.861 -0.0385 -0.9057 -1.6748
  533MOL0     H71943   0.630   2.760  11.214  1.0779  0.2342  0.8350
  533MOL0     H71944   0.540   3.000  11.261 -0.4393  1.2149 -1.8364
  533MOL0     H71945   0.668   3.417  11.234  0.2716  3.0680 -2.7903
  533MOL0     H71946   0.822   3.341  11.208 -0.0067  2.1860  0.6480
  533MOL0     H71947   0.599   3.389  10.997  0.6845 -2.4032 -0.6989
  533MOL0     H71948   0.747   3.300  10.963  4.7536  3.8657  0.1064
  533MOL0     H71949   0.892   3.494  10.998  0.3332 -1.6393  3.6010
  533MOL0     H71950   0.769   3.585  11.077  5.4211  0.5810  0.1250
  533MOL0     H71951   0.752   3.497  10.772  0.5536  1.0881 -1.1991
  533MOL0     H71952   0.796   3.663  10.836  0.3620  0.0929  0.7394
  533MOL0     H71953   0.376   3.709  10.845  0.7112  0.9746 -2.5042
  533MOL0     H71954   0.889   3.154  11.056  0.8451 -0.3289 -2.0391
  533MOL0     H71955   0.946   2.922  10.989  0.5400 -0.5932  0.9904
  534MOL0     O71956   1.037   5.524   7.118  0.2394  0.3270  0.2512
  534MOL0     C71957   1.046   5.411   7.074 -0.3756 -0.1113  0.7893
  534MOL0     O71958   1.066   5.375   6.943  0.4158  0.0031 -0.4049
  534MOL0     C71959   1.096   5.471   6.852  0.5631 -0.3292  0.0768
  534MOL0     C71960   1.003   5.523   6.766 -0.6228 -0.7802  0.1764
  534MOL0     C71961   1.048   5.616   6.675  0.3588  0.1729  0.1781
  534MOL0     C71962   1.162   5.685   6.679 -1.3150 -0.1122 -0.6219
  534MOL0     O71963   1.172   5.801   6.603 -0.2973  0.5474  0.2558
  534MOL0     C71964   1.300   5.864   6.585  0.0886 -0.4976  0.4739
  534MOL0     C71965   1.288   5.992   6.506 -0.4405 -0.2824 -0.2948
  534MOL0     C71966   1.254   5.971   6.355  0.0212  0.4084 -0.5288
  534MOL0     C71967   1.283   6.098   6.265 -1.0735  0.8061 -0.0311
  534MOL0     C71968   1.247   6.087   6.114  0.6975  0.2423  0.1801
  534MOL0     C71969   1.266   6.214   6.033  0.3445 -0.0293  0.0758
  534MOL0     C71970   1.196   6.181   5.899 -0.2087  0.8907  1.2269
  534MOL0     C71971   1.215   6.298   5.803 -0.1875 -0.3231 -0.8759
  534MOL0     N71972   1.151   6.420   5.869  0.5014  0.4409 -0.1900
  534MOL0     C71973   1.012   6.437   5.872 -0.0284 -0.0833 -0.1881
  534MOL0     C71974   0.991   6.559   5.913 -0.5056 -0.6657 -0.6265
  534MOL0     C71975   0.864   6.631   5.898  0.3242 -0.6152 -0.3581
  534MOL0     C71976   0.795   6.647   6.034 -0.7489 -0.1103 -0.2880
  534MOL0     C71977   0.717   6.520   6.069 -0.5474  0.3974 -0.2432
  534MOL0     C71978   0.691   6.515   6.219  0.5433 -0.2419 -0.6540
  534MOL0     O71979   0.645   6.383   6.252 -0.2119 -0.7484 -0.2934
  534MOL0     C71980   0.650   6.351   6.389 -0.6851 -0.4584  0.8093
  534MOL0     C71981   0.712   6.430   6.488 -1.0692  0.6060 -0.2889
  534MOL0     C71982   0.703   6.391   6.626 -0.0998  0.7536  0.6486
  534MOL0     C71983   0.771   6.478   6.729  0.2758  0.0474  0.4833
  534MOL0     C71984   0.630   6.272   6.664 -0.4764  0.1512  0.4890
  534MOL0     C71985   0.625   6.220   6.806  0.5372  0.7655  0.3811
  534MOL0     O71986   0.500   6.195   6.853  0.0400 -0.9209 -0.4408
  534MOL0     C71987   0.474   6.091   6.940 -0.7165 -0.0764  0.1590
  534MOL0     C71988   0.374   6.105   7.033 -0.0850  0.0708 -0.6092
  534MOL0     C71989   0.340   6.013   7.133 -0.2150  0.1108 -0.3591
  534MOL0     C71990   0.409   5.889   7.131  0.6374  0.9215 -0.0312
  534MOL0     O71991   0.381   5.793   7.230 -0.2703 -0.1382 -0.5415
  534MOL0     C71992   0.419   5.657   7.211  0.1915  0.4180  0.3004
  534MOL0     C71993   0.381   5.573   7.336 -0.6661 -0.7192  0.1863
  534MOL0     C71994   0.231   5.587   7.366 -0.3880 -0.4803  0.3019
  534MOL0     C71995   0.199   5.531   7.493  0.0477 -0.2804  0.1572
  534MOL0     C71996   0.227   5.623   7.612  1.1707 -0.7160 -0.0247
  534MOL0     C71997   0.224   5.534   7.740  0.0733  1.2337 -0.1398
  534MOL0     C71998   0.285   5.600   7.864 -0.4982 -0.1264 -0.3322
  534MOL0     C71999   0.224   5.540   7.993 -0.0884 -0.7652 -0.9884
  534MOL0    Cl72000   0.285   5.376   8.049  0.0895  0.1063  0.1011
  534MOL0     C72001   0.511   5.875   7.034  0.4394  0.3046  0.8725
  534MOL0     C72002   0.546   5.972   6.944  0.4797  0.0503 -0.3084
  534MOL0     O72003   0.733   6.195   6.857 -0.0460 -0.0557 -0.3209
  534MOL0     C72004   0.576   6.194   6.562  0.3630 -0.5918 -0.1766
  534MOL0     C72005   0.595   6.231   6.426  0.1361 -0.3441 -0.7698
  534MOL0     N72006   1.115   6.612   5.946 -0.0174 -1.0405 -0.9550
  534MOL0     N72007   1.211   6.530   5.916 -0.0622  0.0240  0.0437
  534MOL0     C72008   1.266   5.630   6.764  0.1708  0.3265  0.0729
  534MOL0     C72009   1.229   5.525   6.858 -0.1711 -0.3900  0.3900
  534MOL0     C72010   1.033   5.294   7.159  0.6081  0.3055  0.8125
  534MOL0     C72011   1.135   5.194   7.168  0.2619 -0.2072 -0.4790
  534MOL0     C72012   1.122   5.091   7.259  0.3988 -0.2579  0.9316
  534MOL0     C72013   0.997   5.059   7.334  0.5320 -0.6831  0.2596
  534MOL0     O72014   0.997   4.964   7.433  0.4269 -0.4545  0.0339
  534MOL0     C72015   0.876   4.887   7.454 -0.6609 -0.7789  0.1921
  534MOL0     C72016   0.869   4.779   7.354  0.4796  1.1315  0.0684
  534MOL0     C72017   0.748   4.680   7.393  0.8218 -0.4502 -1.1126
  534MOL0     C72018   0.805   4.574   7.481  0.6398 -0.3769  0.5491
  534MOL0     C72019   0.860   4.462   7.406  0.2929 -0.5128 -0.0033
  534MOL0     C72020   0.885   4.368   7.333 -1.2931 -0.0807 -0.3868
  534MOL0     C72021   0.893   5.155   7.318 -0.4944  0.3972 -0.4399
  534MOL0     C72022   0.910   5.272   7.235 -0.0495  0.4725  0.0545
  534MOL0     H72023   0.899   5.495   6.758 -0.6115 -1.0920  0.9936
  534MOL0     H72024   0.989   5.641   6.588  1.4419  0.3867 -0.5185
  534MOL0     H72025   1.327   5.878   6.690 -0.7540 -0.0439  0.6370
  534MOL0     H72026   1.362   5.786   6.541  2.6696  0.2775  2.4654
  534MOL0     H72027   1.215   6.057   6.555 -2.6404 -1.3728 -1.9606
  534MOL0     H72028   1.387   6.039   6.505  0.3192 -1.7498 -2.6242
  534MOL0     H72029   1.299   5.885   6.306 -1.4948 -0.0524 -1.1813
  534MOL0     H72030   1.147   5.948   6.358  0.0310  0.3662 -0.5130
  534MOL0     H72031   1.236   6.188   6.305  0.5875  0.0945  4.0282
  534MOL0     H72032   1.392   6.114   6.271 -0.1075 -3.7927 -1.3825
  534MOL0     H72033   1.293   6.000   6.066 -0.1029  0.5003 -1.0741
  534MOL0     H72034   1.140   6.066   6.122  0.3813  2.2817  2.5289
  534MOL0     H72035   1.243   6.303   6.093 -2.5101  0.6913 -1.8813
  534MOL0     H72036   1.372   6.223   6.006  0.5049 -0.8253  0.4315
  534MOL0     H72037   1.257   6.097   5.863  0.1299  0.7465  2.1040
  534MOL0     H72038   1.091   6.155   5.913 -0.0451 -0.8261 -0.3773
  534MOL0     H72039   1.169   6.281   5.706  0.2563  2.0268 -1.5509
  534MOL0     H72040   1.321   6.322   5.791 -0.5824  2.9140  0.9455
  534MOL0     H72041   0.946   6.360   5.834 -0.4554  1.5612 -3.0650
  534MOL0     H72042   0.882   6.737   5.879  3.3593 -0.5934  1.9388
  534MOL0     H72043   0.800   6.586   5.821  1.4693 -1.0296 -1.0838
  534MOL0     H72044   0.714   6.720   6.036 -1.2635 -0.5905 -1.8756
  534MOL0     H72045   0.875   6.666   6.106 -0.2045 -0.9865 -0.6417
  534MOL0     H72046   0.775   6.433   6.036  1.7544  1.7484  0.0592
  534MOL0     H72047   0.619   6.520   6.020  0.0306  1.5450 -1.4514
  534MOL0     H72048   0.622   6.594   6.247 -2.2325 -2.0069 -2.0563
  534MOL0     H72049   0.788   6.533   6.267  0.3790  0.8303 -0.7118
  534MOL0     H72050   0.780   6.513   6.472  0.8798 -0.2249  2.8835
  534MOL0     H72051   0.852   6.527   6.673 -1.5329  3.9517  1.0018
  534MOL0     H72052   0.705   6.563   6.745  0.7738  1.1732 -2.5867
  534MOL0     H72053   0.819   6.432   6.816  0.1226  2.4752  1.9289
  534MOL0     H72054   0.296   6.179   7.014 -0.1296  0.1147 -0.2616
  534MOL0     H72055   0.259   6.033   7.203 -0.1958  1.5738 -0.7211
  534MOL0     H72056   0.381   5.617   7.117  1.7487 -2.6735  0.8810
  534MOL0     H72057   0.527   5.656   7.200  0.0518  1.2500 -1.6164
  534MOL0     H72058   0.407   5.469   7.317  4.4316  0.7672 -2.9663
  534MOL0     H72059   0.438   5.612   7.421 -1.1563  1.4628 -0.4105
  534MOL0     H72060   0.185   5.517   7.296  3.5571 -3.4170  0.3018
  534MOL0     H72061   0.202   5.692   7.372  0.6812  0.0746 -2.5320
  534MOL0     H72062   0.090   5.522   7.485 -0.0585 -0.2231  1.3794
  534MOL0     H72063   0.238   5.429   7.494 -0.9000 -0.6898 -1.0325
  534MOL0     H72064   0.152   5.702   7.624  1.5074 -0.1105 -1.6431
  534MOL0     H72065   0.322   5.677   7.615 -0.2306  1.8915  2.0538
  534MOL0     H72066   0.116   5.526   7.752  0.2505  0.3748  1.0255
  534MOL0     H72067   0.272   5.438   7.722 -0.9277  1.0086 -1.7643
  534MOL0     H72068   0.274   5.708   7.864  3.6178  0.5754  2.6752
  534MOL0     H72069   0.393   5.580   7.874 -0.1944  1.4283 -0.3110
  534MOL0     H72070   0.116   5.554   8.005  0.4890  3.0071  1.5875
  534MOL0     H72071   0.258   5.607   8.072 -0.4291  0.4036 -1.8094
  534MOL0     H72072   0.561   5.779   7.040  0.1571  0.2164  2.1579
  534MOL0     H72073   0.635   5.968   6.880  1.4812 -3.4192  1.0649
  534MOL0     H72074   0.524   6.099   6.570  3.2237 -2.7911 -4.3952
  534MOL0     H72075   0.553   6.164   6.351 -1.2390 -1.0212  0.5523
  534MOL0     H72076   1.367   5.667   6.768  0.9352 -1.2484 -2.3458
  534MOL0     H72077   1.299   5.498   6.936  2.8964  1.2870 -1.5987
  534MOL0     H72078   1.217   5.199   7.098  2.3330 -0.5771  1.8061
  534MOL0     H72079   1.210   5.030   7.278 -0.5991 -2.0842  0.0254
  534MOL0     H72080   0.860   4.848   7.556  1.5278 -1.1113  0.4484
  534MOL0     H72081   0.788   4.949   7.436 -2.0981 -0.9666  4.9895
  534MOL0     H72082   0.968   4.734   7.342  0.1077  0.7982 -2.0684
  534MOL0     H72083   0.839   4.825   7.259 -2.7380  0.3016  0.5849
  534MOL0     H72084   0.704   4.631   7.305  0.7292 -0.6510 -0.9546
  534MOL0     H72085   0.676   4.743   7.445  2.5337 -3.2310  5.7166
  534MOL0     H72086   0.712   4.543   7.529  0.0470 -2.0298 -1.4959
  534MOL0     H72087   0.869   4.608   7.563 -0.5768 -1.3467  1.9526
  534MOL0     H72088   0.897   4.284   7.267 -1.8786  0.1145 -0.7458
  534MOL0     H72089   0.798   5.145   7.371 -0.5695  1.1260 -0.4199
  534MOL0     H72090   0.830   5.344   7.219 -1.4271 -0.0293  3.6148
  535MOL0     O72091  10.235  10.939   5.257 -0.3127  0.2884 -0.9464
  535MOL0     C72092  10.247  11.021   5.353 -0.2039 -0.0770  1.0034
  535MOL0     O72093  10.224  10.993   5.487 -0.0992  0.3084 -0.6904
  535MOL0     C72094  10.157  10.878   5.527  0.0529 -0.1323  0.0578
  535MOL0     C72095  10.189  10.830   5.656 -0.5916 -0.0414  0.3965
  535MOL0     C72096  10.141  10.704   5.693 -0.2781  0.1426 -0.7199
  535MOL0     C72097  10.056  10.626   5.612 -0.0319  0.2261  0.6855
  535MOL0     O72098   9.998  10.507   5.658 -0.0244 -0.3192 -0.4200
  535MOL0     C72099   9.994  10.470   5.797  0.0795  0.0347 -0.3317
  535MOL0     C72100   9.891  10.370   5.823 -0.9242  0.1612  0.7372
  535MOL0     C72101   9.909  10.334   5.967  0.5239  0.6890 -0.6351
  535MOL0     C72102   9.805  10.238   6.011  0.0986  0.2467  0.9505
  535MOL0     C72103   9.817  10.212   6.160 -1.0083  0.0746  0.2466
  535MOL0     C72104   9.714  10.115   6.217 -0.6775  0.5843 -0.3481
  535MOL0     C72105   9.699   9.971   6.167  0.1273  0.5641  0.5117
  535MOL0     C72106   9.827   9.894   6.174  0.1372 -0.5908 -0.7077
  535MOL0     N72107   9.893   9.890   6.043  0.4025 -0.7070 -0.1408
  535MOL0     C72108  10.025   9.925   6.001 -0.3473  0.1015  0.4192
  535MOL0     C72109  10.042   9.882   5.880  0.5191 -0.6827 -0.1208
  535MOL0     C72110  10.159   9.907   5.782  0.1859  0.0556  0.4427
  535MOL0     C72111  10.128  10.030   5.692  0.3384 -0.1493 -0.1532
  535MOL0     C72112  10.245  10.065   5.597  0.1742 -0.6042 -0.4560
  535MOL0     C72113  10.198  10.147   5.477  0.5835 -0.8916 -0.1015
  535MOL0     O72114  10.308  10.178   5.401 -0.4196  0.5694 -0.4541
  535MOL0     C72115  10.380  10.297   5.415  0.3594 -0.4820 -0.1514
  535MOL0     C72116  10.481  10.308   5.317  1.2968  0.1407 -0.3727
  535MOL0     C72117  10.565  10.412   5.304 -0.1009 -0.1497  0.4490
  535MOL0     C72118  10.678  10.392   5.206 -0.0606 -0.6321  0.1138
  535MOL0     C72119  10.536  10.534   5.378  0.2166  0.4633  0.0298
  535MOL0     C72120  10.605  10.667   5.364  0.2146 -0.2722  0.8704
  535MOL0     O72121  10.539  10.779   5.398 -0.9446 -0.0233  0.4422
  535MOL0     C72122  10.598  10.899   5.380 -0.3417  0.2055 -1.1505
  535MOL0     C72123  10.651  10.927   5.254  0.1170 -0.2059  0.1469
  535MOL0     C72124  10.710  11.054   5.221  0.5432  0.9061 -0.5079
  535MOL0     C72125  10.723  11.148   5.330 -0.3513 -0.3853 -0.1808
  535MOL0     O72126  10.787  11.268   5.334  0.2995  0.2442  0.5759
  535MOL0     C72127  10.801  11.343   5.209  0.2295  0.3208  0.7103
  535MOL0     C72128  10.847  11.483   5.254 -1.0715  0.5413 -0.1968
  535MOL0     C72129  10.900  11.543   5.128 -0.7581 -0.8648 -0.4717
  535MOL0     C72130  10.912  11.694   5.140 -0.4995  0.2110 -0.2624
  535MOL0     C72131  10.884  11.778   5.022  0.7889  0.2831  0.4160
  535MOL0     C72132  10.962  11.911   5.033  0.1076 -0.4814 -0.5049
  535MOL0     C72133  10.919  11.995   4.907 -0.2306  0.1538 -0.4065
  535MOL0     C72134  11.024  12.108   4.888  0.8320  0.0017  0.6371
  535MOL0    Cl72135  11.184  12.061   4.839 -0.0984 -0.1774  0.2171
  535MOL0     C72136  10.673  11.111   5.450  0.4854 -0.0189 -0.3888
  535MOL0     C72137  10.606  10.993   5.484 -0.6002 -0.3288 -0.0837
  535MOL0     O72138  10.727  10.669   5.356 -0.6614 -0.7413 -0.2003
  535MOL0     C72139  10.421  10.533   5.461  1.0307  0.1131 -0.1623
  535MOL0     C72140  10.348  10.414   5.495 -0.3451  1.2108 -0.1356
  535MOL0     N72141   9.933   9.802   5.850  0.8691 -0.8894 -0.2773
  535MOL0     N72142   9.847   9.806   5.948  0.0754 -0.3994  0.4931
  535MOL0     C72143  10.019  10.679   5.488 -0.8101  0.6485  0.1806
  535MOL0     C72144  10.055  10.811   5.450 -0.3948  0.5348  1.2411
  535MOL0     C72145  10.304  11.151   5.317  1.2368 -0.6657 -0.4094
  535MOL0     C72146  10.373  11.167   5.188 -1.2326 -0.0271 -0.1021
  535MOL0     C72147  10.439  11.290   5.162 -0.5667 -0.7394 -0.2064
  535MOL0     C72148  10.429  11.397   5.254 -0.4881  0.6412  0.2713
  535MOL0     O72149  10.496  11.515   5.236  0.4180  0.0986  0.3737
  535MOL0     C72150  10.414  11.623   5.261  0.1087 -0.2617  0.1486
  535MOL0     C72151  10.432  11.729   5.137  0.2786  0.5793  0.0108
  535MOL0     C72152  10.408  11.673   4.990  0.0378 -0.2129  0.8533
  535MOL0     C72153  10.366  11.772   4.877 -0.3572 -0.3377  0.1797
  535MOL0     C72154  10.474  11.867   4.847 -0.6393 -0.4306 -0.9227
  535MOL0     C72155  10.559  11.947   4.829  0.4699 -0.2460  0.6613
  535MOL0     C72156  10.372  11.368   5.376  0.5413 -0.5059 -0.0650
  535MOL0     C72157  10.304  11.252   5.415 -0.2563  0.0518  0.1023
  535MOL0     H72158  10.261  10.884   5.717  0.8331  0.7276 -1.8094
  535MOL0     H72159  10.164  10.690   5.798 -1.2766  3.1898  0.0090
  535MOL0     H72160  10.091  10.425   5.821 -0.4215 -1.2281 -0.5603
  535MOL0     H72161   9.972  10.563   5.850 -0.3780 -0.7536  0.9044
  535MOL0     H72162   9.789  10.406   5.804 -0.0351  2.9562  0.8616
  535MOL0     H72163   9.909  10.289   5.752  0.0835 -0.6355  1.8596
  535MOL0     H72164  10.003  10.278   5.968 -0.4910 -1.1377 -1.6736
  535MOL0     H72165   9.915  10.417   6.039  2.0945 -1.3836  1.7685
  535MOL0     H72166   9.706  10.280   5.988 -2.4300 -5.6890 -1.2715
  535MOL0     H72167   9.819  10.143   5.958 -2.2093  0.1483  0.4049
  535MOL0     H72168   9.913  10.162   6.176 -0.5799  1.4977  2.6052
  535MOL0     H72169   9.819  10.303   6.221 -0.8988  0.5002 -0.3856
  535MOL0     H72170   9.722  10.119   6.326  0.0987  0.8031 -0.4104
  535MOL0     H72171   9.620  10.166   6.194  0.7903  2.0517 -3.6272
  535MOL0     H72172   9.625   9.916   6.225 -0.0637  1.3180  0.9965
  535MOL0     H72173   9.664   9.979   6.064  2.4178  1.3952 -0.2613
  535MOL0     H72174   9.791   9.795   6.204 -0.0531 -0.4418 -0.4492
  535MOL0     H72175   9.886   9.930   6.259 -3.4700 -2.6687  3.0313
  535MOL0     H72176  10.085   9.992   6.062 -1.0690  0.0632  1.1935
  535MOL0     H72177  10.248   9.910   5.845 -1.3422  1.3972  2.6772
  535MOL0     H72178  10.181   9.818   5.723 -0.2878  0.7677 -0.8325
  535MOL0     H72179  10.115  10.109   5.767  0.6074 -0.6003  0.3783
  535MOL0     H72180  10.033  10.013   5.640  0.2752 -0.2101 -0.0194
  535MOL0     H72181  10.304   9.975   5.575  0.6373 -0.5829  0.6360
  535MOL0     H72182  10.313  10.124   5.658 -1.1549 -0.3768  0.8461
  535MOL0     H72183  10.149  10.237   5.514 -2.0562 -1.3204 -2.1743
  535MOL0     H72184  10.130  10.097   5.407 -2.4442  5.4649 -2.4030
  535MOL0     H72185  10.494  10.220   5.254 -1.8793 -0.3892 -0.4302
  535MOL0     H72186  10.709  10.493   5.177 -0.5722  0.7072  3.6598
  535MOL0     H72187  10.753  10.335   5.261  0.5461 -2.9351 -2.8342
  535MOL0     H72188  10.647  10.330   5.121 -0.6317 -2.8530  1.8336
  535MOL0     H72189  10.627  10.853   5.179 -0.9976 -1.9991  2.1476
  535MOL0     H72190  10.746  11.087   5.124  1.1000  1.6662 -0.0496
  535MOL0     H72191  10.882  11.295   5.153  1.5236  4.5819 -1.5447
  535MOL0     H72192  10.713  11.350   5.145  2.2800 -0.0770 -2.3414
  535MOL0     H72193  10.765  11.539   5.298 -1.3548  0.7748 -1.0042
  535MOL0     H72194  10.931  11.487   5.324  1.0890 -0.1712 -2.5440
  535MOL0     H72195  10.829  11.531   5.046 -3.4093  0.1079  1.5252
  535MOL0     H72196  10.996  11.499   5.098  0.7520  3.1999 -2.2418
  535MOL0     H72197  10.852  11.731   5.223 -0.5587 -0.7850  0.1451
  535MOL0     H72198  11.017  11.708   5.171 -0.2395  0.2987 -1.1529
  535MOL0     H72199  10.777  11.795   5.016  0.6861 -0.2344  0.7412
  535MOL0     H72200  10.909  11.724   4.931 -2.2511  0.0402 -0.3446
  535MOL0     H72201  10.927  11.970   5.118 -2.2970  1.1404 -2.4665
  535MOL0     H72202  11.070  11.897   5.030  0.3965  1.4178 -0.1220
  535MOL0     H72203  10.822  12.033   4.939 -0.4843 -1.4678  0.9228
  535MOL0     H72204  10.897  11.939   4.815 -2.2180 -1.5287  1.0015
  535MOL0     H72205  11.025  12.175   4.974  1.8161 -0.4325  0.9755
  535MOL0     H72206  10.976  12.153   4.801  1.1701 -0.4861  0.1887
  535MOL0     H72207  10.684  11.182   5.532 -0.8615 -0.8655  0.5736
  535MOL0     H72208  10.570  10.975   5.584 -0.2193  2.5334  0.6499
  535MOL0     H72209  10.401  10.627   5.511 -1.4534 -1.1332  1.4093
  535MOL0     H72210  10.272  10.403   5.571  0.7730 -1.6475  0.7120
  535MOL0     H72211   9.960  10.613   5.425  3.6895 -0.2584 -3.5482
  535MOL0     H72212  10.020  10.838   5.351 -2.6244 -0.1836  1.7783
  535MOL0     H72213  10.382  11.074   5.133  1.8815  1.4723 -2.4378
  535MOL0     H72214  10.505  11.309   5.079 -0.0013  1.0677  0.6090
  535MOL0     H72215  10.310  11.592   5.254 -0.1500  0.8545 -1.5125
  535MOL0     H72216  10.438  11.669   5.357  4.1432  0.3796 -0.9719
  535MOL0     H72217  10.536  11.763   5.145  1.6005 -2.9491 -0.1980
  535MOL0     H72218  10.360  11.809   5.155 -1.6403 -1.3142  1.1775
  535MOL0     H72219  10.322  11.606   5.004 -0.0452 -0.3496 -0.2470
  535MOL0     H72220  10.500  11.623   4.958  1.6028  1.1711  2.9411
  535MOL0     H72221  10.285  11.839   4.908  1.1613  2.1281 -0.9045
  535MOL0     H72222  10.341  11.713   4.788  0.4984  0.0416 -0.3256
  535MOL0     H72223  10.641  12.005   4.792  0.8167  1.0052  3.1794
  535MOL0     H72224  10.377  11.448   5.450  0.3715  0.6347 -1.2433
  535MOL0     H72225  10.283  11.233   5.520 -2.6160  0.9389 -0.1583
  536MOL0     O72226   9.971   5.388  10.604 -0.9205 -0.3116 -0.1402
  536MOL0     C72227  10.058   5.373  10.688  0.5560 -0.2824 -0.1835
  536MOL0     O72228  10.045   5.324  10.815 -0.1956 -0.3146  0.3173
  536MOL0     C72229   9.939   5.261  10.869 -0.8039  0.0913 -0.5996
  536MOL0     C72230   9.834   5.199  10.806  0.2272  0.3244  0.0541
  536MOL0     C72231   9.720   5.161  10.870 -1.1435 -0.6523  0.0577
  536MOL0     C72232   9.716   5.175  11.008  1.0723  0.7877  0.9765
  536MOL0     O72233   9.603   5.133  11.069  0.3839  0.4327 -0.6492
  536MOL0     C72234   9.552   5.001  11.045  0.3676  0.0698  0.4968
  536MOL0     C72235   9.450   4.960  11.147 -1.0674  0.3623  0.1596
  536MOL0     C72236   9.500   4.870  11.259 -0.8403 -0.3756 -0.3080
  536MOL0     C72237   9.403   4.844  11.364 -0.4763 -0.4627  0.7259
  536MOL0     C72238   9.479   4.800  11.491 -0.4456 -0.3818  0.7407
  536MOL0     C72239   9.384   4.777  11.613 -0.2488  0.1758 -0.1360
  536MOL0     C72240   9.466   4.734  11.739 -1.0502  0.0233  0.3422
  536MOL0     C72241   9.522   4.597  11.732  0.3225 -0.0872  0.3433
  536MOL0     N72242   9.550   4.538  11.865  0.3936  0.1866 -0.7361
  536MOL0     C72243   9.613   4.586  11.980 -0.5212 -0.2744 -0.1255
  536MOL0     C72244   9.580   4.514  12.084  0.0233  1.0664  0.4962
  536MOL0     C72245   9.625   4.525  12.229  0.4897  0.2797  1.1528
  536MOL0     C72246   9.651   4.382  12.283 -0.4354 -0.6071  0.1937
  536MOL0     C72247   9.705   4.382  12.417 -0.1290  0.7686  0.1438
  536MOL0     C72248   9.612   4.417  12.532  0.1577  0.6603 -0.3703
  536MOL0     O72249   9.562   4.551  12.532  0.8874 -1.1973 -0.1771
  536MOL0     C72250   9.475   4.595  12.627  0.4975  0.6665  0.1893
  536MOL0     C72251   9.448   4.730  12.613  1.0502 -0.1666 -0.0364
  536MOL0     C72252   9.359   4.792  12.698 -0.7168 -0.2058  0.1976
  536MOL0     C72253   9.316   4.934  12.668  0.0366  0.3991 -0.1675
  536MOL0     C72254   9.306   4.720  12.808  0.5744 -0.6864 -0.0961
  536MOL0     C72255   9.199   4.774  12.903 -0.0511  0.5138  0.0069
  536MOL0     O72256   9.101   4.690  12.955  0.3908  0.3513  0.2708
  536MOL0     C72257   9.010   4.742  13.049  0.0918  0.1025  0.4439
  536MOL0     C72258   8.875   4.738  13.013 -0.2301 -0.3499 -0.1318
  536MOL0     C72259   8.774   4.807  13.084 -0.4564  0.1566 -0.1201
  536MOL0     C72260   8.811   4.870  13.197  0.1810 -0.5097  0.1118
  536MOL0     O72261   8.731   4.936  13.284 -0.5696 -0.2317  0.0635
  536MOL0     C72262   8.589   4.912  13.268 -1.0663 -0.3087 -0.2145
  536MOL0     C72263   8.547   4.767  13.289 -0.9665  0.3212  0.4187
  536MOL0     C72264   8.428   4.747  13.381  0.2899 -0.0052  0.9879
  536MOL0     C72265   8.385   4.597  13.362 -1.0869 -0.5607 -0.2973
  536MOL0     C72266   8.288   4.561  13.472 -0.7572 -1.1274  0.2695
  536MOL0     C72267   8.225   4.421  13.451 -0.3435 -0.1158  0.1342
  536MOL0     C72268   8.161   4.371  13.585  0.3393 -0.0943 -1.0547
  536MOL0     C72269   8.097   4.235  13.576  0.2111 -1.4185 -0.1900
  536MOL0    Cl72270   7.965   4.236  13.461 -0.1467 -0.0779 -0.3994
  536MOL0     C72271   8.945   4.861  13.245 -0.1641  0.3892 -0.5891
  536MOL0     C72272   9.050   4.807  13.164  0.1696 -0.6919 -0.4269
  536MOL0     O72273   9.215   4.894  12.934 -0.0441  0.1935 -0.3582
  536MOL0     C72274   9.338   4.584  12.813  0.2052 -0.2251 -0.0649
  536MOL0     C72275   9.416   4.516  12.724  0.0962  0.4969  0.1644
  536MOL0     N72276   9.495   4.410  12.043 -0.2936 -0.8772  0.0262
  536MOL0     N72277   9.472   4.425  11.912  0.3390 -0.5770 -0.6476
  536MOL0     C72278   9.823   5.226  11.082  0.4628 -0.0083 -0.5015
  536MOL0     C72279   9.935   5.270  11.011 -0.4381 -0.5683 -0.1812
  536MOL0     C72280  10.201   5.395  10.645 -0.6807 -1.2971 -0.1510
  536MOL0     C72281  10.226   5.469  10.531 -0.0769 -0.5879 -0.6913
  536MOL0     C72282  10.353   5.499  10.493  0.7289  0.5488 -0.1019
  536MOL0     C72283  10.465   5.446  10.555  0.2608 -0.4751  0.3809
  536MOL0     O72284  10.586   5.452  10.505 -0.0777 -0.1625  0.6226
  536MOL0     C72285  10.610   5.527  10.385 -0.2229  0.4859  0.2641
  536MOL0     C72286  10.742   5.490  10.321  0.3980 -0.3465 -0.2230
  536MOL0     C72287  10.748   5.331  10.313  0.0763  0.3469  0.7158
  536MOL0     C72288  10.890   5.287  10.259  0.1913  0.0909  0.4217
  536MOL0     C72289  10.906   5.145  10.285 -1.0820  0.6800  0.1536
  536MOL0     C72290  10.902   5.022  10.285  0.2944 -0.3331 -0.8964
  536MOL0     C72291  10.442   5.366  10.664  0.0261 -0.6762 -0.1408
  536MOL0     C72292  10.315   5.349  10.709  0.0850 -0.5511 -0.4482
  536MOL0     H72293   9.843   5.172  10.701 -1.2496  0.0297 -0.0178
  536MOL0     H72294   9.637   5.112  10.819 -1.7802  0.5763 -0.1310
  536MOL0     H72295   9.509   4.990  10.944  0.7394  1.6776  0.1341
  536MOL0     H72296   9.629   4.924  11.053  2.0828  1.1884 -3.0590
  536MOL0     H72297   9.417   5.051  11.198 -0.1872  1.5792 -1.3826
  536MOL0     H72298   9.371   4.905  11.095 -0.2270 -1.6103  0.8747
  536MOL0     H72299   9.541   4.772  11.235 -2.9078 -1.8610  1.8830
  536MOL0     H72300   9.580   4.929  11.306 -0.6812 -2.9917  3.0649
  536MOL0     H72301   9.345   4.934  11.386 -2.3680 -2.0072  2.6305
  536MOL0     H72302   9.336   4.763  11.333 -0.1488 -0.3264 -0.3923
  536MOL0     H72303   9.532   4.706  11.471  1.3491  0.2445  2.2208
  536MOL0     H72304   9.547   4.880  11.524 -1.8714  0.6314  1.3063
  536MOL0     H72305   9.335   4.873  11.630 -0.3860  0.3973 -1.6200
  536MOL0     H72306   9.310   4.700  11.591  0.6270 -0.4434 -0.9821
  536MOL0     H72307   9.542   4.810  11.761  1.8561 -3.1918  2.3005
  536MOL0     H72308   9.402   4.741  11.827  1.7507  1.7712  2.4020
  536MOL0     H72309   9.619   4.600  11.681  0.6556 -1.2626  0.8782
  536MOL0     H72310   9.450   4.530  11.684 -0.6779  3.5601 -3.9973
  536MOL0     H72311   9.680   4.671  11.975  0.3621 -0.9378  0.2622
  536MOL0     H72312   9.714   4.589  12.237  0.2702  0.5652  1.3507
  536MOL0     H72313   9.546   4.574  12.287  1.4941  0.7437  2.1652
  536MOL0     H72314   9.714   4.319  12.220  1.3973  0.0653  1.2983
  536MOL0     H72315   9.553   4.333  12.288 -0.4470 -0.8121 -1.4727
  536MOL0     H72316   9.794   4.446  12.417 -0.4920  1.3135 -1.2239
  536MOL0     H72317   9.728   4.277  12.435  0.9257  1.1818  1.3995
  536MOL0     H72318   9.663   4.398  12.628 -1.8363 -3.2473  0.1353
  536MOL0     H72319   9.525   4.351  12.532 -1.1725  2.3514 -2.0101
  536MOL0     H72320   9.501   4.782  12.534  1.0150  0.5943  0.4262
  536MOL0     H72321   9.357   4.977  12.577  0.8928 -1.6372 -0.8023
  536MOL0     H72322   9.207   4.933  12.675  0.1254 -0.3572  1.7763
  536MOL0     H72323   9.365   4.990  12.748  0.3013  0.4278 -0.3498
  536MOL0     H72324   8.842   4.697  12.918 -1.5536  0.5355 -0.0718
  536MOL0     H72325   8.670   4.802  13.053 -1.5852 -2.9793  3.4352
  536MOL0     H72326   8.546   4.980  13.342 -1.4412 -0.2671 -0.4654
  536MOL0     H72327   8.545   4.946  13.174 -1.6674 -3.3469 -1.1699
  536MOL0     H72328   8.522   4.725  13.191  0.2522  1.9983 -0.6678
  536MOL0     H72329   8.632   4.707  13.324 -0.2580 -0.2311 -2.0349
  536MOL0     H72330   8.346   4.813  13.352 -0.8173 -1.8538 -0.2965
  536MOL0     H72331   8.457   4.774  13.483 -0.2314  1.8282  0.6726
  536MOL0     H72332   8.330   4.587  13.268  1.2678 -1.0158 -1.6825
  536MOL0     H72333   8.475   4.536  13.351 -1.1890 -0.4943 -1.7291
  536MOL0     H72334   8.211   4.639  13.478  2.6059  2.3923  2.2252
  536MOL0     H72335   8.338   4.559  13.569  0.4941 -2.2414 -0.3592
  536MOL0     H72336   8.140   4.438  13.384 -1.5757  1.1621  1.9429
  536MOL0     H72337   8.295   4.345  13.413  2.6325  2.6303 -0.2729
  536MOL0     H72338   8.088   4.448  13.612 -1.5648 -2.6974  1.9942
  536MOL0     H72339   8.225   4.364  13.674  3.0553  1.8522 -2.6953
  536MOL0     H72340   8.068   4.195  13.674  0.2483 -2.5424 -0.6266
  536MOL0     H72341   8.174   4.163  13.545  1.3545 -0.2270 -0.2178
  536MOL0     H72342   8.972   4.915  13.335 -2.3086  0.8836 -0.1935
  536MOL0     H72343   9.152   4.808  13.199 -0.4896 -4.1255  2.2005
  536MOL0     H72344   9.299   4.520  12.891  0.1728 -2.9105 -2.1123
  536MOL0     H72345   9.438   4.411  12.743 -4.5167 -0.9187 -0.9022
  536MOL0     H72346   9.827   5.221  11.191 -0.3039  3.3398 -0.2117
  536MOL0     H72347  10.029   5.302  11.055 -2.0540  4.1558  0.3918
  536MOL0     H72348  10.140   5.514  10.482  1.4711  2.7548 -0.6212
  536MOL0     H72349  10.365   5.559  10.403  2.6046  3.1933  1.7929
  536MOL0     H72350  10.533   5.506  10.310 -0.8325  1.6883  0.5177
  536MOL0     H72351  10.600   5.634  10.406 -2.5071  0.3005  0.4135
  536MOL0     H72352  10.822   5.534  10.382  1.6411 -0.6797 -1.5700
  536MOL0     H72353  10.761   5.527  10.220 -1.6097 -0.8627 -0.8442
  536MOL0     H72354  10.677   5.309  10.233  3.0181  1.2563 -2.3754
  536MOL0     H72355  10.721   5.278  10.405 -1.3875  0.1851  0.2220
  536MOL0     H72356  10.971   5.329  10.320  1.3865  0.5013 -1.3518
  536MOL0     H72357  10.910   5.312  10.154  2.2314 -1.1096  0.4820
  536MOL0     H72358  10.911   4.915  10.284 -1.4409 -0.5112 -0.3016
  536MOL0     H72359  10.530   5.318  10.704 -0.1374 -0.5379  0.3990
  536MOL0     H72360  10.314   5.292  10.801 -0.1283  0.6716  0.3338
  537MOL0     O72361   3.799   7.901   6.988 -0.3668 -0.3171 -1.1776
  537MOL0     C72362   3.880   7.893   7.085 -0.2667 -0.3059 -0.3079
  537MOL0     O72363   3.892   7.793   7.179  0.4304  0.1690 -0.1984
  537MOL0     C72364   3.809   7.685   7.182  0.1698  0.8390 -0.3615
  537MOL0     C72365   3.675   7.676   7.153  0.6917  0.1829  0.0165
  537MOL0     C72366   3.603   7.552   7.168  0.1074  0.1442 -0.0363
  537MOL0     C72367   3.666   7.433   7.205  0.1851  0.0389  0.2971
  537MOL0     O72368   3.582   7.318   7.205 -0.0658  0.1743  0.2342
  537MOL0     C72369   3.639   7.178   7.217 -1.0282 -0.3025  0.7886
  537MOL0     C72370   3.522   7.082   7.237 -0.2517  0.4116  0.8337
  537MOL0     C72371   3.515   6.978   7.127  0.6285 -0.4506 -0.2409
  537MOL0     C72372   3.367   6.925   7.125 -0.2512  0.0408 -0.1743
  537MOL0     C72373   3.360   6.784   7.046 -0.1937 -0.1758  0.3344
  537MOL0     C72374   3.216   6.718   7.056  0.4330 -0.9295 -0.6819
  537MOL0     C72375   3.196   6.650   7.192 -0.8574 -0.7137 -0.3121
  537MOL0     C72376   3.052   6.617   7.226 -0.0531  0.2653 -0.1336
  537MOL0     N72377   2.980   6.723   7.286 -0.0414  0.4535 -0.2497
  537MOL0     C72378   2.995   6.754   7.417 -0.3372 -0.1328  0.2804
  537MOL0     C72379   2.884   6.819   7.451  0.3990 -0.3864  0.0799
  537MOL0     C72380   2.862   6.908   7.573 -0.3729  0.2241 -0.5490
  537MOL0     C72381   2.782   6.835   7.689 -0.5063  0.1192  0.0301
  537MOL0     C72382   2.633   6.867   7.671 -0.3441  0.6876  0.2151
  537MOL0     C72383   2.560   6.823   7.794 -0.3075 -0.8213 -0.4032
  537MOL0     O72384   2.518   6.687   7.789  0.1847  0.2313  0.4297
  537MOL0     C72385   2.570   6.607   7.890  0.7024 -0.0565 -0.1780
  537MOL0     C72386   2.510   6.624   8.015 -0.3128  0.3778  0.0145
  537MOL0     C72387   2.544   6.540   8.129 -0.6530  1.6105 -0.1944
  537MOL0     C72388   2.467   6.566   8.254 -0.5812  0.0026  0.1792
  537MOL0     C72389   2.653   6.445   8.111  0.2092 -0.1038 -0.0711
  537MOL0     C72390   2.695   6.359   8.227 -0.0354  0.9848 -0.2195
  537MOL0     O72391   2.677   6.406   8.348 -0.3108 -0.5075 -0.2045
  537MOL0     C72392   2.710   6.343   8.469 -1.5276 -0.2770 -0.1215
  537MOL0     C72393   2.732   6.209   8.484 -0.0416 -0.7174 -1.0164
  537MOL0     C72394   2.737   6.157   8.619 -0.2028  0.6104 -0.8675
  537MOL0     C72395   2.727   6.235   8.729 -0.0002 -0.1764  0.6185
  537MOL0     O72396   2.715   6.197   8.859  0.2798  0.2853  0.0013
  537MOL0     C72397   2.775   6.065   8.896 -0.2971  0.4427  0.7786
  537MOL0     C72398   2.748   6.024   9.041 -0.8563 -0.4144 -0.0154
  537MOL0     C72399   2.606   5.977   9.062  0.2829 -0.1253  0.5266
  537MOL0     C72400   2.604   5.874   9.173  0.4805  0.2855 -0.1857
  537MOL0     C72401   2.457   5.832   9.221  0.5232  0.7202 -1.2130
  537MOL0     C72402   2.454   5.699   9.296  0.5766  0.8234 -0.5293
  537MOL0     C72403   2.525   5.695   9.425  0.6667 -0.0737 -0.0131
  537MOL0     C72404   2.524   5.558   9.493 -0.7548 -0.3674  0.1076
  537MOL0    Cl72405   2.639   5.573   9.626 -0.1524 -0.1090 -0.0893
  537MOL0     C72406   2.718   6.369   8.709  1.1433 -0.4418 -0.2000
  537MOL0     C72407   2.702   6.422   8.580  0.0070 -0.1729 -0.5874
  537MOL0     O72408   2.772   6.266   8.194  0.3422 -0.5288 -0.2987
  537MOL0     C72409   2.716   6.437   7.986 -0.6354  0.4221  0.8121
  537MOL0     C72410   2.675   6.513   7.879 -0.0162  0.0271  0.6116
  537MOL0     N72411   2.801   6.842   7.338 -0.6228 -0.0014 -0.7120
  537MOL0     N72412   2.866   6.782   7.242 -0.2710 -0.0892 -0.3105
  537MOL0     C72413   3.800   7.436   7.220  0.3896  0.4023  0.2250
  537MOL0     C72414   3.867   7.561   7.216 -0.7919  0.0540 -0.7602
  537MOL0     C72415   3.987   8.006   7.088  0.6988  0.0081  0.3908
  537MOL0     C72416   4.067   8.029   7.203 -0.0969 -0.5421  0.3233
  537MOL0     C72417   4.153   8.136   7.207  0.4367  0.5754  0.5973
  537MOL0     C72418   4.188   8.209   7.095  0.3347 -0.4942 -0.4404
  537MOL0     O72419   4.299   8.286   7.111 -0.1713 -0.5232 -0.3087
  537MOL0     C72420   4.365   8.328   6.990 -0.1212 -0.7099  0.6209
  537MOL0     C72421   4.510   8.359   7.021 -0.4218 -0.2728  0.4345
  537MOL0     C72422   4.590   8.261   7.096 -0.2043 -0.4467  0.4644
  537MOL0     C72423   4.608   8.306   7.242 -0.0202  0.2653  0.2400
  537MOL0     C72424   4.698   8.208   7.306  0.8280  0.7620  0.2247
  537MOL0     C72425   4.776   8.122   7.344  0.1277  0.2344 -0.3391
  537MOL0     C72426   4.115   8.199   6.981  0.2067 -0.6941 -0.2936
  537MOL0     C72427   4.006   8.100   6.975 -0.5694  0.6135  0.2987
  537MOL0     H72428   3.620   7.763   7.119 -0.4306 -0.3673  0.3582
  537MOL0     H72429   3.497   7.555   7.146  0.1514 -0.7454 -0.4314
  537MOL0     H72430   3.697   7.152   7.127 -0.0007  3.0251  0.3715
  537MOL0     H72431   3.714   7.159   7.295  1.4536  0.6847 -1.2085
  537MOL0     H72432   3.539   7.024   7.328  1.9803 -0.9029 -0.3479
  537MOL0     H72433   3.423   7.127   7.249 -1.2869 -0.4065 -3.1806
  537MOL0     H72434   3.542   7.027   7.033 -1.7560 -0.6401 -1.0748
  537MOL0     H72435   3.576   6.890   7.151  0.0993 -1.1942 -1.5627
  537MOL0     H72436   3.323   6.910   7.224 -0.9730  4.6286  0.4020
  537MOL0     H72437   3.289   6.992   7.088 -2.4850 -1.5755  1.3353
  537MOL0     H72438   3.385   6.792   6.939  2.3421  0.7842  0.9321
  537MOL0     H72439   3.425   6.709   7.093 -0.8667 -1.6170 -0.9196
  537MOL0     H72440   3.142   6.798   7.045  2.8367  1.3235 -1.6639
  537MOL0     H72441   3.199   6.653   6.970  0.8994  1.0716 -2.3634
  537MOL0     H72442   3.240   6.549   7.187 -0.0706 -0.4284  0.4926
  537MOL0     H72443   3.246   6.699   7.276 -1.4441  1.1117 -0.9845
  537MOL0     H72444   3.041   6.534   7.296 -0.5779  1.6454  1.4716
  537MOL0     H72445   2.996   6.598   7.134  3.6374  0.8789 -2.7164
  537MOL0     H72446   3.082   6.749   7.482 -1.0041  1.1113  1.3088
  537MOL0     H72447   2.957   6.940   7.617 -0.2245 -2.3711  1.2507
  537MOL0     H72448   2.808   6.987   7.520 -1.0482  0.7455  0.8850
  537MOL0     H72449   2.819   6.880   7.782  1.9182 -4.8292  1.8263
  537MOL0     H72450   2.800   6.728   7.701  1.1756  0.5412  1.7043
  537MOL0     H72451   2.595   6.821   7.579  2.9637 -0.0919 -0.9173
  537MOL0     H72452   2.618   6.975   7.664  2.1472  1.0558 -0.2949
  537MOL0     H72453   2.471   6.885   7.805  0.3709  0.5087 -2.0069
  537MOL0     H72454   2.603   6.855   7.889 -0.3015  0.1903 -0.7306
  537MOL0     H72455   2.417   6.680   8.016 -1.1618 -0.8166 -2.8349
  537MOL0     H72456   2.386   6.638   8.240 -0.8108 -0.2995 -0.0757
  537MOL0     H72457   2.430   6.481   8.312 -2.2202  0.1202 -0.6222
  537MOL0     H72458   2.538   6.629   8.309 -0.3936  1.4944 -1.6501
  537MOL0     H72459   2.721   6.137   8.404 -0.0893  0.0560 -1.7079
  537MOL0     H72460   2.740   6.049   8.629  1.3140  0.7340  0.5685
  537MOL0     H72461   2.729   5.982   8.841 -1.6633  1.2844  0.6118
  537MOL0     H72462   2.884   6.070   8.883 -0.4829  2.2598 -0.3773
  537MOL0     H72463   2.820   5.943   9.057 -0.2116 -0.7518 -3.7700
  537MOL0     H72464   2.772   6.107   9.108  0.2972 -0.9152  0.2161
  537MOL0     H72465   2.568   5.945   8.965 -2.6307  0.3185  1.4390
  537MOL0     H72466   2.544   6.063   9.089  1.5986  1.0921 -0.1509
  537MOL0     H72467   2.659   5.786   9.139  0.4677  0.7975 -1.5849
  537MOL0     H72468   2.662   5.914   9.257 -0.4704  1.8696 -0.2362
  537MOL0     H72469   2.393   5.824   9.133 -0.0725 -0.2535 -0.7071
  537MOL0     H72470   2.419   5.903   9.295 -3.9637 -3.9865  1.6722
  537MOL0     H72471   2.353   5.662   9.314  1.3098 -1.0050  0.1233
  537MOL0     H72472   2.500   5.624   9.231  3.8800  1.2499  1.0715
  537MOL0     H72473   2.479   5.768   9.492  0.5938 -0.9633  0.9326
  537MOL0     H72474   2.630   5.727   9.421  0.6043 -0.0277 -1.7125
  537MOL0     H72475   2.564   5.481   9.427  1.3370  2.9243 -2.8549
  537MOL0     H72476   2.422   5.534   9.523  0.0257 -1.0138  2.4733
  537MOL0     H72477   2.704   6.428   8.800  0.8934 -1.7648  0.6500
  537MOL0     H72478   2.677   6.527   8.567 -2.4473 -0.0422  3.3594
  537MOL0     H72479   2.802   6.374   7.972 -0.2498  1.1671 -0.2631
  537MOL0     H72480   2.723   6.501   7.782 -3.3139 -1.4852 -1.0191
  537MOL0     H72481   3.849   7.341   7.239  0.9898  0.1121 -2.3625
  537MOL0     H72482   3.974   7.567   7.235 -0.6982 -2.8337  0.0475
  537MOL0     H72483   4.062   7.967   7.293  0.5436 -1.9390 -0.5729
  537MOL0     H72484   4.212   8.155   7.296 -0.0638  0.1493  1.0267
  537MOL0     H72485   4.361   8.259   6.905 -2.0144  1.9679 -1.6462
  537MOL0     H72486   4.298   8.409   6.959  1.8953  0.8083  0.0210
  537MOL0     H72487   4.507   8.454   7.077  0.6241 -0.2933  0.5452
  537MOL0     H72488   4.560   8.380   6.927  4.5892  1.5517  3.1297
  537MOL0     H72489   4.686   8.255   7.042 -1.5068 -0.0101 -2.0531
  537MOL0     H72490   4.546   8.161   7.091 -0.9338 -0.0677 -1.4492
  537MOL0     H72491   4.512   8.298   7.293 -0.2922  2.1351  0.0778
  537MOL0     H72492   4.660   8.402   7.244  0.9573 -0.0454 -3.3346
  537MOL0     H72493   4.832   8.050   7.400  3.0521  0.5447 -2.6282
  537MOL0     H72494   4.128   8.258   6.892 -1.1658 -1.6859 -1.1939
  537MOL0     H72495   3.944   8.099   6.886 -0.6885 -1.0917  0.3727
  538MOL0     O72496   7.549   3.058   4.995  0.6228  0.7005 -0.3148
  538MOL0     C72497   7.650   3.088   4.929  0.0715  0.2113 -0.9694
  538MOL0     O72498   7.741   3.184   4.968  0.4875 -0.3354 -0.3979
  538MOL0     C72499   7.717   3.260   5.081 -0.2207  1.1735  0.3044
  538MOL0     C72500   7.833   3.287   5.161  0.8838 -0.4036 -0.6334
  538MOL0     C72501   7.814   3.384   5.267 -1.0918  0.1627 -0.4914
  538MOL0     C72502   7.683   3.419   5.308 -0.3545 -0.3804 -0.6714
  538MOL0     O72503   7.671   3.489   5.428 -0.2605 -0.5202  0.1161
  538MOL0     C72504   7.559   3.459   5.517 -0.0954 -0.0283  1.4516
  538MOL0     C72505   7.543   3.558   5.628  0.2506 -0.5667  0.5791
  538MOL0     C72506   7.426   3.531   5.723  0.8463  0.6658  0.0401
  538MOL0     C72507   7.278   3.532   5.669 -0.4094  0.1952 -0.2213
  538MOL0     C72508   7.241   3.644   5.578 -0.1872 -0.3453  0.3318
  538MOL0     C72509   7.291   3.785   5.634  0.2589 -0.0788  0.1821
  538MOL0     C72510   7.205   3.849   5.737 -0.5572  0.3241  0.4442
  538MOL0     C72511   7.253   3.999   5.760 -0.9482  0.4356 -0.8686
  538MOL0     N72512   7.242   4.087   5.644 -0.9656  0.6169 -0.2139
  538MOL0     C72513   7.131   4.115   5.555 -1.0869 -0.0070  0.2601
  538MOL0     C72514   7.187   4.190   5.457 -0.4311 -0.4361 -0.7957
  538MOL0     C72515   7.118   4.261   5.338 -0.8525  0.2913  0.6959
  538MOL0     C72516   7.081   4.168   5.219 -0.1266  0.3194  0.1740
  538MOL0     C72517   6.987   4.237   5.109 -0.2591 -0.2838  0.7145
  538MOL0     C72518   6.843   4.272   5.159 -0.3093  0.0612 -0.1992
  538MOL0     O72519   6.757   4.315   5.052 -0.0762  0.3142  0.5351
  538MOL0     C72520   6.762   4.449   5.018 -0.2458  0.1300 -0.4935
  538MOL0     C72521   6.840   4.550   5.069 -1.1156 -0.6968  0.5988
  538MOL0     C72522   6.839   4.688   5.023  0.7027  0.6087  0.3997
  538MOL0     C72523   6.928   4.777   5.090 -0.5488 -0.7580 -1.0059
  538MOL0     C72524   6.750   4.728   4.923  0.6932 -0.3819 -0.1901
  538MOL0     C72525   6.746   4.861   4.864 -0.2691 -0.1801 -0.4089
  538MOL0     O72526   6.662   4.871   4.754 -0.2868 -0.7669  0.2855
  538MOL0     C72527   6.671   4.977   4.674 -0.2244 -0.0354  1.1559
  538MOL0     C72528   6.689   4.947   4.535  0.0194  1.1478  0.8886
  538MOL0     C72529   6.715   5.041   4.444 -0.1729 -0.1538  1.3217
  538MOL0     C72530   6.723   5.181   4.481 -0.3243 -0.4398 -0.5092
  538MOL0     O72531   6.744   5.284   4.388  0.7807  0.2819 -0.0962
  538MOL0     C72532   6.756   5.254   4.249 -0.3445  0.6946  0.3419
  538MOL0     C72533   6.765   5.384   4.168  0.3522  0.7491 -0.5864
  538MOL0     C72534   6.904   5.445   4.177  0.3256  0.8185 -0.5168
  538MOL0     C72535   6.952   5.488   4.322 -0.4008 -0.3320 -0.3684
  538MOL0     C72536   7.080   5.576   4.299  0.3723  0.2299  0.0442
  538MOL0     C72537   7.141   5.639   4.418 -0.4563  0.2544 -0.1094
  538MOL0     C72538   7.149   5.548   4.543 -0.0327  0.5458 -0.2879
  538MOL0     C72539   7.228   5.611   4.660 -0.8005  0.2282  1.0988
  538MOL0    Cl72540   7.172   5.770   4.728  0.0017  0.5345 -0.5319
  538MOL0     C72541   6.696   5.208   4.614  0.2867 -0.3150  0.6278
  538MOL0     C72542   6.671   5.116   4.715  0.1299  0.0363  0.6706
  538MOL0     O72543   6.820   4.954   4.906 -0.1842  0.3933 -0.1676
  538MOL0     C72544   6.659   4.635   4.875  0.1225  0.0780  0.3740
  538MOL0     C72545   6.665   4.497   4.923 -0.0843  0.3048 -0.7344
  538MOL0     N72546   7.328   4.194   5.479  0.0815 -0.2617  0.1691
  538MOL0     N72547   7.349   4.138   5.591  0.1723  0.5374  0.4055
  538MOL0     C72548   7.573   3.381   5.232 -0.2319 -0.0552 -1.1428
  538MOL0     C72549   7.593   3.314   5.114  1.2634 -0.9557  0.4039
  538MOL0     C72550   7.660   3.020   4.798  0.7469 -0.0308 -0.0453
  538MOL0     C72551   7.555   2.951   4.738  0.4930 -0.0614 -0.7989
  538MOL0     C72552   7.564   2.884   4.616  0.1430  0.6583  0.8211
  538MOL0     C72553   7.689   2.907   4.543  0.7221  0.2704 -1.3482
  538MOL0     O72554   7.699   2.889   4.410 -0.6492 -0.4011 -0.2035
  538MOL0     C72555   7.596   2.874   4.318 -0.4985  0.3295  0.4289
  538MOL0     C72556   7.570   2.727   4.275 -0.7841  0.9277  0.4238
  538MOL0     C72557   7.471   2.712   4.161 -0.4437 -0.3817 -0.6773
  538MOL0     C72558   7.437   2.564   4.127 -0.2281 -0.0783  0.2836
  538MOL0     C72559   7.354   2.558   4.010 -0.4897  0.3342 -0.5365
  538MOL0     C72560   7.293   2.584   3.912 -1.3297  0.7926 -0.1107
  538MOL0     C72561   7.801   2.965   4.611 -0.0602  0.0651 -0.8065
  538MOL0     C72562   7.789   3.019   4.735 -0.8012  0.0259  0.3900
  538MOL0     H72563   7.931   3.240   5.155  0.0250 -3.2267  3.2544
  538MOL0     H72564   7.905   3.414   5.318 -0.3470 -1.8988 -0.5008
  538MOL0     H72565   7.465   3.453   5.462 -1.1473 -0.2937  3.2186
  538MOL0     H72566   7.583   3.366   5.570  0.9709 -2.3413 -2.6060
  538MOL0     H72567   7.628   3.558   5.697 -0.4982  0.2985  1.5267
  538MOL0     H72568   7.536   3.661   5.593 -1.1310  0.8895  4.6154
  538MOL0     H72569   7.440   3.437   5.777  0.2852  0.2332 -0.5482
  538MOL0     H72570   7.426   3.608   5.801 -0.0567 -1.5615  2.3869
  538MOL0     H72571   7.243   3.448   5.609  1.8312  0.3604 -1.8788
  538MOL0     H72572   7.220   3.544   5.761 -3.4685 -0.8177 -1.8936
  538MOL0     H72573   7.286   3.619   5.482  0.4115 -1.1964  0.8135
  538MOL0     H72574   7.132   3.644   5.563  0.1244  0.2792 -2.4465
  538MOL0     H72575   7.393   3.779   5.675  0.7324 -1.4194 -1.0937
  538MOL0     H72576   7.309   3.855   5.552  1.8340 -0.2431  0.3382
  538MOL0     H72577   7.102   3.857   5.701 -0.8866  1.0533  1.5212
  538MOL0     H72578   7.203   3.795   5.832  1.1243  2.9445  2.0829
  538MOL0     H72579   7.352   3.995   5.805 -2.8226 -1.1989  3.7051
  538MOL0     H72580   7.188   4.025   5.844 -2.4930 -2.4371 -1.0541
  538MOL0     H72581   7.032   4.077   5.577 -1.3415 -0.0930 -0.9919
  538MOL0     H72582   7.027   4.306   5.379 -1.3133 -1.2478  1.4279
  538MOL0     H72583   7.181   4.339   5.295 -2.2374  1.3835  0.5668
  538MOL0     H72584   7.017   4.089   5.260 -0.8674  1.0056  0.3587
  538MOL0     H72585   7.172   4.131   5.172 -0.3294  2.7360 -2.3465
  538MOL0     H72586   6.972   4.162   5.030 -3.4271 -0.6744  1.5413
  538MOL0     H72587   7.040   4.323   5.066 -3.3420  2.3941  1.8129
  538MOL0     H72588   6.861   4.350   5.234 -1.4123 -1.3451  1.6091
  538MOL0     H72589   6.805   4.186   5.214  1.9776 -0.3260  0.8890
  538MOL0     H72590   6.914   4.531   5.146  2.8115  1.2037 -2.3194
  538MOL0     H72591   6.997   4.814   5.014  1.4451  0.0005  1.0399
  538MOL0     H72592   6.883   4.866   5.133  0.6091  0.3997 -2.1060
  538MOL0     H72593   7.000   4.731   5.159  1.3812  2.3501 -0.7756
  538MOL0     H72594   6.689   4.844   4.499 -0.5238  1.3470  0.2926
  538MOL0     H72595   6.729   5.025   4.337  3.3538 -1.1726  1.8132
  538MOL0     H72596   6.845   5.192   4.235 -2.2737 -2.3443  0.6912
  538MOL0     H72597   6.681   5.186   4.209  0.6274  0.7833 -1.8011
  538MOL0     H72598   6.743   5.358   4.064  2.6826 -2.9334 -0.3626
  538MOL0     H72599   6.696   5.455   4.213  0.3928  0.4459 -0.0370
  538MOL0     H72600   6.916   5.528   4.106 -0.3316  1.4419  0.0769
  538MOL0     H72601   6.976   5.371   4.141 -0.8340 -0.3799 -0.4464
  538MOL0     H72602   6.870   5.556   4.349 -2.3576 -2.8505  0.4060
  538MOL0     H72603   6.975   5.401   4.384 -2.1349  0.3914  1.3921
  538MOL0     H72604   7.046   5.653   4.229  0.5499  0.5905  0.3492
  538MOL0     H72605   7.146   5.510   4.242  0.3184 -0.0319  0.2875
  538MOL0     H72606   7.235   5.682   4.383 -0.5493 -1.0189 -2.0524
  538MOL0     H72607   7.076   5.725   4.440 -0.3049  0.2683  0.2945
  538MOL0     H72608   7.203   5.455   4.524  0.7714  0.5696  1.5866
  538MOL0     H72609   7.044   5.534   4.573  0.0436  2.2186  0.9593
  538MOL0     H72610   7.334   5.628   4.640 -1.1654  1.7875  0.3306
  538MOL0     H72611   7.218   5.547   4.748 -1.5830  2.0524  2.3729
  538MOL0     H72612   6.711   5.311   4.643  0.1886  0.0124 -0.4307
  538MOL0     H72613   6.669   5.138   4.822 -0.6335 -0.7237  0.8172
  538MOL0     H72614   6.578   4.659   4.807 -3.2580  1.4725  4.4546
  538MOL0     H72615   6.594   4.425   4.884 -0.6895  0.7533 -0.4876
  538MOL0     H72616   7.474   3.413   5.266  0.4384  0.6125  0.2633
  538MOL0     H72617   7.509   3.302   5.047  0.8265  0.2648  0.7144
  538MOL0     H72618   7.455   2.958   4.782  1.4754  4.1247  1.2907
  538MOL0     H72619   7.469   2.847   4.580  1.0610 -1.5392  0.5045
  538MOL0     H72620   7.500   2.900   4.363  0.6925  0.9137  2.8183
  538MOL0     H72621   7.616   2.936   4.230 -3.4365 -0.8684 -1.2385
  538MOL0     H72622   7.547   2.655   4.354  1.1663 -2.0411 -1.4991
  538MOL0     H72623   7.663   2.684   4.238 -1.1958 -1.2633  1.8083
  538MOL0     H72624   7.523   2.755   4.075  1.8366  1.0022  1.2511
  538MOL0     H72625   7.377   2.750   4.202 -0.3295 -2.5100  1.8457
  538MOL0     H72626   7.385   2.523   4.214 -2.0897 -1.4948 -1.4190
  538MOL0     H72627   7.529   2.506   4.111  0.2094  0.7485 -0.2569
  538MOL0     H72628   7.260   2.604   3.812  2.7090  1.0762 -1.5724
  538MOL0     H72629   7.896   2.955   4.559  0.0637  1.9516 -0.9915
  538MOL0     H72630   7.869   3.074   4.783 -1.1177 -1.5315  2.8938
  539MOL0     O72631   8.886  10.142   7.281  0.4657  0.9906  0.3181
  539MOL0     C72632   8.814  10.075   7.209  0.1515 -1.3914 -0.4111
  539MOL0     O72633   8.709  10.122   7.136 -0.0621  0.8021  0.7860
  539MOL0     C72634   8.677  10.256   7.125 -0.1481  0.6648  0.2317
  539MOL0     C72635   8.763  10.359   7.123  0.0985 -0.0209 -0.0303
  539MOL0     C72636   8.715  10.484   7.133 -0.5600  0.0494  0.6205
  539MOL0     C72637   8.586  10.516   7.132 -0.3564  1.2900 -0.6853
  539MOL0     O72638   8.547  10.639   7.140  0.3571 -0.1545 -0.0313
  539MOL0     C72639   8.470  10.696   7.030  0.1695 -0.3737 -0.7489
  539MOL0     C72640   8.423  10.835   7.067  0.0155  0.2966 -0.0241
  539MOL0     C72641   8.320  10.819   7.184 -0.2374  0.2935  0.0985
  539MOL0     C72642   8.230  10.944   7.215  1.3257  0.7457  0.4181
  539MOL0     C72643   8.099  10.913   7.294 -0.1060  0.2042 -0.6244
  539MOL0     C72644   8.108  10.832   7.430 -0.0924  0.4775  0.1243
  539MOL0     C72645   8.167  10.907   7.545 -0.2022  0.1114 -0.9982
  539MOL0     C72646   8.210  10.807   7.659 -0.5616 -0.4383  0.5373
  539MOL0     N72647   8.361  10.790   7.648 -0.5784  0.4259 -0.1185
  539MOL0     C72648   8.417  10.714   7.553 -0.4393  0.7589  0.3358
  539MOL0     C72649   8.552  10.731   7.577  0.0077 -0.5010 -1.2597
  539MOL0     C72650   8.668  10.667   7.500 -0.0891 -0.3145  0.4564
  539MOL0     C72651   8.696  10.520   7.549 -0.9564  0.5078  1.2753
  539MOL0     C72652   8.719  10.493   7.702  0.7063  0.3978 -0.0355
  539MOL0     C72653   8.840  10.561   7.767  0.0339  0.1646 -0.1881
  539MOL0     O72654   8.963  10.509   7.702 -0.1812  0.3740  0.7747
  539MOL0     C72655   9.076  10.511   7.776 -0.0666 -0.3741 -0.0458
  539MOL0     C72656   9.088  10.554   7.912 -0.5378 -0.0270  0.3032
  539MOL0     C72657   9.209  10.549   7.984  0.8909  0.7638  0.0696
  539MOL0     C72658   9.208  10.608   8.123  0.2903  0.7147 -0.7202
  539MOL0     C72659   9.333  10.505   7.919 -1.1505 -0.6141 -1.3393
  539MOL0     C72660   9.462  10.506   7.975 -0.8713  0.1064 -0.4352
  539MOL0     O72661   9.480  10.506   8.104  0.3421 -0.0649 -0.1310
  539MOL0     C72662   9.615  10.491   8.156 -0.1454 -0.4738 -0.3628
  539MOL0     C72663   9.673  10.368   8.131  0.8598 -0.0963  0.1998
  539MOL0     C72664   9.801  10.327   8.175  1.2189  0.0146 -0.8179
  539MOL0     C72665   9.882  10.432   8.228  0.8680  0.2208 -0.8148
  539MOL0     O72666  10.012  10.417   8.261 -0.3181 -0.8211 -0.7084
  539MOL0     C72667  10.090  10.338   8.170 -0.8724 -0.8412 -0.4893
  539MOL0     C72668  10.238  10.346   8.196 -0.3609  0.0870  0.5223
  539MOL0     C72669  10.316  10.236   8.125 -0.6022  0.2589 -0.0692
  539MOL0     C72670  10.266  10.213   7.982 -0.6487 -1.3595 -0.8922
  539MOL0     C72671  10.350  10.117   7.907 -1.2904  0.0516 -0.2789
  539MOL0     C72672  10.324  10.098   7.758  0.3176 -0.3940  0.6363
  539MOL0     C72673  10.390   9.962   7.711 -0.9325  0.5687  0.0117
  539MOL0     C72674  10.437   9.959   7.567  0.4268 -0.6472  0.0771
  539MOL0    Cl72675  10.298   9.973   7.452 -0.0068  0.0984 -0.3939
  539MOL0     C72676   9.829  10.561   8.250  0.8899  0.5096  0.2581
  539MOL0     C72677   9.690  10.587   8.225 -0.2006 -1.0072 -0.1034
  539MOL0     O72678   9.559  10.507   7.892 -0.2814  0.1450 -0.3676
  539MOL0     C72679   9.311  10.464   7.789  0.6311 -0.2698  0.6546
  539MOL0     C72680   9.194  10.461   7.716  0.8222 -0.3592 -0.2717
  539MOL0     N72681   8.566  10.804   7.691 -0.3031  0.9230 -0.1016
  539MOL0     N72682   8.456  10.845   7.727 -0.2664  0.5931 -0.5994
  539MOL0     C72683   8.493  10.417   7.147  0.2217 -0.1208  0.5598
  539MOL0     C72684   8.541  10.287   7.132  0.1770 -0.8524  0.3195
  539MOL0     C72685   8.836   9.931   7.209  0.3337  0.2330  0.0570
  539MOL0     C72686   8.958   9.878   7.251  0.2516  1.0159 -0.3299
  539MOL0     C72687   8.976   9.738   7.238  0.3627 -0.2452 -1.0569
  539MOL0     C72688   8.872   9.656   7.187  0.1045  0.6619 -0.0628
  539MOL0     O72689   8.902   9.528   7.159  0.6038  0.5690  0.4840
  539MOL0     C72690   8.883   9.470   7.030 -0.0424  0.3796 -0.5606
  539MOL0     C72691   8.990   9.513   6.934  0.7106 -0.2117  0.4997
  539MOL0     C72692   8.949   9.492   6.795 -0.8395  0.2437 -0.0430
  539MOL0     C72693   9.070   9.479   6.708  0.1016  0.0228 -0.6308
  539MOL0     C72694   9.171   9.593   6.725  1.4897  0.0398  0.2280
  539MOL0     C72695   9.247   9.691   6.744  0.4904  0.5709 -0.4865
  539MOL0     C72696   8.751   9.711   7.147  0.7134 -0.1557 -0.5596
  539MOL0     C72697   8.732   9.846   7.156 -1.1577 -0.2820  0.1476
  539MOL0     H72698   8.869  10.345   7.138  0.4595  1.5999 -0.8189
  539MOL0     H72699   8.764  10.581   7.139 -2.7487  1.1986  1.3815
  539MOL0     H72700   8.521  10.709   6.934 -1.0950 -0.8987 -1.5259
  539MOL0     H72701   8.375  10.649   7.000 -1.1368  1.6029  0.0735
  539MOL0     H72702   8.518  10.880   7.098  0.8438 -2.0714  1.1619
  539MOL0     H72703   8.372  10.897   6.993 -2.7270 -0.3038  1.1898
  539MOL0     H72704   8.251  10.738   7.158  0.5863 -0.9160  1.5352
  539MOL0     H72705   8.371  10.788   7.275 -1.2830 -0.4671  0.4437
  539MOL0     H72706   8.288  11.013   7.277  3.6987  2.1778 -3.0908
  539MOL0     H72707   8.194  10.992   7.123  0.6699  1.2702  0.9430
  539MOL0     H72708   8.050  11.010   7.307 -2.6716 -0.8811 -1.5406
  539MOL0     H72709   8.034  10.861   7.224 -0.4404  2.1917 -1.8796
  539MOL0     H72710   8.005  10.798   7.446  0.0602 -1.5509 -2.4432
  539MOL0     H72711   8.158  10.736   7.418  1.5815  0.4567  5.1136
  539MOL0     H72712   8.249  10.970   7.509  0.0850 -0.0818 -0.6814
  539MOL0     H72713   8.079  10.965   7.575 -0.6906 -1.0144 -0.1876
  539MOL0     H72714   8.165  10.709   7.641 -0.5608 -0.0817 -1.5679
  539MOL0     H72715   8.189  10.848   7.759  0.5932  0.4421  0.4452
  539MOL0     H72716   8.365  10.647   7.485  0.5832 -0.5667  0.8039
  539MOL0     H72717   8.653  10.672   7.392 -1.4594 -1.0462  0.5874
  539MOL0     H72718   8.759  10.724   7.523 -1.2234  1.9055 -0.2696
  539MOL0     H72719   8.784  10.483   7.496 -0.6460 -1.6368  3.1146
  539MOL0     H72720   8.623  10.451   7.506  0.3535  0.7621 -1.5563
  539MOL0     H72721   8.726  10.384   7.714 -1.6816  0.1157 -0.5938
  539MOL0     H72722   8.640  10.525   7.772  0.3868 -2.4299  1.0321
  539MOL0     H72723   8.839  10.524   7.870 -1.7021 -1.1330 -0.6210
  539MOL0     H72724   8.830  10.670   7.762 -4.1990  0.0930  2.2186
  539MOL0     H72725   9.005  10.603   7.962 -0.3629  1.9875 -1.2709
  539MOL0     H72726   9.124  10.678   8.126 -0.0262  0.3328  2.4644
  539MOL0     H72727   9.197  10.525   8.193 -0.0650 -0.1859 -1.8116
  539MOL0     H72728   9.296  10.664   8.154  1.4952 -1.4433 -0.0112
  539MOL0     H72729   9.604  10.309   8.073 -2.3206  0.9279  2.6582
  539MOL0     H72730   9.838  10.229   8.146 -2.6827 -1.7938 -0.2640
  539MOL0     H72731  10.054  10.235   8.170  0.5758 -1.3772 -0.2022
  539MOL0     H72732  10.080  10.388   8.073 -0.9031  0.2567  0.0690
  539MOL0     H72733  10.275  10.443   8.161 -1.1598 -0.1245 -0.9857
  539MOL0     H72734  10.256  10.333   8.303 -0.0322  1.5351  0.6669
  539MOL0     H72735  10.306  10.148   8.189 -2.3478  1.1045  0.8834
  539MOL0     H72736  10.420  10.271   8.130 -0.4939 -0.1157  0.3145
  539MOL0     H72737  10.162  10.180   7.988 -0.8045 -0.6729  0.6734
  539MOL0     H72738  10.270  10.302   7.919 -1.8978 -1.3802 -1.0144
  539MOL0     H72739  10.331  10.019   7.952  1.5760  0.3579  1.8557
  539MOL0     H72740  10.458  10.125   7.920 -0.8924 -3.4364 -0.5126
  539MOL0     H72741  10.220  10.093   7.723  0.7715  2.3906 -1.4536
  539MOL0     H72742  10.368  10.188   7.714 -0.9482 -0.8061 -1.6381
  539MOL0     H72743  10.325   9.878   7.738 -0.3616 -0.4945 -1.7480
  539MOL0     H72744  10.490   9.949   7.753 -0.4022  1.5885 -0.8936
  539MOL0     H72745  10.492   9.868   7.543  0.9879  0.1173 -1.7310
  539MOL0     H72746  10.507  10.041   7.548 -0.6107 -0.2103 -2.1854
  539MOL0     H72747   9.900  10.632   8.291  0.8143  1.3351 -0.9906
  539MOL0     H72748   9.650  10.688   8.234 -0.1891 -1.0583  0.6205
  539MOL0     H72749   9.392  10.421   7.731  0.5652 -0.0117  0.3683
  539MOL0     H72750   9.177  10.427   7.614 -4.0177 -1.7267  0.7357
  539MOL0     H72751   8.391  10.451   7.165  0.8483  0.8227  2.7301
  539MOL0     H72752   8.466  10.210   7.141 -2.6022  1.8005  1.6188
  539MOL0     H72753   9.048   9.934   7.273  0.5823  0.2479  0.3589
  539MOL0     H72754   9.071   9.693   7.265 -0.2651 -0.9383  0.0691
  539MOL0     H72755   8.885   9.361   7.040  1.4748  0.2029 -2.3064
  539MOL0     H72756   8.782   9.495   6.996  0.1097  0.9759 -0.5903
  539MOL0     H72757   9.083   9.461   6.957  0.9705 -0.4187 -0.9349
  539MOL0     H72758   9.013   9.618   6.952  2.3515  0.1553 -2.8776
  539MOL0     H72759   8.884   9.572   6.758  1.6396  1.5823 -1.8201
  539MOL0     H72760   8.890   9.400   6.787 -0.4124  0.0299 -0.8003
  539MOL0     H72761   9.026   9.475   6.608  1.8570 -1.3020 -1.4117
  539MOL0     H72762   9.130   9.391   6.733  2.0623  2.1067  2.8485
  539MOL0     H72763   9.326   9.764   6.739 -0.3872  1.5284 -0.7259
  539MOL0     H72764   8.681   9.642   7.101 -0.5119  1.9105 -1.9274
  539MOL0     H72765   8.651   9.895   7.104 -1.0256 -0.3565 -0.1313
  540MOL0     O72766   1.671   7.350   5.060  0.1757 -0.1844 -0.1077
  540MOL0     C72767   1.721   7.354   4.952  0.6202 -0.5103  0.0062
  540MOL0     O72768   1.851   7.353   4.929 -0.3021  0.4144  1.1063
  540MOL0     C72769   1.954   7.337   5.012 -1.2555  1.3367 -0.1205
  540MOL0     C72770   1.938   7.335   5.149 -0.5085  0.5762  0.4502
  540MOL0     C72771   2.050   7.329   5.233  0.9921 -0.2165 -0.1771
  540MOL0     C72772   2.178   7.310   5.183  0.5769 -0.6147  0.1749
  540MOL0     O72773   2.276   7.293   5.273  0.3190 -0.2114  0.7391
  540MOL0     C72774   2.417   7.270   5.234  0.2940 -0.7124 -1.2243
  540MOL0     C72775   2.512   7.321   5.340  0.3274 -0.0428 -0.0159
  540MOL0     C72776   2.523   7.229   5.461 -0.3680  0.3012  0.8666
  540MOL0     C72777   2.419   7.232   5.574  0.0623  0.7520 -0.5101
  540MOL0     C72778   2.419   7.098   5.651  0.4894  0.2831 -0.0953
  540MOL0     C72779   2.549   7.085   5.724 -0.1365 -0.4291  0.1999
  540MOL0     C72780   2.551   6.983   5.834  1.2587  0.2821  0.8564
  540MOL0     C72781   2.492   6.852   5.797  0.4002 -0.6746 -0.7723
  540MOL0     N72782   2.510   6.759   5.910 -0.2648 -0.1548  0.6676
  540MOL0     C72783   2.408   6.720   5.994 -0.4004 -0.7289  0.1463
  540MOL0     C72784   2.465   6.613   6.061  0.1894 -0.6728  0.2264
  540MOL0     C72785   2.394   6.524   6.159  0.8036 -0.7440  0.6287
  540MOL0     C72786   2.438   6.548   6.305 -0.1914 -0.2334  0.2714
  540MOL0     C72787   2.578   6.496   6.344  0.5424 -0.1084 -0.4557
  540MOL0     C72788   2.601   6.347   6.320  0.4018 -0.2423 -0.1663
  540MOL0     O72789   2.737   6.310   6.353  0.1875 -0.6947  0.0376
  540MOL0     C72790   2.757   6.210   6.436  0.1894 -0.4061  0.0029
  540MOL0     C72791   2.795   6.227   6.572 -0.4845  0.1075 -0.5987
  540MOL0     C72792   2.790   6.115   6.665 -0.0082 -0.5060  0.1196
  540MOL0     C72793   2.800   6.154   6.808  0.2973 -0.5531  0.9948
  540MOL0     C72794   2.772   5.986   6.615  0.6645 -0.2899 -0.5229
  540MOL0     C72795   2.779   5.854   6.688 -0.4341 -0.0504 -0.2323
  540MOL0     O72796   2.887   5.781   6.687 -0.5130  1.0487  0.2396
  540MOL0     C72797   2.891   5.672   6.778 -0.3785 -0.2705 -0.7851
  540MOL0     C72798   2.980   5.682   6.887  0.2857 -0.7651 -0.4089
  540MOL0     C72799   3.005   5.573   6.974  0.5094 -1.6848  0.3704
  540MOL0     C72800   2.942   5.448   6.944 -0.3272  0.5294 -0.3966
  540MOL0     O72801   2.972   5.333   7.013  1.3075  0.9857  0.0135
  540MOL0     C72802   2.854   5.252   7.042  0.2702 -0.5267 -0.9132
  540MOL0     C72803   2.895   5.171   7.164  0.9360  0.0784 -0.4164
  540MOL0     C72804   2.792   5.055   7.177 -0.3796 -0.3498  0.5153
  540MOL0     C72805   2.800   4.979   7.317 -0.0309  0.8940  0.7735
  540MOL0     C72806   2.858   4.834   7.300 -0.0211  0.0569 -1.2681
  540MOL0     C72807   2.880   4.771   7.443 -0.7680  0.1634 -0.6673
  540MOL0     C72808   2.976   4.831   7.550  0.4236 -0.3691 -0.5296
  540MOL0     C72809   2.993   4.732   7.670  0.2966  0.7539 -0.0319
  540MOL0    Cl72810   2.851   4.737   7.782 -0.7303 -0.2563 -0.1037
  540MOL0     C72811   2.861   5.438   6.829 -0.1836 -0.0441 -0.0220
  540MOL0     C72812   2.834   5.549   6.755 -0.8758  0.6231  0.4523
  540MOL0     O72813   2.679   5.829   6.755 -0.0075 -0.2603  0.5923
  540MOL0     C72814   2.735   5.972   6.475 -0.4945 -0.2091  0.2819
  540MOL0     C72815   2.723   6.082   6.392  0.3916 -0.2064 -0.1328
  540MOL0     N72816   2.600   6.600   6.025  0.4664 -0.3678 -0.1728
  540MOL0     N72817   2.626   6.691   5.940 -0.1458 -0.0447 -0.1751
  540MOL0     C72818   2.193   7.308   5.044 -0.0300  0.2370  0.3877
  540MOL0     C72819   2.082   7.329   4.958  0.5818 -0.1254 -0.0673
  540MOL0     C72820   1.626   7.371   4.839  0.4595  0.3534  0.2796
  540MOL0     C72821   1.507   7.307   4.854  0.2491 -0.0746  0.4593
  540MOL0     C72822   1.409   7.327   4.759 -0.5437  0.4917  0.9589
  540MOL0     C72823   1.437   7.401   4.643  0.1754  0.2844 -0.0523
  540MOL0     O72824   1.343   7.425   4.544 -0.0388  0.4579  0.1903
  540MOL0     C72825   1.211   7.437   4.579  0.2919  0.2285 -0.4457
  540MOL0     C72826   1.131   7.503   4.466  0.3023  0.4183  0.3667
  540MOL0     C72827   1.162   7.650   4.452 -0.4446 -0.1110  0.1101
  540MOL0     C72828   1.143   7.687   4.303  0.4996  0.1128 -0.7093
  540MOL0     C72829   1.007   7.673   4.239 -0.4557 -0.2950 -0.6568
  540MOL0     C72830   0.899   7.657   4.193  0.2347 -0.5608  0.8331
  540MOL0     C72831   1.559   7.462   4.621 -1.2270  1.5858  0.7882
  540MOL0     C72832   1.653   7.447   4.722 -0.2146  0.0243 -0.2221
  540MOL0     H72833   1.843   7.346   5.200 -1.2819 -3.1961  0.0927
  540MOL0     H72834   2.039   7.349   5.339  0.9243  0.7010 -0.3525
  540MOL0     H72835   2.448   7.165   5.222  2.9695 -0.2457  0.6907
  540MOL0     H72836   2.444   7.319   5.140  1.2390 -0.7132 -0.9631
  540MOL0     H72837   2.613   7.322   5.298  0.4004  0.9224  0.1479
  540MOL0     H72838   2.479   7.422   5.368  2.0354  0.8767 -1.1176
  540MOL0     H72839   2.536   7.124   5.434  1.3476  0.5671  0.5160
  540MOL0     H72840   2.623   7.250   5.501 -0.3171  2.1414 -0.1160
  540MOL0     H72841   2.448   7.311   5.644  0.2141 -0.8991  1.4190
  540MOL0     H72842   2.321   7.255   5.533 -0.2428  2.3603  1.0031
  540MOL0     H72843   2.347   7.091   5.733  3.0552  2.7543  2.5620
  540MOL0     H72844   2.404   7.014   5.582 -2.6451  1.7240 -1.3771
  540MOL0     H72845   2.620   7.045   5.651 -0.2123 -0.8636  0.3679
  540MOL0     H72846   2.595   7.177   5.761  0.5636 -0.7810  0.2119
  540MOL0     H72847   2.655   6.958   5.857  1.0439 -0.1090  1.4273
  540MOL0     H72848   2.496   7.016   5.923  1.3621  1.2829  0.5696
  540MOL0     H72849   2.563   6.825   5.718  2.7365  1.4512  0.4658
  540MOL0     H72850   2.389   6.857   5.759  0.0935 -2.7544 -0.3303
  540MOL0     H72851   2.306   6.756   6.001 -0.2815 -0.2360 -0.5627
  540MOL0     H72852   2.287   6.544   6.147  0.5655 -1.1056  1.9701
  540MOL0     H72853   2.424   6.423   6.127 -0.1301  0.0872 -3.5481
  540MOL0     H72854   2.359   6.508   6.369 -1.2490  0.0007 -0.8575
  540MOL0     H72855   2.443   6.657   6.317 -0.8508  0.1395 -2.2029
  540MOL0     H72856   2.584   6.510   6.453 -0.5297  1.1623 -0.5305
  540MOL0     H72857   2.659   6.551   6.295  2.5237 -1.2476  1.3795
  540MOL0     H72858   2.593   6.313   6.217  0.0452 -0.2054 -0.1515
  540MOL0     H72859   2.537   6.287   6.386  1.5443 -2.2345 -0.8010
  540MOL0     H72860   2.821   6.329   6.598 -1.9295  0.3526  0.0120
  540MOL0     H72861   2.758   6.074   6.869 -2.8698  0.4419  0.2972
  540MOL0     H72862   2.907   6.174   6.825  1.1526 -2.4949 -1.4502
  540MOL0     H72863   2.733   6.238   6.827 -1.3925 -2.4477  4.2007
  540MOL0     H72864   3.033   5.775   6.907 -1.4748  0.4093 -1.0017
  540MOL0     H72865   3.081   5.573   7.051  0.8867 -2.7612  0.0276
  540MOL0     H72866   2.777   5.325   7.069  1.3693  0.7934 -1.2205
  540MOL0     H72867   2.840   5.188   6.954  1.5230 -3.5296  0.9115
  540MOL0     H72868   2.992   5.126   7.145  0.8452  0.6442 -2.3896
  540MOL0     H72869   2.892   5.224   7.260 -0.5527 -0.8282  0.0853
  540MOL0     H72870   2.817   4.992   7.092  5.3692  0.9242  0.8774
  540MOL0     H72871   2.695   5.106   7.179  0.3142  1.0169  0.3558
  540MOL0     H72872   2.871   5.032   7.382 -1.3059  1.0364  2.1090
  540MOL0     H72873   2.698   4.967   7.355 -1.1136  1.0287 -1.9325
  540MOL0     H72874   2.956   4.838   7.251  1.9962 -2.8247  2.0176
  540MOL0     H72875   2.791   4.772   7.240  0.1516  0.1337 -1.5430
  540MOL0     H72876   2.780   4.766   7.487 -1.2106  1.0224 -1.5268
  540MOL0     H72877   2.910   4.670   7.416 -1.0119 -0.5318  1.4528
  540MOL0     H72878   2.930   4.920   7.593  3.9110  2.1160 -1.5154
  540MOL0     H72879   3.071   4.859   7.505 -0.6899  0.5175 -2.4773
  540MOL0     H72880   3.090   4.761   7.710  0.2117  2.6973 -1.1210
  540MOL0     H72881   3.001   4.630   7.632 -2.8971 -0.5939  2.3602
  540MOL0     H72882   2.836   5.336   6.802  0.2174 -0.1209 -0.1131
  540MOL0     H72883   2.776   5.535   6.665  1.0757 -0.7064 -0.6744
  540MOL0     H72884   2.706   5.874   6.439  2.6152 -0.6708 -1.3046
  540MOL0     H72885   2.679   6.066   6.294 -1.0185  3.5786 -0.3045
  540MOL0     H72886   2.285   7.287   4.991 -1.6193 -1.6169 -1.8190
  540MOL0     H72887   2.098   7.330   4.851  0.6092 -0.4460 -0.0654
  540MOL0     H72888   1.468   7.252   4.938 -0.2921 -0.8389 -0.2754
  540MOL0     H72889   1.314   7.277   4.770  0.9070 -2.6255  0.5526
  540MOL0     H72890   1.170   7.344   4.620 -2.4170  2.1621  1.5899
  540MOL0     H72891   1.202   7.506   4.664  2.7027  0.7658 -0.5618
  540MOL0     H72892   1.023   7.494   4.477  0.3309 -1.0223 -0.2373
  540MOL0     H72893   1.171   7.446   4.382 -1.0832  0.5308 -0.3990
  540MOL0     H72894   1.258   7.677   4.498 -1.5023 -0.3315  2.6000
  540MOL0     H72895   1.093   7.717   4.504 -1.2943  0.2754 -1.4368
  540MOL0     H72896   1.214   7.622   4.249 -1.4689 -3.0847  0.2599
  540MOL0     H72897   1.178   7.791   4.302  2.8804 -0.5351  1.4180
  540MOL0     H72898   0.795   7.649   4.167  0.8520  1.6460 -3.0776
  540MOL0     H72899   1.584   7.520   4.533  1.1783 -0.4735  0.0081
  540MOL0     H72900   1.755   7.483   4.721  0.7264 -2.3584  1.4543
  541MOL0     O72901  10.465   5.843   6.406 -0.1840  0.2132 -0.1842
  541MOL0     C72902  10.582   5.827   6.426  0.3004 -0.7064 -0.2479
  541MOL0     O72903  10.672   5.805   6.334 -0.4576  0.1241 -0.0505
  541MOL0     C72904  10.624   5.778   6.205  0.2239 -0.4402 -0.0246
  541MOL0     C72905  10.596   5.867   6.104  0.5107 -0.0557 -0.2836
  541MOL0     C72906  10.592   5.822   5.973  0.6604  0.2470  1.2578
  541MOL0     C72907  10.601   5.683   5.946  0.5065  0.5517 -0.1025
  541MOL0     O72908  10.593   5.631   5.821  0.3305 -0.8856  0.0914
  541MOL0     C72909  10.641   5.706   5.703  0.9512  0.2063  0.3654
  541MOL0     C72910  10.653   5.620   5.578 -0.1741  0.7046  0.1111
  541MOL0     C72911  10.647   5.690   5.441 -0.1365  0.3864  0.6585
  541MOL0     C72912  10.505   5.717   5.403  0.1202  0.2945  0.1325
  541MOL0     C72913  10.509   5.795   5.268 -0.9124 -0.2083 -0.2650
  541MOL0     C72914  10.382   5.792   5.193  0.8094  0.1334  0.1094
  541MOL0     C72915  10.397   5.892   5.071 -0.7383  0.1472 -0.4881
  541MOL0     C72916  10.493   5.835   4.964 -0.5516  0.1217 -0.7235
  541MOL0     N72917  10.488   5.909   4.834 -0.4964  0.3305  0.3077
  541MOL0     C72918  10.469   6.047   4.813  0.2178  1.3986 -0.8224
  541MOL0     C72919  10.528   6.065   4.693 -0.0783 -0.0775 -0.6451
  541MOL0     C72920  10.556   6.186   4.610 -0.1017 -0.4286  0.5265
  541MOL0     C72921  10.553   6.317   4.690  0.2246  0.4711 -1.0812
  541MOL0     C72922  10.640   6.331   4.817  0.3714 -1.0356  1.1355
  541MOL0     C72923  10.650   6.469   4.886  0.5245  0.1399  0.3410
  541MOL0     O72924  10.540   6.554   4.845  0.5643  0.1876 -0.4130
  541MOL0     C72925  10.531   6.671   4.919 -0.6257 -0.0320 -0.1137
  541MOL0     C72926  10.530   6.789   4.854  0.2899  0.3530 -0.2104
  541MOL0     C72927  10.555   6.915   4.912 -0.2409  0.1981  0.1272
  541MOL0     C72928  10.573   7.032   4.814 -0.1309  0.7683 -0.9138
  541MOL0     C72929  10.554   6.922   5.051 -0.2039  0.1625  0.6585
  541MOL0     C72930  10.570   7.053   5.126  1.0894  0.0308  0.0775
  541MOL0     O72931  10.502   7.058   5.245  0.4142  0.6531  0.7135
  541MOL0     C72932  10.547   7.139   5.341 -0.2281 -0.5936  0.0451
  541MOL0     C72933  10.573   7.074   5.463 -0.7218 -0.5159 -0.3924
  541MOL0     C72934  10.625   7.151   5.573 -0.1635 -0.9282  0.4024
  541MOL0     C72935  10.637   7.287   5.564  0.1744 -0.2603  0.5748
  541MOL0     O72936  10.679   7.344   5.682  0.1734 -0.0313 -0.8296
  541MOL0     C72937  10.702   7.486   5.682 -0.4371 -0.8923 -0.0463
  541MOL0     C72938  10.571   7.535   5.749  0.2930 -0.5719  0.3981
  541MOL0     C72939  10.567   7.691   5.760 -0.1409  0.7396  0.0349
  541MOL0     C72940  10.596   7.773   5.641  0.3934 -0.6877  0.1416
  541MOL0     C72941  10.589   7.921   5.684  0.6083 -0.3064 -0.1197
  541MOL0     C72942  10.665   7.981   5.809  0.1448 -0.2810 -0.1108
  541MOL0     C72943  10.812   7.956   5.817 -0.8950  0.4215 -0.4265
  541MOL0     C72944  10.879   8.019   5.933 -0.8781 -0.1877  0.1537
  541MOL0    Cl72945  10.876   8.194   5.932 -0.6792 -0.0499 -0.1108
  541MOL0     C72946  10.605   7.350   5.437 -0.6114 -0.7908  0.0256
  541MOL0     C72947  10.565   7.281   5.326 -0.2733  0.5061  0.3939
  541MOL0     O72948  10.646   7.148   5.091 -0.4983 -0.5255 -0.1489
  541MOL0     C72949  10.535   6.806   5.122 -0.0784  0.7528 -0.3235
  541MOL0     C72950  10.527   6.678   5.061 -0.3545  0.1511  0.9499
  541MOL0     N72951  10.584   5.948   4.645  1.0774  0.2154  0.5299
  541MOL0     N72952  10.553   5.850   4.727 -0.0989 -0.5164  0.3210
  541MOL0     C72953  10.605   5.589   6.051 -0.4384  0.7420 -0.0442
  541MOL0     C72954  10.610   5.640   6.179 -0.0597 -0.0674 -0.1365
  541MOL0     C72955  10.620   5.850   6.568 -0.1415  0.0720 -0.8000
  541MOL0     C72956  10.539   5.895   6.675 -0.3106  0.2897 -0.6208
  541MOL0     C72957  10.591   5.937   6.799 -0.0504 -1.2877  0.9615
  541MOL0     C72958  10.725   5.910   6.820  0.3897 -0.4121  1.0911
  541MOL0     O72959  10.763   5.944   6.943 -0.1376  0.1856 -1.0657
  541MOL0     C72960  10.880   6.009   6.984 -0.6779 -0.1172  1.2556
  541MOL0     C72961  10.979   5.914   7.046 -0.6975 -0.1198 -0.9118
  541MOL0     C72962  11.116   5.980   7.049 -0.7347 -0.6775 -0.9867
  541MOL0     C72963  11.166   6.026   7.187  0.0931  0.5385  0.8321
  541MOL0     C72964  11.100   6.152   7.222 -0.3055  0.0688 -0.6184
  541MOL0     C72965  11.072   6.265   7.230 -0.4805 -1.1318  0.2893
  541MOL0     C72966  10.808   5.840   6.730 -0.8502  0.1076  0.4675
  541MOL0     C72967  10.753   5.814   6.606 -0.4220  0.5137  0.9979
  541MOL0     H72968  10.592   5.970   6.135 -1.3853 -0.4303  0.8255
  541MOL0     H72969  10.572   5.885   5.886 -0.4960 -0.5727  0.8958
  541MOL0     H72970  10.563   5.779   5.685 -0.7265 -1.9930 -1.9539
  541MOL0     H72971  10.734   5.755   5.735  0.1083  0.1242  3.2720
  541MOL0     H72972  10.759   5.590   5.579  0.2323  2.0378  1.3467
  541MOL0     H72973  10.589   5.532   5.589  1.8880 -0.6079  2.7384
  541MOL0     H72974  10.701   5.784   5.443  3.6051 -1.5621  2.4946
  541MOL0     H72975  10.695   5.618   5.374  1.5863  0.2295  1.9715
  541MOL0     H72976  10.447   5.626   5.384  0.9355  0.0314 -1.3135
  541MOL0     H72977  10.453   5.783   5.473 -2.1888  1.0165 -2.1116
  541MOL0     H72978  10.537   5.899   5.285  0.9684 -0.7487  0.2076
  541MOL0     H72979  10.588   5.756   5.203  0.4361  0.1658  1.0717
  541MOL0     H72980  10.363   5.689   5.162 -1.4475  0.7951 -0.9314
  541MOL0     H72981  10.298   5.833   5.250  2.8593  4.8824  0.1817
  541MOL0     H72982  10.296   5.906   5.031 -2.2108 -0.0401  2.8335
  541MOL0     H72983  10.433   5.988   5.109  3.9251 -0.5613 -2.4780
  541MOL0     H72984  10.480   5.727   4.949 -2.6834  0.1744  0.4561
  541MOL0     H72985  10.597   5.849   4.997  0.6095 -0.2343 -3.8132
  541MOL0     H72986  10.412   6.114   4.878 -2.6317 -2.5443  1.1637
  541MOL0     H72987  10.656   6.183   4.566  0.2366 -1.2563  1.3219
  541MOL0     H72988  10.479   6.177   4.533 -0.7743 -5.5975  1.4476
  541MOL0     H72989  10.449   6.328   4.723 -0.1423 -1.4792 -1.4648
  541MOL0     H72990  10.574   6.402   4.625  0.3323  1.1701 -0.1508
  541MOL0     H72991  10.745   6.305   4.801  0.8298  0.5725  1.3207
  541MOL0     H72992  10.612   6.258   4.893 -0.7400 -1.0989  0.6767
  541MOL0     H72993  10.743   6.512   4.849  0.3505  1.0246  0.9186
  541MOL0     H72994  10.648   6.451   4.994  1.2288 -0.1289  0.3102
  541MOL0     H72995  10.526   6.780   4.746 -1.6628  1.5580 -0.2808
  541MOL0     H72996  10.505   7.111   4.847 -0.6363 -0.9941  2.8252
  541MOL0     H72997  10.670   7.079   4.829 -0.5990  1.0469  1.7316
  541MOL0     H72998  10.549   7.005   4.711 -3.0026 -1.4468  0.2071
  541MOL0     H72999  10.572   6.970   5.492 -0.2755  0.3350  3.2554
  541MOL0     H73000  10.657   7.105   5.666  1.1608  0.8741  0.8932
  541MOL0     H73001  10.789   7.496   5.749 -0.4122 -3.3778  0.4073
  541MOL0     H73002  10.720   7.529   5.583 -0.9582 -1.5004 -0.4102
  541MOL0     H73003  10.490   7.509   5.680  0.0458  2.7299 -0.7367
  541MOL0     H73004  10.562   7.500   5.852  0.6536  3.5568  1.9947
  541MOL0     H73005  10.643   7.717   5.834 -1.8354  1.2711  1.6586
  541MOL0     H73006  10.480   7.730   5.814 -2.2132 -1.3994 -1.5133
  541MOL0     H73007  10.690   7.747   5.591 -0.6969 -3.0182 -0.8573
  541MOL0     H73008  10.516   7.743   5.573 -0.8578 -0.8135  1.6160
  541MOL0     H73009  10.483   7.945   5.695  0.1257 -0.1878 -3.7685
  541MOL0     H73010  10.626   7.973   5.595  1.4860 -2.2073 -0.9247
  541MOL0     H73011  10.655   8.089   5.798 -5.4685 -0.1492  2.8339
  541MOL0     H73012  10.622   7.949   5.904 -2.6053  0.8578 -0.8739
  541MOL0     H73013  10.856   7.995   5.725 -0.7179 -0.7744 -0.8765
  541MOL0     H73014  10.836   7.850   5.827 -0.3437  0.7004  1.5983
  541MOL0     H73015  10.980   7.977   5.926  1.0184  4.0701 -1.0807
  541MOL0     H73016  10.830   7.980   6.023  0.8301  0.1717  1.2906
  541MOL0     H73017  10.617   7.457   5.422  1.5744 -1.2410 -1.9845
  541MOL0     H73018  10.543   7.336   5.236 -2.0457  0.0885  0.5308
  541MOL0     H73019  10.501   6.814   5.225 -1.1398 -3.0695 -0.2179
  541MOL0     H73020  10.540   6.594   5.127  3.3714  1.2935  1.8924
  541MOL0     H73021  10.602   5.482   6.038  1.3600  0.4800  1.2764
  541MOL0     H73022  10.629   5.575   6.264 -3.3594 -1.0059  0.0203
  541MOL0     H73023  10.433   5.906   6.657  0.0349  3.7592 -1.3677
  541MOL0     H73024  10.522   5.990   6.864 -1.3569  2.4737 -2.9789
  541MOL0     H73025  10.917   6.054   6.891 -0.5422  2.7890  2.5959
  541MOL0     H73026  10.867   6.090   7.057  1.8593  2.2593 -0.7027
  541MOL0     H73027  10.996   5.824   6.987 -4.1306 -1.2416 -0.4048
  541MOL0     H73028  10.952   5.879   7.146 -0.7964  1.7844 -0.2332
  541MOL0     H73029  11.123   6.062   6.977  0.5484  2.0320  1.9930
  541MOL0     H73030  11.195   5.909   7.020  1.3167  0.4353  1.4570
  541MOL0     H73031  11.274   6.043   7.176 -0.3234  3.2852  0.1577
  541MOL0     H73032  11.148   5.957   7.269  3.3297  1.0647  2.1345
  541MOL0     H73033  11.054   6.369   7.246  3.8477 -0.2458  0.3269
  541MOL0     H73034  10.905   5.802   6.761  0.6107  1.6006 -1.9044
  541MOL0     H73035  10.808   5.759   6.530 -1.8826  2.0381 -1.2934
  542MOL0     O73036   3.496   4.834   0.365 -0.0151  0.8718 -0.3093
  542MOL0     C73037   3.609   4.840   0.404 -0.1944  0.6892 -0.3693
  542MOL0     O73038   3.709   4.756   0.369 -0.5024  0.5901  0.2328
  542MOL0     C73039   3.672   4.641   0.307  0.8045 -0.4894  0.9868
  542MOL0     C73040   3.645   4.629   0.171  0.2910  0.2055 -0.7467
  542MOL0     C73041   3.617   4.507   0.106 -0.4712  0.2044 -0.6743
  542MOL0     C73042   3.618   4.389   0.186  0.2617  0.2190 -0.9455
  542MOL0     O73043   3.611   4.270   0.120 -0.4671  0.0991  0.4112
  542MOL0     C73044   3.737   4.222   0.082 -0.1329 -0.8279 -0.3720
  542MOL0     C73045   3.707   4.125  -0.034 -0.3380 -0.9340 -0.1053
  542MOL0     C73046   3.606   4.021   0.009  0.6569  0.7351  0.2780
  542MOL0     C73047   3.586   3.912  -0.099 -0.1515 -0.7166  0.0067
  542MOL0     C73048   3.713   3.833  -0.115 -0.1097 -0.1698  0.2562
  542MOL0     C73049   3.681   3.718  -0.215  0.3279 -0.0426  0.0100
  542MOL0     C73050   3.796   3.621  -0.232 -0.7234 -0.6281  0.4631
  542MOL0     C73051   3.757   3.479  -0.285 -0.1825  0.8515 -0.3647
  542MOL0     N73052   3.670   3.486  -0.402  0.0845  0.0438  0.8371
  542MOL0     C73053   3.713   3.513  -0.527 -0.0235 -0.6527  0.4946
  542MOL0     C73054   3.605   3.520  -0.605 -0.4595  0.2426  0.1740
  542MOL0     C73055   3.589   3.552  -0.749 -0.0721  0.3528  0.1333
  542MOL0     C73056   3.545   3.431  -0.830  0.1087 -0.0358 -0.2446
  542MOL0     C73057   3.423   3.348  -0.794  1.2515 -0.8471  0.5765
  542MOL0     C73058   3.299   3.433  -0.770 -0.6032  0.1875 -0.3562
  542MOL0     O73059   3.293   3.523  -0.887  0.0778 -0.3733 -0.3185
  542MOL0     C73060   3.179   3.600  -0.894  0.9140  0.1612 -0.1223
  542MOL0     C73061   3.074   3.609  -0.803 -0.7476 -0.4764 -0.8838
  542MOL0     C73062   2.970   3.700  -0.827 -0.0942 -0.2731 -0.1243
  542MOL0     C73063   2.879   3.730  -0.704 -0.3706 -0.0710  0.5156
  542MOL0     C73064   2.960   3.771  -0.949  0.2527  0.6595 -0.6012
  542MOL0     C73065   2.839   3.852  -0.977 -0.1948  0.5940 -0.4623
  542MOL0     O73066   2.869   3.949  -1.064  0.8164  0.5615 -0.4674
  542MOL0     C73067   2.785   4.052  -1.075 -0.8944 -0.6384 -0.0565
  542MOL0     C73068   2.823   4.135  -1.182  1.3136 -0.0811  0.2103
  542MOL0     C73069   2.766   4.253  -1.201  0.0268 -1.1456  0.2180
  542MOL0     C73070   2.661   4.294  -1.118  0.4734 -0.2330  0.0886
  542MOL0     O73071   2.607   4.417  -1.116  0.1096  0.2569  0.1791
  542MOL0     C73072   2.581   4.475  -1.244  0.4936 -0.9704  0.6449
  542MOL0     C73073   2.515   4.621  -1.236 -0.8969 -0.0339 -0.5329
  542MOL0     C73074   2.496   4.700  -1.361 -0.3471 -0.6579  0.7353
  542MOL0     C73075   2.627   4.731  -1.434  0.8982  0.8872  1.0669
  542MOL0     C73076   2.646   4.627  -1.548  0.9374 -0.4613  0.5152
  542MOL0     C73077   2.756   4.672  -1.655 -0.5027  0.3294 -0.2390
  542MOL0     C73078   2.893   4.673  -1.570  0.5091  0.0291  0.5969
  542MOL0     C73079   3.003   4.763  -1.627  0.2007  1.0501  0.2545
  542MOL0    Cl73080   3.096   4.652  -1.731 -0.3500 -0.1106 -0.0741
  542MOL0     C73081   2.612   4.216  -1.012 -0.4495  0.0161 -0.4790
  542MOL0     C73082   2.674   4.091  -0.991 -0.4645 -0.6418 -0.0996
  542MOL0     O73083   2.732   3.812  -0.937  1.0110  0.2575 -0.6374
  542MOL0     C73084   3.068   3.764  -1.040  0.5528 -1.2472 -0.2896
  542MOL0     C73085   3.176   3.679  -1.012 -0.3100  0.2150 -0.8002
  542MOL0     N73086   3.498   3.490  -0.523  0.3075 -0.1129  0.2619
  542MOL0     N73087   3.534   3.471  -0.403 -0.1571  0.3509  0.2021
  542MOL0     C73088   3.646   4.404   0.327  0.1907 -0.5505  0.3917
  542MOL0     C73089   3.673   4.527   0.389  0.0415 -0.0757  0.5495
  542MOL0     C73090   3.644   4.956   0.479  0.6805 -0.1495  0.0825
  542MOL0     C73091   3.780   4.973   0.516 -0.7871  0.2398 -0.0044
  542MOL0     C73092   3.821   5.084   0.584  0.3818  0.1627 -0.0238
  542MOL0     C73093   3.725   5.187   0.610 -0.3567 -0.6752 -0.4239
  542MOL0     O73094   3.763   5.311   0.662  0.0105 -0.0920 -0.2200
  542MOL0     C73095   3.825   5.310   0.784 -0.0071  0.1360 -0.0991
  542MOL0     C73096   3.727   5.269   0.891  0.6128  0.1618  0.0537
  542MOL0     C73097   3.778   5.280   1.043 -0.8207 -0.6958 -0.1714
  542MOL0     C73098   3.924   5.242   1.056 -0.4016 -0.7080 -0.2930
  542MOL0     C73099   3.963   5.243   1.201  0.6648 -1.2896  0.3465
  542MOL0     C73100   3.977   5.269   1.316 -0.0619  1.4122  0.2190
  542MOL0     C73101   3.594   5.176   0.571  0.1437 -0.3657 -0.6035
  542MOL0     C73102   3.550   5.063   0.505 -0.0348 -0.3712  0.2014
  542MOL0     H73103   3.642   4.724   0.117  0.2100  0.1589 -0.8248
  542MOL0     H73104   3.587   4.510   0.002 -0.9312  1.4986 -0.5268
  542MOL0     H73105   3.785   4.311   0.040 -1.9444  0.6171  0.4757
  542MOL0     H73106   3.795   4.189   0.168  0.5081  2.2215  0.4911
  542MOL0     H73107   3.661   4.178  -0.118  3.7617 -1.2924 -2.8774
  542MOL0     H73108   3.801   4.080  -0.069 -0.7936  0.0685 -2.9008
  542MOL0     H73109   3.631   3.976   0.105  1.3910  2.0668  0.7480
  542MOL0     H73110   3.505   4.059   0.024 -1.0581 -3.1802 -0.2402
  542MOL0     H73111   3.532   3.845  -0.032 -0.5663  1.7520  2.3237
  542MOL0     H73112   3.527   3.936  -0.188 -3.0489 -0.1967  1.9251
  542MOL0     H73113   3.775   3.904  -0.170 -0.3557  0.4335  0.7444
  542MOL0     H73114   3.747   3.805  -0.015 -1.0566  3.5482  1.7509
  542MOL0     H73115   3.596   3.668  -0.169 -1.9576  2.6473 -1.0319
  542MOL0     H73116   3.648   3.744  -0.316  0.6714  0.4324  0.0201
  542MOL0     H73117   3.865   3.647  -0.313 -0.7985 -0.5663  0.4190
  542MOL0     H73118   3.850   3.600  -0.140 -0.7175 -0.7677  0.4283
  542MOL0     H73119   3.698   3.435  -0.204  0.2927  1.4736  0.3418
  542MOL0     H73120   3.847   3.422  -0.310 -0.8673 -0.6035  0.4059
  542MOL0     H73121   3.814   3.535  -0.561 -0.8863  2.0020 -0.6609
  542MOL0     H73122   3.519   3.635  -0.742  1.0735  1.2131  3.0743
  542MOL0     H73123   3.685   3.591  -0.785  1.6445 -4.0804 -0.7811
  542MOL0     H73124   3.630   3.362  -0.827  2.1101  2.2979 -0.2618
  542MOL0     H73125   3.535   3.465  -0.934 -0.2010 -0.2760 -0.2960
  542MOL0     H73126   3.447   3.283  -0.709  3.3929 -2.7833 -1.3428
  542MOL0     H73127   3.396   3.287  -0.880  0.8126  0.9146 -0.5853
  542MOL0     H73128   3.288   3.493  -0.679 -2.5488  0.9279 -1.0138
  542MOL0     H73129   3.207   3.373  -0.775 -1.0554  0.9259 -1.6758
  542MOL0     H73130   3.085   3.555  -0.710  0.2108 -1.7672 -1.7210
  542MOL0     H73131   2.835   3.830  -0.700 -0.7436 -0.2320  0.5095
  542MOL0     H73132   2.804   3.650  -0.710 -0.3207 -0.0125 -1.8472
  542MOL0     H73133   2.932   3.712  -0.611  0.3328  1.9044  0.5291
  542MOL0     H73134   2.892   4.111  -1.262 -2.7724  0.3273 -3.8300
  542MOL0     H73135   2.797   4.331  -1.271 -0.2146 -0.0690  1.2723
  542MOL0     H73136   2.677   4.496  -1.291 -0.0297  2.5385  0.8657
  542MOL0     H73137   2.518   4.401  -1.294  0.6369 -2.0279  1.9553
  542MOL0     H73138   2.415   4.611  -1.191  0.7642  0.5547  3.7592
  542MOL0     H73139   2.576   4.680  -1.167  1.4775 -1.4792 -1.2985
  542MOL0     H73140   2.468   4.804  -1.342  0.2157 -0.2676 -0.4385
  542MOL0     H73141   2.420   4.653  -1.424  0.1923  2.0157 -2.1884
  542MOL0     H73142   2.620   4.823  -1.494  2.7546  0.0475 -0.5737
  542MOL0     H73143   2.699   4.757  -1.356 -0.0636  3.9580  1.0950
  542MOL0     H73144   2.549   4.603  -1.593  1.4954  1.0189 -1.6380
  542MOL0     H73145   2.677   4.540  -1.490 -2.9100 -0.6545  2.6905
  542MOL0     H73146   2.775   4.604  -1.738 -1.0448 -1.7354  1.2513
  542MOL0     H73147   2.731   4.771  -1.695 -0.3230  0.6567  0.4477
  542MOL0     H73148   2.932   4.577  -1.534 -0.3656  0.3928  2.6061
  542MOL0     H73149   2.871   4.718  -1.473 -3.0173 -2.7695  1.3276
  542MOL0     H73150   3.058   4.795  -1.538  0.3440 -0.9514  0.9221
  542MOL0     H73151   2.958   4.850  -1.676  1.1910  1.9469  0.8995
  542MOL0     H73152   2.537   4.259  -0.947  0.2883  0.6698 -0.0344
  542MOL0     H73153   2.632   4.046  -0.901 -2.8343  0.4293 -0.5697
  542MOL0     H73154   3.052   3.816  -1.134 -0.6999 -1.5315 -0.2453
  542MOL0     H73155   3.261   3.680  -1.079  0.9241 -2.8266  0.5270
  542MOL0     H73156   3.664   4.310   0.378  2.7426 -1.7321 -2.3331
  542MOL0     H73157   3.695   4.537   0.494 -0.4331 -1.0940  0.7523
  542MOL0     H73158   3.851   4.894   0.493 -1.2045 -1.3958  3.6977
  542MOL0     H73159   3.925   5.108   0.603 -0.6153  5.0405  0.3786
  542MOL0     H73160   3.921   5.258   0.775  1.6924  3.1434 -0.6864
  542MOL0     H73161   3.876   5.404   0.808  1.2177 -0.6733  0.6024
  542MOL0     H73162   3.701   5.165   0.873  0.7207  0.4181 -1.7217
  542MOL0     H73163   3.634   5.326   0.879  1.5147  1.3458 -1.8364
  542MOL0     H73164   3.718   5.203   1.091  0.2334 -1.0177  0.6632
  542MOL0     H73165   3.751   5.376   1.089 -0.2146 -0.0093 -1.1970
  542MOL0     H73166   3.987   5.323   1.019  1.4564 -1.7038  0.5506
  542MOL0     H73167   3.941   5.138   1.026 -0.5683 -0.3573 -1.6680
  542MOL0     H73168   4.008   5.298   1.414  0.7380  1.0260  0.0875
  542MOL0     H73169   3.526   5.259   0.584 -0.7820 -1.1852  0.0076
  542MOL0     H73170   3.448   5.059   0.469  1.0485  1.1035 -3.4750
  543MOL0     O73171   3.516   4.834  11.215 -0.0387  0.4197  1.4555
  543MOL0     C73172   3.456   4.780  11.114 -0.0788  1.0603 -0.2733
  543MOL0     O73173   3.391   4.845  11.014  0.7304 -0.6162 -0.2084
  543MOL0     C73174   3.409   4.978  10.999  0.2703 -0.2351  0.5046
  543MOL0     C73175   3.516   5.032  10.914  0.8743 -0.2047  0.0756
  543MOL0     C73176   3.541   5.172  10.895  0.0426 -0.2388  0.1011
  543MOL0     C73177   3.437   5.259  10.945 -0.3128  0.3770 -0.4049
  543MOL0     O73178   3.455   5.392  10.918  0.2723 -0.1533 -0.1330
  543MOL0     C73179   3.342   5.473  10.938 -0.0256 -0.3070  0.4967
  543MOL0     C73180   3.380   5.609  10.888 -0.5350 -0.2401  0.3555
  543MOL0     C73181   3.269   5.713  10.888  1.1046 -0.0031  1.1593
  543MOL0     C73182   3.320   5.853  10.924 -0.0161  0.1537 -0.0746
  543MOL0     C73183   3.226   5.949  10.964 -0.0627  0.5450  0.4271
  543MOL0     C73184   3.149   5.932  11.097 -0.4232  0.6112 -0.7977
  543MOL0     C73185   3.247   5.909  11.223 -0.0557 -0.1931  1.0895
  543MOL0     C73186   3.347   6.028  11.222 -0.0206  0.3889  0.2732
  543MOL0     N73187   3.482   5.998  11.177 -0.1185  0.3951  0.0412
  543MOL0     C73188   3.551   5.886  11.217 -0.2565  0.0803  0.0188
  543MOL0     C73189   3.674   5.887  11.157 -0.2770  0.2589 -0.0872
  543MOL0     C73190   3.782   5.789  11.171  0.0635 -0.4182 -0.3062
  543MOL0     C73191   3.740   5.658  11.110  0.4685  0.8177  0.4971
  543MOL0     C73192   3.856   5.551  11.080 -0.6433 -0.4626  0.4365
  543MOL0     C73193   3.789   5.422  11.032  0.5847 -0.3434 -0.9045
  543MOL0     O73194   3.863   5.345  10.938  0.5538 -0.4402 -0.1569
  543MOL0     C73195   3.832   5.365  10.807  0.4526 -1.0364 -0.3228
  543MOL0     C73196   3.872   5.271  10.712  0.1244 -0.1682 -0.4089
  543MOL0     C73197   3.865   5.279  10.572  0.4318  0.0762  0.1060
  543MOL0     C73198   3.914   5.170  10.481  0.0738 -0.1517  0.3753
  543MOL0     C73199   3.803   5.401  10.516 -0.4111  0.3569 -0.3951
  543MOL0     C73200   3.779   5.423  10.375  0.6793  0.2863  0.5997
  543MOL0     O73201   3.677   5.511  10.354  0.1483 -0.5125 -0.2305
  543MOL0     C73202   3.631   5.536  10.225  0.2793 -0.2883 -0.2328
  543MOL0     C73203   3.609   5.443  10.123 -0.7749 -0.7281  0.4694
  543MOL0     C73204   3.552   5.478   9.996  0.1124  0.0935 -0.2732
  543MOL0     C73205   3.514   5.612   9.976  0.0713 -0.9252 -0.4300
  543MOL0     O73206   3.440   5.627   9.865 -0.1533 -0.4627  0.3692
  543MOL0     C73207   3.331   5.726   9.858  1.4353 -0.0949  0.3414
  543MOL0     C73208   3.274   5.696   9.718  0.2673 -0.0603  0.1651
  543MOL0     C73209   3.210   5.546   9.711  0.9397  0.6758  0.1677
  543MOL0     C73210   3.062   5.543   9.751  0.1897  0.3610 -0.2096
  543MOL0     C73211   3.016   5.399   9.778  0.6170  0.1453  0.2792
  543MOL0     C73212   2.865   5.385   9.772 -0.2445  0.1093 -1.2422
  543MOL0     C73213   2.806   5.240   9.782 -0.3785  0.2246  1.2337
  543MOL0     C73214   2.809   5.173   9.917 -0.0470 -0.2028  0.0458
  543MOL0    Cl73215   2.980   5.136   9.962  0.0596 -0.2303  0.0007
  543MOL0     C73216   3.530   5.706  10.075 -0.4237 -0.0306  0.2990
  543MOL0     C73217   3.596   5.672  10.193 -0.6717 -0.0113 -0.4862
  543MOL0     O73218   3.834   5.366  10.281 -0.4429 -0.3450  0.1383
  543MOL0     C73219   3.762   5.494  10.609  0.4996 -0.1076 -1.1866
  543MOL0     C73220   3.771   5.480  10.749  0.7474  0.1209 -0.5401
  543MOL0     N73221   3.683   6.013  11.095  0.1899  0.6927  0.3051
  543MOL0     N73222   3.570   6.071  11.111 -0.0056  0.4012  0.9145
  543MOL0     C73223   3.343   5.212  11.032  0.3329 -0.7173 -0.3910
  543MOL0     C73224   3.327   5.076  11.054 -0.4298  0.2157 -0.6767
  543MOL0     C73225   3.423   4.641  11.133 -0.4000 -0.0641 -1.2742
  543MOL0     C73226   3.369   4.603  11.266  0.5107 -0.6088  0.8338
  543MOL0     C73227   3.319   4.476  11.296  0.4870  0.7544 -0.1250
  543MOL0     C73228   3.309   4.378  11.193  0.7343 -0.0315 -0.9131
  543MOL0     O73229   3.249   4.255  11.210 -0.0182 -0.1415  0.1845
  543MOL0     C73230   3.208   4.211  11.341  0.2272 -0.3965  0.2900
  543MOL0     C73231   3.089   4.112  11.327  0.3539 -0.2732  0.1985
  543MOL0     C73232   3.110   3.991  11.233  0.4332  0.4205  0.2793
  543MOL0     C73233   3.207   3.882  11.278 -0.1559  0.1159  0.4792
  543MOL0     C73234   3.211   3.768  11.179  0.7755 -0.4547  0.3285
  543MOL0     C73235   3.231   3.672  11.104 -0.1387 -0.1135 -0.8829
  543MOL0     C73236   3.359   4.418  11.062 -0.8690 -0.6083  0.0985
  543MOL0     C73237   3.417   4.542  11.037 -0.2213 -0.2424 -0.3678
  543MOL0     H73238   3.588   4.959  10.877  0.7180 -0.1630 -0.3146
  543MOL0     H73239   3.622   5.205  10.830 -0.3977 -0.1097 -0.3973
  543MOL0     H73240   3.248   5.444  10.891 -0.5470  0.2200  1.1877
  543MOL0     H73241   3.320   5.493  11.044 -1.0283  0.5398  0.1456
  543MOL0     H73242   3.475   5.643  10.931  0.1722 -1.2447 -0.3408
  543MOL0     H73243   3.406   5.583  10.785  0.4761 -0.3416  0.6200
  543MOL0     H73244   3.226   5.720  10.788  2.5801  1.2991  0.5709
  543MOL0     H73245   3.199   5.681  10.966  2.0197 -2.3786  1.0965
  543MOL0     H73246   3.394   5.840  11.003  0.1667 -0.5374 -0.3517
  543MOL0     H73247   3.377   5.897  10.842  1.5304  1.5297  1.6697
  543MOL0     H73248   3.272   6.048  10.972  0.6634  0.0979  2.3698
  543MOL0     H73249   3.147   5.961  10.890 -1.3854 -3.0214  1.0672
  543MOL0     H73250   3.092   6.022  11.121  0.2533  0.3570  2.1269
  543MOL0     H73251   3.080   5.847  11.094  0.7129 -0.4417  0.9766
  543MOL0     H73252   3.179   5.912  11.308 -2.4764 -1.1701 -0.6681
  543MOL0     H73253   3.292   5.809  11.219 -2.6362 -1.4473 -3.0672
  543MOL0     H73254   3.364   6.060  11.325  1.4471 -0.3808  0.2979
  543MOL0     H73255   3.298   6.113  11.174 -2.1745 -0.1058  1.4611
  543MOL0     H73256   3.522   5.809  11.288 -1.0150  0.3433 -0.0022
  543MOL0     H73257   3.872   5.837  11.133  0.2302 -0.0472  0.5346
  543MOL0     H73258   3.802   5.775  11.277  1.7496  4.0004  0.1789
  543MOL0     H73259   3.694   5.686  11.015 -0.1684  0.3806  0.6719
  543MOL0     H73260   3.654   5.616  11.164  0.4592 -0.9344 -0.7757
  543MOL0     H73261   3.903   5.524  11.175 -1.8311 -0.5791  1.0143
  543MOL0     H73262   3.919   5.599  11.004  0.5077  1.7821  2.6394
  543MOL0     H73263   3.684   5.429  11.000  0.5079 -0.0676 -0.6010
  543MOL0     H73264   3.781   5.354  11.117  4.6628  1.3833  1.1093
  543MOL0     H73265   3.907   5.176  10.753  0.5610  0.3291  0.3959
  543MOL0     H73266   3.915   5.076  10.537  1.3904  1.3520  3.0445
  543MOL0     H73267   3.845   5.143  10.400 -0.0320 -1.3425  0.8344
  543MOL0     H73268   4.014   5.201  10.448 -1.1213  3.7994 -0.0623
  543MOL0     H73269   3.633   5.338  10.140 -1.6911 -1.2599 -1.2618
  543MOL0     H73270   3.527   5.399   9.926  1.9538 -2.0746  1.3934
  543MOL0     H73271   3.250   5.708   9.929  1.2241 -2.4775 -0.3846
  543MOL0     H73272   3.363   5.830   9.867  0.0725  0.2168  1.9755
  543MOL0     H73273   3.211   5.778   9.685  1.8277  1.2656  0.3376
  543MOL0     H73274   3.359   5.707   9.650  0.2310  0.9364  0.2640
  543MOL0     H73275   3.265   5.479   9.778  1.9253  0.5832 -0.7021
  543MOL0     H73276   3.216   5.514   9.607 -2.3416  1.1981 -0.2908
  543MOL0     H73277   3.060   5.604   9.842 -0.5268  0.4741 -0.2953
  543MOL0     H73278   3.010   5.585   9.664 -0.3108  0.8593  0.3188
  543MOL0     H73279   3.053   5.368   9.877 -0.4613  0.8545  0.9285
  543MOL0     H73280   3.073   5.332   9.713  0.7593  0.8078 -0.2791
  543MOL0     H73281   2.821   5.447   9.851  0.3241 -1.6666  0.5385
  543MOL0     H73282   2.835   5.416   9.671 -1.1606  0.1397 -0.9708
  543MOL0     H73283   2.860   5.180   9.708 -1.3914  3.3015 -2.2915
  543MOL0     H73284   2.704   5.249   9.744 -0.4996  0.1635  1.5371
  543MOL0     H73285   2.754   5.078   9.923  1.9667 -1.6546 -2.3810
  543MOL0     H73286   2.771   5.237   9.997  1.1426 -0.0591  0.5279
  543MOL0     H73287   3.474   5.799  10.068 -3.7540 -1.9184 -0.6518
  543MOL0     H73288   3.624   5.743  10.271 -0.4209 -0.5508 -0.0778
  543MOL0     H73289   3.722   5.589  10.575 -1.5418 -0.3654  0.2893
  543MOL0     H73290   3.737   5.566  10.807 -1.1001 -0.2758 -0.9827
  543MOL0     H73291   3.271   5.279  11.076 -0.9854  0.3086 -3.7703
  543MOL0     H73292   3.249   5.052  11.126  1.3955  0.0543  1.3566
  543MOL0     H73293   3.356   4.678  11.344  3.9185 -1.0472  1.9962
  543MOL0     H73294   3.273   4.477  11.395  0.7594 -0.6321  0.0255
  543MOL0     H73295   3.292   4.154  11.381  0.6446  0.1470  0.1884
  543MOL0     H73296   3.187   4.290  11.414 -0.3621  0.1344 -0.4428
  543MOL0     H73297   2.998   4.164  11.297  0.3853 -1.3537 -1.9289
  543MOL0     H73298   3.075   4.073  11.429  2.6721  0.2100  0.7550
  543MOL0     H73299   3.141   4.023  11.133 -1.2213  1.1591 -0.0395
  543MOL0     H73300   3.009   3.952  11.220  0.5789  0.8038 -2.7248
  543MOL0     H73301   3.178   3.837  11.373  3.9254  0.5555  2.1233
  543MOL0     H73302   3.311   3.913  11.280 -0.5307  2.0642 -2.8093
  543MOL0     H73303   3.240   3.587  11.040 -1.0379 -2.4509  1.8385
  543MOL0     H73304   3.366   4.348  10.979 -1.3616 -1.6412  0.9027
  543MOL0     H73305   3.454   4.561  10.937 -0.1815  3.3596  0.1910
  544MOL0     O73306   1.429   9.088   6.403  0.3308  0.9651  0.7898
  544MOL0     C73307   1.393   9.207   6.409 -0.3870  0.5404 -0.2875
  544MOL0     O73308   1.481   9.312   6.408 -0.7468  0.4914 -0.4521
  544MOL0     C73309   1.608   9.303   6.469  1.3437 -0.8840 -0.0732
  544MOL0     C73310   1.724   9.307   6.388  0.0439 -0.8134 -0.5622
  544MOL0     C73311   1.853   9.307   6.447  0.2480 -1.3772 -0.5152
  544MOL0     C73312   1.864   9.291   6.588  0.0794 -0.1723 -0.4274
  544MOL0     O73313   1.993   9.289   6.642  1.0204 -0.0353  0.0399
  544MOL0     C73314   2.015   9.166   6.710 -1.1107 -0.5607  0.0779
  544MOL0     C73315   2.165   9.154   6.713  0.3368  0.4959  0.6467
  544MOL0     C73316   2.235   9.104   6.589 -0.0567 -0.7237  0.3698
  544MOL0     C73317   2.176   8.974   6.524  0.0873 -0.6823  0.0445
  544MOL0     C73318   2.251   8.941   6.389 -0.7666 -0.3912 -0.4355
  544MOL0     C73319   2.338   8.812   6.403  0.3277 -0.2408 -0.2581
  544MOL0     C73320   2.430   8.797   6.277 -0.2123 -0.4854 -0.3405
  544MOL0     C73321   2.569   8.744   6.308  0.6454  0.3205 -0.3523
  544MOL0     N73322   2.552   8.607   6.353  0.1909  0.5662  0.4784
  544MOL0     C73323   2.560   8.568   6.484  0.7125  0.5982 -0.1351
  544MOL0     C73324   2.548   8.433   6.481  0.3802 -0.1182  0.1292
  544MOL0     C73325   2.538   8.342   6.596 -0.0908 -0.6446 -0.2214
  544MOL0     C73326   2.396   8.333   6.648  0.0757 -0.1953  0.4525
  544MOL0     C73327   2.388   8.218   6.748  0.1633 -0.4748 -0.4049
  544MOL0     C73328   2.237   8.172   6.759 -0.5098 -0.3288 -0.4401
  544MOL0     O73329   2.241   8.027   6.744  0.6732 -0.6079  0.2375
  544MOL0     C73330   2.121   7.957   6.767  0.7631  0.2218  0.4384
  544MOL0     C73331   1.996   8.016   6.799  0.4831 -1.0185 -0.8692
  544MOL0     C73332   1.882   7.943   6.822 -0.6489  0.8634 -0.3212
  544MOL0     C73333   1.753   8.014   6.842  0.3345 -0.2607 -0.7321
  544MOL0     C73334   1.893   7.803   6.807  0.5330 -0.0043 -0.4257
  544MOL0     C73335   1.785   7.712   6.852 -0.0914 -0.6744  0.7098
  544MOL0     O73336   1.695   7.766   6.936 -0.2446 -0.3690  1.0950
  544MOL0     C73337   1.602   7.682   6.980  0.3736  0.3635 -0.4411
  544MOL0     C73338   1.632   7.575   7.062 -0.7683  0.1804  0.1989
  544MOL0     C73339   1.531   7.490   7.104 -0.9713 -0.0272  0.2378
  544MOL0     C73340   1.401   7.510   7.079  0.9761  0.8447  0.0734
  544MOL0     O73341   1.304   7.429   7.145 -0.5864  0.2614 -0.1378
  544MOL0     C73342   1.175   7.421   7.076 -0.3346 -0.2514  0.5433
  544MOL0     C73343   1.096   7.298   7.120  0.2026  0.1093  0.7906
  544MOL0     C73344   1.087   7.283   7.276  0.6463  0.1179 -1.2617
  544MOL0     C73345   0.991   7.385   7.330 -0.3749 -0.3133 -1.3566
  544MOL0     C73346   0.967   7.390   7.485 -0.4361 -0.2379  1.4493
  544MOL0     C73347   0.927   7.257   7.553  0.3363  0.3082  0.1218
  544MOL0     C73348   0.773   7.232   7.546 -0.5006 -0.2929 -0.5957
  544MOL0     C73349   0.670   7.330   7.613 -1.6423  0.1435  0.1248
  544MOL0    Cl73350   0.661   7.290   7.788  0.3412  0.1960 -0.5367
  544MOL0     C73351   1.366   7.615   6.993 -0.9548  0.0944 -0.2128
  544MOL0     C73352   1.470   7.700   6.943 -0.9665  0.3004 -0.5833
  544MOL0     O73353   1.776   7.596   6.804 -0.7263  0.1276  0.6286
  544MOL0     C73354   2.012   7.743   6.762 -0.1494  0.0587  0.5438
  544MOL0     C73355   2.127   7.819   6.756  0.3727 -0.8929  0.4940
  544MOL0     N73356   2.515   8.389   6.352 -0.7349 -0.0993 -1.3128
  544MOL0     N73357   2.534   8.500   6.278  0.5875 -0.5008 -0.1093
  544MOL0     C73358   1.749   9.297   6.672  0.1606  0.3664  0.7831
  544MOL0     C73359   1.620   9.290   6.610  0.0422  1.6493  0.2854
  544MOL0     C73360   1.259   9.250   6.395 -0.1813  0.2360 -0.1754
  544MOL0     C73361   1.161   9.153   6.397  0.0550 -0.3651 -0.0768
  544MOL0     C73362   1.025   9.191   6.377 -0.2717  0.1907 -0.5068
  544MOL0     C73363   0.991   9.324   6.368  0.8049 -0.6422  0.3826
  544MOL0     O73364   0.855   9.348   6.343  0.6934 -0.1685  0.4416
  544MOL0     C73365   0.807   9.479   6.300  0.2195  0.1109 -0.3640
  544MOL0     C73366   0.658   9.466   6.285  0.2350 -0.2504 -0.1709
  544MOL0     C73367   0.589   9.599   6.234 -0.3000  1.1672 -0.0235
  544MOL0     C73368   0.432   9.575   6.262 -1.0396  0.4808  0.2531
  544MOL0     C73369   0.402   9.595   6.405 -0.6386 -0.0224  0.3784
  544MOL0     C73370   0.386   9.598   6.524 -0.3092 -0.3934 -0.5191
  544MOL0     C73371   1.085   9.424   6.384 -0.3863 -0.0739  0.7544
  544MOL0     C73372   1.223   9.384   6.393  1.2213  0.6448  0.6153
  544MOL0     H73373   1.726   9.313   6.280  1.7886  0.2642 -0.5304
  544MOL0     H73374   1.943   9.323   6.389 -1.5310  2.0496 -2.6577
  544MOL0     H73375   1.978   9.175   6.813 -0.1920  1.4290  0.2884
  544MOL0     H73376   1.969   9.075   6.671 -1.5504 -0.6508  0.7752
  544MOL0     H73377   2.209   9.251   6.737  2.3263  1.1342 -4.2719
  544MOL0     H73378   2.180   9.086   6.797 -0.1791 -1.2420 -0.5990
  544MOL0     H73379   2.238   9.174   6.505 -0.5446 -1.8493 -0.6277
  544MOL0     H73380   2.342   9.096   6.614 -0.0663  1.0305  1.0817
  544MOL0     H73381   2.161   8.891   6.594 -2.5214 -0.0170  0.3866
  544MOL0     H73382   2.076   8.993   6.484  0.7352  1.4253 -0.6940
  544MOL0     H73383   2.184   8.933   6.304  0.1540 -0.9066 -1.1351
  544MOL0     H73384   2.324   9.017   6.361  0.1614 -1.0482  0.1040
  544MOL0     H73385   2.395   8.821   6.496 -1.2340 -2.9264  1.0544
  544MOL0     H73386   2.272   8.725   6.402  1.1409 -0.9670  2.1786
  544MOL0     H73387   2.380   8.739   6.199 -1.8085 -1.6499  1.4536
  544MOL0     H73388   2.439   8.898   6.234  0.5240 -1.3314 -2.2973
  544MOL0     H73389   2.632   8.803   6.376  0.7021 -0.3901  0.2306
  544MOL0     H73390   2.624   8.744   6.213 -0.8817 -3.5229 -1.4364
  544MOL0     H73391   2.584   8.626   6.573  1.0612 -1.1610  0.9731
  544MOL0     H73392   2.573   8.245   6.559  4.5331  0.6929  0.0509
  544MOL0     H73393   2.617   8.374   6.664  0.2782 -1.1218 -0.4188
  544MOL0     H73394   2.325   8.315   6.567  1.6737 -0.8509 -0.8507
  544MOL0     H73395   2.374   8.427   6.699  2.6100  0.6545  0.0926
  544MOL0     H73396   2.438   8.262   6.835  0.7293 -0.4524 -0.7299
  544MOL0     H73397   2.445   8.134   6.706  2.0490  1.2133 -1.4517
  544MOL0     H73398   2.176   8.214   6.679 -0.2299  1.1843  0.1091
  544MOL0     H73399   2.200   8.191   6.860 -2.1143 -4.1882 -0.1237
  544MOL0     H73400   1.990   8.123   6.785  0.5002 -1.3764 -5.0186
  544MOL0     H73401   1.681   7.975   6.769  0.3367 -0.7018 -0.5009
  544MOL0     H73402   1.706   8.008   6.941 -1.7462  0.5844 -1.6032
  544MOL0     H73403   1.767   8.122   6.826 -0.7056  0.2697  1.5513
  544MOL0     H73404   1.734   7.555   7.091 -0.4395 -0.3352 -1.2348
  544MOL0     H73405   1.545   7.416   7.183  0.8580  2.4360  2.3939
  544MOL0     H73406   1.110   7.507   7.089  0.7963  0.6151  0.6144
  544MOL0     H73407   1.197   7.407   6.970 -0.8243 -1.5228  0.5863
  544MOL0     H73408   0.993   7.302   7.083  1.0162  0.3248 -1.6136
  544MOL0     H73409   1.147   7.211   7.079  3.3067  2.2265 -0.2269
  544MOL0     H73410   1.189   7.300   7.313 -0.2539  1.8457  0.6414
  544MOL0     H73411   1.061   7.183   7.310  1.1765  0.5043  0.3564
  544MOL0     H73412   1.023   7.481   7.290 -4.0630  0.7260 -2.2660
  544MOL0     H73413   0.892   7.365   7.286 -2.2805  4.0337  0.3829
  544MOL0     H73414   0.892   7.467   7.505 -1.2775 -1.3637  2.8150
  544MOL0     H73415   1.069   7.413   7.518 -0.3053  4.0548 -1.2013
  544MOL0     H73416   0.967   7.162   7.519 -0.0630 -1.6158  4.3616
  544MOL0     H73417   0.961   7.261   7.657 -1.3536 -3.2927  0.9829
  544MOL0     H73418   0.760   7.131   7.587  3.4931 -0.5803  0.4233
  544MOL0     H73419   0.744   7.228   7.441 -2.4307 -1.9902 -0.0547
  544MOL0     H73420   0.570   7.303   7.580 -1.9413 -0.1210  1.2021
  544MOL0     H73421   0.683   7.437   7.599 -2.4908  0.5512  2.1211
  544MOL0     H73422   1.266   7.653   6.976  0.4307  3.7290 -1.1777
  544MOL0     H73423   1.441   7.788   6.885  1.0461  1.9208  0.7370
  544MOL0     H73424   2.012   7.635   6.758 -3.4390 -0.0058 -0.6946
  544MOL0     H73425   2.219   7.762   6.755  1.9475  1.4644 -0.8487
  544MOL0     H73426   1.772   9.291   6.778 -1.5218 -1.6922  1.0960
  544MOL0     H73427   1.530   9.293   6.671  0.1242 -0.0283  0.5279
  544MOL0     H73428   1.186   9.049   6.413 -1.1734 -1.3186 -3.4599
  544MOL0     H73429   0.956   9.107   6.375  1.7020 -1.5714  0.8121
  544MOL0     H73430   0.822   9.535   6.393 -3.5921 -1.0643  1.1560
  544MOL0     H73431   0.839   9.519   6.203 -2.9773 -1.0181 -2.0283
  544MOL0     H73432   0.612   9.438   6.380 -1.0267 -1.9842 -1.2295
  544MOL0     H73433   0.634   9.389   6.210  2.2457 -0.2403 -0.8747
  544MOL0     H73434   0.612   9.605   6.127 -0.4345 -1.5498 -0.2750
  544MOL0     H73435   0.618   9.690   6.287  0.9484  2.2887 -2.4706
  544MOL0     H73436   0.400   9.474   6.232  0.2074 -0.6848  2.5502
  544MOL0     H73437   0.360   9.644   6.218 -1.6191 -0.1618  0.1677
  544MOL0     H73438   0.360   9.592   6.628  2.4228 -2.6072  0.1544
  544MOL0     H73439   1.060   9.530   6.387  0.3266  0.1304 -0.1743
  544MOL0     H73440   1.306   9.454   6.401  2.7012 -0.9345 -0.0927
  545MOL0     O73441  11.220   4.180  10.671 -0.4560 -0.3424 -0.0773
  545MOL0     C73442  11.269   4.099  10.587 -0.2548  0.2922  0.2917
  545MOL0     O73443  11.390   4.040  10.583 -0.4563  0.1628  0.0838
  545MOL0     C73444  11.479   4.036  10.681  0.2946  0.9454  0.1274
  545MOL0     C73445  11.595   3.957  10.650  0.8627 -0.5441 -0.4265
  545MOL0     C73446  11.701   3.931  10.737  0.0793 -0.2297 -0.1281
  545MOL0     C73447  11.679   3.981  10.869  0.1228 -0.6317  0.3896
  545MOL0     O73448  11.781   3.952  10.952 -0.2959 -0.8182  1.1311
  545MOL0     C73449  11.750   3.949  11.093 -0.0431  0.5553 -0.4412
  545MOL0     C73450  11.866   3.884  11.172 -0.6017 -0.5303 -0.6569
  545MOL0     C73451  11.858   3.927  11.322 -0.2012  0.6682 -0.6031
  545MOL0     C73452  11.739   3.862  11.397  0.0823  0.1117 -0.1650
  545MOL0     C73453  11.728   3.884  11.546  0.1705 -0.2288  1.0820
  545MOL0     C73454  11.822   3.807  11.639  0.4430  0.0135  0.5470
  545MOL0     C73455  11.801   3.862  11.784 -0.9779  0.2424  0.0471
  545MOL0     C73456  11.832   4.011  11.816  0.9446  0.8489  1.1512
  545MOL0     N73457  11.801   4.032  11.959 -0.2582  0.8393  0.4070
  545MOL0     C73458  11.684   4.080  12.006  0.1474  0.1023 -0.0556
  545MOL0     C73459  11.692   4.065  12.143 -1.0678 -0.2893 -0.1394
  545MOL0     C73460  11.590   4.094  12.250 -0.4024  0.0690 -0.0065
  545MOL0     C73461  11.572   4.251  12.260  0.1492 -0.3309  0.1027
  545MOL0     C73462  11.458   4.286  12.347  0.3199  0.0841  0.5579
  545MOL0     C73463  11.475   4.233  12.492  0.1601 -0.2812 -0.8722
  545MOL0     O73464  11.418   4.099  12.513  0.4752 -0.3834  0.4178
  545MOL0     C73465  11.422   4.044  12.641  0.2671 -0.3146  0.0268
  545MOL0     C73466  11.509   4.097  12.734  0.3588 -0.3046 -0.2248
  545MOL0     C73467  11.509   4.043  12.871 -0.0059  0.7095 -0.5709
  545MOL0     C73468  11.621   4.084  12.967  0.3883 -0.0937  0.8361
  545MOL0     C73469  11.417   3.940  12.910  0.1217  0.6927  0.2271
  545MOL0     C73470  11.398   3.897  13.055  0.6078 -1.5793  0.3441
  545MOL0     O73471  11.338   3.775  13.077 -0.4443  0.5976  0.4699
  545MOL0     C73472  11.313   3.737  13.201 -0.0224  0.8089 -0.9957
  545MOL0     C73473  11.401   3.646  13.256 -0.1428 -0.3201  0.1096
  545MOL0     C73474  11.390   3.595  13.387  0.1581 -0.4276  0.3061
  545MOL0     C73475  11.289   3.655  13.471 -0.8149  0.4428 -0.2619
  545MOL0     O73476  11.262   3.592  13.592  0.2507 -0.4343 -0.3377
  545MOL0     C73477  11.115   3.568  13.622 -1.3824 -0.0577  0.7647
  545MOL0     C73478  11.079   3.656  13.735  0.5045 -0.4684 -0.2435
  545MOL0     C73479  10.933   3.646  13.791 -0.7219  0.0223 -0.5992
  545MOL0     C73480  10.830   3.703  13.697 -0.5956 -0.5173  0.7447
  545MOL0     C73481  10.696   3.656  13.746  0.3044 -0.2738  0.2831
  545MOL0     C73482  10.577   3.733  13.684  0.6675 -0.8082  0.1339
  545MOL0     C73483  10.443   3.688  13.737  0.1207 -0.0754 -0.1638
  545MOL0     C73484  10.326   3.762  13.684 -0.4090  0.1059 -0.7282
  545MOL0    Cl73485  10.185   3.675  13.771  0.2653 -0.4539  0.0027
  545MOL0     C73486  11.195   3.750  13.408  0.1531 -0.5329 -0.2577
  545MOL0     C73487  11.210   3.790  13.275  0.3522 -0.4886 -0.1372
  545MOL0     O73488  11.425   3.981  13.142  0.5956  0.0949  0.2797
  545MOL0     C73489  11.347   3.885  12.808 -0.2249  0.6443  0.2796
  545MOL0     C73490  11.356   3.930  12.674 -1.0927  0.4199  0.1418
  545MOL0     N73491  11.815   4.002  12.173 -0.2567  0.7290 -0.1586
  545MOL0     N73492  11.885   3.990  12.064  0.0190 -0.6280 -0.5081
  545MOL0     C73493  11.567   4.063  10.906 -0.3800 -0.2441 -0.6603
  545MOL0     C73494  11.469   4.091  10.809  0.7302 -0.0647 -0.1492
  545MOL0     C73495  11.189   4.060  10.474 -0.3261  0.3032  0.0036
  545MOL0     C73496  11.053   4.090  10.474 -0.1032  0.1164 -0.6976
  545MOL0     C73497  10.976   4.058  10.366 -0.8111  0.7565 -0.5022
  545MOL0     C73498  11.016   3.984  10.255 -0.5516 -0.5022  0.0342
  545MOL0     O73499  10.936   3.956  10.145  0.6501 -0.2117 -0.0934
  545MOL0     C73500  10.812   3.904  10.168  0.6782 -0.5650  0.2800
  545MOL0     C73501  10.755   3.879  10.026  0.8592  0.4641 -0.2529
  545MOL0     C73502  10.628   3.784  10.026  0.4450  0.2535 -0.2748
  545MOL0     C73503  10.655   3.641  10.086  0.0531 -0.8923  0.9869
  545MOL0     C73504  10.745   3.560   9.998 -1.1234 -0.6714  0.2387
  545MOL0     C73505  10.806   3.493   9.922 -0.9981  0.0486  0.3411
  545MOL0     C73506  11.150   3.932  10.265 -0.1241 -0.3304  0.3223
  545MOL0     C73507  11.233   3.980  10.372  0.6629  0.1230  0.5523
  545MOL0     H73508  11.604   3.929  10.545 -0.3790 -0.4166 -0.5814
  545MOL0     H73509  11.784   3.872  10.700 -1.4756 -0.9285 -2.8286
  545MOL0     H73510  11.738   4.054  11.121  2.5123  1.4457 -2.2760
  545MOL0     H73511  11.665   3.886  11.121  1.7620 -2.9261 -2.0995
  545MOL0     H73512  11.872   3.775  11.164  1.4817 -0.6107  1.0332
  545MOL0     H73513  11.964   3.917  11.137  0.1023 -0.8262  0.9072
  545MOL0     H73514  11.945   3.896  11.380 -1.2365 -0.5717  0.3421
  545MOL0     H73515  11.843   4.035  11.336  3.0517  0.9149  2.7160
  545MOL0     H73516  11.654   3.917  11.355 -0.1358  1.6348  2.0979
  545MOL0     H73517  11.732   3.757  11.369 -0.5626  0.6702 -2.2905
  545MOL0     H73518  11.737   3.992  11.554 -1.7823 -0.1143  2.5197
  545MOL0     H73519  11.621   3.865  11.560 -0.4134  1.5010 -0.6490
  545MOL0     H73520  11.809   3.698  11.636  3.5522 -0.4223  0.2612
  545MOL0     H73521  11.925   3.820  11.607 -0.3870 -0.2737 -2.5682
  545MOL0     H73522  11.692   3.862  11.794 -1.0218  0.7491 -0.4497
  545MOL0     H73523  11.850   3.789  11.850 -0.0837  0.3424 -0.5043
  545MOL0     H73524  11.778   4.075  11.745  2.9620 -1.9371 -3.3399
  545MOL0     H73525  11.935   4.035  11.787  0.3795 -0.8930 -2.9914
  545MOL0     H73526  11.599   4.123  11.954 -0.2721  1.2196  1.4556
  545MOL0     H73527  11.494   4.049  12.221  0.1904 -2.9620  2.2092
  545MOL0     H73528  11.625   4.055  12.347  2.0725 -0.2593 -0.9588
  545MOL0     H73529  11.558   4.288  12.158  0.2490 -1.1976 -0.2292
  545MOL0     H73530  11.661   4.303  12.296 -0.9782  1.5953  0.2642
  545MOL0     H73531  11.366   4.240  12.308  0.0237  0.2440  1.0627
  545MOL0     H73532  11.460   4.394  12.328  0.6072 -0.3475 -2.4380
  545MOL0     H73533  11.427   4.299  12.565 -2.7351 -1.7839 -1.3033
  545MOL0     H73534  11.583   4.229  12.513 -0.4854 -0.5470  3.1813
  545MOL0     H73535  11.585   4.174  12.722 -0.6173  1.2949  2.9012
  545MOL0     H73536  11.562   4.140  13.040 -0.2336 -1.0755  1.1006
  545MOL0     H73537  11.666   4.006  13.028  2.7138  1.7260  1.5842
  545MOL0     H73538  11.689   4.158  12.924  0.1947  0.0891  0.8424
  545MOL0     H73539  11.473   3.612  13.182  1.5193  2.6344  0.1806
  545MOL0     H73540  11.455   3.514  13.420  0.9312  0.9920  2.4884
  545MOL0     H73541  11.059   3.601  13.534  3.3532  1.1584 -2.1612
  545MOL0     H73542  11.093   3.461  13.631 -0.8044 -0.4463 -1.6378
  545MOL0     H73543  11.143   3.624  13.817  0.4646 -1.2773 -0.5220
  545MOL0     H73544  11.109   3.760  13.715  3.4621 -1.1164  0.4039
  545MOL0     H73545  10.921   3.691  13.889 -1.2967  2.4950 -1.7317
  545MOL0     H73546  10.908   3.541  13.809  0.2790 -0.4594 -1.7995
  545MOL0     H73547  10.830   3.812  13.698 -4.7155 -0.3646  0.1828
  545MOL0     H73548  10.846   3.676  13.592  2.1912  1.9565  0.4106
  545MOL0     H73549  10.702   3.660  13.855 -0.2654 -3.6731  0.5683
  545MOL0     H73550  10.694   3.547  13.733  2.8905 -0.1943 -1.3497
  545MOL0     H73551  10.597   3.835  13.719 -1.4311 -0.7195  1.2132
  545MOL0     H73552  10.573   3.732  13.575  0.2186  0.7529  0.1177
  545MOL0     H73553  10.431   3.692  13.846 -2.5695 -0.2341 -0.3899
  545MOL0     H73554  10.431   3.582  13.713 -1.0322  0.3220 -1.4498
  545MOL0     H73555  10.305   3.749  13.577 -1.3687  0.2683 -0.5675
  545MOL0     H73556  10.334   3.868  13.708  0.4946 -0.0013 -0.5568
  545MOL0     H73557  11.113   3.801  13.457  1.4760  1.0015  0.4508
  545MOL0     H73558  11.138   3.857  13.229  0.7408  0.6809  0.8828
  545MOL0     H73559  11.292   3.799  12.847  0.5610  0.7913  1.7834
  545MOL0     H73560  11.296   3.896  12.591 -0.7052  0.9331 -0.3575
  545MOL0     H73561  11.560   4.110  11.003  4.0293 -0.6118  0.0507
  545MOL0     H73562  11.378   4.141  10.840 -0.5129  0.5419 -4.1507
  545MOL0     H73563  11.003   4.154  10.546  0.0416 -0.0722 -0.4277
  545MOL0     H73564  10.872   4.091  10.363 -1.8202 -1.8744  1.1015
  545MOL0     H73565  10.810   3.809  10.222  0.0817  0.0722  1.4351
  545MOL0     H73566  10.739   3.971  10.214 -0.4644 -0.0476 -2.1527
  545MOL0     H73567  10.833   3.828   9.968 -2.1515 -3.5938 -1.1918
  545MOL0     H73568  10.722   3.973   9.980  0.6103 -0.7116 -2.6122
  545MOL0     H73569  10.594   3.772   9.923  1.6557  0.4135 -0.7147
  545MOL0     H73570  10.541   3.838  10.062 -0.6067 -1.3114 -0.3590
  545MOL0     H73571  10.557   3.591  10.084 -0.6453  0.3707  1.7259
  545MOL0     H73572  10.682   3.658  10.191  1.6261 -0.8269  0.5830
  545MOL0     H73573  10.852   3.435   9.845  1.0112  1.7719  0.1491
  545MOL0     H73574  11.184   3.869  10.183  1.0438 -0.3248  0.7720
  545MOL0     H73575  11.330   3.932  10.363 -0.1742 -1.7088  0.8339
  546MOL0     O73576   1.879   6.842   7.922  0.3393 -0.7815 -0.4644
  546MOL0     C73577   1.842   6.724   7.945  0.4618  0.2025 -0.3128
  546MOL0     O73578   1.739   6.690   8.017 -0.3798 -0.2766 -0.6302
  546MOL0     C73579   1.666   6.765   8.107  0.4814 -0.7488 -0.1438
  546MOL0     C73580   1.583   6.695   8.197 -0.1424  0.4044  0.2673
  546MOL0     C73581   1.501   6.764   8.278 -0.1780 -0.5147 -0.9467
  546MOL0     C73582   1.509   6.906   8.295  0.5885  0.1354  0.4576
  546MOL0     O73583   1.435   6.985   8.378 -0.1853  0.1298 -0.3058
  546MOL0     C73584   1.371   6.921   8.481 -0.2351  0.5531 -0.0338
  546MOL0     C73585   1.345   7.040   8.583 -0.0840 -0.3302 -0.1062
  546MOL0     C73586   1.207   7.111   8.575  0.2779  0.6568  0.6150
  546MOL0     C73587   1.174   7.163   8.431  0.4375  0.0159  1.3757
  546MOL0     C73588   1.027   7.186   8.432 -0.2603  0.7773 -0.3714
  546MOL0     C73589   0.963   7.240   8.304 -0.1771  0.3026  0.8872
  546MOL0     C73590   0.992   7.149   8.194  0.4794 -0.4948 -0.6072
  546MOL0     C73591   0.921   7.202   8.065 -0.4996 -0.4830 -0.0003
  546MOL0     N73592   0.981   7.321   8.007 -0.6684  0.3540 -0.0937
  546MOL0     C73593   0.950   7.447   8.032 -0.0443  0.9124  0.4115
  546MOL0     C73594   1.018   7.519   7.942  0.0998  0.4436  0.1408
  546MOL0     C73595   1.008   7.665   7.928 -0.2502  0.5423  1.0052
  546MOL0     C73596   0.937   7.721   7.801  0.3881 -0.1213 -0.2328
  546MOL0     C73597   1.024   7.719   7.674  0.3997 -0.3439 -0.0329
  546MOL0     C73598   0.971   7.770   7.547  0.8064 -0.0523  0.0484
  546MOL0     O73599   1.055   7.743   7.444 -0.0474  0.0301  0.0197
  546MOL0     C73600   1.169   7.821   7.428 -0.2459 -0.0964  0.4916
  546MOL0     C73601   1.196   7.945   7.490  0.2394 -0.6078  0.7186
  546MOL0     C73602   1.312   8.017   7.463 -0.8310  0.2154  0.5059
  546MOL0     C73603   1.311   8.150   7.542  0.1711  0.4870 -0.6342
  546MOL0     C73604   1.417   7.969   7.375  0.3974  0.5230  0.1449
  546MOL0     C73605   1.553   8.031   7.358  0.5242  0.7853  0.5476
  546MOL0     O73606   1.620   8.011   7.234  0.2504  0.2991 -0.1035
  546MOL0     C73607   1.756   8.045   7.241  0.0195 -0.7502  0.3196
  546MOL0     C73608   1.846   7.944   7.267  0.4309  0.0277 -0.3359
  546MOL0     C73609   1.984   7.959   7.262 -0.0776 -0.2062 -0.0391
  546MOL0     C73610   2.033   8.088   7.242  0.7015 -0.3736 -1.4516
  546MOL0     O73611   2.169   8.105   7.243 -0.5897  0.9615 -0.0245
  546MOL0     C73612   2.232   8.220   7.191  0.7455  1.4187 -0.1074
  546MOL0     C73613   2.382   8.203   7.210 -1.4813  0.1716 -0.9414
  546MOL0     C73614   2.419   8.216   7.357 -0.6565 -0.2051  0.1881
  546MOL0     C73615   2.557   8.154   7.379  0.6128 -0.0226 -0.4340
  546MOL0     C73616   2.580   8.142   7.530 -0.2635 -1.0264 -0.2208
  546MOL0     C73617   2.727   8.095   7.559 -0.0683  0.1681  0.2974
  546MOL0     C73618   2.825   8.207   7.519  0.3915 -0.4801  0.5557
  546MOL0     C73619   2.971   8.165   7.566  0.7901 -0.1960 -0.6097
  546MOL0    Cl73620   3.026   8.010   7.512 -0.7087  0.0618  0.6051
  546MOL0     C73621   1.942   8.196   7.228  0.3737  0.0288 -0.0705
  546MOL0     C73622   1.804   8.176   7.215 -0.3811 -1.3259 -0.2955
  546MOL0     O73623   1.592   8.105   7.445 -0.0991 -0.0822 -0.1962
  546MOL0     C73624   1.382   7.843   7.323  0.5181  0.6713  0.0002
  546MOL0     C73625   1.263   7.768   7.345  0.3935 -0.2238 -0.0473
  546MOL0     N73626   1.080   7.440   7.858  0.1136 -0.0166 -0.3949
  546MOL0     N73627   1.065   7.319   7.903  0.3700  0.2346 -0.5523
  546MOL0     C73628   1.575   6.976   8.197  0.1335 -0.2849 -0.7132
  546MOL0     C73629   1.656   6.903   8.103  0.1466 -0.0757  0.2188
  546MOL0     C73630   1.937   6.616   7.900  0.1076  0.9579  0.4899
  546MOL0     C73631   2.066   6.648   7.867  0.0266 -0.0803 -0.3780
  546MOL0     C73632   2.146   6.554   7.811 -0.3532 -0.5514  0.0806
  546MOL0     C73633   2.112   6.421   7.794 -0.3864  0.0553 -0.5404
  546MOL0     O73634   2.191   6.320   7.747  0.6752 -0.1345  0.2699
  546MOL0     C73635   2.334   6.336   7.724 -0.0463  0.0611  0.4391
  546MOL0     C73636   2.392   6.208   7.685  0.1339  0.4994 -0.6874
  546MOL0     C73637   2.542   6.222   7.672 -0.8647  0.0375 -0.3205
  546MOL0     C73638   2.605   6.092   7.613  0.0900  0.2942 -0.1361
  546MOL0     C73639   2.739   6.117   7.559  0.0061  0.2878  0.1089
  546MOL0     C73640   2.837   6.132   7.490  0.2668 -0.4135  1.3459
  546MOL0     C73641   1.981   6.384   7.845 -0.6405 -1.1375  0.4610
  546MOL0     C73642   1.889   6.485   7.883 -0.8426  0.1908  0.6777
  546MOL0     H73643   1.581   6.587   8.206 -1.4626  0.5534  2.6908
  546MOL0     H73644   1.438   6.705   8.345  1.9670  0.4046  2.0926
  546MOL0     H73645   1.277   6.871   8.455 -0.2692 -0.4046  1.7142
  546MOL0     H73646   1.439   6.847   8.524 -0.4633  0.3878  0.0468
  546MOL0     H73647   1.350   7.002   8.685 -2.8490  1.6655  0.8582
  546MOL0     H73648   1.427   7.112   8.584 -2.2155  2.2401  1.4449
  546MOL0     H73649   1.127   7.040   8.598 -1.0133  2.3533  1.5504
  546MOL0     H73650   1.197   7.195   8.644 -1.8182  0.0476  1.1232
  546MOL0     H73651   1.224   7.258   8.410 -0.6650  0.7472  1.9881
  546MOL0     H73652   1.208   7.091   8.356  2.6120  1.3387  0.9984
  546MOL0     H73653   0.978   7.089   8.446  1.1825  0.1738  0.7252
  546MOL0     H73654   0.996   7.252   8.513 -0.0834  0.9169 -0.4189
  546MOL0     H73655   0.855   7.250   8.318 -0.1916  0.6052  0.5672
  546MOL0     H73656   1.005   7.340   8.290  3.5469 -1.2603 -0.4691
  546MOL0     H73657   1.097   7.127   8.175  0.7169  1.5766 -2.1614
  546MOL0     H73658   0.944   7.054   8.217  0.3459  0.3632  3.4530
  546MOL0     H73659   0.814   7.223   8.078 -0.9473 -1.9061 -1.1493
  546MOL0     H73660   0.933   7.113   8.003  2.8072 -2.2067  2.8326
  546MOL0     H73661   0.885   7.484   8.110  1.1777  2.8014  0.6102
  546MOL0     H73662   0.938   7.705   8.002 -0.6500 -0.8045  1.3683
  546MOL0     H73663   1.108   7.710   7.933  0.2280 -0.3866  0.1578
  546MOL0     H73664   0.896   7.821   7.821  1.7433  0.3814  0.1062
  546MOL0     H73665   0.850   7.656   7.787 -0.7552  1.2880  0.1058
  546MOL0     H73666   1.054   7.616   7.653  0.1051  0.1344 -3.3924
  546MOL0     H73667   1.118   7.775   7.681  0.2402  0.8899 -4.3361
  546MOL0     H73668   0.940   7.874   7.562  3.8607  1.1196 -1.0823
  546MOL0     H73669   0.878   7.718   7.520  1.3520  0.5362 -3.3626
  546MOL0     H73670   1.108   7.991   7.535 -0.0856 -0.1103 -0.3730
  546MOL0     H73671   1.212   8.173   7.584  1.1687  1.6019  1.2212
  546MOL0     H73672   1.372   8.139   7.632  0.0637  0.7581 -0.5267
  546MOL0     H73673   1.337   8.239   7.484  2.7694  0.3797  0.2542
  546MOL0     H73674   1.818   7.841   7.284  1.1924 -0.2559 -0.7523
  546MOL0     H73675   2.055   7.877   7.272  0.6052  0.1892 -1.2738
  546MOL0     H73676   2.196   8.224   7.088 -2.9731 -1.5595  0.8049
  546MOL0     H73677   2.205   8.305   7.254  3.1172  0.0452  3.0974
  546MOL0     H73678   2.407   8.103   7.174  0.9145 -0.0405  1.0024
  546MOL0     H73679   2.444   8.274   7.155 -2.5885  1.5452 -0.4682
  546MOL0     H73680   2.348   8.167   7.424 -1.1704  0.6757  0.3007
  546MOL0     H73681   2.413   8.323   7.381 -0.9477 -0.2071  0.1285
  546MOL0     H73682   2.576   8.059   7.327 -1.8797 -0.9353  0.1621
  546MOL0     H73683   2.621   8.233   7.339 -0.1546  1.3497  0.9212
  546MOL0     H73684   2.501   8.079   7.572 -2.6241  1.4875 -0.5470
  546MOL0     H73685   2.572   8.233   7.591 -3.7075  0.6870 -2.8371
  546MOL0     H73686   2.740   8.073   7.665 -1.5422 -1.2547  0.2312
  546MOL0     H73687   2.740   8.002   7.502  0.1131 -1.0527  2.2373
  546MOL0     H73688   2.789   8.296   7.571 -1.1478 -0.9532  0.3437
  546MOL0     H73689   2.822   8.232   7.413 -0.9850 -1.4456  0.3409
  546MOL0     H73690   2.953   8.152   7.673  1.9563 -0.7449 -0.4727
  546MOL0     H73691   3.034   8.250   7.537  0.8576 -1.2025 -3.8633
  546MOL0     H73692   1.991   8.288   7.198  1.7893 -1.4232 -2.5064
  546MOL0     H73693   1.741   8.262   7.194 -0.0193 -0.2426  2.5019
  546MOL0     H73694   1.455   7.797   7.258 -0.1808 -1.2009  0.4821
  546MOL0     H73695   1.236   7.675   7.297 -3.1272 -0.2888  1.7306
  546MOL0     H73696   1.587   7.084   8.202  3.5179 -0.5686  0.1024
  546MOL0     H73697   1.698   6.968   8.027 -1.1391 -1.7529 -2.0560
  546MOL0     H73698   2.100   6.750   7.881  1.1209 -0.7172  2.2783
  546MOL0     H73699   2.245   6.579   7.775 -1.3548  3.3548 -0.3795
  546MOL0     H73700   2.346   6.404   7.639 -1.9168 -1.6075 -1.2763
  546MOL0     H73701   2.385   6.380   7.810  2.0639 -1.9082  0.2800
  546MOL0     H73702   2.342   6.173   7.593 -2.5110  3.7637 -0.7056
  546MOL0     H73703   2.376   6.136   7.765 -0.7326  1.4362  0.0037
  546MOL0     H73704   2.582   6.225   7.774 -2.8368 -2.7883  0.6993
  546MOL0     H73705   2.576   6.304   7.609 -2.8212  0.9822 -0.2145
  546MOL0     H73706   2.545   6.048   7.533 -1.4323  1.8930  0.0730
  546MOL0     H73707   2.604   6.012   7.688 -4.0342  1.2498  1.0762
  546MOL0     H73708   2.928   6.153   7.438  0.1096 -1.6637  0.5095
  546MOL0     H73709   1.955   6.282   7.815  4.8582 -2.1591 -1.9565
  546MOL0     H73710   1.787   6.457   7.910 -2.0659  2.4673 -1.1476
  547MOL0     O73711   8.580   1.345   1.731 -0.8359  0.3759 -0.0274
  547MOL0     C73712   8.496   1.270   1.764 -0.5120 -1.3343 -0.4858
  547MOL0     O73713   8.510   1.147   1.811 -0.4957 -0.3624  0.1917
  547MOL0     C73714   8.630   1.081   1.800  0.3143  0.5918 -0.9937
  547MOL0     C73715   8.690   1.035   1.925  0.0946 -0.3996 -0.5599
  547MOL0     C73716   8.813   0.972   1.919 -0.3366  0.1654  0.1614
  547MOL0     C73717   8.872   0.937   1.790 -0.9907  0.0249  0.0694
  547MOL0     O73718   8.982   0.849   1.790 -0.1940 -0.1564 -0.9493
  547MOL0     C73719   9.097   0.878   1.878  0.3287  0.8587  0.0512
  547MOL0     C73720   9.216   0.817   1.812  0.3092  0.6529 -1.0111
  547MOL0     C73721   9.353   0.858   1.874 -0.6307 -0.0443 -0.0834
  547MOL0     C73722   9.483   0.780   1.805 -0.5131 -0.6073  0.8579
  547MOL0     C73723   9.624   0.848   1.818  0.0788  0.9525 -0.0472
  547MOL0     C73724   9.677   0.811   1.960  0.2695  0.0887  0.6951
  547MOL0     C73725   9.716   0.664   1.993 -0.5607  0.4551  0.6367
  547MOL0     C73726   9.730   0.627   2.137  0.6044 -0.1482 -0.3516
  547MOL0     N73727   9.760   0.748   2.226 -0.3161  0.0375 -0.4219
  547MOL0     C73728   9.664   0.817   2.297 -0.0620  0.0500  0.3284
  547MOL0     C73729   9.741   0.907   2.360 -0.1508 -0.2232 -0.5487
  547MOL0     C73730   9.662   1.020   2.436  0.1536 -0.3368  0.0047
  547MOL0     C73731   9.717   1.032   2.578 -0.7844 -0.6722 -0.2762
  547MOL0     C73732   9.673   1.163   2.648  0.9210  1.0123 -0.3573
  547MOL0     C73733   9.764   1.218   2.757  0.0264  0.9014  0.6842
  547MOL0     O73734   9.794   1.124   2.864 -0.3032  0.7022 -0.0322
  547MOL0     C73735   9.714   1.124   2.981  0.4271  0.1807 -0.2499
  547MOL0     C73736   9.748   1.205   3.091 -0.3307  0.0339 -0.0732
  547MOL0     C73737   9.686   1.187   3.211  0.4576  0.4128 -0.4138
  547MOL0     C73738   9.728   1.275   3.323 -0.2798 -0.8883  1.3057
  547MOL0     C73739   9.574   1.093   3.216  0.8066  0.6979 -0.8112
  547MOL0     C73740   9.482   1.062   3.339 -0.7569 -0.8291 -0.5636
  547MOL0     O73741   9.406   0.952   3.330  0.2319 -0.1500  0.1274
  547MOL0     C73742   9.330   0.904   3.434 -0.0111  0.4493  0.5900
  547MOL0     C73743   9.231   0.812   3.391  0.9308  0.4271 -0.9034
  547MOL0     C73744   9.160   0.740   3.495 -0.2134  0.1736  0.4933
  547MOL0     C73745   9.191   0.750   3.635  0.5612 -0.3199  0.5573
  547MOL0     O73746   9.131   0.676   3.734 -0.6579 -0.5449  0.3970
  547MOL0     C73747   8.983   0.671   3.725 -0.3364 -0.4826  0.8412
  547MOL0     C73748   8.927   0.686   3.859  0.4426  0.3831 -0.1700
  547MOL0     C73749   8.992   0.788   3.953  0.0655 -0.6424  0.1374
  547MOL0     C73750   9.010   0.929   3.907  0.5028  0.0247 -0.5740
  547MOL0     C73751   9.066   1.005   4.022 -0.3438  0.4436  0.1140
  547MOL0     C73752   9.086   1.150   3.958  0.0378 -0.6361 -0.3010
  547MOL0     C73753   9.146   1.231   4.067 -0.0232  0.5658 -0.0050
  547MOL0     C73754   9.202   1.370   4.009  0.1836 -0.0235  0.1302
  547MOL0    Cl73755   9.247   1.478   4.145  0.3424 -0.1691 -0.0244
  547MOL0     C73756   9.294   0.838   3.657  0.7077 -0.7066  0.5184
  547MOL0     C73757   9.362   0.917   3.564 -0.7348  0.1758 -0.4583
  547MOL0     O73758   9.495   1.135   3.439  0.3839  0.2663  0.1760
  547MOL0     C73759   9.533   1.031   3.091 -0.5231  0.1731 -0.6903
  547MOL0     C73760   9.604   1.042   2.974  0.1710  0.3257 -0.3338
  547MOL0     N73761   9.878   0.886   2.334 -0.4479  0.6717 -0.3300
  547MOL0     N73762   9.881   0.793   2.253  0.1271 -0.0092  0.2562
  547MOL0     C73763   8.810   0.975   1.680  0.3650 -0.9553  0.1905
  547MOL0     C73764   8.691   1.042   1.677  0.1774  0.7751 -0.4655
  547MOL0     C73765   8.360   1.322   1.763  0.3254  0.2877 -0.5600
  547MOL0     C73766   8.333   1.451   1.711 -0.1557 -0.4268 -0.5539
  547MOL0     C73767   8.209   1.502   1.734 -0.4738  0.9798  1.1070
  547MOL0     C73768   8.107   1.430   1.799 -0.4782 -0.1343 -0.4808
  547MOL0     O73769   7.987   1.493   1.811 -0.0816 -0.3722 -0.4311
  547MOL0     C73770   7.970   1.601   1.904  0.2301 -0.0949 -0.3498
  547MOL0     C73771   7.887   1.553   2.030 -0.8956 -0.0686  0.2029
  547MOL0     C73772   7.859   1.670   2.118 -0.0723 -0.4254  0.8436
  547MOL0     C73773   7.802   1.634   2.256 -0.3975 -0.1721 -0.7583
  547MOL0     C73774   7.650   1.614   2.225 -0.2953  0.2153  0.1303
  547MOL0     C73775   7.532   1.584   2.211 -0.1757 -1.1745 -0.5418
  547MOL0     C73776   8.125   1.302   1.835 -0.4803  0.0135 -0.0870
  547MOL0     C73777   8.253   1.245   1.812  0.9549  0.7268  0.9906
  547MOL0     H73778   8.642   1.051   2.021 -0.1597 -1.7627 -0.4408
  547MOL0     H73779   8.857   0.935   2.010 -0.0587  1.6083  0.6414
  547MOL0     H73780   9.107   0.982   1.908  0.6291  0.9229 -0.2668
  547MOL0     H73781   9.071   0.822   1.968  1.3678 -1.5602 -1.0576
  547MOL0     H73782   9.192   0.710   1.817 -3.1851  1.3751  1.9036
  547MOL0     H73783   9.210   0.852   1.709 -0.1619 -2.5801 -2.2064
  547MOL0     H73784   9.367   0.966   1.868 -4.2720  0.6427  1.2033
  547MOL0     H73785   9.352   0.831   1.980  2.4333 -0.8400 -0.1550
  547MOL0     H73786   9.481   0.677   1.844  1.3270 -0.1070  2.4964
  547MOL0     H73787   9.451   0.776   1.701 -2.7088  2.0141  1.3188
  547MOL0     H73788   9.698   0.804   1.752  0.5760  1.6839  0.0137
  547MOL0     H73789   9.615   0.956   1.799 -3.7441  0.6067 -1.0964
  547MOL0     H73790   9.774   0.862   1.964  0.1577  0.4389 -0.6847
  547MOL0     H73791   9.610   0.850   2.037 -2.3074 -1.4881 -0.6197
  547MOL0     H73792   9.646   0.589   1.955 -0.9811  1.2244 -0.1384
  547MOL0     H73793   9.806   0.641   1.935 -1.0683 -0.9980  0.3804
  547MOL0     H73794   9.801   0.545   2.150 -0.6495 -0.9133  2.4517
  547MOL0     H73795   9.638   0.587   2.180 -0.1322  0.8007 -0.9989
  547MOL0     H73796   9.559   0.790   2.288 -0.4858  1.4317  0.8793
  547MOL0     H73797   9.657   1.114   2.381 -0.8872 -0.1755  0.3519
  547MOL0     H73798   9.557   0.990   2.432 -0.4813  1.8203 -0.7544
  547MOL0     H73799   9.825   1.028   2.564 -0.7677  0.3059 -0.4886
  547MOL0     H73800   9.693   0.955   2.651  0.1010  1.5052  2.5153
  547MOL0     H73801   9.579   1.149   2.702  1.2308 -0.1985 -0.1102
  547MOL0     H73802   9.632   1.230   2.571  0.0029 -1.4161 -2.1436
  547MOL0     H73803   9.709   1.305   2.794 -2.3602  0.7279 -2.1154
  547MOL0     H73804   9.857   1.264   2.721  0.4362 -1.3852 -1.4183
  547MOL0     H73805   9.836   1.268   3.082  1.9486 -3.1444 -2.2127
  547MOL0     H73806   9.830   1.306   3.298  0.6251 -3.1334  2.0111
  547MOL0     H73807   9.667   1.364   3.340  3.3068  2.9397 -3.1421
  547MOL0     H73808   9.735   1.223   3.419 -1.7681 -0.7429  1.5176
  547MOL0     H73809   9.220   0.786   3.286 -1.4337 -0.4997 -0.4966
  547MOL0     H73810   9.079   0.671   3.476 -0.8272  0.7573  0.9338
  547MOL0     H73811   8.959   0.763   3.671  2.1649 -0.6740 -0.7676
  547MOL0     H73812   8.946   0.580   3.676  2.3072 -0.2609 -1.8388
  547MOL0     H73813   8.820   0.705   3.851  0.6655  0.9628 -2.9822
  547MOL0     H73814   8.933   0.589   3.909  1.0962  0.6731  0.3345
  547MOL0     H73815   9.089   0.746   3.982  0.4752  0.4227  0.3294
  547MOL0     H73816   8.940   0.778   4.048  1.7854  2.9495  1.6441
  547MOL0     H73817   9.082   0.922   3.825  0.0751 -0.8304 -0.8814
  547MOL0     H73818   8.911   0.966   3.878  0.9076  2.0866  0.5086
  547MOL0     H73819   9.158   0.962   4.062 -1.3321 -1.5381  0.4345
  547MOL0     H73820   8.990   1.011   4.100 -1.5898 -2.5661 -0.6802
  547MOL0     H73821   9.155   1.141   3.873 -1.2956  4.5537 -2.2933
  547MOL0     H73822   9.000   1.209   3.925  2.7645  2.6894 -2.1716
  547MOL0     H73823   9.233   1.182   4.112 -2.3376 -2.2035  1.7826
  547MOL0     H73824   9.079   1.252   4.151 -0.4833 -0.7874 -0.0238
  547MOL0     H73825   9.117   1.415   3.957  0.4435 -0.0009 -0.2853
  547MOL0     H73826   9.285   1.355   3.939 -1.0762  1.1583 -1.7071
  547MOL0     H73827   9.310   0.857   3.763 -2.2849  1.1767  0.7569
  547MOL0     H73828   9.439   0.988   3.592 -1.6782  1.4726 -1.0325
  547MOL0     H73829   9.448   0.963   3.095  0.8072 -1.5071  0.6080
  547MOL0     H73830   9.575   0.986   2.886  1.3118 -2.8648  1.1639
  547MOL0     H73831   8.851   0.938   1.586 -0.4516  1.1239 -1.0536
  547MOL0     H73832   8.645   1.064   1.581 -0.6691  1.6277  0.1182
  547MOL0     H73833   8.417   1.508   1.673 -1.1350  3.9441  2.9594
  547MOL0     H73834   8.196   1.604   1.698 -6.4185 -0.2290 -1.4650
  547MOL0     H73835   8.063   1.632   1.951 -0.1725 -2.0130  1.8761
  547MOL0     H73836   7.931   1.691   1.855 -2.6168  0.0954  2.0027
  547MOL0     H73837   7.951   1.472   2.068 -1.0725 -0.4057 -0.2140
  547MOL0     H73838   7.790   1.514   1.999 -1.0796  0.6785 -0.1681
  547MOL0     H73839   7.795   1.743   2.066 -0.6065 -0.3929  1.5298
  547MOL0     H73840   7.951   1.721   2.148 -0.3418 -0.7174  2.2171
  547MOL0     H73841   7.819   1.710   2.333 -0.8836 -2.6366  1.9642
  547MOL0     H73842   7.842   1.540   2.295  0.9275  0.7391  0.1414
  547MOL0     H73843   7.427   1.563   2.200 -0.3549 -1.3436  1.2258
  547MOL0     H73844   8.042   1.245   1.875 -1.2658 -1.7789 -3.8106
  547MOL0     H73845   8.259   1.142   1.845  2.7478 -0.4109 -2.4479
  548MOL0     O73846   3.235   7.733   0.926 -1.1578  0.6791  0.1516
  548MOL0     C73847   3.115   7.751   0.922  0.1532  0.1676 -0.3213
  548MOL0     O73848   3.030   7.715   0.816 -0.9719 -0.1209 -0.0078
  548MOL0     C73849   3.089   7.630   0.715 -0.1780  0.0161 -0.6648
  548MOL0     C73850   3.147   7.506   0.740  0.2918  0.5157 -0.0881
  548MOL0     C73851   3.193   7.423   0.633  0.0172 -0.7012 -0.5187
  548MOL0     C73852   3.207   7.477   0.506  0.3528 -0.6253  0.0990
  548MOL0     O73853   3.252   7.403   0.399 -0.0562 -0.1235  0.2596
  548MOL0     C73854   3.270   7.256   0.424  0.1753  0.8662  0.7298
  548MOL0     C73855   3.331   7.198   0.295 -1.1332  0.5568 -0.1392
  548MOL0     C73856   3.488   7.214   0.301 -0.6397 -0.3914  0.1483
  548MOL0     C73857   3.546   7.123   0.192 -0.2779  0.8599  0.3757
  548MOL0     C73858   3.702   7.130   0.164  0.7208  0.0312  0.0997
  548MOL0     C73859   3.775   7.115   0.301 -0.0773 -0.2306  0.4909
  548MOL0     C73860   3.921   7.073   0.288 -0.1986  0.3400 -0.1941
  548MOL0     C73861   3.972   7.027   0.435  0.2889 -1.1488 -0.9297
  548MOL0     N73862   4.110   6.978   0.430  0.6675 -0.1634  0.2650
  548MOL0     C73863   4.219   7.036   0.486 -0.3427  0.1776 -0.3936
  548MOL0     C73864   4.319   6.944   0.476 -0.2581 -0.4469  0.1790
  548MOL0     C73865   4.459   6.938   0.528 -0.7023  0.2564  0.0535
  548MOL0     C73866   4.497   7.061   0.611  0.1981  0.4513  0.0260
  548MOL0     C73867   4.432   7.093   0.744  0.7364  1.1215 -0.6774
  548MOL0     C73868   4.542   7.131   0.847  0.2973  0.5918 -0.4372
  548MOL0     O73869   4.607   7.012   0.880 -0.2465  0.2240  0.3366
  548MOL0     C73870   4.723   7.005   0.940 -0.5729  0.5928  0.1579
  548MOL0     C73871   4.803   6.890   0.905  0.4584  0.3398  0.1211
  548MOL0     C73872   4.939   6.883   0.941 -0.7155 -0.0267 -0.8663
  548MOL0     C73873   5.023   6.761   0.900 -0.2602  0.5543 -0.1144
  548MOL0     C73874   5.002   6.997   1.012  1.2091 -0.0670 -0.2775
  548MOL0     C73875   5.150   7.005   1.053  0.6445  1.0190  0.6658
  548MOL0     O73876   5.191   7.130   1.061 -0.1176  0.1414  0.1405
  548MOL0     C73877   5.309   7.162   1.100  0.4263  0.8451  0.7977
  548MOL0     C73878   5.378   7.273   1.047 -0.0047  0.9305  0.3438
  548MOL0     C73879   5.499   7.317   1.108  0.2903 -0.6512  0.1526
  548MOL0     C73880   5.558   7.254   1.212 -1.0942  0.3401 -0.2080
  548MOL0     O73881   5.675   7.310   1.258 -0.7507  0.2425  0.4154
  548MOL0     C73882   5.747   7.249   1.369  0.2989  0.4533 -1.0074
  548MOL0     C73883   5.881   7.310   1.393  0.1260 -1.1037  0.1294
  548MOL0     C73884   5.884   7.463   1.373  0.6228 -0.5036 -0.5173
  548MOL0     C73885   6.002   7.530   1.448  1.2210  0.1901  0.2662
  548MOL0     C73886   6.028   7.667   1.385  0.0650  0.6436  0.2754
  548MOL0     C73887   5.928   7.764   1.447  0.1844 -0.0111  0.3670
  548MOL0     C73888   5.962   7.902   1.385  0.0587 -1.1378  0.7928
  548MOL0     C73889   5.857   8.007   1.411  0.2118 -0.2440 -0.3840
  548MOL0    Cl73890   5.851   8.046   1.586 -0.1345 -0.0397  0.5956
  548MOL0     C73891   5.497   7.145   1.259 -0.4088  0.8746  0.4457
  548MOL0     C73892   5.377   7.102   1.206 -0.1422 -0.0053  0.5848
  548MOL0     O73893   5.214   6.902   1.076 -0.3704 -0.1338 -0.2753
  548MOL0     C73894   4.911   7.094   1.048 -0.1332 -0.7408 -0.7895
  548MOL0     C73895   4.783   7.105   1.004 -0.5851 -0.1838  0.4525
  548MOL0     N73896   4.263   6.840   0.406 -0.6467 -0.2819  0.1008
  548MOL0     N73897   4.147   6.862   0.375  1.0695  0.7959 -1.0633
  548MOL0     C73898   3.161   7.610   0.481 -1.2769 -0.0906  0.1686
  548MOL0     C73899   3.099   7.683   0.585 -1.6214  1.0434  0.3881
  548MOL0     C73900   3.059   7.823   1.035  0.8875  0.0095 -0.0124
  548MOL0     C73901   3.131   7.891   1.131 -0.8293  0.9229  0.3688
  548MOL0     C73902   3.065   7.951   1.243  1.0340 -0.0261  0.3258
  548MOL0     C73903   2.932   7.924   1.263  0.1487  0.4493  1.1294
  548MOL0     O73904   2.856   7.983   1.366 -0.9833 -0.4441 -0.2941
  548MOL0     C73905   2.898   8.100   1.435  0.0367  0.1731  0.1644
  548MOL0     C73906   2.940   8.220   1.351  0.9207  0.2805 -0.7780
  548MOL0     C73907   2.811   8.258   1.267 -0.0704  0.0468 -0.3207
  548MOL0     C73908   2.826   8.405   1.222 -0.1640  0.3720 -0.1857
  548MOL0     C73909   2.923   8.422   1.110  0.0258  0.4911  0.4307
  548MOL0     C73910   3.000   8.417   1.013  0.3565  0.7948  0.0414
  548MOL0     C73911   2.864   7.845   1.178  1.0201  0.6292  0.2982
  548MOL0     C73912   2.926   7.795   1.067 -0.5565 -0.5009  0.1303
  548MOL0     H73913   3.136   7.468   0.841  0.3708 -1.6107 -0.8236
  548MOL0     H73914   3.209   7.319   0.660 -1.6845 -0.7300  0.4760
  548MOL0     H73915   3.333   7.239   0.512  1.9371  0.7305 -0.5130
  548MOL0     H73916   3.177   7.200   0.439  0.9568 -0.2239  1.5910
  548MOL0     H73917   3.320   7.089   0.296 -0.1443  0.4400 -0.6661
  548MOL0     H73918   3.283   7.247   0.210 -0.6867  2.6154  0.7206
  548MOL0     H73919   3.529   7.315   0.286  1.4344 -0.9887  1.4204
  548MOL0     H73920   3.519   7.180   0.400  0.5608 -1.4732 -0.5790
  548MOL0     H73921   3.516   7.021   0.219 -2.8494  1.6548  0.8164
  548MOL0     H73922   3.515   7.135   0.088  2.2180  1.1872 -0.4055
  548MOL0     H73923   3.735   7.038   0.116  0.0160 -0.7961  1.1497
  548MOL0     H73924   3.736   7.216   0.106 -0.4575 -2.3404 -4.6427
  548MOL0     H73925   3.750   7.205   0.358  1.1080  1.4040 -1.4014
  548MOL0     H73926   3.725   7.026   0.341 -0.1909 -1.1349 -1.5285
  548MOL0     H73927   3.926   6.979   0.232 -1.1395  1.8100 -2.9034
  548MOL0     H73928   3.980   7.143   0.228  0.4898  0.0543  0.1347
  548MOL0     H73929   3.907   6.949   0.476  0.3368 -0.9932 -0.5467
  548MOL0     H73930   3.976   7.116   0.499  1.9387  1.4408 -4.2734
  548MOL0     H73931   4.235   7.133   0.532  0.9801 -0.3628  0.3136
  548MOL0     H73932   4.476   6.849   0.588  3.2346  0.4386 -0.5669
  548MOL0     H73933   4.532   6.934   0.447 -1.5127  4.7655 -1.1783
  548MOL0     H73934   4.480   7.139   0.536 -1.6292 -1.6248 -1.8541
  548MOL0     H73935   4.604   7.055   0.633 -0.0727  3.8656  3.3097
  548MOL0     H73936   4.380   7.000   0.768  0.9317  0.2450 -3.3439
  548MOL0     H73937   4.363   7.177   0.734  0.3542  0.9402  0.3097
  548MOL0     H73938   4.488   7.171   0.933  0.3862  1.4168 -0.7602
  548MOL0     H73939   4.609   7.208   0.807 -1.2311  1.4369 -1.4800
  548MOL0     H73940   4.754   6.807   0.856 -1.2244  2.4182 -1.9289
  548MOL0     H73941   5.097   6.788   0.824 -0.4993  2.1045  0.1646
  548MOL0     H73942   5.066   6.718   0.991 -0.7910 -2.4275 -1.1583
  548MOL0     H73943   4.969   6.681   0.849  1.7349  0.5109 -2.3132
  548MOL0     H73944   5.333   7.317   0.958 -4.1588 -5.0074 -1.1138
  548MOL0     H73945   5.558   7.399   1.067  0.6570 -0.4910  0.9825
  548MOL0     H73946   5.690   7.278   1.459 -0.1907 -0.8824 -0.8703
  548MOL0     H73947   5.755   7.141   1.357 -1.2221  0.1494  0.3021
  548MOL0     H73948   5.935   7.284   1.484  0.3400 -0.6036  0.1490
  548MOL0     H73949   5.948   7.269   1.318 -0.7529 -1.0937 -0.6819
  548MOL0     H73950   5.795   7.519   1.404  1.9120  1.4226 -0.0875
  548MOL0     H73951   5.895   7.483   1.266 -1.0095 -0.1250 -0.6523
  548MOL0     H73952   5.991   7.546   1.556  1.6132 -0.3815  0.3971
  548MOL0     H73953   6.095   7.474   1.440  1.3938  0.5767 -0.5021
  548MOL0     H73954   6.025   7.670   1.276  1.5231  0.3163  0.2051
  548MOL0     H73955   6.132   7.686   1.414  0.6934  0.6456 -1.8603
  548MOL0     H73956   5.827   7.734   1.419  0.3448  2.2228 -3.1764
  548MOL0     H73957   5.947   7.754   1.555 -1.1201 -1.8550  0.4604
  548MOL0     H73958   5.963   7.887   1.277  0.7293 -2.4970  0.9603
  548MOL0     H73959   6.063   7.934   1.415 -1.2166  1.1172  3.0239
  548MOL0     H73960   5.757   7.970   1.385 -0.7603  2.6395 -1.1546
  548MOL0     H73961   5.874   8.092   1.345 -0.3500 -1.8294 -2.6740
  548MOL0     H73962   5.528   7.089   1.347 -1.7121 -0.9173 -0.1643
  548MOL0     H73963   5.325   7.017   1.250 -3.3606  0.5186 -1.8188
  548MOL0     H73964   4.949   7.168   1.119 -0.6713 -1.2108  0.0047
  548MOL0     H73965   4.724   7.190   1.035 -2.6230 -1.7300  1.0185
  548MOL0     H73966   3.173   7.656   0.383 -0.8922 -0.6435 -0.0509
  548MOL0     H73967   3.080   7.787   0.561 -2.6156  0.6500 -0.6257
  548MOL0     H73968   3.238   7.907   1.121 -0.7255  0.0763 -0.0103
  548MOL0     H73969   3.115   8.000   1.326  0.3150  0.3256  0.5526
  548MOL0     H73970   2.821   8.134   1.504  0.0492 -0.3916  0.4614
  548MOL0     H73971   2.979   8.065   1.499  0.7963  2.4975  0.5594
  548MOL0     H73972   3.024   8.204   1.283  1.3709  1.9305 -0.6584
  548MOL0     H73973   2.958   8.302   1.421 -0.2838 -0.6892  0.7246
  548MOL0     H73974   2.724   8.266   1.333 -0.4203  1.7810 -0.9576
  548MOL0     H73975   2.809   8.190   1.181  0.2064  1.6132 -1.5983
  548MOL0     H73976   2.860   8.463   1.309  2.0867 -4.7304  2.8377
  548MOL0     H73977   2.732   8.450   1.188  1.3321  3.2196 -0.8509
  548MOL0     H73978   3.070   8.403   0.933 -0.6200 -2.2664 -0.4062
  548MOL0     H73979   2.763   7.816   1.205  1.5174  0.0618  1.5932
  548MOL0     H73980   2.874   7.737   0.991 -0.8777  2.0480 -1.7473
  549MOL0     O73981   0.757   6.343   9.306  0.4188  0.3740  0.2336
  549MOL0     C73982   0.855   6.397   9.249 -0.6346 -0.3187 -0.3478
  549MOL0     O73983   0.885   6.402   9.122  0.4919 -0.2774 -0.4136
  549MOL0     C73984   0.812   6.375   9.013 -0.5332  0.4452  0.4838
  549MOL0     C73985   0.855   6.435   8.895 -0.2877  0.8818 -1.2875
  549MOL0     C73986   0.784   6.437   8.778 -0.5977 -0.0679  0.3608
  549MOL0     C73987   0.667   6.364   8.778  0.0011  0.8416  0.1286
  549MOL0     O73988   0.600   6.342   8.654 -0.6637  0.9519  0.1534
  549MOL0     C73989   0.466   6.373   8.641  0.7101 -0.0969  0.3760
  549MOL0     C73990   0.421   6.390   8.494  0.5515  0.2759 -0.2951
  549MOL0     C73991   0.296   6.477   8.479 -0.4920 -0.6294  0.0842
  549MOL0     C73992   0.178   6.417   8.546 -0.3152  0.2454 -0.5026
  549MOL0     C73993   0.053   6.450   8.461  0.3975 -0.8015  0.5125
  549MOL0     C73994   0.045   6.381   8.323 -0.1483 -0.5201  0.4086
  549MOL0     C73995  -0.078   6.441   8.251 -1.1203 -0.2468  0.0889
  549MOL0     C73996  -0.115   6.340   8.139  0.6671 -0.2441  0.3767
  549MOL0     N73997  -0.243   6.377   8.090 -0.3645  0.8953 -0.5020
  549MOL0     C73998  -0.368   6.379   8.154 -0.5272  0.4732  0.8328
  549MOL0     C73999  -0.457   6.409   8.065  0.2918 -0.0915  1.0581
  549MOL0     C74000  -0.609   6.414   8.098 -0.9361  0.2186  0.2231
  549MOL0     C74001  -0.693   6.381   7.970  0.1093 -0.7691 -0.6767
  549MOL0     C74002  -0.747   6.509   7.890 -0.2090 -0.1237  0.1454
  549MOL0     C74003  -0.656   6.564   7.781  0.4723  0.1334  0.5906
  549MOL0     O74004  -0.738   6.633   7.690  0.1503  0.1005 -0.2268
  549MOL0     C74005  -0.686   6.675   7.567  0.3140  0.2327 -0.6381
  549MOL0     C74006  -0.779   6.726   7.466 -0.5356 -0.2511 -0.5346
  549MOL0     C74007  -0.736   6.782   7.338  0.5725  0.1312 -0.1935
  549MOL0     C74008  -0.837   6.847   7.253 -0.4139  0.4428  0.5806
  549MOL0     C74009  -0.604   6.751   7.304  0.9593  0.4713 -0.4072
  549MOL0     C74010  -0.536   6.767   7.170  0.5321 -0.5858 -0.0949
  549MOL0     O74011  -0.429   6.692   7.144  0.0967 -0.3796 -0.0292
  549MOL0     C74012  -0.363   6.693   7.026 -0.3906 -0.4268 -1.5988
  549MOL0     C74013  -0.343   6.581   6.951  0.0425  0.6451  0.2302
  549MOL0     C74014  -0.253   6.593   6.841 -0.0016  0.9669  0.8105
  549MOL0     C74015  -0.173   6.700   6.815  0.6991 -1.2046 -0.1172
  549MOL0     O74016  -0.078   6.693   6.711 -0.3661  0.5207  0.0756
  549MOL0     C74017  -0.133   6.724   6.582 -0.0160 -0.9016 -1.2697
  549MOL0     C74018  -0.091   6.866   6.550  0.4550  0.8172 -0.2446
  549MOL0     C74019   0.064   6.860   6.517  0.5944  0.7596  0.0833
  549MOL0     C74020   0.117   7.009   6.512  1.3846 -0.1695 -0.0279
  549MOL0     C74021   0.267   7.011   6.490  0.2935 -0.0201  0.1812
  549MOL0     C74022   0.334   6.964   6.614 -1.0763 -0.3370  0.0878
  549MOL0     C74023   0.484   6.981   6.586 -0.6954  0.3985  0.2985
  549MOL0     C74024   0.566   6.874   6.654  0.2277 -0.7360  0.0334
  549MOL0    Cl74025   0.536   6.721   6.557  0.5506  0.0160 -0.6646
  549MOL0     C74026  -0.189   6.814   6.893  0.2454  0.0057 -0.8569
  549MOL0     C74027  -0.291   6.810   7.001 -1.0970 -0.8637  0.5791
  549MOL0     O74028  -0.574   6.864   7.101  0.1259  0.4349  0.6073
  549MOL0     C74029  -0.522   6.691   7.397  0.0543 -0.4847  0.0367
  549MOL0     C74030  -0.556   6.661   7.527  0.3548  0.2525 -0.0055
  549MOL0     N74031  -0.388   6.430   7.939  0.1391  0.0778 -0.7662
  549MOL0     N74032  -0.262   6.417   7.962 -0.4656  0.4445  0.3891
  549MOL0     C74033   0.635   6.282   8.887 -0.4524 -0.5991  0.2083
  549MOL0     C74034   0.697   6.295   9.008 -0.0003  0.4414 -0.7498
  549MOL0     C74035   0.938   6.470   9.353 -0.0191 -0.1829 -0.3252
  549MOL0     C74036   0.920   6.470   9.488 -0.0448  0.8296 -0.6135
  549MOL0     C74037   1.022   6.528   9.566 -0.1004  1.3584 -1.7377
  549MOL0     C74038   1.129   6.598   9.519  0.1906 -0.3838  0.7347
  549MOL0     O74039   1.205   6.688   9.597 -0.6256  0.9119 -0.6620
  549MOL0     C74040   1.232   6.663   9.738  0.3142  0.1716  0.4039
  549MOL0     C74041   1.147   6.749   9.826 -0.4627  0.5330  0.3444
  549MOL0     C74042   1.184   6.900   9.827  0.1724  0.5602  0.2437
  549MOL0     C74043   1.138   6.972   9.709  0.6610  0.4638 -0.1493
  549MOL0     C74044   1.136   7.123   9.714 -0.0626 -0.7543  0.0934
  549MOL0     C74045   1.125   7.238   9.691 -0.0544  0.3452 -0.1232
  549MOL0     C74046   1.136   6.606   9.380 -0.4865  0.3838 -0.0389
  549MOL0     C74047   1.046   6.541   9.301 -0.0861 -0.2443 -0.1539
  549MOL0     H74048   0.955   6.476   8.889  0.6028 -0.9170  0.3008
  549MOL0     H74049   0.817   6.495   8.692  1.2565  2.4348  2.5906
  549MOL0     H74050   0.406   6.299   8.695  1.7018 -1.3308 -0.1405
  549MOL0     H74051   0.452   6.464   8.699  3.5379  0.8432 -0.2639
  549MOL0     H74052   0.501   6.431   8.432  1.1374 -0.3647  0.0274
  549MOL0     H74053   0.402   6.290   8.454 -0.8264 -0.1628  1.3249
  549MOL0     H74054   0.319   6.575   8.520  2.3944 -0.5826 -1.3578
  549MOL0     H74055   0.279   6.485   8.371 -2.7232 -1.1882  0.3347
  549MOL0     H74056   0.195   6.309   8.551 -1.7438  0.0576  1.2413
  549MOL0     H74057   0.162   6.452   8.648  3.3611  0.6577  0.0839
  549MOL0     H74058  -0.038   6.432   8.519 -0.3799  0.1193 -0.3873
  549MOL0     H74059   0.059   6.558   8.444  1.3343 -0.8772  0.2965
  549MOL0     H74060   0.130   6.413   8.263 -1.3084 -2.3222 -2.4338
  549MOL0     H74061   0.045   6.272   8.316  0.7628 -0.4129 -2.4236
  549MOL0     H74062  -0.162   6.453   8.321 -1.0614 -1.5003  0.3997
  549MOL0     H74063  -0.039   6.530   8.201  2.0726 -2.5924 -1.9964
  549MOL0     H74064  -0.132   6.239   8.178  4.6763 -0.9173  0.7803
  549MOL0     H74065  -0.038   6.329   8.063  1.3717 -3.1812  1.4004
  549MOL0     H74066  -0.394   6.372   8.259  0.2433  2.2023  1.1673
  549MOL0     H74067  -0.642   6.350   8.180 -0.1964  0.8539  1.0253
  549MOL0     H74068  -0.623   6.520   8.123  0.7111  0.2269  1.2331
  549MOL0     H74069  -0.779   6.320   7.999  1.1585 -1.4069  1.3270
  549MOL0     H74070  -0.646   6.307   7.903  1.2438 -2.3692  1.7416
  549MOL0     H74071  -0.771   6.595   7.953 -1.8757 -1.7925  1.9196
  549MOL0     H74072  -0.838   6.481   7.835 -1.4655  2.7689  0.6030
  549MOL0     H74073  -0.620   6.482   7.718  0.8157  1.0105 -0.3941
  549MOL0     H74074  -0.569   6.611   7.826  1.0459 -1.6823  1.4850
  549MOL0     H74075  -0.881   6.717   7.502 -0.7865  1.2803 -0.7996
  549MOL0     H74076  -0.851   6.786   7.163 -1.4088  1.5684 -0.0419
  549MOL0     H74077  -0.940   6.855   7.287 -0.3575 -0.3410  0.9610
  549MOL0     H74078  -0.809   6.943   7.210 -0.0020  0.0359 -0.0947
  549MOL0     H74079  -0.408   6.496   6.967  1.3393 -0.2039  1.1656
  549MOL0     H74080  -0.254   6.505   6.778  0.7594  1.0007  0.7400
  549MOL0     H74081  -0.100   6.645   6.514  1.1986  0.2409 -2.0463
  549MOL0     H74082  -0.242   6.726   6.586 -0.3451  4.3137 -4.1544
  549MOL0     H74083  -0.142   6.910   6.464  0.1065  1.0252  0.0669
  549MOL0     H74084  -0.107   6.932   6.635 -3.6321  0.0573 -0.2307
  549MOL0     H74085   0.073   6.811   6.420  0.0057  1.2232 -0.2094
  549MOL0     H74086   0.116   6.794   6.587  1.7929  2.6549  1.0625
  549MOL0     H74087   0.070   7.064   6.431 -4.5268  0.7208  3.3788
  549MOL0     H74088   0.082   7.063   6.601 -1.0677  1.4380 -1.8636
  549MOL0     H74089   0.304   7.110   6.462 -0.1769 -0.1871 -1.0455
  549MOL0     H74090   0.304   6.944   6.412  2.3986 -0.4220  1.4459
  549MOL0     H74091   0.306   7.033   6.694 -2.0155 -0.9087  0.2594
  549MOL0     H74092   0.316   6.861   6.644  1.0933 -1.2488 -1.4333
  549MOL0     H74093   0.528   7.077   6.615 -1.0540 -0.2170  3.2057
  549MOL0     H74094   0.506   6.969   6.479  1.6132 -5.6160  1.1153
  549MOL0     H74095   0.535   6.845   6.755  0.4573  1.2808  0.7235
  549MOL0     H74096   0.674   6.890   6.658  0.8558 -4.3640  1.7099
  549MOL0     H74097  -0.123   6.900   6.882  0.3953 -0.1060 -0.8324
  549MOL0     H74098  -0.302   6.897   7.065 -0.1191 -0.3167  0.0307
  549MOL0     H74099  -0.426   6.650   7.368 -0.8587 -2.4454 -0.4222
  549MOL0     H74100  -0.475   6.618   7.586 -0.6586  0.0712  1.3025
  549MOL0     H74101   0.549   6.219   8.869  0.2534 -0.9325 -2.5195
  549MOL0     H74102   0.657   6.260   9.103  4.8710  1.6005  2.1155
  549MOL0     H74103   0.836   6.422   9.538 -1.4965  3.4925 -0.3469
  549MOL0     H74104   1.006   6.531   9.673  0.3672 -0.1293 -1.6028
  549MOL0     H74105   1.219   6.560   9.773  3.3234 -0.1298  0.9375
  549MOL0     H74106   1.341   6.679   9.742  0.8067 -1.4086 -2.7440
  549MOL0     H74107   1.187   6.718   9.923  2.9807  0.1808 -1.0229
  549MOL0     H74108   1.039   6.738   9.819 -0.4311  0.4442 -0.0120
  549MOL0     H74109   1.291   6.919   9.841  0.5128  0.0342 -1.3877
  549MOL0     H74110   1.129   6.948   9.907 -1.5609  1.7048 -1.5432
  549MOL0     H74111   1.037   6.940   9.681  1.0243 -1.8426  0.9206
  549MOL0     H74112   1.210   6.939   9.634 -1.7672 -0.7019 -2.0951
  549MOL0     H74113   1.122   7.345   9.680 -2.2360  0.2828 -0.5497
  549MOL0     H74114   1.204   6.679   9.336 -2.6676  2.7027  0.2043
  549MOL0     H74115   1.066   6.547   9.195 -2.4810  1.3729 -0.5869
  550MOL0     O74116   5.285   6.187   1.121 -0.8807 -0.4704 -0.6474
  550MOL0     C74117   5.364   6.199   1.029  0.0590 -0.2199 -0.2890
  550MOL0     O74118   5.397   6.110   0.930 -0.1327 -0.1375 -0.2349
  550MOL0     C74119   5.346   5.978   0.929 -0.3979  0.1572 -0.1543
  550MOL0     C74120   5.432   5.874   0.891  0.0614  0.3003 -0.0609
  550MOL0     C74121   5.374   5.743   0.888 -0.0488  0.2433 -0.1225
  550MOL0     C74122   5.234   5.725   0.915  0.1889  0.2185 -0.0437
  550MOL0     O74123   5.193   5.595   0.911  0.3857 -0.0003 -0.2229
  550MOL0     C74124   5.052   5.568   0.917 -0.0578  0.3251  0.1379
  550MOL0     C74125   4.977   5.626   0.793 -0.3945  0.2346  0.1513
  550MOL0     C74126   4.852   5.539   0.788 -0.3911  0.2256  0.2478
  550MOL0     C74127   4.862   5.389   0.745  0.3067 -0.1076  0.4539
  550MOL0     C74128   4.731   5.316   0.756  0.0915 -0.0395 -0.0214
  550MOL0     C74129   4.729   5.187   0.669  1.1728  0.8239 -0.1545
  550MOL0     C74130   4.592   5.115   0.656  0.1327 -0.5188 -0.0919
  550MOL0     C74131   4.587   5.007   0.553 -0.3124 -0.5430 -0.3745
  550MOL0     N74132   4.486   4.894   0.572  0.1268  0.1782 -0.1466
  550MOL0     C74133   4.365   4.875   0.507  0.6689 -0.4764 -0.5938
  550MOL0     C74134   4.304   4.769   0.556 -0.4978  0.4056  0.1009
  550MOL0     C74135   4.167   4.732   0.529  0.6026  0.4594 -0.6395
  550MOL0     C74136   4.156   4.592   0.469 -0.2510 -0.4286  0.2643
  550MOL0     C74137   4.025   4.589   0.385 -0.8102  0.1386  0.7064
  550MOL0     C74138   4.011   4.455   0.299 -1.1389  0.1903  0.6052
  550MOL0     O74139   3.991   4.341   0.367  0.7447 -0.2872 -0.5521
  550MOL0     C74140   4.009   4.218   0.306 -0.3907 -0.4532 -0.2429
  550MOL0     C74141   4.062   4.194   0.185 -0.0257 -0.0544 -0.0883
  550MOL0     C74142   4.066   4.066   0.135  0.7129  0.8237  0.7000
  550MOL0     C74143   4.121   4.055  -0.008 -0.0092  0.2614 -1.1802
  550MOL0     C74144   4.027   3.953   0.211 -1.3073 -0.3292  0.3720
  550MOL0     C74145   4.032   3.816   0.161  0.1227  0.3253  0.7862
  550MOL0     O74146   3.981   3.727   0.253 -0.5934  0.4207  0.8129
  550MOL0     C74147   3.972   3.596   0.222  0.9292 -0.7562 -0.0982
  550MOL0     C74148   4.073   3.511   0.282  0.2203  0.2808 -0.4053
  550MOL0     C74149   4.051   3.369   0.266 -0.1087 -0.0007 -0.5119
  550MOL0     C74150   3.946   3.317   0.187 -0.4823 -0.0643 -0.3734
  550MOL0     O74151   3.931   3.183   0.191  0.3162 -0.2285  0.6065
  550MOL0     C74152   3.834   3.126   0.098  1.1862 -0.2869 -0.1287
  550MOL0     C74153   3.864   2.968   0.102 -0.1186 -1.4534 -0.1757
  550MOL0     C74154   3.835   2.887  -0.030 -0.2227 -0.1828  1.0504
  550MOL0     C74155   3.681   2.866  -0.057  0.0622  1.3571 -1.1449
  550MOL0     C74156   3.622   2.760   0.047  0.4339 -0.4529 -0.3005
  550MOL0     C74157   3.475   2.733   0.003  0.2704 -0.0604 -0.1019
  550MOL0     C74158   3.399   2.855   0.039  0.1547 -0.1262  0.0205
  550MOL0     C74159   3.346   2.856   0.179  0.4509  0.3814 -0.1897
  550MOL0    Cl74160   3.225   2.728   0.213  0.0583 -0.1393 -0.4874
  550MOL0     C74161   3.846   3.407   0.140 -0.2201  0.4269 -0.0704
  550MOL0     C74162   3.865   3.546   0.149  0.5080 -0.0081  0.3649
  550MOL0     O74163   4.060   3.791   0.045  0.2585  0.7232  0.7052
  550MOL0     C74164   3.989   3.984   0.348  0.5646 -0.4290  0.6591
  550MOL0     C74165   3.984   4.115   0.394  0.0337  0.0480  0.3395
  550MOL0     N74166   4.387   4.719   0.651 -0.3530  0.2887 -0.2392
  550MOL0     N74167   4.493   4.788   0.657 -0.1884  0.1971  1.2376
  550MOL0     C74168   5.160   5.828   0.956  0.9528  0.5327  0.9602
  550MOL0     C74169   5.214   5.955   0.962 -0.0185 -0.4832  0.0581
  550MOL0     C74170   5.422   6.332   0.992  0.3551 -0.2834  0.1553
  550MOL0     C74171   5.347   6.449   1.014  0.7716 -0.0189  0.3624
  550MOL0     C74172   5.382   6.571   0.960 -0.0358 -0.3417  0.4509
  550MOL0     C74173   5.504   6.582   0.890  0.2958  0.0381 -0.1272
  550MOL0     O74174   5.562   6.707   0.854  0.5924 -0.2950  0.3559
  550MOL0     C74175   5.495   6.826   0.885 -0.1344 -0.0411  0.8357
  550MOL0     C74176   5.577   6.952   0.866 -0.2905  0.2071 -0.1882
  550MOL0     C74177   5.726   6.965   0.914  0.1880 -0.0299 -0.1138
  550MOL0     C74178   5.793   7.093   0.870  0.5323  0.9395  0.3071
  550MOL0     C74179   5.776   7.113   0.720 -0.1283  0.4854 -0.1271
  550MOL0     C74180   5.780   7.141   0.601  0.4353  0.0681  0.2464
  550MOL0     C74181   5.589   6.468   0.885 -0.2977  0.3413 -0.6871
  550MOL0     C74182   5.542   6.343   0.924 -0.7293 -0.6754 -0.8697
  550MOL0     H74183   5.536   5.888   0.864 -0.0154 -1.2807 -1.3275
  550MOL0     H74184   5.429   5.651   0.869 -0.4133 -0.6770  2.7276
  550MOL0     H74185   5.045   5.459   0.927 -1.0880 -0.1261 -3.7884
  550MOL0     H74186   4.997   5.600   1.007  0.0219  0.1083  0.2635
  550MOL0     H74187   4.962   5.734   0.804  1.1102  0.4586  0.2960
  550MOL0     H74188   5.043   5.610   0.707  1.0076 -0.8705  1.3885
  550MOL0     H74189   4.785   5.549   0.874 -3.8747 -2.3445 -1.8770
  550MOL0     H74190   4.792   5.598   0.717  0.8668  3.1249  1.4304
  550MOL0     H74191   4.882   5.379   0.637  0.7179 -1.4292  0.6323
  550MOL0     H74192   4.944   5.338   0.798  0.8370 -0.2246 -0.4488
  550MOL0     H74193   4.711   5.288   0.860  2.2272 -1.7861 -0.0148
  550MOL0     H74194   4.656   5.383   0.715  0.2989 -0.9763 -2.0403
  550MOL0     H74195   4.754   5.206   0.564  0.3328 -0.4263 -0.6013
  550MOL0     H74196   4.807   5.116   0.697 -0.3544 -1.1257 -0.6921
  550MOL0     H74197   4.558   5.076   0.752 -0.1590 -0.1249 -0.0332
  550MOL0     H74198   4.524   5.196   0.626 -0.5998 -1.0300  0.1458
  550MOL0     H74199   4.686   4.961   0.559 -0.7948 -1.4598  0.9252
  550MOL0     H74200   4.579   5.060   0.458  0.0423  0.8173  0.3210
  550MOL0     H74201   4.328   4.949   0.436 -0.1361  0.1154  0.4088
  550MOL0     H74202   4.108   4.742   0.620  1.4796  2.7529 -0.2746
  550MOL0     H74203   4.131   4.803   0.454 -0.4795 -0.6809 -1.2361
  550MOL0     H74204   4.152   4.519   0.550 -0.7619  2.2682  2.8275
  550MOL0     H74205   4.241   4.587   0.400  0.6466  1.6705  1.1400
  550MOL0     H74206   4.020   4.674   0.316 -1.3843 -1.4911 -1.3422
  550MOL0     H74207   3.941   4.590   0.454 -1.4696  0.2090 -0.0863
  550MOL0     H74208   4.097   4.451   0.231 -1.5551 -1.8290  0.1279
  550MOL0     H74209   3.926   4.466   0.231  0.4051  1.3978 -1.2296
  550MOL0     H74210   4.084   4.270   0.110  0.0298 -2.5940 -2.8744
  550MOL0     H74211   4.047   4.012  -0.076  2.8901 -1.8630 -3.2742
  550MOL0     H74212   4.133   4.159  -0.042  0.4687  1.2184  1.6308
  550MOL0     H74213   4.217   4.003  -0.013  0.0337  0.0826  0.8158
  550MOL0     H74214   4.162   3.542   0.335 -0.4290 -0.3247  1.1057
  550MOL0     H74215   4.119   3.302   0.317  1.7954  0.0573 -2.8049
  550MOL0     H74216   3.735   3.156   0.131 -0.7199 -4.1771 -1.6055
  550MOL0     H74217   3.861   3.162  -0.002  2.3488  0.1924  0.3451
  550MOL0     H74218   3.970   2.957   0.127 -0.1153 -1.3156 -0.1305
  550MOL0     H74219   3.803   2.923   0.182 -0.9674  0.4919  0.3232
  550MOL0     H74220   3.884   2.790  -0.035 -2.7487 -1.4848 -1.2318
  550MOL0     H74221   3.867   2.950  -0.114 -1.4928  1.9452  2.0750
  550MOL0     H74222   3.633   2.964  -0.058 -2.5728  0.3766  2.9352
  550MOL0     H74223   3.683   2.809  -0.150  0.8294 -1.6943  0.5876
  550MOL0     H74224   3.614   2.785   0.153 -3.1314 -1.9049 -0.0802
  550MOL0     H74225   3.681   2.669   0.057 -1.7098 -2.1457 -2.0267
  550MOL0     H74226   3.475   2.721  -0.106  0.9773  2.1053 -0.3765
  550MOL0     H74227   3.430   2.640   0.041 -1.2670  0.4224 -0.6479
  550MOL0     H74228   3.310   2.872  -0.023 -0.3879 -1.6182  0.3534
  550MOL0     H74229   3.463   2.944   0.046  1.1184 -0.9732  3.4351
  550MOL0     H74230   3.289   2.948   0.199 -1.0969 -0.5620 -0.1175
  550MOL0     H74231   3.430   2.851   0.249  0.1863  3.1468  0.4523
  550MOL0     H74232   3.774   3.376   0.065  0.5505 -2.3015  0.1979
  550MOL0     H74233   3.802   3.618   0.098  0.7123  0.8777  1.3461
  550MOL0     H74234   3.951   3.908   0.416 -2.2096  0.0299 -0.2469
  550MOL0     H74235   3.960   4.146   0.495  1.5451 -0.4174  0.8769
  550MOL0     H74236   5.063   5.815   1.003 -0.0170 -1.3015 -1.3704
  550MOL0     H74237   5.149   6.037   0.991 -0.3159  0.1649 -2.2428
  550MOL0     H74238   5.247   6.457   1.056  0.0525 -0.5662 -1.1755
  550MOL0     H74239   5.317   6.658   0.967  1.2766  0.6999  0.3477
  550MOL0     H74240   5.408   6.826   0.820 -0.0276 -2.4520  0.6252
  550MOL0     H74241   5.451   6.833   0.985  0.4888  0.1015  1.1046
  550MOL0     H74242   5.535   7.034   0.925  1.3545  0.1744  1.1488
  550MOL0     H74243   5.558   6.980   0.762 -0.1799  1.2641  0.0576
  550MOL0     H74244   5.782   6.882   0.870  1.2865  1.7067 -2.1210
  550MOL0     H74245   5.738   6.944   1.021  0.7638  0.3262 -0.1066
  550MOL0     H74246   5.901   7.080   0.882  0.1296 -4.1313  0.8356
  550MOL0     H74247   5.751   7.168   0.939  0.0237 -0.5135  1.6476
  550MOL0     H74248   5.816   7.148   0.500 -0.3382 -1.7252 -0.2001
  550MOL0     H74249   5.691   6.474   0.847 -1.5037 -0.6597 -4.4841
  550MOL0     H74250   5.592   6.248   0.904 -0.5827 -0.1122 -3.5052
  551MOL0     O74251   6.943   7.192   3.437 -0.5344  0.5114 -1.0000
  551MOL0     C74252   6.907   7.263   3.538 -0.1490 -0.3246  0.0235
  551MOL0     O74253   6.952   7.247   3.664  0.1230 -0.5452 -0.9658
  551MOL0     C74254   7.060   7.162   3.685 -0.5751 -0.5729  0.3563
  551MOL0     C74255   7.047   7.046   3.767 -1.5160 -0.3077  0.0161
  551MOL0     C74256   7.155   6.957   3.791 -0.9347 -0.2018  0.4612
  551MOL0     C74257   7.282   6.981   3.727 -0.7463 -0.7601  0.5219
  551MOL0     O74258   7.389   6.896   3.752 -0.0132 -0.2900  0.5123
  551MOL0     C74259   7.518   6.918   3.693  0.2237  0.9802  0.3275
  551MOL0     C74260   7.600   6.795   3.736 -0.9796  0.1788  0.9432
  551MOL0     C74261   7.717   6.778   3.636  0.1380 -0.1637 -0.1374
  551MOL0     C74262   7.825   6.889   3.648  1.2936  0.0448  1.0060
  551MOL0     C74263   7.949   6.852   3.576 -0.0709 -0.6848 -0.0054
  551MOL0     C74264   8.066   6.942   3.606 -0.8114 -0.5567 -0.7828
  551MOL0     C74265   8.202   6.901   3.537 -0.2103 -0.8863 -0.2565
  551MOL0     C74266   8.322   6.986   3.600  0.5666  0.0711  0.0882
  551MOL0     N74267   8.421   6.988   3.492 -0.2114  0.8152  0.1290
  551MOL0     C74268   8.480   6.866   3.449 -0.0161  0.1406  0.1651
  551MOL0     C74269   8.587   6.905   3.373 -0.1868 -0.2937 -1.4408
  551MOL0     C74270   8.708   6.829   3.312  0.4925  0.3792 -0.4717
  551MOL0     C74271   8.838   6.889   3.351 -0.0157  0.3697 -0.3558
  551MOL0     C74272   8.941   6.857   3.242 -0.2275 -0.3556 -0.7122
  551MOL0     C74273   8.950   6.706   3.211 -0.0782  0.0639 -0.2577
  551MOL0     O74274   9.095   6.666   3.197 -0.3239  1.0134  0.1046
  551MOL0     C74275   9.152   6.669   3.077 -0.6602 -0.8181 -0.3041
  551MOL0     C74276   9.284   6.624   3.079  0.5352 -0.1436  0.4107
  551MOL0     C74277   9.351   6.607   2.954 -0.2447  0.5930  0.3037
  551MOL0     C74278   9.491   6.541   2.956 -0.1971  0.3544  0.9282
  551MOL0     C74279   9.287   6.645   2.835  0.1534  0.2943  0.5440
  551MOL0     C74280   9.349   6.643   2.698  0.1275  1.3393  0.0483
  551MOL0     O74281   9.262   6.686   2.597  0.1955 -0.7299 -0.0415
  551MOL0     C74282   9.317   6.690   2.471  0.6140  0.1695 -0.5942
  551MOL0     C74283   9.452   6.741   2.444  0.2180  1.4743 -0.3191
  551MOL0     C74284   9.506   6.740   2.319  0.4318 -1.4528 -0.4366
  551MOL0     C74285   9.429   6.692   2.213 -1.0008 -0.4219  0.8577
  551MOL0     O74286   9.470   6.693   2.087  0.1683 -0.3778 -0.2228
  551MOL0     C74287   9.600   6.635   2.060 -0.2914 -0.2070  0.2226
  551MOL0     C74288   9.641   6.690   1.915 -0.1436 -0.1560 -0.4497
  551MOL0     C74289   9.680   6.836   1.916  0.1233  0.5650 -0.4752
  551MOL0     C74290   9.733   6.851   1.777  0.8754  0.0657 -0.4530
  551MOL0     C74291   9.785   6.989   1.748 -0.4051 -0.1094  0.4129
  551MOL0     C74292   9.928   7.010   1.811 -0.2893 -0.2197  0.3053
  551MOL0     C74293   9.973   7.156   1.769 -0.6799 -0.2616  0.0716
  551MOL0     C74294  10.098   7.199   1.838 -0.8929 -0.1621 -0.5513
  551MOL0    Cl74295  10.150   7.357   1.768 -0.2736 -0.0111 -0.2864
  551MOL0     C74296   9.297   6.634   2.233  0.1156 -0.2960  0.3141
  551MOL0     C74297   9.244   6.632   2.363 -0.6735  0.4321 -0.2203
  551MOL0     O74298   9.467   6.609   2.683  0.0193 -0.0726 -2.1889
  551MOL0     C74299   9.154   6.698   2.835 -0.2672  0.6097  0.3912
  551MOL0     C74300   9.085   6.702   2.962 -0.7548 -0.1628  0.4671
  551MOL0     N74301   8.601   7.045   3.396  0.0999 -0.0228 -0.4042
  551MOL0     N74302   8.501   7.090   3.458  0.6500 -0.4871  0.1803
  551MOL0     C74303   7.288   7.100   3.646 -0.2639  0.1482  0.2997
  551MOL0     C74304   7.182   7.190   3.627  0.0221 -0.4385  0.0659
  551MOL0     C74305   6.821   7.379   3.504 -0.5370 -0.0379  0.3769
  551MOL0     C74306   6.783   7.475   3.600  1.0712  0.2931  0.4371
  551MOL0     C74307   6.690   7.573   3.569  0.7505 -0.1760 -0.1715
  551MOL0     C74308   6.648   7.597   3.440 -0.2205 -1.0070 -0.1835
  551MOL0     O74309   6.554   7.694   3.418 -0.2373 -0.1002  0.0964
  551MOL0     C74310   6.493   7.716   3.290 -0.8823 -1.0429 -0.2784
  551MOL0     C74311   6.386   7.616   3.252  0.5204 -1.0651 -0.1993
  551MOL0     C74312   6.264   7.645   3.347  0.0900  1.4220  0.6151
  551MOL0     C74313   6.145   7.547   3.311  0.5244  1.1539  0.4239
  551MOL0     C74314   6.104   7.558   3.174  0.8431  0.4138 -0.3045
  551MOL0     C74315   6.062   7.582   3.059 -0.0032 -0.0430  0.0087
  551MOL0     C74316   6.700   7.513   3.341  0.0229 -1.1984  0.9991
  551MOL0     C74317   6.778   7.401   3.368 -0.4670 -0.1793 -0.3255
  551MOL0     H74318   6.951   7.024   3.814 -0.8164 -1.2443  1.0659
  551MOL0     H74319   7.149   6.871   3.858 -0.6168 -0.2931  0.3726
  551MOL0     H74320   7.516   6.921   3.584  0.8868 -0.3397  0.2598
  551MOL0     H74321   7.564   7.011   3.728  1.0657  0.3915  0.8274
  551MOL0     H74322   7.631   6.797   3.841 -3.3620 -0.2806  1.7284
  551MOL0     H74323   7.533   6.708   3.733  1.0879 -1.5079  1.5388
  551MOL0     H74324   7.765   6.681   3.654  2.8499  0.9834 -0.6265
  551MOL0     H74325   7.685   6.790   3.532  0.4623  1.4810 -0.0718
  551MOL0     H74326   7.785   6.985   3.612 -2.0043 -0.2026  3.4561
  551MOL0     H74327   7.847   6.907   3.754 -2.1194 -0.4839  1.9514
  551MOL0     H74328   7.984   6.754   3.608  3.2318  1.4115  3.9036
  551MOL0     H74329   7.926   6.853   3.469  1.6304  0.0719 -0.3866
  551MOL0     H74330   8.040   7.048   3.608 -1.6261 -0.4993  5.3732
  551MOL0     H74331   8.086   6.924   3.712 -0.6774 -0.3760 -0.7780
  551MOL0     H74332   8.229   6.801   3.570 -0.2640 -0.4509  1.1572
  551MOL0     H74333   8.194   6.921   3.429  2.3165 -1.0832 -0.5351
  551MOL0     H74334   8.362   6.961   3.699 -1.8445  0.9854  1.3722
  551MOL0     H74335   8.280   7.086   3.609 -2.1765 -0.9574 -0.5278
  551MOL0     H74336   8.444   6.770   3.485  0.7794  0.8938  3.2689
  551MOL0     H74337   8.702   6.732   3.361 -0.6965  0.7492  0.1409
  551MOL0     H74338   8.702   6.827   3.203  0.1522 -0.2499 -0.4457
  551MOL0     H74339   8.857   6.847   3.451  0.5661  2.2286  0.3611
  551MOL0     H74340   8.837   6.998   3.357  1.7818  0.4431 -0.8709
  551MOL0     H74341   9.044   6.880   3.269  0.6602 -1.6678 -2.7271
  551MOL0     H74342   8.920   6.920   3.155  0.5238  1.3521  0.2970
  551MOL0     H74343   8.891   6.682   3.122 -2.8094  0.8121  1.2375
  551MOL0     H74344   8.907   6.650   3.295  0.3057 -2.0024 -1.3501
  551MOL0     H74345   9.328   6.605   3.177 -0.1535 -0.6663  0.6252
  551MOL0     H74346   9.507   6.473   2.872  1.6694 -2.3902  3.3122
  551MOL0     H74347   9.571   6.616   2.965  0.4542 -0.4821  2.2839
  551MOL0     H74348   9.500   6.483   3.048 -1.4184  1.2304  1.6403
  551MOL0     H74349   9.509   6.783   2.527  0.7075 -0.3215  0.2932
  551MOL0     H74350   9.601   6.789   2.299 -1.6223  2.9228 -0.4716
  551MOL0     H74351   9.675   6.668   2.132 -1.7190  0.5248  1.4227
  551MOL0     H74352   9.596   6.526   2.056 -0.5442 -0.3202  2.4568
  551MOL0     H74353   9.728   6.631   1.887 -0.5788 -0.9512 -0.1474
  551MOL0     H74354   9.565   6.663   1.841 -3.4043  1.8073  1.9141
  551MOL0     H74355   9.761   6.842   1.990  1.2817  1.8009 -1.7825
  551MOL0     H74356   9.601   6.906   1.943 -0.6919  0.1402 -1.6648
  551MOL0     H74357   9.819   6.785   1.763 -0.7641 -2.5068  0.8989
  551MOL0     H74358   9.653   6.835   1.704 -0.0697 -0.4837  0.6767
  551MOL0     H74359   9.718   7.072   1.771  0.5596  1.4618 -2.0249
  551MOL0     H74360   9.796   6.989   1.639 -0.9699  2.8229  0.2774
  551MOL0     H74361   9.918   7.007   1.920 -0.0540  1.9525  0.4346
  551MOL0     H74362   9.987   6.934   1.759 -2.4936 -2.7428  1.2738
  551MOL0     H74363   9.895   7.227   1.796  0.9967  0.8235  2.3533
  551MOL0     H74364   9.981   7.149   1.660 -4.5657 -2.3692 -0.2382
  551MOL0     H74365  10.179   7.126   1.826 -0.2118  0.7331 -1.5596
  551MOL0     H74366  10.081   7.215   1.945 -0.9702 -2.5619 -0.1509
  551MOL0     H74367   9.243   6.580   2.155 -0.4034  0.3763  0.2075
  551MOL0     H74368   9.161   6.567   2.389  1.7403 -2.0988  1.7675
  551MOL0     H74369   9.106   6.731   2.744  0.8868 -2.1173 -1.3187
  551MOL0     H74370   8.991   6.756   2.967 -1.6245 -1.3896 -1.4155
  551MOL0     H74371   7.379   7.102   3.587 -2.8389  0.3077 -4.1200
  551MOL0     H74372   7.200   7.279   3.568 -3.0001  0.0646 -0.2564
  551MOL0     H74373   6.804   7.477   3.706  2.4810  2.3932  0.1722
  551MOL0     H74374   6.639   7.641   3.636 -1.9767 -0.2943 -1.9791
  551MOL0     H74375   6.443   7.813   3.283 -1.3285 -1.3315 -1.2910
  551MOL0     H74376   6.576   7.709   3.219 -0.8068 -3.7821 -0.0097
  551MOL0     H74377   6.431   7.516   3.256  2.0277 -0.4917 -1.5629
  551MOL0     H74378   6.354   7.649   3.153  0.9643  1.7386  0.5000
  551MOL0     H74379   6.236   7.747   3.318  1.1836  1.3680 -0.7359
  551MOL0     H74380   6.281   7.638   3.455 -1.9016 -0.1082  0.8898
  551MOL0     H74381   6.058   7.571   3.374 -0.2333 -3.8560  1.8015
  551MOL0     H74382   6.162   7.443   3.340  1.4011  0.7278 -1.4832
  551MOL0     H74383   6.020   7.582   2.961 -0.9354  1.5396  0.3819
  551MOL0     H74384   6.663   7.524   3.240 -2.8403  1.7081  2.1604
  551MOL0     H74385   6.800   7.326   3.294  0.9325 -0.6204  0.4946
  552MOL0     O74386   1.499   1.944   3.799 -0.2652  0.0553 -0.3696
  552MOL0     C74387   1.512   1.959   3.922  0.7740  0.8263 -0.3241
  552MOL0     O74388   1.481   1.860   4.019  0.5048 -0.9632 -0.6152
  552MOL0     C74389   1.435   1.741   3.976 -0.3127 -0.1708 -0.0144
  552MOL0     C74390   1.501   1.657   3.884 -0.3889  0.1423  0.1368
  552MOL0     C74391   1.451   1.531   3.862  0.0238  0.0221  0.2428
  552MOL0     C74392   1.337   1.479   3.921 -0.4307 -0.6837 -0.3052
  552MOL0     O74393   1.312   1.350   3.887  0.3981  0.1285  0.3307
  552MOL0     C74394   1.177   1.301   3.896  0.2118 -0.5438  0.8995
  552MOL0     C74395   1.142   1.230   3.765 -0.1380 -0.2996 -0.0057
  552MOL0     C74396   1.241   1.118   3.716  0.9769 -0.1654  0.3227
  552MOL0     C74397   1.264   1.019   3.827 -0.1066  1.1155  0.6449
  552MOL0     C74398   1.368   0.903   3.797  0.1735  0.1246  0.0837
  552MOL0     C74399   1.399   0.815   3.925  1.1052 -0.3572 -1.2347
  552MOL0     C74400   1.457   0.683   3.882 -0.1078  0.0310  0.8306
  552MOL0     C74401   1.493   0.597   3.997  0.8552 -1.1333  0.0654
  552MOL0     N74402   1.384   0.507   4.051 -0.1291 -0.0968  0.6404
  552MOL0     C74403   1.290   0.440   3.975 -0.7169  0.4472 -0.5459
  552MOL0     C74404   1.240   0.340   4.053  0.1714  1.3949  0.0713
  552MOL0     C74405   1.123   0.252   4.024 -0.3096  0.8453 -0.5807
  552MOL0     C74406   1.067   0.179   4.142  0.6411 -0.1340  0.5130
  552MOL0     C74407   1.172   0.070   4.199 -0.1502 -0.0131 -0.1499
  552MOL0     C74408   1.106  -0.011   4.305  1.0112  1.2378  0.6846
  552MOL0     O74409   1.060  -0.143   4.256 -0.0184 -0.6599  0.8131
  552MOL0     C74410   0.922  -0.156   4.268  0.1724 -0.1824 -0.0244
  552MOL0     C74411   0.847  -0.152   4.155 -0.6601  0.4081 -0.2686
  552MOL0     C74412   0.713  -0.183   4.155 -1.1720  0.2202 -0.0660
  552MOL0     C74413   0.650  -0.211   4.019 -0.5066 -0.1934  0.8307
  552MOL0     C74414   0.646  -0.187   4.277  0.1836  0.7583  0.0836
  552MOL0     C74415   0.499  -0.191   4.281  0.2153  0.8508  0.5749
  552MOL0     O74416   0.427  -0.293   4.216 -0.5077 -0.2228  0.0519
  552MOL0     C74417   0.288  -0.290   4.202 -0.5883  0.7275 -0.0737
  552MOL0     C74418   0.202  -0.174   4.198 -1.4125  0.1778 -0.1361
  552MOL0     C74419   0.071  -0.201   4.184  0.3890 -0.7490  0.6617
  552MOL0     C74420   0.006  -0.325   4.180 -0.2818  0.0443 -0.2351
  552MOL0     O74421  -0.129  -0.353   4.168 -0.5363  0.0932  0.2081
  552MOL0     C74422  -0.207  -0.269   4.086  0.6212 -0.2201 -0.3563
  552MOL0     C74423  -0.349  -0.238   4.161  0.2217 -0.2599  0.1507
  552MOL0     C74424  -0.332  -0.149   4.290  0.1739  0.3518 -0.2134
  552MOL0     C74425  -0.310  -0.231   4.421  1.1524 -0.5117  0.2151
  552MOL0     C74426  -0.300  -0.127   4.530  0.1937 -0.4134 -0.0671
  552MOL0     C74427  -0.294  -0.184   4.675 -0.4724  0.5431  1.2470
  552MOL0     C74428  -0.270  -0.072   4.771  0.0262 -0.2832 -0.0767
  552MOL0     C74429  -0.272  -0.121   4.917  0.2776 -0.7087 -0.9100
  552MOL0    Cl74430  -0.416  -0.221   4.961  0.1948  0.1512  0.1477
  552MOL0     C74431   0.091  -0.428   4.194  0.0293  0.5704 -0.3649
  552MOL0     C74432   0.231  -0.416   4.208  0.2507  1.0382 -0.2272
  552MOL0     O74433   0.451  -0.099   4.345  0.3566  0.9813 -0.4719
  552MOL0     C74434   0.722  -0.172   4.398 -0.0397 -0.0002 -0.6691
  552MOL0     C74435   0.859  -0.158   4.393  0.1373 -0.8382  0.3368
  552MOL0     N74436   1.294   0.362   4.186 -0.4456 -0.1907  0.9247
  552MOL0     N74437   1.377   0.456   4.173 -0.7256 -0.4086 -0.4795
  552MOL0     C74438   1.276   1.553   4.023 -0.2023 -0.8898 -0.6406
  552MOL0     C74439   1.329   1.687   4.048  0.1600 -0.6498 -0.8594
  552MOL0     C74440   1.560   2.094   3.975  0.1710  0.1778  0.1656
  552MOL0     C74441   1.515   2.210   3.920  0.7196 -0.0761 -0.5280
  552MOL0     C74442   1.546   2.335   3.966 -0.1871  0.3171 -0.5577
  552MOL0     C74443   1.617   2.347   4.081 -0.0041  0.0217  0.1865
  552MOL0     O74444   1.613   2.478   4.116 -0.0718  0.0239 -0.5138
  552MOL0     C74445   1.681   2.512   4.243  0.6761  0.2237 -0.6901
  552MOL0     C74446   1.724   2.660   4.240 -0.4039 -0.3211  0.3449
  552MOL0     C74447   1.828   2.686   4.130 -0.0786 -0.7106  0.0682
  552MOL0     C74448   1.944   2.759   4.198 -0.3289  0.1111  0.0308
  552MOL0     C74449   2.000   2.844   4.087  0.3057 -0.3442 -0.4301
  552MOL0     C74450   2.030   2.924   4.005 -0.5385  0.4413 -0.1978
  552MOL0     C74451   1.680   2.233   4.129  0.4542 -0.5036 -0.0159
  552MOL0     C74452   1.649   2.105   4.081  0.8788  0.5225  0.4913
  552MOL0     H74453   1.586   1.690   3.825 -0.1140  2.0061  1.4633
  552MOL0     H74454   1.509   1.470   3.794  5.7708  3.0735  1.7531
  552MOL0     H74455   1.167   1.230   3.978 -1.1624 -1.2809  0.1303
  552MOL0     H74456   1.109   1.387   3.902 -0.4282 -0.4557 -3.7912
  552MOL0     H74457   1.036   1.205   3.773  0.0336 -0.6067  1.4502
  552MOL0     H74458   1.140   1.310   3.690 -1.5664  1.7090  2.0760
  552MOL0     H74459   1.200   1.073   3.625  2.9205  1.1518 -1.2827
  552MOL0     H74460   1.333   1.166   3.681  0.8668 -0.4071 -0.3007
  552MOL0     H74461   1.298   1.069   3.918  0.8668 -3.4152  3.1034
  552MOL0     H74462   1.172   0.965   3.847  0.6020 -0.3112  0.2265
  552MOL0     H74463   1.340   0.833   3.718  5.3310 -0.6921 -1.4078
  552MOL0     H74464   1.470   0.939   3.780  1.0905 -2.1637  0.3500
  552MOL0     H74465   1.445   0.872   4.006 -3.5128  1.9900  0.0448
  552MOL0     H74466   1.306   0.804   3.982  0.8451  2.1668 -1.0497
  552MOL0     H74467   1.389   0.630   3.816 -0.5650  0.9950  0.5078
  552MOL0     H74468   1.543   0.710   3.820 -0.7051  1.7570  0.6846
  552MOL0     H74469   1.535   0.665   4.072  0.3018  1.6330 -1.9615
  552MOL0     H74470   1.565   0.525   3.957 -0.6224 -2.0571 -0.9972
  552MOL0     H74471   1.266   0.450   3.869  2.1446 -1.4920 -1.4807
  552MOL0     H74472   1.048   0.316   3.977  1.0734  2.6369 -0.4668
  552MOL0     H74473   1.157   0.168   3.961 -0.5959 -0.0983  0.4971
  552MOL0     H74474   0.968   0.139   4.120  1.1930 -0.9221 -0.6317
  552MOL0     H74475   1.069   0.247   4.227  1.8630  2.8010 -1.7142
  552MOL0     H74476   1.260   0.120   4.241 -0.2772  1.6020 -1.6818
  552MOL0     H74477   1.210   0.001   4.123  0.7448 -4.1721  3.6200
  552MOL0     H74478   1.023   0.047   4.344 -2.6054 -0.0728 -4.1214
  552MOL0     H74479   1.181  -0.014   4.385  0.2950  3.9889  1.5349
  552MOL0     H74480   0.903  -0.149   4.062 -3.5303 -1.6034 -2.1972
  552MOL0     H74481   0.714  -0.167   3.941 -2.9855  3.2461  0.4769
  552MOL0     H74482   0.640  -0.319   4.015  0.8827 -0.4811  3.3037
  552MOL0     H74483   0.552  -0.164   4.007  0.2666  2.1836  2.9648
  552MOL0     H74484   0.241  -0.074   4.188  0.7649 -0.6471 -0.4346
  552MOL0     H74485   0.017  -0.108   4.168  0.8437 -0.3752  1.2786
  552MOL0     H74486  -0.162  -0.178   4.047 -1.1073  1.0326  0.4458
  552MOL0     H74487  -0.227  -0.326   3.995  0.7251 -0.2733 -0.3451
  552MOL0     H74488  -0.405  -0.188   4.081  0.3019 -2.1846 -1.1879
  552MOL0     H74489  -0.394  -0.333   4.192  2.7331 -0.9973  1.8229
  552MOL0     H74490  -0.415  -0.079   4.304  2.2509  2.7236  1.2456
  552MOL0     H74491  -0.246  -0.083   4.276  0.0405  0.4854 -0.4090
  552MOL0     H74492  -0.402  -0.288   4.436  0.4275  0.8648  1.2538
  552MOL0     H74493  -0.217  -0.288   4.419  1.2678 -0.3891  1.3153
  552MOL0     H74494  -0.391  -0.066   4.536 -0.8220 -1.7968 -0.8034
  552MOL0     H74495  -0.222  -0.053   4.512 -0.2041  1.1936  3.9226
  552MOL0     H74496  -0.391  -0.233   4.688 -0.7191  1.0929  1.5156
  552MOL0     H74497  -0.216  -0.260   4.685  0.5287  0.8384 -2.6635
  552MOL0     H74498  -0.345   0.007   4.758  1.5343  1.4072  0.9705
  552MOL0     H74499  -0.176  -0.023   4.748 -0.6591  0.8319 -0.5924
  552MOL0     H74500  -0.269  -0.029   4.976 -0.0103 -1.1911 -0.1244
  552MOL0     H74501  -0.187  -0.187   4.938 -0.2341 -1.3584 -0.8442
  552MOL0     H74502   0.047  -0.527   4.200  1.6909 -0.3224 -2.0932
  552MOL0     H74503   0.288  -0.508   4.220 -0.2174  0.7060 -0.5138
  552MOL0     H74504   0.666  -0.182   4.491 -1.2415 -0.7252 -1.4471
  552MOL0     H74505   0.927  -0.150   4.477  1.9607  0.6576 -1.1715
  552MOL0     H74506   1.194   1.527   4.089  0.6500  2.9843  2.3652
  552MOL0     H74507   1.282   1.738   4.132  0.5454  2.1778 -2.2744
  552MOL0     H74508   1.452   2.212   3.831 -1.5810  4.0810  0.9020
  552MOL0     H74509   1.507   2.414   3.902  0.5926  2.8731  1.9308
  552MOL0     H74510   1.600   2.500   4.315 -0.4833 -2.6616 -2.2942
  552MOL0     H74511   1.757   2.438   4.269 -0.5597 -0.6414  0.5791
  552MOL0     H74512   1.764   2.688   4.339 -0.6218  1.0308  0.0714
  552MOL0     H74513   1.640   2.730   4.231 -0.0732 -0.0212 -0.4256
  552MOL0     H74514   1.786   2.748   4.049  4.4131  0.0786 -1.9866
  552MOL0     H74515   1.857   2.594   4.079  0.4867 -2.0768  2.6762
  552MOL0     H74516   2.015   2.692   4.248 -0.2893 -1.1811 -1.6433
  552MOL0     H74517   1.911   2.816   4.284  0.4419 -0.6104  0.8326
  552MOL0     H74518   2.064   2.999   3.936  1.8971  0.3338  0.7981
  552MOL0     H74519   1.746   2.238   4.215 -0.0795 -3.2537  0.6555
  552MOL0     H74520   1.689   2.017   4.130 -0.0670 -0.5368 -0.5931
  553MOL0     O74521   3.704   9.991   3.771 -0.8686 -0.4237  0.4396
  553MOL0     C74522   3.643   9.933   3.863 -0.2815  0.4108 -0.9289
  553MOL0     O74523   3.505   9.909   3.862 -1.2335  0.1660 -0.0915
  553MOL0     C74524   3.424   9.935   3.748  0.2970  0.8033  0.0463
  553MOL0     C74525   3.290   9.946   3.773 -0.3681 -0.0042 -0.2959
  553MOL0     C74526   3.201   9.954   3.667 -0.5704 -0.2723  0.3310
  553MOL0     C74527   3.237   9.951   3.530 -0.1384 -0.0229  0.2769
  553MOL0     O74528   3.147   9.946   3.424  0.1566 -0.5781  0.3334
  553MOL0     C74529   3.024  10.025   3.429  0.0016  0.2263 -0.1682
  553MOL0     C74530   3.039  10.176   3.421 -0.3253 -0.5182  0.8174
  553MOL0     C74531   3.095  10.218   3.281 -0.7108 -0.1425 -0.1069
  553MOL0     C74532   3.003  10.179   3.168  0.0595 -0.2691 -0.5462
  553MOL0     C74533   3.085  10.205   3.037 -0.5398  0.0049  0.5902
  553MOL0     C74534   2.995  10.209   2.915 -0.5175  0.2570  0.5898
  553MOL0     C74535   3.071  10.182   2.785 -0.3997 -0.0132  0.1794
  553MOL0     C74536   3.156  10.301   2.725  0.5698 -0.1852  0.3798
  553MOL0     N74537   3.249  10.364   2.814 -0.7739 -0.9334  0.0414
  553MOL0     C74538   3.353  10.301   2.876  0.1281  0.4633 -0.2625
  553MOL0     C74539   3.400  10.396   2.966  0.0912 -0.3013  0.2169
  553MOL0     C74540   3.518  10.357   3.050  0.4673 -0.5015 -0.1965
  553MOL0     C74541   3.488  10.313   3.198  0.0603  0.8180 -0.5794
  553MOL0     C74542   3.613  10.327   3.283  0.2628 -0.5811  0.3825
  553MOL0     C74543   3.588  10.271   3.425 -0.2715 -0.3730  0.3611
  553MOL0     O74544   3.490  10.352   3.494 -0.5247 -0.8606  0.6838
  553MOL0     C74545   3.483  10.345   3.627 -0.0813  0.3721 -0.8223
  553MOL0     C74546   3.355  10.339   3.688  0.1499  0.3117  0.5741
  553MOL0     C74547   3.335  10.309   3.821 -0.5524 -0.3026 -0.3895
  553MOL0     C74548   3.196  10.313   3.888 -0.7002  0.0515 -0.5480
  553MOL0     C74549   3.458  10.284   3.902  0.8566 -0.2182 -0.2376
  553MOL0     C74550   3.461  10.247   4.045  0.1044  0.3373  0.2626
  553MOL0     O74551   3.589  10.212   4.094  0.7422  0.5341 -1.2446
  553MOL0     C74552   3.604  10.208   4.233 -0.2626 -0.0526  0.4658
  553MOL0     C74553   3.641  10.088   4.291 -0.1069  0.7552  1.0366
  553MOL0     C74554   3.658  10.066   4.428 -0.0409 -0.1677  0.8007
  553MOL0     C74555   3.648  10.183   4.510 -0.1737  0.5731 -0.6616
  553MOL0     O74556   3.665  10.156   4.637  0.1020 -0.0907  0.0893
  553MOL0     C74557   3.712  10.255   4.729  0.1175  0.3226  0.5438
  553MOL0     C74558   3.735  10.204   4.871  1.1221  0.1053 -0.4029
  553MOL0     C74559   3.689  10.302   4.986 -0.2473  0.2865 -0.3617
  553MOL0     C74560   3.688  10.244   5.123 -0.9214 -0.6954 -0.5144
  553MOL0     C74561   3.826  10.201   5.183  0.4083  0.0915  0.0372
  553MOL0     C74562   3.809  10.117   5.316 -0.3438  1.0079 -1.1623
  553MOL0     C74563   3.932  10.034   5.357  0.0493 -0.1850 -0.7947
  553MOL0     C74564   3.906   9.983   5.499  0.1337  0.4317 -0.8946
  553MOL0    Cl74565   3.778   9.868   5.505  0.5305  0.3137 -0.0548
  553MOL0     C74566   3.627  10.312   4.451 -0.1676 -0.3286  0.0251
  553MOL0     C74567   3.605  10.317   4.312 -0.5928  0.1955  0.2549
  553MOL0     O74568   3.359  10.256   4.112  0.4205 -0.3688 -0.3021
  553MOL0     C74569   3.584  10.305   3.844 -0.5757  0.2371  0.1090
  553MOL0     C74570   3.594  10.338   3.713 -0.1767  1.2099 -0.2255
  553MOL0     N74571   3.326  10.509   2.958  0.7015  0.2268 -0.1257
  553MOL0     N74572   3.230  10.478   2.876  0.4415  1.3174 -0.3847
  553MOL0     C74573   3.372   9.944   3.509 -0.6969  0.2620 -0.2671
  553MOL0     C74574   3.466   9.935   3.614  0.1251 -0.3151 -0.0465
  553MOL0     C74575   3.732   9.881   3.970  0.4272  0.6225  0.3527
  553MOL0     C74576   3.675   9.783   4.065 -0.7861  0.4730  0.3947
  553MOL0     C74577   3.762   9.723   4.159 -1.3325 -0.1697 -0.3881
  553MOL0     C74578   3.895   9.750   4.157  0.0589 -0.4281 -0.0354
  553MOL0     O74579   3.967   9.712   4.264  0.2797  0.1076  0.1283
  553MOL0     C74580   4.113   9.696   4.261 -0.2560 -0.3227  0.1135
  553MOL0     C74581   4.148   9.583   4.344 -0.0473 -0.1499  0.3055
  553MOL0     C74582   4.072   9.456   4.310 -0.7343 -0.3740 -0.0788
  553MOL0     C74583   4.146   9.331   4.334  0.3224 -0.3827 -1.7365
  553MOL0     C74584   4.236   9.301   4.226  0.5840 -0.0823 -0.5354
  553MOL0     C74585   4.327   9.264   4.155 -0.0992  0.1175 -0.5148
  553MOL0     C74586   3.947   9.845   4.063 -0.6502  0.3268  0.3865
  553MOL0     C74587   3.870   9.890   3.963  0.0336  0.0423  0.4951
  553MOL0     H74588   3.249   9.937   3.873  3.6777 -0.8323  1.4779
  553MOL0     H74589   3.096   9.954   3.693 -1.1086 -2.4744 -1.4975
  553MOL0     H74590   2.951   9.998   3.352 -0.1665 -0.0379  0.0810
  553MOL0     H74591   2.969   9.994   3.519  0.5454 -0.6774 -0.1352
  553MOL0     H74592   2.953  10.242   3.434 -1.3114 -0.8229 -2.9765
  553MOL0     H74593   3.118  10.206   3.491  0.5335 -1.1099  0.1287
  553MOL0     H74594   3.107  10.327   3.273  0.4457 -0.2776 -0.3728
  553MOL0     H74595   3.195  10.177   3.266 -0.9523 -0.6870 -0.2586
  553MOL0     H74596   2.981  10.072   3.162  0.9716 -0.4506 -0.7149
  553MOL0     H74597   2.908  10.234   3.176 -1.1226 -2.1967 -0.7140
  553MOL0     H74598   3.158  10.284   3.058  0.2033 -1.0371  2.1757
  553MOL0     H74599   3.148  10.117   3.020 -0.1797  0.6612 -1.7743
  553MOL0     H74600   2.919  10.131   2.924 -0.6486  0.4588  1.2372
  553MOL0     H74601   2.941  10.304   2.904 -3.5297 -1.2971  0.8473
  553MOL0     H74602   3.124  10.087   2.792  1.2776  0.8221 -0.5733
  553MOL0     H74603   2.992  10.160   2.712 -1.2505  3.4341 -0.0958
  553MOL0     H74604   3.092  10.383   2.690  2.3335  1.2604  0.3875
  553MOL0     H74605   3.204  10.273   2.630  1.0234 -1.6564  1.0147
  553MOL0     H74606   3.395  10.202   2.866  2.5076  1.5583 -2.9683
  553MOL0     H74607   3.579  10.285   2.996  0.5619  0.3704 -1.3049
  553MOL0     H74608   3.582  10.446   3.054  0.8808 -0.8048  3.8776
  553MOL0     H74609   3.447  10.212   3.209  0.8223  0.7366  2.3686
  553MOL0     H74610   3.414  10.378   3.246  1.6428  3.2807 -1.2921
  553MOL0     H74611   3.633  10.435   3.291  1.1717 -0.8030  1.2728
  553MOL0     H74612   3.698  10.271   3.242  0.6282  0.3053 -0.1173
  553MOL0     H74613   3.687  10.272   3.471 -1.0407 -1.6785  2.1211
  553MOL0     H74614   3.549  10.170   3.409  1.3590 -0.6336 -2.7139
  553MOL0     H74615   3.269  10.336   3.622  0.4093 -0.8622  0.2479
  553MOL0     H74616   3.133  10.290   3.801 -0.6443 -0.1423 -0.5370
  553MOL0     H74617   3.178  10.232   3.958 -2.7835 -1.5192 -2.7489
  553MOL0     H74618   3.161  10.409   3.928  0.8693  0.8330 -0.9635
  553MOL0     H74619   3.643  10.010   4.216 -1.9935  0.5308  1.1624
  553MOL0     H74620   3.669   9.965   4.467  0.4766 -0.0536  0.9532
  553MOL0     H74621   3.807  10.296   4.692  0.8862  1.1242  3.1882
  553MOL0     H74622   3.649  10.344   4.737  0.0637  0.2962  0.4163
  553MOL0     H74623   3.673  10.115   4.879 -2.1154  2.0473 -2.0051
  553MOL0     H74624   3.842  10.179   4.873  0.7094 -2.2477  3.4862
  553MOL0     H74625   3.586  10.328   4.961 -0.4140 -0.5175 -0.5071
  553MOL0     H74626   3.757  10.388   4.985  1.1672 -0.7548 -2.6711
  553MOL0     H74627   3.654  10.321   5.194  2.7235  1.5720 -0.9678
  553MOL0     H74628   3.621  10.159   5.136 -1.6206 -0.1243 -0.2580
  553MOL0     H74629   3.886  10.289   5.209  1.9610 -0.6005 -1.0347
  553MOL0     H74630   3.890  10.146   5.114 -0.7366 -2.4416  0.8819
  553MOL0     H74631   3.792  10.188   5.397 -0.2771  1.4609 -1.5351
  553MOL0     H74632   3.729  10.043   5.317  1.6981 -1.3488 -1.1081
  553MOL0     H74633   4.019  10.101   5.360  0.8492 -1.2309  0.6915
  553MOL0     H74634   3.944   9.949   5.290  2.4345 -0.1317 -0.5047
  553MOL0     H74635   3.882  10.062   5.570  0.4696 -2.8656  3.2406
  553MOL0     H74636   3.994   9.928   5.535 -0.5693  0.3515  0.7840
  553MOL0     H74637   3.613  10.410   4.494  1.2144  0.3184 -0.9190
  553MOL0     H74638   3.591  10.412   4.260 -0.3047 -0.6995 -1.5516
  553MOL0     H74639   3.674  10.316   3.903 -0.1019 -1.3404 -0.2775
  553MOL0     H74640   3.694  10.353   3.675  0.0933  0.3701  0.1266
  553MOL0     H74641   3.392   9.947   3.403 -2.0004  0.5756 -0.5175
  553MOL0     H74642   3.568   9.920   3.581  0.9898  2.4876  1.0379
  553MOL0     H74643   3.569   9.760   4.063 -1.1631  1.9805  1.3265
  553MOL0     H74644   3.718   9.652   4.228  0.7223  0.7194  1.9960
  553MOL0     H74645   4.164   9.678   4.166 -0.8397  1.4071 -0.5638
  553MOL0     H74646   4.165   9.785   4.296 -1.0096  1.4573 -2.9421
  553MOL0     H74647   4.141   9.603   4.452 -1.7829 -0.4973  0.2853
  553MOL0     H74648   4.254   9.565   4.323 -0.3691 -0.0608 -1.5020
  553MOL0     H74649   4.042   9.442   4.206 -1.0958  0.5726 -0.1113
  553MOL0     H74650   3.982   9.444   4.371 -1.3565  0.9564 -0.7069
  553MOL0     H74651   4.066   9.260   4.358 -0.4168  0.4423 -1.7243
  553MOL0     H74652   4.207   9.331   4.425  0.3256  1.5183 -1.6979
  553MOL0     H74653   4.410   9.233   4.095  0.1098 -0.7884  0.2154
  553MOL0     H74654   4.050   9.876   4.071 -0.9155  0.6766  4.6119
  553MOL0     H74655   3.926   9.925   3.878  1.4173 -1.0101  0.9419
  554MOL0     O74656   6.426   3.682  11.108  0.3309  0.8814  0.1745
  554MOL0     C74657   6.334   3.760  11.081 -1.5660 -0.3423 -1.1965
  554MOL0     O74658   6.238   3.748  10.989 -0.2457  0.1116 -0.2607
  554MOL0     C74659   6.242   3.640  10.908 -0.4553  0.2903 -0.7465
  554MOL0     C74660   6.213   3.514  10.976 -0.4003 -0.1112  0.7596
  554MOL0     C74661   6.199   3.398  10.898  0.6383  1.0948  0.5587
  554MOL0     C74662   6.217   3.400  10.758 -1.2281 -0.1145  0.1714
  554MOL0     O74663   6.241   3.295  10.677 -0.1997  0.2585 -0.7723
  554MOL0     C74664   6.170   3.176  10.693 -0.1668 -0.0363 -0.5739
  554MOL0     C74665   6.105   3.144  10.559  0.0504 -0.6591  0.5666
  554MOL0     C74666   6.008   3.252  10.513 -0.7468  0.9452 -0.7540
  554MOL0     C74667   5.928   3.220  10.389 -0.3600 -0.3570  0.0857
  554MOL0     C74668   5.816   3.330  10.365 -0.0734 -0.2077 -0.8059
  554MOL0     C74669   5.752   3.337  10.232  0.2657 -0.9867  0.4939
  554MOL0     C74670   5.604   3.393  10.203 -0.3515 -0.5436 -0.6590
  554MOL0     C74671   5.538   3.386  10.064 -0.0080 -1.2347 -0.3281
  554MOL0     N74672   5.397   3.411  10.068 -0.0675 -0.3327 -0.3832
  554MOL0     C74673   5.322   3.300  10.057  0.4453 -0.2804 -0.3165
  554MOL0     C74674   5.201   3.337  10.120 -0.7011  1.1660  0.8748
  554MOL0     C74675   5.087   3.240  10.123 -0.2002 -0.4021  0.9212
  554MOL0     C74676   5.069   3.190   9.978  0.0495 -0.3711  0.0228
  554MOL0     C74677   4.940   3.118   9.939 -0.0098  0.5229  0.1169
  554MOL0     C74678   4.918   2.983  10.016  0.3774 -0.0264  0.3014
  554MOL0     O74679   5.031   2.894   9.990  0.6723  0.0349 -0.2967
  554MOL0     C74680   5.001   2.786   9.902  0.4035  0.4106 -0.2904
  554MOL0     C74681   5.069   2.778   9.782  0.6619  0.1259  1.0300
  554MOL0     C74682   5.043   2.680   9.684 -0.1917  0.3047  0.1777
  554MOL0     C74683   5.121   2.675   9.552 -0.3579  0.2289  0.5618
  554MOL0     C74684   4.948   2.579   9.721 -0.1409 -0.4768  1.3378
  554MOL0     C74685   4.893   2.472   9.635 -0.8141  0.6604  0.6567
  554MOL0     O74686   4.874   2.347   9.702 -0.2438  0.5099  0.0931
  554MOL0     C74687   4.837   2.232   9.636 -0.2779  0.2057  0.3915
  554MOL0     C74688   4.857   2.114   9.711  1.1007  0.2334 -0.5863
  554MOL0     C74689   4.818   1.988   9.662  0.5351 -0.5513  0.2421
  554MOL0     C74690   4.753   1.981   9.536 -0.1186  0.7329 -0.1421
  554MOL0     O74691   4.725   1.866   9.477  0.6502  0.6906  0.1928
  554MOL0     C74692   4.702   1.746   9.550 -0.4475 -0.3090 -0.1195
  554MOL0     C74693   4.604   1.645   9.478 -0.2722  0.8163 -0.1867
  554MOL0     C74694   4.649   1.572   9.364 -0.1869 -0.4949 -0.0564
  554MOL0     C74695   4.741   1.456   9.415  0.0867 -0.6385 -0.1928
  554MOL0     C74696   4.826   1.395   9.305 -0.5805 -0.2945  0.6163
  554MOL0     C74697   4.734   1.334   9.197 -0.9101 -0.1358 -0.3021
  554MOL0     C74698   4.810   1.234   9.117  0.3845  0.6663 -1.0468
  554MOL0     C74699   4.729   1.181   9.000 -0.1112 -0.6977 -0.3065
  554MOL0    Cl74700   4.605   1.073   9.061  0.2495  0.1049 -0.1176
  554MOL0     C74701   4.738   2.096   9.460 -0.4983 -0.9450  0.1547
  554MOL0     C74702   4.777   2.225   9.513  0.2601  0.8362  0.3497
  554MOL0     O74703   4.872   2.491   9.515 -0.4083 -0.3160 -0.2996
  554MOL0     C74704   4.888   2.585   9.846  0.4428 -0.0763  0.4724
  554MOL0     C74705   4.909   2.684   9.934  0.1266 -0.0749  0.1046
  554MOL0     N74706   5.210   3.459  10.170 -0.6994 -0.3349 -0.3885
  554MOL0     N74707   5.339   3.504  10.157  0.1739  0.6170 -0.4048
  554MOL0     C74708   6.241   3.520  10.691  0.1273  0.8827 -0.0064
  554MOL0     C74709   6.253   3.636  10.765 -0.4651 -0.3728  0.8354
  554MOL0     C74710   6.313   3.868  11.185  0.2880 -0.4520  1.0493
  554MOL0     C74711   6.197   3.953  11.169  0.8083  0.1203 -0.1574
  554MOL0     C74712   6.169   4.053  11.252 -0.1585  0.6343  0.0943
  554MOL0     C74713   6.260   4.079  11.360 -0.5339  0.1045  0.9757
  554MOL0     O74714   6.230   4.195  11.435  0.6275  0.5512  0.2125
  554MOL0     C74715   6.328   4.234  11.533  0.3641 -0.3036  0.5397
  554MOL0     C74716   6.294   4.189  11.675 -1.4242  0.2029 -0.3481
  554MOL0     C74717   6.171   4.243  11.732  0.7737 -0.1398 -0.5207
  554MOL0     C74718   6.149   4.220  11.885 -0.6846 -0.1273  0.4807
  554MOL0     C74719   6.252   4.303  11.964 -0.9705  0.2185 -0.2202
  554MOL0     C74720   6.334   4.362  12.024  0.7570 -0.7209 -0.3250
  554MOL0     C74721   6.380   3.997  11.377  0.3089  0.1232 -0.1679
  554MOL0     C74722   6.399   3.888  11.284  0.7485 -0.4812 -0.5436
  554MOL0     H74723   6.195   3.520  11.082  0.3667  5.1147  0.8386
  554MOL0     H74724   6.171   3.302  10.941  1.1386  0.1450 -1.1058
  554MOL0     H74725   6.236   3.094  10.722  1.3045  0.5688 -2.0179
  554MOL0     H74726   6.100   3.194  10.775  1.5689  2.0583  0.5684
  554MOL0     H74727   6.183   3.140  10.483 -1.7428 -1.2834 -1.3260
  554MOL0     H74728   6.063   3.043  10.564  0.0734 -0.6277  1.7062
  554MOL0     H74729   5.931   3.266  10.590 -1.3528  1.8727 -1.5065
  554MOL0     H74730   6.060   3.348  10.514  2.6506 -0.5968  3.0465
  554MOL0     H74731   5.979   3.229  10.292 -1.3292  1.8303 -0.2895
  554MOL0     H74732   5.897   3.118  10.411  0.5195 -0.2748  1.9209
  554MOL0     H74733   5.736   3.310  10.436  1.0041  0.6839  0.7283
  554MOL0     H74734   5.848   3.433  10.384  0.1212 -0.3346 -0.4255
  554MOL0     H74735   5.819   3.394  10.167  0.7585  1.3659  2.8929
  554MOL0     H74736   5.736   3.232  10.207  1.4136 -2.4333  4.9987
  554MOL0     H74737   5.527   3.347  10.265 -1.4460 -0.3781 -1.8578
  554MOL0     H74738   5.616   3.499  10.227  1.9790  0.1634 -4.1429
  554MOL0     H74739   5.557   3.287  10.021 -1.3371 -1.6796  0.0473
  554MOL0     H74740   5.578   3.460   9.994 -2.0003 -0.0700 -0.3125
  554MOL0     H74741   5.345   3.201  10.019 -0.0967 -1.1946  1.6227
  554MOL0     H74742   5.095   3.165  10.202 -1.9918 -0.0238  1.5057
  554MOL0     H74743   4.997   3.290  10.160  0.1155  1.1535 -0.2803
  554MOL0     H74744   5.156   3.129   9.956  1.4655  1.7270 -0.5082
  554MOL0     H74745   5.084   3.273   9.908 -1.3835  1.6374  1.9670
  554MOL0     H74746   4.949   3.107   9.831 -1.5374  2.6987 -0.3087
  554MOL0     H74747   4.859   3.185   9.970  1.4246  1.6195  1.6360
  554MOL0     H74748   4.828   2.925   9.994  2.1240 -1.5386 -3.9011
  554MOL0     H74749   4.916   2.996  10.124 -1.0414 -2.6750  0.6937
  554MOL0     H74750   5.135   2.862   9.762 -1.7516  1.8506 -0.2405
  554MOL0     H74751   5.203   2.605   9.565  0.0262  0.4003 -0.8149
  554MOL0     H74752   5.057   2.649   9.467 -0.1209  2.3349 -0.3415
  554MOL0     H74753   5.175   2.768   9.533  2.5591 -1.4548  0.1020
  554MOL0     H74754   4.901   2.130   9.809  1.2024 -1.8388 -0.2592
  554MOL0     H74755   4.840   1.905   9.728  0.9358  0.5307  1.5173
  554MOL0     H74756   4.793   1.697   9.585 -0.7621  0.1965  1.4471
  554MOL0     H74757   4.634   1.775   9.630 -1.7330  0.7187 -1.5068
  554MOL0     H74758   4.571   1.569   9.549  1.1151 -0.1242 -0.5053
  554MOL0     H74759   4.520   1.702   9.437 -1.2239 -0.6693 -0.3599
  554MOL0     H74760   4.706   1.636   9.296 -1.2197 -0.9050 -1.3273
  554MOL0     H74761   4.564   1.537   9.305  1.0257 -2.0459 -0.9367
  554MOL0     H74762   4.821   1.496   9.478 -1.3106  1.6206  0.2511
  554MOL0     H74763   4.692   1.373   9.468 -1.6313  0.6675  0.3465
  554MOL0     H74764   4.875   1.313   9.358  2.7332  1.6408  0.8451
  554MOL0     H74765   4.899   1.462   9.259 -1.9646  0.5880 -0.3799
  554MOL0     H74766   4.636   1.303   9.235  0.7811 -2.9103  2.1825
  554MOL0     H74767   4.713   1.419   9.132 -0.9165  0.2683  0.2205
  554MOL0     H74768   4.828   1.151   9.186  0.0491  1.5761  0.1556
  554MOL0     H74769   4.909   1.265   9.083  1.4937 -2.7670 -1.3918
  554MOL0     H74770   4.784   1.129   8.921 -1.4895 -3.3743  0.3602
  554MOL0     H74771   4.688   1.275   8.961  1.7528 -0.0222 -0.7273
  554MOL0     H74772   4.720   2.085   9.354  1.4325  0.2753 -0.3636
  554MOL0     H74773   4.761   2.305   9.441 -0.2425  0.6958  0.2985
  554MOL0     H74774   4.820   2.506   9.874  0.4136 -0.2703 -0.1295
  554MOL0     H74775   4.862   2.681  10.032  2.8697 -1.5091  1.4840
  554MOL0     H74776   6.259   3.521  10.584  0.5900 -0.8373  0.0232
  554MOL0     H74777   6.262   3.722  10.700 -0.2881 -0.9665  0.0678
  554MOL0     H74778   6.126   3.939  11.088  0.5371  1.3208 -0.1396
  554MOL0     H74779   6.089   4.124  11.233 -0.3956  0.6187  0.9949
  554MOL0     H74780   6.426   4.197  11.502 -0.0589 -0.2926 -0.8974
  554MOL0     H74781   6.333   4.343  11.524  1.7425 -0.3973 -0.1221
  554MOL0     H74782   6.374   4.229  11.739  1.6798 -4.4996 -0.8362
  554MOL0     H74783   6.283   4.081  11.677 -0.4942  0.0953 -0.4433
  554MOL0     H74784   6.099   4.178  11.682 -0.8660  0.8037  0.5110
  554MOL0     H74785   6.163   4.348  11.706 -0.2888  1.0133  3.6728
  554MOL0     H74786   6.146   4.113  11.907 -0.3111 -0.5011 -1.1650
  554MOL0     H74787   6.046   4.254  11.903 -2.5883 -2.8170 -3.5849
  554MOL0     H74788   6.418   4.406  12.073 -0.0595 -1.3193  1.7053
  554MOL0     H74789   6.450   4.011  11.459  0.1846  0.3375 -0.0975
  554MOL0     H74790   6.487   3.825  11.297 -0.1638 -2.4007 -2.9747
  555MOL0     O74791   8.444   7.562   2.843 -0.0537 -0.2359  0.7960
  555MOL0     C74792   8.395   7.605   2.942  0.2476 -0.1390 -0.1020
  555MOL0     O74793   8.464   7.669   3.045  0.1229 -0.2409  0.7594
  555MOL0     C74794   8.596   7.670   3.034 -0.6922  0.7297  1.3210
  555MOL0     C74795   8.669   7.647   3.149  0.2479  0.3177 -0.4844
  555MOL0     C74796   8.814   7.664   3.157 -0.2483 -0.1670  0.4700
  555MOL0     C74797   8.881   7.725   3.046 -0.4557 -0.5179  0.7471
  555MOL0     O74798   9.008   7.751   3.029  0.1223 -0.4256  0.6639
  555MOL0     C74799   9.084   7.818   3.126  0.0101 -0.2021 -1.0948
  555MOL0     C74800   9.240   7.836   3.105  0.5924  0.1474 -0.1113
  555MOL0     C74801   9.299   7.917   3.222  0.0006  0.1526  0.5438
  555MOL0     C74802   9.451   7.940   3.206 -0.3847 -0.3865 -0.5436
  555MOL0     C74803   9.557   7.836   3.246  0.2256 -0.2831 -0.2061
  555MOL0     C74804   9.707   7.874   3.209  0.2990  0.0705 -0.2645
  555MOL0     C74805   9.761   7.997   3.279  1.0380  0.6703 -0.0175
  555MOL0     C74806   9.743   7.999   3.437 -0.0049  0.3010  0.6367
  555MOL0     N74807   9.786   8.126   3.497 -0.0876 -0.0495  0.0734
  555MOL0     C74808   9.912   8.180   3.469  0.5258 -0.0549  0.1821
  555MOL0     C74809   9.924   8.273   3.556  0.2177  0.3524  0.8419
  555MOL0     C74810  10.046   8.358   3.589  0.4685  0.5106 -0.0818
  555MOL0     C74811  10.049   8.473   3.490  0.6883  0.0027 -0.6580
  555MOL0     C74812  10.135   8.587   3.548  0.7846 -0.8005  0.0713
  555MOL0     C74813  10.125   8.724   3.472  0.0839 -0.6252 -0.0395
  555MOL0     O74814  10.189   8.707   3.342 -0.0087 -0.2391 -0.3258
  555MOL0     C74815  10.243   8.812   3.274 -0.6357 -0.2034 -0.4956
  555MOL0     C74816  10.341   8.785   3.174  0.2633 -0.0371  0.2392
  555MOL0     C74817  10.409   8.882   3.098  0.1492  1.0183 -0.5029
  555MOL0     C74818  10.525   8.827   3.021 -0.2775 -0.1992  0.3885
  555MOL0     C74819  10.372   9.014   3.111 -0.0680 -1.0437 -0.2002
  555MOL0     C74820  10.432   9.135   3.040  0.0570 -0.6779  0.1915
  555MOL0     O74821  10.385   9.257   3.079  0.1273 -0.5383 -0.7030
  555MOL0     C74822  10.449   9.379   3.061  0.6780 -0.1257  0.6632
  555MOL0     C74823  10.360   9.493   3.086 -0.7437 -0.0650  0.0400
  555MOL0     C74824  10.420   9.618   3.075  0.0201 -0.6982 -0.9101
  555MOL0     C74825  10.549   9.636   3.034 -0.7377  0.7554 -0.5338
  555MOL0     O74826  10.599   9.759   3.008 -0.3834  0.4002 -0.4672
  555MOL0     C74827  10.548   9.828   2.898  0.3455 -0.4534  0.2964
  555MOL0     C74828  10.543   9.981   2.926 -0.3627 -0.7210  0.0900
  555MOL0     C74829  10.438  10.024   3.035 -0.1299  0.7946  0.3997
  555MOL0     C74830  10.293   9.998   2.988 -1.2656 -0.1280 -0.7339
  555MOL0     C74831  10.190  10.072   3.074 -0.1004  0.4439 -0.2743
  555MOL0     C74832  10.152   9.984   3.196 -0.9029  0.1075  0.5030
  555MOL0     C74833  10.085  10.053   3.317  0.1697  0.8390  0.6740
  555MOL0     C74834  10.179  10.082   3.439  1.0401 -1.3559  1.0201
  555MOL0    Cl74835  10.322  10.187   3.393  0.2370 -0.2224  0.4662
  555MOL0     C74836  10.633   9.527   3.000  1.1246 -0.3505  0.5370
  555MOL0     C74837  10.576   9.404   3.013 -0.1879 -0.2712  0.5836
  555MOL0     O74838  10.533   9.122   2.963 -0.3269 -0.4310  0.2489
  555MOL0     C74839  10.266   9.046   3.205  0.5236 -0.5616 -0.2205
  555MOL0     C74840  10.213   8.943   3.282  1.1955 -0.3608 -0.3140
  555MOL0     N74841   9.817   8.275   3.642 -0.1559  0.2902  0.4955
  555MOL0     N74842   9.725   8.191   3.603  0.4207 -0.0362  0.1635
  555MOL0     C74843   8.801   7.753   2.931  0.0059 -0.1429  0.1707
  555MOL0     C74844   8.658   7.733   2.922 -0.1284 -0.5822  0.3165
  555MOL0     C74845   8.252   7.585   2.957  0.2359 -0.3638  0.0191
  555MOL0     C74846   8.204   7.586   3.089 -0.4701  0.1066  0.9150
  555MOL0     C74847   8.071   7.561   3.112  0.1221  0.2072  0.2571
  555MOL0     C74848   7.982   7.554   3.002 -0.2582  0.2858  0.4872
  555MOL0     O74849   7.847   7.543   3.016 -0.5917 -0.0595  0.4399
  555MOL0     C74850   7.791   7.564   3.144 -0.1327 -0.3792  0.0732
  555MOL0     C74851   7.642   7.536   3.159  0.7024  0.2756  0.1006
  555MOL0     C74852   7.545   7.619   3.064  0.3082  0.0474 -0.9262
  555MOL0     C74853   7.395   7.569   3.079  0.4740  0.5162 -0.2410
  555MOL0     C74854   7.294   7.637   2.998 -0.0215  0.1878 -0.8468
  555MOL0     C74855   7.207   7.685   2.927 -0.6312  0.1628  0.1241
  555MOL0     C74856   8.035   7.546   2.876  0.0045  0.4583 -0.0810
  555MOL0     C74857   8.166   7.556   2.850 -0.2988 -0.2285 -0.7825
  555MOL0     H74858   8.622   7.613   3.241  0.1991  1.3095 -0.1306
  555MOL0     H74859   8.887   7.655   3.237  1.9885  0.3722 -1.3721
  555MOL0     H74860   9.036   7.903   3.176 -0.1726 -2.0923  2.2285
  555MOL0     H74861   9.088   7.746   3.208  1.7012 -0.0316 -0.9797
  555MOL0     H74862   9.304   7.748   3.096  1.6162  1.1017 -4.4674
  555MOL0     H74863   9.248   7.882   3.006  0.7596 -0.5578 -0.4337
  555MOL0     H74864   9.246   8.012   3.214  0.3187  0.1741 -4.4824
  555MOL0     H74865   9.277   7.868   3.317  0.6999 -2.2134 -0.4171
  555MOL0     H74866   9.477   7.954   3.101  0.0996  0.6806 -0.2949
  555MOL0     H74867   9.475   8.032   3.261 -0.1214 -0.9661  0.3197
  555MOL0     H74868   9.544   7.817   3.353 -0.1325  0.1665 -0.1626
  555MOL0     H74869   9.527   7.748   3.189  3.1222 -0.4249 -1.6436
  555MOL0     H74870   9.760   7.783   3.240 -0.6328  0.1756  1.7777
  555MOL0     H74871   9.712   7.885   3.101  0.2882  2.0525 -0.1081
  555MOL0     H74872   9.868   7.994   3.257  1.0078 -0.8118 -0.0447
  555MOL0     H74873   9.723   8.093   3.242 -0.6410  1.6308  3.6395
  555MOL0     H74874   9.796   7.911   3.475 -1.7873 -2.0878 -1.9980
  555MOL0     H74875   9.636   7.999   3.460  0.2159 -0.0995  1.7084
  555MOL0     H74876   9.989   8.154   3.396  0.8899  3.4726 -0.8877
  555MOL0     H74877  10.025   8.401   3.687  0.7117 -2.2612  1.2920
  555MOL0     H74878  10.138   8.299   3.604  1.2217  1.7838  0.4603
  555MOL0     H74879   9.947   8.507   3.471  0.3722 -0.9369 -0.7067
  555MOL0     H74880  10.095   8.431   3.400  0.6986  0.8427 -1.0492
  555MOL0     H74881  10.241   8.561   3.562  0.9019 -0.0982  0.5412
  555MOL0     H74882  10.098   8.604   3.650 -0.3666  3.5083 -0.8860
  555MOL0     H74883  10.188   8.795   3.527 -0.8313  2.8063 -2.9815
  555MOL0     H74884  10.026   8.769   3.471  1.1733  2.1533  2.1472
  555MOL0     H74885  10.375   8.682   3.167  0.2939  0.0120 -0.3435
  555MOL0     H74886  10.617   8.850   3.074  0.1287  0.1651 -0.4524
  555MOL0     H74887  10.522   8.721   2.993  1.7124  0.2797 -2.0263
  555MOL0     H74888  10.536   8.873   2.922 -2.4013 -1.6761 -0.6207
  555MOL0     H74889  10.265   9.498   3.139  0.1691 -0.3302  1.7819
  555MOL0     H74890  10.354   9.699   3.105 -2.1565 -2.4691 -0.6154
  555MOL0     H74891  10.614   9.802   2.814 -0.8833 -2.8315 -0.0116
  555MOL0     H74892  10.450   9.793   2.865  0.6520 -1.4366  0.3914
  555MOL0     H74893  10.633  10.023   2.973 -2.5546  3.4253  1.0850
  555MOL0     H74894  10.529  10.046   2.839  2.2033  1.4628  1.1536
  555MOL0     H74895  10.436  10.132   3.053 -1.2401  0.7191  0.8056
  555MOL0     H74896  10.454   9.977   3.133 -4.8848 -1.0515  0.5594
  555MOL0     H74897  10.281  10.038   2.887 -1.5228  1.0476 -0.2555
  555MOL0     H74898  10.269   9.892   2.999 -1.8582  0.0553 -0.1588
  555MOL0     H74899  10.104  10.087   3.008  0.1058  0.0415 -0.6420
  555MOL0     H74900  10.229  10.167   3.111 -0.1124  0.7197 -0.9588
  555MOL0     H74901  10.079   9.907   3.169  0.9502 -1.4782 -0.1943
  555MOL0     H74902  10.237   9.934   3.243  0.2373  2.2161  0.7751
  555MOL0     H74903  10.001   9.989   3.345 -1.5273  2.6811 -0.0054
  555MOL0     H74904  10.036  10.146   3.288 -1.2469 -0.0352  0.1520
  555MOL0     H74905  10.206   9.988   3.488  0.4882 -1.7670  0.5499
  555MOL0     H74906  10.116  10.143   3.505 -1.9386 -2.3418 -0.7213
  555MOL0     H74907  10.736   9.542   2.968  0.9603 -0.5583 -0.1117
  555MOL0     H74908  10.643   9.325   2.982  2.9292  1.3474  2.5582
  555MOL0     H74909  10.235   9.146   3.233 -0.1836 -0.8670  0.0975
  555MOL0     H74910  10.152   8.975   3.366  0.4194  0.5120 -1.1901
  555MOL0     H74911   8.852   7.800   2.847 -1.6877  1.1121 -0.2077
  555MOL0     H74912   8.594   7.777   2.847 -0.1113  0.6430  0.9954
  555MOL0     H74913   8.276   7.616   3.165 -0.2243  1.7676  0.0631
  555MOL0     H74914   8.030   7.569   3.212  1.5864  2.3507  0.7553
  555MOL0     H74915   7.840   7.497   3.215 -0.4365  0.5545  1.2213
  555MOL0     H74916   7.806   7.666   3.182 -0.1368 -0.4312  0.2176
  555MOL0     H74917   7.618   7.551   3.264  1.0217  2.9864 -0.1366
  555MOL0     H74918   7.643   7.429   3.137 -0.6214  0.2218  0.2235
  555MOL0     H74919   7.573   7.589   2.962  1.9288  2.2932 -1.2086
  555MOL0     H74920   7.553   7.726   3.081 -3.4624  0.0018  3.0010
  555MOL0     H74921   7.368   7.597   3.181  3.4659  1.2565  0.4445
  555MOL0     H74922   7.392   7.462   3.059 -0.2209  0.9367 -2.8022
  555MOL0     H74923   7.148   7.734   2.852 -0.3581  3.4450  1.8766
  555MOL0     H74924   7.957   7.519   2.806 -0.7561 -1.0303  1.2613
  555MOL0     H74925   8.211   7.546   2.752  2.5004 -1.0422  0.4799
  556MOL0     O74926   4.092  11.225   2.243 -0.7514  0.0617 -0.1091
  556MOL0     C74927   4.145  11.265   2.346  0.4506 -0.7216 -0.0173
  556MOL0     O74928   4.082  11.284   2.465 -0.3263 -0.1741  0.0869
  556MOL0     C74929   3.944  11.256   2.471 -0.4461  0.0674 -0.4251
  556MOL0     C74930   3.863  11.361   2.515 -0.4436 -0.1064  1.0675
  556MOL0     C74931   3.722  11.349   2.521  0.0000  0.3634 -1.2502
  556MOL0     C74932   3.662  11.233   2.485 -0.2110 -0.1284  0.0998
  556MOL0     O74933   3.527  11.243   2.480  0.3482  0.3391 -0.5494
  556MOL0     C74934   3.471  11.199   2.354  0.5029  0.1463 -0.6150
  556MOL0     C74935   3.453  11.325   2.266 -1.1970 -0.1955  0.4307
  556MOL0     C74936   3.511  11.299   2.119 -1.4259 -0.0716  0.0810
  556MOL0     C74937   3.419  11.201   2.035 -0.2740 -0.6019 -0.6717
  556MOL0     C74938   3.491  11.113   1.938 -0.0725 -0.1555 -1.0155
  556MOL0     C74939   3.591  11.182   1.854 -0.0339 -0.6095 -0.1685
  556MOL0     C74940   3.596  11.114   1.715  0.7646 -0.4097  0.4860
  556MOL0     C74941   3.661  10.970   1.723  0.0965 -0.5231  0.7063
  556MOL0     N74942   3.694  10.911   1.597 -0.2245  0.1535  0.0119
  556MOL0     C74943   3.789  10.959   1.507  1.1697 -0.4717 -0.5232
  556MOL0     C74944   3.769  10.878   1.393 -0.7756  0.7126 -0.3002
  556MOL0     C74945   3.839  10.920   1.266  0.0147  0.4542  0.0914
  556MOL0     C74946   3.984  10.872   1.256  0.5168  0.1780 -0.3761
  556MOL0     C74947   4.024  10.809   1.119 -0.7048  0.1598  0.2091
  556MOL0     C74948   4.165  10.781   1.112 -0.9198 -0.1654  0.6557
  556MOL0     O74949   4.191  10.646   1.151  0.4814 -0.0072  0.5473
  556MOL0     C74950   4.320  10.619   1.183 -0.2249  0.2899  0.4700
  556MOL0     C74951   4.357  10.507   1.261  0.6576 -0.4107  0.0113
  556MOL0     C74952   4.489  10.465   1.282 -0.2625 -0.2156 -0.7201
  556MOL0     C74953   4.501  10.342   1.374  0.2829 -0.4258  0.1324
  556MOL0     C74954   4.596  10.536   1.221  0.0168  0.6544  1.2493
  556MOL0     C74955   4.745  10.492   1.247  0.5979  0.2127 -0.1825
  556MOL0     O74956   4.827  10.535   1.150  0.3502 -0.1402  0.1822
  556MOL0     C74957   4.963  10.529   1.153 -0.0841 -0.0475 -0.2491
  556MOL0     C74958   5.053  10.452   1.236  0.6345 -0.8558  0.6685
  556MOL0     C74959   5.192  10.470   1.208  0.0015 -0.3064  0.0180
  556MOL0     C74960   5.248  10.548   1.109  0.1457  0.5475  0.8268
  556MOL0     O74961   5.378  10.553   1.098  0.1978 -0.6309 -0.4028
  556MOL0     C74962   5.435  10.656   1.164 -0.0583  0.3922  0.2948
  556MOL0     C74963   5.587  10.644   1.175 -0.1114  0.5261  0.3011
  556MOL0     C74964   5.660  10.756   1.252 -0.1597 -0.6370 -0.0562
  556MOL0     C74965   5.659  10.884   1.170 -0.0745 -0.5831 -0.1977
  556MOL0     C74966   5.657  11.003   1.265  0.4020  0.3862  0.5401
  556MOL0     C74967   5.503  11.028   1.313 -0.3230 -0.7086 -0.9329
  556MOL0     C74968   5.502  11.102   1.446 -0.5014  0.3427  0.3141
  556MOL0     C74969   5.352  11.108   1.492  0.3148 -0.1631 -0.3591
  556MOL0    Cl74970   5.349  11.149   1.667  0.2834  0.5333  0.5383
  556MOL0     C74971   5.161  10.603   1.026  1.2019  0.1544  0.8661
  556MOL0     C74972   5.020  10.602   1.045 -0.6799 -0.4684 -0.1995
  556MOL0     O74973   4.780  10.434   1.348  0.0473 -0.3570  0.0457
  556MOL0     C74974   4.562  10.646   1.138 -0.0825  0.0483 -0.0518
  556MOL0     C74975   4.429  10.687   1.127 -0.7474  0.2643  0.1399
  556MOL0     N74976   3.663  10.789   1.419  0.0247 -0.8133  1.1473
  556MOL0     N74977   3.621  10.811   1.540  0.0134  0.3513  0.6094
  556MOL0     C74978   3.739  11.131   2.451  0.4532  0.6274 -0.0338
  556MOL0     C74979   3.880  11.128   2.445 -0.3954 -0.4750 -0.4177
  556MOL0     C74980   4.294  11.289   2.355 -0.4103 -0.1728 -0.5163
  556MOL0     C74981   4.382  11.221   2.288 -0.1272  1.1369 -0.1191
  556MOL0     C74982   4.519  11.232   2.316  0.2070  0.9034 -0.4559
  556MOL0     C74983   4.564  11.336   2.396 -0.3176  0.4382  0.3255
  556MOL0     O74984   4.701  11.344   2.427  1.2432 -0.4478 -0.2867
  556MOL0     C74985   4.738  11.250   2.518  0.1496  0.8283 -0.2613
  556MOL0     C74986   4.882  11.284   2.557  0.7908  0.0750 -0.6929
  556MOL0     C74987   4.982  11.260   2.443  1.0578  0.2817 -0.2180
  556MOL0     C74988   5.116  11.322   2.449 -0.7763  0.1584 -0.0716
  556MOL0     C74989   5.221  11.222   2.474 -0.1322  0.4212 -0.2746
  556MOL0     C74990   5.295  11.131   2.486 -0.5240  0.0350  0.2393
  556MOL0     C74991   4.475  11.424   2.449 -0.4418 -0.1403 -0.2406
  556MOL0     C74992   4.341  11.396   2.436  0.2673 -0.2458 -0.0579
  556MOL0     H74993   3.907  11.456   2.543  0.2406  0.1382 -0.6565
  556MOL0     H74994   3.673  11.439   2.554  3.2790  2.7067 -2.2908
  556MOL0     H74995   3.527  11.125   2.295  2.3612  3.3910 -3.3169
  556MOL0     H74996   3.371  11.161   2.372  0.7796 -1.2216 -1.7409
  556MOL0     H74997   3.351  11.363   2.259 -0.2618  3.1529  2.4921
  556MOL0     H74998   3.507  11.409   2.311 -2.4629 -0.0296  1.7234
  556MOL0     H74999   3.513  11.398   2.073  2.1062 -1.1224 -2.4437
  556MOL0     H75000   3.615  11.265   2.116 -2.0266 -2.1838  1.1371
  556MOL0     H75001   3.355  11.149   2.106 -0.3933  1.1986  0.6121
  556MOL0     H75002   3.348  11.268   1.985  1.9370  3.7955  1.4620
  556MOL0     H75003   3.530  11.024   1.988 -0.2465  0.7347  0.7765
  556MOL0     H75004   3.418  11.068   1.871 -0.8655  0.6167 -0.6884
  556MOL0     H75005   3.573  11.290   1.844  2.4516  0.1907  2.4869
  556MOL0     H75006   3.686  11.186   1.908  0.9385 -4.1566 -1.4001
  556MOL0     H75007   3.501  11.120   1.662  0.9638  0.6963  0.2361
  556MOL0     H75008   3.667  11.174   1.657 -1.4499  1.5951 -0.2887
  556MOL0     H75009   3.590  10.902   1.771  2.1976 -2.5240  1.1211
  556MOL0     H75010   3.749  10.982   1.787 -0.0133 -0.3176  0.8229
  556MOL0     H75011   3.852  11.047   1.508  1.0529 -0.3882 -0.6110
  556MOL0     H75012   3.775  10.882   1.186  0.7384  2.9393 -1.8236
  556MOL0     H75013   3.837  11.028   1.248 -3.4934  0.7674  1.5026
  556MOL0     H75014   3.996  10.785   1.321  0.9330  0.7799  0.3761
  556MOL0     H75015   4.051  10.949   1.296  1.8237 -1.7847  1.4521
  556MOL0     H75016   3.991  10.878   1.042 -1.5131 -0.3118  0.1138
  556MOL0     H75017   3.974  10.714   1.097 -0.1043 -0.2492  0.5759
  556MOL0     H75018   4.226  10.854   1.167  1.9786 -0.2225 -2.1694
  556MOL0     H75019   4.201  10.788   1.009  4.6946 -0.1156  2.2635
  556MOL0     H75020   4.268  10.453   1.291  0.7889 -0.0560  1.0973
  556MOL0     H75021   4.546  10.256   1.323  1.5796  1.4390 -2.0588
  556MOL0     H75022   4.580  10.360   1.448  0.7337 -1.8310  0.0353
  556MOL0     H75023   4.403  10.324   1.419 -0.1241  2.2534  0.4444
  556MOL0     H75024   5.020  10.387   1.317  0.3305 -0.3596  0.9455
  556MOL0     H75025   5.265  10.422   1.274  0.8108  0.7925 -0.0454
  556MOL0     H75026   5.407  10.743   1.104  2.0832 -1.1834 -3.3313
  556MOL0     H75027   5.416  10.669   1.271  2.0602  3.0554  0.4474
  556MOL0     H75028   5.601  10.552   1.232  2.1415  0.5454 -0.1433
  556MOL0     H75029   5.639  10.622   1.082  0.1021 -0.7150  0.7005
  556MOL0     H75030   5.767  10.736   1.255 -0.2452 -1.8073 -2.4706
  556MOL0     H75031   5.631  10.766   1.357 -0.3341  0.4067 -0.1916
  556MOL0     H75032   5.750  10.887   1.110 -0.1148 -1.0785 -0.2928
  556MOL0     H75033   5.575  10.903   1.102  1.2114 -1.7639 -2.2050
  556MOL0     H75034   5.697  11.090   1.213  2.8262 -0.0004  1.6166
  556MOL0     H75035   5.723  10.982   1.350  1.7963 -0.1425 -0.6323
  556MOL0     H75036   5.445  11.083   1.239 -1.0789  0.6060  0.5574
  556MOL0     H75037   5.444  10.937   1.326 -2.2864  0.7158  0.7724
  556MOL0     H75038   5.557  11.197   1.448  2.7237 -1.3983 -0.0261
  556MOL0     H75039   5.547  11.041   1.525  1.8381  1.6848  0.0969
  556MOL0     H75040   5.299  11.015   1.470 -0.4625 -0.1687  1.3765
  556MOL0     H75041   5.299  11.188   1.439 -1.4770 -0.7077  0.5178
  556MOL0     H75042   5.215  10.658   0.949  2.0445  1.4776  2.3371
  556MOL0     H75043   4.947  10.650   0.980 -0.3557  2.9932  1.7547
  556MOL0     H75044   4.634  10.701   1.079 -2.4170  1.9091 -1.3135
  556MOL0     H75045   4.410  10.766   1.055 -0.3005 -0.9700 -1.3940
  556MOL0     H75046   3.679  11.044   2.427  0.5992  0.8843 -1.4098
  556MOL0     H75047   3.935  11.042   2.409  1.0946 -0.0258  0.6513
  556MOL0     H75048   4.347  11.159   2.207 -1.0913  0.4800  0.7819
  556MOL0     H75049   4.600  11.177   2.269 -1.6143 -1.9198 -0.5148
  556MOL0     H75050   4.674  11.253   2.607  0.4257 -1.0866  0.0456
  556MOL0     H75051   4.734  11.146   2.485  4.7876  0.3760 -0.0419
  556MOL0     H75052   4.905  11.220   2.643 -1.7662  1.1645  0.9131
  556MOL0     H75053   4.894  11.384   2.600  2.5291 -1.1119  1.8775
  556MOL0     H75054   4.946  11.322   2.360  0.2915  1.3258  0.8556
  556MOL0     H75055   4.973  11.155   2.415 -2.3639  0.5049 -0.4373
  556MOL0     H75056   5.112  11.404   2.521  0.7588 -0.8977  1.3227
  556MOL0     H75057   5.145  11.363   2.352 -1.3761 -2.7698 -1.6071
  556MOL0     H75058   5.339  11.034   2.484 -2.9422 -1.1623  0.7824
  556MOL0     H75059   4.502  11.496   2.525  0.7575  0.3854 -1.1497
  556MOL0     H75060   4.272  11.463   2.488  0.5912 -0.2987  0.4508
  557MOL0     O75061   5.303   1.472   6.386 -0.1724 -0.2417  0.1484
  557MOL0     C75062   5.414   1.508   6.335  0.4512 -0.6371 -0.2511
  557MOL0     O75063   5.490   1.611   6.390 -0.1798  0.0037  0.1793
  557MOL0     C75064   5.450   1.668   6.508 -0.4718 -0.1373 -0.8665
  557MOL0     C75065   5.546   1.658   6.604 -1.2034  0.5874 -0.2451
  557MOL0     C75066   5.544   1.731   6.722  0.6175 -0.6715  0.5935
  557MOL0     C75067   5.432   1.826   6.747 -0.6479  0.6140  0.0200
  557MOL0     O75068   5.433   1.900   6.857  0.2035  0.5288 -0.3141
  557MOL0     C75069   5.339   1.843   6.949  0.9668  0.8189 -0.1484
  557MOL0     C75070   5.377   1.881   7.095 -0.2750  0.5097 -0.2041
  557MOL0     C75071   5.265   1.923   7.186 -0.0315  0.4406 -0.2744
  557MOL0     C75072   5.323   1.976   7.323  0.8203 -0.6652 -0.0732
  557MOL0     C75073   5.228   2.066   7.402  0.2231 -0.1790  0.6696
  557MOL0     C75074   5.300   2.184   7.477  0.3551  0.3553 -0.4154
  557MOL0     C75075   5.208   2.269   7.569  1.7558  0.1263  0.5718
  557MOL0     C75076   5.200   2.204   7.716 -0.3871 -0.5125 -0.6870
  557MOL0     N75077   5.109   2.286   7.804 -0.0745 -0.1577 -0.1577
  557MOL0     C75078   4.980   2.325   7.762  0.2510  0.4893  0.2236
  557MOL0     C75079   4.944   2.417   7.850  0.4595  0.4078 -0.6027
  557MOL0     C75080   4.810   2.482   7.859  0.2003  0.7739 -0.0666
  557MOL0     C75081   4.698   2.411   7.797  0.6643 -0.3946  0.1128
  557MOL0     C75082   4.563   2.472   7.836  0.6738 -0.5784 -0.0355
  557MOL0     C75083   4.440   2.382   7.807 -0.8275 -0.0387  0.4840
  557MOL0     O75084   4.325   2.452   7.842 -0.0183  0.9569 -0.0395
  557MOL0     C75085   4.214   2.399   7.805 -0.1136 -0.5814  0.5780
  557MOL0     C75086   4.110   2.481   7.811  0.7424  0.0275  0.5102
  557MOL0     C75087   3.987   2.462   7.741 -0.3090 -0.1523 -0.9495
  557MOL0     C75088   3.880   2.574   7.757 -0.0843 -1.2503 -0.4077
  557MOL0     C75089   3.966   2.336   7.681  0.6481  0.0359  1.0823
  557MOL0     C75090   3.838   2.287   7.607 -0.0369 -0.9551 -0.0957
  557MOL0     O75091   3.824   2.160   7.577  0.4650  0.3941 -0.6374
  557MOL0     C75092   3.732   2.126   7.478  0.1170  0.9382 -0.1297
  557MOL0     C75093   3.774   2.116   7.346 -0.1719 -0.7355 -0.6570
  557MOL0     C75094   3.682   2.079   7.244 -0.5118 -0.2814 -1.3985
  557MOL0     C75095   3.550   2.040   7.287 -0.0400 -0.7468  1.0209
  557MOL0     O75096   3.467   1.994   7.186  0.3460  0.2476 -0.3287
  557MOL0     C75097   3.317   1.998   7.216 -0.0564 -0.4697 -0.1201
  557MOL0     C75098   3.231   2.036   7.093 -0.5225  0.4817 -0.1273
  557MOL0     C75099   3.102   1.958   7.077 -0.4199  0.1124 -0.6327
  557MOL0     C75100   3.004   1.997   7.189 -0.1063 -0.5367 -0.3800
  557MOL0     C75101   2.864   2.039   7.139 -0.0044  0.0589 -0.2942
  557MOL0     C75102   2.778   2.080   7.260  0.1623 -0.0644 -0.6409
  557MOL0     C75103   2.695   1.961   7.314  0.1990  0.0205  1.0205
  557MOL0     C75104   2.555   1.939   7.267  0.3665  0.4730 -0.6565
  557MOL0    Cl75105   2.527   1.937   7.087  0.0671 -0.5884 -0.1851
  557MOL0     C75106   3.508   2.044   7.422  0.0615  0.2673 -0.0044
  557MOL0     C75107   3.600   2.091   7.514  0.5004  0.1152 -0.6759
  557MOL0     O75108   3.757   2.373   7.582  0.1445  0.3039  0.1729
  557MOL0     C75109   4.077   2.242   7.679 -0.7561 -0.6842  0.5772
  557MOL0     C75110   4.196   2.281   7.737  1.3777  0.1999  0.1724
  557MOL0     N75111   5.049   2.449   7.933 -0.0965  0.5178  0.6722
  557MOL0     N75112   5.145   2.363   7.909 -0.0456  0.0123  0.2927
  557MOL0     C75113   5.329   1.832   6.643 -0.2675  0.1789 -0.9038
  557MOL0     C75114   5.341   1.754   6.530 -0.3130  0.7826  1.7638
  557MOL0     C75115   5.462   1.441   6.218 -1.1321  0.8201 -0.3053
  557MOL0     C75116   5.376   1.365   6.139  0.9609 -0.0589  1.0238
  557MOL0     C75117   5.413   1.302   6.020  0.1633 -0.8571 -0.0090
  557MOL0     C75118   5.537   1.336   5.964 -0.2894 -0.2134 -0.5404
  557MOL0     O75119   5.586   1.286   5.852 -0.2405 -0.5645 -0.2348
  557MOL0     C75120   5.530   1.169   5.794  1.0258  0.0148  0.6301
  557MOL0     C75121   5.566   1.047   5.869  0.1771  0.9955 -0.2670
  557MOL0     C75122   5.710   0.991   5.852  0.5805 -0.7584  0.1801
  557MOL0     C75123   5.797   1.053   5.960  0.1403 -0.6889 -0.0742
  557MOL0     C75124   5.940   1.032   5.935  0.0040 -0.2864  0.4782
  557MOL0     C75125   6.055   1.000   5.922 -0.3765 -0.2242  0.8573
  557MOL0     C75126   5.624   1.416   6.042 -0.2250  0.0194 -0.6223
  557MOL0     C75127   5.586   1.468   6.167 -0.4359 -0.0911  0.5738
  557MOL0     H75128   5.631   1.591   6.591 -0.7171  1.3642 -1.2886
  557MOL0     H75129   5.631   1.735   6.787  2.4278  2.1319 -1.7033
  557MOL0     H75130   5.241   1.883   6.923  0.8655  0.2951 -0.5759
  557MOL0     H75131   5.333   1.735   6.938 -1.3325  1.0992 -2.4138
  557MOL0     H75132   5.420   1.793   7.144  0.1764  1.3138  0.8701
  557MOL0     H75133   5.447   1.965   7.091  0.5151  0.3057  4.2394
  557MOL0     H75134   5.194   1.992   7.137 -0.0233 -0.3159 -1.3892
  557MOL0     H75135   5.212   1.828   7.190  2.0133 -0.7729 -0.8031
  557MOL0     H75136   5.344   1.893   7.391  1.0735  0.9603  1.9581
  557MOL0     H75137   5.414   2.034   7.303  0.5637 -0.1260  0.2841
  557MOL0     H75138   5.151   2.103   7.334 -1.8574 -3.7068  0.8177
  557MOL0     H75139   5.176   2.013   7.483  0.8912  1.2956  2.1277
  557MOL0     H75140   5.374   2.135   7.540  0.1427 -0.5024 -0.8275
  557MOL0     H75141   5.336   2.251   7.398 -1.4578  0.4948 -1.1749
  557MOL0     H75142   5.238   2.374   7.576 -0.4197  0.7724  0.8966
  557MOL0     H75143   5.111   2.257   7.521  0.1569  2.6811  2.8362
  557MOL0     H75144   5.297   2.206   7.768 -1.4110  1.0321  1.2871
  557MOL0     H75145   5.155   2.105   7.717 -1.2187 -0.1387  0.4923
  557MOL0     H75146   4.919   2.277   7.686  2.3383  0.0061 -1.2159
  557MOL0     H75147   4.795   2.482   7.967 -0.3446 -1.9448 -0.0762
  557MOL0     H75148   4.816   2.577   7.805  0.6478 -0.5389 -2.4352
  557MOL0     H75149   4.685   2.304   7.816 -3.5714 -0.0263  0.3443
  557MOL0     H75150   4.701   2.416   7.688 -0.5734  1.7006  0.1197
  557MOL0     H75151   4.548   2.569   7.789 -1.5991 -0.6493  0.4025
  557MOL0     H75152   4.564   2.498   7.942  1.6696  2.9176 -0.7922
  557MOL0     H75153   4.440   2.289   7.864 -2.1755 -2.7637 -3.5075
  557MOL0     H75154   4.446   2.354   7.701  5.7598 -1.9058  0.8783
  557MOL0     H75155   4.114   2.579   7.857 -2.3551  0.8042 -0.6540
  557MOL0     H75156   3.918   2.676   7.770 -1.2003 -0.8419 -0.2392
  557MOL0     H75157   3.818   2.571   7.667  2.5455 -2.9575 -2.3233
  557MOL0     H75158   3.803   2.558   7.834 -0.1488  0.4329 -0.0901
  557MOL0     H75159   3.870   2.153   7.313 -1.7014  3.6666 -0.8582
  557MOL0     H75160   3.707   2.076   7.139 -0.9717  0.4456 -1.5366
  557MOL0     H75161   3.284   1.904   7.261  0.7280 -1.1428 -0.9066
  557MOL0     H75162   3.299   2.067   7.299  3.0482  2.2066 -1.4450
  557MOL0     H75163   3.203   2.141   7.101 -1.5032  0.5919 -3.4697
  557MOL0     H75164   3.287   2.016   7.001  0.9148 -0.2343  0.8557
  557MOL0     H75165   3.103   1.849   7.067 -1.7456 -0.0162  0.3606
  557MOL0     H75166   3.056   1.991   6.983 -1.3280  0.1450 -0.1847
  557MOL0     H75167   2.998   1.905   7.248 -3.6580 -0.9722 -1.1950
  557MOL0     H75168   3.045   2.080   7.248 -2.5716  1.5290 -1.3553
  557MOL0     H75169   2.818   1.959   7.080  1.7114 -2.1188  1.1757
  557MOL0     H75170   2.870   2.124   7.070  0.3683 -0.0227 -0.3645
  557MOL0     H75171   2.842   2.123   7.337 -1.3505  1.0602  0.0181
  557MOL0     H75172   2.709   2.155   7.221  1.0073  0.2745 -1.5458
  557MOL0     H75173   2.688   1.977   7.422 -2.4380  5.5935  0.3639
  557MOL0     H75174   2.753   1.871   7.292 -0.6330 -0.8188  2.1369
  557MOL0     H75175   2.499   2.019   7.317  2.1879  2.1399 -1.1817
  557MOL0     H75176   2.537   1.839   7.309  1.6693 -0.1336 -1.4790
  557MOL0     H75177   3.409   2.005   7.446 -1.2587  1.8779 -2.3298
  557MOL0     H75178   3.563   2.079   7.615 -0.7858 -3.8676 -1.4609
  557MOL0     H75179   4.076   2.147   7.626  1.1709 -0.9491  0.9582
  557MOL0     H75180   4.270   2.208   7.706  0.1600 -0.4948 -1.2160
  557MOL0     H75181   5.238   1.890   6.653 -0.9840 -0.4378 -3.2218
  557MOL0     H75182   5.268   1.765   6.450 -1.2220  1.3084  2.6276
  557MOL0     H75183   5.273   1.353   6.172  1.3435 -1.5995  1.7597
  557MOL0     H75184   5.331   1.243   5.981 -0.3158 -2.5443  3.1966
  557MOL0     H75185   5.424   1.198   5.786  1.9485  3.2334 -3.3109
  557MOL0     H75186   5.571   1.153   5.694 -0.2506 -0.0601  0.0937
  557MOL0     H75187   5.499   0.973   5.823 -0.9224  1.3443  0.7180
  557MOL0     H75188   5.527   1.046   5.971 -0.1281  0.4741 -0.3801
  557MOL0     H75189   5.756   1.020   5.757  0.8752  0.8324  0.7898
  557MOL0     H75190   5.704   0.881   5.856  1.1255 -0.7557  2.4148
  557MOL0     H75191   5.785   1.023   6.065  1.3181 -3.9653 -0.7572
  557MOL0     H75192   5.785   1.162   5.962  1.2038 -0.5776  1.0472
  557MOL0     H75193   6.150   0.952   5.910 -1.2456 -1.8091 -0.0771
  557MOL0     H75194   5.718   1.434   5.990  1.2866 -2.8500  0.8676
  557MOL0     H75195   5.657   1.531   6.220  0.5635  0.1491 -0.9764
  558MOL0     O75196   2.058   6.746  11.455 -0.8283 -0.4031 -0.0380
  558MOL0     C75197   2.162   6.753  11.397  0.5662 -0.1921 -0.1832
  558MOL0     O75198   2.289   6.778  11.451  0.4435 -0.6397 -0.3781
  558MOL0     C75199   2.306   6.804  11.586  0.1921  0.0210  0.3950
  558MOL0     C75200   2.436   6.851  11.621  0.6496 -0.0942  1.0734
  558MOL0     C75201   2.480   6.863  11.751 -0.2319 -0.0665 -0.7483
  558MOL0     C75202   2.400   6.843  11.859  0.2785  1.1930  0.2294
  558MOL0     O75203   2.460   6.835  11.981 -0.4559  0.3873 -0.1850
  558MOL0     C75204   2.411   6.748  12.081  0.0157 -0.2595  0.6187
  558MOL0     C75205   2.429   6.607  12.056 -0.7498  0.4185  0.2143
  558MOL0     C75206   2.377   6.520  12.171 -0.2139 -0.0508 -0.4973
  558MOL0     C75207   2.456   6.391  12.179 -0.4477  0.8194  0.5870
  558MOL0     C75208   2.514   6.356  12.313  0.6616 -0.8489 -0.1784
  558MOL0     C75209   2.663   6.330  12.327  0.9347 -0.8077  0.3407
  558MOL0     C75210   2.713   6.225  12.231 -0.5769  0.3709  0.0355
  558MOL0     C75211   2.871   6.207  12.225 -0.0654 -0.7135  0.3484
  558MOL0     N75212   2.933   6.147  12.343 -0.5177  0.9804 -0.6002
  558MOL0     C75213   2.871   6.098  12.455 -0.0043 -0.0255  0.0101
  558MOL0     C75214   2.973   6.028  12.527 -0.2788 -0.5232  0.1430
  558MOL0     C75215   2.970   5.960  12.667  0.1366 -1.0983 -0.0096
  558MOL0     C75216   3.014   5.811  12.644 -0.5004  0.6421  0.1517
  558MOL0     C75217   2.983   5.718  12.766  0.1996 -0.7003  0.8120
  558MOL0     C75218   3.014   5.574  12.744  0.0050  0.3016 -0.7966
  558MOL0     O75219   3.155   5.553  12.716 -0.4009 -0.2132 -0.4440
  558MOL0     C75220   3.201   5.433  12.665 -0.2162 -0.8067  1.1918
  558MOL0     C75221   3.137   5.306  12.688 -0.0027 -0.3458  0.2996
  558MOL0     C75222   3.170   5.191  12.613 -0.0120  0.5279 -0.7361
  558MOL0     C75223   3.082   5.074  12.621 -1.0764  0.2197  0.8737
  558MOL0     C75224   3.289   5.189  12.539  0.1028  0.6345  0.8214
  558MOL0     C75225   3.352   5.068  12.469  0.0522 -0.3650  0.3036
  558MOL0     O75226   3.267   4.972  12.417 -0.3539 -0.9036 -0.0139
  558MOL0     C75227   3.307   4.863  12.347 -0.3537  0.1153 -0.4734
  558MOL0     C75228   3.415   4.846  12.255  0.3401 -0.4715 -0.2589
  558MOL0     C75229   3.433   4.719  12.197 -0.1145  0.4574  0.1013
  558MOL0     C75230   3.347   4.612  12.213  0.2761  0.0835  0.6787
  558MOL0     O75231   3.350   4.494  12.144 -0.0883 -0.1380  0.3818
  558MOL0     C75232   3.378   4.500  12.000  0.1744  0.6845  0.8023
  558MOL0     C75233   3.262   4.553  11.913 -0.2778  0.0348 -0.9672
  558MOL0     C75234   3.300   4.564  11.766  0.6217 -0.2406  0.0518
  558MOL0     C75235   3.190   4.631  11.682  0.2899 -0.2814  0.6671
  558MOL0     C75236   3.067   4.546  11.662  0.4004  0.5101 -0.7194
  558MOL0     C75237   2.994   4.562  11.525 -0.4589  0.1889 -0.4679
  558MOL0     C75238   2.894   4.445  11.501  0.5923 -0.2518  0.1902
  558MOL0     C75239   2.818   4.468  11.370  0.0474  0.2320 -0.3790
  558MOL0    Cl75240   2.731   4.326  11.325  0.5737  0.7385  0.0229
  558MOL0     C75241   3.245   4.630  12.295  0.1539 -0.2924 -0.7324
  558MOL0     C75242   3.222   4.755  12.357  0.2109  0.3693  0.6696
  558MOL0     O75243   3.473   5.062  12.473  0.3794  0.4702 -0.0042
  558MOL0     C75244   3.367   5.307  12.544 -0.3802  0.0304  1.0518
  558MOL0     C75245   3.322   5.434  12.583  1.3373 -0.7225 -0.0697
  558MOL0     N75246   3.093   6.069  12.468 -0.0245  0.0413  0.4601
  558MOL0     N75247   3.068   6.125  12.350 -0.1166  1.0258 -0.3620
  558MOL0     C75248   2.267   6.798  11.827  0.1064 -0.3713 -0.4131
  558MOL0     C75249   2.217   6.773  11.695 -0.4063 -0.7745  0.4903
  558MOL0     C75250   2.152   6.718  11.250 -0.1957 -1.0813 -0.5544
  558MOL0     C75251   2.038   6.666  11.201  0.7790 -0.2708  0.5572
  558MOL0     C75252   2.021   6.628  11.068  0.0397 -0.0048  0.6313
  558MOL0     C75253   2.131   6.652  10.982  0.5247 -0.1723  0.7303
  558MOL0     O75254   2.134   6.628  10.847  1.2664 -0.1477  0.0757
  558MOL0     C75255   2.213   6.520  10.804 -0.4692  0.1259 -0.4145
  558MOL0     C75256   2.179   6.488  10.658  0.6258 -0.1876  0.5458
  558MOL0     C75257   2.225   6.582  10.548  0.0533 -0.3681 -0.0915
  558MOL0     C75258   2.376   6.577  10.530  0.5501 -0.0104  0.2743
  558MOL0     C75259   2.415   6.656  10.409 -0.0304  0.1224 -0.2808
  558MOL0     C75260   2.423   6.725  10.312  0.1285  0.0274  0.8714
  558MOL0     C75261   2.246   6.702  11.037 -0.4798 -0.1678 -0.6290
  558MOL0     C75262   2.259   6.743  11.169 -0.7443  0.4541  0.4726
  558MOL0     H75263   2.505   6.870  11.539  0.0544 -1.8323  0.1192
  558MOL0     H75264   2.580   6.895  11.778  0.1991  0.0974 -2.4022
  558MOL0     H75265   2.464   6.773  12.173  2.3774 -2.3588 -0.0705
  558MOL0     H75266   2.304   6.768  12.094  0.2070  1.4471 -0.1435
  558MOL0     H75267   2.379   6.577  11.964  0.5593 -0.3632 -0.2570
  558MOL0     H75268   2.533   6.581  12.037  0.0401  1.1891  2.9818
  558MOL0     H75269   2.386   6.584  12.259  0.2203  2.6664 -2.3665
  558MOL0     H75270   2.272   6.501  12.145  0.1847  0.9193 -3.1165
  558MOL0     H75271   2.386   6.315  12.144 -0.7127  2.7646 -3.8375
  558MOL0     H75272   2.536   6.388  12.104 -1.0151 -1.7301 -0.0063
  558MOL0     H75273   2.488   6.428  12.391  0.7526  0.0395 -0.9523
  558MOL0     H75274   2.467   6.260  12.335  1.4798 -2.1400 -3.5195
  558MOL0     H75275   2.717   6.424  12.307 -1.6110  0.4000 -1.4546
  558MOL0     H75276   2.695   6.305  12.429 -0.2396  1.1101  1.2457
  558MOL0     H75277   2.671   6.129  12.264  0.4164  0.0577  0.4204
  558MOL0     H75278   2.685   6.239  12.126  3.0657 -3.3896 -1.6854
  558MOL0     H75279   2.912   6.309  12.217  2.4542 -1.5340  1.4828
  558MOL0     H75280   2.897   6.156  12.132 -0.6226 -1.9207  0.8375
  558MOL0     H75281   2.765   6.090  12.477  0.0735 -2.1451 -0.1594
  558MOL0     H75282   3.033   6.014  12.738 -0.9691 -0.3698  0.4359
  558MOL0     H75283   2.872   5.970  12.714  0.2045 -1.3203  0.1817
  558MOL0     H75284   3.122   5.812  12.625 -0.2087 -0.9090  1.5449
  558MOL0     H75285   2.973   5.766  12.553  2.7100  2.8464 -2.6454
  558MOL0     H75286   2.877   5.732  12.786 -0.3740  5.1316 -3.4759
  558MOL0     H75287   3.037   5.753  12.854 -1.4098 -0.3106  1.6801
  558MOL0     H75288   2.953   5.548  12.657  3.4391 -2.6577 -2.5672
  558MOL0     H75289   2.982   5.522  12.835  1.7208  0.7095  0.0785
  558MOL0     H75290   3.044   5.314  12.744 -0.3894 -0.2831 -0.3330
  558MOL0     H75291   3.065   5.034  12.521 -0.6682  0.7223  0.5969
  558MOL0     H75292   3.117   4.995  12.689 -0.3180 -2.4632 -2.3905
  558MOL0     H75293   2.990   5.107  12.671 -0.7415  0.4543  1.3475
  558MOL0     H75294   3.471   4.937  12.237 -1.5963  0.2627 -3.4780
  558MOL0     H75295   3.522   4.719  12.134 -0.9860 -0.3022 -1.1671
  558MOL0     H75296   3.458   4.571  11.978 -0.3691  0.5628 -1.9597
  558MOL0     H75297   3.417   4.405  11.965  4.3313  3.1579 -2.1858
  558MOL0     H75298   3.173   4.489  11.922 -1.1560  1.3816  0.4110
  558MOL0     H75299   3.231   4.648  11.957 -2.1736 -0.7495 -0.4978
  558MOL0     H75300   3.324   4.466  11.725  0.6942  0.1241 -0.8222
  558MOL0     H75301   3.386   4.628  11.746  0.8851 -1.0780 -1.6969
  558MOL0     H75302   3.170   4.730  11.726 -2.6127  1.0019 -3.0767
  558MOL0     H75303   3.239   4.641  11.585  2.4056 -1.2308  1.5816
  558MOL0     H75304   2.999   4.561  11.747 -2.7286 -2.1566 -2.5116
  558MOL0     H75305   3.103   4.443  11.673 -2.7487 -0.5491  1.1901
  558MOL0     H75306   2.926   4.647  11.535 -0.3704  0.0985  1.2590
  558MOL0     H75307   3.068   4.556  11.445 -0.2039 -0.2307 -0.2050
  558MOL0     H75308   2.824   4.438  11.584 -0.7416  1.5777 -0.7158
  558MOL0     H75309   2.942   4.349  11.480  0.5252  0.2450 -2.5839
  558MOL0     H75310   2.886   4.498  11.290  4.2452 -0.4620  2.6228
  558MOL0     H75311   2.768   4.562  11.396  0.8308  0.2012  1.3713
  558MOL0     H75312   3.161   4.565  12.317 -0.6139  0.6291 -0.8720
  558MOL0     H75313   3.129   4.763  12.411 -0.8240  1.9880 -1.1935
  558MOL0     H75314   3.461   5.304  12.489  0.6536  1.2116  2.6739
  558MOL0     H75315   3.379   5.525  12.567 -1.7720  1.2200 -1.0146
  558MOL0     H75316   2.187   6.787  11.899 -0.6418  2.1160 -0.7443
  558MOL0     H75317   2.120   6.725  11.686 -0.8552  0.1422  0.2930
  558MOL0     H75318   1.953   6.633  11.261 -0.1027  1.1718  0.1552
  558MOL0     H75319   1.922   6.609  11.028  0.2138  0.5110 -0.0679
  558MOL0     H75320   2.320   6.527  10.824 -0.7147  0.6529  0.7826
  558MOL0     H75321   2.194   6.432  10.866  0.3469  1.5213  1.9512
  558MOL0     H75322   2.073   6.462  10.645  0.7214  0.5627 -2.8061
  558MOL0     H75323   2.220   6.389  10.636 -2.1355 -1.6780  1.6143
  558MOL0     H75324   2.203   6.687  10.568  2.0026  0.7053 -2.8951
  558MOL0     H75325   2.193   6.561  10.445  0.2459  1.3731 -0.5424
  558MOL0     H75326   2.398   6.470  10.537 -1.2872 -0.4927 -0.5698
  558MOL0     H75327   2.423   6.614  10.621 -0.0832 -2.1257  1.5387
  558MOL0     H75328   2.417   6.770  10.215 -2.3357  1.5581  1.6355
  558MOL0     H75329   2.324   6.730  10.968 -1.6719 -0.1226 -2.0145
  558MOL0     H75330   2.342   6.797  11.214 -0.8253  0.1064  1.0498
  559MOL0     O75331   5.562   0.773   4.929  0.8338  0.9502 -0.5266
  559MOL0     C75332   5.626   0.666   4.946  0.7526 -0.1327  1.2223
  559MOL0     O75333   5.585   0.540   4.910  0.1940 -0.9517 -0.5184
  559MOL0     C75334   5.473   0.517   4.840  0.3858  1.0064 -0.3595
  559MOL0     C75335   5.344   0.540   4.895 -1.2386  0.6113 -0.0592
  559MOL0     C75336   5.230   0.514   4.821 -0.8326  0.1219 -0.1314
  559MOL0     C75337   5.242   0.468   4.690 -0.4055  0.3156  0.2914
  559MOL0     O75338   5.137   0.423   4.612 -0.1224 -0.0357 -0.1506
  559MOL0     C75339   5.010   0.399   4.678  0.1580 -0.9675 -0.5915
  559MOL0     C75340   4.911   0.333   4.585  0.2359  0.6250 -0.0676
  559MOL0     C75341   4.898   0.407   4.445 -0.1633  0.4852 -0.3469
  559MOL0     C75342   4.770   0.354   4.375 -0.1184 -0.4635 -1.0558
  559MOL0     C75343   4.769   0.416   4.234  1.4272 -0.4683 -0.4437
  559MOL0     C75344   4.668   0.328   4.161 -0.5144 -0.3598  0.2836
  559MOL0     C75345   4.679   0.354   4.007  0.0244 -0.4225  0.1996
  559MOL0     C75346   4.643   0.500   3.956  0.3333  0.4738 -0.2996
  559MOL0     N75347   4.643   0.494   3.809  0.3474  0.0293 -0.2757
  559MOL0     C75348   4.536   0.439   3.739 -1.0079  0.2281 -0.6276
  559MOL0     C75349   4.567   0.475   3.615  0.3141  0.8536  0.0681
  559MOL0     C75350   4.493   0.448   3.479 -0.1796 -0.2590 -1.3006
  559MOL0     C75351   4.518   0.315   3.405 -0.0681  0.0808  0.7604
  559MOL0     C75352   4.664   0.296   3.342  0.1996 -1.4811  0.7054
  559MOL0     C75353   4.702   0.409   3.251  0.2190 -0.3706 -0.0817
  559MOL0     O75354   4.828   0.371   3.189 -0.0199  0.6911 -0.8942
  559MOL0     C75355   4.947   0.364   3.261  0.0323  0.2854 -0.4340
  559MOL0     C75356   4.981   0.444   3.372 -0.0232 -0.5218 -0.1451
  559MOL0     C75357   5.113   0.424   3.427  0.1203 -0.3635  0.0502
  559MOL0     C75358   5.139   0.516   3.547 -0.4114  0.6181  0.7273
  559MOL0     C75359   5.195   0.325   3.379  0.1972 -0.1786  0.2693
  559MOL0     C75360   5.337   0.289   3.433  0.0406  0.6080  1.0252
  559MOL0     O75361   5.383   0.344   3.546  0.2134  0.6051 -0.3058
  559MOL0     C75362   5.514   0.339   3.588  0.3335  0.3173  0.1984
  559MOL0     C75363   5.526   0.370   3.723 -0.1443 -0.0858  0.2219
  559MOL0     C75364   5.646   0.406   3.790 -0.5548 -0.0179  0.3003
  559MOL0     C75365   5.767   0.384   3.717 -0.0020 -0.3814 -0.3547
  559MOL0     O75366   5.897   0.395   3.764 -0.1486  0.6228  0.2345
  559MOL0     C75367   5.922   0.334   3.893  0.1092  0.6440  0.7866
  559MOL0     C75368   6.063   0.342   3.923 -0.0540  0.4581 -0.4745
  559MOL0     C75369   6.117   0.487   3.934 -0.4266  0.2888 -0.0480
  559MOL0     C75370   6.256   0.478   4.005  0.2970  0.3616  0.4338
  559MOL0     C75371   6.321   0.613   3.978 -0.6055 -0.3437  0.6432
  559MOL0     C75372   6.464   0.607   4.032  0.1011  0.0885 -0.0863
  559MOL0     C75373   6.548   0.730   4.013 -0.5336  0.5180 -0.5199
  559MOL0     C75374   6.498   0.843   4.108 -0.2069  0.3136  0.8485
  559MOL0    Cl75375   6.552   0.797   4.268 -0.3459 -0.6473  0.4868
  559MOL0     C75376   5.754   0.350   3.578  1.3419  0.3303  0.4557
  559MOL0     C75377   5.630   0.319   3.518 -0.5609 -0.7933  1.1807
  559MOL0     O75378   5.405   0.211   3.363 -0.2506 -0.4868 -1.2485
  559MOL0     C75379   5.151   0.246   3.272 -0.0562 -0.2603 -0.1634
  559MOL0     C75380   5.040   0.272   3.211  1.3138  0.4162 -0.4773
  559MOL0     N75381   4.674   0.560   3.624 -0.4937 -0.0922  0.4850
  559MOL0     N75382   4.732   0.559   3.733  0.6765  0.7949 -0.3920
  559MOL0     C75383   5.377   0.438   4.644  0.3436 -0.0160  0.1444
  559MOL0     C75384   5.493   0.466   4.712  0.1347  0.5687 -0.8754
  559MOL0     C75385   5.758   0.679   5.001  0.4385  0.7848 -0.9982
  559MOL0     C75386   5.841   0.564   5.016 -0.9101  0.3797 -0.2242
  559MOL0     C75387   5.968   0.575   5.069  0.1150 -0.5129 -0.3227
  559MOL0     C75388   6.029   0.695   5.096 -0.3155  0.0084  0.7461
  559MOL0     O75389   6.155   0.699   5.154 -0.6303 -0.1649  0.5834
  559MOL0     C75390   6.269   0.763   5.082  0.0981 -0.2541  0.1945
  559MOL0     C75391   6.312   0.879   5.170  0.9400  0.5335  0.1822
  559MOL0     C75392   6.397   0.980   5.100 -0.7652 -0.4601  0.5746
  559MOL0     C75393   6.414   1.110   5.181  0.1521 -0.6984 -0.0528
  559MOL0     C75394   6.295   1.192   5.163  0.4801 -0.5412 -0.1380
  559MOL0     C75395   6.197   1.255   5.122 -0.1667  0.2396 -0.0618
  559MOL0     C75396   5.952   0.810   5.094 -1.2209  0.1725 -0.1778
  559MOL0     C75397   5.817   0.801   5.045  0.3037  1.2712  0.2319
  559MOL0     H75398   5.336   0.595   4.988 -0.6845 -0.3446  0.5680
  559MOL0     H75399   5.134   0.554   4.852  0.6030  4.1139 -0.2485
  559MOL0     H75400   5.016   0.328   4.761 -3.9683  1.7157  2.4250
  559MOL0     H75401   4.969   0.491   4.720  0.5684  0.9412 -4.0526
  559MOL0     H75402   4.920   0.225   4.572 -2.4975  0.1124  1.4724
  559MOL0     H75403   4.812   0.349   4.629 -0.7579 -1.3226 -1.4572
  559MOL0     H75404   4.905   0.515   4.458  0.6456  0.5618 -1.2929
  559MOL0     H75405   4.987   0.376   4.388 -0.2654  0.8931 -0.7295
  559MOL0     H75406   4.775   0.245   4.370 -2.3109 -0.7366  0.8549
  559MOL0     H75407   4.681   0.373   4.435  1.4241  0.1479  1.1677
  559MOL0     H75408   4.742   0.522   4.227  0.0403 -0.6675  1.3736
  559MOL0     H75409   4.866   0.393   4.188  2.2026  1.4060  0.1723
  559MOL0     H75410   4.681   0.221   4.180  1.5015  0.1079  1.8968
  559MOL0     H75411   4.569   0.358   4.197 -0.0411  3.8504 -1.4097
  559MOL0     H75412   4.784   0.342   3.981 -0.0515  0.4062 -0.5228
  559MOL0     H75413   4.618   0.278   3.958 -1.6857 -0.7342  2.5943
  559MOL0     H75414   4.711   0.578   3.990  0.7617  1.8242 -3.8327
  559MOL0     H75415   4.546   0.517   4.004 -0.0943 -2.5005  0.1046
  559MOL0     H75416   4.455   0.383   3.782 -2.5630  1.7119 -1.4865
  559MOL0     H75417   4.385   0.446   3.497 -0.3363 -1.4487 -2.2097
  559MOL0     H75418   4.515   0.534   3.415  3.7014 -0.0944  0.0173
  559MOL0     H75419   4.445   0.320   3.324 -1.0672  3.2527  1.7055
  559MOL0     H75420   4.508   0.229   3.472 -0.8873 -1.9115 -1.7500
  559MOL0     H75421   4.666   0.204   3.283 -1.8662 -0.2901 -1.3784
  559MOL0     H75422   4.733   0.295   3.427 -0.7453 -0.0414  1.5148
  559MOL0     H75423   4.703   0.503   3.307  0.2095 -0.4890  0.1162
  559MOL0     H75424   4.619   0.410   3.179 -2.0412 -0.0916  2.3825
  559MOL0     H75425   4.914   0.523   3.406  0.2386  0.1163 -1.0904
  559MOL0     H75426   5.148   0.468   3.645  6.0277  0.4914  0.4840
  559MOL0     H75427   5.232   0.569   3.528  0.5385 -1.8537 -2.5619
  559MOL0     H75428   5.063   0.594   3.552 -0.9571  0.0503  1.4949
  559MOL0     H75429   5.428   0.386   3.768  0.0253  0.7004  0.3325
  559MOL0     H75430   5.644   0.442   3.892  0.2637  0.9286  0.0035
  559MOL0     H75431   5.870   0.393   3.969 -0.2533  3.2768 -1.3408
  559MOL0     H75432   5.888   0.230   3.889  1.1137  0.2828  1.2650
  559MOL0     H75433   6.079   0.286   4.015  1.2734  3.9193  1.6198
  559MOL0     H75434   6.119   0.297   3.841 -1.0146 -0.1765 -0.7960
  559MOL0     H75435   6.045   0.546   3.991  0.0130 -1.7550  2.8258
  559MOL0     H75436   6.127   0.529   3.834  1.4680  0.9907  0.3946
  559MOL0     H75437   6.241   0.444   4.108  0.7197 -2.4493 -0.3381
  559MOL0     H75438   6.318   0.398   3.962  2.1795  1.2200  1.4044
  559MOL0     H75439   6.264   0.691   4.031 -0.2024  0.5716 -0.2269
  559MOL0     H75440   6.314   0.643   3.873 -0.2477  0.0813  0.7380
  559MOL0     H75441   6.452   0.585   4.138  1.3217  3.0762  0.7740
  559MOL0     H75442   6.524   0.525   3.991  2.1285  0.3227  2.1925
  559MOL0     H75443   6.547   0.759   3.907  1.5336  1.3478 -0.3596
  559MOL0     H75444   6.648   0.700   4.046 -1.5755 -1.8424  0.6917
  559MOL0     H75445   6.389   0.852   4.106 -0.4741 -2.1446 -0.5679
  559MOL0     H75446   6.551   0.936   4.084  1.9252 -0.3023  2.7917
  559MOL0     H75447   5.843   0.356   3.516  1.4488 -1.6280  0.3532
  559MOL0     H75448   5.632   0.290   3.413  0.9864 -0.8804  1.2100
  559MOL0     H75449   5.210   0.161   3.240  2.7234  2.3739 -2.7546
  559MOL0     H75450   4.998   0.207   3.136  2.4030 -2.4229  1.2093
  559MOL0     H75451   5.401   0.387   4.551  0.8771  1.2062 -0.4117
  559MOL0     H75452   5.592   0.441   4.678  0.6778 -0.5962  1.3607
  559MOL0     H75453   5.800   0.464   5.003 -0.9814  0.2762  0.7087
  559MOL0     H75454   6.031   0.489   5.089  1.3161 -0.3617 -3.0055
  559MOL0     H75455   6.355   0.697   5.069 -1.2444 -1.8880 -0.8549
  559MOL0     H75456   6.236   0.789   4.981  2.7630 -2.3103 -1.3298
  559MOL0     H75457   6.368   0.849   5.259  0.4899 -1.2242 -0.0964
  559MOL0     H75458   6.216   0.919   5.205 -3.0529 -5.7255 -1.8742
  559MOL0     H75459   6.351   1.019   5.009  0.4042  0.5991  0.4140
  559MOL0     H75460   6.498   0.949   5.073 -0.2762  2.1596 -0.8944
  559MOL0     H75461   6.491   1.178   5.143  0.5977 -0.7349  0.7860
  559MOL0     H75462   6.425   1.088   5.287  3.0463  3.7691  0.8386
  559MOL0     H75463   6.124   1.329   5.094  0.8911  1.5812  0.5687
  559MOL0     H75464   5.997   0.902   5.129 -0.5832  0.0044 -0.5208
  559MOL0     H75465   5.761   0.894   5.037 -1.5375  0.0411 -3.4269
  560MOL0     O75466  11.398   9.435   8.008 -0.0829  0.1992  0.1271
  560MOL0     C75467  11.401   9.557   7.978 -0.3429  0.7392 -0.2254
  560MOL0     O75468  11.439   9.653   8.065  0.0485 -0.7555 -0.5735
  560MOL0     C75469  11.444   9.613   8.203 -0.1929  0.4036 -0.3325
  560MOL0     C75470  11.362   9.675   8.301  0.1442  0.7463 -0.0303
  560MOL0     C75471  11.382   9.646   8.437  0.7985 -0.4381 -0.1038
  560MOL0     C75472  11.486   9.557   8.472  0.8864 -0.2707  0.2062
  560MOL0     O75473  11.507   9.545   8.601  0.0974 -0.0877  0.0552
  560MOL0     C75474  11.620   9.463   8.655  1.3155  0.2639 -0.0650
  560MOL0     C75475  11.606   9.470   8.813 -0.6912 -0.4071  0.9281
  560MOL0     C75476  11.705   9.367   8.869 -0.3742  0.0807 -0.0820
  560MOL0     C75477  11.754   9.403   9.015  0.3329  0.6246  0.5531
  560MOL0     C75478  11.849   9.283   9.047 -0.3563  0.7873  0.1991
  560MOL0     C75479  11.995   9.285   8.980  1.3170  1.3279  0.0462
  560MOL0     C75480  12.046   9.138   8.969 -0.3908  0.6309  0.0171
  560MOL0     C75481  12.069   9.051   9.100  0.2838  0.8175  0.9302
  560MOL0     N75482  12.193   9.096   9.165  0.1771  0.9302 -0.1012
  560MOL0     C75483  12.315   9.039   9.144  0.1812 -0.0273  0.6679
  560MOL0     C75484  12.389   9.098   9.232 -1.0589 -0.0079 -0.2274
  560MOL0     C75485  12.533   9.083   9.277 -0.4992  0.6677 -0.2034
  560MOL0     C75486  12.592   8.943   9.284 -0.1445 -0.0976 -0.5075
  560MOL0     C75487  12.575   8.843   9.173 -0.3207 -0.3400 -0.6741
  560MOL0     C75488  12.621   8.697   9.199  0.3871  0.3447  0.3907
  560MOL0     O75489  12.530   8.637   9.304  1.1645 -0.3654  0.3309
  560MOL0     C75490  12.556   8.506   9.345  0.7041  0.1809  0.1717
  560MOL0     C75491  12.639   8.405   9.292 -0.7171  0.3251  0.6379
  560MOL0     C75492  12.659   8.277   9.347  0.4955 -0.7724 -0.2734
  560MOL0     C75493  12.751   8.182   9.262  0.3227 -0.2243  0.2596
  560MOL0     C75494  12.583   8.243   9.467  0.3914  0.1902  1.1557
  560MOL0     C75495  12.576   8.108   9.527  0.6343  0.5693  0.0430
  560MOL0     O75496  12.537   8.107   9.655  0.7449 -0.1101 -0.6361
  560MOL0     C75497  12.531   7.987   9.721 -0.2923  0.1193  0.3421
  560MOL0     C75498  12.423   7.940   9.791 -0.2594  0.3553  0.5393
  560MOL0     C75499  12.422   7.810   9.852  0.0394 -0.2304 -0.7835
  560MOL0     C75500  12.534   7.724   9.851 -0.5904  0.6937  0.5945
  560MOL0     O75501  12.536   7.602   9.904  0.3884 -0.5415  0.6181
  560MOL0     C75502  12.472   7.573  10.031  0.3551 -0.5249  0.0421
  560MOL0     C75503  12.532   7.467  10.119  0.3751 -0.2681  0.0057
  560MOL0     C75504  12.532   7.327  10.055 -0.1347 -0.9395  0.1709
  560MOL0     C75505  12.571   7.211  10.147  0.2864  0.7846 -0.5617
  560MOL0     C75506  12.718   7.230  10.193 -0.0887 -0.1146  0.3025
  560MOL0     C75507  12.779   7.105  10.266  0.2640 -0.1181  0.0544
  560MOL0     C75508  12.903   7.122  10.350  0.3925  0.0600  0.2169
  560MOL0     C75509  12.911   7.014  10.461  0.0716  0.7877  0.0588
  560MOL0    Cl75510  13.027   7.057  10.585 -0.3344  0.1431 -0.0784
  560MOL0     C75511  12.648   7.778   9.793  0.3272  0.0511 -0.2853
  560MOL0     C75512  12.648   7.905   9.729  1.0159 -0.9262 -0.6329
  560MOL0     O75513  12.605   8.005   9.463 -0.1696  0.3404 -0.6348
  560MOL0     C75514  12.495   8.339   9.511 -0.1372 -0.4169 -0.9364
  560MOL0     C75515  12.494   8.468   9.460 -0.0310 -0.1512 -0.0844
  560MOL0     N75516  12.322   9.202   9.300 -0.4692  0.6912  0.1918
  560MOL0     N75517  12.203   9.200   9.254 -0.3425  0.3862 -0.2010
  560MOL0     C75518  11.572   9.505   8.371 -0.1460 -0.1964 -0.0648
  560MOL0     C75519  11.559   9.540   8.240 -0.4216 -0.5285 -0.6107
  560MOL0     C75520  11.345   9.604   7.850  0.7212 -0.4589  0.8824
  560MOL0     C75521  11.269   9.513   7.764 -0.4301  0.5719 -0.0751
  560MOL0     C75522  11.205   9.560   7.648  0.6710  0.6469 -0.6922
  560MOL0     C75523  11.220   9.697   7.618 -0.8439  0.0539 -0.1073
  560MOL0     O75524  11.169   9.716   7.497 -0.0066  0.7923  0.0105
  560MOL0     C75525  11.207   9.839   7.439 -0.5019 -0.9995  0.6381
  560MOL0     C75526  11.142   9.857   7.303  0.4516 -0.1963  0.7214
  560MOL0     C75527  10.987   9.902   7.304  0.0181  0.8377 -0.4923
  560MOL0     C75528  10.901   9.773   7.305 -1.0398  0.2974  0.2238
  560MOL0     C75529  10.757   9.792   7.299 -0.2004 -0.6471 -0.0489
  560MOL0     C75530  10.637   9.804   7.289 -0.4310 -0.7492 -0.6154
  560MOL0     C75531  11.280   9.787   7.705 -0.7996  0.8068 -0.1480
  560MOL0     C75532  11.345   9.744   7.812  0.1994  0.7391 -0.3271
  560MOL0     H75533  11.290   9.753   8.281 -0.3903  0.4578  0.7394
  560MOL0     H75534  11.325   9.704   8.510  2.8469  0.4277  0.8756
  560MOL0     H75535  11.599   9.362   8.618  0.4737  0.2620  0.3793
  560MOL0     H75536  11.719   9.496   8.622  1.4050 -0.9028 -1.0089
  560MOL0     H75537  11.636   9.572   8.836  0.2786 -0.5483  0.3826
  560MOL0     H75538  11.503   9.455   8.847 -0.1064 -1.9503  2.1342
  560MOL0     H75539  11.660   9.267   8.867 -1.6568  0.4419  3.2883
  560MOL0     H75540  11.794   9.365   8.805  0.4358  1.9197  0.9309
  560MOL0     H75541  11.793   9.505   9.017 -0.0512  0.9378 -2.9391
  560MOL0     H75542  11.660   9.398   9.072 -0.0548 -0.5724 -0.1677
  560MOL0     H75543  11.867   9.275   9.155  1.9357 -1.3485 -0.2363
  560MOL0     H75544  11.806   9.190   9.008  5.2669 -1.7608 -1.0169
  560MOL0     H75545  11.988   9.330   8.880 -1.4268  1.0744  0.0518
  560MOL0     H75546  12.074   9.342   9.030  3.5518 -1.5543  0.0596
  560MOL0     H75547  11.980   9.075   8.909  2.9068 -2.3235 -0.8815
  560MOL0     H75548  12.134   9.152   8.906  0.2346  0.1444  0.7565
  560MOL0     H75549  12.067   8.943   9.083  0.5042  1.1294 -1.3475
  560MOL0     H75550  11.992   9.079   9.172 -0.0550  3.9177 -0.4900
  560MOL0     H75551  12.338   8.956   9.079  0.1459 -1.1751  2.0621
  560MOL0     H75552  12.596   9.137   9.206  1.5807 -1.2733  0.0289
  560MOL0     H75553  12.547   9.123   9.378 -0.5500 -0.6253  0.3359
  560MOL0     H75554  12.563   8.889   9.375  0.8920  2.0321  1.1825
  560MOL0     H75555  12.700   8.949   9.300 -0.3904 -0.8999  1.8554
  560MOL0     H75556  12.605   8.883   9.076  1.0975  2.9264  0.9531
  560MOL0     H75557  12.467   8.831   9.170 -0.6318  0.3096  2.9918
  560MOL0     H75558  12.726   8.689   9.231  0.9475  0.5608 -1.2823
  560MOL0     H75559  12.616   8.641   9.105 -1.0933 -0.2948  0.8229
  560MOL0     H75560  12.682   8.430   9.196 -1.1958  1.6676  0.7530
  560MOL0     H75561  12.790   8.239   9.177 -1.6484  2.2557  0.8983
  560MOL0     H75562  12.837   8.146   9.318  0.6870 -1.1868 -0.8853
  560MOL0     H75563  12.698   8.093   9.227 -0.6059 -0.1046  1.3105
  560MOL0     H75564  12.326   7.989   9.789 -1.2626 -1.5123  0.3136
  560MOL0     H75565  12.332   7.792   9.909  0.4881  3.0591  1.2645
  560MOL0     H75566  12.451   7.661  10.093 -2.1110 -2.0619  1.5475
  560MOL0     H75567  12.370   7.544  10.003  0.9950 -1.3053 -1.5784
  560MOL0     H75568  12.626   7.500  10.162  0.9576 -2.5446  0.6469
  560MOL0     H75569  12.463   7.450  10.203 -0.3800  2.3074 -0.0256
  560MOL0     H75570  12.590   7.330   9.962  1.0067 -2.1744  0.8293
  560MOL0     H75571  12.428   7.302  10.031  0.0746 -0.5878 -1.2257
  560MOL0     H75572  12.514   7.214  10.240  0.6449  3.2690 -0.3562
  560MOL0     H75573  12.546   7.120  10.091 -3.2489  1.5377 -0.4161
  560MOL0     H75574  12.714   7.310  10.269 -5.1300 -0.4894  0.7283
  560MOL0     H75575  12.776   7.249  10.102 -3.7195 -0.8620 -2.4114
  560MOL0     H75576  12.688   7.079  10.322 -0.8432  0.4122 -1.4244
  560MOL0     H75577  12.801   7.035  10.185  1.5709 -1.7459  1.7267
  560MOL0     H75578  12.894   7.222  10.393  0.0354 -1.3330  3.6986
  560MOL0     H75579  12.990   7.118  10.284  0.2580  2.9029 -0.2565
  560MOL0     H75580  12.930   6.917  10.415 -2.6969  0.1718 -0.0090
  560MOL0     H75581  12.819   6.996  10.518  1.9714 -1.6699  2.6254
  560MOL0     H75582  12.739   7.719   9.795  0.5361  0.3817  0.2254
  560MOL0     H75583  12.741   7.945   9.690  1.7153 -0.2968  1.5570
  560MOL0     H75584  12.436   8.311   9.598  3.4464 -1.4905  1.3361
  560MOL0     H75585  12.437   8.543   9.513  0.2858  1.9126 -2.4774
  560MOL0     H75586  11.660   9.454   8.410 -0.4867  0.8380  2.2062
  560MOL0     H75587  11.633   9.515   8.164  2.4120  3.1953  0.6330
  560MOL0     H75588  11.260   9.405   7.774 -0.1849  0.6481  1.0156
  560MOL0     H75589  11.146   9.497   7.582 -0.1657  0.8443 -0.1603
  560MOL0     H75590  11.167   9.916   7.507 -1.2449 -1.1071  0.3343
  560MOL0     H75591  11.314   9.858   7.432 -0.3046 -2.6040 -1.4650
  560MOL0     H75592  11.149   9.758   7.257  1.6625  0.5811 -0.8487
  560MOL0     H75593  11.196   9.916   7.228 -0.9371  1.3382  0.8654
  560MOL0     H75594  10.965   9.930   7.200 -1.3860 -2.1857 -1.1507
  560MOL0     H75595  10.968   9.981   7.377  1.7665 -0.4550  1.4772
  560MOL0     H75596  10.907   9.718   7.399  1.1389 -0.9930 -0.5735
  560MOL0     H75597  10.937   9.702   7.229  0.6405  1.6205 -0.2989
  560MOL0     H75598  10.532   9.814   7.274 -0.9986 -2.4943  1.5972
  560MOL0     H75599  11.284   9.894   7.690 -0.0022  0.9378  0.9282
  560MOL0     H75600  11.391   9.822   7.871  2.1776  0.3114 -1.1973
  561MOL0     O75601   1.153   9.406   0.596 -0.3243 -0.5228  0.1516
  561MOL0     C75602   1.079   9.310   0.611  0.3766 -0.6587 -0.6582
  561MOL0     O75603   0.981   9.303   0.698 -0.3089 -0.2530  0.8552
  561MOL0     C75604   0.949   9.405   0.790  0.6809 -0.2588 -1.3481
  561MOL0     C75605   0.816   9.454   0.789 -0.5168 -0.4603 -0.0259
  561MOL0     C75606   0.761   9.541   0.886 -0.3248 -0.6115  0.3028
  561MOL0     C75607   0.844   9.573   0.990  0.1346 -0.3529  0.0291
  561MOL0     O75608   0.777   9.649   1.086  0.0971 -0.1909 -0.0401
  561MOL0     C75609   0.857   9.689   1.200 -0.5149  0.2999  0.3165
  561MOL0     C75610   0.762   9.703   1.318  0.4851 -0.1015  0.5237
  561MOL0     C75611   0.790   9.603   1.427  0.0323  0.8131  0.0334
  561MOL0     C75612   0.700   9.609   1.553  0.5507 -0.2773 -0.4776
  561MOL0     C75613   0.690   9.466   1.615 -0.2298 -0.1778  0.0833
  561MOL0     C75614   0.598   9.484   1.737 -0.3062  0.3733 -0.2281
  561MOL0     C75615   0.522   9.358   1.786  0.4192  0.2757 -0.2014
  561MOL0     C75616   0.634   9.273   1.854  0.3953  0.1081 -0.3525
  561MOL0     N75617   0.636   9.318   1.995 -0.3411 -0.6961 -0.1961
  561MOL0     C75618   0.564   9.267   2.094  1.0580 -0.3893 -0.9276
  561MOL0     C75619   0.610   9.330   2.210  0.7089 -0.4172  0.2048
  561MOL0     C75620   0.557   9.314   2.353  0.1638  0.3500  0.7501
  561MOL0     C75621   0.573   9.163   2.385  0.0281 -0.1762 -0.0332
  561MOL0     C75622   0.579   9.142   2.535 -0.5211 -0.9689 -0.1190
  561MOL0     C75623   0.581   8.996   2.569 -0.4503  0.8518 -0.0416
  561MOL0     O75624   0.540   8.980   2.703 -0.2479 -0.3897 -0.7267
  561MOL0     C75625   0.518   8.853   2.758 -0.2842 -0.0051  0.4182
  561MOL0     C75626   0.463   8.746   2.695 -0.1607  0.0598  0.4317
  561MOL0     C75627   0.447   8.621   2.756  0.1765 -0.3204  0.3705
  561MOL0     C75628   0.387   8.516   2.673  0.1471 -0.4701 -0.5524
  561MOL0     C75629   0.496   8.596   2.888  0.4326  0.0536 -0.5819
  561MOL0     C75630   0.492   8.461   2.974  0.3946 -0.7090  0.5880
  561MOL0     O75631   0.556   8.477   3.095 -0.1496  0.0644  0.6559
  561MOL0     C75632   0.536   8.364   3.172 -0.8707  0.2601  0.3652
  561MOL0     C75633   0.640   8.264   3.186  0.0104  0.0073  0.0529
  561MOL0     C75634   0.609   8.150   3.259  0.0490 -0.4625  0.6831
  561MOL0     C75635   0.484   8.135   3.323  0.2466  0.0541 -0.7119
  561MOL0     O75636   0.455   8.024   3.399  0.1340 -0.1733 -0.4747
  561MOL0     C75637   0.340   7.949   3.343 -0.3502 -0.4808  0.3170
  561MOL0     C75638   0.387   7.861   3.232 -0.8438 -0.3648  0.0617
  561MOL0     C75639   0.479   7.762   3.292  0.1474 -0.2251  0.6834
  561MOL0     C75640   0.488   7.620   3.231  0.5507  0.2005 -0.7144
  561MOL0     C75641   0.588   7.528   3.294 -0.6481 -0.1317  0.7372
  561MOL0     C75642   0.614   7.392   3.236  0.0552 -0.2089  0.2737
  561MOL0     C75643   0.732   7.317   3.302  0.6374  0.3352  0.0178
  561MOL0     C75644   0.769   7.186   3.228 -0.4942 -1.4100  0.3462
  561MOL0    Cl75645   0.628   7.085   3.193  0.1095  0.4027  1.0238
  561MOL0     C75646   0.398   8.241   3.314  0.5061  0.3845  0.2555
  561MOL0     C75647   0.431   8.357   3.248  1.7837  0.5909  0.1332
  561MOL0     O75648   0.464   8.357   2.927  0.9616  0.0216  0.0155
  561MOL0     C75649   0.546   8.709   2.952  0.1518 -0.6754 -0.4057
  561MOL0     C75650   0.559   8.834   2.888 -0.1712  0.0330 -0.4460
  561MOL0     N75651   0.700   9.428   2.174  0.6255 -0.5077  0.1984
  561MOL0     N75652   0.724   9.406   2.043 -0.6589  0.0817 -0.4643
  561MOL0     C75653   0.978   9.527   0.997 -0.5343 -0.6526  0.8569
  561MOL0     C75654   1.026   9.438   0.901  0.3205  0.8046 -0.6844
  561MOL0     C75655   1.093   9.199   0.519 -0.5896  0.2312 -0.1539
  561MOL0     C75656   1.036   9.072   0.556 -0.4967 -0.5560  1.0033
  561MOL0     C75657   1.035   8.965   0.455  0.5479  0.1731  0.1318
  561MOL0     C75658   1.108   8.976   0.336  0.6880  0.2338 -0.3701
  561MOL0     O75659   1.109   8.885   0.235  0.2789 -0.0758 -0.2798
  561MOL0     C75660   1.039   8.761   0.250 -1.0650 -0.3329 -0.1946
  561MOL0     C75661   1.090   8.657   0.151  0.1560  0.3176 -0.9975
  561MOL0     C75662   1.077   8.691   0.003 -0.9926  0.8076  0.7575
  561MOL0     C75663   0.941   8.705  -0.065  0.3747  0.2787 -0.1223
  561MOL0     C75664   0.963   8.664  -0.207  0.1713 -0.0552 -0.2738
  561MOL0     C75665   0.966   8.610  -0.322 -0.2340  0.1853  0.0260
  561MOL0     C75666   1.157   9.105   0.305  0.6272  0.6000 -0.6745
  561MOL0     C75667   1.157   9.209   0.398 -0.3484 -0.0026 -0.2787
  561MOL0     H75668   0.760   9.410   0.707  1.3651 -0.9600 -1.0982
  561MOL0     H75669   0.661   9.583   0.887 -0.2112 -0.2958 -0.4509
  561MOL0     H75670   0.932   9.616   1.231 -2.4744 -2.9387 -1.8693
  561MOL0     H75671   0.913   9.779   1.173  0.0933 -0.6658 -1.8791
  561MOL0     H75672   0.764   9.802   1.365 -2.4278  0.8041 -0.9742
  561MOL0     H75673   0.661   9.710   1.276  1.4811  1.8830 -1.8242
  561MOL0     H75674   0.775   9.502   1.388  1.5822 -0.0749  1.5711
  561MOL0     H75675   0.889   9.626   1.467 -0.1169  3.2001 -0.7535
  561MOL0     H75676   0.736   9.683   1.626  1.7285 -0.4222 -0.8911
  561MOL0     H75677   0.602   9.633   1.511  1.8471  1.0895 -2.9452
  561MOL0     H75678   0.655   9.393   1.541 -0.5301  0.2643 -0.2118
  561MOL0     H75679   0.790   9.440   1.652 -0.9220 -1.9548  0.8767
  561MOL0     H75680   0.644   9.543   1.817  2.6807  0.8790 -2.1407
  561MOL0     H75681   0.521   9.556   1.711 -0.6434  0.4807  0.9872
  561MOL0     H75682   0.445   9.380   1.860  4.2053  3.7076  3.2669
  561MOL0     H75683   0.479   9.305   1.701  1.2208  0.7031 -0.8901
  561MOL0     H75684   0.733   9.280   1.806 -0.0593 -0.6605 -1.4526
  561MOL0     H75685   0.610   9.167   1.865 -3.4972  0.8525 -0.4018
  561MOL0     H75686   0.474   9.207   2.089 -0.5654  1.7447  0.6236
  561MOL0     H75687   0.606   9.374   2.430 -2.9292  0.9398  2.4663
  561MOL0     H75688   0.452   9.346   2.354  0.4426  1.4293 -0.7041
  561MOL0     H75689   0.671   9.131   2.347 -0.9826 -0.9878 -2.0772
  561MOL0     H75690   0.496   9.107   2.331  1.4785  0.3191 -2.8193
  561MOL0     H75691   0.493   9.188   2.583  0.7542  0.7709  0.6133
  561MOL0     H75692   0.667   9.191   2.579 -1.3735  1.3991 -0.9257
  561MOL0     H75693   0.677   8.955   2.537 -0.4549  1.9617 -1.5686
  561MOL0     H75694   0.507   8.942   2.509  0.3072 -0.1625 -0.0916
  561MOL0     H75695   0.420   8.765   2.597 -3.5856 -1.7602  1.4510
  561MOL0     H75696   0.465   8.458   2.623  3.2514  1.4037  1.7769
  561MOL0     H75697   0.340   8.441   2.737 -0.3603  0.6614  0.4275
  561MOL0     H75698   0.321   8.552   2.594  1.3458  1.0791 -0.8992
  561MOL0     H75699   0.739   8.281   3.144 -0.4886  2.3798 -0.2974
  561MOL0     H75700   0.669   8.061   3.277 -0.8122 -1.9628 -3.0625
  561MOL0     H75701   0.290   7.883   3.414  0.8200 -1.8445 -0.0637
  561MOL0     H75702   0.270   8.018   3.296 -1.2680 -1.2208  0.5630
  561MOL0     H75703   0.292   7.820   3.199 -1.4748  0.7989  0.3874
  561MOL0     H75704   0.425   7.917   3.146  0.8919 -2.9087 -0.9407
  561MOL0     H75705   0.450   7.753   3.397 -1.9870 -1.3818  0.0486
  561MOL0     H75706   0.577   7.803   3.267 -0.0009  0.1877  0.7692
  561MOL0     H75707   0.395   7.563   3.237 -0.8198  2.1879 -1.9615
  561MOL0     H75708   0.509   7.620   3.124 -0.4575 -0.9429 -0.9352
  561MOL0     H75709   0.547   7.516   3.395  0.9318  0.2710  1.4549
  561MOL0     H75710   0.684   7.579   3.305  0.2467 -0.8073 -2.7609
  561MOL0     H75711   0.518   7.339   3.234 -0.5907  0.8080 -3.4713
  561MOL0     H75712   0.639   7.403   3.130  0.1310 -0.3744  0.2740
  561MOL0     H75713   0.712   7.286   3.405 -1.8354 -1.3366 -0.8705
  561MOL0     H75714   0.816   7.386   3.308 -0.0968  1.2025  5.1168
  561MOL0     H75715   0.853   7.145   3.285  1.2598  0.8634 -0.4641
  561MOL0     H75716   0.819   7.213   3.135 -0.9563  0.4303  0.5962
  561MOL0     H75717   0.309   8.229   3.374  2.2230  0.1678  2.9384
  561MOL0     H75718   0.360   8.438   3.236  1.9059  0.5635 -0.8106
  561MOL0     H75719   0.584   8.710   3.054  0.5212 -3.2231 -0.4394
  561MOL0     H75720   0.589   8.921   2.946  0.6570 -0.8194  0.4526
  561MOL0     H75721   1.046   9.562   1.074 -0.1198 -2.0388  1.1580
  561MOL0     H75722   1.121   9.388   0.915  0.3604  1.3204  1.1015
  561MOL0     H75723   0.999   9.043   0.654 -2.5287 -3.4189 -0.4485
  561MOL0     H75724   1.011   8.869   0.500 -0.2644  0.4973  0.4168
  561MOL0     H75725   1.063   8.715   0.347  0.3717  0.5891 -0.0768
  561MOL0     H75726   0.933   8.786   0.244 -0.4943  2.2772 -0.8066
  561MOL0     H75727   1.038   8.564   0.175  1.9582 -0.8425 -1.4042
  561MOL0     H75728   1.195   8.638   0.173 -0.3954 -3.8146 -1.1782
  561MOL0     H75729   1.127   8.604  -0.042  1.6621  2.7330 -0.2482
  561MOL0     H75730   1.145   8.773  -0.020  0.0202  0.0828  1.0838
  561MOL0     H75731   0.913   8.810  -0.077  1.8980  0.8197  0.7964
  561MOL0     H75732   0.864   8.643  -0.019  0.0243 -0.1801 -1.2933
  561MOL0     H75733   0.979   8.561  -0.416 -1.6792  0.5589 -0.4012
  561MOL0     H75734   1.198   9.112   0.205 -1.2818  1.0223 -1.4788
  561MOL0     H75735   1.204   9.298   0.358  2.2737 -1.1567  0.0318
  562MOL0     O75736   9.152  10.672   6.970  0.2536  0.5434  0.0525
  562MOL0     C75737   9.126  10.777   7.026 -0.2032 -0.3371  0.0515
  562MOL0     O75738   9.178  10.907   6.993  0.1923  0.7013 -0.1317
  562MOL0     C75739   9.272  10.908   6.892  0.0945  1.2079  0.1491
  562MOL0     C75740   9.217  10.897   6.757 -0.5181  0.4988 -0.6796
  562MOL0     C75741   9.302  10.917   6.645 -0.2567 -0.5420 -0.6343
  562MOL0     C75742   9.433  10.949   6.664  1.2146  0.2802 -0.7010
  562MOL0     O75743   9.500  10.963   6.544 -0.1791 -0.9806 -0.1488
  562MOL0     C75744   9.629  10.893   6.534  0.8668  0.0932  0.5910
  562MOL0     C75745   9.650  10.898   6.380 -0.9076  0.8402  0.1414
  562MOL0     C75746   9.745  11.011   6.321  0.4116  0.5595  0.3653
  562MOL0     C75747   9.662  11.146   6.316 -0.3756 -0.0910  0.8394
  562MOL0     C75748   9.767  11.263   6.315  0.4541 -0.1030  0.5764
  562MOL0     C75749   9.692  11.409   6.317 -0.2987 -0.4220  0.8343
  562MOL0     C75750   9.577  11.424   6.216  0.4753  0.4962 -0.9892
  562MOL0     C75751   9.482  11.534   6.281 -1.2484  0.0824  1.0613
  562MOL0     N75752   9.374  11.551   6.189  0.2994 -0.3523 -0.0798
  562MOL0     C75753   9.386  11.582   6.053  0.6502 -1.2847  0.1496
  562MOL0     C75754   9.258  11.608   6.001 -0.3825  0.6291 -0.3208
  562MOL0     C75755   9.215  11.660   5.872  0.1270 -1.0035  0.1313
  562MOL0     C75756   9.265  11.574   5.752 -0.2936 -0.1270 -0.9936
  562MOL0     C75757   9.213  11.632   5.626  0.1555 -0.3790 -0.3602
  562MOL0     C75758   9.246  11.553   5.499  0.1432  0.6415 -0.2520
  562MOL0     O75759   9.394  11.540   5.498  0.1788  0.5259  0.1419
  562MOL0     C75760   9.484  11.631   5.463  0.9168  0.0897 -0.2674
  562MOL0     C75761   9.604  11.628   5.516  0.5741 -0.3882  0.3351
  562MOL0     C75762   9.697  11.728   5.488  0.2051 -0.4853  0.1328
  562MOL0     C75763   9.842  11.680   5.524  0.1408  0.1855  0.4997
  562MOL0     C75764   9.654  11.856   5.441  1.1967  0.6714 -0.3728
  562MOL0     C75765   9.743  11.975   5.449  0.7140 -0.0486 -0.2428
  562MOL0     O75766   9.717  12.071   5.365 -0.2472 -0.6619  0.1272
  562MOL0     C75767   9.787  12.187   5.373 -0.2078 -0.2620 -0.3983
  562MOL0     C75768   9.922  12.194   5.356 -0.0494  0.2895  0.4973
  562MOL0     C75769   9.991  12.311   5.386  1.3986  0.3509  0.1221
  562MOL0     C75770   9.925  12.424   5.425 -0.1287 -0.2275  0.6001
  562MOL0     O75771  10.009  12.530   5.447 -0.6150 -0.4729 -0.7273
  562MOL0     C75772   9.943  12.647   5.489 -0.1589 -0.5931 -0.5314
  562MOL0     C75773  10.039  12.762   5.461  0.3193 -0.9441  0.1345
  562MOL0     C75774   9.966  12.901   5.483 -0.5942  0.4017 -0.9508
  562MOL0     C75775  10.057  13.024   5.446  0.6012 -0.2819  0.2254
  562MOL0     C75776  10.093  13.047   5.295  1.1624 -0.2832  0.1122
  562MOL0     C75777  10.055  13.187   5.236 -0.3778  0.5288 -0.4839
  562MOL0     C75778  10.100  13.182   5.089 -1.0330 -0.0469  0.0783
  562MOL0     C75779  10.246  13.162   5.070 -0.2974  0.1234  0.4750
  562MOL0    Cl75780  10.308  13.204   4.910 -0.4233  0.1231 -0.0723
  562MOL0     C75781   9.783  12.425   5.431 -0.2686 -0.0459  0.3193
  562MOL0     C75782   9.723  12.308   5.408  0.3640  0.2488  0.8458
  562MOL0     O75783   9.830  11.984   5.537  0.4569 -0.2462  0.2941
  562MOL0     C75784   9.520  11.862   5.397  0.2146 -0.2357 -0.3029
  562MOL0     C75785   9.439  11.747   5.400 -0.4301  0.1530 -0.6942
  562MOL0     N75786   9.176  11.599   6.110 -0.6079  0.0253  0.0356
  562MOL0     N75787   9.242  11.557   6.217  0.4420 -0.5198 -0.7509
  562MOL0     C75788   9.498  10.954   6.791  0.6112 -0.2560  0.2287
  562MOL0     C75789   9.412  10.938   6.904  0.0627  0.4907 -0.1636
  562MOL0     C75790   9.073  10.783   7.163 -0.2234 -1.2622  0.4853
  562MOL0     C75791   9.094  10.668   7.244  0.1671 -0.1123 -0.4816
  562MOL0     C75792   9.057  10.677   7.377  0.2792  0.3816 -0.4054
  562MOL0     C75793   9.032  10.798   7.441  0.4083 -0.6957  0.0171
  562MOL0     O75794   9.012  10.795   7.577 -1.8024 -0.1503 -0.0495
  562MOL0     C75795   9.069  10.906   7.647 -0.7221 -0.8337 -0.0852
  562MOL0     C75796   8.948  10.995   7.696 -0.4541  0.7783 -0.1905
  562MOL0     C75797   8.989  11.128   7.779  0.4177  0.2645 -0.1480
  562MOL0     C75798   9.018  11.254   7.702 -0.9054 -0.1308 -1.0232
  562MOL0     C75799   9.114  11.247   7.596 -0.4048 -0.6189 -0.1309
  562MOL0     C75800   9.199  11.239   7.511  0.6807 -0.6130  0.1255
  562MOL0     C75801   9.024  10.912   7.364 -0.5030  0.2547  0.0666
  562MOL0     C75802   9.036  10.902   7.231 -0.2938 -0.9212  0.2653
  562MOL0     H75803   9.111  10.882   6.734 -0.7317 -1.5369  1.3093
  562MOL0     H75804   9.257  10.917   6.547  1.3729  1.4400 -1.4653
  562MOL0     H75805   9.702  10.954   6.588  1.0516  0.1548  0.2731
  562MOL0     H75806   9.625  10.789   6.569  0.6192 -1.5978 -3.8216
  562MOL0     H75807   9.693  10.805   6.341  1.6114  2.1998 -0.5900
  562MOL0     H75808   9.549  10.882   6.340  0.1281 -1.2958 -1.9100
  562MOL0     H75809   9.824  11.020   6.396 -2.0588  2.5940  2.9077
  562MOL0     H75810   9.792  10.980   6.227  1.0663 -0.1916  0.9206
  562MOL0     H75811   9.591  11.147   6.233  2.9660 -0.3801 -2.2695
  562MOL0     H75812   9.601  11.160   6.406  0.1862  4.7650  0.7241
  562MOL0     H75813   9.832  11.232   6.397 -0.5125  0.1687  1.4657
  562MOL0     H75814   9.825  11.266   6.222  0.0530 -0.1982  0.3159
  562MOL0     H75815   9.665  11.433   6.420  1.3718  0.6647  1.0696
  562MOL0     H75816   9.763  11.483   6.278 -0.3811  0.1426  1.7262
  562MOL0     H75817   9.623  11.456   6.122  2.6746  1.5721  0.3722
  562MOL0     H75818   9.512  11.337   6.207 -2.2781  2.3723 -0.5214
  562MOL0     H75819   9.528  11.633   6.293 -3.5348  1.1079  2.0016
  562MOL0     H75820   9.448  11.519   6.384  0.8458  2.0162  2.1200
  562MOL0     H75821   9.479  11.604   6.001  0.0844  1.2605  0.0449
  562MOL0     H75822   9.107  11.656   5.889  0.1963  3.0177  3.2844
  562MOL0     H75823   9.251  11.764   5.876  2.7604 -1.8682  1.5645
  562MOL0     H75824   9.228  11.472   5.767  1.5276 -1.2992 -3.5792
  562MOL0     H75825   9.374  11.576   5.743 -0.2660  0.1670 -0.5903
  562MOL0     H75826   9.266  11.727   5.624 -1.7874  0.8577  2.0175
  562MOL0     H75827   9.105  11.651   5.632  0.4345  0.8852  3.4826
  562MOL0     H75828   9.200  11.595   5.410 -2.5665 -4.0910 -1.4662
  562MOL0     H75829   9.200  11.453   5.503  0.3201  0.3925 -2.9292
  562MOL0     H75830   9.639  11.539   5.567  0.5965 -1.6613 -1.7801
  562MOL0     H75831   9.853  11.640   5.625  0.5016  0.4478  0.5653
  562MOL0     H75832   9.879  11.607   5.451 -0.1914 -0.0531  0.5677
  562MOL0     H75833   9.897  11.772   5.502 -3.3303  2.2358 -0.1963
  562MOL0     H75834   9.978  12.103   5.337 -1.4132 -0.0402 -2.4575
  562MOL0     H75835  10.099  12.308   5.391  1.3311 -0.2854  1.8732
  562MOL0     H75836   9.843  12.660   5.446 -0.9676 -1.3542  1.0345
  562MOL0     H75837   9.924  12.629   5.595 -1.9311 -4.6199 -1.3716
  562MOL0     H75838  10.132  12.750   5.517  0.8358 -4.3176 -1.1761
  562MOL0     H75839  10.061  12.760   5.354 -0.2300  3.1032 -0.2038
  562MOL0     H75840   9.924  12.915   5.583  1.0190 -0.7131 -0.0805
  562MOL0     H75841   9.879  12.895   5.417 -2.2705 -0.7386  1.2181
  562MOL0     H75842  10.004  13.115   5.474 -0.0045 -0.5675  0.0234
  562MOL0     H75843  10.142  13.016   5.514 -0.3573  0.2745  1.5231
  562MOL0     H75844  10.046  12.968   5.236 -1.2231 -0.2881  1.8386
  562MOL0     H75845  10.202  13.039   5.292  1.2242 -0.3289  1.5546
  562MOL0     H75846   9.946  13.193   5.227 -0.1970  1.4896 -2.9165
  562MOL0     H75847  10.079  13.286   5.278 -1.7690  1.6821 -2.2536
  562MOL0     H75848  10.063  13.268   5.033 -1.3122 -1.2605 -1.6715
  562MOL0     H75849  10.059  13.087   5.053 -0.3733 -1.9042  3.7756
  562MOL0     H75850  10.267  13.058   5.099 -0.1207 -0.4056 -1.4192
  562MOL0     H75851  10.312  13.221   5.135 -0.1335 -0.4842  0.8720
  562MOL0     H75852   9.715  12.507   5.452 -2.3043 -0.6318 -3.2158
  562MOL0     H75853   9.615  12.314   5.410  0.3226 -0.5078  1.3465
  562MOL0     H75854   9.469  11.952   5.366 -0.0545 -0.0503  0.6500
  562MOL0     H75855   9.335  11.763   5.374 -0.6979 -0.4226 -0.0245
  562MOL0     H75856   9.604  10.975   6.800  0.8859 -0.9754 -1.0559
  562MOL0     H75857   9.444  10.938   7.008  2.3070  1.5674 -0.7734
  562MOL0     H75858   9.124  10.572   7.202 -0.1528 -0.7016  0.5927
  562MOL0     H75859   9.052  10.593   7.444  0.0545  1.2645  0.7120
  562MOL0     H75860   9.132  10.867   7.727  1.2985 -1.1055 -1.7229
  562MOL0     H75861   9.139  10.964   7.585 -0.0172  1.6106  2.7235
  562MOL0     H75862   8.900  10.917   7.756 -1.6888 -0.3301 -2.4973
  562MOL0     H75863   8.877  11.021   7.617 -1.6991 -1.3511  0.1583
  562MOL0     H75864   9.071  11.109   7.849  1.6580 -0.9918 -1.8463
  562MOL0     H75865   8.897  11.152   7.833  0.0189 -4.6796  1.8455
  562MOL0     H75866   9.048  11.331   7.775 -3.2263 -0.8962  0.8441
  562MOL0     H75867   8.924  11.294   7.664 -1.6851 -1.5694 -0.6643
  562MOL0     H75868   9.271  11.232   7.432  0.1464 -1.5302 -0.2973
  562MOL0     H75869   9.016  11.012   7.405 -1.3205  0.7961 -1.3533
  562MOL0     H75870   9.042  10.999   7.184  0.5259 -0.6688  0.8658
  563MOL0     O75871   0.763   7.906   2.994 -0.1919 -0.5087 -0.1418
  563MOL0     C75872   0.689   7.817   2.958  0.0900 -0.5844  0.3699
  563MOL0     O75873   0.709   7.686   2.977 -0.1350 -0.7220 -0.0696
  563MOL0     C75874   0.825   7.634   3.037  0.4557 -1.0940  0.1895
  563MOL0     C75875   0.866   7.678   3.160  0.2967  0.0587  0.7604
  563MOL0     C75876   0.975   7.609   3.224 -0.0416 -0.3989  0.1936
  563MOL0     C75877   1.050   7.510   3.161 -0.0871  0.8136 -0.2030
  563MOL0     O75878   1.152   7.450   3.233 -0.0783  0.1472  0.5257
  563MOL0     C75879   1.238   7.364   3.165 -0.3465  0.4471  0.0341
  563MOL0     C75880   1.355   7.333   3.265  0.3986  0.0395  0.0019
  563MOL0     C75881   1.450   7.212   3.233 -0.1453  0.2854 -0.0808
  563MOL0     C75882   1.557   7.206   3.341 -0.3490 -0.1089  0.1526
  563MOL0     C75883   1.629   7.071   3.332 -1.1443  0.1806 -0.4110
  563MOL0     C75884   1.691   7.006   3.453 -0.3305  0.1591 -0.0652
  563MOL0     C75885   1.762   6.874   3.430 -0.7911 -0.5145  0.7080
  563MOL0     C75886   1.681   6.759   3.355 -0.1516 -0.0357  0.0561
  563MOL0     N75887   1.585   6.690   3.433  0.2305  0.1887  0.5396
  563MOL0     C75888   1.615   6.627   3.556  0.4813 -0.5403 -0.2591
  563MOL0     C75889   1.491   6.583   3.598 -0.0798 -0.0398  0.5019
  563MOL0     C75890   1.464   6.491   3.712 -0.0821 -0.7877 -0.1083
  563MOL0     C75891   1.370   6.549   3.826 -0.3436  0.2721  0.1384
  563MOL0     C75892   1.251   6.639   3.784  0.1672 -0.4895  0.2755
  563MOL0     C75893   1.139   6.649   3.873 -0.0595  0.8418  0.0973
  563MOL0     O75894   1.171   6.741   3.982 -0.3973 -0.2628  0.7404
  563MOL0     C75895   1.071   6.741   4.079  0.2016 -1.3173  0.5186
  563MOL0     C75896   1.072   6.660   4.183  0.0453 -0.2076  0.5518
  563MOL0     C75897   0.974   6.656   4.283 -0.7953 -0.5781 -0.2999
  563MOL0     C75898   1.021   6.576   4.410 -0.4467 -0.1737  0.6300
  563MOL0     C75899   0.862   6.744   4.273 -0.6762 -0.1710  0.4702
  563MOL0     C75900   0.754   6.760   4.370 -0.9792 -0.4359 -0.5876
  563MOL0     O75901   0.658   6.862   4.336  0.0739 -0.0871 -0.6851
  563MOL0     C75902   0.556   6.884   4.424 -0.8427  0.1178 -0.2302
  563MOL0     C75903   0.578   6.953   4.542 -0.2635  0.5603 -0.5791
  563MOL0     C75904   0.466   6.979   4.627 -1.1475 -1.1761 -0.2373
  563MOL0     C75905   0.343   6.938   4.587 -0.3445 -0.7311 -0.3420
  563MOL0     O75906   0.249   6.972   4.683 -0.9710  0.0800  0.4410
  563MOL0     C75907   0.116   6.983   4.644 -0.0331  0.0112  0.1570
  563MOL0     C75908   0.057   7.118   4.706  0.1660 -0.2687 -0.3648
  563MOL0     C75909  -0.094   7.148   4.671  0.6253 -0.7888  0.1013
  563MOL0     C75910  -0.142   7.282   4.726  0.3153  0.5947 -0.4230
  563MOL0     C75911  -0.287   7.325   4.697  0.0619 -0.3315  0.4423
  563MOL0     C75912  -0.392   7.229   4.751  0.4299  0.1748  0.3683
  563MOL0     C75913  -0.402   7.225   4.908  0.8908 -0.1600  1.2407
  563MOL0     C75914  -0.543   7.209   4.952 -0.5114 -0.1692 -0.7104
  563MOL0    Cl75915  -0.636   7.358   4.932  0.1400 -0.5021 -0.1100
  563MOL0     C75916   0.322   6.862   4.475  0.1189 -0.1374 -0.3713
  563MOL0     C75917   0.425   6.835   4.394 -1.1366  0.3791  0.5317
  563MOL0     O75918   0.773   6.717   4.485 -0.2008  0.8436  0.9305
  563MOL0     C75919   0.850   6.813   4.151 -0.1567  0.2862 -0.5213
  563MOL0     C75920   0.944   6.815   4.058 -1.3764 -1.1751 -0.2171
  563MOL0     N75921   1.401   6.626   3.504 -0.0302 -0.5928  0.0029
  563MOL0     N75922   1.455   6.710   3.419 -0.2528  0.0484 -0.4573
  563MOL0     C75923   1.007   7.476   3.031  0.6728 -0.2248  0.5478
  563MOL0     C75924   0.895   7.539   2.965 -0.0184  0.4266 -0.2869
  563MOL0     C75925   0.563   7.855   2.900 -0.3279 -0.3590  0.1877
  563MOL0     C75926   0.515   7.994   2.895 -0.6261  0.4357 -0.2531
  563MOL0     C75927   0.381   8.027   2.862  0.9450  0.5194  0.6356
  563MOL0     C75928   0.288   7.925   2.839 -0.3931 -0.3970 -0.4880
  563MOL0     O75929   0.149   7.952   2.810 -0.5085 -0.3275 -0.3277
  563MOL0     C75930   0.112   8.089   2.813  0.5292 -0.2756 -0.8282
  563MOL0     C75931   0.097   8.148   2.962 -0.4276 -0.4427  0.1244
  563MOL0     C75932   0.074   8.297   2.979 -0.9424  0.3102  0.9137
  563MOL0     C75933   0.045   8.327   3.129  0.7368 -0.1163 -0.5739
  563MOL0     C75934  -0.077   8.261   3.179  0.4154 -0.5273 -0.0072
  563MOL0     C75935  -0.169   8.199   3.235 -0.0938  0.8661 -0.0048
  563MOL0     C75936   0.335   7.794   2.836 -0.4578 -0.5343 -0.5798
  563MOL0     C75937   0.467   7.756   2.866  0.0476 -0.2059  0.2406
  563MOL0     H75938   0.832   7.759   3.224  0.7183 -1.8290  3.5548
  563MOL0     H75939   0.999   7.652   3.321  0.0968  2.1287 -0.8899
  563MOL0     H75940   1.180   7.274   3.140  0.4208 -0.5867  1.7908
  563MOL0     H75941   1.273   7.398   3.067  2.9872 -0.6254  0.7081
  563MOL0     H75942   1.409   7.428   3.275  2.6285 -1.2928  1.2069
  563MOL0     H75943   1.307   7.322   3.363 -1.9532  1.4344 -0.9019
  563MOL0     H75944   1.391   7.120   3.237 -1.6467  1.2143 -0.1193
  563MOL0     H75945   1.478   7.233   3.130 -2.3264  1.7641 -0.4405
  563MOL0     H75946   1.630   7.288   3.342  0.8349 -1.1316  1.5406
  563MOL0     H75947   1.499   7.223   3.433 -1.7716  1.0462 -0.8951
  563MOL0     H75948   1.555   7.002   3.288 -1.9732  1.4728 -1.1083
  563MOL0     H75949   1.714   7.084   3.264 -1.1477  0.3624 -0.3790
  563MOL0     H75950   1.758   7.077   3.503 -0.3858 -0.8575  1.5429
  563MOL0     H75951   1.615   6.995   3.531 -0.3774 -0.6508 -0.2181
  563MOL0     H75952   1.854   6.897   3.376 -2.6934  0.8209 -2.2507
  563MOL0     H75953   1.795   6.837   3.527  1.7515 -0.4778 -0.0639
  563MOL0     H75954   1.763   6.695   3.323 -0.8212  0.1502 -2.2466
  563MOL0     H75955   1.632   6.798   3.265 -1.5958  1.6407  1.4733
  563MOL0     H75956   1.717   6.613   3.589  0.8855  1.2964 -0.6526
  563MOL0     H75957   1.424   6.397   3.674 -0.5748 -0.3186 -0.7603
  563MOL0     H75958   1.560   6.458   3.755  0.3314 -3.0579 -2.5171
  563MOL0     H75959   1.434   6.617   3.884 -0.2778  0.1356  0.2252
  563MOL0     H75960   1.340   6.464   3.887 -3.8966  0.1917 -1.4643
  563MOL0     H75961   1.206   6.614   3.687  0.6158  3.2880 -1.0641
  563MOL0     H75962   1.303   6.734   3.768 -0.0677 -0.2470  0.9247
  563MOL0     H75963   1.103   6.555   3.917 -2.1373  0.3718 -2.3527
  563MOL0     H75964   1.053   6.686   3.816  1.0264 -2.3109 -4.0451
  563MOL0     H75965   1.165   6.609   4.207  1.5305  1.4906 -1.3093
  563MOL0     H75966   1.063   6.648   4.481  2.2189 -0.0386 -0.9568
  563MOL0     H75967   0.939   6.519   4.455  0.2336 -1.2852  0.4937
  563MOL0     H75968   1.104   6.508   4.388 -0.3015  0.3750 -0.5847
  563MOL0     H75969   0.676   6.990   4.569 -0.8626  2.1323 -0.4863
  563MOL0     H75970   0.467   7.037   4.719 -2.4909 -0.7117 -0.4872
  563MOL0     H75971   0.104   6.983   4.536 -1.2378 -1.8373  0.2540
  563MOL0     H75972   0.063   6.897   4.685  2.7388 -0.2059  3.7490
  563MOL0     H75973   0.062   7.123   4.815  1.1536  1.5611 -0.4424
  563MOL0     H75974   0.115   7.198   4.657 -4.3491  2.8338 -1.3462
  563MOL0     H75975  -0.160   7.068   4.706 -2.1922  0.1891 -2.4993
  563MOL0     H75976  -0.100   7.149   4.562  4.4799  2.5553 -0.3325
  563MOL0     H75977  -0.133   7.282   4.835 -0.4467 -0.5572 -0.3492
  563MOL0     H75978  -0.068   7.356   4.692  0.0071  2.0092  1.7904
  563MOL0     H75979  -0.304   7.332   4.589 -0.3998 -1.5780  0.4154
  563MOL0     H75980  -0.314   7.427   4.725 -0.7596 -0.1391 -0.9497
  563MOL0     H75981  -0.487   7.259   4.705  1.2693  1.2381 -0.7131
  563MOL0     H75982  -0.373   7.127   4.717 -1.7228 -0.5464  1.1196
  563MOL0     H75983  -0.361   7.320   4.943  1.9842  0.5091 -1.5948
  563MOL0     H75984  -0.339   7.144   4.945  4.8571  3.1158  2.4848
  563MOL0     H75985  -0.551   7.174   5.055 -2.3412  1.7902 -0.1082
  563MOL0     H75986  -0.582   7.126   4.893 -0.3819  0.5161 -1.7913
  563MOL0     H75987   0.229   6.813   4.447 -0.8808  2.2791 -1.5644
  563MOL0     H75988   0.399   6.766   4.314 -1.0217  0.0496  0.7776
  563MOL0     H75989   0.762   6.865   4.113 -1.8955 -0.9039  1.6482
  563MOL0     H75990   0.934   6.855   3.958 -2.0190  1.5329  0.8351
  563MOL0     H75991   1.051   7.392   2.977 -1.0801 -1.9012  1.5763
  563MOL0     H75992   0.855   7.514   2.867  1.1953 -0.3700 -0.6050
  563MOL0     H75993   0.579   8.070   2.937 -0.8095 -0.4642  1.7564
  563MOL0     H75994   0.351   8.130   2.849  3.1920  0.9950 -1.3964
  563MOL0     H75995   0.183   8.150   2.757  2.7149 -1.4028  0.5731
  563MOL0     H75996   0.018   8.106   2.760  1.7538  0.8425 -2.7523
  563MOL0     H75997   0.188   8.121   3.017 -0.8664 -0.1751  1.0041
  563MOL0     H75998   0.012   8.090   2.999 -1.2564  1.9561  2.3368
  563MOL0     H75999  -0.011   8.324   2.915  2.3142  3.4101 -2.5737
  563MOL0     H76000   0.159   8.360   2.954  0.3843 -0.6150  2.9099
  563MOL0     H76001   0.034   8.436   3.131 -0.0985 -0.1250 -2.3450
  563MOL0     H76002   0.130   8.306   3.194  0.4115  3.0919  1.0876
  563MOL0     H76003  -0.253   8.154   3.284 -1.2871  1.7603 -1.1444
  563MOL0     H76004   0.273   7.708   2.813  2.0580 -3.1398  1.6501
  563MOL0     H76005   0.494   7.651   2.859 -0.5124 -0.5787  2.7108
  564MOL0     O76006   1.619   8.357  10.581  0.1608 -0.2478  0.2502
  564MOL0     C76007   1.550   8.333  10.487  0.1999  0.3856  0.0643
  564MOL0     O76008   1.516   8.202  10.447 -0.1775  0.2695 -0.3864
  564MOL0     C76009   1.591   8.097  10.496 -0.7000  0.4578  1.2784
  564MOL0     C76010   1.576   8.051  10.622  0.4909  0.1374 -0.3852
  564MOL0     C76011   1.650   7.939  10.668 -0.0231 -0.3140 -0.2231
  564MOL0     C76012   1.751   7.875  10.592 -0.1786  0.1402  1.6587
  564MOL0     O76013   1.833   7.770  10.631  0.4187 -0.5886  0.1537
  564MOL0     C76014   1.851   7.748  10.767 -0.0350 -0.0382  0.2685
  564MOL0     C76015   1.982   7.672  10.780 -0.0395 -0.5379 -0.7498
  564MOL0     C76016   2.034   7.678  10.927  0.1253  0.4185 -0.0133
  564MOL0     C76017   2.113   7.548  10.961 -0.4267  0.6676 -0.1083
  564MOL0     C76018   2.172   7.561  11.097  0.3284 -0.8010 -0.1787
  564MOL0     C76019   2.313   7.634  11.097  0.0371  0.0899  0.2661
  564MOL0     C76020   2.351   7.652  11.245 -0.2215 -0.3728  0.2973
  564MOL0     C76021   2.480   7.728  11.252 -0.1861  0.2718  0.3679
  564MOL0     N76022   2.593   7.654  11.202 -0.2712  0.4910  0.0092
  564MOL0     C76023   2.631   7.539  11.255  0.2138 -0.7235  0.0940
  564MOL0     C76024   2.715   7.493  11.155  1.2017  0.2173 -0.0927
  564MOL0     C76025   2.789   7.362  11.155 -1.1252 -0.3349 -0.7369
  564MOL0     C76026   2.947   7.394  11.142 -1.1632  0.5241 -0.3846
  564MOL0     C76027   3.016   7.509  11.230 -0.2719  0.3507 -0.4568
  564MOL0     C76028   3.028   7.650  11.165 -1.0342 -0.1776 -1.1007
  564MOL0     O76029   3.107   7.731  11.262 -0.2121 -0.3522  0.9440
  564MOL0     C76030   3.041   7.800  11.356 -0.5862  0.1523 -0.3525
  564MOL0     C76031   3.123   7.840  11.469  1.1022  0.2525  0.5788
  564MOL0     C76032   3.063   7.917  11.567 -0.1037  0.6430  0.5414
  564MOL0     C76033   3.153   7.977  11.669 -0.1842 -1.2643  0.0416
  564MOL0     C76034   2.924   7.928  11.570  0.1119 -0.3695  0.0987
  564MOL0     C76035   2.862   7.994  11.687 -0.4811 -0.1289  0.0356
  564MOL0     O76036   2.786   8.101  11.672  0.1776  0.0548  0.9046
  564MOL0     C76037   2.716   8.164  11.782  0.3600  0.2710  0.1802
  564MOL0     C76038   2.747   8.303  11.803 -0.5136  0.2512 -0.0421
  564MOL0     C76039   2.682   8.368  11.917 -0.0874  0.0198  0.5891
  564MOL0     C76040   2.589   8.305  12.000 -0.1321  0.0363 -0.8189
  564MOL0     O76041   2.507   8.375  12.090  0.4167 -0.1620 -0.3960
  564MOL0     C76042   2.565   8.483  12.171  0.5848  0.3072 -0.4990
  564MOL0     C76043   2.570   8.451  12.324 -0.5917 -0.9939 -0.9842
  564MOL0     C76044   2.591   8.582  12.404 -0.5216 -0.4990  0.3823
  564MOL0     C76045   2.734   8.641  12.386 -0.4984 -0.8745  0.5289
  564MOL0     C76046   2.776   8.734  12.494 -0.1465  0.0634 -0.2457
  564MOL0     C76047   2.913   8.798  12.478  0.0088 -0.1462  0.1374
  564MOL0     C76048   2.960   8.871  12.601  0.0820  0.2245  0.7954
  564MOL0     C76049   2.860   8.970  12.662 -0.0607 -0.7448  0.4580
  564MOL0    Cl76050   2.816   9.089  12.531 -0.1774 -0.0973  0.0959
  564MOL0     C76051   2.556   8.164  11.974 -1.0517  0.5852 -0.3400
  564MOL0     C76052   2.623   8.093  11.867  0.8242  0.2279  0.1252
  564MOL0     O76053   2.878   7.936  11.795 -0.7133  0.2383 -0.3136
  564MOL0     C76054   2.848   7.889  11.464 -0.6258 -0.3865 -0.5056
  564MOL0     C76055   2.907   7.840  11.351  0.1793  0.4965 -0.1066
  564MOL0     N76056   2.704   7.577  11.046  0.2186 -0.2708  0.1448
  564MOL0     N76057   2.640   7.683  11.080 -0.0463 -0.2853 -0.4516
  564MOL0     C76058   1.756   7.916  10.458 -0.2446 -0.2897  0.7080
  564MOL0     C76059   1.679   8.029  10.418  0.8443  0.5384  0.8766
  564MOL0     C76060   1.466   8.438  10.436  1.0652 -0.3557  0.0467
  564MOL0     C76061   1.380   8.424  10.325  0.1092  0.0304  0.2806
  564MOL0     C76062   1.304   8.526  10.273 -0.6845 -0.4496 -0.6874
  564MOL0     C76063   1.284   8.653  10.341 -0.4090  0.6756 -1.4112
  564MOL0     O76064   1.174   8.735  10.307 -1.1627 -0.4997  0.1898
  564MOL0     C76065   1.086   8.771  10.417 -0.5778 -0.8124  0.0841
  564MOL0     C76066   0.952   8.805  10.356  0.8992 -0.0116 -0.9224
  564MOL0     C76067   0.921   8.950  10.317  0.0276 -0.2021 -0.3005
  564MOL0     C76068   0.781   8.986  10.272 -0.7680 -0.2564 -0.2647
  564MOL0     C76069   0.716   8.900  10.173  0.1556 -0.1150 -0.4728
  564MOL0     C76070   0.643   8.839  10.089  0.2610 -0.0564 -0.9689
  564MOL0     C76071   1.370   8.673  10.450 -0.1029  0.6772  0.0433
  564MOL0     C76072   1.457   8.570  10.495  0.0152 -0.2542 -0.3739
  564MOL0     H76073   1.503   8.081  10.697  4.0348  3.2346  2.2356
  564MOL0     H76074   1.645   7.923  10.775  4.0148 -1.2661 -0.0202
  564MOL0     H76075   1.846   7.848  10.812 -0.3379 -0.4182  1.1033
  564MOL0     H76076   1.774   7.683  10.811  0.8683 -0.9908  0.4947
  564MOL0     H76077   1.966   7.568  10.752 -2.5717 -0.3589 -0.2149
  564MOL0     H76078   2.055   7.717  10.711  0.4171  2.3611  1.4298
  564MOL0     H76079   2.099   7.763  10.951  2.0209 -1.1595  0.7958
  564MOL0     H76080   1.940   7.679  10.983 -0.9981 -3.8782 -1.4172
  564MOL0     H76081   2.055   7.456  10.962  2.7448 -1.5799 -2.3021
  564MOL0     H76082   2.191   7.532  10.885 -1.7526  0.8126 -1.5392
  564MOL0     H76083   2.099   7.607  11.164 -0.8068 -0.3857 -1.6549
  564MOL0     H76084   2.188   7.465  11.145 -1.5463 -1.7483 -1.3546
  564MOL0     H76085   2.384   7.571  11.043  2.0069  2.6859 -0.3559
  564MOL0     H76086   2.304   7.725  11.038 -0.5506 -0.7067 -0.9130
  564MOL0     H76087   2.272   7.706  11.296 -1.3051 -2.5085  1.0153
  564MOL0     H76088   2.358   7.559  11.302 -2.2179 -0.2924  0.7310
  564MOL0     H76089   2.496   7.743  11.359  1.6863 -0.3982  0.2140
  564MOL0     H76090   2.469   7.822  11.198 -1.5003  1.0392  1.8839
  564MOL0     H76091   2.608   7.487  11.347 -2.7266  1.4936  0.7319
  564MOL0     H76092   2.776   7.308  11.249 -1.9548  0.6092 -0.2802
  564MOL0     H76093   2.746   7.301  11.075 -2.3459 -0.0360 -0.3316
  564MOL0     H76094   2.958   7.422  11.037  2.9442 -1.8717 -0.8021
  564MOL0     H76095   2.992   7.296  11.161 -2.7629  0.0801  1.5022
  564MOL0     H76096   3.110   7.483  11.279 -0.5917 -0.5516 -0.3044
  564MOL0     H76097   2.948   7.521  11.315  0.0587  0.2205 -0.1717
  564MOL0     H76098   2.934   7.690  11.126 -0.8607  1.5638  0.1650
  564MOL0     H76099   3.095   7.650  11.079  0.4848 -0.4908  0.0426
  564MOL0     H76100   3.231   7.824  11.467  0.7587 -2.5811 -0.5820
  564MOL0     H76101   3.149   7.937  11.771  4.2050 -2.5323 -0.0587
  564MOL0     H76102   3.259   7.965  11.643  0.0066 -0.0636  0.2001
  564MOL0     H76103   3.131   8.084  11.672 -1.7872 -1.4439 -2.8003
  564MOL0     H76104   2.803   8.352  11.723 -1.0322 -2.6204 -2.3518
  564MOL0     H76105   2.697   8.474  11.937  1.0686 -0.3010  1.5621
  564MOL0     H76106   2.667   8.505  12.138  0.6321 -3.3142 -3.3879
  564MOL0     H76107   2.511   8.576  12.153 -2.3289 -1.0327  0.7021
  564MOL0     H76108   2.477   8.407  12.360  0.3038 -2.5716 -0.5283
  564MOL0     H76109   2.646   8.373  12.336  1.7916  1.4507  1.1169
  564MOL0     H76110   2.578   8.560  12.511  1.9800  0.1426  0.8859
  564MOL0     H76111   2.521   8.663  12.383  1.2669  1.6563  2.1478
  564MOL0     H76112   2.796   8.552  12.397 -1.9841 -2.1664 -0.9682
  564MOL0     H76113   2.743   8.685  12.286 -0.6595  2.5294  1.8702
  564MOL0     H76114   2.780   8.694  12.596  2.1653  1.6980  0.3751
  564MOL0     H76115   2.691   8.803  12.484 -0.7875 -0.7573 -0.5115
  564MOL0     H76116   2.988   8.720  12.461  0.7004  0.3132  1.0034
  564MOL0     H76117   2.908   8.872  12.396  0.2657 -0.1813  0.0892
  564MOL0     H76118   3.055   8.918  12.573 -0.3790 -0.0842 -1.4384
  564MOL0     H76119   2.996   8.802  12.678 -1.0961 -0.5633  0.6662
  564MOL0     H76120   2.896   9.039  12.739 -0.6989  1.5591 -1.2064
  564MOL0     H76121   2.772   8.917  12.700 -0.1831 -0.6125  0.3592
  564MOL0     H76122   2.472   8.128  12.031 -2.4994 -0.0640 -2.7155
  564MOL0     H76123   2.610   7.987  11.847 -1.0996  0.7292 -1.7230
  564MOL0     H76124   2.740   7.902  11.474 -0.5331 -0.0583  0.0987
  564MOL0     H76125   2.843   7.809  11.269 -1.6550  0.4729  1.2599
  564MOL0     H76126   1.820   7.883  10.376  2.8913  2.6334  1.7467
  564MOL0     H76127   1.703   8.078  10.324 -1.4705  5.5341  2.5858
  564MOL0     H76128   1.390   8.329  10.274  0.7107  1.0219 -1.5754
  564MOL0     H76129   1.244   8.494  10.188 -1.3797 -2.8046  0.5951
  564MOL0     H76130   1.084   8.693  10.494  2.6982 -1.5957 -0.4764
  564MOL0     H76131   1.121   8.860  10.468 -1.7882  0.1467 -0.6762
  564MOL0     H76132   0.873   8.762  10.419 -3.0008  2.3520 -3.7185
  564MOL0     H76133   0.937   8.758  10.258  1.8277  1.6482 -1.9020
  564MOL0     H76134   0.997   8.984  10.246  0.9091  0.3263  0.8597
  564MOL0     H76135   0.939   8.999  10.413 -3.7787 -1.0932  1.0299
  564MOL0     H76136   0.776   9.089  10.235 -3.4584  0.4307  1.7223
  564MOL0     H76137   0.739   8.983  10.372  0.0107 -0.0522  0.0777
  564MOL0     H76138   0.578   8.794  10.017 -2.2934  1.6245  0.0988
  564MOL0     H76139   1.390   8.775  10.480  1.7706  1.4000 -3.1451
  564MOL0     H76140   1.538   8.596  10.563 -0.8629  2.1616 -0.1459
  565MOL0     O76141   5.983   8.975   3.602  0.4746 -0.2414  0.4034
  565MOL0     C76142   5.922   8.893   3.533 -0.4727 -1.0861 -0.1828
  565MOL0     O76143   5.829   8.930   3.442  0.5678  0.3657 -0.2301
  565MOL0     C76144   5.783   9.063   3.418 -0.0895  0.5777  0.1913
  565MOL0     C76145   5.639   9.073   3.399  0.2378 -0.8013  0.4193
  565MOL0     C76146   5.590   9.201   3.387  1.3366 -0.0236  0.1388
  565MOL0     C76147   5.662   9.314   3.378 -0.4306  0.1178 -0.1410
  565MOL0     O76148   5.591   9.425   3.354  0.7966 -1.0445 -0.7142
  565MOL0     C76149   5.652   9.539   3.417 -0.6077 -0.4585 -0.4731
  565MOL0     C76150   5.553   9.656   3.431  0.2991 -0.7558  0.5131
  565MOL0     C76151   5.442   9.617   3.522  0.9272  0.3894 -0.5084
  565MOL0     C76152   5.387   9.731   3.612 -1.3868 -1.0916  0.6704
  565MOL0     C76153   5.288   9.826   3.543 -0.1893  0.7726 -0.1968
  565MOL0     C76154   5.213   9.901   3.657 -0.7224  0.9031  0.2340
  565MOL0     C76155   5.117  10.005   3.603 -0.0647  0.9510  0.4541
  565MOL0     C76156   5.077  10.089   3.724  0.1047  0.5694  0.4168
  565MOL0     N76157   5.191  10.161   3.778 -0.1498  0.1452 -1.0264
  565MOL0     C76158   5.231  10.154   3.915  0.8681 -0.2535  0.0006
  565MOL0     C76159   5.319  10.253   3.923  0.2910 -0.1576  0.4347
  565MOL0     C76160   5.402  10.278   4.044  1.2130 -0.3769 -0.4925
  565MOL0     C76161   5.321  10.335   4.161 -0.1722  0.2264  1.0450
  565MOL0     C76162   5.418  10.383   4.274  0.0528 -0.1764 -0.1050
  565MOL0     C76163   5.330  10.418   4.400 -0.4777 -0.2626  0.4831
  565MOL0     O76164   5.380  10.371   4.524 -0.4038  0.1528  0.4238
  565MOL0     C76165   5.369  10.231   4.556 -0.3715 -1.0608 -0.0581
  565MOL0     C76166   5.260  10.151   4.532 -0.6033 -0.5892 -0.3280
  565MOL0     C76167   5.251  10.024   4.586  0.4350 -0.5262 -0.8752
  565MOL0     C76168   5.113   9.961   4.582 -1.1506 -0.4639 -0.3654
  565MOL0     C76169   5.367   9.971   4.652  0.2303  0.1886 -0.0305
  565MOL0     C76170   5.385   9.835   4.706  0.0072  0.2394 -0.6861
  565MOL0     O76171   5.458   9.812   4.823 -0.6033 -0.1102  0.4277
  565MOL0     C76172   5.456   9.689   4.879 -0.4053 -0.1153 -1.1543
  565MOL0     C76173   5.585   9.647   4.923  0.4018 -0.4298  0.2405
  565MOL0     C76174   5.604   9.520   4.979  0.1075  0.2309 -0.1814
  565MOL0     C76175   5.491   9.432   5.005  0.1907 -0.2213 -0.5887
  565MOL0     O76176   5.519   9.309   5.057 -0.0804  0.2123 -0.6425
  565MOL0     C76177   5.432   9.250   5.156 -0.5778 -0.3194  0.4370
  565MOL0     C76178   5.480   9.290   5.296  0.0145 -1.2169 -0.8258
  565MOL0     C76179   5.404   9.205   5.390  0.1717  0.3375  0.4334
  565MOL0     C76180   5.405   9.271   5.526  0.3895  1.0316 -0.1557
  565MOL0     C76181   5.319   9.200   5.634  1.1024 -0.8414 -0.5684
  565MOL0     C76182   5.272   9.306   5.750  0.2001  0.0991 -0.4052
  565MOL0     C76183   5.161   9.247   5.834  0.3524  0.6846  0.0933
  565MOL0     C76184   5.174   9.256   5.982  0.7807 -0.6587  0.2302
  565MOL0    Cl76185   5.309   9.155   6.038 -0.0709  0.4776 -0.0617
  565MOL0     C76186   5.361   9.479   4.964 -0.8694  0.8103 -0.2905
  565MOL0     C76187   5.347   9.601   4.908  0.4434 -0.0474  0.9523
  565MOL0     O76188   5.332   9.747   4.642  0.1114  0.6456 -0.3517
  565MOL0     C76189   5.481  10.053   4.669 -1.0058  0.3541  0.1541
  565MOL0     C76190   5.484  10.180   4.617  0.0717  0.9920  0.3038
  565MOL0     N76191   5.355  10.303   3.795  0.5457 -0.1613 -0.1453
  565MOL0     N76192   5.270  10.251   3.716 -0.0637 -0.1745 -0.3073
  565MOL0     C76193   5.801   9.298   3.363 -1.0683 -0.1464 -0.2570
  565MOL0     C76194   5.862   9.174   3.396  0.4968 -0.0569 -0.5368
  565MOL0     C76195   5.948   8.745   3.548 -0.6389  1.0003 -0.0781
  565MOL0     C76196   5.861   8.652   3.486 -0.3485 -0.3573  0.0335
  565MOL0     C76197   5.888   8.517   3.492 -0.0083  0.8021 -0.3164
  565MOL0     C76198   5.994   8.469   3.558 -0.0339  0.5699  0.5475
  565MOL0     O76199   6.004   8.327   3.567 -0.5518 -0.3813  0.2819
  565MOL0     C76200   6.122   8.284   3.633 -0.5177  0.4966 -0.0730
  565MOL0     C76201   6.118   8.133   3.669  0.4938 -0.0229 -0.1654
  565MOL0     C76202   6.106   8.031   3.554  1.0281  0.1454  0.6012
  565MOL0     C76203   6.112   7.884   3.599 -0.1423 -0.6356  0.4889
  565MOL0     C76204   6.240   7.831   3.665  0.7557  0.6399  0.1900
  565MOL0     C76205   6.338   7.775   3.715 -0.1922  1.0562 -0.3666
  565MOL0     C76206   6.083   8.561   3.620 -0.4490  0.1806 -0.0644
  565MOL0     C76207   6.061   8.698   3.620  0.2914 -0.0979  0.3198
  565MOL0     H76208   5.561   8.998   3.401  0.8180 -1.4395 -0.3669
  565MOL0     H76209   5.482   9.197   3.379  1.3921 -1.0540 -0.2495
  565MOL0     H76210   5.685   9.507   3.517 -0.0440 -2.2793 -1.1936
  565MOL0     H76211   5.741   9.570   3.362  1.4635 -0.3771  2.6335
  565MOL0     H76212   5.607   9.744   3.467  1.8935 -1.6146  0.2866
  565MOL0     H76213   5.514   9.666   3.329  0.5779  2.0385  0.5947
  565MOL0     H76214   5.352   9.591   3.466  0.6114 -1.1222  0.6237
  565MOL0     H76215   5.467   9.527   3.579 -0.1883 -0.5803 -1.4972
  565MOL0     H76216   5.333   9.698   3.701 -3.6822  3.1001  1.0757
  565MOL0     H76217   5.473   9.787   3.650 -0.5682 -0.8099 -1.4910
  565MOL0     H76218   5.323   9.902   3.472 -1.4702  0.5472 -1.1024
  565MOL0     H76219   5.203   9.776   3.495 -0.5507  0.7795  0.4314
  565MOL0     H76220   5.154   9.832   3.718 -1.3018  1.6492  0.5424
  565MOL0     H76221   5.295   9.938   3.721  1.7290  1.2646 -2.8893
  565MOL0     H76222   5.160  10.070   3.526  2.2758 -0.3498  0.5539
  565MOL0     H76223   5.020   9.967   3.570 -0.6702  2.2166  0.7423
  565MOL0     H76224   5.040  10.013   3.794  0.3693 -1.8349 -1.8643
  565MOL0     H76225   4.996  10.156   3.695  1.4052  1.2994 -1.7086
  565MOL0     H76226   5.168  10.100   3.986  0.3741  2.1689  1.5223
  565MOL0     H76227   5.447  10.188   4.085  0.6630  0.8735  3.2576
  565MOL0     H76228   5.487  10.340   4.014  1.2593 -0.8249 -1.3195
  565MOL0     H76229   5.258  10.255   4.202 -1.3276 -1.1636 -3.0016
  565MOL0     H76230   5.256  10.415   4.125  0.7924  0.4361 -0.3067
  565MOL0     H76231   5.479  10.464   4.233 -2.5657  2.3318  0.6120
  565MOL0     H76232   5.488  10.303   4.302 -0.0851 -0.1443  0.3377
  565MOL0     H76233   5.231  10.371   4.394  0.1818 -1.5086 -2.5025
  565MOL0     H76234   5.326  10.525   4.421  0.1521 -0.3880  1.2854
  565MOL0     H76235   5.164  10.181   4.492 -1.2998  1.8963  2.8777
  565MOL0     H76236   5.105   9.884   4.505 -0.0152 -2.1560  1.1376
  565MOL0     H76237   5.087   9.925   4.682  0.3140 -0.5788 -0.0087
  565MOL0     H76238   5.033  10.035   4.568 -1.1856 -0.2605  0.7926
  565MOL0     H76239   5.670   9.713   4.939 -0.6433  0.2207  4.4819
  565MOL0     H76240   5.697   9.495   5.028  0.3632  1.2503 -0.1370
  565MOL0     H76241   5.330   9.277   5.126 -1.0963 -2.6948 -0.1340
  565MOL0     H76242   5.428   9.142   5.147  0.8261 -0.4244  0.7658
  565MOL0     H76243   5.588   9.275   5.308 -0.3784 -3.1223  1.0249
  565MOL0     H76244   5.464   9.392   5.331 -0.5982 -2.0996  1.6924
  565MOL0     H76245   5.450   9.106   5.396 -0.4310  0.0359  0.2561
  565MOL0     H76246   5.302   9.193   5.351  0.0403  1.5610  0.3511
  565MOL0     H76247   5.506   9.263   5.568 -0.8983 -2.5727  2.7685
  565MOL0     H76248   5.395   9.380   5.525 -1.8532  0.8991 -2.5555
  565MOL0     H76249   5.359   9.114   5.689  0.1488 -0.2061  1.2180
  565MOL0     H76250   5.227   9.165   5.586  1.0500 -0.2611 -0.9100
  565MOL0     H76251   5.357   9.328   5.816 -0.6903 -0.1856  0.8679
  565MOL0     H76252   5.232   9.398   5.707  0.8574  0.7761  0.3905
  565MOL0     H76253   5.145   9.145   5.800  0.0745  1.7290 -3.2912
  565MOL0     H76254   5.067   9.302   5.819  0.6040  1.1367  0.1563
  565MOL0     H76255   5.086   9.209   6.028 -0.7874  1.5094 -0.4308
  565MOL0     H76256   5.178   9.359   6.018  0.1849 -1.5518  3.1211
  565MOL0     H76257   5.278   9.410   4.965 -2.5995  2.7795  0.8777
  565MOL0     H76258   5.249   9.634   4.877 -0.5144  0.8527  4.4909
  565MOL0     H76259   5.564  10.005   4.720 -1.5807 -3.6449 -2.1895
  565MOL0     H76260   5.573  10.238   4.641  0.8790 -0.6169  1.3819
  565MOL0     H76261   5.855   9.386   3.331 -2.3265  0.7039 -0.1090
  565MOL0     H76262   5.968   9.172   3.419  0.4553 -1.7777 -0.3966
  565MOL0     H76263   5.773   8.685   3.431 -1.2084 -0.7126  1.1372
  565MOL0     H76264   5.803   8.475   3.438 -1.3998  1.1653  1.5010
  565MOL0     H76265   6.208   8.298   3.568  0.2422 -1.0847  0.5391
  565MOL0     H76266   6.147   8.341   3.723  2.3308 -1.0492  0.2590
  565MOL0     H76267   6.038   8.133   3.743  0.8244 -1.5247  0.2229
  565MOL0     H76268   6.208   8.117   3.728  0.0958  1.1317  0.7706
  565MOL0     H76269   6.172   8.053   3.469  0.6779  1.8855  0.7531
  565MOL0     H76270   6.004   8.052   3.520  0.7311  0.7084  1.7889
  565MOL0     H76271   6.077   7.832   3.510  0.4504  0.5991 -0.4974
  565MOL0     H76272   6.039   7.872   3.680  0.0484  0.0281  0.7757
  565MOL0     H76273   6.422   7.733   3.766 -0.5303 -0.0089 -0.6509
  565MOL0     H76274   6.170   8.529   3.676  0.2374  0.6920 -0.7940
  565MOL0     H76275   6.127   8.772   3.663 -2.4139  1.8574  1.3761
  566MOL0     O76276   0.351   0.011   9.441  0.3786  0.3231 -0.1760
  566MOL0     C76277   0.420   0.012   9.539  1.1219 -0.2836 -0.0682
  566MOL0     O76278   0.373  -0.019   9.672  0.0365  0.3913  0.3400
  566MOL0     C76279   0.253  -0.076   9.690  0.2503 -0.8156 -0.1135
  566MOL0     C76280   0.216  -0.203   9.649  0.2779  0.3050  0.1357
  566MOL0     C76281   0.087  -0.260   9.676  0.1568  0.7971  0.6040
  566MOL0     C76282  -0.013  -0.175   9.743  0.3066  1.6010 -0.7627
  566MOL0     O76283  -0.135  -0.237   9.754 -0.3841  0.6031 -0.3385
  566MOL0     C76284  -0.260  -0.166   9.753 -0.0794 -0.2191  0.0326
  566MOL0     C76285  -0.366  -0.266   9.719  0.2616  0.9815  0.5913
  566MOL0     C76286  -0.496  -0.197   9.699 -0.3240  0.3120 -0.3386
  566MOL0     C76287  -0.506  -0.122   9.561 -0.2339  0.4295  0.1258
  566MOL0     C76288  -0.653  -0.080   9.544 -0.1288 -0.1814  0.7659
  566MOL0     C76289  -0.679   0.034   9.447  0.2040  0.3847 -0.1785
  566MOL0     C76290  -0.628   0.035   9.305  0.1032 -0.1742 -0.0100
  566MOL0     C76291  -0.715  -0.049   9.211 -0.2755 -0.0381 -0.3169
  566MOL0     N76292  -0.630  -0.072   9.094  0.6246 -0.0931 -0.2723
  566MOL0     C76293  -0.629   0.015   8.991 -0.1392 -0.5245  1.1066
  566MOL0     C76294  -0.541  -0.035   8.895 -0.6829  0.5184 -0.2944
  566MOL0     C76295  -0.484   0.017   8.756  0.1384 -0.0024  0.6357
  566MOL0     C76296  -0.335   0.044   8.737 -0.3352  0.7157 -0.5755
  566MOL0     C76297  -0.255  -0.098   8.720 -0.5991  0.0347  0.0134
  566MOL0     C76298  -0.108  -0.071   8.694 -0.9818  0.4133  0.2549
  566MOL0     O76299  -0.021  -0.177   8.737 -0.3329 -0.5355  0.2989
  566MOL0     C76300   0.115  -0.162   8.752  0.2300 -0.4647  0.4265
  566MOL0     C76301   0.173  -0.276   8.753 -0.1771  0.8373 -0.8393
  566MOL0     C76302   0.313  -0.282   8.745  0.9094  0.0296 -0.6815
  566MOL0     C76303   0.383  -0.410   8.716  0.6547  0.1060  0.9249
  566MOL0     C76304   0.385  -0.162   8.767  0.7461 -0.0915 -0.7820
  566MOL0     C76305   0.531  -0.154   8.769 -0.3882  0.5859  0.2835
  566MOL0     O76306   0.603  -0.261   8.824  0.0204  0.5807 -0.3411
  566MOL0     C76307   0.743  -0.263   8.817  0.3073  0.1848  0.1096
  566MOL0     C76308   0.818  -0.156   8.865  0.0223 -1.4468  0.7233
  566MOL0     C76309   0.955  -0.174   8.868 -0.1865  0.6916  0.0117
  566MOL0     C76310   1.020  -0.295   8.812 -0.2668  0.2210 -0.3053
  566MOL0     O76311   1.152  -0.317   8.812 -0.3500  0.1110  0.4493
  566MOL0     C76312   1.237  -0.233   8.892  0.6780  0.0124  0.8420
  566MOL0     C76313   1.387  -0.271   8.871 -0.7597 -0.3459  1.1121
  566MOL0     C76314   1.466  -0.179   8.959 -0.8133 -0.6026 -0.5752
  566MOL0     C76315   1.622  -0.188   8.954 -0.9253  0.7643  1.2545
  566MOL0     C76316   1.695  -0.110   9.056 -0.4661 -0.5250 -1.3346
  566MOL0     C76317   1.657   0.036   9.040  0.8737 -0.5733 -0.6116
  566MOL0     C76318   1.767   0.128   9.097 -0.0384 -0.9168  0.1988
  566MOL0     C76319   1.748   0.280   9.090 -0.3916 -0.5502 -0.5691
  566MOL0    Cl76320   1.891   0.387   9.135  0.5640 -0.2537 -0.0681
  566MOL0     C76321   0.933  -0.397   8.765  0.1376 -0.1005 -0.4158
  566MOL0     C76322   0.799  -0.381   8.771 -0.1671 -0.8509 -0.2913
  566MOL0     O76323   0.582  -0.040   8.752  0.3495  0.4113  0.2849
  566MOL0     C76324   0.313  -0.042   8.786  0.9177  0.0025  0.3943
  566MOL0     C76325   0.177  -0.041   8.769  0.0600  0.4076 -0.0253
  566MOL0     N76326  -0.508  -0.160   8.956 -0.2526 -0.4133  0.5171
  566MOL0     N76327  -0.548  -0.179   9.072 -0.5481  0.3911  0.4882
  566MOL0     C76328   0.029  -0.050   9.797 -0.1190  0.4876  0.0138
  566MOL0     C76329   0.152  -0.003   9.755 -0.0826  0.1291  0.0551
  566MOL0     C76330   0.563   0.034   9.516  0.3311 -0.5522 -0.6925
  566MOL0     C76331   0.654   0.026   9.616 -0.7093 -0.1108 -0.4318
  566MOL0     C76332   0.788   0.045   9.591  0.0628 -0.1756  0.2185
  566MOL0     C76333   0.822   0.093   9.461  0.3503  0.2662 -0.2772
  566MOL0     O76334   0.953   0.147   9.423  0.1372 -0.4607  1.0922
  566MOL0     C76335   1.059   0.126   9.519 -0.1890 -0.6319 -0.0135
  566MOL0     C76336   1.056   0.234   9.624 -0.3503  0.0613  0.7059
  566MOL0     C76337   1.160   0.205   9.729  0.4323  0.4963 -0.1943
  566MOL0     C76338   1.154   0.299   9.843  0.3398  0.3788  0.3686
  566MOL0     C76339   1.287   0.315   9.902  1.4006 -0.7290  0.9170
  566MOL0     C76340   1.407   0.326   9.948  0.7613 -0.2537  0.1332
  566MOL0     C76341   0.732   0.081   9.353 -0.2387 -0.4792 -0.1923
  566MOL0     C76342   0.606   0.045   9.378 -0.1088 -0.4622 -0.6862
  566MOL0     H76343   0.287  -0.267   9.596 -0.5463  0.4096 -1.1435
  566MOL0     H76344   0.065  -0.363   9.648  0.1732  0.0088  3.1883
  566MOL0     H76345  -0.289  -0.108   9.841 -1.8097 -1.4106  0.2951
  566MOL0     H76346  -0.238  -0.103   9.666  4.3995 -0.3995  0.7750
  566MOL0     H76347  -0.330  -0.315   9.629 -0.3695  1.3187  0.1480
  566MOL0     H76348  -0.372  -0.330   9.808 -0.7811  0.9016  0.4799
  566MOL0     H76349  -0.572  -0.276   9.704  3.9896 -4.2874  0.4333
  566MOL0     H76350  -0.517  -0.120   9.773  0.9250  2.7925 -2.4048
  566MOL0     H76351  -0.444  -0.033   9.573 -2.9174  2.3960  0.2363
  566MOL0     H76352  -0.479  -0.184   9.474  1.6684  1.6116 -0.2020
  566MOL0     H76353  -0.720  -0.163   9.518 -0.6910 -0.1146  1.9100
  566MOL0     H76354  -0.690  -0.045   9.641  2.7451  0.4004  1.7513
  566MOL0     H76355  -0.788   0.043   9.450  0.1687 -0.1517  0.3351
  566MOL0     H76356  -0.625   0.121   9.486  3.4274 -1.6358  0.1516
  566MOL0     H76357  -0.633   0.135   9.260 -3.6928 -0.2558 -0.1073
  566MOL0     H76358  -0.525  -0.002   9.313 -0.0586 -0.3354  1.6823
  566MOL0     H76359  -0.819  -0.016   9.194  0.0857  1.2441 -0.1734
  566MOL0     H76360  -0.728  -0.151   9.246  1.7842 -0.2686 -0.1213
  566MOL0     H76361  -0.690   0.104   8.986 -3.6517 -2.7636 -1.8336
  566MOL0     H76362  -0.513  -0.064   8.688  5.4210 -1.8284  0.0844
  566MOL0     H76363  -0.536   0.109   8.728 -0.5515 -0.1953  1.2494
  566MOL0     H76364  -0.303   0.100   8.825 -1.4365  2.5788 -1.2815
  566MOL0     H76365  -0.316   0.089   8.639  2.6650 -2.4775 -1.6696
  566MOL0     H76366  -0.293  -0.133   8.624 -1.3486  1.9450 -0.4498
  566MOL0     H76367  -0.269  -0.170   8.801  1.2127  0.1757  0.4808
  566MOL0     H76368  -0.078   0.027   8.731 -4.4658  1.8776 -0.4331
  566MOL0     H76369  -0.094  -0.072   8.586  0.4942  0.0601  0.4296
  566MOL0     H76370   0.113  -0.365   8.738 -2.8863  2.0098  1.9303
  566MOL0     H76371   0.312  -0.491   8.693  0.8567 -0.2651  1.5787
  566MOL0     H76372   0.456  -0.397   8.636  0.1203 -1.1548  0.1907
  566MOL0     H76373   0.431  -0.442   8.809  2.6135  1.5931  0.4824
  566MOL0     H76374   0.773  -0.068   8.910 -0.2465 -0.9796 -0.4194
  566MOL0     H76375   1.016  -0.103   8.923 -1.9311  1.6161  0.8325
  566MOL0     H76376   1.235  -0.130   8.855  3.6301  0.1077  0.6540
  566MOL0     H76377   1.218  -0.249   8.998  1.6413  0.4047  1.0857
  566MOL0     H76378   1.408  -0.373   8.905 -3.0345 -1.2373  0.0623
  566MOL0     H76379   1.402  -0.272   8.763 -1.1765 -2.5285  1.0251
  566MOL0     H76380   1.442  -0.208   9.062 -0.2138  2.0066  0.3620
  566MOL0     H76381   1.432  -0.076   8.950 -0.9093 -0.4849  0.8474
  566MOL0     H76382   1.642  -0.293   8.979 -2.3864  0.0773 -0.2462
  566MOL0     H76383   1.663  -0.153   8.860 -2.1427  1.1554  0.8520
  566MOL0     H76384   1.803  -0.129   9.058  0.4079  3.4623 -0.9418
  566MOL0     H76385   1.658  -0.145   9.153  0.1874 -0.5589 -1.0879
  566MOL0     H76386   1.648   0.059   8.933 -3.0032  1.3139 -0.0378
  566MOL0     H76387   1.559   0.052   9.085  0.1387 -0.6180 -2.1527
  566MOL0     H76388   1.858   0.095   9.045 -2.0473 -2.8644 -2.3105
  566MOL0     H76389   1.784   0.101   9.202 -2.2951 -2.0291  0.3428
  566MOL0     H76390   1.663   0.310   9.152 -1.3063 -0.4959 -1.7851
  566MOL0     H76391   1.716   0.299   8.987 -0.1723 -1.3730 -0.7974
  566MOL0     H76392   0.981  -0.491   8.736  2.2195 -0.2573  3.0483
  566MOL0     H76393   0.728  -0.445   8.719  0.3519 -1.2229 -0.5494
  566MOL0     H76394   0.367   0.052   8.796  0.8415  0.5559 -3.1054
  566MOL0     H76395   0.132   0.057   8.776 -3.1752 -1.0661  2.6815
  566MOL0     H76396  -0.045   0.007   9.853  0.7074  2.2950 -0.6760
  566MOL0     H76397   0.185   0.097   9.782  1.3205  0.4532 -2.5467
  566MOL0     H76398   0.622   0.013   9.718 -2.4125 -0.1156 -0.9369
  566MOL0     H76399   0.850   0.042   9.680  2.1824  0.0356 -1.1846
  566MOL0     H76400   1.061   0.031   9.572 -0.3954 -0.1924  0.7899
  566MOL0     H76401   1.156   0.134   9.469 -0.3178  0.9311 -0.0622
  566MOL0     H76402   0.954   0.237   9.664 -0.1027 -0.3219  1.3772
  566MOL0     H76403   1.069   0.320   9.558  1.3849 -1.2988 -0.8126
  566MOL0     H76404   1.258   0.213   9.681  0.6596  0.1805  0.2101
  566MOL0     H76405   1.154   0.106   9.775 -0.0258 -0.2788 -1.8619
  566MOL0     H76406   1.094   0.256   9.924 -0.3656 -0.4048 -0.5464
  566MOL0     H76407   1.106   0.392   9.809  1.6721  1.7928  2.1627
  566MOL0     H76408   1.507   0.315   9.986  0.8796  2.2963  0.7853
  566MOL0     H76409   0.757   0.115   9.253 -1.2902 -0.5038 -0.4702
  566MOL0     H76410   0.537   0.053   9.294 -1.7231  0.4810  0.6504
  567MOL0     O76411   9.290   3.269  10.838  0.0938 -0.5634 -0.5222
  567MOL0     C76412   9.268   3.166  10.782 -0.5959  0.8058  0.5730
  567MOL0     O76413   9.150   3.128  10.723 -0.0453 -0.2640 -0.6209
  567MOL0     C76414   9.042   3.218  10.731  0.0438 -0.8873 -0.5760
  567MOL0     C76415   8.958   3.235  10.617 -0.7617 -0.9794 -0.7428
  567MOL0     C76416   8.854   3.326  10.619  0.1001 -0.1042  0.4928
  567MOL0     C76417   8.825   3.403  10.729  0.8254 -0.0793  0.5284
  567MOL0     O76418   8.746   3.512  10.726  0.4344 -0.2089  0.5229
  567MOL0     C76419   8.631   3.519  10.638  0.1963 -0.1912  0.1168
  567MOL0     C76420   8.536   3.641  10.674  0.4823  0.2102 -0.9822
  567MOL0     C76421   8.610   3.781  10.671 -0.6055 -0.4229 -0.0363
  567MOL0     C76422   8.545   3.884  10.763 -0.8442  0.5875  0.4213
  567MOL0     C76423   8.615   4.019  10.766 -0.5206  0.3617 -0.0873
  567MOL0     C76424   8.549   4.137  10.839 -0.1581  0.4940 -0.9554
  567MOL0     C76425   8.554   4.122  10.991  0.4327 -0.1135  0.3629
  567MOL0     C76426   8.463   4.222  11.062  0.9128  0.1364 -0.7684
  567MOL0     N76427   8.503   4.250  11.203  0.4026 -0.0454 -0.0833
  567MOL0     C76428   8.608   4.330  11.244  1.5074 -0.3939  0.0310
  567MOL0     C76429   8.588   4.325  11.383 -0.1224  0.3501  0.4381
  567MOL0     C76430   8.684   4.378  11.485 -0.1996  0.3930  0.9511
  567MOL0     C76431   8.792   4.272  11.523  0.2176 -0.9852  0.2694
  567MOL0     C76432   8.718   4.150  11.584  0.9049  1.1036 -0.0458
  567MOL0     C76433   8.638   4.165  11.715 -0.3607 -0.2645 -0.4753
  567MOL0     O76434   8.735   4.201  11.811 -0.2765  0.8225 -0.4153
  567MOL0     C76435   8.695   4.255  11.933 -0.0297  0.0576  0.8330
  567MOL0     C76436   8.760   4.365  11.996 -0.3226 -0.7949 -0.2297
  567MOL0     C76437   8.727   4.429  12.113 -0.1395  0.4412 -0.6171
  567MOL0     C76438   8.811   4.544  12.154  0.0052  0.5866 -0.0523
  567MOL0     C76439   8.607   4.379  12.177 -0.4761 -0.8525  0.5144
  567MOL0     C76440   8.559   4.433  12.303 -0.1376  0.8714 -0.4913
  567MOL0     O76441   8.447   4.367  12.361  0.1754 -0.9630  0.5362
  567MOL0     C76442   8.427   4.388  12.493  0.5764  0.3773 -0.2592
  567MOL0     C76443   8.295   4.405  12.522  1.1407  0.1072 -0.0085
  567MOL0     C76444   8.243   4.400  12.657 -0.3292 -1.1111  0.2811
  567MOL0     C76445   8.334   4.388  12.761  0.1706 -0.8047 -0.2770
  567MOL0     O76446   8.284   4.390  12.893 -0.2379  0.2440  1.3777
  567MOL0     C76447   8.377   4.344  13.005  0.3628  1.0312  0.0445
  567MOL0     C76448   8.279   4.295  13.117  0.3706 -0.1634  0.0204
  567MOL0     C76449   8.170   4.194  13.069 -1.0997  0.5892  0.1562
  567MOL0     C76450   8.218   4.072  12.980 -0.0481 -0.7819  0.9606
  567MOL0     C76451   8.116   3.962  12.949 -0.8904 -0.8832  0.4760
  567MOL0     C76452   8.164   3.865  12.842 -0.9118 -1.0954  1.0344
  567MOL0     C76453   8.213   3.928  12.708 -0.4272 -0.2111  0.5428
  567MOL0     C76454   8.198   3.831  12.597 -0.0314 -0.5375  0.5185
  567MOL0    Cl76455   8.335   3.707  12.595 -0.3790  0.3131  0.2830
  567MOL0     C76456   8.471   4.372  12.738 -0.6150  0.3891 -0.0257
  567MOL0     C76457   8.515   4.370  12.596  0.8992  0.1417 -0.2766
  567MOL0     O76458   8.616   4.521  12.356 -0.4121  0.1062  0.2230
  567MOL0     C76459   8.545   4.271  12.123 -0.0844  0.3503 -1.1472
  567MOL0     C76460   8.583   4.204  12.003  0.3353 -0.4327 -0.2132
  567MOL0     N76461   8.469   4.256  11.419 -0.7255 -0.0740  0.4583
  567MOL0     N76462   8.423   4.209  11.305  0.2046 -1.5728  0.4297
  567MOL0     C76463   8.893   3.377  10.853  1.2391 -0.5898  1.6315
  567MOL0     C76464   9.000   3.289  10.851 -0.7247  0.1879  0.3227
  567MOL0     C76465   9.377   3.066  10.770  0.8511 -0.1809  0.7516
  567MOL0     C76466   9.511   3.113  10.789  0.5336  1.1709  0.3632
  567MOL0     C76467   9.615   3.021  10.788 -0.2330 -1.0914 -0.7606
  567MOL0     C76468   9.592   2.881  10.761 -0.5292 -0.0659 -0.1195
  567MOL0     O76469   9.702   2.800  10.777 -0.4374  0.3096  0.0465
  567MOL0     C76470   9.679   2.660  10.756  0.0277 -0.4937  0.3763
  567MOL0     C76471   9.798   2.575  10.814  0.4493 -0.1496  0.2251
  567MOL0     C76472   9.928   2.590  10.728 -0.3852 -0.1691  0.1197
  567MOL0     C76473  10.038   2.502  10.796  1.4897  0.0837  0.1536
  567MOL0     C76474  10.142   2.452  10.702  0.9443 -0.6351  0.7583
  567MOL0     C76475  10.219   2.399  10.620  0.1619 -0.0260  0.4371
  567MOL0     C76476   9.466   2.844  10.737 -0.1947  0.7547 -0.0805
  567MOL0     C76477   9.360   2.929  10.742  0.5658  1.0415  0.5298
  567MOL0     H76478   8.983   3.183  10.525  0.3404  0.3523 -1.2299
  567MOL0     H76479   8.815   3.330  10.518 -1.4632  1.8344  1.1244
  567MOL0     H76480   8.671   3.523  10.537 -0.6195  0.4782 -0.1854
  567MOL0     H76481   8.560   3.437  10.645  0.3767 -0.4599 -1.1187
  567MOL0     H76482   8.452   3.644  10.605  0.5135  0.1541 -1.0223
  567MOL0     H76483   8.499   3.616  10.774  1.1412 -3.2672 -1.5004
  567MOL0     H76484   8.716   3.782  10.697 -1.2020  0.2742  2.7551
  567MOL0     H76485   8.605   3.817  10.568  1.8667 -0.3293 -0.1719
  567MOL0     H76486   8.442   3.907  10.733 -0.5685 -2.4152 -3.7996
  567MOL0     H76487   8.552   3.842  10.864  0.0162  2.2341  1.0861
  567MOL0     H76488   8.713   4.007  10.814 -1.2424 -0.2350  1.3109
  567MOL0     H76489   8.629   4.045  10.661 -1.6092 -2.6161 -1.0491
  567MOL0     H76490   8.609   4.227  10.821 -0.4091  1.3650  2.0153
  567MOL0     H76491   8.448   4.155  10.803  0.3964 -0.7834 -3.3970
  567MOL0     H76492   8.522   4.022  11.022 -1.2956  0.1018 -0.5673
  567MOL0     H76493   8.654   4.143  11.028  0.2171  1.1018  0.3131
  567MOL0     H76494   8.358   4.192  11.052  0.5783  1.4271 -1.4284
  567MOL0     H76495   8.467   4.317  11.008  1.5406  1.5134  1.5731
  567MOL0     H76496   8.680   4.383  11.182 -1.7165  2.4524 -1.6735
  567MOL0     H76497   8.743   4.463  11.449 -0.7060  1.4911  2.5980
  567MOL0     H76498   8.620   4.413  11.565 -1.5549  0.7931 -0.2760
  567MOL0     H76499   8.876   4.304  11.585  2.1559 -0.9861 -2.1889
  567MOL0     H76500   8.838   4.242  11.428 -1.4176 -1.6051 -0.3599
  567MOL0     H76501   8.795   4.077  11.610 -0.2571 -0.1980 -0.1879
  567MOL0     H76502   8.647   4.101  11.517 -1.4515 -2.1342  4.3249
  567MOL0     H76503   8.589   4.078  11.759 -0.2642  0.0500  0.2659
  567MOL0     H76504   8.563   4.244  11.706 -0.2486 -0.2153 -1.0347
  567MOL0     H76505   8.851   4.396  11.944 -0.9248 -0.6534 -1.2396
  567MOL0     H76506   8.739   4.623  12.175  0.8540  0.7708  2.5245
  567MOL0     H76507   8.887   4.540  12.232 -1.1614 -0.4039  1.0830
  567MOL0     H76508   8.863   4.577  12.064  1.6411 -3.3946 -0.7854
  567MOL0     H76509   8.227   4.402  12.438 -1.0644  0.9778  1.6502
  567MOL0     H76510   8.137   4.413  12.680 -0.3193 -0.9266  0.2295
  567MOL0     H76511   8.444   4.261  12.978 -2.1879 -1.4453  0.9346
  567MOL0     H76512   8.434   4.434  13.030 -0.0530  0.7908  1.9804
  567MOL0     H76513   8.341   4.248  13.194  0.9805  3.9607  2.3310
  567MOL0     H76514   8.217   4.378  13.152  0.5465  0.1961 -0.5090
  567MOL0     H76515   8.110   4.244  12.992 -3.5180  0.9395  2.1146
  567MOL0     H76516   8.122   4.165  13.163 -2.6489  0.7362 -0.5628
  567MOL0     H76517   8.251   4.121  12.888  1.2291 -2.3504  0.5236
  567MOL0     H76518   8.297   4.018  13.034  0.4033  0.6458  1.7853
  567MOL0     H76519   8.014   3.996  12.932 -0.6320  0.2629  1.0590
  567MOL0     H76520   8.115   3.912  13.046  2.1383 -0.4634  0.8183
  567MOL0     H76521   8.255   3.816  12.876  2.8019  2.5961 -2.3766
  567MOL0     H76522   8.087   3.788  12.831 -0.2061 -1.4048 -4.1349
  567MOL0     H76523   8.316   3.960  12.727 -1.5803  1.8200  4.2482
  567MOL0     H76524   8.151   4.014  12.679 -0.5199  0.2623  2.0713
  567MOL0     H76525   8.201   3.892  12.506 -3.0190  1.1193  1.3997
  567MOL0     H76526   8.101   3.782  12.589 -0.1212 -0.0505 -2.6981
  567MOL0     H76527   8.543   4.350  12.816  0.1121  0.4857 -0.6606
  567MOL0     H76528   8.618   4.346  12.571  1.7690  1.6921  1.5817
  567MOL0     H76529   8.453   4.237  12.170  0.6142  1.5493  1.2065
  567MOL0     H76530   8.514   4.124  11.977  2.4329 -1.8028 -1.8600
  567MOL0     H76531   8.870   3.436  10.941  2.0703  0.4170  1.1976
  567MOL0     H76532   9.067   3.289  10.937  1.2169  2.4830 -1.0802
  567MOL0     H76533   9.524   3.217  10.817  1.7576 -0.0608  5.4731
  567MOL0     H76534   9.719   3.039  10.813  0.2329 -1.7726 -2.0689
  567MOL0     H76535   9.589   2.632  10.812 -0.0652 -0.2474  0.3545
  567MOL0     H76536   9.661   2.636  10.651 -2.1526 -2.6091  1.1150
  567MOL0     H76537   9.767   2.471  10.828 -1.1365  0.5581  2.7028
  567MOL0     H76538   9.812   2.609  10.917 -2.1238 -0.1918  0.6427
  567MOL0     H76539   9.973   2.689  10.739  0.1979 -0.2232 -1.4907
  567MOL0     H76540   9.918   2.565  10.622  1.5192  0.0919 -0.1706
  567MOL0     H76541   9.988   2.420  10.849 -3.4177  3.4508  1.4181
  567MOL0     H76542  10.104   2.558  10.863  1.8622 -1.0157  0.7342
  567MOL0     H76543  10.279   2.354  10.543  0.8056 -0.7950  1.3617
  567MOL0     H76544   9.429   2.749  10.699 -4.2602  1.4595  1.5878
  567MOL0     H76545   9.257   2.899  10.731  1.4746 -1.4852 -3.1818
  568MOL0     O76546   1.017  10.453  10.974  0.1352 -0.5690  0.2311
  568MOL0     C76547   0.909  10.503  10.956  1.1925  0.1662 -0.1719
  568MOL0     O76548   0.820  10.466  10.860  0.5871 -0.6068 -0.7920
  568MOL0     C76549   0.855  10.367  10.770  0.5442 -0.1788 -0.5109
  568MOL0     C76550   0.934  10.395  10.661  0.5312 -0.8013 -0.1531
  568MOL0     C76551   0.972  10.301  10.564  0.1678  0.4721  0.6867
  568MOL0     C76552   0.925  10.164  10.572 -0.3004 -0.2415 -0.3856
  568MOL0     O76553   0.975  10.068  10.489  0.8581 -0.3346 -0.0765
  568MOL0     C76554   1.066  10.088  10.381  0.3846  0.4239 -0.2907
  568MOL0     C76555   1.103   9.969  10.289 -0.4131 -0.2708 -0.2279
  568MOL0     C76556   1.155  10.015  10.152 -0.3832  0.8498  0.9971
  568MOL0     C76557   1.100   9.934  10.037 -0.4550  0.1533 -0.4643
  568MOL0     C76558   1.141   9.976   9.893  0.0171  0.0684  0.3203
  568MOL0     C76559   1.074   9.886   9.783 -0.2345 -0.6090 -0.4995
  568MOL0     C76560   1.148   9.902   9.656  0.0509 -0.2270 -0.4324
  568MOL0     C76561   1.161  10.044   9.599  0.3338 -0.1858 -0.1612
  568MOL0     N76562   1.224  10.042   9.464  0.0408 -0.0093 -0.6575
  568MOL0     C76563   1.163  10.109   9.358 -0.7144  0.7526  0.0534
  568MOL0     C76564   1.253  10.095   9.255  0.3067 -0.8419 -0.4705
  568MOL0     C76565   1.237  10.155   9.127 -0.3732 -0.3650  0.0977
  568MOL0     C76566   1.292  10.059   9.025  0.1362  0.0420  0.8483
  568MOL0     C76567   1.242  10.105   8.893 -1.4712 -0.6623 -1.3037
  568MOL0     C76568   1.304  10.022   8.777  0.2753  0.8627 -0.0753
  568MOL0     O76569   1.449  10.025   8.770 -0.0376  0.2652 -0.9000
  568MOL0     C76570   1.490  10.126   8.686 -0.5865  0.1917  0.3866
  568MOL0     C76571   1.533  10.248   8.734 -0.2861  0.4089 -0.2889
  568MOL0     C76572   1.576  10.360   8.649 -0.9183  0.6623  0.3893
  568MOL0     C76573   1.618  10.493   8.707  0.3843 -0.0048 -0.0488
  568MOL0     C76574   1.566  10.336   8.507 -0.7937 -0.2327 -0.0277
  568MOL0     C76575   1.601  10.437   8.406  0.4524 -0.6225 -0.7448
  568MOL0     O76576   1.528  10.438   8.285 -0.3975 -0.1433 -0.3260
  568MOL0     C76577   1.584  10.510   8.184  0.8917  0.7111 -0.4831
  568MOL0     C76578   1.691  10.453   8.129 -0.2045 -0.4982  0.4341
  568MOL0     C76579   1.776  10.522   8.033 -0.3819 -0.5538  0.3434
  568MOL0     C76580   1.738  10.648   7.993  0.1658  0.0789  1.1484
  568MOL0     O76581   1.815  10.735   7.912 -0.8915  0.5046  0.7995
  568MOL0     C76582   1.915  10.680   7.830  0.3722 -0.1630  0.2544
  568MOL0     C76583   2.003  10.780   7.756 -0.5727 -0.1239 -0.0121
  568MOL0     C76584   1.939  10.843   7.640  0.9409 -0.4053 -0.0017
  568MOL0     C76585   1.793  10.888   7.661 -0.2161  0.4713  0.4273
  568MOL0     C76586   1.762  10.967   7.527  0.6257  0.0171  0.0973
  568MOL0     C76587   1.613  11.007   7.533 -0.2822 -0.7953 -0.5613
  568MOL0     C76588   1.590  11.157   7.498  0.2720 -0.0981 -0.4498
  568MOL0     C76589   1.638  11.252   7.604  0.7630  0.5078  0.1484
  568MOL0    Cl76590   1.509  11.262   7.744 -0.0518 -0.1978  0.6735
  568MOL0     C76591   1.613  10.703   8.038  0.1037  0.6058 -0.2466
  568MOL0     C76592   1.537  10.631   8.128  0.4974  1.1752 -0.0322
  568MOL0     O76593   1.709  10.491   8.424  0.0470 -0.0608  0.2026
  568MOL0     C76594   1.525  10.208   8.465  0.1599  0.3370  0.5024
  568MOL0     C76595   1.485  10.109   8.553  0.1239  0.9335  0.2118
  568MOL0     N76596   1.364  10.024   9.318 -0.7520  0.2099  0.4969
  568MOL0     N76597   1.345   9.994   9.439 -0.5295  0.2875  0.3318
  568MOL0     C76598   0.847  10.129  10.685  0.9837 -0.8316 -0.1411
  568MOL0     C76599   0.812  10.222  10.788  0.5873 -0.9539  0.1190
  568MOL0     C76600   0.872  10.607  11.049  0.4623 -0.5550 -0.2983
  568MOL0     C76601   0.962  10.674  11.128 -0.0807 -0.7467  0.8967
  568MOL0     C76602   0.920  10.768  11.220 -0.3064 -0.0804 -0.8135
  568MOL0     C76603   0.782  10.790  11.240 -0.2200  0.1589 -0.5550
  568MOL0     O76604   0.733  10.879  11.338  0.2350 -0.4854  0.1061
  568MOL0     C76605   0.820  10.928  11.442  0.0108  0.0032 -0.1324
  568MOL0     C76606   0.854  10.815  11.543  0.4240 -0.3321 -0.8322
  568MOL0     C76607   0.727  10.762  11.625 -0.1549 -0.0353 -0.2000
  568MOL0     C76608   0.677  10.876  11.712 -0.1950 -0.5735 -0.8770
  568MOL0     C76609   0.601  10.824  11.825 -0.9147 -0.5537  0.3721
  568MOL0     C76610   0.547  10.776  11.919  1.0990  0.5334 -0.7727
  568MOL0     C76611   0.689  10.733  11.157  0.4999 -1.1652 -0.6567
  568MOL0     C76612   0.730  10.635  11.065  0.3546  0.4209 -0.0522
  568MOL0     H76613   0.961  10.499  10.649  3.2417 -1.0294  2.8335
  568MOL0     H76614   1.040  10.336  10.487 -0.8288 -0.0602 -0.4591
  568MOL0     H76615   1.022  10.159  10.310  0.1494  0.9777  0.3984
  568MOL0     H76616   1.160  10.132  10.417  0.2097 -0.6492  1.5945
  568MOL0     H76617   1.185   9.911  10.332 -1.2735 -2.6862 -1.6689
  568MOL0     H76618   1.014   9.907  10.273 -1.3797  1.0272 -0.0425
  568MOL0     H76619   1.126  10.119  10.133 -0.2965  0.4523 -1.8293
  568MOL0     H76620   1.264  10.009  10.159 -0.1181  1.7738 -1.4161
  568MOL0     H76621   1.128   9.828  10.046 -4.7474 -1.2436 -1.1894
  568MOL0     H76622   0.991   9.935  10.042 -0.7069 -1.8924 -2.9743
  568MOL0     H76623   1.119  10.083   9.885  2.6836  0.8302  1.8347
  568MOL0     H76624   1.250   9.971   9.898 -0.0549 -0.4637  2.4718
  568MOL0     H76625   1.077   9.779   9.803 -2.1191 -0.5722  0.2189
  568MOL0     H76626   0.972   9.916   9.758  0.3908  0.8574 -1.4354
  568MOL0     H76627   1.251   9.866   9.663  0.9802  1.9476 -1.9405
  568MOL0     H76628   1.103   9.834   9.582 -0.4120  0.7604 -1.0834
  568MOL0     H76629   1.234  10.094   9.663  0.5284 -0.7843  0.0877
  568MOL0     H76630   1.069  10.103   9.596  0.9214  0.7698  0.1456
  568MOL0     H76631   1.067  10.160   9.362 -0.6475  0.8361  0.9759
  568MOL0     H76632   1.134  10.189   9.112 -0.2509 -0.1710 -0.2978
  568MOL0     H76633   1.295  10.247   9.131  2.1853 -1.9265  2.2532
  568MOL0     H76634   1.257   9.957   9.045 -2.4422  0.8141  0.6672
  568MOL0     H76635   1.401  10.070   9.029  0.0905  1.0431 -0.3012
  568MOL0     H76636   1.275  10.208   8.877  0.7471 -1.1718 -0.3859
  568MOL0     H76637   1.133  10.096   8.891 -1.5460 -0.8810  1.1276
  568MOL0     H76638   1.265  10.060   8.683  2.0793  1.4628 -0.6123
  568MOL0     H76639   1.276   9.916   8.783  3.4567 -0.0801  0.0149
  568MOL0     H76640   1.527  10.261   8.842 -0.0734 -3.4241  0.3313
  568MOL0     H76641   1.718  10.512   8.665  0.8054 -4.7724 -1.8062
  568MOL0     H76642   1.559  10.574   8.664  0.3835  0.9985  1.7579
  568MOL0     H76643   1.618  10.495   8.816  3.3749 -0.4899  0.0433
  568MOL0     H76644   1.723  10.361   8.176 -0.6209 -0.6645  0.3908
  568MOL0     H76645   1.868  10.472   8.004 -1.9992 -2.7748 -1.3128
  568MOL0     H76646   1.982  10.622   7.894  1.3694  0.4217 -0.2390
  568MOL0     H76647   1.861  10.617   7.759  1.7993 -2.0054  0.7265
  568MOL0     H76648   2.035  10.855   7.829  1.2813 -1.6704  0.8659
  568MOL0     H76649   2.091  10.721   7.728  0.5308  2.3786 -2.3202
  568MOL0     H76650   1.937  10.769   7.560  0.4684  0.6020 -0.9524
  568MOL0     H76651   2.000  10.933   7.625  0.7343 -0.0556  1.1675
  568MOL0     H76652   1.729  10.799   7.661  1.2915 -0.7752 -2.3242
  568MOL0     H76653   1.779  10.950   7.749 -0.8018  1.0624 -0.0763
  568MOL0     H76654   1.776  10.901   7.441  0.7389  1.0272 -0.6717
  568MOL0     H76655   1.818  11.058   7.504 -1.0449  1.7700  2.4894
  568MOL0     H76656   1.556  10.951   7.459 -2.8926 -3.0398  2.7944
  568MOL0     H76657   1.566  10.978   7.628  0.3643  3.1930  1.1715
  568MOL0     H76658   1.481  11.166   7.498  0.2291 -0.4839  0.6658
  568MOL0     H76659   1.635  11.193   7.405  2.8983 -0.1027  0.7331
  568MOL0     H76660   1.649  11.350   7.558 -0.0440  0.4658 -0.1457
  568MOL0     H76661   1.727  11.217   7.658 -1.2841  2.5789  5.5133
  568MOL0     H76662   1.578  10.793   7.989 -1.2824  0.7543  0.9338
  568MOL0     H76663   1.444  10.682   8.153 -0.1391  0.6128 -1.1924
  568MOL0     H76664   1.507  10.180   8.362 -2.3404 -1.5172  1.3340
  568MOL0     H76665   1.442  10.018   8.512  0.4998 -0.1885  2.1829
  568MOL0     H76666   0.819  10.024  10.680  0.4120 -0.6287 -2.0218
  568MOL0     H76667   0.754  10.207  10.878  0.1779  0.6295  0.1583
  568MOL0     H76668   1.068  10.653  11.122  0.0918  0.6112 -2.1937
  568MOL0     H76669   0.994  10.817  11.282 -1.3954 -1.0937  1.3974
  568MOL0     H76670   0.905  10.974  11.390  0.0437  1.6255  1.2823
  568MOL0     H76671   0.765  11.007  11.493  1.7536  0.7204  0.7357
  568MOL0     H76672   0.931  10.850  11.613  0.5537 -1.1237 -0.5637
  568MOL0     H76673   0.906  10.732  11.495  1.0802  1.0101 -2.5363
  568MOL0     H76674   0.753  10.672  11.681 -0.6167 -0.2286 -0.2835
  568MOL0     H76675   0.645  10.734  11.558 -0.7414  2.2156 -0.5183
  568MOL0     H76676   0.617  10.944  11.652  0.8237 -1.3412 -2.8665
  568MOL0     H76677   0.759  10.926  11.765  0.9964 -3.8368  0.6738
  568MOL0     H76678   0.479  10.730  11.988 -1.5037  0.6658 -3.0322
  568MOL0     H76679   0.589  10.773  11.169  0.7320 -0.9230  0.5905
  568MOL0     H76680   0.651  10.583  11.011  0.8623 -0.7436  0.2904
  569MOL0     O76681   9.258   4.879   4.695 -0.4756  0.2568 -0.6653
  569MOL0     C76682   9.188   4.791   4.739  1.0781 -0.2952 -0.3611
  569MOL0     O76683   9.207   4.730   4.852  0.6901  0.1906 -0.8988
  569MOL0     C76684   9.322   4.761   4.932 -0.1505 -0.1119  0.9552
  569MOL0     C76685   9.421   4.664   4.953 -0.0278 -0.8520  1.0139
  569MOL0     C76686   9.537   4.698   5.025 -0.7920  0.4141 -0.1853
  569MOL0     C76687   9.534   4.822   5.094 -0.4970  0.5590 -0.8668
  569MOL0     O76688   9.645   4.840   5.179  0.4377  0.6537 -0.3073
  569MOL0     C76689   9.678   4.977   5.208 -0.4267  0.6540 -1.3307
  569MOL0     C76690   9.792   4.967   5.294 -0.5363  0.2242 -0.0233
  569MOL0     C76691   9.910   5.041   5.241 -0.3257 -0.0379  0.3605
  569MOL0     C76692   9.883   5.186   5.275 -0.6317  0.0825  0.3721
  569MOL0     C76693  10.020   5.267   5.246  0.8765  1.0812  0.6018
  569MOL0     C76694  10.059   5.257   5.094 -0.4036  0.6214 -0.1143
  569MOL0     C76695  10.185   5.349   5.063  0.3413 -0.0325  0.2299
  569MOL0     C76696  10.315   5.283   5.109  1.0708  0.1522  0.0993
  569MOL0     N76697  10.437   5.364   5.091 -0.2349  0.1785  0.3358
  569MOL0     C76698  10.523   5.345   4.986  0.4006 -0.6501  0.1193
  569MOL0     C76699  10.622   5.438   5.001  0.4114 -0.7989 -0.5046
  569MOL0     C76700  10.741   5.446   4.913  0.3714 -0.2459 -0.5582
  569MOL0     C76701  10.722   5.503   4.773 -0.4009  0.5320  0.7159
  569MOL0     C76702  10.829   5.600   4.755 -0.1454 -0.3657 -0.0854
  569MOL0     C76703  10.813   5.686   4.630  0.7403  0.7678  0.3252
  569MOL0     O76704  10.921   5.655   4.538 -0.4105 -0.0502 -0.2803
  569MOL0     C76705  10.921   5.718   4.415  0.0293  0.0997 -0.5705
  569MOL0     C76706  10.847   5.833   4.400 -0.0699  1.3964 -0.0496
  569MOL0     C76707  10.845   5.915   4.283  0.0480  0.0066  0.6488
  569MOL0     C76708  10.720   6.004   4.271  0.2246  0.2375  0.5123
  569MOL0     C76709  10.930   5.876   4.177  0.1469 -0.3308  0.2630
  569MOL0     C76710  10.931   5.946   4.049  0.2650 -0.8815  0.3497
  569MOL0     O76711  11.013   5.900   3.952  0.2817 -0.1549 -0.3206
  569MOL0     C76712  11.018   5.955   3.826  0.5090 -0.4666  0.0124
  569MOL0     C76713  10.982   5.888   3.707  0.8383  0.3965 -1.3746
  569MOL0     C76714  10.997   5.949   3.578  1.1161 -0.7935 -0.1827
  569MOL0     C76715  11.050   6.077   3.570  0.3599 -0.2775 -0.1696
  569MOL0     O76716  11.053   6.145   3.454  0.1793  0.6293 -0.4482
  569MOL0     C76717  10.984   6.097   3.332 -0.8086 -0.2055  0.8807
  569MOL0     C76718  11.020   6.198   3.224  0.4615  0.3990 -0.0841
  569MOL0     C76719  10.994   6.153   3.083  0.3496  0.2360  1.5220
  569MOL0     C76720  11.068   6.017   3.040  0.1965  0.1154  0.3921
  569MOL0     C76721  11.005   5.959   2.924 -0.5831 -0.4769  0.2632
  569MOL0     C76722  10.863   5.922   2.928 -0.1745 -0.6756 -0.3967
  569MOL0     C76723  10.824   5.851   2.798 -0.4352  0.9701 -0.5184
  569MOL0     C76724  10.883   5.722   2.764  1.1243  0.7907 -0.4567
  569MOL0    Cl76725  10.851   5.678   2.590  0.0870  0.0591  0.1952
  569MOL0     C76726  11.088   6.146   3.691 -0.2102  0.0774 -0.1294
  569MOL0     C76727  11.071   6.085   3.815  0.5387  0.1552 -0.5946
  569MOL0     O76728  10.856   6.033   4.033 -0.0961 -0.5095 -0.0609
  569MOL0     C76729  11.009   5.764   4.197  0.5413  0.7450 -0.6041
  569MOL0     C76730  11.006   5.688   4.316  0.1329 -0.3314  0.1097
  569MOL0     N76731  10.590   5.512   5.113  0.4930  0.1813  0.2152
  569MOL0     N76732  10.478   5.468   5.162 -1.1130  0.0480  0.1344
  569MOL0     C76733   9.432   4.911   5.078 -1.0634  0.6927 -0.5059
  569MOL0     C76734   9.321   4.880   5.007 -0.1438  0.2531 -0.7379
  569MOL0     C76735   9.068   4.760   4.656  0.3816  0.6996  0.8489
  569MOL0     C76736   9.066   4.816   4.527  0.4946  0.1828 -0.0284
  569MOL0     C76737   8.953   4.795   4.446 -1.2803  0.7332  0.2252
  569MOL0     C76738   8.844   4.726   4.491  0.0524 -1.0613 -0.9382
  569MOL0     O76739   8.739   4.708   4.404  0.6549 -0.8498  0.0741
  569MOL0     C76740   8.632   4.815   4.394  0.7770 -0.1583 -0.5197
  569MOL0     C76741   8.579   4.828   4.250 -0.5813 -0.0409  0.9179
  569MOL0     C76742   8.702   4.861   4.168 -0.5580 -0.0767  0.8343
  569MOL0     C76743   8.683   4.888   4.010  0.2317  0.0161  1.0628
  569MOL0     C76744   8.594   4.995   3.974  0.6613 -0.5675  0.7306
  569MOL0     C76745   8.512   5.076   3.944  1.2649  0.5222  0.5208
  569MOL0     C76746   8.847   4.673   4.624 -0.5854 -0.0207  0.0469
  569MOL0     C76747   8.967   4.676   4.697  0.0815  0.0199  0.6827
  569MOL0     H76748   9.399   4.566   4.912 -3.0844  0.1002  0.1245
  569MOL0     H76749   9.615   4.623   5.035 -0.5311  0.3152 -2.5272
  569MOL0     H76750   9.689   5.027   5.111 -1.1242 -2.4414 -3.1353
  569MOL0     H76751   9.605   5.034   5.266 -0.3941  0.8487 -1.4766
  569MOL0     H76752   9.785   4.994   5.400  2.9075 -0.9776  0.6165
  569MOL0     H76753   9.814   4.860   5.298 -0.2676  0.3073  2.6708
  569MOL0     H76754  10.006   4.998   5.272  0.3475  1.4425  0.4177
  569MOL0     H76755   9.918   5.028   5.132  0.8863  3.3534 -0.0727
  569MOL0     H76756   9.806   5.230   5.212  3.7284  1.3373 -4.8214
  569MOL0     H76757   9.857   5.201   5.380  1.5438  0.7327  0.8798
  569MOL0     H76758  10.005   5.367   5.286  1.5095  2.1933 -1.7917
  569MOL0     H76759  10.096   5.227   5.315  3.0481 -0.2286 -2.3581
  569MOL0     H76760  10.086   5.154   5.071  0.3174  0.6852  0.4240
  569MOL0     H76761   9.973   5.285   5.032  0.8340  0.5295 -1.9324
  569MOL0     H76762  10.177   5.381   4.959  1.5491  0.6686  0.3366
  569MOL0     H76763  10.182   5.442   5.120  1.4649 -0.1492  0.4980
  569MOL0     H76764  10.322   5.190   5.052  0.6448  0.3834 -0.3402
  569MOL0     H76765  10.308   5.254   5.214 -2.0247  0.9176  0.1992
  569MOL0     H76766  10.523   5.271   4.906 -2.9980 -0.3544 -0.3030
  569MOL0     H76767  10.798   5.513   4.978  0.4063 -2.5077  1.9533
  569MOL0     H76768  10.808   5.360   4.924 -1.5084 -1.5351  2.4235
  569MOL0     H76769  10.622   5.547   4.767 -0.6838 -0.2306 -0.6661
  569MOL0     H76770  10.716   5.426   4.695 -1.2948 -0.9279  2.1653
  569MOL0     H76771  10.929   5.558   4.747  0.2467 -0.0293  2.3380
  569MOL0     H76772  10.820   5.679   4.831 -2.3711 -1.3188  0.7361
  569MOL0     H76773  10.834   5.788   4.661  1.2254  0.7187  0.1691
  569MOL0     H76774  10.715   5.680   4.581  0.8002 -2.8678  0.3462
  569MOL0     H76775  10.770   5.865   4.469 -1.3670 -0.1940 -0.6998
  569MOL0     H76776  10.669   5.977   4.178  1.2268 -0.7068  0.2071
  569MOL0     H76777  10.648   5.983   4.350  1.5311  1.9045  2.2384
  569MOL0     H76778  10.737   6.111   4.261 -0.0246  0.4077  1.7590
  569MOL0     H76779  10.932   5.792   3.708  1.0367  0.2905 -0.2616
  569MOL0     H76780  10.933   5.913   3.498  0.3854  4.3215 -2.2436
  569MOL0     H76781  11.019   5.995   3.317  0.8917  0.1755  1.9452
  569MOL0     H76782  10.876   6.091   3.346 -1.7629  2.2169 -3.5873
  569MOL0     H76783  10.961   6.289   3.242 -0.2287 -0.4542  2.3776
  569MOL0     H76784  11.124   6.226   3.243  0.9143 -0.8693 -0.6330
  569MOL0     H76785  11.034   6.228   3.014  2.0497 -3.2899 -1.6659
  569MOL0     H76786  10.887   6.133   3.071  1.0751 -2.9682 -1.0711
  569MOL0     H76787  11.174   6.042   3.035 -0.0190  0.7283 -2.1108
  569MOL0     H76788  11.055   5.942   3.119  3.2241 -0.5216  0.4304
  569MOL0     H76789  11.066   5.869   2.916 -0.6091 -0.4376 -0.4085
  569MOL0     H76790  11.017   6.033   2.843 -1.4484  1.2091  1.5978
  569MOL0     H76791  10.854   5.848   3.008 -0.9162 -2.1080 -1.7467
  569MOL0     H76792  10.797   6.008   2.942  2.6084  2.0496 -2.6009
  569MOL0     H76793  10.845   5.917   2.713  0.4886  1.3663  0.0089
  569MOL0     H76794  10.715   5.834   2.799  0.0329 -3.0835  1.0674
  569MOL0     H76795  10.848   5.648   2.835  0.0061 -2.6753 -4.2547
  569MOL0     H76796  10.990   5.730   2.784  1.0724  1.7354 -0.4907
  569MOL0     H76797  11.136   6.243   3.696 -2.5402  1.2659  0.4611
  569MOL0     H76798  11.115   6.136   3.900  0.2362 -0.8634  0.1819
  569MOL0     H76799  11.077   5.734   4.118  1.0532  0.6654 -0.1360
  569MOL0     H76800  11.068   5.602   4.339  0.2381 -0.5959 -1.1073
  569MOL0     H76801   9.444   5.009   5.122  0.6602 -0.8542  2.8724
  569MOL0     H76802   9.238   4.951   4.998 -0.4450  0.3331  1.7181
  569MOL0     H76803   9.144   4.882   4.491 -1.0153  2.5333  0.7419
  569MOL0     H76804   8.936   4.841   4.349 -0.1165 -1.2818 -0.9948
  569MOL0     H76805   8.542   4.799   4.454  0.1518  0.7284 -1.2014
  569MOL0     H76806   8.674   4.911   4.426 -0.7724  0.8301 -1.3476
  569MOL0     H76807   8.496   4.898   4.239 -1.4780 -1.2162 -0.1646
  569MOL0     H76808   8.542   4.730   4.218 -0.7486  0.2065  0.3482
  569MOL0     H76809   8.773   4.777   4.164 -0.2069  0.2470 -0.0952
  569MOL0     H76810   8.755   4.946   4.210  3.1514 -0.3651 -2.6300
  569MOL0     H76811   8.644   4.799   3.958 -0.7073  1.6297 -1.1617
  569MOL0     H76812   8.779   4.908   3.963 -0.0726  0.0177  0.4229
  569MOL0     H76813   8.448   5.155   3.910  0.9037  0.2651  0.5912
  569MOL0     H76814   8.770   4.613   4.671  1.5541 -2.6382  0.5083
  569MOL0     H76815   8.976   4.617   4.788 -1.3115 -3.3382 -1.1528
  570MOL0     O76816  10.266   7.816   7.021 -0.3004  0.3929 -0.0507
  570MOL0     C76817  10.182   7.724   7.020 -0.3145 -0.1263  0.5435
  570MOL0     O76818  10.199   7.598   6.974 -1.3494 -0.0664 -0.3889
  570MOL0     C76819  10.321   7.557   6.937 -0.9458  0.0712  0.9824
  570MOL0     C76820  10.322   7.430   6.887  0.2978  0.4025 -0.3233
  570MOL0     C76821  10.438   7.345   6.860  0.4772  0.1002 -0.4727
  570MOL0     C76822  10.562   7.405   6.882 -0.8644 -0.2866  0.0590
  570MOL0     O76823  10.683   7.342   6.873  0.2056  0.1354 -0.6591
  570MOL0     C76824  10.696   7.201   6.879 -0.3607  0.4198 -0.1802
  570MOL0     C76825  10.841   7.170   6.910 -0.0813 -0.1516  0.6660
  570MOL0     C76826  10.943   7.241   6.822  0.6097 -0.9832 -0.4649
  570MOL0     C76827  11.095   7.217   6.881  0.7844  0.2891 -0.0000
  570MOL0     C76828  11.191   7.313   6.816 -0.1754  0.0190  0.4378
  570MOL0     C76829  11.338   7.306   6.870 -0.0616  0.2105  1.2125
  570MOL0     C76830  11.449   7.377   6.785  0.6649  0.2858 -0.1227
  570MOL0     C76831  11.425   7.534   6.792 -0.2797 -0.0401 -0.7492
  570MOL0     N76832  11.317   7.575   6.696  0.6022  0.5952  0.0468
  570MOL0     C76833  11.218   7.657   6.733 -0.6272  0.1753  0.4288
  570MOL0     C76834  11.149   7.671   6.620 -0.8170  0.0335 -1.0146
  570MOL0     C76835  11.020   7.735   6.615 -0.3384  0.0184  0.8304
  570MOL0     C76836  10.900   7.646   6.651 -0.3514 -0.4550 -0.6981
  570MOL0     C76837  10.894   7.537   6.546  0.1181 -0.1020  0.2210
  570MOL0     C76838  10.762   7.462   6.554  0.4398 -0.2179  0.4193
  570MOL0     O76839  10.757   7.330   6.495  0.2999 -0.3070  0.2511
  570MOL0     C76840  10.642   7.268   6.455 -0.1981 -0.7273  0.6236
  570MOL0     C76841  10.511   7.312   6.491 -0.0502 -0.0625  0.2459
  570MOL0     C76842  10.407   7.233   6.463  0.1658  0.4449  0.1750
  570MOL0     C76843  10.279   7.286   6.521 -0.2947  0.3783  0.9856
  570MOL0     C76844  10.416   7.107   6.401 -0.4484  0.9207  0.7504
  570MOL0     C76845  10.303   7.010   6.386 -0.5302  0.0989  0.4643
  570MOL0     O76846  10.335   6.902   6.310  0.1267  0.3251  0.2435
  570MOL0     C76847  10.259   6.786   6.298  0.8368  0.3878  0.1709
  570MOL0     C76848  10.287   6.712   6.178  0.0865  1.0484 -0.4412
  570MOL0     C76849  10.245   6.585   6.167  0.1488 -0.8690  0.4658
  570MOL0     C76850  10.163   6.523   6.256 -0.2295 -0.1253 -0.1134
  570MOL0     O76851  10.100   6.401   6.259  0.7722  0.7191 -0.6118
  570MOL0     C76852  10.144   6.292   6.169  0.6527  0.2800  0.2345
  570MOL0     C76853  10.013   6.225   6.116  0.3540 -0.7911 -1.7047
  570MOL0     C76854   9.962   6.114   6.206  1.2861  0.3929  0.4629
  570MOL0     C76855   9.836   6.046   6.149 -0.4713 -0.0758  0.3922
  570MOL0     C76856   9.794   5.921   6.243  0.9186  0.2886 -0.1264
  570MOL0     C76857   9.719   5.809   6.161  0.4828 -0.5659  0.3583
  570MOL0     C76858   9.581   5.852   6.115 -1.1795  0.6674 -0.2424
  570MOL0     C76859   9.514   5.749   6.018  0.3366  1.0851 -0.4103
  570MOL0    Cl76860   9.490   5.574   6.075  0.2727 -0.1137  0.1714
  570MOL0     C76861  10.131   6.598   6.372  0.9294 -0.2785  0.5140
  570MOL0     C76862  10.182   6.724   6.395  0.2705 -0.7616 -0.1921
  570MOL0     O76863  10.196   7.024   6.444 -0.3205  0.1056  0.1902
  570MOL0     C76864  10.547   7.076   6.364 -0.5335  0.1563 -0.0432
  570MOL0     C76865  10.660   7.156   6.385 -0.0147  0.1518  0.1770
  570MOL0     N76866  11.201   7.588   6.519  0.0034  0.3504  0.0572
  570MOL0     N76867  11.304   7.532   6.565 -0.0806 -1.8136  1.0078
  570MOL0     C76868  10.572   7.532   6.916 -0.2195  0.9689 -0.2409
  570MOL0     C76869  10.458   7.605   6.950  0.4498  0.1101 -0.7601
  570MOL0     C76870  10.038   7.771   7.048 -0.3076 -0.4292  0.5090
  570MOL0     C76871  10.010   7.860   7.146  0.7245 -0.9158  0.2860
  570MOL0     C76872   9.877   7.885   7.171 -0.8224  0.7988 -0.3131
  570MOL0     C76873   9.775   7.830   7.101  0.6855  0.3165 -0.8250
  570MOL0     O76874   9.650   7.860   7.133 -0.2076  0.0646 -0.0571
  570MOL0     C76875   9.531   7.821   7.063  0.4845  0.5397 -0.6344
  570MOL0     C76876   9.410   7.890   7.132  0.3808 -0.6774 -0.0294
  570MOL0     C76877   9.291   7.815   7.068 -0.0355 -0.8682  0.6427
  570MOL0     C76878   9.156   7.847   7.142  0.7842  0.2808  0.5821
  570MOL0     C76879   9.058   7.777   7.064  1.0005  0.3912 -1.2090
  570MOL0     C76880   8.970   7.735   6.991 -1.5247 -0.2156 -0.0867
  570MOL0     C76881   9.815   7.736   6.999 -0.2264  0.3177 -0.0538
  570MOL0     C76882   9.945   7.711   6.971 -1.0343  0.5793 -0.1259
  570MOL0     H76883  10.225   7.386   6.866 -0.6223  1.8184  0.7164
  570MOL0     H76884  10.430   7.239   6.837 -1.3538  0.0778  0.1461
  570MOL0     H76885  10.648   7.152   6.964  0.5517 -0.5510 -0.1993
  570MOL0     H76886  10.659   7.147   6.791  0.5652 -1.2252  0.3805
  570MOL0     H76887  10.851   7.202   7.014  0.5571 -2.4011  1.3545
  570MOL0     H76888  10.855   7.062   6.900  1.3401 -0.0311  1.1935
  570MOL0     H76889  10.940   7.189   6.726  0.0089  0.9394 -1.5396
  570MOL0     H76890  10.929   7.349   6.811  0.0945 -0.6810  2.2764
  570MOL0     H76891  11.092   7.232   6.990  0.2864 -0.0677  0.0383
  570MOL0     H76892  11.125   7.113   6.866  0.1082 -0.1566  1.5065
  570MOL0     H76893  11.188   7.298   6.708 -1.5667  0.1509  0.4351
  570MOL0     H76894  11.157   7.415   6.838  0.5542  0.8841 -2.1271
  570MOL0     H76895  11.342   7.336   6.975  1.4859  2.6821  0.5059
  570MOL0     H76896  11.363   7.200   6.861 -1.9980 -0.1308 -2.2572
  570MOL0     H76897  11.548   7.356   6.826 -0.4690 -2.5545  1.4643
  570MOL0     H76898  11.445   7.347   6.680  1.9942 -0.4716  0.0147
  570MOL0     H76899  11.517   7.576   6.750  0.3692 -1.3974 -0.7574
  570MOL0     H76900  11.396   7.578   6.888 -0.7020 -2.4857  0.3422
  570MOL0     H76901  11.194   7.697   6.831  0.3584  0.7211  0.4553
  570MOL0     H76902  11.012   7.823   6.680 -0.6023  1.2668 -0.8094
  570MOL0     H76903  10.999   7.769   6.513 -1.8186 -0.3925  0.9775
  570MOL0     H76904  10.806   7.702   6.655  0.1973  0.4067  1.1304
  570MOL0     H76905  10.937   7.597   6.742  1.6361 -1.4135 -1.9584
  570MOL0     H76906  10.973   7.465   6.569  2.6750  2.9797  2.0279
  570MOL0     H76907  10.912   7.566   6.442 -4.1925 -1.1748 -1.0384
  570MOL0     H76908  10.683   7.532   6.522  0.8323 -0.0612 -0.2415
  570MOL0     H76909  10.740   7.446   6.660 -0.0395 -0.6909  0.2585
  570MOL0     H76910  10.495   7.397   6.557 -1.4541  1.6532 -2.1423
  570MOL0     H76911  10.255   7.237   6.615 -2.6358 -0.6498 -0.0646
  570MOL0     H76912  10.290   7.394   6.535 -0.3586  0.4272  0.6698
  570MOL0     H76913  10.194   7.274   6.453  0.6589 -0.2515 -0.1306
  570MOL0     H76914  10.358   6.747   6.103 -0.2241  3.3507  0.2572
  570MOL0     H76915  10.295   6.540   6.082  1.5517  0.1846  0.6974
  570MOL0     H76916  10.201   6.334   6.085 -0.7809  0.7231 -0.5448
  570MOL0     H76917  10.209   6.219   6.218  0.9198  0.2205 -0.2049
  570MOL0     H76918   9.946   6.312   6.112  0.5057 -0.6766 -1.7346
  570MOL0     H76919  10.035   6.180   6.019 -1.4302 -2.0685 -1.5848
  570MOL0     H76920   9.949   6.162   6.304  3.6031  1.8913  0.1288
  570MOL0     H76921  10.043   6.040   6.205  0.9613  0.0418 -0.4300
  570MOL0     H76922   9.749   6.111   6.135  1.1776  1.8186 -1.8726
  570MOL0     H76923   9.861   6.010   6.048  1.4362  2.9078 -0.3390
  570MOL0     H76924   9.729   5.944   6.329  1.2352  1.3322 -0.1642
  570MOL0     H76925   9.879   5.859   6.274  0.0387 -1.7557 -1.5875
  570MOL0     H76926   9.774   5.787   6.068 -0.4337 -3.1174  0.3320
  570MOL0     H76927   9.716   5.714   6.216  1.7691 -0.9493 -0.1786
  570MOL0     H76928   9.592   5.950   6.068  2.6976 -0.9867 -3.5139
  570MOL0     H76929   9.516   5.860   6.202 -1.6647 -0.9699 -0.4243
  570MOL0     H76930   9.561   5.743   5.920  0.3523 -1.9658 -0.3264
  570MOL0     H76931   9.418   5.793   5.988  0.8867  0.6769 -3.0240
  570MOL0     H76932  10.061   6.554   6.443 -1.6034 -0.2711 -1.7901
  570MOL0     H76933  10.170   6.777   6.489 -1.0542  2.0386 -1.7882
  570MOL0     H76934  10.574   6.982   6.317  0.8432  0.8881 -0.8031
  570MOL0     H76935  10.761   7.130   6.355  0.5502  1.3288  0.9588
  570MOL0     H76936  10.671   7.575   6.925 -0.0862  0.9296 -1.3437
  570MOL0     H76937  10.474   7.706   6.988  5.1439  0.0426 -1.8519
  570MOL0     H76938  10.080   7.908   7.214  0.1637 -0.7929  0.7848
  570MOL0     H76939   9.850   7.956   7.249 -1.1050 -1.9820  2.2916
  570MOL0     H76940   9.535   7.843   6.956  1.8653  0.1302 -0.6851
  570MOL0     H76941   9.520   7.713   7.067 -2.3856  0.7051 -2.1031
  570MOL0     H76942   9.403   7.997   7.113  0.3889 -0.7669 -0.5557
  570MOL0     H76943   9.395   7.870   7.239 -5.0629 -3.2886 -0.9210
  570MOL0     H76944   9.309   7.708   7.055  3.6789 -0.4267  1.1324
  570MOL0     H76945   9.286   7.861   6.969 -1.5575  1.6092  1.7749
  570MOL0     H76946   9.132   7.952   7.124 -0.9868 -0.5478 -2.8961
  570MOL0     H76947   9.155   7.822   7.249 -1.3960  0.4236  0.6333
  570MOL0     H76948   8.891   7.704   6.926 -2.2940  3.7875 -1.3454
  570MOL0     H76949   9.744   7.694   6.928 -0.3079  0.6659 -0.1791
  570MOL0     H76950   9.961   7.650   6.882 -1.0238 -0.0340  0.2967
  571MOL0     O76951   4.005   0.836   6.541  0.3897 -0.0619  0.5651
  571MOL0     C76952   4.057   0.940   6.585 -0.7031 -0.8545  0.2814
  571MOL0     O76953   4.014   1.064   6.566 -0.6152 -0.6255  0.8620
  571MOL0     C76954   3.927   1.104   6.466  1.4671 -0.8370 -0.2192
  571MOL0     C76955   3.871   1.021   6.368 -0.2616 -0.1476  1.0768
  571MOL0     C76956   3.783   1.075   6.278  0.7300 -0.3459  0.3770
  571MOL0     C76957   3.754   1.210   6.276  0.7556 -0.3788 -0.2396
  571MOL0     O76958   3.674   1.245   6.166 -0.0351  0.6817  0.0307
  571MOL0     C76959   3.649   1.386   6.141 -0.3951  0.4512 -0.0935
  571MOL0     C76960   3.596   1.420   5.996  0.4026  0.7965 -0.1353
  571MOL0     C76961   3.458   1.344   5.974  0.6872 -0.1772  0.4602
  571MOL0     C76962   3.406   1.404   5.842 -0.1494 -0.2388  0.1159
  571MOL0     C76963   3.275   1.333   5.815  0.3298  0.3921 -1.0382
  571MOL0     C76964   3.219   1.378   5.691 -0.4216  0.5582 -0.3401
  571MOL0     C76965   3.114   1.277   5.636 -0.3665 -0.6160  0.8288
  571MOL0     C76966   3.159   1.154   5.551 -0.0436 -0.2597 -1.0041
  571MOL0     N76967   3.098   1.029   5.574  0.4110  0.4457  0.4120
  571MOL0     C76968   3.153   0.928   5.648  0.4878 -0.2821 -0.0963
  571MOL0     C76969   3.062   0.832   5.640  0.9862  0.4928  0.9387
  571MOL0     C76970   3.074   0.703   5.718 -0.0200 -0.0096 -0.1705
  571MOL0     C76971   3.008   0.586   5.643  0.6246  0.5541  0.3442
  571MOL0     C76972   3.067   0.461   5.705  0.6093  0.4095 -0.0238
  571MOL0     C76973   2.982   0.345   5.634 -0.8234  0.0646 -0.2971
  571MOL0     O76974   3.015   0.326   5.493 -0.0655  0.1544 -0.5884
  571MOL0     C76975   2.973   0.205   5.434 -0.5867  0.2212  0.0068
  571MOL0     C76976   2.900   0.101   5.496 -0.6629  0.2520  1.2018
  571MOL0     C76977   2.863  -0.012   5.439  0.3625  0.4516 -0.7293
  571MOL0     C76978   2.797  -0.117   5.536 -1.2339 -0.6728 -0.4658
  571MOL0     C76979   2.895  -0.034   5.305  0.0842  0.1063 -0.4435
  571MOL0     C76980   2.834  -0.142   5.222  0.0667  0.1595  0.0749
  571MOL0     O76981   2.893  -0.181   5.109  0.0413  0.2546  0.5995
  571MOL0     C76982   2.818  -0.274   5.042 -0.3528  0.0617 -0.8177
  571MOL0     C76983   2.852  -0.408   5.065  1.0338  0.2249  0.3954
  571MOL0     C76984   2.781  -0.513   4.995 -0.6032 -0.2553  0.2630
  571MOL0     C76985   2.681  -0.474   4.902  0.5694  0.7312  0.1566
  571MOL0     O76986   2.618  -0.562   4.816  0.1021  0.2657  0.6919
  571MOL0     C76987   2.561  -0.697   4.858 -0.2263 -0.0105 -0.2276
  571MOL0     C76988   2.464  -0.752   4.754  0.5787  0.3874  0.3594
  571MOL0     C76989   2.447  -0.906   4.768  0.7412 -0.3215 -1.1553
  571MOL0     C76990   2.562  -0.987   4.718 -1.0062 -0.1246 -0.1993
  571MOL0     C76991   2.524  -1.138   4.696  0.1660  0.0866  1.1473
  571MOL0     C76992   2.441  -1.172   4.567 -0.1488  0.5103 -0.2915
  571MOL0     C76993   2.524  -1.149   4.434  0.2456 -1.0133  0.3143
  571MOL0     C76994   2.445  -1.187   4.307  0.2916 -0.2529  0.5505
  571MOL0    Cl76995   2.402  -1.368   4.341 -0.6664  0.6513 -0.0642
  571MOL0     C76996   2.663  -0.344   4.874 -0.4483  0.8305  0.2088
  571MOL0     C76997   2.727  -0.241   4.950 -0.0962 -0.6707  0.3177
  571MOL0     O76998   2.724  -0.178   5.260 -0.1207  0.5915  0.4808
  571MOL0     C76999   2.966   0.067   5.232 -0.4137  0.3777  0.5394
  571MOL0     C77000   3.001   0.189   5.294 -0.2267 -0.0369  0.1363
  571MOL0     N77001   2.960   0.859   5.553  1.1029 -0.1056 -0.0539
  571MOL0     N77002   2.982   0.979   5.519  0.3662 -0.1539 -0.1324
  571MOL0     C77003   3.796   1.291   6.386  0.3960  0.3314  0.3648
  571MOL0     C77004   3.886   1.235   6.475  0.5271  0.4267 -0.1373
  571MOL0     C77005   4.188   0.927   6.652  0.5524  0.2216  0.4745
  571MOL0     C77006   4.233   0.803   6.687 -0.8207  0.9545 -0.7883
  571MOL0     C77007   4.366   0.785   6.738  0.8730  0.8044  0.4764
  571MOL0     C77008   4.446   0.894   6.756 -0.0575  0.4352  0.0497
  571MOL0     O77009   4.570   0.886   6.817  0.1365 -0.3992  0.2515
  571MOL0     C77010   4.641   0.999   6.873  0.1307 -0.0346  1.5291
  571MOL0     C77011   4.750   0.974   6.971 -0.5115  0.6176  0.8495
  571MOL0     C77012   4.692   0.899   7.101  0.9496 -1.4888  0.1834
  571MOL0     C77013   4.797   0.825   7.179  0.5562  1.2389 -0.7168
  571MOL0     C77014   4.873   0.915   7.257 -0.7351  0.0322 -0.0618
  571MOL0     C77015   4.952   0.993   7.315 -0.0640  0.2811  0.6940
  571MOL0     C77016   4.404   1.027   6.711  0.2634  0.4878  0.7394
  571MOL0     C77017   4.277   1.035   6.654  0.7489  0.0612  0.5088
  571MOL0     H77018   3.916   0.923   6.354  1.1120  0.4946  0.7684
  571MOL0     H77019   3.726   1.017   6.206  0.1662 -0.0141  0.5554
  571MOL0     H77020   3.569   1.396   6.215 -0.2311 -0.2909  0.1911
  571MOL0     H77021   3.744   1.436   6.164  0.0040 -0.8211  1.2041
  571MOL0     H77022   3.590   1.529   5.991  0.8223  0.9300  1.6359
  571MOL0     H77023   3.669   1.385   5.922 -0.9941 -1.0921 -0.7085
  571MOL0     H77024   3.450   1.235   5.975 -2.8692 -0.0276  1.7484
  571MOL0     H77025   3.388   1.381   6.050  2.2264  2.1179  0.8669
  571MOL0     H77026   3.389   1.511   5.861  2.5596  0.5503 -1.3807
  571MOL0     H77027   3.474   1.387   5.758 -1.0824 -4.9374  0.0506
  571MOL0     H77028   3.291   1.225   5.807  0.4519  0.3062  0.1621
  571MOL0     H77029   3.207   1.343   5.900 -0.6342 -2.0349 -1.4380
  571MOL0     H77030   3.172   1.472   5.721  0.4995  1.3413 -1.2476
  571MOL0     H77031   3.301   1.404   5.623  0.4820 -2.3571 -0.5069
  571MOL0     H77032   3.047   1.249   5.718 -2.6439 -2.8761 -1.6144
  571MOL0     H77033   3.049   1.343   5.578  1.4177 -0.2905 -0.9205
  571MOL0     H77034   3.265   1.142   5.579 -0.6564 -0.0940  1.6458
  571MOL0     H77035   3.172   1.185   5.447  0.9219  0.7662 -0.5983
  571MOL0     H77036   3.248   0.914   5.699 -0.5125 -1.5705  1.5123
  571MOL0     H77037   3.177   0.670   5.737 -0.9395 -1.6904  2.4874
  571MOL0     H77038   3.018   0.715   5.811 -1.4686  0.5481 -1.0860
  571MOL0     H77039   3.046   0.594   5.540 -1.9886  1.9932 -0.5889
  571MOL0     H77040   2.899   0.589   5.637  0.6508 -0.1073 -0.9109
  571MOL0     H77041   3.036   0.459   5.810  2.7246  0.8462  0.6444
  571MOL0     H77042   3.174   0.450   5.687  1.4544  5.1251  0.7704
  571MOL0     H77043   2.873   0.350   5.638 -0.9303 -0.8244  4.5195
  571MOL0     H77044   3.015   0.257   5.691  2.8000  0.7855 -1.0198
  571MOL0     H77045   2.867   0.106   5.599 -1.0881 -0.5330  1.1185
  571MOL0     H77046   2.701  -0.160   5.504 -1.1081  0.1742 -2.0457
  571MOL0     H77047   2.863  -0.199   5.567 -0.9731  0.4850  2.3491
  571MOL0     H77048   2.774  -0.073   5.634  2.5488 -1.8848  1.1822
  571MOL0     H77049   2.922  -0.449   5.138  2.5469  0.7749 -0.6907
  571MOL0     H77050   2.799  -0.620   5.002 -1.0562 -0.6535 -3.0809
  571MOL0     H77051   2.647  -0.765   4.865 -0.7394 -0.6886 -0.3931
  571MOL0     H77052   2.511  -0.689   4.955 -0.9913 -2.8614 -0.2809
  571MOL0     H77053   2.364  -0.708   4.767 -0.0385 -1.2340  1.5291
  571MOL0     H77054   2.489  -0.724   4.652 -1.6056 -0.2335 -0.4219
  571MOL0     H77055   2.363  -0.933   4.703 -0.1797  1.6720 -0.8702
  571MOL0     H77056   2.433  -0.929   4.874  0.5199 -1.8053 -1.4839
  571MOL0     H77057   2.596  -0.941   4.624 -2.7353 -1.0655 -1.3428
  571MOL0     H77058   2.643  -0.991   4.792 -1.4447 -2.0600  0.2204
  571MOL0     H77059   2.471  -1.168   4.787 -0.0734 -0.1794  0.9200
  571MOL0     H77060   2.609  -1.206   4.686 -1.0916 -1.2467 -1.4699
  571MOL0     H77061   2.418  -1.278   4.579 -2.2380  0.9836  0.3613
  571MOL0     H77062   2.347  -1.116   4.563 -0.5062 -0.0134  0.4448
  571MOL0     H77063   2.608  -1.218   4.447 -1.4947 -3.5052 -0.7163
  571MOL0     H77064   2.554  -1.044   4.424  2.4339 -1.7769 -3.2514
  571MOL0     H77065   2.504  -1.184   4.215 -0.5309 -2.3786 -0.0986
  571MOL0     H77066   2.353  -1.129   4.311 -0.3112 -1.1526 -0.1556
  571MOL0     H77067   2.604  -0.308   4.790  0.8797  1.9226 -0.2954
  571MOL0     H77068   2.697  -0.137   4.940  0.4502 -0.4842  0.5420
  571MOL0     H77069   2.997   0.057   5.129  0.5975  2.6540  0.5633
  571MOL0     H77070   3.052   0.266   5.238 -0.1127 -0.7807 -0.8031
  571MOL0     H77071   3.752   1.390   6.383 -4.2023 -1.4165  1.2758
  571MOL0     H77072   3.933   1.290   6.556 -0.8475  1.3395  0.0845
  571MOL0     H77073   4.178   0.712   6.671  1.1018 -0.4867  0.3442
  571MOL0     H77074   4.403   0.689   6.772  1.3290  1.2737  1.3344
  571MOL0     H77075   4.683   1.042   6.781 -0.8265 -1.2282  0.4932
  571MOL0     H77076   4.571   1.069   6.920 -0.0086 -0.5358  2.0715
  571MOL0     H77077   4.807   1.063   6.995  3.0460 -0.2044 -3.2946
  571MOL0     H77078   4.816   0.905   6.918 -1.6035 -0.4486  0.8102
  571MOL0     H77079   4.622   0.825   7.061 -0.4553 -1.0067  1.6514
  571MOL0     H77080   4.640   0.966   7.170  1.4884 -1.8066  0.9121
  571MOL0     H77081   4.857   0.766   7.109 -2.2162 -1.5927 -0.9138
  571MOL0     H77082   4.764   0.744   7.244  4.1823  0.3543  0.2411
  571MOL0     H77083   5.030   1.046   7.365  0.8397  2.0712 -2.3127
  571MOL0     H77084   4.478   1.105   6.718  1.7260 -0.5626 -1.7617
  571MOL0     H77085   4.244   1.128   6.609 -1.3192 -1.3290 -1.0757
  572MOL0     O77086   3.268   8.364   5.925  0.1736  0.6351  0.0550
  572MOL0     C77087   3.251   8.395   5.807  0.4433  0.4859 -0.5859
  572MOL0     O77088   3.215   8.312   5.706 -0.1561  0.3267  0.5027
  572MOL0     C77089   3.193   8.178   5.737 -1.4686  0.7601 -0.5426
  572MOL0     C77090   3.308   8.095   5.785 -0.1826  0.1848  0.4226
  572MOL0     C77091   3.275   7.967   5.818  0.3216  0.9835 -0.7089
  572MOL0     C77092   3.144   7.911   5.820  0.3118  0.1466 -0.0501
  572MOL0     O77093   3.117   7.790   5.875  0.3342  0.0907 -0.3405
  572MOL0     C77094   3.149   7.768   6.013  0.7891  0.2295 -0.0336
  572MOL0     C77095   3.145   7.619   6.064  0.5444  0.2995  0.2145
  572MOL0     C77096   3.233   7.583   6.190 -0.1030 -0.1161 -0.9913
  572MOL0     C77097   3.229   7.669   6.317  0.6673  0.4185  0.0453
  572MOL0     C77098   3.299   7.598   6.441  0.1781  0.9981  0.4398
  572MOL0     C77099   3.277   7.678   6.567 -0.1128 -0.5107  0.2259
  572MOL0     C77100   3.335   7.616   6.688 -0.7343 -0.2480 -0.2309
  572MOL0     C77101   3.307   7.698   6.818  0.5037 -0.3971 -0.4958
  572MOL0     N77102   3.357   7.840   6.818 -0.1955 -0.2494  0.4666
  572MOL0     C77103   3.487   7.888   6.838  0.2603  0.0604  0.6268
  572MOL0     C77104   3.481   8.025   6.813 -0.2616  0.2784 -0.1380
  572MOL0     C77105   3.584   8.132   6.841  0.3333  1.0711 -0.0195
  572MOL0     C77106   3.649   8.186   6.707  0.2836  0.7266 -0.2031
  572MOL0     C77107   3.548   8.242   6.606  0.0755  0.2509  0.3250
  572MOL0     C77108   3.505   8.140   6.491  0.3181  0.0576 -0.6349
  572MOL0     O77109   3.614   8.131   6.401 -0.0244 -0.3286  0.3391
  572MOL0     C77110   3.637   8.019   6.342  0.1119 -0.1280 -0.0577
  572MOL0     C77111   3.626   8.020   6.204 -0.1550  0.5920  0.4618
  572MOL0     C77112   3.630   7.884   6.143 -0.4020 -0.4624 -0.4951
  572MOL0     C77113   3.625   7.879   5.988 -0.2670 -0.3460  0.6440
  572MOL0     C77114   3.637   7.769   6.218 -0.9208  0.4293  0.2002
  572MOL0     C77115   3.664   7.638   6.158 -0.5599 -0.8587  0.0848
  572MOL0     O77116   3.622   7.532   6.240  1.1846 -0.4963 -0.3964
  572MOL0     C77117   3.625   7.399   6.191 -0.3030 -0.0876 -0.1374
  572MOL0     C77118   3.703   7.308   6.252 -0.7334  0.2135  0.0582
  572MOL0     C77119   3.707   7.177   6.204  0.1721 -0.0495 -0.3846
  572MOL0     C77120   3.634   7.135   6.088 -0.7802  0.3710 -0.4409
  572MOL0     O77121   3.643   7.016   6.030  0.3250  0.1773 -0.5713
  572MOL0     C77122   3.698   6.904   6.106 -0.9551  0.1410  0.9668
  572MOL0     C77123   3.709   6.784   6.015  0.7205  0.1642  0.1093
  572MOL0     C77124   3.585   6.760   5.937  1.0452 -0.2940 -0.1228
  572MOL0     C77125   3.612   6.636   5.859  0.4177 -0.9001 -0.2286
  572MOL0     C77126   3.491   6.578   5.788  0.6422 -0.2900 -0.3931
  572MOL0     C77127   3.526   6.525   5.659 -0.9400  0.4285  1.2655
  572MOL0     C77128   3.602   6.400   5.679  0.0172 -0.3675 -0.9790
  572MOL0     C77129   3.757   6.398   5.682 -0.3225  0.0946  0.3261
  572MOL0    Cl77130   3.781   6.482   5.520 -0.5110 -0.1336 -0.2645
  572MOL0     C77131   3.544   7.229   6.037 -0.6251 -0.2021 -0.3328
  572MOL0     C77132   3.544   7.363   6.085  0.1440 -0.0306  0.6331
  572MOL0     O77133   3.733   7.621   6.059 -0.6878  0.1703 -0.2102
  572MOL0     C77134   3.657   7.777   6.360 -1.2892  1.1053  0.6229
  572MOL0     C77135   3.657   7.906   6.415  1.4999 -0.0323 -0.8121
  572MOL0     N77136   3.356   8.053   6.777  0.8666 -0.3462  0.6327
  572MOL0     N77137   3.281   7.953   6.791  0.3585 -0.2228 -0.4075
  572MOL0     C77138   3.042   7.984   5.762 -0.8022  0.9475 -0.6262
  572MOL0     C77139   3.069   8.115   5.720 -0.4074  0.0985 -0.0213
  572MOL0     C77140   3.245   8.541   5.773 -0.1529 -0.3599 -0.2778
  572MOL0     C77141   3.273   8.638   5.870 -0.6584  1.0448 -0.2470
  572MOL0     C77142   3.285   8.770   5.839  0.6771 -0.3824  0.5343
  572MOL0     C77143   3.270   8.812   5.706 -0.5794 -0.0302 -0.0147
  572MOL0     O77144   3.279   8.943   5.659 -1.3884 -0.0347  0.2549
  572MOL0     C77145   3.380   9.024   5.741 -0.0226 -0.6139  0.1747
  572MOL0     C77146   3.479   9.101   5.652  0.5593 -1.1199 -0.2093
  572MOL0     C77147   3.424   9.243   5.625 -0.1760  0.3992  0.3550
  572MOL0     C77148   3.434   9.298   5.478  1.1062  1.0199  0.1142
  572MOL0     C77149   3.534   9.405   5.469 -0.5426 -0.3410 -0.0653
  572MOL0     C77150   3.617   9.495   5.462 -0.8041 -1.1855  0.1993
  572MOL0     C77151   3.231   8.713   5.609 -0.0014  0.1119  0.2318
  572MOL0     C77152   3.229   8.582   5.641 -0.0249  0.3409  0.7967
  572MOL0     H77153   3.414   8.118   5.788  0.9198 -3.6350 -1.9772
  572MOL0     H77154   3.345   7.910   5.879  0.1990 -0.8188 -2.1571
  572MOL0     H77155   3.251   7.803   6.029 -0.1196  1.4985  4.6673
  572MOL0     H77156   3.078   7.822   6.077 -1.1389  0.0375 -1.8897
  572MOL0     H77157   3.038   7.609   6.084  0.4878 -0.7741 -0.5268
  572MOL0     H77158   3.162   7.551   5.980 -1.7945  2.3432 -2.1146
  572MOL0     H77159   3.203   7.483   6.222  0.7346 -0.2735 -0.6720
  572MOL0     H77160   3.339   7.575   6.163  1.3541  1.6453  3.3270
  572MOL0     H77161   3.278   7.765   6.297  1.0134  0.8557  2.6503
  572MOL0     H77162   3.125   7.693   6.338 -0.0909  1.2617 -3.9084
  572MOL0     H77163   3.251   7.501   6.456 -2.7960  2.7136  3.6142
  572MOL0     H77164   3.406   7.574   6.449 -0.5813 -3.3497 -0.3855
  572MOL0     H77165   3.333   7.771   6.552 -0.2011 -0.2446  1.3997
  572MOL0     H77166   3.169   7.691   6.575 -0.1243  1.7883 -2.3960
  572MOL0     H77167   3.309   7.509   6.690 -0.8870 -0.2050  0.4991
  572MOL0     H77168   3.444   7.612   6.678 -0.6238 -0.7021  0.9310
  572MOL0     H77169   3.344   7.652   6.910 -0.2925  2.7201  1.5299
  572MOL0     H77170   3.197   7.701   6.821  0.4759 -0.2742 -1.4384
  572MOL0     H77171   3.573   7.832   6.873 -1.8585 -2.9021  1.5009
  572MOL0     H77172   3.530   8.208   6.899 -0.7410 -0.1840  0.6793
  572MOL0     H77173   3.651   8.083   6.912  1.0940  1.0571 -0.7306
  572MOL0     H77174   3.701   8.097   6.670 -0.7631 -0.1712  0.4514
  572MOL0     H77175   3.722   8.261   6.739 -0.0898  1.3659 -0.8111
  572MOL0     H77176   3.600   8.332   6.571 -0.1818 -0.1488 -1.1563
  572MOL0     H77177   3.456   8.275   6.657 -1.1331 -1.1640 -0.8291
  572MOL0     H77178   3.420   8.179   6.435 -1.1056 -1.1688  0.6070
  572MOL0     H77179   3.475   8.043   6.533  0.6860 -0.1227 -0.7830
  572MOL0     H77180   3.602   8.108   6.146  1.5125  0.3425 -0.6801
  572MOL0     H77181   3.622   7.978   5.940  1.3308 -1.3046 -1.6202
  572MOL0     H77182   3.713   7.837   5.939 -0.8313 -0.2012 -0.5291
  572MOL0     H77183   3.541   7.819   5.951  0.2767 -1.0660  0.5557
  572MOL0     H77184   3.765   7.327   6.339 -2.2749  1.0925  1.0027
  572MOL0     H77185   3.761   7.103   6.262 -2.1211 -0.5996  1.2025
  572MOL0     H77186   3.798   6.933   6.138 -0.2726 -0.3072 -0.6861
  572MOL0     H77187   3.636   6.885   6.194 -3.2686 -2.0201 -0.9441
  572MOL0     H77188   3.790   6.812   5.947  1.7637  2.7933  2.2675
  572MOL0     H77189   3.748   6.698   6.071 -0.1548  0.5174  1.2984
  572MOL0     H77190   3.566   6.847   5.874 -2.1898  1.4686  2.8958
  572MOL0     H77191   3.501   6.752   6.006  1.0229  0.4339 -0.0603
  572MOL0     H77192   3.686   6.661   5.783 -1.5485  1.2798 -1.5697
  572MOL0     H77193   3.663   6.560   5.918  1.3116  0.4130  0.7609
  572MOL0     H77194   3.427   6.664   5.767 -1.4304 -2.2453 -2.6592
  572MOL0     H77195   3.427   6.510   5.845 -0.4174  1.7736  1.0457
  572MOL0     H77196   3.440   6.490   5.602  1.3650 -3.5172 -0.2178
  572MOL0     H77197   3.573   6.610   5.609 -1.8266  0.2267  0.0558
  572MOL0     H77198   3.572   6.326   5.603  0.0530 -0.1043 -1.2535
  572MOL0     H77199   3.571   6.354   5.773  0.2513 -1.2739 -1.3367
  572MOL0     H77200   3.808   6.301   5.686  0.0123  0.0076 -3.0979
  572MOL0     H77201   3.802   6.452   5.765  2.0622 -0.7767 -0.3174
  572MOL0     H77202   3.486   7.186   5.956 -0.8305  0.1841 -0.3947
  572MOL0     H77203   3.489   7.448   6.043  0.4332  0.2291  0.7772
  572MOL0     H77204   3.664   7.686   6.419  2.2743 -1.0861 -2.7474
  572MOL0     H77205   3.668   7.927   6.521 -1.7550 -0.6229 -0.2318
  572MOL0     H77206   2.940   7.948   5.755 -0.3210 -0.1304 -3.0737
  572MOL0     H77207   2.986   8.182   5.696 -0.4410 -0.2376 -0.8779
  572MOL0     H77208   3.293   8.619   5.975  3.1990 -1.7281 -1.2508
  572MOL0     H77209   3.311   8.831   5.924  1.0013  1.6620 -0.9458
  572MOL0     H77210   3.322   9.090   5.807  1.9790  0.6922  0.7134
  572MOL0     H77211   3.438   8.956   5.804  0.9920 -2.0641 -2.1996
  572MOL0     H77212   3.504   9.043   5.563  2.5224  0.4724 -0.7587
  572MOL0     H77213   3.576   9.107   5.703  1.8012 -1.2998 -2.4473
  572MOL0     H77214   3.483   9.312   5.687  2.0150 -0.7465 -0.3444
  572MOL0     H77215   3.317   9.247   5.646 -1.0349 -0.9556 -3.1011
  572MOL0     H77216   3.341   9.343   5.443  2.0521 -0.0830 -4.5973
  572MOL0     H77217   3.460   9.213   5.414 -4.2270 -1.2861  0.4744
  572MOL0     H77218   3.695   9.568   5.455  0.1901 -2.1704  0.6356
  572MOL0     H77219   3.210   8.741   5.506 -1.1037  1.6766  0.8432
  572MOL0     H77220   3.215   8.505   5.566  0.7851 -1.9804  2.8830
  573MOL0     O77221   4.555  11.032   5.733 -0.5798 -0.5074  0.1729
  573MOL0     C77222   4.494  11.139   5.748 -0.6274 -0.3468 -0.3197
  573MOL0     O77223   4.547  11.259   5.769  0.3893 -0.4890 -0.5768
  573MOL0     C77224   4.677  11.278   5.781 -0.4200  0.1150 -0.9279
  573MOL0     C77225   4.720  11.399   5.733 -0.1622  0.2294 -0.2555
  573MOL0     C77226   4.861  11.432   5.750  0.3158  0.8662  0.4677
  573MOL0     C77227   4.958  11.333   5.783  0.3524 -0.2610 -0.2594
  573MOL0     O77228   5.088  11.360   5.767 -0.4697 -0.2473 -0.7326
  573MOL0     C77229   5.139  11.454   5.862 -0.3100 -0.0263  0.8764
  573MOL0     C77230   5.280  11.503   5.843  0.4030 -0.9197  1.0662
  573MOL0     C77231   5.307  11.610   5.954  0.1712  0.2572  0.5602
  573MOL0     C77232   5.396  11.721   5.898  0.1853  0.7313  0.3738
  573MOL0     C77233   5.438  11.807   6.015 -0.1795 -0.0923 -0.6035
  573MOL0     C77234   5.535  11.913   5.961 -0.1398  0.4119  0.8329
  573MOL0     C77235   5.577  12.021   6.056  0.0048 -0.0990 -0.8075
  573MOL0     C77236   5.497  12.152   6.042 -0.0261 -1.2356 -1.1311
  573MOL0     N77237   5.534  12.240   6.154 -0.0135 -0.2317  0.9167
  573MOL0     C77238   5.482  12.237   6.285 -0.0732 -0.8410 -0.0988
  573MOL0     C77239   5.519  12.349   6.348 -0.9055  0.1850  0.9321
  573MOL0     C77240   5.493  12.381   6.493  0.6238  0.5631  1.2706
  573MOL0     C77241   5.392  12.498   6.497 -0.2702 -1.2536  0.5665
  573MOL0     C77242   5.358  12.559   6.638  0.5689 -0.3215  0.3294
  573MOL0     C77243   5.269  12.684   6.611 -1.0322 -0.0025  0.1851
  573MOL0     O77244   5.133  12.640   6.596 -0.8427  0.0900 -0.2946
  573MOL0     C77245   5.031  12.732   6.609 -0.6256 -0.3526  0.2717
  573MOL0     C77246   5.055  12.877   6.603 -0.0125  1.1584  0.1279
  573MOL0     C77247   4.950  12.971   6.621 -0.7401  0.4650  0.5657
  573MOL0     C77248   4.988  13.117   6.594  0.6261  0.2890  0.1031
  573MOL0     C77249   4.822  12.926   6.648 -0.4106 -0.0318 -0.2035
  573MOL0     C77250   4.701  13.012   6.687  0.3393  1.0153  0.4335
  573MOL0     O77251   4.602  12.952   6.758 -0.7708 -0.0554  0.6541
  573MOL0     C77252   4.504  13.022   6.814  0.5243 -0.1503  0.6021
  573MOL0     C77253   4.422  13.093   6.729  0.1883 -0.5975 -0.2944
  573MOL0     C77254   4.316  13.162   6.777 -0.1534 -0.4989  0.2766
  573MOL0     C77255   4.289  13.166   6.907 -0.1207 -0.3820  0.0354
  573MOL0     O77256   4.175  13.219   6.964  0.0843 -0.1903 -0.0285
  573MOL0     C77257   4.077  13.298   6.887 -0.2748  0.5716 -0.0484
  573MOL0     C77258   3.949  13.216   6.878 -0.5819  0.2743  0.2827
  573MOL0     C77259   3.834  13.304   6.843  0.8934 -0.7964 -0.0245
  573MOL0     C77260   3.713  13.224   6.827 -0.5080 -0.1667  0.3161
  573MOL0     C77261   3.585  13.310   6.824 -0.3472 -0.7478  0.1102
  573MOL0     C77262   3.480  13.219   6.750  0.5010 -0.3048  0.2950
  573MOL0     C77263   3.338  13.269   6.760  0.5931  0.5229  0.4293
  573MOL0     C77264   3.294  13.384   6.674  1.2443 -0.6169  0.2613
  573MOL0    Cl77265   3.118  13.412   6.719 -0.0663 -0.2216  0.0881
  573MOL0     C77266   4.371  13.090   6.996 -0.1091 -0.9447 -0.4479
  573MOL0     C77267   4.477  13.020   6.948  0.7537  0.2145  0.5496
  573MOL0     O77268   4.703  13.135   6.659  0.1654  0.2622  0.0684
  573MOL0     C77269   4.796  12.783   6.643  0.3107  0.5662  0.2155
  573MOL0     C77270   4.897  12.684   6.620 -0.5417 -1.0545 -0.2516
  573MOL0     N77271   5.611  12.408   6.253 -0.1649 -0.1560 -0.6212
  573MOL0     N77272   5.629  12.342   6.149 -0.5630  0.0277 -0.3142
  573MOL0     C77273   4.911  11.216   5.829  0.4035 -0.1684  0.1314
  573MOL0     C77274   4.772  11.189   5.831  0.4780 -0.2713 -0.1792
  573MOL0     C77275   4.351  11.133   5.705  0.7589 -0.0024 -0.5843
  573MOL0     C77276   4.269  11.242   5.737  0.2147 -1.1571 -0.1861
  573MOL0     C77277   4.139  11.231   5.693  0.1389 -0.8627  0.0105
  573MOL0     C77278   4.086  11.129   5.623  0.1698  0.6451 -0.2044
  573MOL0     O77279   3.967  11.130   5.567  0.8357  0.9607  0.1955
  573MOL0     C77280   3.893  11.254   5.536 -0.1753 -1.2949 -0.8879
  573MOL0     C77281   3.810  11.313   5.653 -0.5013  0.3267 -0.0917
  573MOL0     C77282   3.703  11.221   5.711  0.9270  0.7631  0.1840
  573MOL0     C77283   3.623  11.293   5.820  0.0577  0.6973 -0.9085
  573MOL0     C77284   3.697  11.363   5.926  0.3595 -1.1523 -0.6064
  573MOL0     C77285   3.766  11.416   6.012  1.0974 -0.3230  0.4757
  573MOL0     C77286   4.165  11.018   5.602  0.3291  0.3384 -0.8095
  573MOL0     C77287   4.291  11.019   5.639 -0.0154 -0.2695  0.0558
  573MOL0     H77288   4.651  11.471   5.689 -0.8326 -1.8781 -2.9020
  573MOL0     H77289   4.906  11.526   5.721  4.4460 -1.3895 -1.2667
  573MOL0     H77290   5.064  11.534   5.859 -0.8659 -0.5354 -2.7036
  573MOL0     H77291   5.129  11.407   5.960  0.5100 -0.9477  0.5323
  573MOL0     H77292   5.359  11.430   5.825  2.5496  0.6061  3.5475
  573MOL0     H77293   5.271  11.563   5.752 -3.3828 -0.0160  1.8547
  573MOL0     H77294   5.209  11.649   5.986  0.6941  2.9659 -0.8412
  573MOL0     H77295   5.361  11.574   6.042  0.5550 -3.3747 -1.0033
  573MOL0     H77296   5.485  11.680   5.849 -1.0545 -1.3784 -0.2417
  573MOL0     H77297   5.344  11.790   5.830  1.9390  1.6109 -0.1408
  573MOL0     H77298   5.349  11.858   6.054 -1.9505  2.0572 -6.4837
  573MOL0     H77299   5.492  11.749   6.091  2.9050 -0.4413 -2.8822
  573MOL0     H77300   5.630  11.867   5.931  0.8907  2.8219  0.1405
  573MOL0     H77301   5.495  11.959   5.870 -1.1250 -1.9757 -0.0381
  573MOL0     H77302   5.565  11.987   6.159 -0.3398  3.0551  0.3045
  573MOL0     H77303   5.681  12.044   6.030 -0.0507 -0.8092 -1.7209
  573MOL0     H77304   5.388  12.146   6.036 -0.1243  1.0012 -2.5387
  573MOL0     H77305   5.539  12.199   5.953  2.1561  0.3252  0.6063
  573MOL0     H77306   5.413  12.165   6.328 -0.2437 -2.2924 -2.5634
  573MOL0     H77307   5.443  12.290   6.528 -0.9019 -0.0045 -2.0098
  573MOL0     H77308   5.582  12.400   6.553  2.4258 -0.4584 -0.9331
  573MOL0     H77309   5.299  12.482   6.442 -1.7238 -0.9137  2.7995
  573MOL0     H77310   5.451  12.577   6.448  0.8853 -2.3128  0.1855
  573MOL0     H77311   5.441  12.582   6.704 -1.3015  1.7443  2.1492
  573MOL0     H77312   5.306  12.482   6.695  2.8613 -2.4156 -0.2695
  573MOL0     H77313   5.303  12.743   6.526 -1.2086  2.4729  1.7246
  573MOL0     H77314   5.289  12.743   6.701 -2.6906 -1.8569  1.8613
  573MOL0     H77315   5.154  12.922   6.601  0.5450 -0.0333 -0.0888
  573MOL0     H77316   4.953  13.123   6.490 -1.4037  1.5703  0.7938
  573MOL0     H77317   4.925  13.185   6.652 -1.7625 -0.7460 -1.0795
  573MOL0     H77318   5.094  13.133   6.615  0.3335  1.0395  1.0588
  573MOL0     H77319   4.445  13.098   6.623 -0.9596 -1.7702 -0.6293
  573MOL0     H77320   4.264  13.207   6.693  2.3970  0.4335 -0.9027
  573MOL0     H77321   4.066  13.393   6.940 -0.6982  0.6084 -0.1999
  573MOL0     H77322   4.122  13.317   6.789  0.1121 -2.7260 -0.6274
  573MOL0     H77323   3.963  13.131   6.809 -2.1870 -1.5082  2.0216
  573MOL0     H77324   3.926  13.176   6.977  0.7051 -1.8389 -0.1804
  573MOL0     H77325   3.860  13.358   6.752 -0.1838 -1.6791 -0.8822
  573MOL0     H77326   3.810  13.375   6.923  0.5069  2.7149 -2.9925
  573MOL0     H77327   3.722  13.170   6.732 -2.7101  0.4834 -0.3343
  573MOL0     H77328   3.702  13.157   6.912  1.1073 -2.4146 -1.1339
  573MOL0     H77329   3.595  13.409   6.777 -1.9079  0.3214  1.8665
  573MOL0     H77330   3.551  13.342   6.923  0.3513  5.5697 -1.2182
  573MOL0     H77331   3.511  13.208   6.645 -0.2666  0.4420 -0.0216
  573MOL0     H77332   3.485  13.117   6.788 -0.5357 -0.7949 -0.7921
  573MOL0     H77333   3.326  13.284   6.868  1.9096 -0.6505  0.7609
  573MOL0     H77334   3.276  13.186   6.725  0.0894  1.4684 -1.0044
  573MOL0     H77335   3.306  13.364   6.567 -1.8435  1.1198 -0.5225
  573MOL0     H77336   3.354  13.475   6.686  2.0122 -1.2653  1.5781
  573MOL0     H77337   4.341  13.081   7.100 -0.4237 -2.3045 -0.6400
  573MOL0     H77338   4.546  12.959   7.005 -0.5724 -0.4325  1.4889
  573MOL0     H77339   4.697  12.740   6.646  0.0024  0.8479 -2.5937
  573MOL0     H77340   4.876  12.579   6.605  0.2716 -1.0087 -2.0590
  573MOL0     H77341   4.990  11.148   5.861  2.1242  0.8082 -1.7770
  573MOL0     H77342   4.757  11.090   5.873  2.9006 -0.0191  1.4654
  573MOL0     H77343   4.303  11.335   5.780 -2.3180 -0.9175  1.4872
  573MOL0     H77344   4.090  11.328   5.703  1.7319 -0.0206 -0.0638
  573MOL0     H77345   3.964  11.335   5.518  0.1755 -1.4085 -0.0464
  573MOL0     H77346   3.827  11.239   5.450  0.6016 -0.2641 -1.6881
  573MOL0     H77347   3.775  11.415   5.632 -2.1220 -0.4463 -1.4041
  573MOL0     H77348   3.885  11.311   5.732 -0.0376  1.2714 -0.4891
  573MOL0     H77349   3.730  11.118   5.733 -3.0574  0.0561  2.8268
  573MOL0     H77350   3.627  11.212   5.632 -0.0601  1.5260  1.0257
  573MOL0     H77351   3.554  11.220   5.865 -1.1002  2.9603  1.2237
  573MOL0     H77352   3.550  11.363   5.778  1.4203  1.8591 -1.4107
  573MOL0     H77353   3.832  11.473   6.074  3.5869 -0.2295 -2.0673
  573MOL0     H77354   4.111  10.931   5.567  0.3999  0.0406 -0.2068
  573MOL0     H77355   4.344  10.925   5.625  0.2653 -0.3729  1.6458
  574MOL0     O77356   7.622   9.161   4.456 -0.0202 -0.7252  0.1481
  574MOL0     C77357   7.720   9.099   4.448 -1.2742 -0.5045  0.5216
  574MOL0     O77358   7.846   9.141   4.491 -0.4881 -0.1952  0.2550
  574MOL0     C77359   7.861   9.251   4.571 -0.6521 -0.6211  0.1640
  574MOL0     C77360   7.777   9.253   4.683  0.1797 -0.5950  0.1304
  574MOL0     C77361   7.793   9.360   4.767  1.4131 -0.1853 -0.0012
  574MOL0     C77362   7.897   9.460   4.758  0.5348 -0.1811  0.3214
  574MOL0     O77363   7.880   9.564   4.846 -0.3076 -0.8163  0.2440
  574MOL0     C77364   7.913   9.696   4.797 -0.3779  0.0523 -0.0384
  574MOL0     C77365   7.808   9.745   4.700 -0.6166 -0.6969 -0.5999
  574MOL0     C77366   7.673   9.749   4.773  0.3243 -0.9497  0.7771
  574MOL0     C77367   7.568   9.818   4.686  0.2797 -0.2574 -0.0325
  574MOL0     C77368   7.436   9.846   4.762  0.8369 -0.5868 -0.3838
  574MOL0     C77369   7.327   9.920   4.680 -0.1722 -0.5059 -0.8540
  574MOL0     C77370   7.264   9.827   4.573 -0.0340  0.4594 -0.1231
  574MOL0     C77371   7.125   9.874   4.528 -0.0128  0.4974 -0.3717
  574MOL0     N77372   7.025   9.844   4.627  0.0435 -1.1615 -0.4649
  574MOL0     C77373   6.977   9.720   4.664  0.1592  0.6962  0.5731
  574MOL0     C77374   6.893   9.745   4.763  0.9043 -1.1975  1.2436
  574MOL0     C77375   6.818   9.636   4.846  0.7694  0.7420  0.2445
  574MOL0     C77376   6.673   9.683   4.870 -0.2638  0.4156 -0.2517
  574MOL0     C77377   6.612   9.620   4.992 -0.0915  0.3083 -0.5170
  574MOL0     C77378   6.467   9.624   4.994  0.2858 -1.0249  0.8847
  574MOL0     O77379   6.423   9.586   5.123  0.0072 -0.6525 -0.1587
  574MOL0     C77380   6.424   9.459   5.175  0.4960 -0.1503  0.1179
  574MOL0     C77381   6.400   9.453   5.305 -0.5632 -0.5626 -0.9091
  574MOL0     C77382   6.383   9.336   5.380  0.3977  0.2878  0.7118
  574MOL0     C77383   6.389   9.350   5.531  0.0323  0.3752  0.5149
  574MOL0     C77384   6.384   9.216   5.306  0.4932  0.1707  0.0828
  574MOL0     C77385   6.351   9.078   5.367 -0.1172 -0.1907 -0.9831
  574MOL0     O77386   6.345   9.079   5.501  1.1036 -0.1922  0.4207
  574MOL0     C77387   6.290   8.974   5.566  0.0695  0.3731 -0.5263
  574MOL0     C77388   6.359   8.935   5.679 -0.1240 -0.5601  0.7545
  574MOL0     C77389   6.325   8.821   5.757  0.1633 -0.7397  0.1487
  574MOL0     C77390   6.230   8.736   5.710  0.0209  0.2274  0.3177
  574MOL0     O77391   6.217   8.611   5.768  0.0928  0.3047 -0.2223
  574MOL0     C77392   6.135   8.510   5.712 -0.1451  0.0364  0.0649
  574MOL0     C77393   6.061   8.445   5.832  0.0414  1.1492  0.9611
  574MOL0     C77394   5.974   8.332   5.772 -0.3670  0.4361 -0.2924
  574MOL0     C77395   5.900   8.251   5.878  0.0681 -0.4177 -0.5605
  574MOL0     C77396   5.823   8.134   5.820 -0.3210 -0.4789  0.1891
  574MOL0     C77397   5.733   8.084   5.931  0.1411  0.1109 -0.1177
  574MOL0     C77398   5.602   8.008   5.892 -1.3004  0.4803 -0.2152
  574MOL0     C77399   5.560   7.916   6.010 -1.2450  0.7781 -0.1550
  574MOL0    Cl77400   5.395   7.852   5.993  0.3223  0.3580 -0.0032
  574MOL0     C77401   6.149   8.784   5.602  0.1393  0.3827 -0.3061
  574MOL0     C77402   6.170   8.909   5.533 -0.3047  0.4459 -0.0926
  574MOL0     O77403   6.323   8.989   5.289  0.2661  0.4710 -0.3347
  574MOL0     C77404   6.402   9.219   5.163  0.5180  0.7411 -0.2742
  574MOL0     C77405   6.424   9.339   5.100 -0.1558  0.0859 -0.4891
  574MOL0     N77406   6.891   9.878   4.789 -0.2544 -0.0947 -0.7791
  574MOL0     N77407   6.973   9.939   4.710  0.5328 -0.3902 -0.3136
  574MOL0     C77408   7.990   9.455   4.653  0.1383  1.3402  0.6703
  574MOL0     C77409   7.965   9.348   4.561 -0.5026 -0.4425  0.4656
  574MOL0     C77410   7.707   8.975   4.365 -0.4194 -0.6795 -1.3182
  574MOL0     C77411   7.815   8.881   4.367 -0.5924 -0.1293 -0.4978
  574MOL0     C77412   7.805   8.762   4.299  0.6626 -0.1217 -0.0692
  574MOL0     C77413   7.680   8.724   4.237 -0.4785 -0.9903 -0.2543
  574MOL0     O77414   7.654   8.604   4.179 -0.4899  0.1953  0.0983
  574MOL0     C77415   7.749   8.493   4.181 -0.8259 -0.6378  0.8406
  574MOL0     C77416   7.677   8.369   4.121 -0.1994 -0.1238 -0.1858
  574MOL0     C77417   7.554   8.335   4.196  0.4347  0.5781  0.8963
  574MOL0     C77418   7.537   8.176   4.210 -0.1032 -0.1496 -0.3694
  574MOL0     C77419   7.413   8.138   4.272 -1.1125 -0.4793  0.1080
  574MOL0     C77420   7.313   8.107   4.335 -0.7428  0.2456 -0.3251
  574MOL0     C77421   7.586   8.818   4.226  0.1466 -0.7757  0.6704
  574MOL0     C77422   7.595   8.945   4.287  0.9133 -0.4856  0.3032
  574MOL0     H77423   7.697   9.182   4.699 -1.8129  1.2840 -1.0095
  574MOL0     H77424   7.718   9.373   4.844  1.3670 -1.4206  0.1832
  574MOL0     H77425   7.912   9.766   4.881 -0.3187 -0.9021  0.7701
  574MOL0     H77426   8.012   9.699   4.750  0.3663 -3.7622  0.9599
  574MOL0     H77427   7.839   9.845   4.670 -2.7432 -0.8992 -3.9677
  574MOL0     H77428   7.796   9.678   4.615  3.8709 -0.6835 -1.4921
  574MOL0     H77429   7.634   9.655   4.812 -0.3400 -1.3305 -0.7231
  574MOL0     H77430   7.689   9.814   4.859 -0.5854  1.8224 -1.0062
  574MOL0     H77431   7.612   9.910   4.645  0.7225 -1.0255 -1.3314
  574MOL0     H77432   7.533   9.771   4.593 -1.3519 -0.2961  0.5645
  574MOL0     H77433   7.389   9.751   4.789  1.5020  0.1614  4.1764
  574MOL0     H77434   7.452   9.892   4.860  1.3660  1.1734 -1.2556
  574MOL0     H77435   7.250   9.959   4.747 -1.5418 -3.0127 -0.8358
  574MOL0     H77436   7.366  10.012   4.635  2.5019 -1.6204 -1.0107
  574MOL0     H77437   7.326   9.844   4.484  1.1471  0.9273  0.7600
  574MOL0     H77438   7.252   9.723   4.603 -1.3399  0.0707 -1.8287
  574MOL0     H77439   7.105   9.831   4.429 -0.2118  1.7691 -0.9166
  574MOL0     H77440   7.131   9.982   4.511 -0.0364  0.4956 -0.3940
  574MOL0     H77441   7.010   9.620   4.636  1.0772  1.2150 -0.2597
  574MOL0     H77442   6.826   9.543   4.790 -3.9869  1.1974 -1.6628
  574MOL0     H77443   6.879   9.637   4.937  1.8734  0.8834 -0.4649
  574MOL0     H77444   6.613   9.649   4.785 -2.7857  1.2656  1.1220
  574MOL0     H77445   6.662   9.791   4.866 -1.5471  0.4907  2.8917
  574MOL0     H77446   6.636   9.681   5.079  0.8322  0.2714 -0.7344
  574MOL0     H77447   6.652   9.519   4.995  3.0389  1.4086 -1.6475
  574MOL0     H77448   6.432   9.552   4.919  1.5585 -3.5263  2.5648
  574MOL0     H77449   6.428   9.722   4.966  1.7074 -0.4150  0.9915
  574MOL0     H77450   6.403   9.547   5.360  1.2205 -1.4701  0.6722
  574MOL0     H77451   6.489   9.311   5.553  0.7949  0.2257 -2.7277
  574MOL0     H77452   6.388   9.451   5.572  1.1134  0.0865  1.2708
  574MOL0     H77453   6.312   9.291   5.583  0.3130  0.0277  0.5391
  574MOL0     H77454   6.444   8.996   5.708 -0.1908 -0.0720 -0.0376
  574MOL0     H77455   6.381   8.818   5.850  1.2615  2.4616 -0.2678
  574MOL0     H77456   6.055   8.539   5.644 -2.3405 -2.3768  1.4491
  574MOL0     H77457   6.190   8.431   5.659  1.2023  0.7271  0.3842
  574MOL0     H77458   6.133   8.401   5.901 -1.1914  0.9801  2.1728
  574MOL0     H77459   5.999   8.519   5.884 -1.1465 -0.0949  1.3685
  574MOL0     H77460   6.028   8.260   5.710 -2.5496 -0.8263 -0.8363
  574MOL0     H77461   5.892   8.374   5.712 -3.9439  0.5779  4.1859
  574MOL0     H77462   5.967   8.217   5.958  0.7642  3.0305  0.5103
  574MOL0     H77463   5.823   8.316   5.921  1.9352  1.0052  0.8424
  574MOL0     H77464   5.886   8.055   5.778 -0.5215 -0.3797 -0.2995
  574MOL0     H77465   5.762   8.179   5.741  1.3250  2.5823  0.4918
  574MOL0     H77466   5.785   8.013   5.996  2.2348 -0.2032 -1.9947
  574MOL0     H77467   5.698   8.157   6.004 -3.1079 -2.6716  1.3459
  574MOL0     H77468   5.621   7.950   5.802 -0.8691  0.7129 -0.2807
  574MOL0     H77469   5.525   8.081   5.866  0.0054  1.2548 -2.1013
  574MOL0     H77470   5.547   7.971   6.105 -0.1089 -0.0925  0.5302
  574MOL0     H77471   5.636   7.841   6.030 -1.2417  1.1204  1.2445
  574MOL0     H77472   6.068   8.719   5.570  0.9828 -1.2679  0.8177
  574MOL0     H77473   6.111   8.950   5.451  4.1748  0.7772 -3.5434
  574MOL0     H77474   6.411   9.126   5.108 -1.5017  0.9446 -0.9956
  574MOL0     H77475   6.449   9.332   4.995 -1.0318 -0.0775 -0.6877
  574MOL0     H77476   8.086   9.504   4.641 -0.9994  3.4573 -0.3640
  574MOL0     H77477   8.036   9.331   4.480  1.3374 -4.0769  2.5702
  574MOL0     H77478   7.904   8.919   4.416 -0.5205 -1.5369  0.5041
  574MOL0     H77479   7.897   8.708   4.281  1.1107 -0.0094  1.6453
  574MOL0     H77480   7.834   8.525   4.119 -2.1912 -0.2531 -0.8936
  574MOL0     H77481   7.784   8.465   4.281  0.0005 -0.8069  0.5142
  574MOL0     H77482   7.735   8.276   4.127 -1.1420 -0.8228 -1.3709
  574MOL0     H77483   7.646   8.373   4.016 -2.5905 -1.3328  0.3845
  574MOL0     H77484   7.465   8.376   4.148  1.7142  1.9724 -0.4335
  574MOL0     H77485   7.553   8.384   4.294 -1.8738  1.9541  0.2572
  574MOL0     H77486   7.630   8.143   4.258 -0.6139  0.5716  1.1762
  574MOL0     H77487   7.543   8.136   4.109  3.5960  0.8890 -0.7222
  574MOL0     H77488   7.225   8.079   4.390  0.5688 -1.5197  0.9755
  574MOL0     H77489   7.497   8.807   4.165  1.6823  1.9975 -2.3959
  574MOL0     H77490   7.521   9.021   4.264  1.6944  0.2566  0.1365
  575MOL0     O77491   8.375   9.613   6.347  0.1242 -0.2691  0.4081
  575MOL0     C77492   8.407   9.665   6.240 -0.6347  0.2738 -0.2046
  575MOL0     O77493   8.401   9.599   6.119 -0.4814  0.6372 -0.3709
  575MOL0     C77494   8.385   9.462   6.121 -0.1975 -0.4451  0.3780
  575MOL0     C77495   8.268   9.394   6.159  0.0011  1.0603 -0.0797
  575MOL0     C77496   8.266   9.247   6.161 -0.7881  0.4006 -0.8925
  575MOL0     C77497   8.378   9.173   6.116 -0.3827 -0.1292  0.5070
  575MOL0     O77498   8.367   9.035   6.134  0.2320 -0.5640 -0.1074
  575MOL0     C77499   8.481   8.952   6.126 -0.3762  0.1315 -0.2043
  575MOL0     C77500   8.426   8.819   6.165  0.0584  0.4607 -0.0106
  575MOL0     C77501   8.504   8.697   6.109  0.0458  0.5872  0.3430
  575MOL0     C77502   8.412   8.594   6.042  0.3636 -0.3174 -0.2428
  575MOL0     C77503   8.473   8.456   6.004 -0.7694  0.0461  0.0716
  575MOL0     C77504   8.566   8.462   5.888 -0.3646  0.5867 -0.7124
  575MOL0     C77505   8.613   8.327   5.843 -0.2254  0.6359 -0.5412
  575MOL0     C77506   8.705   8.263   5.949 -0.4282 -0.4681  0.0080
  575MOL0     N77507   8.741   8.128   5.914 -1.1966  0.3827 -0.2260
  575MOL0     C77508   8.765   8.076   5.783  0.0145 -0.1460  0.7732
  575MOL0     C77509   8.758   7.945   5.803 -0.2120  0.3239  0.4364
  575MOL0     C77510   8.771   7.850   5.692  0.9658 -0.1584  0.2516
  575MOL0     C77511   8.908   7.846   5.620 -0.2236  0.8339 -0.7937
  575MOL0     C77512   9.032   7.840   5.711  0.8149 -0.2569 -0.0506
  575MOL0     C77513   9.142   7.767   5.633 -1.2212 -0.6653  0.3338
  575MOL0     O77514   9.102   7.638   5.587  1.0685 -0.4648  0.0390
  575MOL0     C77515   9.187   7.536   5.575 -0.8548 -0.3040  1.3869
  575MOL0     C77516   9.312   7.546   5.514 -0.6350 -0.7667  0.1674
  575MOL0     C77517   9.396   7.433   5.503 -0.7500 -0.7853  0.3566
  575MOL0     C77518   9.531   7.463   5.440  0.0860  0.6050 -0.4770
  575MOL0     C77519   9.352   7.306   5.549  0.3006 -0.6066  0.0373
  575MOL0     C77520   9.443   7.187   5.556  0.6467  0.4377 -0.7328
  575MOL0     O77521   9.575   7.200   5.531  0.0343  0.0729  0.0701
  575MOL0     C77522   9.664   7.109   5.574  0.0831  0.5985 -0.1683
  575MOL0     C77523   9.637   6.970   5.572  0.0607 -0.2000  0.8042
  575MOL0     C77524   9.713   6.878   5.629 -0.6177 -0.0005 -0.3932
  575MOL0     C77525   9.832   6.924   5.696 -0.4750  0.1093  0.0053
  575MOL0     O77526   9.917   6.844   5.762  0.0872 -0.0655 -0.2639
  575MOL0     C77527   9.976   6.728   5.679  0.6654  0.5588 -0.8273
  575MOL0     C77528  10.124   6.761   5.654  0.8694  0.1882  0.0744
  575MOL0     C77529  10.203   6.762   5.790  0.8195 -0.1602  0.1600
  575MOL0     C77530  10.312   6.874   5.789 -0.5052  0.2352  0.4364
  575MOL0     C77531  10.252   7.008   5.820 -0.1422 -0.0508 -0.1127
  575MOL0     C77532  10.352   7.081   5.910  0.2065  0.8010  0.7815
  575MOL0     C77533  10.307   7.217   5.953 -0.1333  0.0417  0.0237
  575MOL0     C77534  10.364   7.256   6.089 -0.2366  0.1167  0.4703
  575MOL0    Cl77535  10.357   7.437   6.111  0.6326 -0.3942 -0.1783
  575MOL0     C77536   9.858   7.063   5.701  1.1483  0.7961  0.0167
  575MOL0     C77537   9.772   7.152   5.644  1.5192  0.3820  0.5602
  575MOL0     O77538   9.384   7.082   5.553  0.0232  0.5067 -0.0276
  575MOL0     C77539   9.221   7.292   5.588 -0.6756  0.5601  0.7620
  575MOL0     C77540   9.147   7.406   5.607  0.1241  0.3224  0.5380
  575MOL0     N77541   8.734   7.920   5.936 -0.4339  0.1820  0.2837
  575MOL0     N77542   8.731   8.031   6.002  0.0849  0.5019  0.5011
  575MOL0     C77543   8.490   9.239   6.063  0.3810 -0.7707  0.2890
  575MOL0     C77544   8.495   9.383   6.067  0.0554 -0.3445  0.6499
  575MOL0     C77545   8.441   9.809   6.231 -0.6296  0.2824 -0.3841
  575MOL0     C77546   8.499   9.861   6.114 -0.1051 -0.2681  1.2380
  575MOL0     C77547   8.519  10.006   6.089  1.0275 -0.6842 -0.3403
  575MOL0     C77548   8.516  10.085   6.203 -0.4579 -0.9454 -0.4152
  575MOL0     O77549   8.543  10.217   6.186  0.3587 -0.3847  0.1466
  575MOL0     C77550   8.685  10.226   6.212  0.2512 -0.6159 -0.2642
  575MOL0     C77551   8.780  10.232   6.086 -0.6675  1.0568  1.0468
  575MOL0     C77552   8.736  10.342   5.989  0.9559  0.0111 -0.4342
  575MOL0     C77553   8.840  10.366   5.883  1.2980 -0.2200  0.6573
  575MOL0     C77554   8.958  10.431   5.941  0.4400  0.1499  0.0777
  575MOL0     C77555   9.054  10.497   5.970  0.0062  0.0255 -0.6398
  575MOL0     C77556   8.459  10.034   6.317 -0.1291 -0.0289 -0.8766
  575MOL0     C77557   8.420   9.902   6.337 -0.2758  0.5188 -0.2024
  575MOL0     H77558   8.188   9.465   6.174  1.0663  2.3516 -0.3387
  575MOL0     H77559   8.167   9.206   6.172 -0.7530 -0.5917 -3.4143
  575MOL0     H77560   8.516   8.964   6.023  0.2369 -1.5192 -0.2216
  575MOL0     H77561   8.555   8.989   6.196 -2.5701  3.2449  0.6615
  575MOL0     H77562   8.430   8.817   6.274  2.0946  4.2037  0.1516
  575MOL0     H77563   8.321   8.805   6.139 -0.2632  2.6261 -0.0194
  575MOL0     H77564   8.589   8.723   6.046  1.3758 -0.7797  1.4873
  575MOL0     H77565   8.538   8.648   6.200 -0.3788  0.8370  0.6387
  575MOL0     H77566   8.341   8.578   6.124  0.8491  1.7077  0.6259
  575MOL0     H77567   8.354   8.630   5.957  1.5993  1.0115 -0.5714
  575MOL0     H77568   8.538   8.431   6.088 -1.5050 -2.5084 -0.0242
  575MOL0     H77569   8.399   8.379   5.982  0.5972 -0.7356 -2.1179
  575MOL0     H77570   8.507   8.516   5.813 -3.4399 -2.1576 -0.4501
  575MOL0     H77571   8.656   8.519   5.916  0.7480 -1.1145 -0.7245
  575MOL0     H77572   8.527   8.261   5.826  1.1099 -1.7737  1.3951
  575MOL0     H77573   8.656   8.352   5.746  1.8854  0.0022  0.1815
  575MOL0     H77574   8.655   8.252   6.045  0.7812 -1.1002  0.5869
  575MOL0     H77575   8.789   8.330   5.971 -0.4263  0.1900 -1.8128
  575MOL0     H77576   8.772   8.128   5.688 -0.7968 -3.9934 -1.6009
  575MOL0     H77577   8.748   7.753   5.736 -1.1018 -2.1257 -4.4266
  575MOL0     H77578   8.686   7.864   5.625  2.8124  4.7416 -1.5738
  575MOL0     H77579   8.914   7.934   5.556 -3.0649  1.8680  0.2465
  575MOL0     H77580   8.901   7.759   5.554 -0.8850  0.7062 -0.5563
  575MOL0     H77581   9.015   7.790   5.806  0.2160  1.7617  0.9660
  575MOL0     H77582   9.068   7.937   5.747  3.7413 -1.7308  1.3885
  575MOL0     H77583   9.226   7.758   5.703  0.0668  2.2085 -0.7075
  575MOL0     H77584   9.178   7.821   5.545 -2.2384 -1.6552 -0.7242
  575MOL0     H77585   9.368   7.637   5.493  2.1991 -2.4313 -0.0914
  575MOL0     H77586   9.544   7.398   5.353  0.4354  3.3000 -2.6031
  575MOL0     H77587   9.543   7.560   5.390  3.9976  1.0594  0.9513
  575MOL0     H77588   9.612   7.459   5.513 -1.1108 -2.5647  0.8157
  575MOL0     H77589   9.560   6.932   5.505 -0.5710  0.2075  1.2928
  575MOL0     H77590   9.679   6.776   5.618 -0.0587 -0.4929  1.8782
  575MOL0     H77591   9.970   6.632   5.732  0.3348  1.0092 -0.0214
  575MOL0     H77592   9.929   6.715   5.581  3.2364 -2.4661 -1.8184
  575MOL0     H77593  10.174   6.690   5.588 -0.0247  2.7942 -3.7048
  575MOL0     H77594  10.123   6.863   5.613 -1.5818  1.6989  3.4065
  575MOL0     H77595  10.245   6.663   5.811 -5.0589 -4.0469 -3.4328
  575MOL0     H77596  10.134   6.782   5.872  0.5977 -1.2613  0.2590
  575MOL0     H77597  10.379   6.838   5.867  1.1870 -0.6823 -1.3391
  575MOL0     H77598  10.371   6.868   5.697 -3.5821  1.3161 -1.7996
  575MOL0     H77599  10.156   7.010   5.872 -1.1239  1.7358 -1.8040
  575MOL0     H77600  10.240   7.056   5.722  0.3597  0.7968  0.2321
  575MOL0     H77601  10.363   7.030   6.006 -2.2024  2.6740  2.1837
  575MOL0     H77602  10.447   7.069   5.856 -0.4371  0.6135 -0.3301
  575MOL0     H77603  10.198   7.218   5.958 -0.1898 -2.2789  0.5813
  575MOL0     H77604  10.341   7.283   5.873  1.9918 -2.0284 -0.8782
  575MOL0     H77605  10.469   7.230   6.105 -0.6817 -1.8453  0.5042
  575MOL0     H77606  10.313   7.196   6.165  0.6126 -0.1860  0.8189
  575MOL0     H77607   9.947   7.096   5.754  1.3602  0.9169 -0.4078
  575MOL0     H77608   9.790   7.258   5.652 -0.4670  0.9935 -1.7136
  575MOL0     H77609   9.175   7.194   5.581 -4.0556  2.0650 -0.1909
  575MOL0     H77610   9.048   7.381   5.646  0.4597 -2.8897 -0.4408
  575MOL0     H77611   8.573   9.193   6.011 -1.2545 -1.8903 -1.4674
  575MOL0     H77612   8.583   9.431   6.026  0.4831 -0.5866  1.2650
  575MOL0     H77613   8.519   9.806   6.023  1.9025  2.5496 -0.1883
  575MOL0     H77614   8.559  10.032   5.992  0.5298 -3.0270 -1.2473
  575MOL0     H77615   8.696  10.316   6.272  1.3832 -1.1515  0.3707
  575MOL0     H77616   8.730  10.144   6.269 -2.1800 -1.4106  0.6568
  575MOL0     H77617   8.774  10.130   6.046 -1.7028  1.4139  0.2468
  575MOL0     H77618   8.882  10.261   6.112 -0.3520  0.2467  0.7673
  575MOL0     H77619   8.712  10.435   6.042 -0.4247 -0.1466 -0.7349
  575MOL0     H77620   8.644  10.302   5.945  0.1676 -0.3005  1.3623
  575MOL0     H77621   8.806  10.434   5.805  4.8631  1.8509  0.6680
  575MOL0     H77622   8.859  10.267   5.839 -1.9387 -1.3555  1.5637
  575MOL0     H77623   9.132  10.565   5.996 -0.9840  0.3675  1.6706
  575MOL0     H77624   8.453  10.103   6.401 -1.0993  1.8798 -2.4395
  575MOL0     H77625   8.388   9.871   6.436  2.3633 -3.5511 -0.3558
  576MOL0     O77626   8.622   6.076   6.360 -0.1990 -0.3290 -0.0286
  576MOL0     C77627   8.722   6.142   6.381 -0.2753 -0.9954  0.0666
  576MOL0     O77628   8.841   6.102   6.431  0.0503  0.4503 -1.4122
  576MOL0     C77629   8.866   5.960   6.446  0.5392  0.0844  0.0736
  576MOL0     C77630   8.928   5.926   6.561 -0.0151  0.6976 -0.2887
  576MOL0     C77631   8.952   5.795   6.586  0.3280  0.6822  0.0673
  576MOL0     C77632   8.903   5.688   6.504  0.5324 -0.3148 -0.1235
  576MOL0     O77633   8.916   5.557   6.538  0.1282  0.7760 -0.1630
  576MOL0     C77634   8.970   5.513   6.666  0.1060 -1.2092  0.1950
  576MOL0     C77635   9.000   5.359   6.656 -0.4696 -0.1977 -0.3724
  576MOL0     C77636   9.128   5.330   6.578  0.0579  0.4167  0.3808
  576MOL0     C77637   9.095   5.318   6.422  0.2981  0.0395  0.5053
  576MOL0     C77638   9.225   5.271   6.351 -0.1292  0.1577 -0.5810
  576MOL0     C77639   9.180   5.221   6.217  0.5497 -0.2265  0.5437
  576MOL0     C77640   9.147   5.071   6.229 -0.8163 -0.1127  0.1109
  576MOL0     C77641   9.131   5.009   6.082  0.3370  0.3398 -0.0372
  576MOL0     N77642   9.254   5.007   5.999 -0.0209  0.6560 -0.7373
  576MOL0     C77643   9.290   5.093   5.901  0.1307 -0.5437  0.2986
  576MOL0     C77644   9.424   5.062   5.874  0.2751  0.9197 -0.5452
  576MOL0     C77645   9.521   5.139   5.784  0.3166  0.0949 -0.1904
  576MOL0     C77646   9.651   5.188   5.863  0.1841 -0.2620 -0.3152
  576MOL0     C77647   9.731   5.274   5.760  0.0130  0.2503 -0.6916
  576MOL0     C77648   9.865   5.322   5.818 -0.1047 -0.3963  0.5240
  576MOL0     O77649   9.945   5.214   5.865  0.0719  0.0108 -0.0782
  576MOL0     C77650  10.019   5.154   5.769  0.1598 -0.4345  0.4628
  576MOL0     C77651  10.118   5.230   5.696 -0.2110 -0.3461 -1.2152
  576MOL0     C77652  10.194   5.171   5.594 -0.1581 -0.0179 -1.0865
  576MOL0     C77653  10.292   5.275   5.531  0.1497  0.2214 -0.0927
  576MOL0     C77654  10.193   5.029   5.575 -0.7225  0.1242 -0.0321
  576MOL0     C77655  10.285   4.967   5.481 -0.1554 -0.7299  0.5030
  576MOL0     O77656  10.293   4.843   5.498  0.1411 -0.2101  0.2781
  576MOL0     C77657  10.404   4.770   5.472  0.8016  0.8101 -0.6081
  576MOL0     C77658  10.401   4.626   5.483 -0.4935  0.9762  0.3834
  576MOL0     C77659  10.512   4.537   5.483  0.3285 -0.5346 -0.0844
  576MOL0     C77660  10.636   4.594   5.454  0.3396  0.4329 -0.4673
  576MOL0     O77661  10.753   4.522   5.455  0.1059 -0.0084  0.4448
  576MOL0     C77662  10.839   4.550   5.336 -0.0843 -0.4556 -0.1658
  576MOL0     C77663  10.962   4.460   5.325 -0.4302 -0.1169  0.3551
  576MOL0     C77664  11.054   4.511   5.215  0.3817 -0.5053  0.1198
  576MOL0     C77665  11.170   4.419   5.198 -0.3805  0.1836  0.3408
  576MOL0     C77666  11.236   4.446   5.062 -0.2017  0.4236  0.2823
  576MOL0     C77667  11.328   4.329   5.015 -1.3068  0.7610  0.8095
  576MOL0     C77668  11.261   4.201   4.974 -1.0848 -0.2571  0.1414
  576MOL0     C77669  11.374   4.103   4.918  0.2578 -0.9477 -0.8003
  576MOL0    Cl77670  11.410   4.180   4.758 -0.2185  0.1834  0.5989
  576MOL0     C77671  10.642   4.731   5.446  0.1994 -0.8674  0.0787
  576MOL0     C77672  10.530   4.818   5.444 -0.5309 -0.3882  0.0540
  576MOL0     O77673  10.335   5.034   5.390  0.4240 -0.1373  0.0656
  576MOL0     C77674  10.101   4.954   5.644 -0.3106  0.3293 -0.5649
  576MOL0     C77675  10.023   5.011   5.750  0.4148 -0.1095 -0.9009
  576MOL0     N77676   9.466   4.944   5.951  0.4919  0.1199  0.0935
  576MOL0     N77677   9.358   4.918   6.021  0.2272  0.0776 -0.2566
  576MOL0     C77678   8.836   5.723   6.388  0.5860 -0.6801 -0.4580
  576MOL0     C77679   8.822   5.864   6.355 -0.2649  0.2960  0.3193
  576MOL0     C77680   8.725   6.283   6.338  0.0178  0.8498 -0.1496
  576MOL0     C77681   8.604   6.349   6.305  0.3626  0.4786 -0.2762
  576MOL0     C77682   8.598   6.475   6.254  0.4403 -0.3165 -0.0615
  576MOL0     C77683   8.718   6.542   6.223 -0.5102  0.6377 -0.0857
  576MOL0     O77684   8.746   6.661   6.157 -0.5626 -0.5854  0.0522
  576MOL0     C77685   8.684   6.784   6.211 -0.3486  0.4702 -0.0324
  576MOL0     C77686   8.522   6.785   6.197 -0.0461  0.2697 -0.8922
  576MOL0     C77687   8.474   6.780   6.055 -0.1153  0.6479 -0.4774
  576MOL0     C77688   8.314   6.775   6.039  0.0419 -0.2327 -1.0752
  576MOL0     C77689   8.247   6.903   6.061 -0.0283 -0.7795  0.5108
  576MOL0     C77690   8.223   7.014   6.094 -0.0437 -0.2892  0.1445
  576MOL0     C77691   8.841   6.480   6.267 -0.3206 -0.5545  0.9265
  576MOL0     C77692   8.844   6.352   6.319 -1.4730 -0.3969 -0.2606
  576MOL0     H77693   8.954   6.007   6.628 -1.8922  1.0143  0.0964
  576MOL0     H77694   9.017   5.776   6.671 -1.3679 -1.0880  1.0533
  576MOL0     H77695   9.063   5.563   6.692 -2.0443  3.2595  0.0811
  576MOL0     H77696   8.907   5.535   6.752  1.1605  0.7323  0.5101
  576MOL0     H77697   9.012   5.334   6.762  0.6054  1.1292 -0.1685
  576MOL0     H77698   8.910   5.327   6.602 -1.2871  1.6386 -0.1560
  576MOL0     H77699   9.209   5.401   6.597 -1.3793  1.8936  1.3269
  576MOL0     H77700   9.157   5.236   6.625 -1.7078 -0.3115  0.0940
  576MOL0     H77701   9.015   5.247   6.400  1.1761  0.1436 -3.8708
  576MOL0     H77702   9.070   5.420   6.390  2.5735  1.1949  2.1196
  576MOL0     H77703   9.283   5.364   6.353 -1.6022  1.1041 -0.3421
  576MOL0     H77704   9.270   5.190   6.408  0.1928 -0.7648 -2.1059
  576MOL0     H77705   9.092   5.274   6.180 -1.4396 -1.9630  2.5283
  576MOL0     H77706   9.263   5.237   6.147  0.3346  1.0906  0.5540
  576MOL0     H77707   9.220   5.011   6.285 -1.5871 -0.6859  0.5231
  576MOL0     H77708   9.050   5.046   6.274 -1.1836  0.9446 -0.0814
  576MOL0     H77709   9.053   5.065   6.030  0.1005  0.1191  0.0819
  576MOL0     H77710   9.113   4.902   6.099 -1.3628  0.7365  0.7966
  576MOL0     H77711   9.238   5.179   5.860  0.4213  2.1579  4.8852
  576MOL0     H77712   9.567   5.077   5.706  1.5563  0.4173  0.2611
  576MOL0     H77713   9.458   5.215   5.736 -1.5487 -0.6755  0.9151
  576MOL0     H77714   9.711   5.100   5.887  3.2811  0.5723 -3.9322
  576MOL0     H77715   9.630   5.246   5.953  1.0205  0.6120 -0.6645
  576MOL0     H77716   9.678   5.367   5.736  1.3226  1.3508  0.4786
  576MOL0     H77717   9.742   5.227   5.662 -1.8034 -1.3618 -0.1929
  576MOL0     H77718   9.841   5.378   5.909  1.2121 -0.0599  0.6829
  576MOL0     H77719   9.918   5.394   5.755  0.3935 -0.2071  1.1511
  576MOL0     H77720  10.122   5.337   5.711 -0.3009 -0.2868 -1.6111
  576MOL0     H77721  10.397   5.250   5.543 -0.0329 -0.9148 -0.6733
  576MOL0     H77722  10.262   5.287   5.426 -0.0022 -1.9941 -0.3623
  576MOL0     H77723  10.301   5.373   5.579 -0.6594  1.3014 -2.0033
  576MOL0     H77724  10.307   4.574   5.499 -0.2544  0.7118  0.9498
  576MOL0     H77725  10.498   4.431   5.503  0.0472 -0.4056  0.4278
  576MOL0     H77726  10.785   4.527   5.244  3.4381  1.7573 -3.0403
  576MOL0     H77727  10.873   4.654   5.336  1.3234 -0.7720  3.2821
  576MOL0     H77728  10.997   4.454   5.428  0.5515  2.5763  0.2454
  576MOL0     H77729  10.930   4.359   5.296 -1.9293  1.2335 -3.4885
  576MOL0     H77730  11.097   4.610   5.235  2.0444 -1.1298 -0.2410
  576MOL0     H77731  10.998   4.515   5.121  1.8569  0.7505 -0.7614
  576MOL0     H77732  11.236   4.427   5.285 -1.4185  0.2083  1.1461
  576MOL0     H77733  11.128   4.318   5.208  1.1858 -0.6457 -0.9219
  576MOL0     H77734  11.290   4.541   5.064 -0.3638  0.5429  3.3750
  576MOL0     H77735  11.164   4.466   4.982  0.1380  1.1696  0.1569
  576MOL0     H77736  11.392   4.364   4.933 -0.9385  0.1737  0.8392
  576MOL0     H77737  11.391   4.303   5.100 -1.0285  0.6148  0.5586
  576MOL0     H77738  11.172   4.209   4.911 -0.2634  0.5431 -0.9623
  576MOL0     H77739  11.231   4.154   5.068 -0.2331 -0.1417  0.4813
  576MOL0     H77740  11.343   3.998   4.915  0.6107 -1.1296  0.8444
  576MOL0     H77741  11.468   4.112   4.973  0.3523 -1.4528 -0.8719
  576MOL0     H77742  10.735   4.786   5.441  0.8367 -1.4702  3.2461
  576MOL0     H77743  10.557   4.923   5.441  5.3011 -1.4856  1.6030
  576MOL0     H77744  10.095   4.846   5.647 -3.2067  0.3998  2.8748
  576MOL0     H77745   9.955   4.960   5.817  2.7720 -0.4412  1.4253
  576MOL0     H77746   8.799   5.650   6.317 -2.3279  0.1688  0.0568
  576MOL0     H77747   8.768   5.893   6.266 -0.6019 -1.3042 -0.0351
  576MOL0     H77748   8.515   6.287   6.310  1.1887 -1.3360 -4.2221
  576MOL0     H77749   8.497   6.503   6.223 -0.4578 -1.2721  1.8432
  576MOL0     H77750   8.704   6.771   6.318 -0.5541 -2.3245 -0.2558
  576MOL0     H77751   8.732   6.873   6.170  0.2747  2.0745  3.7843
  576MOL0     H77752   8.486   6.877   6.245 -0.0734  0.8611 -2.0170
  576MOL0     H77753   8.477   6.700   6.248  0.7221  0.9460  0.9975
  576MOL0     H77754   8.513   6.696   5.998 -4.2190 -0.2653 -2.2992
  576MOL0     H77755   8.517   6.870   6.008  0.3534  1.1976  0.9656
  576MOL0     H77756   8.280   6.701   6.111 -0.3490  0.9595 -0.0101
  576MOL0     H77757   8.268   6.743   5.945 -0.5427 -1.7262 -0.3200
  576MOL0     H77758   8.204   7.114   6.129  0.8757 -0.3596  0.9097
  576MOL0     H77759   8.939   6.525   6.268  1.2686 -3.6516 -0.7597
  576MOL0     H77760   8.944   6.321   6.346 -0.4716  2.4181 -0.3591
  577MOL0     O77761   3.203   2.033   5.883  0.3188 -0.2643  0.2315
  577MOL0     C77762   3.315   1.983   5.906 -0.4408 -0.8933 -0.1128
  577MOL0     O77763   3.387   2.000   6.021  0.2927 -0.6078 -0.8846
  577MOL0     C77764   3.344   2.097   6.117  0.2528  0.5659 -0.5130
  577MOL0     C77765   3.410   2.210   6.147 -1.5165 -0.2891 -0.5776
  577MOL0     C77766   3.380   2.294   6.256  0.6584  0.1756 -0.4208
  577MOL0     C77767   3.278   2.264   6.339  0.0194 -0.2523 -0.1578
  577MOL0     O77768   3.244   2.336   6.450 -0.2378 -1.1707 -0.9140
  577MOL0     C77769   3.341   2.386   6.542 -0.1643 -0.0274  0.1024
  577MOL0     C77770   3.341   2.307   6.675 -0.3446  0.2903  0.0293
  577MOL0     C77771   3.413   2.387   6.776  0.5145  0.0573  0.7052
  577MOL0     C77772   3.419   2.298   6.910  1.1826 -0.2964 -0.6931
  577MOL0     C77773   3.446   2.377   7.045 -0.7665  0.1282  0.2096
  577MOL0     C77774   3.569   2.468   7.023  0.0161  0.3582 -0.6590
  577MOL0     C77775   3.603   2.539   7.159 -1.1127  0.1670  0.5941
  577MOL0     C77776   3.481   2.628   7.216 -0.4236  0.0616  0.2242
  577MOL0     N77777   3.511   2.726   7.313 -0.2030  0.2597 -1.1296
  577MOL0     C77778   3.544   2.697   7.445  0.0830  0.8632  0.6997
  577MOL0     C77779   3.554   2.813   7.509  1.5338  0.1116 -0.3365
  577MOL0     C77780   3.590   2.834   7.653 -0.5668  0.6083  0.3625
  577MOL0     C77781   3.628   2.982   7.689  0.7865  0.3383 -0.0760
  577MOL0     C77782   3.501   3.060   7.723 -0.8883 -0.6489 -0.2252
  577MOL0     C77783   3.551   3.198   7.775  0.3503  0.2314  0.4556
  577MOL0     O77784   3.447   3.294   7.771 -0.5141 -0.3098  0.1099
  577MOL0     C77785   3.471   3.432   7.750 -0.4960  0.6737 -0.5710
  577MOL0     C77786   3.376   3.528   7.776 -0.8487  1.0542  1.0143
  577MOL0     C77787   3.402   3.666   7.763 -0.3883 -0.6323 -0.2659
  577MOL0     C77788   3.282   3.755   7.790  0.2445 -0.2498  0.3990
  577MOL0     C77789   3.520   3.718   7.703 -0.2786 -0.4673  0.2685
  577MOL0     C77790   3.550   3.862   7.681  0.2208 -0.3125 -0.3367
  577MOL0     O77791   3.650   3.889   7.590  0.0801  0.7431 -0.1603
  577MOL0     C77792   3.646   3.998   7.506  0.2849 -0.4713 -0.2887
  577MOL0     C77793   3.770   4.067   7.480  0.0212  0.2872  0.6995
  577MOL0     C77794   3.765   4.183   7.405  0.0031 -0.2567  0.2569
  577MOL0     C77795   3.639   4.236   7.355  0.4061 -0.2000  0.6544
  577MOL0     O77796   3.625   4.343   7.282 -0.6833  0.0924  0.4833
  577MOL0     C77797   3.695   4.460   7.333 -0.7725  0.4100  1.3171
  577MOL0     C77798   3.664   4.578   7.240  0.2188 -0.2599  0.2642
  577MOL0     C77799   3.520   4.632   7.257 -0.3408 -0.5737 -0.1892
  577MOL0     C77800   3.459   4.723   7.147 -0.4121  0.0229  0.2318
  577MOL0     C77801   3.560   4.833   7.099  0.0275  0.2585  0.2527
  577MOL0     C77802   3.502   4.913   6.986 -0.1271  0.2908  0.4308
  577MOL0     C77803   3.583   5.044   6.980 -0.3579 -0.1273  0.0771
  577MOL0     C77804   3.582   5.110   6.846  0.6253 -0.8016 -0.6188
  577MOL0    Cl77805   3.680   5.253   6.862 -0.0655 -0.2530  0.1611
  577MOL0     C77806   3.518   4.165   7.378 -0.3392 -0.6602 -0.5824
  577MOL0     C77807   3.526   4.044   7.447 -0.5863  0.7328 -0.1619
  577MOL0     O77808   3.486   3.949   7.747  0.0074  0.2518  0.4306
  577MOL0     C77809   3.612   3.620   7.680 -0.6824 -0.6095  0.1742
  577MOL0     C77810   3.595   3.490   7.704  1.2371  0.2067 -0.8433
  577MOL0     N77811   3.536   2.910   7.416  0.5780  0.1458 -0.3512
  577MOL0     N77812   3.489   2.856   7.311 -0.2482  0.8961  0.6050
  577MOL0     C77813   3.212   2.141   6.314 -0.7617 -0.6990 -0.5688
  577MOL0     C77814   3.247   2.063   6.214 -0.3562 -0.3699 -0.1452
  577MOL0     C77815   3.359   1.882   5.808 -0.6468  0.5421  0.1737
  577MOL0     C77816   3.480   1.824   5.818  0.6565 -0.0249 -0.7265
  577MOL0     C77817   3.521   1.736   5.715  0.5929 -0.9363 -0.1952
  577MOL0     C77818   3.433   1.696   5.613 -0.4993  0.4940  0.8544
  577MOL0     O77819   3.493   1.619   5.519  0.0961  0.3978 -0.6354
  577MOL0     C77820   3.464   1.644   5.380  0.1212  0.5899 -0.2650
  577MOL0     C77821   3.429   1.501   5.340 -0.1685 -0.5029  0.5291
  577MOL0     C77822   3.405   1.496   5.184 -0.3300  0.1690  0.0931
  577MOL0     C77823   3.331   1.375   5.126 -0.4461  0.2148 -0.5700
  577MOL0     C77824   3.192   1.364   5.159  0.3622 -0.9590 -0.4580
  577MOL0     C77825   3.073   1.355   5.182 -0.7035 -0.0733 -0.3918
  577MOL0     C77826   3.307   1.755   5.609  0.1133 -0.7094 -0.3330
  577MOL0     C77827   3.272   1.850   5.707 -0.1005 -0.1006  0.1038
  577MOL0     H77828   3.495   2.232   6.084 -3.8929  1.5903 -3.3975
  577MOL0     H77829   3.439   2.384   6.269  1.4626 -0.0015 -2.4259
  577MOL0     H77830   3.446   2.377   6.510 -0.0579 -3.0200  0.9842
  577MOL0     H77831   3.312   2.488   6.566 -1.9935 -0.5301  0.1928
  577MOL0     H77832   3.242   2.277   6.711 -0.6599  0.2904 -0.8026
  577MOL0     H77833   3.390   2.212   6.652 -3.8401 -1.2744 -1.9089
  577MOL0     H77834   3.511   2.416   6.736  0.4108  0.5694  0.8196
  577MOL0     H77835   3.356   2.475   6.806 -0.2073 -0.4612  0.8838
  577MOL0     H77836   3.329   2.237   6.924  0.5557  0.9228  0.8811
  577MOL0     H77837   3.508   2.236   6.899  0.6105 -0.9054 -2.1171
  577MOL0     H77838   3.360   2.444   7.054 -1.8953 -1.2934  0.3406
  577MOL0     H77839   3.458   2.310   7.130  0.0378 -0.0901 -0.0647
  577MOL0     H77840   3.660   2.418   6.988 -0.1824  0.6652 -1.6621
  577MOL0     H77841   3.559   2.550   6.951  1.3012  1.5564  0.4755
  577MOL0     H77842   3.615   2.465   7.238  0.8326  1.6653  1.7908
  577MOL0     H77843   3.699   2.592   7.159 -1.2818  0.4944 -0.6688
  577MOL0     H77844   3.411   2.558   7.263 -2.6294  1.6551 -0.5445
  577MOL0     H77845   3.427   2.674   7.133  0.0429 -0.6448 -0.4851
  577MOL0     H77846   3.564   2.600   7.490 -0.1222  0.6219  0.2817
  577MOL0     H77847   3.508   2.802   7.717 -2.1196  2.0167 -0.8349
  577MOL0     H77848   3.684   2.783   7.675 -2.2088 -3.4625 -1.2889
  577MOL0     H77849   3.685   3.025   7.606 -0.5268  0.1360 -1.1121
  577MOL0     H77850   3.695   2.986   7.776  1.8735  1.2286 -0.9225
  577MOL0     H77851   3.453   3.016   7.811 -2.1260  1.3769  0.1730
  577MOL0     H77852   3.434   3.083   7.640  1.6000  2.3119 -1.5974
  577MOL0     H77853   3.638   3.229   7.716  0.7825 -3.2215 -0.9320
  577MOL0     H77854   3.598   3.190   7.873 -0.2137  1.2360  0.8229
  577MOL0     H77855   3.276   3.491   7.798 -1.3068 -0.2338 -2.5100
  577MOL0     H77856   3.261   3.803   7.694 -0.6281 -1.1515  0.1145
  577MOL0     H77857   3.190   3.711   7.828 -0.9783 -1.0580 -3.0557
  577MOL0     H77858   3.309   3.833   7.861 -0.1429  1.4834 -1.2710
  577MOL0     H77859   3.869   4.041   7.514 -0.0245  1.3506  1.7258
  577MOL0     H77860   3.852   4.248   7.397  1.5845 -2.2985  0.1556
  577MOL0     H77861   3.664   4.482   7.436  2.0312  2.7695  1.7732
  577MOL0     H77862   3.802   4.440   7.333 -1.2056 -2.2946  0.2976
  577MOL0     H77863   3.731   4.657   7.276 -0.5224 -0.0272  1.1884
  577MOL0     H77864   3.682   4.557   7.134  0.0231  1.5479 -0.1657
  577MOL0     H77865   3.525   4.704   7.340  0.6900 -1.0446  0.1696
  577MOL0     H77866   3.449   4.551   7.279 -1.9742  0.0333 -2.8592
  577MOL0     H77867   3.431   4.660   7.062  1.4638 -0.9521  0.2782
  577MOL0     H77868   3.381   4.783   7.194 -0.4478  0.7561 -0.7288
  577MOL0     H77869   3.650   4.784   7.060 -1.0418 -0.6217 -1.1939
  577MOL0     H77870   3.598   4.894   7.181  1.0411 -0.3370  0.2485
  577MOL0     H77871   3.510   4.851   6.896  0.0830 -2.8321  2.4548
  577MOL0     H77872   3.398   4.930   7.016  0.5936  3.2062  1.6440
  577MOL0     H77873   3.688   5.017   6.989 -0.5249 -1.9504 -2.4758
  577MOL0     H77874   3.563   5.114   7.062  1.6721  2.6122 -1.5938
  577MOL0     H77875   3.478   5.137   6.827  0.5655 -0.9157 -0.4525
  577MOL0     H77876   3.614   5.044   6.765 -1.4956 -1.1175 -1.2588
  577MOL0     H77877   3.418   4.202   7.355  0.0132  1.7660  1.3635
  577MOL0     H77878   3.431   3.992   7.455  0.9091 -2.5114 -1.6714
  577MOL0     H77879   3.715   3.642   7.652 -1.4427  2.1747 -0.7998
  577MOL0     H77880   3.673   3.415   7.700  0.1492 -1.3018  2.3793
  577MOL0     H77881   3.131   2.127   6.385 -1.5736  0.3295 -1.2513
  577MOL0     H77882   3.196   1.967   6.206  1.0639 -1.0854 -0.9048
  577MOL0     H77883   3.550   1.846   5.898 -0.4001 -0.2617  0.2899
  577MOL0     H77884   3.621   1.695   5.704  0.6983 -1.4072  2.0291
  577MOL0     H77885   3.380   1.714   5.375 -2.1712 -2.0309 -1.0854
  577MOL0     H77886   3.550   1.683   5.325  0.1557  0.1512 -0.5337
  577MOL0     H77887   3.335   1.460   5.379 -0.5172  0.4995  0.7771
  577MOL0     H77888   3.517   1.441   5.364  1.0837 -0.6771 -3.6907
  577MOL0     H77889   3.507   1.503   5.145  1.4711  0.9073  4.4028
  577MOL0     H77890   3.356   1.592   5.170  0.9446  0.6879 -1.0385
  577MOL0     H77891   3.378   1.290   5.177 -0.6446  1.6670  2.2671
  577MOL0     H77892   3.339   1.366   5.018 -0.4903  2.5207 -0.8274
  577MOL0     H77893   2.967   1.345   5.185 -0.4830 -3.0056  1.0514
  577MOL0     H77894   3.228   1.714   5.547 -1.5027 -1.9906  2.3934
  577MOL0     H77895   3.173   1.894   5.701 -0.3500 -0.7382 -0.7404
  578MOL0     O77896   4.448   9.937   4.064  0.8206  0.5056 -0.0572
  578MOL0     C77897   4.527   9.845   4.038 -0.6422 -0.3414 -0.4105
  578MOL0     O77898   4.497   9.722   3.972 -0.3736 -0.0391 -0.0799
  578MOL0     C77899   4.374   9.698   3.929  0.0914 -0.0276  1.2447
  578MOL0     C77900   4.289   9.795   3.855  0.8683  0.3026 -0.0436
  578MOL0     C77901   4.167   9.747   3.797 -0.8649 -0.3515 -0.7520
  578MOL0     C77902   4.118   9.616   3.813  0.8365  0.4916 -0.3685
  578MOL0     O77903   3.994   9.579   3.766  0.0609 -0.4043 -0.2278
  578MOL0     C77904   3.927   9.484   3.853  0.1964  0.4891 -0.2941
  578MOL0     C77905   3.778   9.480   3.822  0.5052 -0.0520  0.0811
  578MOL0     C77906   3.706   9.359   3.885 -0.2276  0.1854  0.2804
  578MOL0     C77907   3.706   9.365   4.043 -0.1364  0.0449 -1.6430
  578MOL0     C77908   3.646   9.244   4.100  0.3271  0.0410  0.2193
  578MOL0     C77909   3.585   9.264   4.241 -0.3612 -0.0078 -0.9248
  578MOL0     C77910   3.519   9.136   4.290 -0.6212 -0.2826  0.5575
  578MOL0     C77911   3.436   9.157   4.410  0.0040 -0.0096  1.3277
  578MOL0     N77912   3.389   9.026   4.445 -0.2768  0.4396 -0.0289
  578MOL0     C77913   3.451   8.938   4.526  0.5528  0.2445 -0.8526
  578MOL0     C77914   3.349   8.849   4.556 -0.3724 -0.3008 -0.3673
  578MOL0     C77915   3.369   8.713   4.625  0.1067  0.1198 -1.5082
  578MOL0     C77916   3.377   8.746   4.778  0.5235 -0.1191 -0.3802
  578MOL0     C77917   3.406   8.622   4.855  0.3406  0.4746  1.0315
  578MOL0     C77918   3.396   8.654   5.001 -0.1246 -0.8750  0.6093
  578MOL0     O77919   3.258   8.698   5.049  0.0984 -0.7053 -0.9983
  578MOL0     C77920   3.163   8.602   5.071  0.7423  0.2371  0.2364
  578MOL0     C77921   3.129   8.547   5.196 -0.3897  0.9051 -0.2405
  578MOL0     C77922   3.049   8.431   5.207 -0.4095 -0.0358 -0.4251
  578MOL0     C77923   3.020   8.384   5.360 -0.4003 -0.9630  0.3682
  578MOL0     C77924   2.997   8.371   5.088  1.0777  0.5244 -0.0838
  578MOL0     C77925   2.924   8.245   5.094 -0.0592  1.2992 -0.2992
  578MOL0     O77926   2.835   8.220   4.998  0.1665 -0.1739  0.4110
  578MOL0     C77927   2.777   8.099   4.994  0.5251  0.0794  0.0728
  578MOL0     C77928   2.661   8.076   5.064  0.8205  1.0860 -0.1691
  578MOL0     C77929   2.574   7.964   5.039  0.7460 -0.3509  0.1390
  578MOL0     C77930   2.613   7.868   4.953  0.4406  0.4215 -0.4190
  578MOL0     O77931   2.529   7.771   4.906  0.1489  0.0574  0.0489
  578MOL0     C77932   2.480   7.671   4.996 -0.2720  0.1520  0.0640
  578MOL0     C77933   2.336   7.629   4.965  0.0844  0.4693  0.2865
  578MOL0     C77934   2.238   7.754   4.956  0.2647 -0.3927  0.4323
  578MOL0     C77935   2.092   7.704   4.919  0.5326  0.2711 -0.1960
  578MOL0     C77936   1.996   7.830   4.917 -0.1830 -0.2366 -0.7320
  578MOL0     C77937   1.864   7.799   4.999 -1.1165  0.2610  0.9803
  578MOL0     C77938   1.764   7.911   4.964  0.7165  0.0919 -0.8727
  578MOL0     C77939   1.820   8.051   5.010  0.8268 -1.1202  0.4926
  578MOL0    Cl77940   1.859   8.039   5.182  0.1133  0.1330  0.2411
  578MOL0     C77941   2.733   7.887   4.889 -0.1761  1.2915  0.1135
  578MOL0     C77942   2.819   8.000   4.899  0.1381 -0.4255  1.0999
  578MOL0     O77943   2.966   8.159   5.177  0.1981  0.8359 -0.6387
  578MOL0     C77944   3.012   8.442   4.969  0.7480  0.2793 -0.6880
  578MOL0     C77945   3.087   8.555   4.962 -0.4562 -0.5269 -0.1339
  578MOL0     N77946   3.226   8.889   4.505 -0.6965  0.1626  0.3982
  578MOL0     N77947   3.263   8.989   4.434  0.6148 -0.6470 -0.3139
  578MOL0     C77948   4.202   9.531   3.890  0.1270 -0.0749 -0.2288
  578MOL0     C77949   4.317   9.576   3.954  0.1616 -0.5524 -0.7949
  578MOL0     C77950   4.668   9.864   4.074  0.4924  0.1278 -0.0189
  578MOL0     C77951   4.701   9.970   4.162 -0.1298  0.4865  0.1915
  578MOL0     C77952   4.835   9.989   4.194  0.4420 -0.7882 -0.8541
  578MOL0     C77953   4.941   9.928   4.126  0.6595  0.5161  0.1712
  578MOL0     O77954   5.069   9.958   4.170  0.1035  0.2476 -0.7305
  578MOL0     C77955   5.185   9.879   4.143  0.3495  0.7208  0.8241
  578MOL0     C77956   5.301   9.930   4.219  0.2296  0.3861  0.2501
  578MOL0     C77957   5.431   9.886   4.150  0.0353  0.1068  0.2780
  578MOL0     C77958   5.551   9.946   4.223 -0.4362 -0.4373 -0.6076
  578MOL0     C77959   5.670   9.888   4.167 -0.4621 -0.7972  0.0800
  578MOL0     C77960   5.758   9.840   4.100 -0.0654  0.1475 -1.1571
  578MOL0     C77961   4.905   9.831   4.036 -0.7129  0.5126  1.1395
  578MOL0     C77962   4.774   9.796   3.997  0.3779  0.0595  0.0309
  578MOL0     H77963   4.312   9.901   3.849 -3.5618  1.6653  2.3501
  578MOL0     H77964   4.117   9.820   3.734 -1.4251 -0.5244 -0.5099
  578MOL0     H77965   3.956   9.384   3.820 -1.6791 -0.4684  0.7932
  578MOL0     H77966   3.958   9.506   3.956  3.0150  3.9083 -1.6530
  578MOL0     H77967   3.749   9.576   3.864 -0.1454  0.3207 -1.1593
  578MOL0     H77968   3.764   9.484   3.713  0.8743  2.0982  0.0849
  578MOL0     H77969   3.602   9.377   3.859 -1.0006 -0.3613  2.7584
  578MOL0     H77970   3.742   9.266   3.840  1.6612  0.9531  0.0726
  578MOL0     H77971   3.805   9.354   4.088 -0.7953 -0.0209 -0.1572
  578MOL0     H77972   3.641   9.443   4.082 -1.5393 -2.9470  2.7273
  578MOL0     H77973   3.561   9.211   4.039  0.3842 -0.6896  0.5139
  578MOL0     H77974   3.727   9.171   4.113 -0.5314 -0.7539  1.1938
  578MOL0     H77975   3.661   9.306   4.307 -1.6277 -0.8068  1.1067
  578MOL0     H77976   3.505   9.337   4.230  1.1085  1.6371 -1.2596
  578MOL0     H77977   3.452   9.104   4.209 -0.7524 -1.2100  1.0205
  578MOL0     H77978   3.584   9.049   4.305 -0.2156  0.1358  1.2772
  578MOL0     H77979   3.357   9.226   4.378  2.3821  1.8689 -0.8368
  578MOL0     H77980   3.489   9.198   4.495  0.2323  0.8666  0.7720
  578MOL0     H77981   3.556   8.927   4.549  1.6743 -2.7085 -5.9509
  578MOL0     H77982   3.297   8.635   4.598  1.6780 -1.8571 -0.3063
  578MOL0     H77983   3.465   8.666   4.602 -0.9562 -2.7715 -0.5354
  578MOL0     H77984   3.276   8.778   4.806  0.7765  0.4810 -0.1291
  578MOL0     H77985   3.457   8.818   4.801  2.2403 -2.2093  0.5185
  578MOL0     H77986   3.507   8.592   4.828 -0.1288  1.1274 -1.7327
  578MOL0     H77987   3.337   8.540   4.835  2.5311 -1.6354  1.6449
  578MOL0     H77988   3.472   8.729   5.021  0.5842 -1.8465  1.6600
  578MOL0     H77989   3.413   8.562   5.058 -1.6072 -1.3978  0.2432
  578MOL0     H77990   3.174   8.582   5.288 -0.4078  0.9753 -0.2580
  578MOL0     H77991   2.940   8.313   5.382 -0.8858 -0.5798 -0.1362
  578MOL0     H77992   3.114   8.342   5.397  0.8753  1.5821  0.2697
  578MOL0     H77993   3.014   8.480   5.414 -0.2893  0.1332 -1.4912
  578MOL0     H77994   2.613   8.155   5.121  0.1384  0.7052 -0.2088
  578MOL0     H77995   2.478   7.949   5.087  0.9791 -1.6390  0.2148
  578MOL0     H77996   2.541   7.581   4.991  1.4392  1.2763 -0.1252
  578MOL0     H77997   2.496   7.698   5.101 -1.2799 -1.2636  0.6135
  578MOL0     H77998   2.340   7.570   4.873 -1.4003 -2.9493  2.2311
  578MOL0     H77999   2.289   7.569   5.043 -1.7823 -1.8091 -2.4135
  578MOL0     H78000   2.269   7.830   4.884 -1.9975 -0.6419 -0.9024
  578MOL0     H78001   2.239   7.803   5.054 -0.4988  2.5696 -0.9401
  578MOL0     H78002   2.092   7.661   4.819 -2.8446  0.1899 -0.2654
  578MOL0     H78003   2.059   7.632   4.994 -0.3179  1.1591  0.3103
  578MOL0     H78004   1.970   7.841   4.811 -1.2894 -2.4416 -0.7452
  578MOL0     H78005   2.049   7.919   4.953  1.3120  0.9414 -5.1956
  578MOL0     H78006   1.830   7.702   4.961  0.3473  1.1699 -3.2805
  578MOL0     H78007   1.875   7.792   5.107  0.9475 -1.6424  0.7287
  578MOL0     H78008   1.661   7.897   4.998  1.4411 -0.6686  1.1842
  578MOL0     H78009   1.740   7.903   4.858  0.3476  1.7644 -0.9348
  578MOL0     H78010   1.746   8.128   4.986  1.4249 -1.3395 -2.3625
  578MOL0     H78011   1.907   8.080   4.951  0.5686  0.5204  0.8592
  578MOL0     H78012   2.750   7.810   4.814 -0.2049 -1.0146  2.3451
  578MOL0     H78013   2.908   8.009   4.839 -0.4824 -2.0303 -0.1115
  578MOL0     H78014   2.999   8.403   4.869  1.9140 -0.4858 -0.5625
  578MOL0     H78015   3.105   8.601   4.866 -0.0959  2.4628  1.2505
  578MOL0     H78016   4.166   9.430   3.907 -1.2529  0.2795 -0.9028
  578MOL0     H78017   4.380   9.515   4.018 -1.4209  1.5658  3.1109
  578MOL0     H78018   4.633  10.022   4.228  1.3676 -0.3206  2.5090
  578MOL0     H78019   4.837  10.059   4.277  0.3218  1.1320 -2.4054
  578MOL0     H78020   5.181   9.774   4.171  1.1759  1.0456  2.2998
  578MOL0     H78021   5.219   9.887   4.040  1.0713  0.0340  1.0037
  578MOL0     H78022   5.284   9.893   4.321 -0.7151 -3.2945 -1.0657
  578MOL0     H78023   5.312  10.039   4.221  1.2657  0.3487 -1.2317
  578MOL0     H78024   5.435   9.913   4.044 -0.3860  0.4634  0.3531
  578MOL0     H78025   5.445   9.777   4.154  3.0628  0.3787 -0.5058
  578MOL0     H78026   5.530   9.934   4.329 -2.6260  0.1831 -0.9100
  578MOL0     H78027   5.558  10.054   4.210 -0.4395 -0.5048 -1.2502
  578MOL0     H78028   5.830   9.813   4.025  1.8681  0.3460  0.5493
  578MOL0     H78029   4.978   9.792   3.965 -1.4158  1.8726 -0.3902
  578MOL0     H78030   4.749   9.721   3.923 -0.1519 -0.7510  0.9922
  579MOL0     O78031  10.269   0.576   3.548 -0.7135 -0.4884 -0.4362
  579MOL0     C78032  10.277   0.688   3.497  0.0248  1.0729  0.1350
  579MOL0     O78033  10.173   0.776   3.498 -0.1893 -0.5035 -0.0255
  579MOL0     C78034  10.066   0.768   3.587  0.5226 -0.3415 -0.3245
  579MOL0     C78035  10.051   0.679   3.703  0.6587  0.1648  0.2898
  579MOL0     C78036   9.932   0.692   3.777  0.4978  0.7819 -0.1877
  579MOL0     C78037   9.830   0.773   3.751  0.3004 -1.7172 -0.0099
  579MOL0     O78038   9.713   0.788   3.819  0.0855 -0.2708  0.4101
  579MOL0     C78039   9.669   0.672   3.897  0.0387  0.0242  0.3656
  579MOL0     C78040   9.538   0.706   3.957  0.3714 -0.6351  0.3655
  579MOL0     C78041   9.476   0.585   4.036  0.2637 -0.0205  0.6674
  579MOL0     C78042   9.337   0.630   4.071  0.6463  0.2540 -0.8601
  579MOL0     C78043   9.280   0.542   4.180  0.5021 -0.6349  0.1450
  579MOL0     C78044   9.223   0.413   4.132 -0.0892 -0.9526  0.2911
  579MOL0     C78045   9.199   0.298   4.228 -0.1059  0.5857  0.4394
  579MOL0     C78046   9.110   0.322   4.351  0.1635  0.3791 -0.7047
  579MOL0     N78047   8.982   0.382   4.303  1.0683  0.1687  0.2270
  579MOL0     C78048   8.898   0.319   4.217  0.6996 -0.3715  0.0118
  579MOL0     C78049   8.809   0.406   4.165  0.1121  0.4080  0.2900
  579MOL0     C78050   8.713   0.417   4.053  1.3038 -0.1002  0.5580
  579MOL0     C78051   8.743   0.311   3.946 -0.3936  0.8060 -0.0787
  579MOL0     C78052   8.709   0.363   3.804  0.3482 -0.6954  0.5150
  579MOL0     C78053   8.800   0.290   3.704  0.4116  0.4275 -0.0888
  579MOL0     O78054   8.747   0.164   3.690 -0.7026 -0.1502  0.5087
  579MOL0     C78055   8.802   0.080   3.591  0.0320  0.3201  0.3958
  579MOL0     C78056   8.740  -0.043   3.580 -0.1501  0.0707 -0.1835
  579MOL0     C78057   8.786  -0.150   3.501  0.6540  0.0308 -0.2681
  579MOL0     C78058   8.712  -0.286   3.516  0.9479 -0.4285 -0.6321
  579MOL0     C78059   8.885  -0.121   3.409  0.3530 -0.4261 -0.4675
  579MOL0     C78060   8.944  -0.224   3.314 -0.9167 -0.3700 -0.2968
  579MOL0     O78061   8.948  -0.351   3.353  0.3513  0.7344  0.3741
  579MOL0     C78062   8.999  -0.454   3.277  0.0348  0.6702  0.2808
  579MOL0     C78063   8.946  -0.486   3.152 -0.1990 -0.2829  1.1091
  579MOL0     C78064   8.991  -0.599   3.080 -0.5263 -1.2321  0.5039
  579MOL0     C78065   9.086  -0.680   3.140 -0.5085 -0.6946  1.5551
  579MOL0     O78066   9.123  -0.791   3.064 -0.3068  0.4921 -0.6008
  579MOL0     C78067   9.266  -0.804   3.054 -0.7019  0.6948 -0.4073
  579MOL0     C78068   9.308  -0.910   2.948 -0.8346 -0.4539  0.3767
  579MOL0     C78069   9.457  -0.947   2.942  1.1834 -0.0804  0.1362
  579MOL0     C78070   9.475  -1.056   2.836 -0.3175 -0.3360 -0.2338
  579MOL0     C78071   9.620  -1.072   2.810  0.6824 -0.4839 -0.1812
  579MOL0     C78072   9.701  -1.156   2.908 -0.7249 -0.2174  0.1516
  579MOL0     C78073   9.848  -1.181   2.867 -0.1817  1.0975 -0.4453
  579MOL0     C78074   9.886  -1.258   2.744  0.4727  1.0282  0.3464
  579MOL0    Cl78075   9.862  -1.161   2.594  0.0541  0.2891  0.0377
  579MOL0     C78076   9.150  -0.635   3.265 -0.0146  0.3415  0.7753
  579MOL0     C78077   9.097  -0.529   3.333 -0.3311 -0.2490  0.6397
  579MOL0     O78078   8.963  -0.181   3.204  0.0261 -0.6570 -1.0867
  579MOL0     C78079   8.942   0.008   3.407 -0.8716  0.1796  0.5726
  579MOL0     C78080   8.905   0.109   3.504  0.1951 -1.2028  0.5936
  579MOL0     N78081   8.827   0.522   4.234  0.1191 -0.3812 -0.6634
  579MOL0     N78082   8.929   0.508   4.315  0.5124 -0.1512  0.0953
  579MOL0     C78083   9.840   0.864   3.645 -0.7096 -0.2526 -0.3230
  579MOL0     C78084   9.955   0.860   3.561  0.1110 -0.2525 -0.7088
  579MOL0     C78085  10.405   0.731   3.447 -0.5936  0.5117  0.0029
  579MOL0     C78086  10.518   0.656   3.481  0.0733  0.6487 -0.5584
  579MOL0     C78087  10.640   0.702   3.433 -0.2820  0.4854  1.4140
  579MOL0     C78088  10.673   0.819   3.361  0.3091  0.0916  0.2025
  579MOL0     O78089  10.799   0.840   3.322  0.6572  0.4844  0.7023
  579MOL0     C78090  10.819   0.895   3.192  0.2188  0.2750  0.8912
  579MOL0     C78091  10.960   0.875   3.147 -0.6320  0.0923 -0.3480
  579MOL0     C78092  11.051   0.951   3.237  0.2672 -0.7299 -1.1109
  579MOL0     C78093  11.198   0.974   3.175 -0.0364  0.0652  0.7197
  579MOL0     C78094  11.262   1.095   3.226 -0.2089 -1.0151  0.3419
  579MOL0     C78095  11.329   1.194   3.258 -0.3745 -0.2035  0.2372
  579MOL0     C78096  10.560   0.896   3.326  0.0590  0.2908  0.1154
  579MOL0     C78097  10.434   0.850   3.369  0.0268  0.2517 -0.5425
  579MOL0     H78098  10.133   0.618   3.740  0.7489  0.4241  0.5171
  579MOL0     H78099   9.915   0.621   3.857 -0.9357 -1.0121 -1.9716
  579MOL0     H78100   9.657   0.589   3.827 -0.0237  0.3116  0.0311
  579MOL0     H78101   9.740   0.642   3.974 -0.5271  1.3505  1.4521
  579MOL0     H78102   9.542   0.799   4.014  3.4891 -1.0860  1.0459
  579MOL0     H78103   9.476   0.732   3.870  1.1708  2.1672  0.5332
  579MOL0     H78104   9.470   0.499   3.967 -2.3400 -0.9491  1.9235
  579MOL0     H78105   9.541   0.555   4.119 -0.9482 -1.8552  1.0193
  579MOL0     H78106   9.344   0.726   4.122 -0.8680 -1.1697  2.3690
  579MOL0     H78107   9.267   0.641   3.987 -0.6041 -0.6333  0.0131
  579MOL0     H78108   9.355   0.533   4.260 -1.6560  0.1230  2.3846
  579MOL0     H78109   9.201   0.596   4.234  1.8035 -0.3474  1.8435
  579MOL0     H78110   9.128   0.428   4.081  1.0126 -0.5820 -1.7478
  579MOL0     H78111   9.295   0.381   4.056  0.6090  2.1997 -0.5535
  579MOL0     H78112   9.164   0.220   4.160  0.0641  0.7278  0.1819
  579MOL0     H78113   9.299   0.262   4.254 -0.0583  0.3536 -0.0440
  579MOL0     H78114   9.166   0.388   4.417  0.4390 -0.2332 -0.3193
  579MOL0     H78115   9.088   0.230   4.407 -0.2151 -0.3603 -2.0246
  579MOL0     H78116   8.909   0.215   4.187 -0.4202 -0.8123  1.0502
  579MOL0     H78117   8.610   0.415   4.092  1.1509 -1.7741  0.1243
  579MOL0     H78118   8.712   0.517   4.009 -3.6893  0.7102  1.8403
  579MOL0     H78119   8.699   0.213   3.970 -0.4205  1.1845  1.5659
  579MOL0     H78120   8.851   0.297   3.963 -0.7973 -1.6966  1.0091
  579MOL0     H78121   8.745   0.467   3.798  2.2325 -1.2446  1.4113
  579MOL0     H78122   8.604   0.352   3.776  0.9869 -2.9516 -1.3365
  579MOL0     H78123   8.907   0.276   3.724  0.3848 -1.8152 -1.2624
  579MOL0     H78124   8.796   0.331   3.602  2.5856  1.0137 -0.0032
  579MOL0     H78125   8.650  -0.070   3.634 -1.6200 -0.8889 -2.9143
  579MOL0     H78126   8.669  -0.318   3.421 -2.2278 -0.6615  0.7328
  579MOL0     H78127   8.781  -0.368   3.539  1.4392  0.3839  0.8867
  579MOL0     H78128   8.632  -0.285   3.592  0.6736  1.1272 -0.9097
  579MOL0     H78129   8.859  -0.437   3.111 -0.0844  1.0020  2.3434
  579MOL0     H78130   8.953  -0.630   2.983 -2.1930  1.5156  0.1899
  579MOL0     H78131   9.320  -0.713   3.027 -1.2528  0.6485 -1.7504
  579MOL0     H78132   9.307  -0.836   3.150 -0.6076  1.6466 -0.1179
  579MOL0     H78133   9.254  -1.001   2.977  1.0748 -1.4774  0.8519
  579MOL0     H78134   9.275  -0.887   2.846  1.8899  1.7921 -0.1128
  579MOL0     H78135   9.496  -0.973   3.041  0.8956 -0.9278  0.0349
  579MOL0     H78136   9.513  -0.856   2.921  1.5266 -0.4600 -0.6424
  579MOL0     H78137   9.438  -1.149   2.879  0.5972 -0.4429  0.3473
  579MOL0     H78138   9.423  -1.034   2.742  1.4619 -3.3893 -2.0949
  579MOL0     H78139   9.669  -0.974   2.803 -1.5422  0.8144  1.0651
  579MOL0     H78140   9.618  -1.118   2.711 -2.1024 -0.4917 -0.2042
  579MOL0     H78141   9.709  -1.099   3.001 -2.0832 -0.3274  0.3582
  579MOL0     H78142   9.654  -1.251   2.934  2.1298 -1.6151  0.5334
  579MOL0     H78143   9.898  -1.237   2.947  2.4109  2.5452 -0.9318
  579MOL0     H78144   9.898  -1.083   2.869 -2.9382  2.6095 -0.3536
  579MOL0     H78145   9.828  -1.348   2.721  3.0041 -0.6937  0.2733
  579MOL0     H78146   9.989  -1.294   2.737  1.1471  2.3442  2.5189
  579MOL0     H78147   9.229  -0.688   3.317  0.8362 -3.1061 -3.4577
  579MOL0     H78148   9.126  -0.512   3.436 -1.1886  1.8326  0.5890
  579MOL0     H78149   9.023   0.039   3.342  3.0049 -0.1191  4.7817
  579MOL0     H78150   8.972   0.194   3.509  0.0746 -0.8598 -2.1511
  579MOL0     H78151   9.762   0.933   3.616 -1.3292 -1.4909 -1.7478
  579MOL0     H78152   9.950   0.924   3.474  2.0973 -0.8879 -1.3378
  579MOL0     H78153  10.505   0.559   3.529 -3.0812 -0.1799 -2.7235
  579MOL0     H78154  10.719   0.628   3.449  2.6519  2.3643 -2.5493
  579MOL0     H78155  10.743   0.843   3.132  1.4762 -0.3659 -0.1841
  579MOL0     H78156  10.794   1.001   3.198 -3.1874 -0.4131  1.1394
  579MOL0     H78157  10.980   0.918   3.049  1.2174  0.1167  0.0152
  579MOL0     H78158  10.980   0.767   3.145 -3.2316 -0.4639 -1.1916
  579MOL0     H78159  11.064   0.898   3.332 -1.3136  1.3531  0.3528
  579MOL0     H78160  11.002   1.048   3.247  1.8318  0.2205 -2.1573
  579MOL0     H78161  11.210   0.979   3.066 -0.6556  0.0021  0.6436
  579MOL0     H78162  11.256   0.883   3.190 -1.3698 -0.6145  1.9660
  579MOL0     H78163  11.396   1.277   3.267 -0.0678 -0.6004  1.9428
  579MOL0     H78164  10.560   0.977   3.254  1.6401  3.0035  2.9465
  579MOL0     H78165  10.353   0.914   3.336 -0.5556 -0.9842 -1.5509
  580MOL0     O78166   2.033   7.740   4.050 -0.3836 -0.6998  0.1589
  580MOL0     C78167   2.092   7.791   3.950 -0.3028  0.2761  0.0425
  580MOL0     O78168   2.197   7.881   3.951 -0.2217 -0.9046 -0.7600
  580MOL0     C78169   2.213   7.940   4.080  0.4381 -0.6671  1.1141
  580MOL0     C78170   2.142   8.053   4.120 -0.6670  0.5832 -1.0744
  580MOL0     C78171   2.165   8.115   4.247  0.2533  0.3282  0.5041
  580MOL0     C78172   2.257   8.049   4.336 -0.1438  0.6101 -0.1842
  580MOL0     O78173   2.271   8.083   4.467  0.2301 -0.0756  0.6505
  580MOL0     C78174   2.189   8.181   4.523  0.1134 -0.6140 -0.0112
  580MOL0     C78175   2.160   8.125   4.657 -0.4728  0.0214 -0.3421
  580MOL0     C78176   2.284   8.096   4.741 -0.0415  0.1154 -0.0298
  580MOL0     C78177   2.365   8.223   4.773 -0.0320 -0.2042  0.3838
  580MOL0     C78178   2.299   8.297   4.887 -0.0274 -0.2576 -0.0149
  580MOL0     C78179   2.411   8.378   4.972  0.9568  0.6131  0.2718
  580MOL0     C78180   2.358   8.457   5.088  0.3788  0.1804 -0.1756
  580MOL0     C78181   2.487   8.504   5.157 -0.6435 -0.1783 -1.1624
  580MOL0     N78182   2.463   8.592   5.273  1.0480 -0.5882  0.0443
  580MOL0     C78183   2.496   8.719   5.292 -0.3882 -0.5745  0.5583
  580MOL0     C78184   2.445   8.750   5.420 -0.5968  0.4618 -0.4972
  580MOL0     C78185   2.458   8.869   5.508 -0.1175 -0.1675 -0.0433
  580MOL0     C78186   2.552   8.851   5.627 -0.0844 -0.4286  0.2800
  580MOL0     C78187   2.497   8.788   5.765 -0.8454  0.0589  0.4677
  580MOL0     C78188   2.397   8.884   5.816  0.8545 -0.1790 -0.4873
  580MOL0     O78189   2.471   8.997   5.847  0.0164  0.1785 -0.0466
  580MOL0     C78190   2.418   9.095   5.937 -0.3711 -0.1949 -0.2058
  580MOL0     C78191   2.285   9.127   5.953  0.6086 -0.0998  0.3514
  580MOL0     C78192   2.245   9.207   6.056 -0.3227 -0.6927  0.3605
  580MOL0     C78193   2.099   9.238   6.067 -0.0812 -0.0685 -0.2230
  580MOL0     C78194   2.344   9.257   6.144  0.6694 -0.7269  0.2141
  580MOL0     C78195   2.307   9.363   6.253 -0.5016  0.8412  0.2577
  580MOL0     O78196   2.216   9.453   6.220 -0.0832  0.2906 -0.3511
  580MOL0     C78197   2.210   9.556   6.311 -0.5275  0.8247 -0.0194
  580MOL0     C78198   2.136   9.548   6.429 -0.1625  0.5945  0.1275
  580MOL0     C78199   2.117   9.653   6.517 -0.0708  0.7487  0.3715
  580MOL0     C78200   2.173   9.779   6.486 -0.4560 -0.4487 -0.4734
  580MOL0     O78201   2.137   9.889   6.555 -0.0975 -0.6125  0.1286
  580MOL0     C78202   2.183   9.882   6.694  0.6680  0.5113 -0.7702
  580MOL0     C78203   2.132  10.007   6.755 -0.2357 -0.6104 -0.3406
  580MOL0     C78204   1.985  10.036   6.759 -0.3113 -0.2941  0.3308
  580MOL0     C78205   1.979  10.174   6.816  0.7404 -0.0817 -0.9863
  580MOL0     C78206   1.837  10.197   6.871 -0.1510  0.4536  0.7426
  580MOL0     C78207   1.756  10.253   6.755  0.1787 -0.2912 -0.7920
  580MOL0     C78208   1.606  10.258   6.779 -0.8772 -0.0792 -0.2545
  580MOL0     C78209   1.530  10.346   6.677 -0.2922  0.5373  0.6329
  580MOL0    Cl78210   1.533  10.276   6.505 -0.1169 -0.4678  0.2129
  580MOL0     C78211   2.248   9.789   6.365 -0.0093  0.3296 -0.3398
  580MOL0     C78212   2.274   9.676   6.292  0.0885 -0.3038  1.0930
  580MOL0     O78213   2.376   9.360   6.353 -0.1520 -0.1721 -0.7127
  580MOL0     C78214   2.480   9.222   6.133  0.3228  0.2479 -0.5099
  580MOL0     C78215   2.518   9.147   6.025  0.4342 -0.5325 -0.3510
  580MOL0     N78216   2.397   8.639   5.479  0.6286 -0.4358 -0.0283
  580MOL0     N78217   2.406   8.543   5.389  0.2699  0.1205  0.4234
  580MOL0     C78218   2.338   7.950   4.296  0.1334  0.1026  0.6530
  580MOL0     C78219   2.309   7.886   4.176  0.8816  0.5210 -0.3664
  580MOL0     C78220   2.053   7.736   3.819 -0.5854 -0.3487 -1.2276
  580MOL0     C78221   2.145   7.741   3.711 -0.1688  0.1267  0.4531
  580MOL0     C78222   2.099   7.690   3.589 -0.2599 -0.6445  0.7855
  580MOL0     C78223   1.967   7.653   3.565  0.0052 -0.1806  0.1522
  580MOL0     O78224   1.921   7.593   3.453 -0.0095 -0.0368 -0.1637
  580MOL0     C78225   2.019   7.587   3.352  0.1219  0.0192  0.6120
  580MOL0     C78226   1.965   7.527   3.223 -0.3792  0.0010 -0.4142
  580MOL0     C78227   1.879   7.398   3.246 -0.3379  0.4719 -0.0712
  580MOL0     C78228   1.814   7.340   3.120  0.0380 -0.0397 -0.2049
  580MOL0     C78229   1.714   7.431   3.074  0.0436  0.2225 -0.4337
  580MOL0     C78230   1.610   7.474   3.026 -0.1287 -0.3522  0.0929
  580MOL0     C78231   1.877   7.644   3.681 -0.0327  0.4706  0.1420
  580MOL0     C78232   1.924   7.682   3.806  0.3322 -0.0330  0.1893
  580MOL0     H78233   2.064   8.103   4.062 -2.7347  0.1006  1.1177
  580MOL0     H78234   2.102   8.201   4.267 -0.6308 -0.3357  0.6349
  580MOL0     H78235   2.248   8.274   4.524  0.4850 -0.8401 -0.5859
  580MOL0     H78236   2.093   8.200   4.475 -0.2037  0.0494  0.8486
  580MOL0     H78237   2.102   8.200   4.711  0.8074 -1.0049  2.7456
  580MOL0     H78238   2.104   8.033   4.642 -1.8790  0.4023  2.0241
  580MOL0     H78239   2.251   8.045   4.832  2.0648 -2.0157 -0.3333
  580MOL0     H78240   2.359   8.029   4.697 -0.3454 -0.1886 -0.0925
  580MOL0     H78241   2.465   8.186   4.793 -0.0508 -0.5983 -0.2207
  580MOL0     H78242   2.376   8.287   4.684  0.6850 -1.0700 -0.1649
  580MOL0     H78243   2.231   8.370   4.843 -1.3303 -1.4367 -0.0487
  580MOL0     H78244   2.244   8.225   4.949  1.0393 -0.3631  0.8493
  580MOL0     H78245   2.481   8.298   4.997  0.9462  0.8707  1.1671
  580MOL0     H78246   2.454   8.455   4.908 -0.8918  2.3433  1.0152
  580MOL0     H78247   2.304   8.542   5.044 -2.0865 -0.8314  0.7095
  580MOL0     H78248   2.280   8.402   5.141 -0.9152 -0.8441 -2.9455
  580MOL0     H78249   2.537   8.570   5.085 -0.6602  0.4315 -0.6252
  580MOL0     H78250   2.546   8.414   5.177 -1.4251 -0.4182  0.1612
  580MOL0     H78251   2.546   8.792   5.230 -0.3738 -0.1794  1.0315
  580MOL0     H78252   2.509   8.935   5.437 -0.0691 -1.0288 -0.8356
  580MOL0     H78253   2.361   8.909   5.540  0.2169 -0.3459  1.2324
  580MOL0     H78254   2.610   8.940   5.651 -0.3552 -0.1036 -0.2683
  580MOL0     H78255   2.622   8.777   5.588  2.4016  1.0712  1.6449
  580MOL0     H78256   2.583   8.776   5.831  1.2817  0.2130 -2.0843
  580MOL0     H78257   2.461   8.687   5.742  2.8217 -1.4619  0.7416
  580MOL0     H78258   2.356   8.831   5.903  0.1924 -0.9112 -1.2199
  580MOL0     H78259   2.311   8.904   5.751 -0.5647  0.2568  1.4166
  580MOL0     H78260   2.214   9.076   5.889  2.1289 -2.3612  0.3513
  580MOL0     H78261   2.072   9.208   6.168 -1.2514  0.4627 -0.3729
  580MOL0     H78262   2.075   9.342   6.045  2.4717  0.4726 -0.8161
  580MOL0     H78263   2.048   9.180   5.990 -1.0105  2.4985 -1.6515
  580MOL0     H78264   2.101   9.451   6.464  0.1946  0.7468  0.9247
  580MOL0     H78265   2.039   9.647   6.592 -1.3027  0.9606 -0.8511
  580MOL0     H78266   2.138   9.797   6.746 -2.4148  2.5593  0.2328
  580MOL0     H78267   2.292   9.875   6.694  0.8379  2.2939 -1.9247
  580MOL0     H78268   2.170  10.013   6.857 -1.7164  0.8343  0.1747
  580MOL0     H78269   2.192  10.075   6.694  0.3463 -0.6976  0.1267
  580MOL0     H78270   1.940   9.968   6.832 -0.8901  0.9033  1.1211
  580MOL0     H78271   1.935  10.038   6.661 -0.6614  2.1614  0.5004
  580MOL0     H78272   2.048  10.190   6.900 -1.7291  1.4596  0.9175
  580MOL0     H78273   2.005  10.246   6.739  1.7438  0.0942 -0.4935
  580MOL0     H78274   1.838  10.252   6.965 -3.5013  2.1420 -0.0329
  580MOL0     H78275   1.779  10.105   6.886 -1.3312  1.4499  2.6391
  580MOL0     H78276   1.801  10.352   6.742  1.8316 -1.3356 -4.2024
  580MOL0     H78277   1.767  10.201   6.660  0.3440  1.6021 -1.8651
  580MOL0     H78278   1.583  10.304   6.876 -2.2048  1.2488 -1.1605
  580MOL0     H78279   1.578  10.153   6.773  1.9333 -0.8622 -1.4130
  580MOL0     H78280   1.559  10.451   6.680 -3.6551  1.5996  0.4867
  580MOL0     H78281   1.422  10.344   6.693 -1.0729 -2.8545 -3.1495
  580MOL0     H78282   2.290   9.887   6.345 -0.2243  0.5449  0.2397
  580MOL0     H78283   2.325   9.683   6.196 -0.5341  0.3141  0.8032
  580MOL0     H78284   2.545   9.273   6.203 -0.8376  1.1629 -0.0639
  580MOL0     H78285   2.616   9.104   6.006  0.6923 -1.4693  2.5604
  580MOL0     H78286   2.419   7.909   4.355 -0.8158 -1.2445  1.0641
  580MOL0     H78287   2.362   7.798   4.141  0.6868  0.0074  0.5934
  580MOL0     H78288   2.242   7.789   3.718  0.6810 -0.5118 -3.9375
  580MOL0     H78289   2.169   7.698   3.507 -1.6658 -1.0699 -0.4946
  580MOL0     H78290   2.069   7.680   3.325  1.4548 -0.9685 -0.4803
  580MOL0     H78291   2.102   7.520   3.378  0.6956 -0.0566 -1.2755
  580MOL0     H78292   2.050   7.514   3.155  1.6176  1.7989  1.5572
  580MOL0     H78293   1.902   7.604   3.177  0.9960  0.3206 -1.8344
  580MOL0     H78294   1.802   7.419   3.321 -2.1406 -2.3454 -0.9836
  580MOL0     H78295   1.934   7.319   3.298 -2.3066 -0.0058  1.4209
  580MOL0     H78296   1.760   7.246   3.134  0.4590 -0.6511 -2.4098
  580MOL0     H78297   1.883   7.320   3.038 -0.9763 -0.9941 -0.8604
  580MOL0     H78298   1.534   7.529   2.976  0.1692 -0.3166 -0.3295
  580MOL0     H78299   1.781   7.600   3.657  0.9289 -1.3987 -0.5171
  580MOL0     H78300   1.855   7.676   3.890  0.0470  1.0346  0.0445
  581MOL0     O78301   7.488   5.281  10.015  0.4386  0.1607 -0.7929
  581MOL0     C78302   7.572   5.229  10.084  0.6474  0.3857 -1.0219
  581MOL0     O78303   7.672   5.142  10.048  0.0219  0.1326  0.4915
  581MOL0     C78304   7.679   5.090   9.923  0.9205  0.3798  0.7727
  581MOL0     C78305   7.778   4.999   9.907  0.4794 -0.1286  0.2733
  581MOL0     C78306   7.801   4.931   9.782  0.4764  0.1061  0.1023
  581MOL0     C78307   7.728   4.956   9.663  0.1039  0.7725 -0.6059
  581MOL0     O78308   7.746   4.885   9.543  0.7593 -0.7490 -0.6012
  581MOL0     C78309   7.873   4.902   9.486  0.2500 -0.4234 -0.2493
  581MOL0     C78310   7.909   4.820   9.359 -0.0783  0.0652 -0.4019
  581MOL0     C78311   8.050   4.872   9.336 -0.1025  0.0224 -0.5637
  581MOL0     C78312   8.122   4.787   9.215  0.7633 -1.1043 -0.0937
  581MOL0     C78313   8.245   4.863   9.175  1.0114 -0.3039 -0.3508
  581MOL0     C78314   8.365   4.769   9.156 -0.2871 -0.3762  0.4149
  581MOL0     C78315   8.490   4.848   9.114  0.5148  0.3679 -0.5626
  581MOL0     C78316   8.607   4.753   9.118 -0.8247 -0.3341  0.2736
  581MOL0     N78317   8.715   4.836   9.060 -0.1241  0.4821 -0.0227
  581MOL0     C78318   8.818   4.791   8.980  1.0738  0.0170 -0.2836
  581MOL0     C78319   8.893   4.905   8.958 -0.4316 -0.6232  0.4706
  581MOL0     C78320   9.029   4.915   8.884 -0.1163 -0.6567  0.6616
  581MOL0     C78321   9.133   4.980   8.974 -0.7547 -1.4104  0.3283
  581MOL0     C78322   9.146   5.130   8.938  0.6223 -0.1761 -0.2192
  581MOL0     C78323   9.217   5.212   9.049 -0.1506 -0.6860  1.3649
  581MOL0     O78324   9.347   5.149   9.083  0.1474 -0.3962 -0.3224
  581MOL0     C78325   9.452   5.237   9.082  0.3870  0.1222 -0.9798
  581MOL0     C78326   9.549   5.210   9.178  0.3132 -0.4540  0.3732
  581MOL0     C78327   9.676   5.285   9.168  0.4061 -0.0115 -0.6766
  581MOL0     C78328   9.776   5.270   9.280 -0.1375  0.2508 -0.0851
  581MOL0     C78329   9.687   5.394   9.079 -0.4175  0.1062 -0.0474
  581MOL0     C78330   9.805   5.482   9.071 -0.1636  0.3548 -0.3683
  581MOL0     O78331   9.834   5.526   8.944  0.0789  0.8948 -0.5372
  581MOL0     C78332   9.948   5.608   8.931  0.2200 -0.1480  0.0480
  581MOL0     C78333   9.918   5.743   8.930 -0.9749  0.5006 -0.7616
  581MOL0     C78334  10.021   5.838   8.909  0.5063 -0.1965  0.0381
  581MOL0     C78335  10.159   5.805   8.896  0.4175  0.4715  0.5027
  581MOL0     O78336  10.256   5.896   8.865  0.7497 -0.2266 -0.9345
  581MOL0     C78337  10.241   6.025   8.922 -0.8388 -0.2437 -0.1035
  581MOL0     C78338  10.365   6.100   8.875 -0.3012 -0.3319 -0.4127
  581MOL0     C78339  10.491   6.082   8.967 -1.0981  0.0011 -0.4630
  581MOL0     C78340  10.600   5.981   8.918  0.6138 -0.3577 -0.4366
  581MOL0     C78341  10.550   5.834   8.920 -0.0047 -0.0881 -0.0884
  581MOL0     C78342  10.675   5.747   8.898 -0.7822  0.8168 -0.7141
  581MOL0     C78343  10.632   5.604   8.890  0.5317 -0.0354 -0.6785
  581MOL0     C78344  10.749   5.528   8.843  0.3136  0.5558  0.2568
  581MOL0    Cl78345  10.742   5.357   8.896 -0.1110  0.3098 -0.3203
  581MOL0     C78346  10.188   5.663   8.898 -0.2695 -0.4730  0.5629
  581MOL0     C78347  10.080   5.571   8.914  0.5753  0.4806  0.6248
  581MOL0     O78348   9.865   5.520   9.172 -0.0210 -0.9470  0.1611
  581MOL0     C78349   9.588   5.404   8.979 -1.4316  0.0521 -0.1086
  581MOL0     C78350   9.473   5.326   8.978  0.5329  0.6178 -1.4156
  581MOL0     N78351   8.831   5.011   9.020 -0.6762  0.2492 -0.0575
  581MOL0     N78352   8.732   4.972   9.093 -0.6218  0.4867  1.0388
  581MOL0     C78353   7.635   5.056   9.674  0.5379 -0.6324 -0.2106
  581MOL0     C78354   7.613   5.124   9.799  1.3535  0.4582 -0.2109
  581MOL0     C78355   7.545   5.262  10.231 -0.1120 -0.0088 -0.5509
  581MOL0     C78356   7.645   5.245  10.332  1.0275 -0.2710 -0.1129
  581MOL0     C78357   7.612   5.273  10.472 -0.1906 -0.5541  0.4219
  581MOL0     C78358   7.482   5.290  10.517 -0.2389 -0.7909 -0.3360
  581MOL0     O78359   7.442   5.315  10.652 -0.6977  0.2505 -1.0726
  581MOL0     C78360   7.546   5.328  10.752  0.0148  0.5005 -0.1458
  581MOL0     C78361   7.451   5.324  10.876  0.6021 -0.1024  0.1565
  581MOL0     C78362   7.528   5.359  10.999  0.0832 -0.0948  0.1159
  581MOL0     C78363   7.446   5.409  11.129  0.2939 -0.4937 -0.7439
  581MOL0     C78364   7.308   5.367  11.145  0.1070 -0.3227 -0.2960
  581MOL0     C78365   7.192   5.330  11.149  0.3444 -0.5216 -0.0878
  581MOL0     C78366   7.384   5.308  10.422 -0.2445  0.8928  0.5662
  581MOL0     C78367   7.416   5.293  10.281 -1.1754  0.2442  0.0003
  581MOL0     H78368   7.853   4.978   9.983 -1.6116 -0.4460  2.3365
  581MOL0     H78369   7.874   4.852   9.770 -1.4012 -1.3852 -2.5972
  581MOL0     H78370   7.884   5.005   9.448 -1.0147 -0.4027 -0.6005
  581MOL0     H78371   7.947   4.885   9.565  0.6808  3.3710  0.3661
  581MOL0     H78372   7.912   4.721   9.406  0.1579  1.6478  3.2928
  581MOL0     H78373   7.849   4.817   9.268  3.3057 -2.7280 -2.8296
  581MOL0     H78374   8.051   4.977   9.309 -2.4934 -0.0333 -1.0190
  581MOL0     H78375   8.105   4.878   9.431 -2.4567 -0.5276  0.8994
  581MOL0     H78376   8.143   4.687   9.252 -0.2998 -1.1129  0.5333
  581MOL0     H78377   8.054   4.768   9.131 -1.9124  0.4036  1.5547
  581MOL0     H78378   8.223   4.914   9.080  1.3214  1.4188  0.4663
  581MOL0     H78379   8.276   4.931   9.255  2.2701 -1.6779  0.3839
  581MOL0     H78380   8.388   4.710   9.245  2.9263 -1.0539 -0.7405
  581MOL0     H78381   8.344   4.686   9.087 -2.3999 -1.6895  2.4766
  581MOL0     H78382   8.466   4.877   9.011 -1.4014 -3.6652 -1.4309
  581MOL0     H78383   8.489   4.919   9.197 -0.4794 -3.8725  3.4244
  581MOL0     H78384   8.574   4.668   9.058 -4.1503  2.5165 -2.3591
  581MOL0     H78385   8.642   4.715   9.215  0.1892 -1.3168 -0.4612
  581MOL0     H78386   8.842   4.687   8.963 -1.0661 -0.8460  1.4095
  581MOL0     H78387   9.065   4.817   8.851  3.3256  0.4753  0.6329
  581MOL0     H78388   9.019   4.975   8.794  1.9861 -0.4448  0.5168
  581MOL0     H78389   9.230   4.930   8.961 -0.6820 -1.0603 -0.5492
  581MOL0     H78390   9.104   4.975   9.079 -0.9009 -0.1824  0.3541
  581MOL0     H78391   9.043   5.169   8.938  1.6794  3.5526  4.0652
  581MOL0     H78392   9.199   5.127   8.843  0.6555 -3.5909 -0.2035
  581MOL0     H78393   9.145   5.205   9.132 -2.0871 -1.3151 -0.2891
  581MOL0     H78394   9.211   5.315   9.014 -3.7277 -0.0532  3.3072
  581MOL0     H78395   9.532   5.144   9.262  1.6175  0.5686  1.5059
  581MOL0     H78396   9.810   5.358   9.335  1.5382 -0.3128 -0.1501
  581MOL0     H78397   9.725   5.203   9.350  0.7091  0.1905  0.4829
  581MOL0     H78398   9.869   5.217   9.257  0.8219  1.6294  0.4769
  581MOL0     H78399   9.818   5.785   8.930 -0.0958  2.8427  1.1842
  581MOL0     H78400   9.996   5.944   8.905  3.6235  0.6593  0.8207
  581MOL0     H78401  10.160   6.082   8.876 -0.3675  1.5027  1.1180
  581MOL0     H78402  10.225   6.011   9.030  2.4603 -2.6193  0.2645
  581MOL0     H78403  10.391   6.062   8.776  0.3180  0.4822 -0.5720
  581MOL0     H78404  10.350   6.207   8.862  0.2629 -0.5074 -2.8603
  581MOL0     H78405  10.459   6.057   9.069 -0.1246 -0.5372 -0.2757
  581MOL0     H78406  10.542   6.178   8.968  0.9256 -1.0197 -0.6192
  581MOL0     H78407  10.624   6.008   8.814 -0.8395  1.2879 -0.3861
  581MOL0     H78408  10.691   5.985   8.978 -0.2163 -0.9281  0.9106
  581MOL0     H78409  10.495   5.817   8.827 -0.0894  1.6280 -0.3742
  581MOL0     H78410  10.490   5.803   9.006  1.3788  0.1425  0.9929
  581MOL0     H78411  10.724   5.782   8.808 -1.4326 -1.2171 -1.9382
  581MOL0     H78412  10.741   5.771   8.982 -0.1325  0.6160 -1.1644
  581MOL0     H78413  10.543   5.590   8.828 -2.4479 -0.1843  3.2511
  581MOL0     H78414  10.605   5.567   8.989  0.1902 -1.7253 -1.3729
  581MOL0     H78415  10.839   5.571   8.888  0.8861 -0.7827  0.4511
  581MOL0     H78416  10.748   5.537   8.734  1.1657  0.7500  0.2567
  581MOL0     H78417  10.289   5.639   8.866  0.6353  1.7482  1.4936
  581MOL0     H78418  10.103   5.467   8.935 -0.8825  0.3373  1.6236
  581MOL0     H78419   9.585   5.481   8.903 -5.1968  0.9123  0.7033
  581MOL0     H78420   9.403   5.331   8.896 -1.2785  2.3814  0.1154
  581MOL0     H78421   7.574   5.090   9.591  0.3807 -2.9203 -1.1151
  581MOL0     H78422   7.534   5.199   9.797  0.8545  0.0911 -4.6833
  581MOL0     H78423   7.736   5.190  10.306  0.7370 -0.8505  0.0759
  581MOL0     H78424   7.702   5.263  10.532  0.2270  0.4456 -0.0179
  581MOL0     H78425   7.628   5.255  10.750  3.2335  3.7333  1.2547
  581MOL0     H78426   7.594   5.425  10.741 -1.5468  1.1331 -1.8332
  581MOL0     H78427   7.416   5.223  10.902 -0.8843  1.1032  3.3387
  581MOL0     H78428   7.368   5.394  10.872  0.4254 -0.3015  0.3278
  581MOL0     H78429   7.599   5.438  10.971  4.5196 -3.0333  1.9864
  581MOL0     H78430   7.590   5.275  11.030  0.4555  1.0913  2.9267
  581MOL0     H78431   7.452   5.518  11.131 -0.2778 -0.4653 -0.4729
  581MOL0     H78432   7.497   5.376  11.220 -0.7463  0.4624  0.2186
  581MOL0     H78433   7.088   5.302  11.150  0.3028 -0.5074 -1.7163
  581MOL0     H78434   7.286   5.337  10.457 -0.3032 -0.4387  1.6218
  581MOL0     H78435   7.343   5.299  10.202  0.5503  1.0788 -1.6048
  582MOL0     O78436   7.133   2.172   1.179 -0.2242  0.3455 -0.4471
  582MOL0     C78437   7.227   2.242   1.219  0.6651  0.6639 -0.7767
  582MOL0     O78438   7.359   2.235   1.173 -0.0696 -1.1836 -1.2690
  582MOL0     C78439   7.363   2.168   1.058  0.4072 -0.5232  0.5831
  582MOL0     C78440   7.302   2.229   0.948 -0.2196 -0.3864  0.5649
  582MOL0     C78441   7.320   2.167   0.818  0.4202  0.1765  0.9626
  582MOL0     C78442   7.389   2.046   0.801  0.3399 -0.2898  0.4962
  582MOL0     O78443   7.401   1.988   0.674 -0.5850  0.1447  0.0355
  582MOL0     C78444   7.529   1.925   0.640  0.2188  0.0825  0.4323
  582MOL0     C78445   7.546   1.926   0.490  0.0898 -0.2949  0.0098
  582MOL0     C78446   7.673   1.843   0.458  0.3420 -0.0010 -0.4407
  582MOL0     C78447   7.675   1.860   0.310  0.2461  0.5141  0.7140
  582MOL0     C78448   7.796   1.785   0.255  0.1294  0.0917  0.7052
  582MOL0     C78449   7.782   1.636   0.303 -0.0650  0.1079 -0.3885
  582MOL0     C78450   7.871   1.550   0.206  0.4562  0.1957 -0.0015
  582MOL0     C78451   8.011   1.611   0.179  0.5197  0.9286  0.1864
  582MOL0     N78452   8.093   1.608   0.303 -0.4634 -0.3900  0.1121
  582MOL0     C78453   8.145   1.489   0.357 -0.3802 -0.0659 -0.2972
  582MOL0     C78454   8.171   1.528   0.489 -0.0131  0.1486  0.8471
  582MOL0     C78455   8.223   1.430   0.584 -0.9418  0.5654  0.6419
  582MOL0     C78456   8.369   1.472   0.613  1.1619 -0.6327 -0.9424
  582MOL0     C78457   8.463   1.451   0.504 -0.7054  0.0762  0.4950
  582MOL0     C78458   8.602   1.511   0.550 -1.0131 -0.3160 -0.9380
  582MOL0     O78459   8.697   1.509   0.450 -0.5260  0.2121  0.3086
  582MOL0     C78460   8.822   1.561   0.484 -0.6730 -0.4672  0.3144
  582MOL0     C78461   8.928   1.490   0.420  0.0918 -0.4342 -0.7382
  582MOL0     C78462   9.066   1.521   0.434 -0.4856 -0.6205  0.5079
  582MOL0     C78463   9.170   1.450   0.356  0.1640  1.3907 -0.4271
  582MOL0     C78464   9.106   1.639   0.514 -0.2316  0.4089 -0.0213
  582MOL0     C78465   9.240   1.677   0.537 -0.8382 -0.5572  0.2080
  582MOL0     O78466   9.336   1.586   0.572  0.5564  1.0827 -0.9048
  582MOL0     C78467   9.473   1.614   0.588  0.8722  0.3485 -0.4732
  582MOL0     C78468   9.537   1.510   0.663  0.8086 -0.8415 -0.5789
  582MOL0     C78469   9.666   1.530   0.702  0.3706  0.3569  0.0396
  582MOL0     C78470   9.738   1.636   0.658 -1.2698 -0.1990  1.0539
  582MOL0     O78471   9.871   1.640   0.692  0.4214  1.0371  0.3295
  582MOL0     C78472   9.922   1.771   0.723  0.3874 -0.1063 -0.6003
  582MOL0     C78473   9.959   1.792   0.870  0.7621 -0.1640  1.3747
  582MOL0     C78474  10.089   1.717   0.902 -0.9348 -0.8159 -0.3785
  582MOL0     C78475  10.117   1.721   1.059  0.2379 -0.1625 -0.2844
  582MOL0     C78476  10.245   1.637   1.091  0.2581 -1.0664 -0.1240
  582MOL0     C78477  10.265   1.630   1.241 -0.2890 -0.3381  0.7086
  582MOL0     C78478  10.385   1.544   1.274 -0.3264  0.2444  0.1328
  582MOL0     C78479  10.434   1.570   1.412 -0.0949  0.6433 -0.1711
  582MOL0    Cl78480  10.605   1.526   1.405 -0.4959 -0.1830  0.1638
  582MOL0     C78481   9.680   1.725   0.567 -0.5831 -0.3007  0.2577
  582MOL0     C78482   9.546   1.717   0.535 -0.0822 -0.3330  0.4676
  582MOL0     O78483   9.261   1.796   0.523 -0.3505  0.3048  0.0588
  582MOL0     C78484   8.995   1.703   0.585  0.4018  0.7407 -0.4957
  582MOL0     C78485   8.859   1.667   0.570  0.3048  0.2006  0.8118
  582MOL0     N78486   8.148   1.656   0.500 -0.3696 -0.4489  0.7132
  582MOL0     N78487   8.112   1.711   0.386  0.5238  0.0018  0.1733
  582MOL0     C78488   7.446   1.986   0.915  0.4593 -1.1703 -0.3411
  582MOL0     C78489   7.442   2.052   1.042  0.4706 -0.0232 -0.0842
  582MOL0     C78490   7.192   2.330   1.335 -0.0610  0.4061 -0.3338
  582MOL0     C78491   7.064   2.373   1.350  0.5969  0.8005  0.3131
  582MOL0     C78492   7.032   2.478   1.439 -0.4781  0.7341 -1.5400
  582MOL0     C78493   7.131   2.521   1.533  0.4518 -0.9299  1.1780
  582MOL0     O78494   7.104   2.623   1.617  0.9214  0.0968  0.1411
  582MOL0     C78495   6.969   2.656   1.648  0.1585  0.2622  0.9521
  582MOL0     C78496   6.910   2.553   1.740  0.2069  0.5093  0.7268
  582MOL0     C78497   6.958   2.541   1.888 -0.1895  0.5729 -0.5950
  582MOL0     C78498   7.067   2.426   1.904  0.7869 -0.1678  0.1218
  582MOL0     C78499   7.003   2.291   1.886 -0.3806  0.3435 -0.0290
  582MOL0     C78500   6.933   2.195   1.853  0.7046  0.8364 -0.9675
  582MOL0     C78501   7.258   2.479   1.521 -0.0685  0.8119 -0.3178
  582MOL0     C78502   7.300   2.383   1.423  0.7509  0.0613 -0.1558
  582MOL0     H78503   7.264   2.330   0.955 -0.3711 -0.2881 -1.1655
  582MOL0     H78504   7.280   2.215   0.730  0.0527 -2.5180 -0.4432
  582MOL0     H78505   7.616   1.972   0.686  2.4712 -0.6512 -2.7411
  582MOL0     H78506   7.521   1.826   0.686  0.6104 -0.3148 -0.3367
  582MOL0     H78507   7.453   1.885   0.449 -1.0211  2.5035 -0.5293
  582MOL0     H78508   7.549   2.028   0.452 -2.0532 -0.4658 -0.7719
  582MOL0     H78509   7.762   1.889   0.502  0.1642  2.2961 -2.2969
  582MOL0     H78510   7.653   1.743   0.498 -0.4478  0.5091  0.4888
  582MOL0     H78511   7.583   1.819   0.267 -0.1041  4.7989 -3.4091
  582MOL0     H78512   7.676   1.964   0.274 -0.0132 -0.8340 -3.7782
  582MOL0     H78513   7.795   1.795   0.146  0.3100 -0.0683  0.6888
  582MOL0     H78514   7.886   1.834   0.290  0.6773 -2.5657  3.4974
  582MOL0     H78515   7.797   1.623   0.410 -0.1838  0.8801 -0.2756
  582MOL0     H78516   7.679   1.599   0.292  0.5205 -2.5600  1.8468
  582MOL0     H78517   7.873   1.445   0.237 -0.0433 -0.8239 -3.0704
  582MOL0     H78518   7.818   1.554   0.111  0.6547  2.3378 -0.0667
  582MOL0     H78519   8.003   1.715   0.145 -0.8866  1.9833  3.4175
  582MOL0     H78520   8.057   1.545   0.105 -2.2909  1.4093 -2.1877
  582MOL0     H78521   8.151   1.391   0.312 -1.0163  0.4316 -1.5162
  582MOL0     H78522   8.170   1.435   0.680  2.1757 -0.6231  2.5736
  582MOL0     H78523   8.219   1.328   0.545 -0.6052  0.0472  1.9235
  582MOL0     H78524   8.410   1.417   0.698  0.5874  1.1316  0.5681
  582MOL0     H78525   8.362   1.578   0.642 -2.3893 -0.1879 -2.8896
  582MOL0     H78526   8.422   1.509   0.421 -0.4462  3.9512  2.8105
  582MOL0     H78527   8.471   1.345   0.481 -1.7013 -0.3583  1.9767
  582MOL0     H78528   8.638   1.445   0.629  1.5880  0.2192 -1.5655
  582MOL0     H78529   8.586   1.612   0.590 -0.4954  0.0649 -1.6588
  582MOL0     H78530   8.889   1.414   0.353 -0.0227  0.5588 -1.8218
  582MOL0     H78531   9.217   1.510   0.277  1.3546 -0.8286 -1.5178
  582MOL0     H78532   9.249   1.408   0.419 -1.4443 -2.8633 -0.9326
  582MOL0     H78533   9.132   1.358   0.311 -0.8382  0.6757  1.7412
  582MOL0     H78534   9.473   1.436   0.709 -0.5723  0.2203 -0.7317
  582MOL0     H78535   9.703   1.453   0.768 -0.4664 -0.3281 -0.2671
  582MOL0     H78536  10.001   1.792   0.650 -0.0150 -2.8206 -1.9080
  582MOL0     H78537   9.844   1.846   0.708  2.7696  2.5374 -0.6369
  582MOL0     H78538   9.978   1.899   0.885 -0.0192 -0.1764  2.6430
  582MOL0     H78539   9.871   1.759   0.927  0.2356 -0.8606  0.1894
  582MOL0     H78540  10.166   1.773   0.848 -1.6866 -0.1484 -0.7938
  582MOL0     H78541  10.091   1.614   0.867  1.5012  0.3294 -4.2775
  582MOL0     H78542  10.127   1.821   1.102  2.2523 -0.5796  0.3047
  582MOL0     H78543  10.031   1.664   1.094  2.1517 -4.2845 -1.7021
  582MOL0     H78544  10.339   1.679   1.055 -0.5220  0.0551 -0.9051
  582MOL0     H78545  10.237   1.541   1.040  2.9010 -1.9041  0.8805
  582MOL0     H78546  10.277   1.735   1.271 -0.0107 -0.9339  2.8427
  582MOL0     H78547  10.174   1.584   1.282 -1.3334 -0.0830 -1.2099
  582MOL0     H78548  10.476   1.555   1.214 -1.4691  1.3929 -1.4746
  582MOL0     H78549  10.345   1.443   1.263  1.2729 -0.3597 -0.5850
  582MOL0     H78550  10.370   1.519   1.485  1.5266  1.6704  2.1287
  582MOL0     H78551  10.435   1.677   1.437  1.4556  0.0971  2.6493
  582MOL0     H78552   9.759   1.784   0.521  1.5108 -3.1237 -0.0430
  582MOL0     H78553   9.500   1.793   0.473 -0.8974  1.0829  2.6953
  582MOL0     H78554   9.041   1.773   0.654  2.2903 -0.5282 -0.3911
  582MOL0     H78555   8.782   1.722   0.623  0.0033 -0.3294  0.9261
  582MOL0     H78556   7.511   1.899   0.912 -0.2676 -1.9176  2.4309
  582MOL0     H78557   7.499   2.027   1.131 -0.5290  1.7734  1.1336
  582MOL0     H78558   6.979   2.339   1.292  1.3409 -1.0428  0.2361
  582MOL0     H78559   6.928   2.507   1.438 -0.7763 -0.2376 -0.8949
  582MOL0     H78560   6.961   2.748   1.706  0.5401  0.5717  0.5215
  582MOL0     H78561   6.905   2.673   1.560 -0.2785  0.9399  1.3918
  582MOL0     H78562   6.903   2.451   1.699  1.5340  0.3944  0.7363
  582MOL0     H78563   6.815   2.607   1.748  0.1134  0.2758  1.2879
  582MOL0     H78564   6.868   2.533   1.949 -0.9469  2.4345 -1.4090
  582MOL0     H78565   6.996   2.641   1.909 -3.4596  1.3736  2.2786
  582MOL0     H78566   7.094   2.436   2.009 -2.4989  1.7979  0.9131
  582MOL0     H78567   7.154   2.447   1.841 -0.6811  3.3289 -0.9919
  582MOL0     H78568   6.873   2.116   1.813  0.7943  1.6958 -2.9152
  582MOL0     H78569   7.327   2.517   1.595 -1.9229  1.3351  1.2121
  582MOL0     H78570   7.404   2.355   1.409  0.6951 -2.2147  3.0700
  583MOL0     O78571   4.201   1.948   3.871  0.4367 -0.6453  0.3307
  583MOL0     C78572   4.303   1.918   3.818 -0.5657 -0.0466  0.2150
  583MOL0     O78573   4.421   1.899   3.889 -0.2298 -0.2203 -0.1297
  583MOL0     C78574   4.417   1.918   4.024  0.7645 -0.8994  1.4353
  583MOL0     C78575   4.409   2.045   4.077  0.0459 -0.9976 -0.5004
  583MOL0     C78576   4.409   2.072   4.212  0.0848  0.0562 -0.1911
  583MOL0     C78577   4.430   1.967   4.307  0.7643  0.1774  0.8500
  583MOL0     O78578   4.451   1.987   4.439  0.2971 -0.2835  0.8868
  583MOL0     C78579   4.353   2.073   4.496  0.3789 -0.1562 -0.0924
  583MOL0     C78580   4.344   2.033   4.644  0.2989  0.0278  1.1385
  583MOL0     C78581   4.277   1.901   4.659  0.4215  0.5738  0.4733
  583MOL0     C78582   4.232   1.875   4.794  0.4500 -0.5731  0.3135
  583MOL0     C78583   4.156   1.740   4.798 -1.0938  0.8431 -0.2646
  583MOL0     C78584   4.147   1.697   4.943  0.1061  0.6631 -0.4146
  583MOL0     C78585   4.051   1.583   4.972 -0.6008  0.2432 -0.2105
  583MOL0     C78586   4.053   1.557   5.116 -0.0823 -0.0875  0.3608
  583MOL0     N78587   3.943   1.476   5.166 -0.4303  0.0232  1.0892
  583MOL0     C78588   3.920   1.353   5.117 -0.7395  0.0948 -0.5106
  583MOL0     C78589   3.813   1.307   5.192  1.1506  0.2118 -0.1848
  583MOL0     C78590   3.737   1.174   5.177 -0.7610 -0.0063 -0.8115
  583MOL0     C78591   3.788   1.068   5.280 -0.1636  0.3301  0.2165
  583MOL0     C78592   3.758   0.924   5.235  0.2044 -0.3107  0.1038
  583MOL0     C78593   3.606   0.904   5.235 -0.7014  0.4747  0.1692
  583MOL0     O78594   3.547   0.908   5.098 -0.1987 -0.2402  0.4934
  583MOL0     C78595   3.547   0.787   5.027  0.4532  0.1866  0.2317
  583MOL0     C78596   3.470   0.797   4.911 -0.4180  0.6941  0.2235
  583MOL0     C78597   3.459   0.690   4.832 -0.2490  0.6154  0.1863
  583MOL0     C78598   3.410   0.714   4.693 -0.2979 -0.4688  0.0410
  583MOL0     C78599   3.520   0.569   4.872 -0.5525  0.3222  0.0316
  583MOL0     C78600   3.505   0.439   4.800  0.6337  0.0768  0.4893
  583MOL0     O78601   3.391   0.415   4.718  0.4347 -0.4589  0.8098
  583MOL0     C78602   3.383   0.308   4.633 -0.0345  0.8967  0.0702
  583MOL0     C78603   3.256   0.237   4.630  0.3905 -0.4119  0.6072
  583MOL0     C78604   3.243   0.124   4.551  0.5712  0.0999  0.5759
  583MOL0     C78605   3.345   0.083   4.465  0.0171  0.4545 -0.3168
  583MOL0     O78606   3.303  -0.004   4.370 -0.0852  0.1375  0.3257
  583MOL0     C78607   3.391  -0.116   4.365 -1.4490 -0.2210  0.6628
  583MOL0     C78608   3.514  -0.109   4.269 -0.3312 -0.3923  0.0114
  583MOL0     C78609   3.583  -0.246   4.245  0.9369  0.0279 -0.3505
  583MOL0     C78610   3.721  -0.252   4.199 -0.1779 -0.6505  0.6582
  583MOL0     C78611   3.755  -0.386   4.151  1.1451  0.7420  0.5354
  583MOL0     C78612   3.906  -0.395   4.123  0.4624 -0.1097 -0.9190
  583MOL0     C78613   3.945  -0.539   4.090  0.2792 -0.8925  0.9946
  583MOL0     C78614   4.090  -0.554   4.056 -0.3027 -0.3461 -0.0968
  583MOL0    Cl78615   4.197  -0.513   4.196 -0.2870  0.0204 -1.0440
  583MOL0     C78616   3.464   0.156   4.460 -0.8260 -0.6850 -0.3707
  583MOL0     C78617   3.488   0.263   4.550  0.5545 -1.1852  0.1807
  583MOL0     O78618   3.596   0.358   4.809 -0.0774  0.5188  0.3742
  583MOL0     C78619   3.596   0.552   4.990  1.0818 -0.1250 -0.1004
  583MOL0     C78620   3.608   0.671   5.065  0.2707  0.1015  0.1509
  583MOL0     N78621   3.780   1.406   5.288  0.1783 -0.0878 -0.1075
  583MOL0     N78622   3.852   1.511   5.253  1.1463  0.2378  0.4885
  583MOL0     C78623   4.443   1.840   4.252  0.5398 -0.3170 -1.1751
  583MOL0     C78624   4.438   1.815   4.111 -0.1106  0.3915 -0.6279
  583MOL0     C78625   4.295   1.881   3.677  0.3547 -0.4433  0.0436
  583MOL0     C78626   4.189   1.916   3.594  0.4349  0.0810  0.9888
  583MOL0     C78627   4.192   1.885   3.461  0.5613  1.4902 -0.2498
  583MOL0     C78628   4.295   1.818   3.402  0.0408  0.9192 -0.5703
  583MOL0     O78629   4.311   1.795   3.277 -0.1289  0.1365  0.2453
  583MOL0     C78630   4.200   1.792   3.190  0.3224 -0.8520  0.2709
  583MOL0     C78631   4.160   1.936   3.139  0.3092  0.5832 -0.6198
  583MOL0     C78632   4.272   2.000   3.061  0.5570  0.4590  0.8031
  583MOL0     C78633   4.256   2.147   3.038 -0.7669 -0.3821 -1.0527
  583MOL0     C78634   4.193   2.172   2.909  0.7304 -0.5765  0.3815
  583MOL0     C78635   4.165   2.198   2.792  0.5427  0.4364  0.3159
  583MOL0     C78636   4.398   1.780   3.490 -0.0417  0.3361 -0.0945
  583MOL0     C78637   4.415   1.822   3.626 -0.3351  1.8009 -0.1434
  583MOL0     H78638   4.387   2.132   4.017 -1.8321 -1.2256 -0.2078
  583MOL0     H78639   4.398   2.171   4.256 -0.2625 -0.3219  0.5758
  583MOL0     H78640   4.372   2.181   4.497 -1.3950  0.1804  0.7671
  583MOL0     H78641   4.256   2.057   4.447 -0.1609 -3.9110  1.8318
  583MOL0     H78642   4.444   2.040   4.688  2.5130  1.3173 -3.4370
  583MOL0     H78643   4.279   2.111   4.684  0.7554  1.0044  0.0576
  583MOL0     H78644   4.183   1.904   4.604 -0.1700  1.2391  1.4971
  583MOL0     H78645   4.342   1.820   4.625  0.1581  0.5407  0.0510
  583MOL0     H78646   4.322   1.870   4.856  1.2933 -1.7297 -0.9563
  583MOL0     H78647   4.167   1.952   4.837  0.2622 -2.1832  3.2476
  583MOL0     H78648   4.063   1.740   4.741  0.3071 -0.6269 -2.7023
  583MOL0     H78649   4.218   1.661   4.754 -1.3359 -1.6283  3.3383
  583MOL0     H78650   4.240   1.666   4.992 -2.5474 -2.6761  3.1504
  583MOL0     H78651   4.105   1.787   4.990 -0.7333  0.9046 -1.5840
  583MOL0     H78652   3.956   1.601   4.921 -0.3324 -0.9154 -1.1533
  583MOL0     H78653   4.085   1.489   4.927 -3.3245 -0.9678  0.0599
  583MOL0     H78654   4.031   1.652   5.166 -2.4706 -1.6744  2.5452
  583MOL0     H78655   4.152   1.519   5.146  1.2590  1.9070 -1.2342
  583MOL0     H78656   3.975   1.308   5.035 -1.2138  1.3494 -1.5496
  583MOL0     H78657   3.629   1.188   5.178 -0.9208 -0.7062  2.5175
  583MOL0     H78658   3.764   1.145   5.075 -0.9002  0.3830 -0.9608
  583MOL0     H78659   3.755   1.082   5.384 -0.0919 -0.7000  0.3889
  583MOL0     H78660   3.897   1.060   5.283  0.0415  1.6347 -2.1047
  583MOL0     H78661   3.796   0.856   5.313  1.3920  1.1227  0.8137
  583MOL0     H78662   3.808   0.900   5.141  0.7786  4.6671 -1.1399
  583MOL0     H78663   3.566   0.984   5.298  0.6523  0.9319  0.4816
  583MOL0     H78664   3.585   0.808   5.284 -1.2235 -0.8366 -2.3958
  583MOL0     H78665   3.417   0.888   4.887  1.4335  1.6013 -0.6658
  583MOL0     H78666   3.338   0.634   4.671 -1.5291  0.8396 -0.8161
  583MOL0     H78667   3.358   0.810   4.685 -1.9330 -1.3878 -1.1878
  583MOL0     H78668   3.492   0.710   4.621 -0.4248 -2.0054 -0.0565
  583MOL0     H78669   3.166   0.283   4.671 -0.2306  0.9470 -2.0128
  583MOL0     H78670   3.151   0.069   4.532 -0.5730  1.7748  0.9166
  583MOL0     H78671   3.437  -0.137   4.462  2.9375 -1.2193 -1.3683
  583MOL0     H78672   3.333  -0.207   4.344  2.6476 -2.5641 -2.1275
  583MOL0     H78673   3.481  -0.077   4.169 -1.8540  1.4358  1.0412
  583MOL0     H78674   3.593  -0.042   4.302  0.6428  0.1958 -3.1516
  583MOL0     H78675   3.523  -0.303   4.173  1.7382  1.5554 -2.3180
  583MOL0     H78676   3.607  -0.292   4.341 -0.1478 -1.0188 -0.5408
  583MOL0     H78677   3.742  -0.185   4.115 -3.1504  3.1380  2.5727
  583MOL0     H78678   3.792  -0.225   4.278  0.3807  1.4469 -0.4669
  583MOL0     H78679   3.694  -0.418   4.065  1.5439 -2.1323  1.2032
  583MOL0     H78680   3.737  -0.473   4.215  3.4491 -0.1740  0.0551
  583MOL0     H78681   3.924  -0.321   4.044 -1.6786  0.6054 -0.8059
  583MOL0     H78682   3.950  -0.376   4.221 -0.7030 -0.5308 -0.2871
  583MOL0     H78683   3.890  -0.587   4.009  2.4857 -1.8049 -0.0771
  583MOL0     H78684   3.930  -0.609   4.172  1.3393  0.6820  2.6084
  583MOL0     H78685   4.114  -0.503   3.963  2.5087 -0.6851  0.3719
  583MOL0     H78686   4.102  -0.660   4.029 -2.2036 -0.7598  0.5241
  583MOL0     H78687   3.539   0.137   4.384 -2.0082 -1.4878 -1.3884
  583MOL0     H78688   3.575   0.328   4.544 -3.1120  4.3254 -0.2005
  583MOL0     H78689   3.630   0.454   5.021 -2.5880 -1.7572 -0.6182
  583MOL0     H78690   3.674   0.665   5.151  3.5900  1.2802 -2.1001
  583MOL0     H78691   4.469   1.757   4.317 -1.2607  0.7448  1.0739
  583MOL0     H78692   4.450   1.722   4.056 -0.9497 -0.7237  0.9786
  583MOL0     H78693   4.096   1.957   3.633 -1.3735  0.0251 -2.8293
  583MOL0     H78694   4.100   1.908   3.407  2.0761  2.1428 -2.7222
  583MOL0     H78695   4.215   1.724   3.105 -0.9708 -0.8353  0.0197
  583MOL0     H78696   4.115   1.740   3.235 -0.1020 -1.0510 -0.7309
  583MOL0     H78697   4.134   2.003   3.221 -1.9778 -1.2957  0.3101
  583MOL0     H78698   4.074   1.926   3.072  0.4815  2.1634 -1.1140
  583MOL0     H78699   4.279   1.955   2.961 -2.5640  0.6799  0.3853
  583MOL0     H78700   4.361   1.995   3.125 -0.1457 -0.9920  1.7108
  583MOL0     H78701   4.355   2.193   3.047 -0.6810 -0.8889  1.2150
  583MOL0     H78702   4.203   2.188   3.125  0.6852 -0.7777  0.0517
  583MOL0     H78703   4.144   2.217   2.689 -0.3628  0.3532  0.4812
  583MOL0     H78704   4.473   1.711   3.453 -1.3398 -0.5440 -1.1557
  583MOL0     H78705   4.498   1.785   3.684 -0.1804  2.5814  0.1349
  584MOL0     O78706   1.439   3.618   7.991 -0.1958  0.2777  0.4548
  584MOL0     C78707   1.379   3.723   7.994 -1.2051  0.0189  0.9651
  584MOL0     O78708   1.441   3.837   8.003 -0.2757 -0.1184  0.0675
  584MOL0     C78709   1.565   3.846   8.068  0.4368  0.3558 -0.0948
  584MOL0     C78710   1.681   3.825   7.989 -0.4577  0.4945  0.9733
  584MOL0     C78711   1.810   3.840   8.042 -0.3177 -0.3818  0.2323
  584MOL0     C78712   1.825   3.881   8.175  0.9173  0.0179 -0.1753
  584MOL0     O78713   1.945   3.912   8.228  0.2595  0.3140 -0.0787
  584MOL0     C78714   1.968   3.956   8.357  0.4583  0.7122 -1.2097
  584MOL0     C78715   2.115   3.986   8.359  0.2583 -0.5661  0.4253
  584MOL0     C78716   2.149   4.015   8.497  0.5774  0.4652 -0.0990
  584MOL0     C78717   2.297   4.033   8.508  0.4442 -0.3043  0.3388
  584MOL0     C78718   2.350   4.062   8.649 -0.0804  0.0074 -0.8167
  584MOL0     C78719   2.502   4.063   8.662  0.3550  0.6092  0.0656
  584MOL0     C78720   2.547   4.075   8.810  0.6052  0.4962  0.9336
  584MOL0     C78721   2.696   4.096   8.811  0.2660  0.6110 -0.6233
  584MOL0     N78722   2.736   4.233   8.838  0.0546  0.0962 -0.1678
  584MOL0     C78723   2.720   4.347   8.760 -0.5553 -1.3314 -0.4896
  584MOL0     C78724   2.801   4.445   8.808  0.2423 -0.4734  0.4510
  584MOL0     C78725   2.865   4.569   8.742 -0.4501 -0.0622 -0.0508
  584MOL0     C78726   2.780   4.686   8.797  0.0707  0.7368  0.8815
  584MOL0     C78727   2.865   4.821   8.784 -0.0226  0.7155 -0.7329
  584MOL0     C78728   2.874   4.863   8.641  0.1196  0.8434  0.2410
  584MOL0     O78729   2.965   4.763   8.582  0.4827  0.0999  0.3287
  584MOL0     C78730   3.014   4.777   8.454 -0.4498 -0.6489 -1.1096
  584MOL0     C78731   2.988   4.886   8.365 -0.6527  0.3493 -0.1284
  584MOL0     C78732   3.042   4.883   8.229  0.4359  0.0043 -1.5656
  584MOL0     C78733   3.003   4.996   8.146 -0.1088 -0.0586  0.1279
  584MOL0     C78734   3.121   4.775   8.194  0.2063  0.2799  0.7465
  584MOL0     C78735   3.188   4.763   8.062 -0.0262 -0.4851 -0.0500
  584MOL0     O78736   3.298   4.687   8.066  0.9510 -0.1058  0.0424
  584MOL0     C78737   3.395   4.710   7.972  0.7166  0.1926  0.4357
  584MOL0     C78738   3.397   4.646   7.848  0.1954  0.1174 -0.5838
  584MOL0     C78739   3.503   4.655   7.756  0.5389  0.9917 -0.3881
  584MOL0     C78740   3.591   4.766   7.783  0.0330  0.8582 -0.7284
  584MOL0     O78741   3.687   4.792   7.693 -0.1085  0.0926  0.1468
  584MOL0     C78742   3.694   4.920   7.640 -0.3281 -0.4120 -0.1284
  584MOL0     C78743   3.825   4.952   7.557  0.1483  0.0795 -0.2457
  584MOL0     C78744   3.952   4.954   7.638 -1.5264 -0.0462  0.4091
  584MOL0     C78745   4.077   4.988   7.558 -0.0648  0.2400 -0.5266
  584MOL0     C78746   4.145   4.865   7.503 -0.6414  0.2247  0.0125
  584MOL0     C78747   4.283   4.905   7.450  0.3238  0.6896 -0.3920
  584MOL0     C78748   4.377   4.784   7.445  0.5376 -0.0420 -0.7005
  584MOL0     C78749   4.355   4.700   7.328  0.5772  0.3766  0.3595
  584MOL0    Cl78750   4.416   4.779   7.189  0.3445 -0.3030 -0.5587
  584MOL0     C78751   3.587   4.830   7.903 -0.3878  0.1055 -0.5657
  584MOL0     C78752   3.502   4.795   8.008  0.3880 -1.1992  1.2433
  584MOL0     O78753   3.142   4.821   7.964 -0.1694  0.3086 -0.3166
  584MOL0     C78754   3.158   4.683   8.292 -0.3122  1.1766  0.1692
  584MOL0     C78755   3.106   4.680   8.415 -0.4530 -0.9355 -0.2798
  584MOL0     N78756   2.856   4.396   8.924  0.0449  0.8983 -0.6196
  584MOL0     N78757   2.811   4.269   8.943 -0.4827  0.7949  0.7158
  584MOL0     C78758   1.714   3.899   8.259 -0.1687 -0.0414 -0.5406
  584MOL0     C78759   1.581   3.873   8.204 -0.1408 -0.3387 -0.7642
  584MOL0     C78760   1.238   3.723   7.966 -0.2124 -0.6136  0.0407
  584MOL0     C78761   1.174   3.848   7.923  0.2892 -0.0157  0.7331
  584MOL0     C78762   1.034   3.850   7.906  0.2256  0.0365  0.8627
  584MOL0     C78763   0.959   3.724   7.909 -0.9622 -0.1321 -0.0953
  584MOL0     O78764   0.828   3.701   7.879 -0.0766  0.4725  0.3235
  584MOL0     C78765   0.743   3.813   7.858  0.8930 -0.5679 -0.5766
  584MOL0     C78766   0.595   3.771   7.870  0.1893  0.5014 -0.2631
  584MOL0     C78767   0.557   3.664   7.757  0.0193  0.0311  0.5196
  584MOL0     C78768   0.458   3.547   7.806 -0.0296  0.7908  0.6399
  584MOL0     C78769   0.368   3.510   7.691  0.1908  0.5226 -0.1427
  584MOL0     C78770   0.307   3.487   7.588 -0.1249 -0.9326 -0.0490
  584MOL0     C78771   1.030   3.607   7.936  0.1748 -0.3943 -0.0149
  584MOL0     C78772   1.167   3.608   7.964  0.5038 -0.2786  0.2075
  584MOL0     H78773   1.669   3.789   7.888  2.7259 -2.0457  1.3211
  584MOL0     H78774   1.898   3.835   7.979  1.1929 -2.3768  2.3338
  584MOL0     H78775   1.926   4.052   8.387  4.9738  3.3170 -2.3971
  584MOL0     H78776   1.947   3.880   8.434  1.4117 -1.3183 -2.8420
  584MOL0     H78777   2.176   3.908   8.315  2.2804  1.0197  0.2811
  584MOL0     H78778   2.127   4.063   8.282 -3.6000  0.2964  0.4535
  584MOL0     H78779   2.109   4.113   8.523 -0.5519  0.1257 -0.5238
  584MOL0     H78780   2.109   3.941   8.567 -0.1265  1.7386  0.8978
  584MOL0     H78781   2.347   3.945   8.467 -0.4030 -0.8561  0.4759
  584MOL0     H78782   2.328   4.115   8.443 -1.1750 -0.8047 -1.1385
  584MOL0     H78783   2.320   4.164   8.676 -0.9251 -0.0854 -1.3805
  584MOL0     H78784   2.299   4.001   8.723  0.4866  1.4336  0.8172
  584MOL0     H78785   2.552   3.971   8.631 -1.6918 -1.4495  2.3658
  584MOL0     H78786   2.541   4.147   8.604  0.8907  1.4820  1.6174
  584MOL0     H78787   2.498   4.158   8.861  4.7108  1.5972  3.5638
  584MOL0     H78788   2.520   3.982   8.861 -2.9507  0.4578 -0.7005
  584MOL0     H78789   2.737   4.067   8.714 -1.2120  1.7401 -1.6341
  584MOL0     H78790   2.745   4.036   8.888  2.4236  3.4807  0.3741
  584MOL0     H78791   2.680   4.350   8.659  3.1429 -2.4647 -2.1586
  584MOL0     H78792   2.969   4.586   8.771 -0.7690  2.2692 -0.1242
  584MOL0     H78793   2.861   4.562   8.633 -2.5158  3.0120 -0.2888
  584MOL0     H78794   2.762   4.662   8.903 -0.5403 -2.0824  0.2151
  584MOL0     H78795   2.694   4.700   8.731  2.4179  1.7793 -2.1983
  584MOL0     H78796   2.959   4.822   8.841 -0.5132  1.3004  0.0903
  584MOL0     H78797   2.818   4.899   8.844  2.2918  0.6494  1.3436
  584MOL0     H78798   2.921   4.961   8.644  2.6113 -0.2730  2.9996
  584MOL0     H78799   2.780   4.870   8.586  1.6157  1.3106 -2.4326
  584MOL0     H78800   2.930   4.967   8.407  1.3381  2.4136 -1.1097
  584MOL0     H78801   3.088   5.061   8.125 -1.1978  0.9694 -1.2790
  584MOL0     H78802   2.955   4.968   8.052  0.5738  4.0994 -1.6427
  584MOL0     H78803   2.934   5.061   8.201 -0.3043 -0.6622  0.6124
  584MOL0     H78804   3.320   4.574   7.821 -1.1473  0.7809  1.2141
  584MOL0     H78805   3.517   4.603   7.662  1.8200 -1.6726  1.1885
  584MOL0     H78806   3.604   4.946   7.584  0.6385  0.0867 -1.5097
  584MOL0     H78807   3.700   4.989   7.724 -0.4336 -1.3951  0.7117
  584MOL0     H78808   3.852   4.885   7.475  1.5485  0.5133 -0.1701
  584MOL0     H78809   3.806   5.049   7.511 -0.5061  1.1272  2.0997
  584MOL0     H78810   3.968   4.852   7.675  1.9613 -0.7330 -2.4432
  584MOL0     H78811   3.927   5.026   7.716 -3.6581  0.2998 -0.5058
  584MOL0     H78812   4.056   5.050   7.470 -1.3207  1.5326  0.6441
  584MOL0     H78813   4.146   5.045   7.620  0.0911  0.1080 -0.5798
  584MOL0     H78814   4.083   4.822   7.424 -1.1357  1.4684 -0.3013
  584MOL0     H78815   4.157   4.793   7.585  0.1333  0.9008  0.5121
  584MOL0     H78816   4.288   4.961   7.356 -2.9518 -1.7195 -2.1945
  584MOL0     H78817   4.326   4.969   7.528 -1.9696  2.2996 -0.3212
  584MOL0     H78818   4.369   4.726   7.538 -0.2722  0.5054 -0.4104
  584MOL0     H78819   4.479   4.822   7.452  0.2821  0.3547  2.6218
  584MOL0     H78820   4.247   4.686   7.314  0.8249 -0.8352 -0.5482
  584MOL0     H78821   4.404   4.603   7.342 -0.8578 -0.6345 -1.2382
  584MOL0     H78822   3.659   4.906   7.932 -1.8603  0.9162  1.1219
  584MOL0     H78823   3.506   4.840   8.107 -0.2423 -0.9904  1.1831
  584MOL0     H78824   3.228   4.604   8.265  2.2112  4.0788 -2.6379
  584MOL0     H78825   3.126   4.604   8.489 -3.3211 -2.1373 -0.6043
  584MOL0     H78826   1.723   3.932   8.362  0.8481  2.7474 -1.4122
  584MOL0     H78827   1.490   3.855   8.259 -1.0199 -1.7769 -2.6037
  584MOL0     H78828   1.228   3.939   7.899 -0.7799 -0.0803 -2.3363
  584MOL0     H78829   0.976   3.939   7.882 -1.8313 -1.3863  0.3349
  584MOL0     H78830   0.767   3.898   7.921  0.7712  1.1379 -2.7032
  584MOL0     H78831   0.768   3.856   7.760 -1.9901  0.6731 -0.8469
  584MOL0     H78832   0.522   3.852   7.868 -1.3369 -0.8304 -1.6734
  584MOL0     H78833   0.568   3.727   7.966 -0.5676 -1.2832 -1.2454
  584MOL0     H78834   0.642   3.616   7.709 -1.4377 -0.9081 -1.2406
  584MOL0     H78835   0.510   3.718   7.674  0.3469 -0.8562 -0.2616
  584MOL0     H78836   0.401   3.578   7.894  3.5590  1.1783  3.0765
  584MOL0     H78837   0.520   3.462   7.836 -0.1115  0.5909  0.2543
  584MOL0     H78838   0.237   3.496   7.507 -1.2359  3.7718  1.0767
  584MOL0     H78839   0.978   3.516   7.911  1.3981 -0.8864 -0.8398
  584MOL0     H78840   1.220   3.515   7.982  2.2871  0.4360 -1.0357
  585MOL0     O78841   0.998   1.938   6.135  0.3429  0.0272  0.2360
  585MOL0     C78842   0.940   1.832   6.126  1.0036  0.0594 -0.6968
  585MOL0     O78843   0.905   1.756   6.233 -0.3991  0.0934  0.2535
  585MOL0     C78844   0.931   1.795   6.359 -0.4502  0.5539 -0.9060
  585MOL0     C78845   0.854   1.895   6.426 -0.2947  0.9183 -0.3454
  585MOL0     C78846   0.897   1.951   6.544 -0.4468 -0.3537  0.3907
  585MOL0     C78847   1.008   1.895   6.615 -0.8038  0.8122  0.4886
  585MOL0     O78848   1.068   1.952   6.719  0.2355 -0.2969  1.1257
  585MOL0     C78849   1.014   2.063   6.794  0.4854  0.1525  0.4829
  585MOL0     C78850   1.081   2.070   6.930  0.4138 -0.4783  0.1216
  585MOL0     C78851   1.192   2.174   6.931 -0.2769 -0.1043  0.0860
  585MOL0     C78852   1.267   2.178   7.063 -0.8125  0.1058  0.3895
  585MOL0     C78853   1.316   2.324   7.098  0.1595  0.0052  0.6696
  585MOL0     C78854   1.434   2.364   7.017 -0.0153  0.2240 -0.7315
  585MOL0     C78855   1.490   2.486   7.086  0.2220 -0.2791  0.7006
  585MOL0     C78856   1.624   2.529   7.016 -0.7996 -0.2203  0.2624
  585MOL0     N78857   1.620   2.520   6.868 -0.3142 -0.0411  0.2455
  585MOL0     C78858   1.684   2.427   6.787  0.4569 -0.5724  1.3220
  585MOL0     C78859   1.675   2.479   6.665  0.4173 -0.0205  0.7647
  585MOL0     C78860   1.736   2.437   6.540 -0.9335  0.5558 -0.0109
  585MOL0     C78861   1.673   2.492   6.410 -1.1103  0.0422 -0.1609
  585MOL0     C78862   1.734   2.437   6.276 -2.1909 -0.1255 -0.5586
  585MOL0     C78863   1.878   2.485   6.248 -0.5722 -0.9888 -0.9217
  585MOL0     O78864   1.932   2.465   6.116  0.7036 -0.6933  0.1716
  585MOL0     C78865   1.895   2.349   6.052  0.1285  0.3813  0.5347
  585MOL0     C78866   1.889   2.218   6.112 -0.2635  0.5420  0.4109
  585MOL0     C78867   1.854   2.102   6.046  0.0068  0.6440 -0.0416
  585MOL0     C78868   1.898   1.971   6.115  0.2937 -0.1132  0.7593
  585MOL0     C78869   1.801   2.117   5.911  0.3545  0.9286  0.5029
  585MOL0     C78870   1.732   1.990   5.844 -0.1705  0.5073  0.2435
  585MOL0     O78871   1.625   2.005   5.749  0.2020 -0.5091  0.5061
  585MOL0     C78872   1.593   1.879   5.684 -0.0903  0.8650  0.8031
  585MOL0     C78873   1.673   1.788   5.611  0.2213  0.5225 -0.4816
  585MOL0     C78874   1.612   1.673   5.560 -0.3596 -0.3093  0.2684
  585MOL0     C78875   1.478   1.639   5.587  0.0043 -0.8250 -0.2746
  585MOL0     O78876   1.420   1.517   5.551 -0.3497  0.9684  0.7292
  585MOL0     C78877   1.500   1.395   5.591  0.1239  0.0162 -0.3798
  585MOL0     C78878   1.398   1.318   5.691 -0.6382 -0.5927 -0.1799
  585MOL0     C78879   1.453   1.176   5.716 -0.4877  0.3370  0.0785
  585MOL0     C78880   1.384   1.095   5.826  0.4712  0.4426 -0.1145
  585MOL0     C78881   1.255   1.033   5.752 -0.0041  0.0341 -1.0054
  585MOL0     C78882   1.169   0.953   5.856 -0.5353  0.6052 -0.2261
  585MOL0     C78883   1.085   0.850   5.779  0.3629  0.1922  0.7548
  585MOL0     C78884   0.999   0.768   5.859  0.7972 -0.3029 -0.6195
  585MOL0    Cl78885   0.900   0.668   5.747 -0.6380 -0.0929 -0.1041
  585MOL0     C78886   1.398   1.740   5.656  0.0594  0.1718  0.3182
  585MOL0     C78887   1.462   1.851   5.706  0.3704  0.2976 -0.1790
  585MOL0     O78888   1.780   1.885   5.871  0.3011  0.1825 -0.3237
  585MOL0     C78889   1.787   2.245   5.854  1.0982 -0.1799  0.8975
  585MOL0     C78890   1.832   2.360   5.923  0.3245  0.4079  0.6251
  585MOL0     N78891   1.616   2.604   6.672  0.4185 -0.3918 -0.5422
  585MOL0     N78892   1.582   2.624   6.797 -0.0438  0.4481 -0.0837
  585MOL0     C78893   1.085   1.788   6.561  0.1568  1.0194  0.6503
  585MOL0     C78894   1.048   1.747   6.429 -0.0698 -0.3068 -0.4029
  585MOL0     C78895   0.900   1.782   5.994 -0.2255  0.4790  0.2142
  585MOL0     C78896   0.829   1.662   5.975  0.1204 -0.1868  0.1654
  585MOL0     C78897   0.788   1.620   5.846  0.7283 -0.4318 -1.1476
  585MOL0     C78898   0.819   1.698   5.732 -0.3018 -0.4166 -0.1849
  585MOL0     O78899   0.764   1.660   5.614 -0.4023 -0.3506 -0.4133
  585MOL0     C78900   0.794   1.748   5.499  0.2265  0.7353  0.0966
  585MOL0     C78901   0.732   1.701   5.375  0.0481 -0.1495  0.5677
  585MOL0     C78902   0.813   1.594   5.308 -0.5285 -0.0626  0.0775
  585MOL0     C78903   0.736   1.486   5.240  0.6494  1.2752  0.5679
  585MOL0     C78904   0.654   1.406   5.335 -0.4939 -0.0875 -0.2882
  585MOL0     C78905   0.569   1.342   5.400  0.6659  0.5126 -0.0687
  585MOL0     C78906   0.912   1.807   5.750  0.8443  0.2667 -0.4034
  585MOL0     C78907   0.947   1.842   5.879 -0.0167 -0.3299 -0.9042
  585MOL0     H78908   0.767   1.926   6.370  0.4421  0.6914 -1.6570
  585MOL0     H78909   0.853   2.042   6.583  0.9588  0.2924  0.5054
  585MOL0     H78910   1.031   2.160   6.747 -1.8902  0.0548 -0.6995
  585MOL0     H78911   0.906   2.049   6.801  0.6561 -2.6011 -0.8633
  585MOL0     H78912   0.999   2.086   7.001 -1.0584 -1.5082 -1.2594
  585MOL0     H78913   1.117   1.968   6.947 -0.5325 -0.6625  1.1253
  585MOL0     H78914   1.263   2.136   6.857  1.7225  0.4905  1.6152
  585MOL0     H78915   1.149   2.268   6.898 -1.5410 -0.0227  1.8620
  585MOL0     H78916   1.201   2.150   7.146 -2.4944  3.8134  0.5352
  585MOL0     H78917   1.352   2.110   7.060 -0.6242  0.3596 -1.6996
  585MOL0     H78918   1.238   2.400   7.103  0.0359 -0.1609  1.3959
  585MOL0     H78919   1.346   2.305   7.201  2.2295 -0.9375 -0.0575
  585MOL0     H78920   1.507   2.283   7.011  0.7148  0.6456  1.4440
  585MOL0     H78921   1.409   2.393   6.915  0.6097 -1.3042 -1.3553
  585MOL0     H78922   1.423   2.572   7.089 -0.2811 -0.6653  0.7463
  585MOL0     H78923   1.505   2.461   7.192 -1.4109 -0.6891  0.8522
  585MOL0     H78924   1.710   2.478   7.061  0.9618  1.4273 -1.0509
  585MOL0     H78925   1.640   2.632   7.048 -0.2776  0.8355 -3.0479
  585MOL0     H78926   1.727   2.335   6.826  0.5765  0.1792  3.0687
  585MOL0     H78927   1.845   2.452   6.543  0.2416 -5.6444  2.3443
  585MOL0     H78928   1.745   2.328   6.541  3.1195  0.7237  0.0199
  585MOL0     H78929   1.677   2.601   6.408 -1.2983  0.0786  0.9941
  585MOL0     H78930   1.570   2.454   6.408 -0.7896 -1.0700  1.7543
  585MOL0     H78931   1.671   2.475   6.195  1.8854 -0.7487 -4.3724
  585MOL0     H78932   1.724   2.329   6.288  1.6556 -0.5141  0.6014
  585MOL0     H78933   1.934   2.420   6.316 -1.3118  0.0143  0.7016
  585MOL0     H78934   1.886   2.591   6.273 -3.3486 -1.1249  1.0767
  585MOL0     H78935   1.908   2.202   6.218 -1.7415 -2.8686  0.2955
  585MOL0     H78936   1.962   1.913   6.048  0.2418  0.0450  0.5715
  585MOL0     H78937   1.955   1.991   6.207 -0.3617 -2.1903  1.6849
  585MOL0     H78938   1.819   1.898   6.134  0.4828 -1.0144 -1.6160
  585MOL0     H78939   1.779   1.805   5.599  0.7137 -0.4450  1.9519
  585MOL0     H78940   1.663   1.594   5.506  0.9615 -1.9681  3.6561
  585MOL0     H78941   1.526   1.339   5.500  1.2852 -2.3406  1.2875
  585MOL0     H78942   1.595   1.422   5.637  0.0558  1.0831 -0.8431
  585MOL0     H78943   1.402   1.382   5.779  2.2905  0.7997 -1.1875
  585MOL0     H78944   1.296   1.316   5.653 -1.2668  0.4847  1.3634
  585MOL0     H78945   1.555   1.185   5.754 -0.2895 -1.5908  0.1249
  585MOL0     H78946   1.460   1.110   5.629  4.8196 -4.0181  3.1504
  585MOL0     H78947   1.445   1.008   5.852  3.4506  2.5091  0.2810
  585MOL0     H78948   1.379   1.154   5.918  1.0323  0.3626 -0.0278
  585MOL0     H78949   1.294   0.959   5.683 -0.0801  0.8143 -1.9037
  585MOL0     H78950   1.187   1.109   5.711 -2.8513 -0.9468  1.5647
  585MOL0     H78951   1.236   0.908   5.929  0.3636  1.1914 -0.6835
  585MOL0     H78952   1.099   1.022   5.904 -2.0931 -1.0714  0.0375
  585MOL0     H78953   1.151   0.783   5.724  0.8179  1.5430 -0.3946
  585MOL0     H78954   1.030   0.898   5.698  2.3807 -1.0717 -1.4817
  585MOL0     H78955   0.937   0.828   5.927  0.3440 -1.1058 -0.3151
  585MOL0     H78956   1.056   0.716   5.937 -1.1354  1.0059  1.8419
  585MOL0     H78957   1.295   1.717   5.679  0.5959 -1.1781  1.5578
  585MOL0     H78958   1.392   1.916   5.758  0.1251 -1.0125  1.1942
  585MOL0     H78959   1.734   2.270   5.763 -0.8812 -0.6368  1.8772
  585MOL0     H78960   1.821   2.458   5.878 -0.6264  0.6173  1.2778
  585MOL0     H78961   1.171   1.742   6.610  0.2122 -0.0016 -0.3705
  585MOL0     H78962   1.113   1.670   6.388  1.1266  0.3919  0.1216
  585MOL0     H78963   0.809   1.603   6.064  0.0401  1.0413  0.9940
  585MOL0     H78964   0.729   1.530   5.836  1.4899 -1.5657  2.9119
  585MOL0     H78965   0.740   1.838   5.531  1.6923  1.7585 -0.2490
  585MOL0     H78966   0.901   1.765   5.489  0.2737 -0.5332 -2.1401
  585MOL0     H78967   0.700   1.779   5.305 -1.5359 -0.4088  0.9663
  585MOL0     H78968   0.637   1.659   5.411  0.2765 -0.6927  0.5505
  585MOL0     H78969   0.879   1.540   5.376  1.0636 -0.2799 -1.5394
  585MOL0     H78970   0.886   1.653   5.250  1.5429  0.6141  3.1588
  585MOL0     H78971   0.792   1.404   5.194 -0.1863  1.8451 -1.5930
  585MOL0     H78972   0.667   1.520   5.161  0.3728 -1.8018 -0.6669
  585MOL0     H78973   0.487   1.304   5.458 -3.3336  1.5505 -4.4134
  585MOL0     H78974   0.954   1.859   5.665  0.2121  0.0518 -0.8577
  585MOL0     H78975   1.010   1.930   5.877  0.5943 -0.7576 -0.9512
  586MOL0     O78976   3.628   8.431   4.336  0.6791 -0.1866 -0.1225
  586MOL0     C78977   3.506   8.457   4.368 -0.3037 -0.5184  1.2177
  586MOL0     O78978   3.431   8.572   4.321 -0.2519 -0.2929  0.3651
  586MOL0     C78979   3.475   8.657   4.223 -0.7706 -0.3999 -0.3631
  586MOL0     C78980   3.386   8.768   4.199 -0.6326 -1.0576  0.5716
  586MOL0     C78981   3.411   8.864   4.101  0.9183 -0.8196  0.4968
  586MOL0     C78982   3.510   8.849   4.013  0.0044 -0.1944  0.8606
  586MOL0     O78983   3.525   8.933   3.901  0.0985 -0.6479 -0.0107
  586MOL0     C78984   3.432   9.041   3.864 -0.2608 -0.5659  0.2171
  586MOL0     C78985   3.315   8.980   3.803  1.4558 -1.2967  0.2401
  586MOL0     C78986   3.227   9.093   3.732  0.6188  0.1306 -0.6076
  586MOL0     C78987   3.151   9.178   3.839  0.7755 -0.1640  0.5885
  586MOL0     C78988   3.068   9.284   3.773  0.1407 -0.3366 -0.9945
  586MOL0     C78989   3.107   9.432   3.790  0.7343 -0.3224 -0.9019
  586MOL0     C78990   3.252   9.443   3.732 -0.6063  0.2780  0.0732
  586MOL0     C78991   3.299   9.584   3.754  0.4444  0.2570  0.2115
  586MOL0     N78992   3.310   9.608   3.905 -0.3540  0.4571  0.2438
  586MOL0     C78993   3.232   9.691   3.986 -0.6770 -0.0770 -0.3395
  586MOL0     C78994   3.253   9.653   4.115 -0.0034 -0.2515  0.1571
  586MOL0     C78995   3.183   9.724   4.228  0.4204 -0.1230 -0.0777
  586MOL0     C78996   3.238   9.869   4.242  0.5498 -0.0519 -0.2189
  586MOL0     C78997   3.195   9.914   4.383 -0.5541 -0.7926  0.5811
  586MOL0     C78998   3.227  10.056   4.415  0.5901  0.1709  0.5078
  586MOL0     O78999   3.203  10.091   4.552  0.5156 -0.2114  0.7618
  586MOL0     C79000   3.227  10.221   4.589  0.4423 -1.1617 -0.8316
  586MOL0     C79001   3.259  10.331   4.511 -0.0624 -0.6084  1.2376
  586MOL0     C79002   3.309  10.452   4.555 -0.2801  0.2202 -0.2306
  586MOL0     C79003   3.353  10.547   4.445  0.3765  0.6919  0.5051
  586MOL0     C79004   3.336  10.467   4.699  0.0270 -0.3636  0.6902
  586MOL0     C79005   3.388  10.596   4.757  0.1057  0.2733 -1.9071
  586MOL0     O79006   3.457  10.577   4.874 -0.0694  0.1118  0.2101
  586MOL0     C79007   3.504  10.677   4.961  0.3390  0.3070 -1.3793
  586MOL0     C79008   3.545  10.637   5.093  0.7531  1.0111 -0.0549
  586MOL0     C79009   3.582  10.722   5.187  1.0390  0.8249  0.0473
  586MOL0     C79010   3.576  10.859   5.167 -0.5593  0.4175 -0.3814
  586MOL0     O79011   3.594  10.934   5.277 -0.7320 -0.5786 -0.5219
  586MOL0     C79012   3.688  11.048   5.259 -0.1733  0.6151 -0.3796
  586MOL0     C79013   3.833  10.996   5.240 -0.0059 -0.0599  0.0506
  586MOL0     C79014   3.876  10.877   5.326 -0.6991 -0.6185 -0.9399
  586MOL0     C79015   4.029  10.856   5.301  0.4366  0.5447  0.7742
  586MOL0     C79016   4.088  10.730   5.369  0.1103 -0.2997  0.1255
  586MOL0     C79017   4.234  10.724   5.330 -0.4826 -0.1626 -0.1073
  586MOL0     C79018   4.297  10.600   5.410 -0.0092 -0.0294  0.1682
  586MOL0     C79019   4.293  10.471   5.336  0.5887 -0.6851 -0.6483
  586MOL0    Cl79020   4.287  10.352   5.466  0.5833 -0.7003  0.5806
  586MOL0     C79021   3.550  10.900   5.034  1.2219  1.0335 -0.4400
  586MOL0     C79022   3.513  10.811   4.935  0.3966 -0.3860 -0.5766
  586MOL0     O79023   3.348  10.702   4.708  0.4590  0.0603  0.5291
  586MOL0     C79024   3.285  10.360   4.783  0.3253  0.1030  0.1535
  586MOL0     C79025   3.232  10.245   4.728  0.2632  0.2500 -0.2991
  586MOL0     N79026   3.350   9.556   4.112 -0.4841  0.0498 -0.2971
  586MOL0     N79027   3.391   9.530   3.991  0.1141  0.7778  0.8028
  586MOL0     C79028   3.602   8.745   4.031  0.1143  0.5204 -0.2540
  586MOL0     C79029   3.586   8.650   4.138  0.6038 -0.7480  1.1014
  586MOL0     C79030   3.466   8.389   4.492 -0.6246  0.5738  1.2729
  586MOL0     C79031   3.559   8.326   4.576 -0.5846 -0.2420  0.4153
  586MOL0     C79032   3.510   8.259   4.689  0.3811 -0.4771  0.6247
  586MOL0     C79033   3.370   8.260   4.716 -0.4855 -0.0196  0.3870
  586MOL0     O79034   3.320   8.184   4.820  0.0039 -0.1796 -0.4709
  586MOL0     C79035   3.399   8.131   4.933 -0.4454 -1.0119 -0.4335
  586MOL0     C79036   3.456   8.247   5.024  0.5285 -0.2985  1.4626
  586MOL0     C79037   3.549   8.190   5.125 -0.0731  0.1707  0.3035
  586MOL0     C79038   3.521   8.223   5.269  0.2885  0.0042  0.0641
  586MOL0     C79039   3.396   8.159   5.334 -0.6349 -0.3440 -0.0294
  586MOL0     C79040   3.296   8.131   5.392  0.9245 -0.0640  0.0214
  586MOL0     C79041   3.284   8.330   4.643  0.4999 -0.3647  0.8836
  586MOL0     C79042   3.331   8.392   4.521 -0.5700 -0.0969  0.2042
  586MOL0     H79043   3.302   8.773   4.268 -0.4935 -2.0548  0.8380
  586MOL0     H79044   3.342   8.948   4.092  2.0306 -0.0305 -1.3071
  586MOL0     H79045   3.400   9.095   3.954  0.3222 -1.9986  1.3313
  586MOL0     H79046   3.487   9.101   3.792 -2.8460 -0.7698 -2.1024
  586MOL0     H79047   3.339   8.909   3.724  0.5852 -1.4455  0.0971
  586MOL0     H79048   3.262   8.918   3.876  1.9560 -0.6130  1.2063
  586MOL0     H79049   3.292   9.162   3.676  1.1026 -0.3675 -0.6686
  586MOL0     H79050   3.169   9.042   3.655  1.8617 -2.5591  0.1205
  586MOL0     H79051   3.085   9.107   3.890 -2.0180 -0.6263 -3.1993
  586MOL0     H79052   3.222   9.214   3.914  2.6585 -3.6213  0.7239
  586MOL0     H79053   3.047   9.267   3.667  2.1661  1.7990 -1.8183
  586MOL0     H79054   2.971   9.286   3.823  0.5358  1.3859 -0.2177
  586MOL0     H79055   3.029   9.486   3.736 -0.2797 -1.0269 -0.1877
  586MOL0     H79056   3.105   9.449   3.898 -0.4148 -0.2564 -0.9218
  586MOL0     H79057   3.316   9.374   3.788  0.0910  1.2773  0.5416
  586MOL0     H79058   3.250   9.409   3.629  0.7746  2.2311 -0.6774
  586MOL0     H79059   3.224   9.648   3.705 -2.8637 -2.2206  1.6173
  586MOL0     H79060   3.394   9.598   3.702 -0.3450  0.8768 -1.1222
  586MOL0     H79061   3.171   9.774   3.951  0.1147  0.2007 -1.1045
  586MOL0     H79062   3.075   9.722   4.210  0.4756  2.2997 -1.0370
  586MOL0     H79063   3.224   9.660   4.307  2.0569 -0.9874 -1.5780
  586MOL0     H79064   3.194   9.933   4.165  0.4930 -0.4548 -0.5283
  586MOL0     H79065   3.347   9.874   4.231  0.6150 -1.8460 -0.7535
  586MOL0     H79066   3.256   9.863   4.458  2.2977  0.6321 -0.5883
  586MOL0     H79067   3.087   9.902   4.384 -0.6852 -0.2960 -1.8597
  586MOL0     H79068   3.160  10.116   4.352 -4.8828 -0.7458  4.7342
  586MOL0     H79069   3.329  10.072   4.378  0.2924 -3.0400 -2.1681
  586MOL0     H79070   3.272  10.300   4.408 -3.0522 -0.2465  0.6592
  586MOL0     H79071   3.446  10.599   4.471  0.4122  0.5496  0.6655
  586MOL0     H79072   3.366  10.494   4.351  1.8873 -0.1538  1.1575
  586MOL0     H79073   3.270  10.616   4.426  0.5255  0.5629 -0.6519
  586MOL0     H79074   3.541  10.529   5.106  0.4150  1.1559  1.1954
  586MOL0     H79075   3.606  10.691   5.288  4.2282  3.7650  0.3590
  586MOL0     H79076   3.655  11.120   5.184 -0.2253 -0.4353 -1.3974
  586MOL0     H79077   3.693  11.106   5.351  3.3106 -1.0666  0.6434
  586MOL0     H79078   3.841  10.958   5.138 -0.8271  1.1463 -0.4912
  586MOL0     H79079   3.902  11.079   5.256  0.5836 -0.6291  0.4809
  586MOL0     H79080   3.828  10.784   5.292  0.9269 -1.9701  0.3111
  586MOL0     H79081   3.851  10.897   5.430 -2.0402  3.4385 -1.8880
  586MOL0     H79082   4.052  10.845   5.194  3.7062  1.2400  1.2880
  586MOL0     H79083   4.085  10.943   5.335  2.4342 -2.7614  7.6340
  586MOL0     H79084   4.029  10.645   5.334 -0.8063  0.8553 -1.2042
  586MOL0     H79085   4.078  10.742   5.477  0.6177 -0.7595  0.2323
  586MOL0     H79086   4.241  10.713   5.221 -2.0134  0.1102 -0.2650
  586MOL0     H79087   4.274  10.815   5.374 -5.3550  0.2691  4.4116
  586MOL0     H79088   4.237  10.593   5.501 -1.0968 -1.8560 -0.6465
  586MOL0     H79089   4.400  10.618   5.443  1.1816 -2.3430 -1.9755
  586MOL0     H79090   4.380  10.456   5.271  0.3746  1.0449 -1.3675
  586MOL0     H79091   4.210  10.460   5.266  1.5446  0.9710 -2.1165
  586MOL0     H79092   3.553  11.007   5.015  3.2141  0.9222 -0.9536
  586MOL0     H79093   3.480  10.846   4.837  2.5289  2.2019 -0.4704
  586MOL0     H79094   3.281  10.381   4.890  0.0039  2.6937 -0.3133
  586MOL0     H79095   3.189  10.169   4.792  0.3532 -0.5377 -1.1572
  586MOL0     H79096   3.691   8.736   3.970  0.7838 -1.9204  0.9388
  586MOL0     H79097   3.646   8.559   4.141 -0.5272 -1.5363  0.3856
  586MOL0     H79098   3.659   8.303   4.540 -0.5821 -1.7104  1.2552
  586MOL0     H79099   3.583   8.214   4.755  1.1286  0.2256  0.2878
  586MOL0     H79100   3.331   8.074   4.997  0.3970 -0.4849  0.9850
  586MOL0     H79101   3.477   8.067   4.890 -0.5879 -0.2112 -1.9557
  586MOL0     H79102   3.374   8.299   5.074 -0.8181  1.7849 -2.4930
  586MOL0     H79103   3.511   8.320   4.964 -2.0013 -0.2908 -1.0620
  586MOL0     H79104   3.643   8.237   5.093 -0.6761  1.4905  0.4001
  586MOL0     H79105   3.553   8.081   5.117 -0.9667  0.1314  0.2449
  586MOL0     H79106   3.502   8.330   5.278 -0.7973 -0.0297 -1.4179
  586MOL0     H79107   3.611   8.207   5.329  2.8997  2.7761 -2.7128
  586MOL0     H79108   3.207   8.104   5.446 -0.5643  2.5235 -0.9454
  586MOL0     H79109   3.177   8.324   4.662  0.9124 -0.7982  3.4400
  586MOL0     H79110   3.254   8.433   4.457  3.0661  1.6606 -3.5698
  587MOL0     O79111   1.918   7.878   1.461  1.2732  0.5933  0.0796
  587MOL0     C79112   1.966   7.959   1.382 -0.5109 -0.6993  0.2176
  587MOL0     O79113   2.103   7.973   1.354  0.3035 -0.0812  0.7228
  587MOL0     C79114   2.195   7.902   1.428 -1.1981 -0.1366  0.3307
  587MOL0     C79115   2.177   7.843   1.552 -0.4226 -1.2046  0.0726
  587MOL0     C79116   2.283   7.786   1.626  0.0844 -0.6330  0.0184
  587MOL0     C79117   2.409   7.774   1.566  0.5733 -0.8133 -0.0589
  587MOL0     O79118   2.499   7.708   1.646 -0.3674  0.0103 -0.0843
  587MOL0     C79119   2.634   7.717   1.598 -0.5497 -0.4684 -0.0343
  587MOL0     C79120   2.747   7.665   1.699  1.4371  0.2330 -0.0866
  587MOL0     C79121   2.857   7.590   1.634 -0.4126  0.3065  0.1902
  587MOL0     C79122   2.966   7.691   1.602 -0.0907 -0.7505  0.8015
  587MOL0     C79123   3.076   7.648   1.499 -0.6315 -0.3599  0.1843
  587MOL0     C79124   3.182   7.557   1.568  0.3435 -0.5843 -0.1967
  587MOL0     C79125   3.261   7.501   1.460  0.1076 -1.3490  0.0330
  587MOL0     C79126   3.383   7.587   1.432 -0.5828 -0.6079  0.2782
  587MOL0     N79127   3.477   7.521   1.334 -0.3816 -0.5467  0.0035
  587MOL0     C79128   3.482   7.539   1.197  0.1320  0.5364  0.4553
  587MOL0     C79129   3.573   7.447   1.149  0.6274  0.6142  0.6703
  587MOL0     C79130   3.617   7.442   1.003 -0.4610 -0.4499  0.0570
  587MOL0     C79131   3.558   7.331   0.919  0.1526  0.5759  0.1501
  587MOL0     C79132   3.604   7.342   0.765  0.1220  0.1774 -0.6832
  587MOL0     C79133   3.741   7.263   0.765 -0.7083  0.2287  0.9364
  587MOL0     O79134   3.712   7.120   0.768 -0.6107  0.1287 -0.7650
  587MOL0     C79135   3.813   7.025   0.779 -0.1619 -0.7954  0.4367
  587MOL0     C79136   3.776   6.894   0.764 -0.5803 -0.9772  0.5190
  587MOL0     C79137   3.857   6.781   0.766  0.0794  0.1138 -0.0496
  587MOL0     C79138   3.796   6.643   0.752  0.3387  1.0792  0.2209
  587MOL0     C79139   3.994   6.799   0.784  0.5448  0.6613 -0.0786
  587MOL0     C79140   4.091   6.689   0.813  0.3044 -0.2493 -0.9867
  587MOL0     O79141   4.220   6.739   0.821 -0.0956 -0.4743  0.6527
  587MOL0     C79142   4.326   6.673   0.877  0.0398  2.0159 -0.0909
  587MOL0     C79143   4.417   6.748   0.952  0.6876  0.1169  0.8509
  587MOL0     C79144   4.532   6.692   0.998 -1.4165 -0.0904 -0.2933
  587MOL0     C79145   4.570   6.554   0.959  0.4580  0.2675  0.0464
  587MOL0     O79146   4.692   6.492   0.984 -0.1521  0.9837 -0.2526
  587MOL0     C79147   4.765   6.537   1.101  0.6141 -0.6758 -0.2742
  587MOL0     C79148   4.883   6.438   1.132 -0.5241 -0.2164 -0.6847
  587MOL0     C79149   4.841   6.298   1.155  0.0869 -0.5752 -0.1302
  587MOL0     C79150   4.789   6.266   1.297 -0.1661  0.7993 -0.1369
  587MOL0     C79151   4.678   6.166   1.293 -0.0129  0.6192  1.5160
  587MOL0     C79152   4.652   6.106   1.433 -0.4026 -0.1501 -0.3395
  587MOL0     C79153   4.767   6.011   1.494 -0.0994  0.0294  0.5086
  587MOL0     C79154   4.719   5.918   1.600  0.0766  0.8333  0.1298
  587MOL0    Cl79155   4.691   6.018   1.751 -0.4199  0.1836 -0.4121
  587MOL0     C79156   4.491   6.483   0.874 -0.3540 -0.3983  0.9935
  587MOL0     C79157   4.370   6.539   0.836 -0.5971  0.2067 -0.8760
  587MOL0     O79158   4.058   6.576   0.829 -0.4946  0.0355 -0.8183
  587MOL0     C79159   4.040   6.935   0.790  0.3869  0.3725  0.2911
  587MOL0     C79160   3.952   7.054   0.787  0.4891  1.1806 -0.3105
  587MOL0     N79161   3.624   7.371   1.251 -0.5041 -0.1647  0.9225
  587MOL0     N79162   3.567   7.419   1.363 -0.3485 -0.0085  0.2980
  587MOL0     C79163   2.436   7.840   1.436 -0.8485 -0.7226  0.7619
  587MOL0     C79164   2.323   7.896   1.374 -0.1798  0.3451 -0.2209
  587MOL0     C79165   1.880   8.038   1.291  0.1989  0.4885 -0.0281
  587MOL0     C79166   1.739   8.036   1.314 -0.3271  2.0108  0.2360
  587MOL0     C79167   1.661   8.137   1.255  0.1015 -0.6694  0.3739
  587MOL0     C79168   1.711   8.204   1.141  0.0712  0.0327  0.1399
  587MOL0     O79169   1.624   8.275   1.077  0.4768 -0.3199  0.7813
  587MOL0     C79170   1.655   8.414   1.070  0.1068 -0.9574 -0.2114
  587MOL0     C79171   1.644   8.464   0.927 -0.1317 -0.3274 -0.6776
  587MOL0     C79172   1.700   8.602   0.892  0.0390 -0.0398  0.2512
  587MOL0     C79173   1.670   8.654   0.745 -0.4833 -0.3569  0.8454
  587MOL0     C79174   1.680   8.557   0.628  0.3615 -0.2196  0.0515
  587MOL0     C79175   1.682   8.496   0.516 -1.0671  0.0526  0.1633
  587MOL0     C79176   1.840   8.183   1.093  0.7042 -0.1829 -0.8397
  587MOL0     C79177   1.935   8.108   1.179  0.7138 -0.6698 -0.3985
  587MOL0     H79178   2.077   7.829   1.592  0.1359 -0.7126  1.7118
  587MOL0     H79179   2.269   7.749   1.727  2.6989  0.0137  0.6898
  587MOL0     H79180   2.648   7.658   1.508  0.4670 -0.8206  0.3374
  587MOL0     H79181   2.651   7.823   1.577 -2.4821 -0.5911 -2.7311
  587MOL0     H79182   2.768   7.740   1.776 -1.8341  0.1073  1.0792
  587MOL0     H79183   2.687   7.599   1.761 -0.1826  1.8979  0.2131
  587MOL0     H79184   2.896   7.517   1.705  0.2441  1.5854  1.1981
  587MOL0     H79185   2.826   7.537   1.544 -0.1010  1.8857 -0.9020
  587MOL0     H79186   2.921   7.783   1.563  2.9036 -0.3493 -2.1880
  587MOL0     H79187   3.018   7.721   1.694 -2.8847  0.3824  2.1103
  587MOL0     H79188   3.027   7.608   1.410  0.3029 -1.1656  0.0136
  587MOL0     H79189   3.122   7.741   1.463  1.7194 -1.1997  0.8235
  587MOL0     H79190   3.244   7.619   1.634  0.7632 -0.4469 -0.7137
  587MOL0     H79191   3.128   7.485   1.630 -1.1580  1.2213  0.6894
  587MOL0     H79192   3.296   7.402   1.491  1.8882  0.5917  5.3032
  587MOL0     H79193   3.200   7.494   1.369 -1.8335  2.0569  0.9140
  587MOL0     H79194   3.451   7.604   1.516  2.6900 -1.6393 -1.9253
  587MOL0     H79195   3.348   7.683   1.392 -2.3425 -2.5017 -3.1493
  587MOL0     H79196   3.422   7.608   1.138 -2.0905 -1.2491  0.4862
  587MOL0     H79197   3.581   7.536   0.958 -1.5297 -0.8894 -0.0475
  587MOL0     H79198   3.725   7.442   1.015 -0.1338  0.1167 -2.3869
  587MOL0     H79199   3.449   7.338   0.933  0.4223  2.4752  1.8142
  587MOL0     H79200   3.573   7.229   0.956  0.4822  0.7081  0.3832
  587MOL0     H79201   3.611   7.444   0.725 -2.6025  0.5031 -0.5392
  587MOL0     H79202   3.538   7.276   0.708  0.3272 -2.8377  2.2654
  587MOL0     H79203   3.794   7.292   0.857 -1.0186  1.9126  0.6218
  587MOL0     H79204   3.800   7.284   0.675 -1.9287 -0.7104 -0.1046
  587MOL0     H79205   3.670   6.875   0.753 -0.9955  0.1288  2.2207
  587MOL0     H79206   3.866   6.564   0.725  1.3380  2.7520 -2.5216
  587MOL0     H79207   3.747   6.614   0.845  0.9760 -1.7455 -0.2182
  587MOL0     H79208   3.716   6.646   0.677  0.3818 -2.9849 -0.2001
  587MOL0     H79209   4.407   6.852   0.982  0.9105  0.4378 -0.1505
  587MOL0     H79210   4.595   6.763   1.050 -0.4308  1.4745 -3.3862
  587MOL0     H79211   4.813   6.635   1.093  0.8260 -0.5428  1.9405
  587MOL0     H79212   4.687   6.544   1.177 -1.9936  1.6276 -2.9348
  587MOL0     H79213   4.947   6.427   1.045  0.9972 -0.6848  0.4457
  587MOL0     H79214   4.950   6.458   1.217 -1.4858  0.4457 -0.0624
  587MOL0     H79215   4.921   6.226   1.138  1.2428  0.5292  0.5105
  587MOL0     H79216   4.772   6.282   1.071 -0.4657 -0.5348  0.3074
  587MOL0     H79217   4.879   6.238   1.353 -0.0115 -1.2820 -1.2909
  587MOL0     H79218   4.741   6.352   1.343 -4.0653 -1.5349  0.6045
  587MOL0     H79219   4.710   6.089   1.222  0.0257  2.6160 -0.7732
  587MOL0     H79220   4.595   6.213   1.239  0.8968 -0.2991 -0.8520
  587MOL0     H79221   4.648   6.182   1.512 -1.8224 -0.9989  0.4654
  587MOL0     H79222   4.560   6.046   1.428 -1.4476  1.3385  0.0640
  587MOL0     H79223   4.851   6.070   1.533  0.8637 -2.5180  2.6178
  587MOL0     H79224   4.798   5.949   1.410  0.3134 -1.2333  1.5573
  587MOL0     H79225   4.805   5.851   1.615 -0.9273 -0.6194 -0.3780
  587MOL0     H79226   4.635   5.860   1.561 -1.9625  3.3895  0.4490
  587MOL0     H79227   4.519   6.387   0.834  0.6057  0.1361  0.3442
  587MOL0     H79228   4.309   6.485   0.764 -1.9390 -0.2942  0.5632
  587MOL0     H79229   4.141   6.972   0.803  0.4629  0.2675  0.0193
  587MOL0     H79230   3.996   7.153   0.790  1.2956  0.8537 -0.9754
  587MOL0     H79231   2.535   7.839   1.392 -1.0617  1.6038  0.1328
  587MOL0     H79232   2.336   7.943   1.278  1.0557 -1.7083 -1.1325
  587MOL0     H79233   1.687   7.972   1.384  1.7681 -0.6346 -0.4881
  587MOL0     H79234   1.553   8.143   1.267  0.3467  0.7013  2.3987
  587MOL0     H79235   1.598   8.471   1.144  0.0399 -0.8165 -0.3693
  587MOL0     H79236   1.760   8.422   1.099  0.1545 -2.2504  0.0333
  587MOL0     H79237   1.540   8.481   0.897  0.3121  1.5082 -1.3661
  587MOL0     H79238   1.700   8.390   0.871 -0.1487  1.4409 -3.2031
  587MOL0     H79239   1.809   8.607   0.901  0.7591 -1.2576 -4.6669
  587MOL0     H79240   1.645   8.677   0.950  0.1261  0.2835 -0.0801
  587MOL0     H79241   1.741   8.734   0.724 -0.9045  0.4439  2.2639
  587MOL0     H79242   1.573   8.705   0.746 -0.4506 -0.2597 -0.1337
  587MOL0     H79243   1.696   8.454   0.418  1.5840  2.2698 -0.5414
  587MOL0     H79244   1.867   8.239   1.005  0.4259 -1.6804 -1.9253
  587MOL0     H79245   2.040   8.132   1.165  0.4915  1.9701  1.6715
  588MOL0     O79246   9.939   2.884   9.133 -0.6954  0.3691 -0.0846
  588MOL0     C79247   9.945   2.968   9.222 -0.4212 -0.1111  0.6892
  588MOL0     O79248   9.847   2.993   9.323  0.2338  0.1303 -0.0952
  588MOL0     C79249   9.746   2.901   9.351  0.8233 -0.0010 -0.6124
  588MOL0     C79250   9.625   2.970   9.367 -0.0721 -0.0926  0.1706
  588MOL0     C79251   9.505   2.895   9.386 -0.0994  0.5047  0.5772
  588MOL0     C79252   9.509   2.751   9.391  0.1592 -0.7807 -0.0460
  588MOL0     O79253   9.381   2.691   9.404  0.2195  0.3103 -0.6025
  588MOL0     C79254   9.371   2.562   9.351 -0.4242 -0.1099  0.0642
  588MOL0     C79255   9.217   2.529   9.336  0.3520 -0.8352 -0.3709
  588MOL0     C79256   9.169   2.600   9.205 -0.4534 -0.1497  0.3171
  588MOL0     C79257   9.138   2.496   9.102  0.4449  0.1274  0.6623
  588MOL0     C79258   9.091   2.559   8.964  0.0988 -0.5205  0.0487
  588MOL0     C79259   9.025   2.482   8.851  0.7591  0.1768 -0.2036
  588MOL0     C79260   9.112   2.389   8.779 -0.9084  0.0730  0.0397
  588MOL0     C79261   9.047   2.321   8.667 -0.1392  0.3028 -0.8673
  588MOL0     N79262   9.116   2.196   8.631 -0.2244  0.5352 -0.0933
  588MOL0     C79263   9.240   2.176   8.580  0.5728 -0.1061  0.1753
  588MOL0     C79264   9.268   2.048   8.602  0.6498 -0.4859 -0.0131
  588MOL0     C79265   9.383   1.963   8.563  0.2806 -0.0997 -0.1078
  588MOL0     C79266   9.462   1.924   8.691  0.2843  0.6516  0.3036
  588MOL0     C79267   9.444   1.769   8.721  0.1536 -0.2978  0.9214
  588MOL0     C79268   9.554   1.713   8.801  0.7718  0.2120 -0.2923
  588MOL0     O79269   9.678   1.737   8.736  0.1975 -0.0309  0.3591
  588MOL0     C79270   9.791   1.718   8.810 -0.5275 -0.5176 -0.2988
  588MOL0     C79271   9.815   1.604   8.889  0.6149  0.4474 -0.2649
  588MOL0     C79272   9.926   1.592   8.972 -0.4901  0.2076  0.3945
  588MOL0     C79273   9.943   1.457   9.048  0.4035 -0.5685 -1.1121
  588MOL0     C79274  10.023   1.693   8.971 -0.2781 -0.9381 -0.4967
  588MOL0     C79275  10.142   1.676   9.060  0.0143 -0.3199 -0.7896
  588MOL0     O79276  10.188   1.788   9.126 -0.0598 -0.0381  0.1785
  588MOL0     C79277  10.304   1.788   9.195  0.8343  0.8643 -0.9048
  588MOL0     C79278  10.351   1.683   9.271 -1.2631 -0.2176 -0.4093
  588MOL0     C79279  10.468   1.698   9.358  1.0709  1.0304  0.9953
  588MOL0     C79280  10.523   1.825   9.375 -0.0610 -0.0229  0.2994
  588MOL0     O79281  10.633   1.857   9.450  0.2471 -0.2487  0.1542
  588MOL0     C79282  10.636   1.780   9.574  0.1772  0.3442  0.3112
  588MOL0     C79283  10.678   1.862   9.691  0.3903  0.9782  0.4136
  588MOL0     C79284  10.834   1.883   9.692  1.7386  0.0845 -0.0967
  588MOL0     C79285  10.869   1.948   9.827  0.0225  0.1619 -0.3955
  588MOL0     C79286  11.023   1.946   9.848 -0.6594  0.0001 -0.4052
  588MOL0     C79287  11.095   1.812   9.845 -0.5239 -0.0682 -0.4628
  588MOL0     C79288  11.035   1.704   9.940 -0.3003 -1.2538 -0.6024
  588MOL0     C79289  11.105   1.570   9.924  0.6319  0.2398  0.8037
  588MOL0    Cl79290  11.156   1.513  10.087  0.1337 -0.2691 -0.2596
  588MOL0     C79291  10.468   1.930   9.302  0.6263 -0.0317 -0.4242
  588MOL0     C79292  10.365   1.908   9.216 -0.7105 -0.4286 -0.6180
  588MOL0     O79293  10.208   1.577   9.044 -0.1459  0.7398  0.7606
  588MOL0     C79294  10.010   1.809   8.879  0.4550  0.7279 -0.0395
  588MOL0     C79295   9.891   1.810   8.802 -0.2914 -0.4721 -0.6796
  588MOL0     N79296   9.155   1.992   8.662 -0.3366 -0.1795 -0.6782
  588MOL0     N79297   9.064   2.082   8.674 -0.2619 -0.7378 -0.1971
  588MOL0     C79298   9.637   2.689   9.393 -0.2795  0.2012 -0.2790
  588MOL0     C79299   9.761   2.765   9.386 -0.0419  0.0566  0.7073
  588MOL0     C79300  10.052   3.068   9.213  0.2624 -0.6915 -1.0220
  588MOL0     C79301  10.141   3.070   9.107 -0.2315 -0.3979  1.6071
  588MOL0     C79302  10.253   3.143   9.101  0.1562 -1.0553 -0.0507
  588MOL0     C79303  10.273   3.236   9.203 -0.0905 -0.0722 -0.7547
  588MOL0     O79304  10.376   3.320   9.195 -0.4234  0.7357 -0.3694
  588MOL0     C79305  10.345   3.446   9.130 -0.1689 -0.1283 -0.1895
  588MOL0     C79306  10.400   3.575   9.192  0.1939  0.8971 -0.2449
  588MOL0     C79307  10.400   3.690   9.098 -0.4030 -0.2362 -0.1113
  588MOL0     C79308  10.524   3.783   9.120 -0.5590  0.2674  0.3775
  588MOL0     C79309  10.506   3.912   9.056  0.8262 -0.5267 -0.9851
  588MOL0     C79310  10.479   4.025   9.014  0.1748 -0.4795 -0.1108
  588MOL0     C79311  10.188   3.232   9.313  0.6629  0.7477 -0.1985
  588MOL0     C79312  10.070   3.154   9.323 -0.3108  0.0448  0.9398
  588MOL0     H79313   9.622   3.076   9.346 -1.4074 -0.7821 -4.1569
  588MOL0     H79314   9.416   2.957   9.387 -0.3702  0.1220  0.9528
  588MOL0     H79315   9.427   2.561   9.257  2.3493  3.4430  1.4163
  588MOL0     H79316   9.410   2.489   9.422 -2.0235 -1.3123 -0.2280
  588MOL0     H79317   9.197   2.422   9.350 -1.3812 -0.4555  0.3029
  588MOL0     H79318   9.176   2.576   9.426  4.4295 -0.2955  1.4316
  588MOL0     H79319   9.080   2.663   9.217 -0.3921  0.0048 -0.0418
  588MOL0     H79320   9.254   2.663   9.177  1.6531 -2.4526  1.2080
  588MOL0     H79321   9.224   2.430   9.088  1.2040  0.7830  2.0464
  588MOL0     H79322   9.062   2.430   9.145  0.2948 -1.3112 -1.6226
  588MOL0     H79323   9.032   2.648   8.987 -0.3957 -1.1270  1.2397
  588MOL0     H79324   9.185   2.598   8.925  0.2671 -2.2309 -1.3957
  588MOL0     H79325   8.937   2.434   8.894  1.5922 -0.2924  1.0356
  588MOL0     H79326   8.989   2.557   8.780 -1.5284 -2.9090 -2.5379
  588MOL0     H79327   9.207   2.436   8.751 -0.4485 -0.9394 -0.1741
  588MOL0     H79328   9.137   2.312   8.853 -0.6214 -0.6926 -0.8359
  588MOL0     H79329   9.053   2.393   8.585  0.2842 -1.1129 -2.1334
  588MOL0     H79330   8.947   2.289   8.696  0.6234 -0.4486  1.1755
  588MOL0     H79331   9.315   2.239   8.532  0.0098  0.2884 -0.2017
  588MOL0     H79332   9.352   1.874   8.509  0.0004  0.8569 -1.5906
  588MOL0     H79333   9.450   2.011   8.491  2.0166 -0.9796  0.8519
  588MOL0     H79334   9.424   1.972   8.781 -1.3669 -2.1097  1.1827
  588MOL0     H79335   9.569   1.947   8.682  0.0737  0.9897 -1.9009
  588MOL0     H79336   9.428   1.711   8.630 -1.9665 -1.7444  2.1312
  588MOL0     H79337   9.349   1.766   8.775  0.8675  0.4491  2.2866
  588MOL0     H79338   9.527   1.607   8.812 -0.1091  0.5024  0.4261
  588MOL0     H79339   9.559   1.752   8.902  0.5230  0.4813 -0.3854
  588MOL0     H79340   9.743   1.523   8.890 -0.5580  1.4570  1.7337
  588MOL0     H79341  10.015   1.480   9.127  0.3406 -1.2874 -0.8355
  588MOL0     H79342   9.855   1.425   9.104  1.9689 -1.4555  0.9896
  588MOL0     H79343   9.970   1.379   8.976  1.3427 -0.5884 -0.7568
  588MOL0     H79344  10.300   1.588   9.277 -1.3650 -0.1303  0.1026
  588MOL0     H79345  10.504   1.606   9.404 -0.3644  0.2382  0.5663
  588MOL0     H79346  10.534   1.751   9.600  0.7401 -0.8723  1.2460
  588MOL0     H79347  10.684   1.683   9.560 -1.5701 -0.2446 -2.3951
  588MOL0     H79348  10.623   1.957   9.686 -2.3598 -0.5489 -0.6685
  588MOL0     H79349  10.654   1.812   9.785 -0.6963  1.8059  0.6002
  588MOL0     H79350  10.859   1.938   9.601 -1.6340  1.3980 -0.3700
  588MOL0     H79351  10.883   1.786   9.681  2.6036  0.7093 -2.1830
  588MOL0     H79352  10.830   2.050   9.830 -1.2482 -0.3040 -0.6742
  588MOL0     H79353  10.813   1.900   9.907  1.4097 -1.3552 -0.2676
  588MOL0     H79354  11.051   1.991   9.944  0.7263  1.1041 -1.2862
  588MOL0     H79355  11.061   2.005   9.764 -3.3449  4.0322  0.9012
  588MOL0     H79356  11.089   1.768   9.745  1.8238 -0.6890 -0.3807
  588MOL0     H79357  11.199   1.822   9.875 -0.3610  0.7659 -1.2432
  588MOL0     H79358  10.928   1.701   9.918 -0.9740  2.6711  1.2458
  588MOL0     H79359  11.047   1.758  10.034 -3.2064  0.6197 -1.1560
  588MOL0     H79360  11.198   1.578   9.867  0.9862 -0.7454  1.2291
  588MOL0     H79361  11.031   1.499   9.887  0.2212  0.2047  1.6572
  588MOL0     H79362  10.513   2.028   9.317  0.1897  0.2856 -1.1655
  588MOL0     H79363  10.308   1.985   9.164 -3.1844 -2.3257 -0.9297
  588MOL0     H79364  10.084   1.887   8.868  1.8279 -0.8122 -2.9948
  588MOL0     H79365   9.879   1.895   8.735  0.1542  0.1150 -0.0372
  588MOL0     H79366   9.640   2.580   9.390  0.9223  0.2283 -3.2257
  588MOL0     H79367   9.857   2.716   9.389  0.1186  0.3215  0.0835
  588MOL0     H79368  10.129   2.999   9.026  2.8038 -1.5700  2.0662
  588MOL0     H79369  10.305   3.142   9.006 -1.1689 -1.6362 -0.7985
  588MOL0     H79370  10.375   3.438   9.025 -1.8256 -0.1933 -0.6835
  588MOL0     H79371  10.239   3.468   9.110 -0.3623 -0.9693 -0.1223
  588MOL0     H79372  10.499   3.564   9.236 -0.7486 -1.0289  1.6136
  588MOL0     H79373  10.332   3.598   9.275  0.8121  1.4618  0.1102
  588MOL0     H79374  10.313   3.754   9.115  0.0225  0.3091  0.0713
  588MOL0     H79375  10.400   3.653   8.995 -0.3720  0.2877 -0.3029
  588MOL0     H79376  10.621   3.742   9.089 -0.5369  0.5614  0.0381
  588MOL0     H79377  10.527   3.806   9.227  1.5467  1.9017  0.0514
  588MOL0     H79378  10.467   4.131   9.005 -0.2679 -0.2182  2.5759
  588MOL0     H79379  10.203   3.303   9.394 -3.8133  2.7267 -0.8184
  588MOL0     H79380  10.012   3.154   9.415  0.4846  0.3988  1.4523
  589MOL0     O79381   3.231   7.564   4.786  0.1288  0.2407 -0.2679
  589MOL0     C79382   3.205   7.677   4.828 -1.0604  0.1898 -0.3040
  589MOL0     O79383   3.253   7.803   4.779 -0.2696 -0.6082 -0.7636
  589MOL0     C79384   3.314   7.820   4.654 -0.4079  0.1467  0.1688
  589MOL0     C79385   3.280   7.942   4.585  0.6339 -0.2561 -0.3901
  589MOL0     C79386   3.367   7.968   4.470 -0.4883  1.3429 -0.5152
  589MOL0     C79387   3.468   7.877   4.425  0.3980  0.1336  0.3277
  589MOL0     O79388   3.547   7.915   4.322  0.1003 -0.2945  0.0654
  589MOL0     C79389   3.507   7.860   4.198  0.4134 -1.3305  0.1112
  589MOL0     C79390   3.559   7.961   4.089 -0.5233 -0.4788 -0.5968
  589MOL0     C79391   3.470   8.081   4.081 -0.7320 -0.9722  0.6363
  589MOL0     C79392   3.534   8.215   4.014 -0.7519  0.2785 -1.0071
  589MOL0     C79393   3.447   8.336   4.005  0.0724 -0.1521 -0.7701
  589MOL0     C79394   3.341   8.316   3.896 -0.9196 -1.6723 -0.4691
  589MOL0     C79395   3.387   8.376   3.758  0.1894  0.5765  0.4856
  589MOL0     C79396   3.352   8.525   3.747 -0.2831 -0.2474 -0.3420
  589MOL0     N79397   3.419   8.590   3.634 -0.5333  0.4479 -0.5174
  589MOL0     C79398   3.514   8.688   3.637  0.1284  0.0181 -0.4258
  589MOL0     C79399   3.527   8.724   3.510  0.5974 -0.6015  0.2178
  589MOL0     C79400   3.641   8.816   3.465 -0.4240  0.1863  0.0746
  589MOL0     C79401   3.627   8.893   3.337 -0.0068  0.0528  0.7245
  589MOL0     C79402   3.490   8.975   3.341 -0.2494 -0.0427  0.9987
  589MOL0     C79403   3.496   9.092   3.239  0.0132  0.1874  0.9640
  589MOL0     O79404   3.476   9.031   3.108 -0.1105 -0.2160 -0.1739
  589MOL0     C79405   3.483   9.105   2.992  0.5092 -0.0278  0.3091
  589MOL0     C79406   3.467   9.247   2.985  0.3457  0.2518 -0.1866
  589MOL0     C79407   3.475   9.320   2.862  1.0774  0.4922 -0.1787
  589MOL0     C79408   3.452   9.473   2.876  0.2963 -0.1870 -0.1667
  589MOL0     C79409   3.479   9.241   2.739  0.0283 -0.3834  0.1743
  589MOL0     C79410   3.480   9.303   2.607  0.1862  0.3951  0.4732
  589MOL0     O79411   3.521   9.228   2.499 -0.4611  0.6649  0.0597
  589MOL0     C79412   3.520   9.269   2.370 -1.3395 -0.0569  0.8508
  589MOL0     C79413   3.601   9.189   2.291 -0.5486 -0.0442 -0.1574
  589MOL0     C79414   3.617   9.210   2.150 -0.4148  0.0281  0.3409
  589MOL0     C79415   3.538   9.312   2.090 -0.3819  0.6835 -0.3940
  589MOL0     O79416   3.538   9.312   1.949  0.6403 -0.3357 -0.0383
  589MOL0     C79417   3.402   9.295   1.894  0.7540 -0.4894 -0.4449
  589MOL0     C79418   3.391   9.359   1.755 -0.4963 -0.5816 -0.5689
  589MOL0     C79419   3.368   9.513   1.763  0.2734  0.3341 -0.3750
  589MOL0     C79420   3.309   9.561   1.628 -1.0715  0.2539  0.6267
  589MOL0     C79421   3.311   9.716   1.622 -0.2521 -0.3360  1.0020
  589MOL0     C79422   3.235   9.775   1.496 -0.0267 -1.0826 -0.4840
  589MOL0     C79423   3.212   9.930   1.501 -0.0667 -0.6539  0.4531
  589MOL0     C79424   3.135   9.994   1.382 -0.2345  0.3973  0.1091
  589MOL0    Cl79425   3.208   9.957   1.228  0.0307  0.2432  0.6480
  589MOL0     C79426   3.460   9.393   2.169 -0.5460 -0.4413  0.8908
  589MOL0     C79427   3.451   9.372   2.304 -0.7471 -0.2901 -1.0260
  589MOL0     O79428   3.434   9.416   2.600 -0.3534  0.2162  0.6136
  589MOL0     C79429   3.485   9.103   2.741  1.0819  0.6305 -0.7776
  589MOL0     C79430   3.472   9.035   2.865 -0.2978 -0.1843 -0.4665
  589MOL0     N79431   3.440   8.649   3.422  0.1769  0.5151  0.3023
  589MOL0     N79432   3.378   8.565   3.504 -0.3087 -0.2604  0.5331
  589MOL0     C79433   3.484   7.760   4.496  0.3591 -0.1185 -0.8117
  589MOL0     C79434   3.415   7.730   4.610  0.5181  0.3428 -0.2333
  589MOL0     C79435   3.098   7.686   4.929 -0.5312  0.2520  0.2046
  589MOL0     C79436   3.084   7.805   5.003 -0.4798 -0.1436 -0.3695
  589MOL0     C79437   2.993   7.820   5.114  0.6864 -0.7216 -0.5725
  589MOL0     C79438   2.914   7.710   5.152 -0.0381  1.1226  0.0698
  589MOL0     O79439   2.834   7.694   5.265  0.0009 -0.1256  0.6380
  589MOL0     C79440   2.823   7.804   5.353 -0.6975 -0.8928  0.4464
  589MOL0     C79441   2.724   7.781   5.470  0.1806  0.4860 -1.1882
  589MOL0     C79442   2.763   7.646   5.536  0.3570 -1.0715 -0.2329
  589MOL0     C79443   2.906   7.638   5.585  0.3729  0.6132 -0.8944
  589MOL0     C79444   2.931   7.516   5.665  0.1065 -0.0185 -0.1488
  589MOL0     C79445   2.943   7.427   5.741  0.1566  0.1479 -1.5699
  589MOL0     C79446   2.901   7.592   5.059  0.0038 -1.0183  0.6022
  589MOL0     C79447   2.994   7.585   4.949 -0.3943 -0.6835  1.0997
  589MOL0     H79448   3.207   8.008   4.630  3.2642  0.9920  2.4171
  589MOL0     H79449   3.347   8.062   4.419 -5.1866  0.6672 -0.3226
  589MOL0     H79450   3.559   7.764   4.191  2.3000 -0.5700  2.3115
  589MOL0     H79451   3.401   7.836   4.189 -0.0230  0.8928 -2.0436
  589MOL0     H79452   3.660   7.997   4.110 -0.2664 -1.4951 -0.0406
  589MOL0     H79453   3.559   7.905   3.995 -1.0103  2.1283 -2.2673
  589MOL0     H79454   3.372   8.060   4.037 -1.9318  4.5651 -0.0660
  589MOL0     H79455   3.446   8.116   4.182 -1.3360  0.4926  0.0088
  589MOL0     H79456   3.611   8.252   4.082  2.5855  0.8342 -4.6925
  589MOL0     H79457   3.582   8.184   3.921  2.2498  0.3112  0.4386
  589MOL0     H79458   3.393   8.343   4.100 -3.7376  0.5488 -2.7899
  589MOL0     H79459   3.492   8.434   3.986  0.0378  0.1554  0.5934
  589MOL0     H79460   3.330   8.208   3.877  1.4188 -1.6346 -2.6728
  589MOL0     H79461   3.242   8.358   3.911 -0.2717  0.2784 -1.3587
  589MOL0     H79462   3.496   8.367   3.766  0.4894  2.9608 -0.0959
  589MOL0     H79463   3.351   8.315   3.675 -1.0864  1.2180  0.5506
  589MOL0     H79464   3.380   8.568   3.844  0.0927 -0.8435 -0.1828
  589MOL0     H79465   3.247   8.550   3.731  0.5432  4.1415 -0.3187
  589MOL0     H79466   3.578   8.720   3.718 -4.5160  0.1665  3.6599
  589MOL0     H79467   3.651   8.896   3.539 -3.9138  0.6308  0.2066
  589MOL0     H79468   3.739   8.767   3.462 -0.7723 -0.5252  0.1315
  589MOL0     H79469   3.618   8.820   3.256  0.4513 -0.3467  1.0274
  589MOL0     H79470   3.712   8.960   3.316  0.0563 -0.6935 -1.7528
  589MOL0     H79471   3.483   9.014   3.443 -1.0555 -0.0462  0.9590
  589MOL0     H79472   3.406   8.905   3.337  2.6937 -4.1367  3.1696
  589MOL0     H79473   3.593   9.142   3.241 -0.1302  0.4976  0.3580
  589MOL0     H79474   3.420   9.163   3.271 -0.8039 -0.5301  0.6727
  589MOL0     H79475   3.457   9.299   3.080 -0.4813  0.3172 -0.3103
  589MOL0     H79476   3.445   9.508   2.979 -4.6784  1.4139 -0.7832
  589MOL0     H79477   3.534   9.533   2.834 -0.1572 -0.2040 -1.1102
  589MOL0     H79478   3.361   9.507   2.826  2.0599 -0.1825 -3.7689
  589MOL0     H79479   3.656   9.110   2.341  1.4314  0.4716 -1.3821
  589MOL0     H79480   3.678   9.132   2.103 -0.9629 -1.7658  2.4454
  589MOL0     H79481   3.377   9.190   1.875 -1.2684 -0.3696  1.1312
  589MOL0     H79482   3.321   9.334   1.957 -0.4593 -3.2175 -0.1580
  589MOL0     H79483   3.481   9.341   1.696  0.2559  0.4330  0.2257
  589MOL0     H79484   3.320   9.313   1.686 -1.2471  1.1779 -1.0224
  589MOL0     H79485   3.460   9.562   1.794  1.3120 -1.2699 -0.7503
  589MOL0     H79486   3.295   9.536   1.840 -1.4805  1.7996 -2.3734
  589MOL0     H79487   3.373   9.522   1.549  0.3139 -0.8410  2.2286
  589MOL0     H79488   3.208   9.520   1.623 -0.5506 -1.0364  0.1989
  589MOL0     H79489   3.413   9.753   1.637  0.2524 -0.6432 -1.3216
  589MOL0     H79490   3.251   9.750   1.707  0.0471  0.5157  0.8791
  589MOL0     H79491   3.310   9.752   1.419  0.6435  0.7482 -0.4229
  589MOL0     H79492   3.139   9.725   1.478 -0.2176 -0.4547 -1.2385
  589MOL0     H79493   3.299   9.991   1.523  0.7382 -0.7714 -2.0382
  589MOL0     H79494   3.149   9.942   1.589 -1.1733  1.0865 -0.5147
  589MOL0     H79495   3.128  10.100   1.408  3.4495  0.4276  1.5744
  589MOL0     H79496   3.036   9.950   1.368 -0.4498  0.6876  0.6904
  589MOL0     H79497   3.407   9.472   2.117 -0.4075 -0.1915  1.1285
  589MOL0     H79498   3.393   9.446   2.357  0.5354 -0.7840  1.2210
  589MOL0     H79499   3.472   9.041   2.654 -0.8772  0.8186 -0.6610
  589MOL0     H79500   3.454   8.928   2.860  1.8534 -0.5410 -1.7250
  589MOL0     H79501   3.563   7.694   4.461  0.7409 -0.0897 -0.0375
  589MOL0     H79502   3.433   7.637   4.663 -2.2029 -1.0146 -1.4834
  589MOL0     H79503   3.156   7.884   4.987  0.5570 -1.1262 -0.7231
  589MOL0     H79504   2.995   7.913   5.171  3.9141 -0.8243 -0.3421
  589MOL0     H79505   2.918   7.845   5.388 -0.3600 -2.9382  2.1228
  589MOL0     H79506   2.772   7.882   5.295 -0.1016 -1.5234 -0.9825
  589MOL0     H79507   2.620   7.774   5.437 -1.1523  0.6043  2.5340
  589MOL0     H79508   2.723   7.857   5.548 -1.5350  1.5503 -2.1943
  589MOL0     H79509   2.721   7.562   5.480  0.0076 -0.9935 -0.0855
  589MOL0     H79510   2.701   7.650   5.626  0.9687 -0.0139  0.1727
  589MOL0     H79511   2.924   7.717   5.659 -0.4696 -0.1831  0.1954
  589MOL0     H79512   2.978   7.637   5.502 -2.1925 -2.4600 -3.3536
  589MOL0     H79513   2.946   7.340   5.804 -1.3109  1.5064  0.4589
  589MOL0     H79514   2.825   7.519   5.083  1.3008 -2.7724 -0.3794
  589MOL0     H79515   3.001   7.499   4.883 -0.6721  1.2483 -1.6284
  590MOL0     O79516   4.865   9.221   0.962  0.1159  0.3813 -0.1249
  590MOL0     C79517   4.815   9.243   0.855  0.3142 -0.1261  0.5680
  590MOL0     O79518   4.834   9.176   0.746  0.4095 -0.1745 -0.6787
  590MOL0     C79519   4.928   9.093   0.723 -0.4470  0.9448 -0.8075
  590MOL0     C79520   4.906   8.958   0.710  0.1915 -0.6164  0.9819
  590MOL0     C79521   5.005   8.865   0.690  0.4850 -0.9890 -0.9133
  590MOL0     C79522   5.133   8.915   0.676 -0.2342  0.1926 -0.1817
  590MOL0     O79523   5.241   8.829   0.641 -0.2446 -0.4070  0.1984
  590MOL0     C79524   5.352   8.878   0.558 -0.5057  0.3256  0.4768
  590MOL0     C79525   5.471   8.799   0.613 -1.1805 -0.5461  0.1377
  590MOL0     C79526   5.599   8.813   0.523 -0.5543 -0.9315  0.0227
  590MOL0     C79527   5.577   8.705   0.418 -0.4512 -0.3945 -0.9660
  590MOL0     C79528   5.671   8.717   0.295  0.2641 -0.8085 -0.1936
  590MOL0     C79529   5.823   8.719   0.320  0.2521 -0.1188  0.0463
  590MOL0     C79530   5.882   8.786   0.189 -0.9627  0.5953  0.5865
  590MOL0     C79531   6.030   8.780   0.208 -0.1616 -0.4684  0.1935
  590MOL0     N79532   6.093   8.646   0.194  0.6342 -0.3065 -0.0745
  590MOL0     C79533   6.121   8.580   0.070  0.3834  0.1916 -0.7422
  590MOL0     C79534   6.169   8.460   0.099  0.3406  0.4853 -0.2826
  590MOL0     C79535   6.203   8.352  -0.011 -0.3217  0.1192 -0.6165
  590MOL0     C79536   6.122   8.223   0.023 -0.2149  0.5411  0.1119
  590MOL0     C79537   6.113   8.115  -0.086 -0.1480 -0.3282  0.5001
  590MOL0     C79538   6.016   8.155  -0.207 -0.2846 -0.1334  1.1194
  590MOL0     O79539   5.890   8.198  -0.160  0.2306  0.0459 -0.0436
  590MOL0     C79540   5.818   8.277  -0.250  0.6762 -0.2303  0.4942
  590MOL0     C79541   5.723   8.226  -0.342  0.8319  0.5093  0.6031
  590MOL0     C79542   5.650   8.306  -0.429 -0.1114  0.1557 -0.2524
  590MOL0     C79543   5.571   8.242  -0.538  0.2517 -0.5580  0.4087
  590MOL0     C79544   5.653   8.450  -0.414  1.2018  0.3751 -1.0536
  590MOL0     C79545   5.558   8.550  -0.483 -1.1917 -0.1630  0.6100
  590MOL0     O79546   5.534   8.671  -0.419 -0.0626  0.8164 -0.7916
  590MOL0     C79547   5.477   8.775  -0.484  0.4118  0.9852  0.3419
  590MOL0     C79548   5.539   8.844  -0.590 -0.2391  0.7419  0.8359
  590MOL0     C79549   5.474   8.965  -0.640  0.5445  0.2991  0.0635
  590MOL0     C79550   5.355   9.019  -0.588  0.6131  0.0430 -0.2449
  590MOL0     O79551   5.279   9.129  -0.631 -0.5472 -0.5867  0.7010
  590MOL0     C79552   5.346   9.225  -0.717 -0.2638  0.0398  0.1570
  590MOL0     C79553   5.267   9.352  -0.755  0.4663  0.9802 -0.1705
  590MOL0     C79554   5.333   9.472  -0.811  0.2553  0.5054  0.0491
  590MOL0     C79555   5.239   9.592  -0.844  0.7024  0.6376  0.0290
  590MOL0     C79556   5.301   9.666  -0.961  0.3828 -0.2333 -0.7260
  590MOL0     C79557   5.203   9.782  -1.001  0.2258 -0.0038 -0.5563
  590MOL0     C79558   5.258   9.846  -1.134 -0.4311  0.0525 -0.2908
  590MOL0     C79559   5.162   9.927  -1.213  0.4986  0.4174  0.0580
  590MOL0    Cl79560   5.083  10.045  -1.102 -0.3403  0.5095 -0.2252
  590MOL0     C79561   5.293   8.940  -0.489 -0.1246  0.1974 -0.3560
  590MOL0     C79562   5.355   8.821  -0.433  0.6155  0.3491 -0.2289
  590MOL0     O79563   5.494   8.514  -0.579  0.2087 -0.2236 -0.3147
  590MOL0     C79564   5.745   8.494  -0.320 -0.1643  0.9090 -0.1734
  590MOL0     C79565   5.825   8.418  -0.244  1.1694  0.5193 -0.2444
  590MOL0     N79566   6.159   8.435   0.240  0.8640  0.2144 -0.0212
  590MOL0     N79567   6.110   8.551   0.291  0.2948  0.1465  0.8809
  590MOL0     C79568   5.156   9.053   0.703 -0.1215 -0.0446  0.0963
  590MOL0     C79569   5.055   9.138   0.732 -0.4043  0.3956 -0.7792
  590MOL0     C79570   4.723   9.361   0.852  1.2616  0.1122  0.6486
  590MOL0     C79571   4.692   9.430   0.971  0.5089  0.4638  0.3953
  590MOL0     C79572   4.593   9.538   0.975 -0.4551  0.0284 -0.4842
  590MOL0     C79573   4.541   9.582   0.857 -0.3688  0.1871 -0.0894
  590MOL0     O79574   4.453   9.688   0.867  0.3401  0.2714 -0.6410
  590MOL0     C79575   4.312   9.648   0.870 -0.1188  0.1666  1.0795
  590MOL0     C79576   4.233   9.691   0.746 -0.0930 -0.2110  0.5555
  590MOL0     C79577   4.239   9.842   0.712  0.0696 -0.4948 -0.6716
  590MOL0     C79578   4.384   9.885   0.686 -0.4518  0.9069  0.0656
  590MOL0     C79579   4.377  10.023   0.625 -0.1198 -0.4244 -0.2802
  590MOL0     C79580   4.390  10.138   0.586  0.4850  0.3353  0.7522
  590MOL0     C79581   4.573   9.519   0.740 -0.5957  1.0312 -0.1535
  590MOL0     C79582   4.660   9.407   0.737 -1.0697  0.3838  0.3754
  590MOL0     H79583   4.802   8.931   0.711  0.4143 -1.4855  2.4193
  590MOL0     H79584   4.982   8.761   0.668 -1.6111 -0.1039 -3.5546
  590MOL0     H79585   5.330   8.841   0.458  1.0167 -1.1419  0.6398
  590MOL0     H79586   5.365   8.987   0.562  4.0008 -0.0374  0.8691
  590MOL0     H79587   5.516   8.840   0.705  5.3430  2.8415 -3.8149
  590MOL0     H79588   5.446   8.696   0.640 -0.5166 -1.0096 -0.9561
  590MOL0     H79589   5.608   8.909   0.472  1.0157 -0.0051  1.9502
  590MOL0     H79590   5.684   8.811   0.591 -1.2882  5.0444  1.6928
  590MOL0     H79591   5.590   8.610   0.471 -0.5314  0.8264  1.3702
  590MOL0     H79592   5.471   8.703   0.390 -0.3750 -1.6025 -1.2378
  590MOL0     H79593   5.649   8.634   0.228 -0.2451 -1.1189  0.3503
  590MOL0     H79594   5.640   8.812   0.249  1.4447 -0.7554 -0.9054
  590MOL0     H79595   5.846   8.787   0.403 -1.0884  1.4505 -0.7895
  590MOL0     H79596   5.866   8.622   0.347  0.7648  0.9493  3.5922
  590MOL0     H79597   5.849   8.738   0.096 -0.8809  0.0221  0.8455
  590MOL0     H79598   5.853   8.891   0.194  2.8102  1.7523  1.1353
  590MOL0     H79599   6.049   8.819   0.308  2.5633  0.2632 -0.5421
  590MOL0     H79600   6.083   8.843   0.136  1.3845  0.9662  2.4880
  590MOL0     H79601   6.118   8.628  -0.027  2.5002  0.1739 -0.8611
  590MOL0     H79602   6.178   8.382  -0.114  1.7801  0.9074 -0.9497
  590MOL0     H79603   6.308   8.322  -0.011  0.3404  2.1679  1.8486
  590MOL0     H79604   6.019   8.246   0.053 -0.3590 -2.3116  2.2297
  590MOL0     H79605   6.171   8.183   0.112  0.5527  2.8375  0.8056
  590MOL0     H79606   6.062   8.028  -0.044  0.2964 -0.6065  0.4619
  590MOL0     H79607   6.212   8.088  -0.123 -0.3902  0.5238 -0.8517
  590MOL0     H79608   6.002   8.071  -0.276 -0.1457  1.6938 -1.2829
  590MOL0     H79609   6.061   8.228  -0.275 -1.2354  1.4704  2.1337
  590MOL0     H79610   5.721   8.121  -0.366  0.9077  0.9792 -1.6505
  590MOL0     H79611   5.558   8.134  -0.523 -2.7842 -0.8005 -2.6265
  590MOL0     H79612   5.473   8.287  -0.557  1.4596  1.5773 -1.2207
  590MOL0     H79613   5.637   8.250  -0.625 -0.8150 -0.8257 -0.4618
  590MOL0     H79614   5.638   8.815  -0.622 -0.0976  1.9787  0.0761
  590MOL0     H79615   5.530   9.021  -0.714 -0.4975 -0.3531 -1.2645
  590MOL0     H79616   5.445   9.250  -0.678  2.1917 -2.3268 -3.8233
  590MOL0     H79617   5.374   9.171  -0.808  2.6395 -1.2252  1.6598
  590MOL0     H79618   5.180   9.321  -0.814  1.5286 -1.3220 -0.6312
  590MOL0     H79619   5.228   9.375  -0.656  0.7891 -0.1125  0.2173
  590MOL0     H79620   5.377   9.439  -0.905 -0.3615 -1.9146  0.5447
  590MOL0     H79621   5.422   9.504  -0.757  1.6749  0.4749 -2.1731
  590MOL0     H79622   5.137   9.558  -0.866  1.7742 -2.2485 -0.8669
  590MOL0     H79623   5.226   9.653  -0.754  2.4946  0.1440  0.6687
  590MOL0     H79624   5.322   9.596  -1.042  2.2972 -1.1220  0.4646
  590MOL0     H79625   5.402   9.694  -0.932  0.5070 -1.5730  0.2543
  590MOL0     H79626   5.108   9.730  -1.009  0.0230 -0.1723  2.0047
  590MOL0     H79627   5.194   9.862  -0.927 -1.2020 -0.8551  0.2212
  590MOL0     H79628   5.305   9.774  -1.201  1.5891  2.4620 -1.6555
  590MOL0     H79629   5.339   9.916  -1.109 -1.7547  1.7226 -0.5116
  590MOL0     H79630   5.087   9.870  -1.269  1.2721  1.8569 -2.6266
  590MOL0     H79631   5.225   9.976  -1.288  1.3228 -1.1437 -0.3176
  590MOL0     H79632   5.195   8.972  -0.455 -0.8108  0.1186 -2.1436
  590MOL0     H79633   5.312   8.767  -0.349  1.2195  1.7399  1.0354
  590MOL0     H79634   5.746   8.599  -0.292  2.0801  0.9118 -0.1211
  590MOL0     H79635   5.891   8.473  -0.177  1.7520  0.0163 -0.3994
  590MOL0     H79636   5.258   9.089   0.704 -1.0425  2.8185  1.8761
  590MOL0     H79637   5.080   9.241   0.751  3.0070 -0.1962 -1.3337
  590MOL0     H79638   4.745   9.424   1.066  0.3239  1.0111  0.5369
  590MOL0     H79639   4.570   9.585   1.069 -0.7452 -1.3368  0.1532
  590MOL0     H79640   4.298   9.542   0.891  0.9269 -0.5775 -1.5761
  590MOL0     H79641   4.268   9.714   0.945 -0.2873 -1.2437  2.2707
  590MOL0     H79642   4.131   9.659   0.771  0.5512 -1.0310  2.2177
  590MOL0     H79643   4.258   9.643   0.651  0.1785  3.1537 -1.2548
  590MOL0     H79644   4.198   9.900   0.794  1.2111  0.1106 -0.5058
  590MOL0     H79645   4.173   9.873   0.630 -2.2063  0.0341  1.2699
  590MOL0     H79646   4.430   9.817   0.614  1.1510 -0.2004  2.0106
  590MOL0     H79647   4.446   9.901   0.775  0.0731 -2.4975  0.4342
  590MOL0     H79648   4.408  10.241   0.562 -1.5230  0.7833  1.0231
  590MOL0     H79649   4.526   9.551   0.648 -1.7028  1.7837  0.6425
  590MOL0     H79650   4.685   9.356   0.645  1.4520  2.1483 -0.0079
  591MOL0     O79651   2.463   7.935   7.789  0.3023  0.0538  0.2289
  591MOL0     C79652   2.448   7.818   7.761 -0.0271  0.1221 -1.3293
  591MOL0     O79653   2.549   7.723   7.773 -0.2228 -0.8360 -0.6014
  591MOL0     C79654   2.659   7.772   7.850 -0.0951 -0.1513  0.3758
  591MOL0     C79655   2.786   7.792   7.785 -0.7346  0.1884 -0.1634
  591MOL0     C79656   2.897   7.827   7.855  0.2191 -0.0789 -0.4973
  591MOL0     C79657   2.895   7.840   7.995  0.9652  1.4404  0.2301
  591MOL0     O79658   3.004   7.864   8.079 -0.4078  0.2421  0.3622
  591MOL0     C79659   3.121   7.936   8.021  0.0147 -0.0968 -0.0538
  591MOL0     C79660   3.221   7.835   7.958 -1.4257 -0.1659  0.3332
  591MOL0     C79661   3.260   7.719   8.051  0.8389  0.0527  0.0915
  591MOL0     C79662   3.321   7.774   8.174  0.7205  0.2375 -0.1923
  591MOL0     C79663   3.382   7.649   8.258  1.0094 -0.5599  0.0176
  591MOL0     C79664   3.433   7.677   8.404 -0.6022 -0.0838  1.4542
  591MOL0     C79665   3.358   7.778   8.490 -0.7119  0.3990  0.4876
  591MOL0     C79666   3.419   7.789   8.631 -0.5625 -0.6068  0.4477
  591MOL0     N79667   3.541   7.879   8.633 -0.1705 -0.6123  0.3245
  591MOL0     C79668   3.652   7.843   8.571 -0.1898 -0.1667 -0.2912
  591MOL0     C79669   3.726   7.954   8.556 -0.3094  0.2072 -0.1966
  591MOL0     C79670   3.859   7.949   8.498 -0.3071  0.7260  0.0245
  591MOL0     C79671   3.960   7.926   8.604 -0.4561  0.2215 -0.0333
  591MOL0     C79672   3.980   8.040   8.704 -0.0249 -0.4782  0.6664
  591MOL0     C79673   4.104   8.013   8.789  0.8887  0.4874 -0.3460
  591MOL0     O79674   4.093   7.883   8.848  0.1008 -0.1279  0.2557
  591MOL0     C79675   4.196   7.852   8.933  0.1208  0.8072  0.0497
  591MOL0     C79676   4.187   7.741   9.008  0.9991  0.2856  0.1497
  591MOL0     C79677   4.299   7.689   9.078  0.7692 -1.1089 -1.6649
  591MOL0     C79678   4.270   7.567   9.150 -0.6293 -0.0339  0.4343
  591MOL0     C79679   4.427   7.738   9.066  0.1051 -0.4874 -0.2975
  591MOL0     C79680   4.547   7.670   9.105 -0.1685 -0.4296 -0.2994
  591MOL0     O79681   4.664   7.720   9.059 -0.0563  0.2116  0.5907
  591MOL0     C79682   4.757   7.623   9.023 -0.1137 -0.2768  0.0935
  591MOL0     C79683   4.872   7.602   9.106  0.3743  0.5707 -0.5220
  591MOL0     C79684   4.949   7.490   9.077  0.8074 -0.9354 -0.5514
  591MOL0     C79685   4.926   7.423   8.960  0.3453  0.0822  0.8319
  591MOL0     O79686   5.004   7.318   8.912 -0.5630 -0.1355  0.4604
  591MOL0     C79687   5.065   7.349   8.785 -0.1359  0.5795 -0.9979
  591MOL0     C79688   5.149   7.224   8.734  0.0012 -0.1151  0.0086
  591MOL0     C79689   5.054   7.115   8.702  0.2939  0.2446  0.0958
  591MOL0     C79690   5.146   7.000   8.657 -0.2202 -0.3018  0.2031
  591MOL0     C79691   5.059   6.896   8.598  0.0423  1.1482 -0.0419
  591MOL0     C79692   5.139   6.757   8.581 -0.4938 -0.3575 -0.2231
  591MOL0     C79693   5.233   6.763   8.453  0.0345  0.0199 -0.5887
  591MOL0     C79694   5.318   6.636   8.419 -0.2805  0.7217 -0.3506
  591MOL0    Cl79695   5.364   6.540   8.565  0.1191 -0.6442 -0.5238
  591MOL0     C79696   4.806   7.451   8.885 -0.5502 -0.2138 -0.3120
  591MOL0     C79697   4.723   7.545   8.919 -0.2233  0.5557 -0.1359
  591MOL0     O79698   4.537   7.570   9.175  0.4739  0.3586 -0.0794
  591MOL0     C79699   4.437   7.853   8.988  0.1873 -0.9326 -0.2774
  591MOL0     C79700   4.326   7.907   8.920  0.2746  0.0549 -0.0882
  591MOL0     N79701   3.652   8.057   8.613  0.5694  0.8670 -0.5208
  591MOL0     N79702   3.545   8.018   8.653  0.3768 -0.2876 -0.6248
  591MOL0     C79703   2.771   7.821   8.060 -0.2604  1.0890 -0.6643
  591MOL0     C79704   2.662   7.792   7.986  0.6890  0.4509 -0.0197
  591MOL0     C79705   2.312   7.765   7.713  0.1037  0.2830  0.9923
  591MOL0     C79706   2.309   7.636   7.653  0.1904 -0.1336 -0.0542
  591MOL0     C79707   2.184   7.583   7.613 -0.5081  0.2301  0.7738
  591MOL0     C79708   2.070   7.659   7.632  0.6747  0.8720 -1.0761
  591MOL0     O79709   1.952   7.599   7.593  0.3822 -0.1107 -0.4764
  591MOL0     C79710   1.852   7.693   7.542 -0.4774  0.4739  0.2301
  591MOL0     C79711   1.746   7.625   7.467 -0.7614 -1.3559  0.2379
  591MOL0     C79712   1.654   7.551   7.555 -0.2632 -0.0633 -0.8284
  591MOL0     C79713   1.524   7.632   7.582  0.3156  0.5038 -0.5866
  591MOL0     C79714   1.457   7.565   7.698  0.1309 -0.0366  0.4796
  591MOL0     C79715   1.387   7.506   7.779 -0.4342 -0.2632 -0.2597
  591MOL0     C79716   2.084   7.790   7.699 -0.2898  0.0238  0.3171
  591MOL0     C79717   2.201   7.842   7.743 -0.0454 -0.5306 -0.5778
  591MOL0     H79718   2.768   7.778   7.678 -2.8001 -1.8443  0.3609
  591MOL0     H79719   2.985   7.845   7.795  0.3574 -0.9968 -0.5818
  591MOL0     H79720   3.092   8.009   7.945  1.3905  0.8210  0.2569
  591MOL0     H79721   3.164   7.982   8.110 -1.1682 -2.4006  1.8289
  591MOL0     H79722   3.179   7.790   7.868 -2.7861  0.3871  0.6674
  591MOL0     H79723   3.311   7.885   7.921 -2.0640  2.3972  2.0193
  591MOL0     H79724   3.167   7.666   8.070 -0.3628  1.8800 -0.3592
  591MOL0     H79725   3.331   7.644   8.014  1.6465  0.5519  0.5892
  591MOL0     H79726   3.394   7.851   8.150 -0.8130  2.0226  0.5897
  591MOL0     H79727   3.246   7.833   8.229  2.0080  2.1288 -0.3907
  591MOL0     H79728   3.302   7.574   8.265 -1.1893  1.7699  1.7355
  591MOL0     H79729   3.455   7.593   8.198 -0.6905 -2.3555 -0.4699
  591MOL0     H79730   3.447   7.582   8.457 -1.0883 -0.6783  0.5508
  591MOL0     H79731   3.532   7.719   8.384 -1.0110  1.2968  2.1839
  591MOL0     H79732   3.365   7.874   8.439  2.3907 -1.2010 -2.4518
  591MOL0     H79733   3.253   7.749   8.500 -0.1489 -2.1120 -0.1958
  591MOL0     H79734   3.441   7.693   8.678  2.2642  0.7973  2.2183
  591MOL0     H79735   3.343   7.833   8.697 -0.2834  2.6195 -1.1617
  591MOL0     H79736   3.676   7.741   8.544  0.2251 -0.8336  2.3506
  591MOL0     H79737   3.851   7.872   8.421 -3.7018  2.2325 -1.2969
  591MOL0     H79738   3.860   8.046   8.447 -4.8699  1.4347  0.8879
  591MOL0     H79739   4.045   7.922   8.535 -2.0261  1.5419 -2.1969
  591MOL0     H79740   3.944   7.834   8.661 -0.8263  0.2765 -0.0479
  591MOL0     H79741   3.887   8.047   8.760 -0.8072 -2.8353 -0.1937
  591MOL0     H79742   4.001   8.137   8.658  3.1317 -0.2112  2.4018
  591MOL0     H79743   4.117   8.088   8.867  0.0219 -0.0225  0.3062
  591MOL0     H79744   4.183   8.022   8.714  0.8540 -2.1231 -0.7886
  591MOL0     H79745   4.085   7.706   9.023  1.2249 -0.8890 -0.8220
  591MOL0     H79746   4.299   7.570   9.256 -2.7345  1.2018  1.0358
  591MOL0     H79747   4.161   7.556   9.156 -1.0780  3.4849  0.6433
  591MOL0     H79748   4.313   7.480   9.100  0.7209  0.9734 -0.2106
  591MOL0     H79749   4.878   7.681   9.181 -2.7994  1.2075 -0.7677
  591MOL0     H79750   5.024   7.460   9.149 -1.4045 -5.2817  0.3260
  591MOL0     H79751   4.994   7.391   8.713  0.5631  7.0550  1.3770
  591MOL0     H79752   5.139   7.430   8.786  0.5712  0.0990 -4.0067
  591MOL0     H79753   5.221   7.241   8.653 -1.2148 -0.6660 -1.2363
  591MOL0     H79754   5.205   7.192   8.823  0.0523 -2.6808 -0.8429
  591MOL0     H79755   4.983   7.152   8.627 -1.0742 -0.5720  0.9500
  591MOL0     H79756   4.999   7.081   8.790  2.4727 -1.1538  1.0006
  591MOL0     H79757   5.211   7.046   8.582 -1.2663  1.9440  0.5861
  591MOL0     H79758   5.213   6.965   8.736  1.4800 -2.3199 -1.9922
  591MOL0     H79759   5.015   6.920   8.501 -5.2998 -4.4284  0.3580
  591MOL0     H79760   4.969   6.873   8.656 -1.9537  4.5726 -1.4953
  591MOL0     H79761   5.195   6.724   8.669  0.1994 -1.3873 -1.0159
  591MOL0     H79762   5.069   6.674   8.563 -2.0147  1.2634 -2.2944
  591MOL0     H79763   5.309   6.838   8.481  1.7505 -0.5264 -3.4553
  591MOL0     H79764   5.182   6.802   8.365 -1.3492  1.2307  0.6790
  591MOL0     H79765   5.406   6.654   8.357  0.4550  1.3206  0.8346
  591MOL0     H79766   5.249   6.571   8.363 -0.2118  1.3306 -1.1572
  591MOL0     H79767   4.784   7.396   8.794  3.2916  0.7959 -2.0828
  591MOL0     H79768   4.632   7.557   8.861  0.2526  2.7023 -0.5409
  591MOL0     H79769   4.537   7.895   8.985  0.4527 -0.8861  3.7201
  591MOL0     H79770   4.361   7.975   8.843  1.2481 -1.4504 -1.0299
  591MOL0     H79771   2.767   7.841   8.167  0.8045 -0.9226 -0.2013
  591MOL0     H79772   2.566   7.788   8.036  1.5370  3.2014  2.1261
  591MOL0     H79773   2.399   7.580   7.629 -1.1776 -2.3308 -0.3336
  591MOL0     H79774   2.181   7.483   7.570 -1.3128 -0.6456  2.7481
  591MOL0     H79775   1.806   7.751   7.622  0.7939  0.6873  0.8187
  591MOL0     H79776   1.906   7.763   7.478 -0.8028 -1.2952 -2.1525
  591MOL0     H79777   1.795   7.547   7.408  1.0123 -1.5151  1.7964
  591MOL0     H79778   1.701   7.694   7.396 -0.1684 -0.9178  0.2742
  591MOL0     H79779   1.708   7.544   7.650 -0.6846  3.9196 -0.1104
  591MOL0     H79780   1.635   7.452   7.513 -1.1669 -0.1756 -0.1729
  591MOL0     H79781   1.462   7.637   7.492 -0.4382 -1.8486 -0.2684
  591MOL0     H79782   1.558   7.733   7.606  0.3306  0.5535 -0.8167
  591MOL0     H79783   1.329   7.471   7.862  3.0603  0.1280  2.5718
  591MOL0     H79784   1.998   7.853   7.718  0.5598  0.7884  1.8592
  591MOL0     H79785   2.183   7.932   7.801 -1.5739  0.4743 -2.4675
  592MOL0     O79786   5.643   4.321   1.395 -0.1180  0.6554 -0.3203
  592MOL0     C79787   5.556   4.376   1.463  0.7757 -0.5123 -0.1314
  592MOL0     O79788   5.539   4.367   1.589 -0.4787 -0.3237 -0.4061
  592MOL0     C79789   5.616   4.305   1.688  0.2054 -0.1758 -0.9929
  592MOL0     C79790   5.744   4.259   1.658 -0.3193  0.2159 -1.2189
  592MOL0     C79791   5.820   4.194   1.758 -0.9159 -0.3478 -0.3468
  592MOL0     C79792   5.788   4.195   1.894 -0.4099  0.1884  0.1636
  592MOL0     O79793   5.873   4.138   1.981  0.2990 -0.2693 -0.0412
  592MOL0     C79794   5.838   4.127   2.122  0.2305  0.1279 -0.6081
  592MOL0     C79795   5.777   3.992   2.151  0.3489  0.5291 -0.4691
  592MOL0     C79796   5.739   3.986   2.295  0.0054  1.2577  0.4333
  592MOL0     C79797   5.662   3.857   2.327  0.2291  0.0630  0.2947
  592MOL0     C79798   5.574   3.832   2.455  0.4599  0.2947 -0.9132
  592MOL0     C79799   5.459   3.934   2.461  0.2865  0.1980 -0.7489
  592MOL0     C79800   5.381   3.928   2.584  0.1203 -0.2299 -0.2010
  592MOL0     C79801   5.258   4.016   2.572  0.4772  0.1362  0.0597
  592MOL0     N79802   5.159   3.971   2.472 -0.0412  0.6821 -1.3368
  592MOL0     C79803   5.058   4.055   2.423  0.5894  0.1147 -0.2718
  592MOL0     C79804   4.969   3.972   2.368  0.5034  0.3860  0.7240
  592MOL0     C79805   4.845   3.997   2.295  0.3792 -0.1018 -0.3775
  592MOL0     C79806   4.859   3.952   2.147 -0.2332  0.5294  0.3031
  592MOL0     C79807   4.710   3.950   2.090 -0.3662 -0.1115  0.5796
  592MOL0     C79808   4.715   3.926   1.939 -0.1618 -0.8087 -0.2562
  592MOL0     O79809   4.804   4.019   1.867  0.7375 -0.1294  0.4411
  592MOL0     C79810   4.786   4.033   1.735  0.3941 -0.3603 -0.2767
  592MOL0     C79811   4.773   3.918   1.657 -0.1014 -0.9744 -1.1599
  592MOL0     C79812   4.761   3.934   1.520 -0.0767  0.7881  0.0493
  592MOL0     C79813   4.737   3.803   1.454  0.5252 -0.0581 -0.5890
  592MOL0     C79814   4.746   4.057   1.455 -0.6691 -0.3371 -0.9025
  592MOL0     C79815   4.722   4.087   1.311 -1.5321 -0.5483  1.1263
  592MOL0     O79816   4.754   4.219   1.268  0.6210  0.8767  0.0593
  592MOL0     C79817   4.765   4.260   1.140  1.2918 -0.6181  0.9924
  592MOL0     C79818   4.844   4.370   1.106  0.0270 -0.1382 -0.1613
  592MOL0     C79819   4.854   4.431   0.982  0.3139 -0.9284 -0.6978
  592MOL0     C79820   4.803   4.360   0.868  0.3646 -0.4514 -0.3688
  592MOL0     O79821   4.829   4.409   0.746  0.2670  0.0035  0.3225
  592MOL0     C79822   4.766   4.343   0.639 -0.2010 -0.5728 -0.2540
  592MOL0     C79823   4.781   4.421   0.511  0.5055  0.2131 -0.8636
  592MOL0     C79824   4.684   4.536   0.507 -0.0923  0.2955 -0.2590
  592MOL0     C79825   4.694   4.637   0.389 -0.8208 -0.5109 -0.3434
  592MOL0     C79826   4.657   4.575   0.257 -0.0891  0.0434  0.3208
  592MOL0     C79827   4.509   4.549   0.233 -0.7451 -0.2909  0.2277
  592MOL0     C79828   4.485   4.514   0.086 -0.3338 -0.1046 -0.6060
  592MOL0     C79829   4.363   4.422   0.060 -0.4861 -0.2084 -0.6360
  592MOL0    Cl79830   4.317   4.394  -0.110 -0.0900 -0.8643  0.0055
  592MOL0     C79831   4.734   4.242   0.900  0.2515 -0.3156 -0.0221
  592MOL0     C79832   4.707   4.202   1.030  0.9337 -0.7098  0.7813
  592MOL0     O79833   4.698   3.988   1.241 -0.8057 -0.4068  0.1108
  592MOL0     C79834   4.766   4.167   1.537 -0.5353 -0.0599 -1.0300
  592MOL0     C79835   4.795   4.163   1.676  0.7334 -0.0547 -0.2596
  592MOL0     N79836   5.020   3.847   2.389  0.4245  0.1559 -0.5836
  592MOL0     N79837   5.139   3.847   2.450  0.0312  0.9379 -0.1277
  592MOL0     C79838   5.666   4.260   1.926  0.4441  0.9167  1.0482
  592MOL0     C79839   5.586   4.309   1.822 -0.3454 -0.7792  0.1362
  592MOL0     C79840   5.466   4.474   1.397 -0.1845 -0.5172  0.1711
  592MOL0     C79841   5.392   4.571   1.463  0.0263 -0.7702 -0.1966
  592MOL0     C79842   5.315   4.669   1.397  0.1604 -0.2151 -0.5331
  592MOL0     C79843   5.336   4.680   1.256  0.1282 -0.9669 -0.0692
  592MOL0     O79844   5.281   4.786   1.173  0.4198  0.8533 -0.0359
  592MOL0     C79845   5.208   4.892   1.217 -0.3446 -0.4791 -0.2194
  592MOL0     C79846   5.066   4.850   1.252  0.1408  1.6717  0.0552
  592MOL0     C79847   4.980   4.812   1.124 -0.4498 -0.2349 -0.4206
  592MOL0     C79848   4.902   4.916   1.050 -0.2953 -0.4486  0.5679
  592MOL0     C79849   4.854   4.867   0.929 -0.7749 -0.3713  0.4365
  592MOL0     C79850   4.816   4.815   0.826 -0.7801 -0.8274  0.1111
  592MOL0     C79851   5.395   4.576   1.185  0.3820 -0.2069  0.2058
  592MOL0     C79852   5.458   4.475   1.252 -0.0206 -0.6422 -0.6368
  592MOL0     H79853   5.786   4.237   1.560  3.0947  0.1862  0.1086
  592MOL0     H79854   5.914   4.144   1.739 -1.1075 -0.6583 -0.4917
  592MOL0     H79855   5.933   4.142   2.175  0.7762 -0.4923 -1.3862
  592MOL0     H79856   5.776   4.209   2.159  1.0245  0.8284 -0.7796
  592MOL0     H79857   5.702   3.963   2.076 -0.9316  2.4052 -0.0035
  592MOL0     H79858   5.871   3.939   2.140  0.9103  1.2353  0.7408
  592MOL0     H79859   5.826   3.990   2.361  1.2361  0.6436 -1.0786
  592MOL0     H79860   5.675   4.066   2.332 -0.3650  0.3834  1.7263
  592MOL0     H79861   5.597   3.840   2.241  0.4248  3.9095 -0.7978
  592MOL0     H79862   5.735   3.776   2.325  0.0511 -0.0817 -1.1089
  592MOL0     H79863   5.530   3.732   2.447 -0.3778  0.4668  1.0342
  592MOL0     H79864   5.645   3.847   2.536 -0.4049  2.7407 -0.5411
  592MOL0     H79865   5.507   4.032   2.453  1.7018 -0.1553  2.0389
  592MOL0     H79866   5.394   3.905   2.378 -1.9913 -3.2637  1.9314
  592MOL0     H79867   5.353   3.827   2.616  1.7946 -1.2116 -1.6475
  592MOL0     H79868   5.434   3.970   2.670  0.3488 -1.2188  0.1455
  592MOL0     H79869   5.288   4.119   2.551 -0.7935  0.0107 -2.8391
  592MOL0     H79870   5.211   4.011   2.671  0.8363 -3.5234  0.1642
  592MOL0     H79871   5.048   4.162   2.438 -0.7663 -0.1159  0.6440
  592MOL0     H79872   4.763   3.937   2.336 -0.6531  2.5204  1.6856
  592MOL0     H79873   4.823   4.104   2.296  1.3427  0.1555  2.4573
  592MOL0     H79874   4.902   3.854   2.126  3.4799  1.4955  2.5895
  592MOL0     H79875   4.925   4.020   2.092  2.3525 -2.8617 -1.1017
  592MOL0     H79876   4.674   4.053   2.100  2.5627  1.0681  0.0131
  592MOL0     H79877   4.641   3.883   2.141 -2.9019  1.1310 -1.0115
  592MOL0     H79878   4.615   3.929   1.895 -0.2155  3.1258 -0.1995
  592MOL0     H79879   4.757   3.827   1.919  2.5709  0.1642  0.1692
  592MOL0     H79880   4.794   3.822   1.702 -0.7441 -0.1240  1.0644
  592MOL0     H79881   4.631   3.787   1.435  0.2599 -0.3225  0.9789
  592MOL0     H79882   4.789   3.807   1.357  1.4614 -0.3814 -0.1091
  592MOL0     H79883   4.780   3.716   1.504  1.7709 -1.4007 -3.7073
  592MOL0     H79884   4.899   4.410   1.190 -0.1386 -0.9157  0.3301
  592MOL0     H79885   4.910   4.523   0.974 -0.9790  0.0060  0.4387
  592MOL0     H79886   4.815   4.246   0.628  3.9906  1.3047  0.1089
  592MOL0     H79887   4.660   4.341   0.668 -0.2638  2.4156  0.1058
  592MOL0     H79888   4.888   4.439   0.504  0.2942  1.1382 -2.0180
  592MOL0     H79889   4.749   4.359   0.426  1.5106  0.0751 -1.1504
  592MOL0     H79890   4.685   4.590   0.602 -0.9752  4.3447 -2.3277
  592MOL0     H79891   4.588   4.485   0.499  1.4339 -2.4746 -3.9594
  592MOL0     H79892   4.635   4.727   0.407  0.0732  0.0164  0.0312
  592MOL0     H79893   4.800   4.664   0.377 -0.1565 -3.8318 -4.3280
  592MOL0     H79894   4.717   4.484   0.245  3.2859  2.3121 -1.7920
  592MOL0     H79895   4.696   4.649   0.186  3.8020  0.3156  2.4004
  592MOL0     H79896   4.490   4.456   0.288 -1.9871 -0.0122  0.2937
  592MOL0     H79897   4.446   4.626   0.278  0.0281  0.4679  0.0334
  592MOL0     H79898   4.577   4.467   0.050  1.9096  4.4053 -1.4539
  592MOL0     H79899   4.469   4.607   0.032  1.3663  0.7954  0.3447
  592MOL0     H79900   4.286   4.459   0.128 -0.3142  0.3712 -0.7520
  592MOL0     H79901   4.390   4.327   0.106  0.3807  1.2610  2.1307
  592MOL0     H79902   4.699   4.180   0.818  1.9965 -2.3682  0.7059
  592MOL0     H79903   4.635   4.121   1.036 -2.6272  2.0741 -0.5632
  592MOL0     H79904   4.773   4.267   1.496 -1.1306  0.1020 -0.7515
  592MOL0     H79905   4.832   4.243   1.740 -3.1028  1.1907  0.6818
  592MOL0     H79906   5.623   4.255   2.026 -2.2021 -1.4222 -0.0602
  592MOL0     H79907   5.504   4.370   1.859  0.5372 -0.3614  1.5288
  592MOL0     H79908   5.378   4.564   1.571 -1.5718  1.9022 -0.1367
  592MOL0     H79909   5.254   4.743   1.449 -3.5362 -2.4302 -1.3600
  592MOL0     H79910   5.255   4.935   1.306  1.3669  0.5556 -1.5402
  592MOL0     H79911   5.199   4.970   1.141 -1.6155  2.2741  2.5288
  592MOL0     H79912   5.004   4.923   1.306  0.0199  1.0428  0.7832
  592MOL0     H79913   5.063   4.764   1.319 -3.0506  2.8148  1.5961
  592MOL0     H79914   4.909   4.730   1.141  1.6793 -2.3838 -1.2216
  592MOL0     H79915   5.051   4.771   1.050 -1.3753 -0.6587 -1.0921
  592MOL0     H79916   4.958   5.007   1.028  1.1724 -1.3409  0.4642
  592MOL0     H79917   4.812   4.946   1.105  0.9813  1.7939  1.5555
  592MOL0     H79918   4.788   4.780   0.728  0.0508  2.1331 -1.3079
  592MOL0     H79919   5.399   4.583   1.077  1.0493  3.9509  0.3628
  592MOL0     H79920   5.531   4.413   1.201  1.3582 -0.7375  1.3253
  593MOL0     O79921   4.925   3.842   9.683  0.6723  0.1442  0.2013
  593MOL0     C79922   4.842   3.845   9.593 -0.6023 -0.1226 -0.0465
  593MOL0     O79923   4.820   3.746   9.508 -0.2326  0.0574 -0.1117
  593MOL0     C79924   4.855   3.621   9.544 -0.1718 -0.1354  0.5784
  593MOL0     C79925   4.811   3.551   9.649 -0.5809 -0.0699 -0.7802
  593MOL0     C79926   4.842   3.415   9.666 -0.7493 -0.2262  0.3720
  593MOL0     C79927   4.923   3.354   9.572  0.4295  0.0058  0.2520
  593MOL0     O79928   4.953   3.228   9.587  0.7882  0.8929  0.3952
  593MOL0     C79929   4.950   3.146   9.461 -0.4032  0.0961 -0.8524
  593MOL0     C79930   4.911   3.006   9.492 -0.2735  0.1351 -0.6559
  593MOL0     C79931   4.769   2.993   9.563  0.1183 -0.7885  0.0606
  593MOL0     C79932   4.735   2.845   9.570 -0.6536  0.6335  0.0461
  593MOL0     C79933   4.581   2.821   9.553  0.2520 -0.2210  0.2547
  593MOL0     C79934   4.498   2.884   9.670  0.3911 -1.0531 -0.3290
  593MOL0     C79935   4.359   2.921   9.618 -0.0984  0.4173 -0.0257
  593MOL0     C79936   4.250   2.837   9.705  0.0504  0.1332  0.6488
  593MOL0     N79937   4.252   2.697   9.668 -0.0164  0.4148 -0.1316
  593MOL0     C79938   4.236   2.645   9.550  0.1684 -0.1469 -0.0028
  593MOL0     C79939   4.262   2.513   9.557  1.0345  0.4367 -0.3780
  593MOL0     C79940   4.261   2.429   9.433  0.3375 -0.2733  0.3076
  593MOL0     C79941   4.380   2.459   9.343 -0.3008  0.4235 -0.9794
  593MOL0     C79942   4.453   2.329   9.311  0.6230 -0.2059 -0.3511
  593MOL0     C79943   4.374   2.231   9.229 -0.1640  0.2337 -0.0978
  593MOL0     O79944   4.466   2.124   9.225 -0.6059  0.7455 -0.0639
  593MOL0     C79945   4.431   2.009   9.153 -0.2082  0.1984  1.1693
  593MOL0     C79946   4.306   1.992   9.089  0.7357 -1.1342 -0.2499
  593MOL0     C79947   4.277   1.886   9.013  0.0231  0.0229  0.2539
  593MOL0     C79948   4.153   1.876   8.931  0.0398 -0.8076  0.1594
  593MOL0     C79949   4.372   1.773   9.007 -0.6403 -0.9424  0.3826
  593MOL0     C79950   4.358   1.649   8.918 -0.5709  1.4275  0.1215
  593MOL0     O79951   4.405   1.529   8.982  0.0865 -0.8151  0.9138
  593MOL0     C79952   4.385   1.426   8.901  0.8895  0.6638 -0.4326
  593MOL0     C79953   4.477   1.397   8.800  0.8091  0.5699 -0.9145
  593MOL0     C79954   4.449   1.279   8.723 -1.0458  0.9106  0.0050
  593MOL0     C79955   4.335   1.195   8.746 -0.4460  0.5970 -1.1163
  593MOL0     O79956   4.295   1.095   8.661 -0.7433 -0.5016  0.0332
  593MOL0     C79957   4.363   0.971   8.685  0.1138  0.4143  0.2317
  593MOL0     C79958   4.510   0.981   8.645  0.2440  0.0686  0.2182
  593MOL0     C79959   4.581   0.841   8.650  0.5939 -0.1682 -0.1037
  593MOL0     C79960   4.730   0.866   8.619 -0.1082 -0.8786 -0.1826
  593MOL0     C79961   4.829   0.749   8.634  0.1723  0.7303 -0.4421
  593MOL0     C79962   4.961   0.812   8.649 -0.4762 -0.5063 -0.4951
  593MOL0     C79963   5.075   0.717   8.630 -0.5033 -0.1766  0.0294
  593MOL0     C79964   5.212   0.772   8.652 -0.9394  0.5817 -0.2018
  593MOL0    Cl79965   5.258   0.892   8.530 -0.3601 -0.0685  0.1341
  593MOL0     C79966   4.258   1.218   8.862  0.1820  0.5944  0.2306
  593MOL0     C79967   4.278   1.336   8.927 -0.5051  0.1622 -0.3954
  593MOL0     O79968   4.323   1.652   8.804  0.0182  0.1349 -0.6066
  593MOL0     C79969   4.493   1.781   9.084  0.0824 -0.7324  0.3717
  593MOL0     C79970   4.521   1.899   9.153 -0.3068  0.0045  0.0717
  593MOL0     N79971   4.283   2.478   9.690 -0.0625  0.0242 -0.3724
  593MOL0     N79972   4.273   2.596   9.748  0.4657  0.4295  0.6693
  593MOL0     C79973   4.953   3.422   9.451  1.1081 -0.0123  0.0269
  593MOL0     C79974   4.926   3.556   9.448  0.4967 -0.3765 -0.5082
  593MOL0     C79975   4.740   3.958   9.604  0.2800  0.8434  0.8157
  593MOL0     C79976   4.758   4.064   9.694 -0.0899 -0.4936  0.2207
  593MOL0     C79977   4.664   4.164   9.707 -0.0291  0.1421 -0.1931
  593MOL0     C79978   4.538   4.164   9.642 -0.7746 -0.2766  0.2949
  593MOL0     O79979   4.432   4.241   9.677 -0.1246 -0.1665 -0.4226
  593MOL0     C79980   4.411   4.288   9.814 -1.2029 -0.2461 -0.0258
  593MOL0     C79981   4.269   4.253   9.857 -0.0011  0.6102  0.6079
  593MOL0     C79982   4.173   4.349   9.779  0.1329  0.1459  0.4871
  593MOL0     C79983   4.025   4.308   9.805  0.3135 -0.1293 -0.0098
  593MOL0     C79984   3.929   4.380   9.721  0.0416 -0.0626 -0.1156
  593MOL0     C79985   3.865   4.452   9.642 -0.9175  0.1954 -0.8647
  593MOL0     C79986   4.521   4.056   9.547  0.0734  0.3465 -0.7884
  593MOL0     C79987   4.620   3.958   9.530  0.1975 -0.5402  0.4657
  593MOL0     H79988   4.745   3.607   9.714  0.0555  2.0794 -1.9070
  593MOL0     H79989   4.807   3.369   9.757 -1.2573  0.6598  0.6370
  593MOL0     H79990   4.879   3.186   9.388  0.9692  2.7649 -0.8781
  593MOL0     H79991   5.049   3.144   9.414  1.1308  1.9981  1.9674
  593MOL0     H79992   4.934   2.933   9.414 -0.9265 -1.3349  0.4987
  593MOL0     H79993   4.985   2.987   9.570 -0.3929 -1.2359 -0.8542
  593MOL0     H79994   4.779   3.043   9.660  1.0986 -0.0887 -0.3767
  593MOL0     H79995   4.685   3.036   9.507 -0.2266  0.2810  1.3325
  593MOL0     H79996   4.793   2.790   9.495  2.1304  0.3312  2.2900
  593MOL0     H79997   4.774   2.806   9.664  2.7916  2.1787 -0.5921
  593MOL0     H79998   4.555   2.868   9.458  0.5391  0.9940  0.7684
  593MOL0     H79999   4.545   2.718   9.540  0.5252 -0.8676  3.6096
  593MOL0     H80000   4.493   2.815   9.755 -1.1847  0.3848  0.8183
  593MOL0     H80001   4.549   2.976   9.699  1.6509 -1.6403 -0.6335
  593MOL0     H80002   4.345   3.029   9.629  0.8371  0.7188 -1.4843
  593MOL0     H80003   4.351   2.896   9.511  0.7549  0.5317 -0.1207
  593MOL0     H80004   4.152   2.881   9.681 -0.2700  0.7700  2.8732
  593MOL0     H80005   4.260   2.848   9.813 -3.2078 -2.9011  1.4480
  593MOL0     H80006   4.209   2.707   9.465 -3.2105 -2.6537 -0.9540
  593MOL0     H80007   4.253   2.325   9.465  3.5368 -0.8067 -0.3034
  593MOL0     H80008   4.176   2.452   9.368  0.9453 -0.2042 -0.4721
  593MOL0     H80009   4.452   2.526   9.392 -0.5791  0.5903 -0.7939
  593MOL0     H80010   4.355   2.507   9.248 -0.0452 -0.5113 -1.5233
  593MOL0     H80011   4.474   2.289   9.411 -0.8008  0.7129  0.3581
  593MOL0     H80012   4.548   2.356   9.265  0.4145  0.8720 -0.1701
  593MOL0     H80013   4.357   2.267   9.128  2.8495  1.7042 -0.1885
  593MOL0     H80014   4.277   2.206   9.274  1.0139 -0.5796  2.1838
  593MOL0     H80015   4.231   2.071   9.085  0.5895 -1.2727 -0.2188
  593MOL0     H80016   4.106   1.780   8.953 -0.2068 -0.5457  0.8021
  593MOL0     H80017   4.080   1.954   8.954 -3.3819 -3.2709 -1.5757
  593MOL0     H80018   4.178   1.887   8.826  3.6297  2.0922  1.1128
  593MOL0     H80019   4.567   1.457   8.795  0.0286  1.8218 -0.3841
  593MOL0     H80020   4.509   1.262   8.635  0.5721  0.0751  1.2302
  593MOL0     H80021   4.350   0.914   8.778 -1.9958 -1.8707 -1.3492
  593MOL0     H80022   4.328   0.897   8.613  2.4171 -0.8680  0.3356
  593MOL0     H80023   4.508   1.019   8.543  0.6610  0.7096  0.4440
  593MOL0     H80024   4.570   1.051   8.704 -0.2785  0.6792  0.0396
  593MOL0     H80025   4.528   0.773   8.582  3.6819 -0.3848 -2.4839
  593MOL0     H80026   4.589   0.792   8.748 -0.7259  0.1552  0.1951
  593MOL0     H80027   4.745   0.898   8.516  4.0402 -1.3999  0.0540
  593MOL0     H80028   4.752   0.955   8.679  1.5317 -1.5136  0.2276
  593MOL0     H80029   4.816   0.683   8.548 -0.9793  2.3648 -1.5612
  593MOL0     H80030   4.809   0.698   8.729 -3.6824 -1.1596 -2.0545
  593MOL0     H80031   4.970   0.881   8.565  0.6956 -0.5296 -0.4116
  593MOL0     H80032   4.963   0.851   8.751 -4.0977 -2.2139  0.3677
  593MOL0     H80033   5.072   0.676   8.528 -0.7915 -0.8804  0.3162
  593MOL0     H80034   5.062   0.634   8.700 -0.2780  0.3122  0.6587
  593MOL0     H80035   5.291   0.697   8.659 -0.1543  1.4212  0.1708
  593MOL0     H80036   5.210   0.824   8.748  2.4898 -1.7383  1.3418
  593MOL0     H80037   4.181   1.143   8.882 -0.8600  1.7332  0.6096
  593MOL0     H80038   4.213   1.337   9.015 -1.2921 -2.7572 -0.8213
  593MOL0     H80039   4.570   1.705   9.074  2.0327  1.2394 -0.5089
  593MOL0     H80040   4.608   1.893   9.218 -1.9452 -1.3793  2.2646
  593MOL0     H80041   5.006   3.377   9.368  1.1555  0.8840 -0.4483
  593MOL0     H80042   4.957   3.610   9.359  1.9323 -1.5388 -0.7588
  593MOL0     H80043   4.851   4.086   9.747  0.0499  1.3029 -0.7100
  593MOL0     H80044   4.691   4.249   9.769  0.9720  0.3783 -0.9112
  593MOL0     H80045   4.485   4.243   9.881  1.0589  4.0110  0.6420
  593MOL0     H80046   4.417   4.396   9.830 -2.3440 -0.5567  3.2524
  593MOL0     H80047   4.258   4.262   9.965 -1.1103  0.8416  0.4850
  593MOL0     H80048   4.234   4.153   9.832 -1.5848  1.1999  0.3984
  593MOL0     H80049   4.189   4.341   9.671 -1.0067 -1.6141  0.4075
  593MOL0     H80050   4.188   4.454   9.806  1.8943  0.8864 -2.7897
  593MOL0     H80051   3.994   4.330   9.907  0.5201 -5.6484  1.6029
  593MOL0     H80052   4.005   4.201   9.794 -1.0265 -0.1728  2.2647
  593MOL0     H80053   3.820   4.531   9.585  0.5491  1.9743  0.3258
  593MOL0     H80054   4.420   4.054   9.507 -0.4660  3.2390  0.1454
  593MOL0     H80055   4.610   3.876   9.460 -1.0829 -2.2082  2.4876
  594MOL0     O80056   4.370   2.375   2.227 -0.2848  0.0226 -0.4418
  594MOL0     C80057   4.482   2.374   2.175 -0.4626 -1.4427  0.3861
  594MOL0     O80058   4.543   2.280   2.099  0.4565 -0.1119 -0.6935
  594MOL0     C80059   4.466   2.190   2.038 -0.1971  0.6125  0.1455
  594MOL0     C80060   4.339   2.226   1.976 -0.1578  0.2466 -1.4317
  594MOL0     C80061   4.264   2.126   1.911  0.2986 -0.1205  0.2402
  594MOL0     C80062   4.312   1.994   1.900  0.5789  0.0931 -0.4225
  594MOL0     O80063   4.235   1.894   1.827 -0.3041 -0.7682 -0.4098
  594MOL0     C80064   4.302   1.816   1.724 -0.1127  0.2467  0.2437
  594MOL0     C80065   4.237   1.860   1.584 -0.0589  0.5275 -0.5785
  594MOL0     C80066   4.258   1.765   1.469 -0.4993  0.6460  0.7446
  594MOL0     C80067   4.164   1.805   1.352 -0.1846  0.0918 -0.2222
  594MOL0     C80068   4.200   1.777   1.202  0.3664  0.2330  0.1479
  594MOL0     C80069   4.229   1.623   1.180 -0.0891 -0.8827 -0.0774
  594MOL0     C80070   4.303   1.609   1.048  0.4050 -0.3589  0.1820
  594MOL0     C80071   4.373   1.477   1.023  0.0553 -1.1163  0.4916
  594MOL0     N80072   4.269   1.376   1.000 -0.5695  0.3591  0.4999
  594MOL0     C80073   4.160   1.379   0.917  0.5277  0.3659  0.2660
  594MOL0     C80074   4.075   1.286   0.977 -0.1046 -0.8685 -0.1961
  594MOL0     C80075   3.936   1.246   0.954 -0.3197 -0.6973 -0.5658
  594MOL0     C80076   3.889   1.313   0.822 -0.4054  0.2434  0.2582
  594MOL0     C80077   3.745   1.247   0.779 -0.6572  0.9065  0.8951
  594MOL0     C80078   3.636   1.304   0.868  0.0239  0.0951 -0.3107
  594MOL0     O80079   3.608   1.434   0.813 -0.4735  0.1223  0.2271
  594MOL0     C80080   3.511   1.442   0.717  0.6234  0.4854  0.6482
  594MOL0     C80081   3.523   1.529   0.609  0.3885  0.5819 -0.5585
  594MOL0     C80082   3.423   1.545   0.507  0.2283 -0.0377  0.6947
  594MOL0     C80083   3.441   1.645   0.390  0.4653  0.7440 -0.2053
  594MOL0     C80084   3.304   1.481   0.520  0.8904  0.1533  0.8939
  594MOL0     C80085   3.183   1.515   0.443  0.9706  0.3642  1.5209
  594MOL0     O80086   3.132   1.641   0.470  0.3877  0.3940  0.9363
  594MOL0     C80087   3.020   1.691   0.398 -0.8487 -0.0702  0.0714
  594MOL0     C80088   2.938   1.623   0.302  0.4407 -0.5393  0.1084
  594MOL0     C80089   2.829   1.695   0.244  0.4369  1.1219 -0.0371
  594MOL0     C80090   2.812   1.835   0.269  0.3819 -0.3231  0.0322
  594MOL0     O80091   2.708   1.896   0.198  0.3197 -0.2634 -0.1105
  594MOL0     C80092   2.711   2.033   0.168 -0.0598  0.0547 -0.5323
  594MOL0     C80093   2.577   2.076   0.094  0.5523 -0.3318 -0.1496
  594MOL0     C80094   2.592   2.185  -0.010 -0.2843  0.6313 -0.1158
  594MOL0     C80095   2.653   2.314   0.046  0.1016 -0.5714  0.5819
  594MOL0     C80096   2.590   2.441  -0.011  0.7637  0.1732  0.8644
  594MOL0     C80097   2.652   2.574   0.057 -0.4610  0.2110 -0.8791
  594MOL0     C80098   2.546   2.688   0.063  0.6121  1.6216  0.0030
  594MOL0     C80099   2.606   2.813   0.131 -0.5058 -0.3281 -0.8345
  594MOL0    Cl80100   2.618   2.780   0.310 -0.1731 -0.8604  0.3704
  594MOL0     C80101   2.897   1.899   0.363 -0.0471 -0.7401 -0.4488
  594MOL0     C80102   2.998   1.825   0.425  0.6449  0.1865  0.8316
  594MOL0     O80103   3.133   1.428   0.379  0.3164 -0.2780 -0.0337
  594MOL0     C80104   3.286   1.401   0.630  0.3651  0.1449  0.3816
  594MOL0     C80105   3.390   1.388   0.731  0.2270 -0.3031  0.0836
  594MOL0     N80106   4.150   1.213   1.066  0.0775  0.9080 -0.8846
  594MOL0     N80107   4.265   1.264   1.082  0.6912  0.5411  0.1202
  594MOL0     C80108   4.439   1.963   1.958 -0.4796 -0.8017  0.2860
  594MOL0     C80109   4.516   2.057   2.018 -0.3302 -0.2405  0.4995
  594MOL0     C80110   4.570   2.493   2.196 -1.2177  0.7694 -0.5609
  594MOL0     C80111   4.692   2.501   2.124  0.2721  0.4064  0.3551
  594MOL0     C80112   4.768   2.611   2.146 -0.0253 -0.5856 -0.8963
  594MOL0     C80113   4.732   2.712   2.247 -0.2193 -0.1589 -1.1359
  594MOL0     O80114   4.815   2.821   2.262  0.2560  0.0795  0.4387
  594MOL0     C80115   4.805   2.915   2.376  0.7544  0.2107 -0.3127
  594MOL0     C80116   4.858   2.859   2.516  1.5639  0.1933  0.1546
  594MOL0     C80117   5.000   2.821   2.504  0.2274  0.3506 -0.8561
  594MOL0     C80118   5.045   2.749   2.632  0.0344 -0.0963  1.0008
  594MOL0     C80119   5.013   2.820   2.765  0.5789  1.1653 -0.4661
  594MOL0     C80120   4.988   2.871   2.877 -0.0638 -0.4844  0.8989
  594MOL0     C80121   4.620   2.697   2.324 -0.9693  0.5396  0.7494
  594MOL0     C80122   4.537   2.581   2.303  0.2374  0.6281  0.0035
  594MOL0     H80123   4.296   2.325   1.974 -1.3598 -0.2569 -0.9771
  594MOL0     H80124   4.169   2.162   1.872  0.2680 -0.3403  0.1107
  594MOL0     H80125   4.410   1.834   1.729  0.0385 -0.3204 -0.7046
  594MOL0     H80126   4.285   1.709   1.744  0.7806 -0.1324 -0.9080
  594MOL0     H80127   4.133   1.892   1.597 -1.0026 -2.4593  0.2033
  594MOL0     H80128   4.285   1.951   1.547  0.6565  0.7056  0.7251
  594MOL0     H80129   4.360   1.785   1.438 -1.5631  4.8838 -0.6887
  594MOL0     H80130   4.234   1.662   1.498  2.0422 -0.4746 -0.8398
  594MOL0     H80131   4.088   1.739   1.395  1.5335 -0.0159  2.9227
  594MOL0     H80132   4.125   1.907   1.361 -4.4058 -1.5019  3.2057
  594MOL0     H80133   4.114   1.806   1.141  1.0855 -0.7739 -1.4095
  594MOL0     H80134   4.287   1.838   1.175 -0.0291  1.7713  2.1198
  594MOL0     H80135   4.305   1.586   1.249  2.9050  2.0967 -1.4599
  594MOL0     H80136   4.144   1.556   1.197 -0.2489 -0.0390  3.0717
  594MOL0     H80137   4.255   1.646   0.956  0.4127  2.1105  1.0937
  594MOL0     H80138   4.388   1.676   1.061  0.9488 -1.1762  0.9085
  594MOL0     H80139   4.424   1.442   1.113 -1.9321  0.6690  2.4077
  594MOL0     H80140   4.442   1.481   0.937 -0.7994 -2.1573 -0.2710
  594MOL0     H80141   4.128   1.456   0.848 -2.5468 -1.2089 -0.2473
  594MOL0     H80142   3.924   1.138   0.953 -2.4323 -0.5392  0.6906
  594MOL0     H80143   3.874   1.291   1.032 -0.4171  0.8755 -1.4990
  594MOL0     H80144   3.961   1.287   0.745  0.9610 -0.9556  1.8585
  594MOL0     H80145   3.883   1.421   0.843 -1.5377  0.1852  0.3229
  594MOL0     H80146   3.741   1.138   0.793 -1.3180  0.5539 -1.6635
  594MOL0     H80147   3.713   1.267   0.677 -3.0734 -1.7902  0.9869
  594MOL0     H80148   3.682   1.312   0.967  0.0714  0.4204 -0.3571
  594MOL0     H80149   3.550   1.237   0.869  1.2903 -1.5962 -0.4506
  594MOL0     H80150   3.611   1.591   0.593  0.2809  0.5819 -1.1743
  594MOL0     H80151   3.536   1.625   0.340 -0.0962 -0.6849 -0.7926
  594MOL0     H80152   3.367   1.625   0.311  1.8377  0.4005 -1.4368
  594MOL0     H80153   3.431   1.750   0.417  0.1959  0.5215  0.5767
  594MOL0     H80154   2.958   1.531   0.249  1.3122  0.7055 -1.8685
  594MOL0     H80155   2.767   1.647   0.169  0.7818 -1.4997  1.2386
  594MOL0     H80156   2.732   2.094   0.256  1.1698 -1.4214  0.2528
  594MOL0     H80157   2.799   2.032   0.103  0.1151 -0.4793 -0.2984
  594MOL0     H80158   2.527   1.987   0.054 -4.2832  1.6958  0.6360
  594MOL0     H80159   2.500   2.120   0.158 -0.5437 -0.1584 -1.5400
  594MOL0     H80160   2.495   2.208  -0.056 -0.0381  0.2861 -0.8421
  594MOL0     H80161   2.662   2.151  -0.088 -2.6737 -1.8930 -1.3355
  594MOL0     H80162   2.621   2.308   0.151 -1.4928 -5.9178  0.0912
  594MOL0     H80163   2.760   2.306   0.027  0.5789  0.0720  2.6921
  594MOL0     H80164   2.482   2.438   0.007  0.4563  1.5205 -0.5291
  594MOL0     H80165   2.593   2.460  -0.118  1.0364 -0.9940  0.6554
  594MOL0     H80166   2.687   2.557   0.159 -0.6643  0.4580 -0.7664
  594MOL0     H80167   2.736   2.611  -0.002  0.7597 -1.3476 -0.1832
  594MOL0     H80168   2.460   2.659   0.124  0.7309  4.9799  2.0567
  594MOL0     H80169   2.513   2.688  -0.041 -0.2815 -2.5090  0.1308
  594MOL0     H80170   2.536   2.895   0.113 -1.5437  0.0535  3.6783
  594MOL0     H80171   2.705   2.845   0.096 -1.0002  1.4470 -0.7515
  594MOL0     H80172   2.888   2.006   0.380  1.4523 -0.5328 -0.8224
  594MOL0     H80173   3.066   1.882   0.488  4.1105 -0.8861 -1.6432
  594MOL0     H80174   3.188   1.360   0.652  0.7725 -0.3256  1.3733
  594MOL0     H80175   3.366   1.321   0.813  1.6783  1.7426  2.3208
  594MOL0     H80176   4.480   1.863   1.950 -2.2428 -1.8257  2.7547
  594MOL0     H80177   4.615   2.034   2.056 -0.1369  0.0793  0.1951
  594MOL0     H80178   4.725   2.435   2.045 -4.7214  0.0881 -1.8101
  594MOL0     H80179   4.859   2.629   2.090 -0.0712  1.7101 -0.3417
  594MOL0     H80180   4.843   3.014   2.348 -1.5522  2.3041  3.2095
  594MOL0     H80181   4.699   2.936   2.394  0.1189 -1.0781 -2.2862
  594MOL0     H80182   4.792   2.781   2.553 -0.3163  1.8092  0.3967
  594MOL0     H80183   4.855   2.944   2.585 -1.9525  1.9886 -1.9187
  594MOL0     H80184   5.065   2.907   2.486  0.3925  0.4923  0.3629
  594MOL0     H80185   5.011   2.753   2.419  1.1911 -0.8269  0.1783
  594MOL0     H80186   5.154   2.746   2.629  0.0849  1.5354  0.1195
  594MOL0     H80187   5.012   2.645   2.621  1.4650 -0.4859  0.2297
  594MOL0     H80188   4.985   2.913   2.975  3.6085 -2.9733  2.3000
  594MOL0     H80189   4.592   2.770   2.399 -0.9982 -1.1036  2.4204
  594MOL0     H80190   4.453   2.560   2.368  0.1264 -0.1652 -0.3914
  595MOL0     O80191   0.694   2.070   6.904  0.3768 -0.4584 -0.9020
  595MOL0     C80192   0.687   1.977   6.976  0.6718  0.5308 -0.3370
  595MOL0     O80193   0.751   1.965   7.090  0.3326 -0.3117 -0.4846
  595MOL0     C80194   0.810   2.062   7.157  0.4910 -0.6529 -0.0389
  595MOL0     C80195   0.771   2.203   7.141  0.2549 -0.0431  0.6105
  595MOL0     C80196   0.836   2.302   7.205  0.4625 -0.1159 -1.1811
  595MOL0     C80197   0.937   2.267   7.296  0.0526 -0.8965  0.0495
  595MOL0     O80198   1.005   2.378   7.352  0.4062 -0.0285  0.2125
  595MOL0     C80199   1.051   2.375   7.489  0.0519 -0.2426 -0.7355
  595MOL0     C80200   1.206   2.388   7.480 -0.3683  0.6281 -0.6037
  595MOL0     C80201   1.245   2.530   7.432  0.8688  1.1268 -0.3968
  595MOL0     C80202   1.390   2.569   7.458  0.8486 -0.5464  0.4442
  595MOL0     C80203   1.421   2.701   7.373  0.0714  0.1772  0.1103
  595MOL0     C80204   1.570   2.733   7.353 -0.2172 -0.1204  0.9612
  595MOL0     C80205   1.639   2.811   7.464 -0.7875 -0.2337 -0.7016
  595MOL0     C80206   1.756   2.897   7.417 -0.6847 -0.2198 -0.1585
  595MOL0     N80207   1.835   2.933   7.534 -0.1629 -0.0877 -0.6658
  595MOL0     C80208   1.799   2.962   7.669  0.1101  0.1676 -0.4924
  595MOL0     C80209   1.909   3.013   7.725  1.1992  0.3340  0.9173
  595MOL0     C80210   1.922   3.035   7.878 -0.3251 -0.4123  0.6129
  595MOL0     C80211   2.066   3.017   7.911  0.1574  1.0450  0.7726
  595MOL0     C80212   2.140   3.155   7.872  0.1743  0.8635 -0.8599
  595MOL0     C80213   2.271   3.161   7.941  0.0546 -1.0139 -1.4402
  595MOL0     O80214   2.348   3.066   7.871  0.3699  0.1959 -0.3078
  595MOL0     C80215   2.483   3.064   7.882  0.3903 -0.3460 -0.7117
  595MOL0     C80216   2.554   3.001   7.791 -0.5316 -0.4735 -0.6739
  595MOL0     C80217   2.689   2.967   7.807  0.2205  0.9135  0.1112
  595MOL0     C80218   2.764   2.883   7.700 -0.3255 -0.0806  0.0313
  595MOL0     C80219   2.761   3.010   7.921  0.4338  0.0321  0.2582
  595MOL0     C80220   2.904   2.997   7.952  0.0523 -0.5785  0.0206
  595MOL0     O80221   2.941   3.029   8.079 -0.6206  0.2754 -0.6846
  595MOL0     C80222   3.087   3.016   8.101  0.3621 -0.0733  0.5996
  595MOL0     C80223   3.162   3.135   8.104  0.6010  0.1169 -0.5825
  595MOL0     C80224   3.303   3.128   8.122 -0.2161  0.3974 -0.6040
  595MOL0     C80225   3.362   3.004   8.146  0.2664 -0.4144 -0.0948
  595MOL0     O80226   3.492   3.003   8.182 -0.0435 -0.7750  0.1719
  595MOL0     C80227   3.578   2.902   8.118 -0.6138 -0.2208  0.1568
  595MOL0     C80228   3.629   2.788   8.201  1.9252 -0.7037 -0.1621
  595MOL0     C80229   3.723   2.688   8.123  0.7442 -0.6481 -0.8241
  595MOL0     C80230   3.807   2.593   8.208  1.0997  0.0274 -1.2450
  595MOL0     C80231   3.927   2.541   8.136 -0.5769 -0.0981  0.6426
  595MOL0     C80232   4.006   2.436   8.234  0.1202  0.6746  0.7255
  595MOL0     C80233   4.128   2.381   8.155 -1.3218  0.8169 -0.6367
  595MOL0     C80234   4.230   2.326   8.255 -0.9205  0.3612  0.2260
  595MOL0    Cl80235   4.372   2.312   8.148 -0.1258  0.0461  0.0687
  595MOL0     C80236   3.284   2.893   8.142 -0.3417  0.5017  0.1961
  595MOL0     C80237   3.149   2.899   8.120  0.1408 -0.3950 -0.5113
  595MOL0     O80238   2.982   2.955   7.864  0.7198 -0.0523 -0.0796
  595MOL0     C80239   2.691   3.098   8.010  0.0025  0.3016 -0.2643
  595MOL0     C80240   2.552   3.116   7.989  0.1967 -0.2164  0.4891
  595MOL0     N80241   2.000   3.016   7.628 -0.6947 -0.9215 -0.0019
  595MOL0     N80242   1.960   2.979   7.515 -0.4180  0.3642 -0.4697
  595MOL0     C80243   0.970   2.130   7.331  0.0953 -0.2463  0.3369
  595MOL0     C80244   0.905   2.032   7.261 -0.5271  0.0333  0.5637
  595MOL0     C80245   0.583   1.875   6.961 -0.1994 -0.3164  0.8994
  595MOL0     C80246   0.487   1.903   6.863  0.1710 -0.4392  0.2780
  595MOL0     C80247   0.394   1.800   6.826 -0.7794 -0.1286  0.7125
  595MOL0     C80248   0.388   1.673   6.886 -0.0890 -1.0994 -0.0429
  595MOL0     O80249   0.286   1.591   6.855  1.0821 -0.0364 -0.1632
  595MOL0     C80250   0.301   1.452   6.877  0.0203 -0.5955  0.4124
  595MOL0     C80251   0.198   1.374   6.804 -0.0077  0.1314  0.5765
  595MOL0     C80252   0.182   1.403   6.658 -0.9023 -0.1312  0.7922
  595MOL0     C80253   0.103   1.287   6.590  0.1968  0.1239  0.4551
  595MOL0     C80254   0.130   1.261   6.449  0.5472  0.2498 -0.4875
  595MOL0     C80255   0.120   1.242   6.327  0.0664  0.3910  0.1946
  595MOL0     C80256   0.478   1.650   6.987  0.2769 -0.1551 -0.0843
  595MOL0     C80257   0.577   1.743   7.024 -0.1430 -1.1468  0.6609
  595MOL0     H80258   0.687   2.240   7.083  0.9639  0.8108  0.1106
  595MOL0     H80259   0.802   2.404   7.192  0.3028  0.0137  0.0814
  595MOL0     H80260   0.997   2.458   7.535  0.4565 -0.9162  1.0014
  595MOL0     H80261   1.027   2.291   7.555  0.4446  1.4120  1.6295
  595MOL0     H80262   1.233   2.372   7.585 -4.0562  0.1070  0.3869
  595MOL0     H80263   1.262   2.314   7.422  1.8756 -1.0802  3.3682
  595MOL0     H80264   1.227   2.532   7.324  0.7892 -3.2109 -0.6702
  595MOL0     H80265   1.182   2.610   7.471  2.9263  1.9814  1.3635
  595MOL0     H80266   1.395   2.593   7.564 -3.6436 -1.5483  1.0737
  595MOL0     H80267   1.449   2.481   7.431 -2.1235 -2.3761 -0.5968
  595MOL0     H80268   1.382   2.693   7.271 -0.4565  1.2988  0.2096
  595MOL0     H80269   1.381   2.792   7.419 -3.0249 -0.6878 -0.6186
  595MOL0     H80270   1.635   2.650   7.325  0.4209  0.1692  1.5504
  595MOL0     H80271   1.557   2.797   7.265 -4.7216 -0.5199  1.1193
  595MOL0     H80272   1.563   2.865   7.521 -1.3871 -0.4434 -1.2872
  595MOL0     H80273   1.691   2.740   7.530 -1.9803  0.4471  1.0338
  595MOL0     H80274   1.722   2.993   7.378  2.3472  0.9448 -0.2480
  595MOL0     H80275   1.827   2.845   7.352  1.5325  1.5776  0.6618
  595MOL0     H80276   1.708   2.915   7.706  0.4180 -0.0302  0.0201
  595MOL0     H80277   1.889   3.135   7.906  1.5073  1.3121 -2.7257
  595MOL0     H80278   1.852   2.959   7.913 -0.1345 -1.3147 -0.8557
  595MOL0     H80279   2.104   2.933   7.852 -1.4743 -1.0595  2.5364
  595MOL0     H80280   2.071   2.983   8.015  0.9323  3.5522  1.6169
  595MOL0     H80281   2.087   3.238   7.919  2.2082  0.7394  1.9172
  595MOL0     H80282   2.145   3.169   7.764  1.0357 -2.8958 -1.4501
  595MOL0     H80283   2.276   3.139   8.048  0.6173  3.8603 -0.2215
  595MOL0     H80284   2.320   3.258   7.934  2.6964 -1.8904  2.1439
  595MOL0     H80285   2.492   2.973   7.706 -2.1617 -1.0447  0.6604
  595MOL0     H80286   2.828   2.952   7.645 -1.0364  1.1627  0.7136
  595MOL0     H80287   2.832   2.811   7.746  0.5978  0.0776 -1.0708
  595MOL0     H80288   2.698   2.824   7.636  1.2017 -1.9169  0.0803
  595MOL0     H80289   3.112   3.231   8.095  1.1511  0.4450 -0.1899
  595MOL0     H80290   3.369   3.215   8.127 -1.5869  1.4243  0.2882
  595MOL0     H80291   3.535   2.869   8.023  1.8591  2.4000 -2.0869
  595MOL0     H80292   3.668   2.954   8.085 -0.5331 -0.7514 -0.5026
  595MOL0     H80293   3.683   2.836   8.283  2.4998 -0.1114 -0.8779
  595MOL0     H80294   3.538   2.739   8.238 -1.0031  3.6968 -0.7046
  595MOL0     H80295   3.789   2.739   8.053  1.3876 -3.7300 -2.6500
  595MOL0     H80296   3.659   2.624   8.062  0.2444  0.1912 -1.1900
  595MOL0     H80297   3.834   2.635   8.305  1.4545 -4.0013  0.5992
  595MOL0     H80298   3.740   2.513   8.240 -1.8790  2.6911 -0.2944
  595MOL0     H80299   3.989   2.629   8.118 -0.0950 -0.6229 -0.3732
  595MOL0     H80300   3.892   2.508   8.037  1.1493  1.7865 -0.6861
  595MOL0     H80301   4.042   2.492   8.320  0.5341 -0.2121  1.1445
  595MOL0     H80302   3.945   2.351   8.266 -0.1366  1.2639  1.8390
  595MOL0     H80303   4.172   2.459   8.093 -1.0626 -1.3805 -3.4044
  595MOL0     H80304   4.092   2.307   8.082  1.4637 -0.1229 -1.1822
  595MOL0     H80305   4.204   2.224   8.284  1.4403 -1.2995 -2.8205
  595MOL0     H80306   4.249   2.385   8.345  0.2514 -1.0701  0.9643
  595MOL0     H80307   3.328   2.794   8.153  2.2085  1.0415 -3.2564
  595MOL0     H80308   3.093   2.807   8.109  0.2513 -0.8629  2.3052
  595MOL0     H80309   2.745   3.143   8.093  0.4201  0.2550 -0.5113
  595MOL0     H80310   2.507   3.180   8.064 -0.5358 -1.9382  1.5836
  595MOL0     H80311   1.041   2.118   7.413 -1.5438  1.2266  2.0662
  595MOL0     H80312   0.914   1.929   7.292 -0.2743 -0.7742 -1.9922
  595MOL0     H80313   0.495   1.995   6.806 -1.9881 -0.7136 -0.5578
  595MOL0     H80314   0.319   1.820   6.750 -2.7886 -0.0723  2.6164
  595MOL0     H80315   0.399   1.435   6.833 -1.3108 -1.9006 -2.2504
  595MOL0     H80316   0.305   1.419   6.982 -1.4716 -1.3002  0.2691
  595MOL0     H80317   0.100   1.387   6.849  0.5713  3.2100  1.1503
  595MOL0     H80318   0.227   1.268   6.807 -3.5936 -1.0790 -1.5887
  595MOL0     H80319   0.275   1.412   6.601 -0.2411 -0.8342  1.7088
  595MOL0     H80320   0.131   1.496   6.632  1.8555  1.3537  0.3313
  595MOL0     H80321  -0.003   1.306   6.609  0.3634 -0.4756  2.1329
  595MOL0     H80322   0.133   1.193   6.637 -2.4098 -0.9501  0.1408
  595MOL0     H80323   0.103   1.232   6.222 -2.6304 -0.6691  0.6470
  595MOL0     H80324   0.476   1.561   7.049  0.7614 -1.1034 -1.3883
  595MOL0     H80325   0.658   1.728   7.094  2.0583  0.7927 -1.3106
  596MOL0     O80326  10.873   1.893   7.167 -0.4862 -0.8771  0.1193
  596MOL0     C80327  10.773   1.928   7.098 -0.4113 -0.8788 -0.0429
  596MOL0     O80328  10.728   2.060   7.099  0.0316 -0.4344 -0.6036
  596MOL0     C80329  10.800   2.145   7.186 -0.6098  0.6309  0.2854
  596MOL0     C80330  10.779   2.138   7.329  0.1533 -0.7798  0.5347
  596MOL0     C80331  10.854   2.227   7.404  1.0602 -0.4989  0.0174
  596MOL0     C80332  10.956   2.314   7.359 -0.3177 -0.1247  0.7988
  596MOL0     O80333  11.027   2.413   7.435  0.0542 -0.4754  0.4265
  596MOL0     C80334  11.050   2.366   7.570  0.2429  0.5516  0.4552
  596MOL0     C80335  11.189   2.397   7.619 -0.6273  0.2385 -0.3265
  596MOL0     C80336  11.205   2.549   7.633 -0.5645 -0.3523 -0.7094
  596MOL0     C80337  11.310   2.598   7.732  0.3172 -0.5195  0.7174
  596MOL0     C80338  11.453   2.601   7.681  0.1590  0.6065 -0.0995
  596MOL0     C80339  11.550   2.621   7.799 -0.0639 -0.5976 -0.3360
  596MOL0     C80340  11.702   2.624   7.753  0.7601  0.8523  0.1369
  596MOL0     C80341  11.754   2.489   7.692 -0.0082 -0.1764  1.3175
  596MOL0     N80342  11.887   2.522   7.653 -0.2798 -0.1546 -0.2769
  596MOL0     C80343  11.939   2.539   7.531 -0.2043 -0.2338 -0.5951
  596MOL0     C80344  12.062   2.581   7.554 -0.2597 -0.4849  0.0561
  596MOL0     C80345  12.167   2.624   7.454 -0.6145  0.5673  0.1938
  596MOL0     C80346  12.163   2.772   7.422 -0.4790 -0.1685  0.6657
  596MOL0     C80347  12.286   2.826   7.329 -0.2308 -0.7721 -0.2929
  596MOL0     C80348  12.416   2.791   7.399  0.1264 -0.8750 -0.4274
  596MOL0     O80349  12.420   2.861   7.524 -0.2631  0.6050 -0.2875
  596MOL0     C80350  12.517   2.807   7.613  1.3100 -0.9014 -1.2102
  596MOL0     C80351  12.504   2.690   7.693 -0.2689  1.0934 -0.9283
  596MOL0     C80352  12.607   2.637   7.783 -0.4428 -0.4894  0.6372
  596MOL0     C80353  12.587   2.513   7.874  0.4252 -0.4680  0.0201
  596MOL0     C80354  12.730   2.718   7.783 -0.2790  0.4800  0.0054
  596MOL0     C80355  12.850   2.678   7.864 -0.9961 -0.3594 -0.6373
  596MOL0     O80356  12.950   2.774   7.874 -0.0072 -0.2565  0.3181
  596MOL0     C80357  13.047   2.767   7.966 -0.6860  0.3982  0.6335
  596MOL0     C80358  13.162   2.690   7.952  0.3604  0.5026  0.4697
  596MOL0     C80359  13.261   2.690   8.045  0.3593 -0.0161  0.1872
  596MOL0     C80360  13.250   2.766   8.168  0.0410 -1.5358  0.1906
  596MOL0     O80361  13.341   2.787   8.274  0.2113 -0.0705  0.8887
  596MOL0     C80362  13.470   2.730   8.248  0.5760  0.0180  0.5211
  596MOL0     C80363  13.545   2.716   8.374 -1.0643  0.2116  0.3184
  596MOL0     C80364  13.597   2.845   8.433 -0.2094  0.3905  0.6093
  596MOL0     C80365  13.624   2.846   8.592 -0.3036  0.7126 -0.2978
  596MOL0     C80366  13.745   2.936   8.618  1.0063  0.3724  1.1105
  596MOL0     C80367  13.818   2.892   8.741  0.3808  0.2539  0.3819
  596MOL0     C80368  13.958   2.952   8.761  0.4219  0.4223 -0.5844
  596MOL0     C80369  14.066   2.863   8.838  0.6990 -0.2975 -0.3533
  596MOL0    Cl80370  14.001   2.810   8.985  0.3814  0.6056  0.5795
  596MOL0     C80371  13.142   2.850   8.174  0.4864 -0.3072  0.4724
  596MOL0     C80372  13.036   2.846   8.076 -0.1304 -0.4094  0.1448
  596MOL0     O80373  12.848   2.568   7.926 -1.0084  0.1612  0.5671
  596MOL0     C80374  12.746   2.826   7.697  0.9293 -0.2373  0.1656
  596MOL0     C80375  12.640   2.874   7.613 -0.0521  0.1103  0.1894
  596MOL0     N80376  12.081   2.594   7.685 -0.4792 -0.1604  0.2662
  596MOL0     N80377  11.977   2.551   7.746 -0.1002  0.2862  1.1899
  596MOL0     C80378  10.982   2.317   7.219  0.4327 -0.1343 -0.1795
  596MOL0     C80379  10.902   2.232   7.141 -0.2333  0.4115 -0.0818
  596MOL0     C80380  10.683   1.830   7.027 -0.3269 -0.7021 -0.6911
  596MOL0     C80381  10.687   1.696   7.056 -0.6998  0.7109  0.4763
  596MOL0     C80382  10.598   1.611   6.990  0.1622  0.0953 -0.2818
  596MOL0     C80383  10.502   1.653   6.898 -0.6988  1.2241  0.6022
  596MOL0     O80384  10.419   1.554   6.844 -0.1600  0.1736  0.8701
  596MOL0     C80385  10.316   1.580   6.754  0.1903 -0.0673  0.1998
  596MOL0     C80386  10.371   1.626   6.606 -0.1953 -0.8769 -0.4322
  596MOL0     C80387  10.444   1.511   6.542 -0.3502  1.2511  0.8537
  596MOL0     C80388  10.367   1.431   6.437  1.0692 -0.9253  0.4053
  596MOL0     C80389  10.412   1.473   6.304 -0.4438  1.1082  0.4860
  596MOL0     C80390  10.436   1.505   6.189 -0.4115  0.5757  0.4902
  596MOL0     C80391  10.497   1.791   6.872 -0.9047  0.3574  0.4450
  596MOL0     C80392  10.591   1.875   6.941  0.3640 -0.4341  0.4091
  596MOL0     H80393  10.714   2.063   7.372  1.1718 -0.7282  2.2459
  596MOL0     H80394  10.833   2.216   7.510  0.4838  1.4864  0.1563
  596MOL0     H80395  10.969   2.407   7.632  1.2443  0.0361  2.1926
  596MOL0     H80396  11.038   2.258   7.582 -2.3438  0.6621 -0.5560
  596MOL0     H80397  11.198   2.359   7.721  1.8707 -1.7506 -1.1996
  596MOL0     H80398  11.269   2.354   7.559 -0.7450  1.9872 -1.8132
  596MOL0     H80399  11.243   2.582   7.535 -2.1907  0.6505 -1.0331
  596MOL0     H80400  11.111   2.603   7.646 -0.4160 -0.0680 -0.7874
  596MOL0     H80401  11.283   2.703   7.747 -0.8113 -0.6550 -0.1664
  596MOL0     H80402  11.306   2.540   7.825 -0.3060 -2.0593 -0.2375
  596MOL0     H80403  11.460   2.511   7.619  0.1816  0.2155  0.4601
  596MOL0     H80404  11.470   2.684   7.612 -1.9362  1.6122  0.5000
  596MOL0     H80405  11.530   2.718   7.846  2.9610  0.1096 -0.2753
  596MOL0     H80406  11.544   2.551   7.883  0.5999  0.4364  0.6045
  596MOL0     H80407  11.718   2.716   7.696  0.6790  1.7047  1.4260
  596MOL0     H80408  11.756   2.648   7.846  2.6346 -0.9986 -0.3903
  596MOL0     H80409  11.681   2.453   7.618 -0.5766  0.5489  1.5141
  596MOL0     H80410  11.747   2.407   7.764 -4.6749 -2.4613 -1.2608
  596MOL0     H80411  11.881   2.526   7.440 -2.6652 -3.0193  1.1885
  596MOL0     H80412  12.262   2.594   7.499 -1.7912 -0.5264  2.1027
  596MOL0     H80413  12.164   2.567   7.361 -3.0128 -2.4459  1.9333
  596MOL0     H80414  12.164   2.829   7.515  1.0428 -0.2051  0.6949
  596MOL0     H80415  12.071   2.803   7.371 -1.2268 -2.9986  0.1081
  596MOL0     H80416  12.277   2.935   7.319 -1.3205 -0.8615 -0.4248
  596MOL0     H80417  12.282   2.788   7.227 -2.8915  2.0448 -1.4027
  596MOL0     H80418  12.506   2.810   7.340  0.8674 -3.3864 -0.2067
  596MOL0     H80419  12.419   2.683   7.415 -0.8726 -1.1336 -1.7285
  596MOL0     H80420  12.415   2.628   7.685 -0.2243  0.6603  1.3012
  596MOL0     H80421  12.584   2.551   7.977  2.1349 -0.6045  0.1484
  596MOL0     H80422  12.502   2.452   7.842  0.6170 -0.0867 -1.2653
  596MOL0     H80423  12.668   2.439   7.868  0.4555 -0.3822 -0.5903
  596MOL0     H80424  13.160   2.631   7.860 -2.7222 -0.6359  1.1312
  596MOL0     H80425  13.342   2.618   8.034  1.0773  0.0826  3.6484
  596MOL0     H80426  13.454   2.630   8.207  0.6321 -0.5030  1.7104
  596MOL0     H80427  13.546   2.776   8.184  0.8101 -0.3814  0.5059
  596MOL0     H80428  13.483   2.658   8.443  0.1319  1.7011  2.7617
  596MOL0     H80429  13.627   2.647   8.354 -1.7452 -1.2508  2.2526
  596MOL0     H80430  13.516   2.912   8.404 -0.8291 -1.8825 -3.7620
  596MOL0     H80431  13.679   2.886   8.373 -2.1604  1.5680 -1.4175
  596MOL0     H80432  13.535   2.879   8.646  0.6687 -1.9215  3.2868
  596MOL0     H80433  13.644   2.745   8.628  1.7664  0.7843 -1.0978
  596MOL0     H80434  13.707   3.038   8.621 -0.9241 -0.1111 -2.0222
  596MOL0     H80435  13.817   2.936   8.535  2.9506 -0.1721  2.7127
  596MOL0     H80436  13.751   2.913   8.825 -1.9630  0.3892 -1.4048
  596MOL0     H80437  13.839   2.786   8.728  1.6272  0.5486 -0.2176
  596MOL0     H80438  13.940   3.043   8.820  1.7650 -0.6519  1.6120
  596MOL0     H80439  13.986   2.981   8.659 -3.0825  2.1964 -1.2413
  596MOL0     H80440  14.153   2.916   8.880  1.8945 -1.8911 -0.7070
  596MOL0     H80441  14.089   2.775   8.778 -0.7981  0.6344 -2.3799
  596MOL0     H80442  13.138   2.920   8.257 -0.3601  1.6703 -1.1669
  596MOL0     H80443  12.946   2.907   8.078 -2.0425 -2.8541 -2.2803
  596MOL0     H80444  12.832   2.891   7.691 -1.5210  3.6122  2.5921
  596MOL0     H80445  12.644   2.970   7.562 -3.2167  0.7146  0.8971
  596MOL0     H80446  11.050   2.383   7.166  4.1149 -0.7056  3.3468
  596MOL0     H80447  10.920   2.227   7.034 -0.8063  1.7267 -0.2645
  596MOL0     H80448  10.751   1.649   7.130  0.2813 -1.1777 -1.4280
  596MOL0     H80449  10.630   1.507   6.994 -1.4176 -0.3978  0.1824
  596MOL0     H80450  10.266   1.484   6.736 -1.4275  0.0937  3.2045
  596MOL0     H80451  10.240   1.647   6.794 -1.5068 -2.0386  0.4389
  596MOL0     H80452  10.439   1.711   6.615  0.0324 -0.5988 -3.7764
  596MOL0     H80453  10.283   1.660   6.552 -1.2508 -4.0937 -0.9542
  596MOL0     H80454  10.466   1.436   6.619 -2.4291  0.6097  0.8780
  596MOL0     H80455  10.537   1.552   6.501 -0.8762  3.6876  1.8991
  596MOL0     H80456  10.260   1.439   6.457  1.3385 -1.2525  2.1646
  596MOL0     H80457  10.387   1.324   6.450  2.1358 -0.8838 -0.7172
  596MOL0     H80458  10.448   1.525   6.085 -1.2254 -0.2866  0.2049
  596MOL0     H80459  10.423   1.834   6.805  0.6857  3.1277  0.3176
  596MOL0     H80460  10.562   1.980   6.934  2.4596  0.1362 -0.5671
  597MOL0     O80461   4.549   5.767   7.114 -0.4759  0.6176 -0.3817
  597MOL0     C80462   4.637   5.845   7.091  0.1761 -0.8502 -0.1745
  597MOL0     O80463   4.664   5.963   7.170 -0.2136  0.8383 -0.1466
  597MOL0     C80464   4.583   5.997   7.274  0.0096 -0.6569 -0.5329
  597MOL0     C80465   4.515   6.125   7.270  0.8942  0.1461 -1.4860
  597MOL0     C80466   4.437   6.169   7.385 -0.7238  0.4582 -0.4764
  597MOL0     C80467   4.429   6.088   7.498 -0.4091 -0.4427 -0.6954
  597MOL0     O80468   4.374   6.151   7.610  0.4090 -0.5088  0.5790
  597MOL0     C80469   4.369   6.089   7.739  0.2976  0.1971 -0.0760
  597MOL0     C80470   4.503   6.084   7.810  0.2119  0.4119 -0.6140
  597MOL0     C80471   4.488   5.989   7.932 -0.8436 -0.2577 -0.3350
  597MOL0     C80472   4.613   5.994   8.017 -0.9477  0.4354 -0.4370
  597MOL0     C80473   4.602   5.918   8.149  0.1287  0.8197  0.2780
  597MOL0     C80474   4.702   5.802   8.140  0.0331  0.2702 -0.6874
  597MOL0     C80475   4.707   5.729   8.271 -0.3250  0.2304  0.2002
  597MOL0     C80476   4.770   5.820   8.377  0.2797  0.0261 -0.1242
  597MOL0     N80477   4.788   5.747   8.503 -0.3617  0.2355  0.4262
  597MOL0     C80478   4.693   5.741   8.608 -0.4140 -0.3073  0.4545
  597MOL0     C80479   4.752   5.668   8.714 -0.1226 -0.1205 -0.1064
  597MOL0     C80480   4.705   5.656   8.856  0.7989  0.4991  0.1532
  597MOL0     C80481   4.549   5.659   8.865 -0.6708  0.0896 -0.3282
  597MOL0     C80482   4.480   5.519   8.825  0.5975 -0.9024 -0.6803
  597MOL0     C80483   4.462   5.499   8.674  0.0109  0.1847 -0.0330
  597MOL0     O80484   4.383   5.604   8.610  0.1003  0.3719 -0.9059
  597MOL0     C80485   4.367   5.607   8.474 -0.1260 -0.3898  0.1411
  597MOL0     C80486   4.311   5.718   8.416  0.5767  0.0163  0.8712
  597MOL0     C80487   4.286   5.732   8.272 -1.1980 -0.1678  0.1667
  597MOL0     C80488   4.211   5.846   8.225  0.2132  0.4247 -0.2396
  597MOL0     C80489   4.315   5.617   8.187  0.2301 -0.2182 -0.3214
  597MOL0     C80490   4.289   5.612   8.034 -0.0285  0.7924  0.0897
  597MOL0     O80491   4.309   5.484   7.986  0.0687  0.2488  0.8495
  597MOL0     C80492   4.293   5.469   7.847  0.0482 -0.2121 -0.1712
  597MOL0     C80493   4.355   5.551   7.753 -0.2195 -0.1953 -0.1018
  597MOL0     C80494   4.335   5.537   7.611  0.7480 -0.2303 -0.4509
  597MOL0     C80495   4.249   5.444   7.565  0.6882 -0.2470  0.0692
  597MOL0     O80496   4.217   5.411   7.432 -0.4439  0.8037 -1.0639
  597MOL0     C80497   4.223   5.517   7.342  0.0217 -1.1611  0.0768
  597MOL0     C80498   4.175   5.480   7.203  0.6450 -0.0126 -0.4372
  597MOL0     C80499   4.027   5.455   7.195 -0.0857 -0.1191 -0.8020
  597MOL0     C80500   3.984   5.411   7.051  0.6144  0.4704  0.0469
  597MOL0     C80501   4.037   5.274   7.010  0.3722 -0.1059 -0.2208
  597MOL0     C80502   4.003   5.158   7.101  0.0668  0.2400 -0.0766
  597MOL0     C80503   4.031   5.028   7.023  0.0705  1.0449  0.1721
  597MOL0     C80504   4.021   4.915   7.125  0.4505 -0.2351  0.1606
  597MOL0    Cl80505   3.888   4.921   7.232 -0.0767 -0.5734  0.5202
  597MOL0     C80506   4.197   5.345   7.664 -0.0467 -0.6403  0.2328
  597MOL0     C80507   4.215   5.360   7.797 -0.9343  0.0417  0.6721
  597MOL0     O80508   4.271   5.716   7.967  0.5046  0.1927 -0.6217
  597MOL0     C80509   4.377   5.500   8.251  0.1293 -0.3758 -0.8572
  597MOL0     C80510   4.403   5.502   8.393  0.6830  0.1515  0.4297
  597MOL0     N80511   4.870   5.611   8.656 -0.1000 -1.4303  0.2332
  597MOL0     N80512   4.883   5.652   8.531 -0.8105  0.0226  0.6147
  597MOL0     C80513   4.501   5.968   7.497  0.5060  0.5005  0.4837
  597MOL0     C80514   4.578   5.923   7.391  0.1873 -0.0944  0.6980
  597MOL0     C80515   4.705   5.834   6.961 -0.0067 -0.1474 -0.3467
  597MOL0     C80516   4.645   5.761   6.854 -0.7697  0.9146 -0.5844
  597MOL0     C80517   4.722   5.731   6.737  1.0425 -0.2851  0.4861
  597MOL0     C80518   4.847   5.798   6.718  1.1545  0.5729  0.5868
  597MOL0     O80519   4.918   5.759   6.601  0.4100 -0.3966 -0.4636
  597MOL0     C80520   5.007   5.844   6.533 -0.0635 -0.8701  0.2502
  597MOL0     C80521   5.154   5.829   6.558 -0.6130  0.8848 -0.0909
  597MOL0     C80522   5.199   5.677   6.548  0.2855  0.7935  0.2864
  597MOL0     C80523   5.344   5.647   6.588  0.0773 -0.6875  0.9189
  597MOL0     C80524   5.381   5.705   6.721 -0.5066  1.5265  0.6558
  597MOL0     C80525   5.428   5.752   6.820 -0.4663 -0.6795 -0.5107
  597MOL0     C80526   4.907   5.867   6.820  0.8007 -0.9803 -0.9119
  597MOL0     C80527   4.831   5.893   6.934 -0.5570 -0.3821  0.5042
  597MOL0     H80528   4.524   6.196   7.188  3.7528  3.1507  1.0934
  597MOL0     H80529   4.383   6.263   7.381 -0.3774  0.9744  3.4352
  597MOL0     H80530   4.304   6.149   7.803  1.1811  1.0893 -0.0031
  597MOL0     H80531   4.329   5.987   7.735  0.0038  0.3447 -1.5659
  597MOL0     H80532   4.575   6.052   7.734 -0.0667  0.2117 -0.7951
  597MOL0     H80533   4.525   6.185   7.847  0.8898  1.0411 -2.6046
  597MOL0     H80534   4.406   6.017   7.998 -0.0122 -0.4389  0.8043
  597MOL0     H80535   4.478   5.882   7.913  0.3062 -0.2913 -0.8619
  597MOL0     H80536   4.686   5.947   7.950 -0.7444 -3.2214  2.0260
  597MOL0     H80537   4.630   6.099   8.041  0.5387 -0.4426  3.0599
  597MOL0     H80538   4.641   5.984   8.227  0.6288 -3.1694  3.7877
  597MOL0     H80539   4.501   5.884   8.175  0.6574 -1.7923 -0.7792
  597MOL0     H80540   4.679   5.732   8.059  1.1619 -0.8244 -0.1173
  597MOL0     H80541   4.803   5.842   8.130  0.5366 -0.6612  0.4103
  597MOL0     H80542   4.607   5.702   8.307 -1.4945  0.7086 -2.4371
  597MOL0     H80543   4.774   5.644   8.255  0.0028  0.9840 -3.2867
  597MOL0     H80544   4.700   5.896   8.413  1.5591  0.7495  0.9543
  597MOL0     H80545   4.868   5.852   8.339  0.3974 -1.2900 -0.9976
  597MOL0     H80546   4.604   5.804   8.607 -0.7843 -0.8118 -0.7686
  597MOL0     H80547   4.748   5.561   8.889  0.1892 -0.2690 -1.1506
  597MOL0     H80548   4.753   5.739   8.908  0.5811  0.3253  0.6411
  597MOL0     H80549   4.512   5.742   8.803 -1.4217 -0.5734 -0.7868
  597MOL0     H80550   4.522   5.661   8.971 -1.1394 -2.5196 -0.3294
  597MOL0     H80551   4.382   5.529   8.872  0.7043  0.6642 -0.7415
  597MOL0     H80552   4.539   5.440   8.872  1.9042 -1.3786 -2.9769
  597MOL0     H80553   4.401   5.408   8.663  0.7884 -0.2672 -0.7218
  597MOL0     H80554   4.557   5.487   8.621 -0.3662 -0.3311 -0.6099
  597MOL0     H80555   4.296   5.805   8.479  1.1924  3.8480 -3.7190
  597MOL0     H80556   4.112   5.810   8.196  0.4926 -1.3770  0.9162
  597MOL0     H80557   4.208   5.921   8.304  4.1559  0.8273 -0.2623
  597MOL0     H80558   4.250   5.897   8.136 -2.6369  3.4419  0.0601
  597MOL0     H80559   4.434   5.617   7.788  2.8466 -1.7826 -3.3495
  597MOL0     H80560   4.398   5.606   7.555  2.7366 -1.8916 -0.3633
  597MOL0     H80561   4.174   5.607   7.382  2.0656 -0.4524  1.1298
  597MOL0     H80562   4.328   5.548   7.338 -0.4089  0.4415  0.2988
  597MOL0     H80563   4.208   5.552   7.127 -0.7058  2.1092  0.8771
  597MOL0     H80564   4.236   5.391   7.185  2.0163  1.1068 -1.6964
  597MOL0     H80565   3.980   5.545   7.236 -0.9748 -0.3643 -1.2403
  597MOL0     H80566   3.997   5.377   7.265 -3.4897  1.4848 -0.2358
  597MOL0     H80567   3.874   5.411   7.056  0.5508 -3.1163  2.0923
  597MOL0     H80568   4.018   5.498   6.995 -1.8653  1.8592  0.5229
  597MOL0     H80569   4.146   5.283   7.003  0.7193  0.5194  3.7608
  597MOL0     H80570   3.986   5.252   6.915  0.7903  2.7942 -1.2064
  597MOL0     H80571   4.047   5.161   7.201  1.7726  1.0885 -0.8150
  597MOL0     H80572   3.894   5.157   7.116  0.3386 -0.4770  2.3290
  597MOL0     H80573   4.129   5.025   6.974 -0.4996 -0.5759 -0.9302
  597MOL0     H80574   3.947   5.011   6.956 -0.1502 -3.3139  1.2673
  597MOL0     H80575   4.109   4.937   7.187 -0.1330  1.9767  0.2930
  597MOL0     H80576   4.018   4.824   7.065  0.4736 -0.2565  0.1921
  597MOL0     H80577   4.134   5.265   7.626  0.2508 -2.5980  3.4489
  597MOL0     H80578   4.171   5.301   7.876 -1.1588  1.3347  1.5471
  597MOL0     H80579   4.416   5.412   8.200  2.2668 -0.5267  0.8744
  597MOL0     H80580   4.441   5.411   8.438 -1.7013 -2.1735 -1.8902
  597MOL0     H80581   4.508   5.911   7.589 -3.1345 -0.5671  0.2574
  597MOL0     H80582   4.637   5.834   7.410  0.6897  0.3325  1.1804
  597MOL0     H80583   4.546   5.722   6.874 -0.7450  1.5647  0.9881
  597MOL0     H80584   4.687   5.653   6.670  2.7454  0.6282 -1.5559
  597MOL0     H80585   4.989   5.831   6.426  0.1134 -2.2265  0.3733
  597MOL0     H80586   4.987   5.947   6.564  1.3531  0.4202 -2.7563
  597MOL0     H80587   5.187   5.875   6.651 -0.1174  1.9045 -0.7478
  597MOL0     H80588   5.206   5.886   6.480  1.7497 -0.4801  0.4061
  597MOL0     H80589   5.196   5.635   6.447  2.6056 -0.7235  0.7636
  597MOL0     H80590   5.130   5.608   6.598  0.7476 -2.5778 -3.2533
  597MOL0     H80591   5.411   5.698   6.519  0.2603 -0.9744  0.8829
  597MOL0     H80592   5.374   5.543   6.572  0.7174 -0.3538 -0.0781
  597MOL0     H80593   5.480   5.790   6.906  1.5854  3.0646 -3.0970
  597MOL0     H80594   5.008   5.905   6.811 -0.3100  3.0926  1.2028
  597MOL0     H80595   4.874   5.959   7.009  0.8752  2.2298 -2.4246
  598MOL0     O80596   0.764  11.170   7.533 -0.4930  0.1639  0.0845
  598MOL0     C80597   0.887  11.133   7.546  0.5606  0.3273 -0.0181
  598MOL0     O80598   0.926  11.031   7.618  0.4807  0.6322  0.5763
  598MOL0     C80599   0.821  10.984   7.691 -0.5666  0.8674 -0.2650
  598MOL0     C80600   0.804  11.038   7.817 -1.0763 -0.7315 -0.0413
  598MOL0     C80601   0.709  10.990   7.906  0.1678 -0.4201 -0.2795
  598MOL0     C80602   0.629  10.880   7.874 -0.4634 -0.2187  0.5602
  598MOL0     O80603   0.540  10.830   7.961 -0.3619 -0.6871 -0.7071
  598MOL0     C80604   0.547  10.851   8.105  0.0193  0.1956 -0.6877
  598MOL0     C80605   0.675  10.788   8.151  0.1293 -0.3178  0.0789
  598MOL0     C80606   0.677  10.772   8.295  0.2235  0.3515  0.0911
  598MOL0     C80607   0.617  10.646   8.349 -0.2411 -1.0279  0.1205
  598MOL0     C80608   0.552  10.676   8.490 -0.7182 -0.1560 -0.5202
  598MOL0     C80609   0.474  10.567   8.540  0.7108  0.5936  0.1713
  598MOL0     C80610   0.456  10.576   8.694  0.1551 -0.2945  0.6131
  598MOL0     C80611   0.383  10.451   8.748 -0.0023 -0.1228 -0.7157
  598MOL0     N80612   0.357  10.479   8.897 -0.0116  0.0548 -0.4477
  598MOL0     C80613   0.442  10.470   8.999 -0.3630 -1.1073 -0.5483
  598MOL0     C80614   0.367  10.492   9.114 -0.8471  0.2221 -0.2270
  598MOL0     C80615   0.413  10.496   9.256 -0.2584  1.3091  0.4576
  598MOL0     C80616   0.380  10.355   9.325 -0.2562  0.5418  0.2349
  598MOL0     C80617   0.417  10.378   9.470  1.1841  0.1395 -0.0466
  598MOL0     C80618   0.357  10.268   9.559 -0.6363  0.1530  0.7525
  598MOL0     O80619   0.355  10.308   9.696  0.5707 -0.2099 -0.8229
  598MOL0     C80620   0.264  10.231   9.763 -0.7117  0.6424  0.0938
  598MOL0     C80621   0.137  10.271   9.796  1.1495 -0.6726  0.5745
  598MOL0     C80622   0.045  10.190   9.849 -0.2477 -0.9108  0.3515
  598MOL0     C80623  -0.087  10.244   9.876  0.6716 -0.3235  0.0212
  598MOL0     C80624   0.070  10.049   9.874 -1.1003 -0.5867  0.4029
  598MOL0     C80625  -0.026   9.954   9.939 -0.2235 -0.0289 -0.2225
  598MOL0     O80626  -0.111   9.998  10.035 -0.7422  0.1548 -0.1301
  598MOL0     C80627  -0.165   9.920  10.137  0.7646 -0.1436  0.2909
  598MOL0     C80628  -0.122   9.789  10.184  0.8462 -1.1421  0.6732
  598MOL0     C80629  -0.190   9.730  10.295 -0.3304  0.1608  0.6196
  598MOL0     C80630  -0.305   9.793  10.354 -0.5106  0.0722  0.2361
  598MOL0     O80631  -0.346   9.734  10.477  0.3341  0.0318 -0.3613
  598MOL0     C80632  -0.464   9.781  10.553 -0.4973  0.8918  0.4168
  598MOL0     C80633  -0.470   9.700  10.673  0.6915 -0.0653  1.3718
  598MOL0     C80634  -0.372   9.735  10.783 -0.0627  0.3887 -0.1942
  598MOL0     C80635  -0.403   9.658  10.911  0.1538  0.2229  0.8091
  598MOL0     C80636  -0.300   9.668  11.028  0.2475 -0.5684 -0.0258
  598MOL0     C80637  -0.299   9.816  11.073 -0.3180 -0.0975  0.7546
  598MOL0     C80638  -0.179   9.850  11.166  0.0028 -0.2924  0.2282
  598MOL0     C80639  -0.140  10.003  11.151 -0.3463  0.1357 -0.6567
  598MOL0    Cl80640  -0.039  10.062  11.287  0.1542  0.1526 -0.4688
  598MOL0     C80641  -0.346   9.915  10.305 -0.0936  0.3125  0.1312
  598MOL0     C80642  -0.279   9.972  10.199  1.1519 -0.1493  0.2922
  598MOL0     O80643  -0.014   9.833   9.914 -0.2122  0.1884 -1.2245
  598MOL0     C80644   0.200  10.006   9.834  0.1591 -0.6999  0.0833
  598MOL0     C80645   0.299  10.095   9.796 -0.4642  0.3611 -0.6867
  598MOL0     N80646   0.238  10.510   9.072 -0.7814  0.1556 -0.1808
  598MOL0     N80647   0.226  10.496   8.946 -0.1907  0.2511 -0.5262
  598MOL0     C80648   0.646  10.824   7.748 -0.5699 -0.2702 -0.2339
  598MOL0     C80649   0.747  10.868   7.654 -0.1103 -0.4493 -0.4651
  598MOL0     C80650   0.991  11.223   7.488 -1.1537  0.4720 -0.6840
  598MOL0     C80651   0.956  11.314   7.394  0.3120 -0.3876 -0.1697
  598MOL0     C80652   1.052  11.411   7.365  1.5413 -0.3684  0.0811
  598MOL0     C80653   1.182  11.414   7.411  0.1634  0.5982  0.3130
  598MOL0     O80654   1.269  11.520   7.373 -0.3974 -0.1395  0.6183
  598MOL0     C80655   1.374  11.553   7.463  0.0799 -0.3281 -0.1567
  598MOL0     C80656   1.433  11.688   7.424 -0.2767  0.5682 -0.1747
  598MOL0     C80657   1.505  11.686   7.289 -0.4228 -0.6734 -0.3860
  598MOL0     C80658   1.650  11.621   7.289  0.8705  0.0428  0.2641
  598MOL0     C80659   1.744  11.648   7.397  0.3782  0.3037 -0.1606
  598MOL0     C80660   1.819  11.661   7.495  0.2893 -0.3211  0.3810
  598MOL0     C80661   1.216  11.323   7.503 -0.4080 -0.2748  0.0110
  598MOL0     C80662   1.129  11.223   7.546  0.2872 -0.1186 -0.0999
  598MOL0     H80663   0.875  11.117   7.840 -2.3615  0.7149 -0.8911
  598MOL0     H80664   0.704  11.050   7.997 -0.3500  3.0903 -2.4349
  598MOL0     H80665   0.548  10.957   8.131  1.4949 -0.0464  0.3586
  598MOL0     H80666   0.464  10.799   8.154  0.6732 -2.0200 -1.7891
  598MOL0     H80667   0.683  10.695   8.094  0.4907 -0.9279  1.0946
  598MOL0     H80668   0.761  10.846   8.117 -0.6126  1.0903  0.5335
  598MOL0     H80669   0.783  10.784   8.321  1.3231  0.3134 -3.7499
  598MOL0     H80670   0.622  10.859   8.332  0.1873  0.1741  0.4654
  598MOL0     H80671   0.535  10.609   8.287  0.2047 -3.3545  0.8382
  598MOL0     H80672   0.694  10.573   8.373  2.3896  2.1360  2.3447
  598MOL0     H80673   0.641  10.688   8.552 -2.5979 -1.4474  2.6699
  598MOL0     H80674   0.485  10.762   8.485 -1.6807 -0.9153 -1.3957
  598MOL0     H80675   0.383  10.564   8.480  2.2004  0.0631 -2.1863
  598MOL0     H80676   0.537  10.483   8.511  2.1814  2.5161 -2.6378
  598MOL0     H80677   0.555  10.591   8.738  0.6124  1.7477 -0.9516
  598MOL0     H80678   0.414  10.674   8.715  3.2082  0.4689  4.1998
  598MOL0     H80679   0.440  10.358   8.748  1.0935  0.5211 -0.9880
  598MOL0     H80680   0.292  10.434   8.691  0.0830 -0.2912 -0.8019
  598MOL0     H80681   0.548  10.449   8.997 -0.0106  0.5686 -2.0203
  598MOL0     H80682   0.520  10.514   9.271 -0.4899  0.7790  3.2740
  598MOL0     H80683   0.353  10.574   9.301  1.1231  1.3348  2.3629
  598MOL0     H80684   0.443  10.274   9.285  1.6254  2.4783 -0.9153
  598MOL0     H80685   0.275  10.326   9.312  0.2741 -2.2120  1.4129
  598MOL0     H80686   0.366  10.466   9.510 -1.6865 -2.4315  2.5346
  598MOL0     H80687   0.525  10.390   9.482  0.9050  4.7272 -0.4774
  598MOL0     H80688   0.395  10.167   9.538 -0.4522  0.9098 -3.4886
  598MOL0     H80689   0.256  10.266   9.518 -0.4024  1.8161  0.0191
  598MOL0     H80690   0.103  10.372   9.774 -2.8171 -1.5163  1.9955
  598MOL0     H80691  -0.088  10.304   9.967  0.4530 -3.1022  1.9794
  598MOL0     H80692  -0.116  10.316   9.799 -1.1737 -0.4179  0.5853
  598MOL0     H80693  -0.164  10.168   9.890  0.9947 -0.8106 -0.7664
  598MOL0     H80694  -0.027   9.750  10.149  1.8972  1.9165 -0.2871
  598MOL0     H80695  -0.142   9.638  10.327 -0.1399  0.0911  0.1411
  598MOL0     H80696  -0.461   9.887  10.579 -0.2173  0.5881  1.6599
  598MOL0     H80697  -0.560   9.774  10.500  0.2417 -3.0829 -0.7525
  598MOL0     H80698  -0.575   9.704  10.703  0.2424 -2.2973  0.3084
  598MOL0     H80699  -0.449   9.597  10.642  0.5027 -0.5484  2.8144
  598MOL0     H80700  -0.389   9.839  10.812  0.9188  0.5719 -0.2599
  598MOL0     H80701  -0.274   9.717  10.740  0.4852 -3.5922  2.2744
  598MOL0     H80702  -0.502   9.694  10.941  1.0743  2.3954  1.3996
  598MOL0     H80703  -0.404   9.551  10.886  2.0261  0.1009  1.0726
  598MOL0     H80704  -0.207   9.634  10.981 -0.0637 -1.2985 -0.1310
  598MOL0     H80705  -0.334   9.596  11.104  2.0167 -2.8232 -1.2401
  598MOL0     H80706  -0.276   9.879  10.986 -0.7983  0.6985  1.1901
  598MOL0     H80707  -0.385   9.864  11.120 -0.6753 -2.5373  2.8125
  598MOL0     H80708  -0.086   9.793  11.159 -0.3556 -1.0505  1.3397
  598MOL0     H80709  -0.195   9.838  11.273  1.0949 -2.1592  0.2142
  598MOL0     H80710  -0.229  10.064  11.134 -0.0884  0.6986 -0.0154
  598MOL0     H80711  -0.079  10.014  11.061  2.9424  0.4496  1.4605
  598MOL0     H80712  -0.416   9.977  10.361  1.3564  1.1577  1.0736
  598MOL0     H80713  -0.311  10.066  10.155  1.2928  0.5112  1.5563
  598MOL0     H80714   0.234   9.909   9.869 -1.3401 -1.3249 -0.1211
  598MOL0     H80715   0.397  10.065   9.759 -0.6001 -1.7556  0.5161
  598MOL0     H80716   0.586  10.736   7.728  0.7564 -1.5388  1.0937
  598MOL0     H80717   0.770  10.837   7.552  3.2555 -0.0506  0.0578
  598MOL0     H80718   0.859  11.315   7.344  0.2440 -0.4718 -0.0407
  598MOL0     H80719   1.013  11.486   7.297 -1.9668 -3.0935 -1.2674
  598MOL0     H80720   1.341  11.565   7.567  1.6195 -0.8485  0.4169
  598MOL0     H80721   1.454  11.479   7.456  3.3504  2.9645 -0.5326
  598MOL0     H80722   1.497  11.718   7.508 -1.1838  1.4550  0.2254
  598MOL0     H80723   1.358  11.768   7.418  0.9641  1.6842 -1.2244
  598MOL0     H80724   1.514  11.788   7.250  0.3983 -0.3123  0.7105
  598MOL0     H80725   1.446  11.636   7.212 -2.9928 -0.6650  1.4324
  598MOL0     H80726   1.702  11.662   7.202  2.4184 -2.1763  0.0679
  598MOL0     H80727   1.640  11.517   7.258 -1.6428  0.4431 -0.5058
  598MOL0     H80728   1.882  11.670   7.581  3.0542 -1.9871 -1.2792
  598MOL0     H80729   1.318  11.313   7.538  1.0851  3.1185 -2.6883
  598MOL0     H80730   1.148  11.147   7.621  0.7773  3.0086  3.3118
  599MOL0     O80731   1.775  11.437   1.017  0.5689 -0.1355 -0.1264
  599MOL0     C80732   1.758  11.488   0.911  0.1854 -0.1859  0.0288
  599MOL0     O80733   1.855  11.563   0.841  0.0633  0.5093  0.1570
  599MOL0     C80734   1.978  11.533   0.878  0.0083  0.3132  0.4433
  599MOL0     C80735   2.056  11.449   0.794  1.2318 -0.3966 -0.5397
  599MOL0     C80736   2.187  11.435   0.814  0.2254 -0.9699  0.4791
  599MOL0     C80737   2.248  11.502   0.924 -0.5290  0.3236  0.0060
  599MOL0     O80738   2.377  11.485   0.967  0.3691 -0.7018 -0.3137
  599MOL0     C80739   2.442  11.371   0.915  0.1154 -0.1730  0.6591
  599MOL0     C80740   2.571  11.356   1.003 -0.0236  0.4864 -0.2791
  599MOL0     C80741   2.686  11.268   0.951 -0.5972  0.5206 -0.5273
  599MOL0     C80742   2.806  11.287   1.044 -0.4335 -0.2252  0.4395
  599MOL0     C80743   2.942  11.236   0.989 -0.2226  1.0935  0.4558
  599MOL0     C80744   3.061  11.247   1.087 -0.4222 -0.4049  0.8145
  599MOL0     C80745   3.091  11.396   1.127  1.2651  0.3466 -0.2782
  599MOL0     C80746   3.075  11.418   1.284 -0.8212  0.8533  0.2486
  599MOL0     N80747   2.934  11.420   1.325 -0.2924  0.6414 -0.5352
  599MOL0     C80748   2.858  11.318   1.373  0.4132  0.4344  1.6212
  599MOL0     C80749   2.745  11.377   1.422  0.4513  0.3339 -0.3436
  599MOL0     C80750   2.630  11.304   1.482  0.6388  0.3224 -0.5016
  599MOL0     C80751   2.513  11.281   1.391 -0.3554  0.5776  0.8008
  599MOL0     C80752   2.423  11.397   1.361 -0.6880  0.3470  0.6669
  599MOL0     C80753   2.324  11.444   1.468 -0.0724  0.4838 -0.7731
  599MOL0     O80754   2.405  11.504   1.571 -0.5132 -1.0208 -0.4122
  599MOL0     C80755   2.394  11.642   1.591  0.7428 -1.0628  0.6275
  599MOL0     C80756   2.269  11.713   1.634 -0.3418 -0.4576 -0.5063
  599MOL0     C80757   2.259  11.856   1.641 -0.4150  0.3583  0.0023
  599MOL0     C80758   2.126  11.912   1.685 -1.1974  0.1831 -0.2576
  599MOL0     C80759   2.367  11.931   1.603 -0.2048 -0.1029  0.2177
  599MOL0     C80760   2.364  12.076   1.610  0.1955  0.0653 -0.4207
  599MOL0     O80761   2.284  12.154   1.533  0.7051  0.0672  1.3278
  599MOL0     C80762   2.308  12.285   1.545 -0.5273 -1.0058 -0.5106
  599MOL0     C80763   2.220  12.382   1.600 -0.1047  0.1607  0.3136
  599MOL0     C80764   2.247  12.515   1.606  0.5071  0.2392 -0.0185
  599MOL0     C80765   2.375  12.560   1.564 -1.0975 -0.3537  0.3286
  599MOL0     O80766   2.409  12.686   1.584  0.1365 -0.0060  0.4460
  599MOL0     C80767   2.317  12.783   1.536  0.3983 -0.2373  0.9869
  599MOL0     C80768   2.379  12.916   1.565  0.2978 -0.7623  0.0763
  599MOL0     C80769   2.293  13.046   1.531  0.0661  0.3815 -0.5111
  599MOL0     C80770   2.359  13.170   1.572 -0.1268 -0.0133  0.3227
  599MOL0     C80771   2.274  13.289   1.614 -0.1343  0.4702 -0.5765
  599MOL0     C80772   2.361  13.391   1.683  0.0932  0.0815 -0.3587
  599MOL0     C80773   2.390  13.370   1.835 -0.3705  0.9663  0.1232
  599MOL0     C80774   2.524  13.440   1.881  0.2050  0.6643 -0.0986
  599MOL0    Cl80775   2.489  13.622   1.870 -0.5845 -0.1115 -0.1344
  599MOL0     C80776   2.460  12.467   1.504 -1.1090  0.7040 -0.3646
  599MOL0     C80777   2.435  12.333   1.513  0.3009  0.5488 -0.2204
  599MOL0     O80778   2.438  12.116   1.701  0.3978 -0.1602  0.3550
  599MOL0     C80779   2.484  11.866   1.554 -0.2804  0.4999  1.1173
  599MOL0     C80780   2.498  11.721   1.547  0.1406  0.1226  0.7739
  599MOL0     N80781   2.759  11.513   1.421 -0.5145 -0.7956 -0.4787
  599MOL0     N80782   2.867  11.534   1.358  1.1079 -0.0241  0.4795
  599MOL0     C80783   2.175  11.587   1.006 -0.3854  0.4392  0.6366
  599MOL0     C80784   2.045  11.606   0.989  0.3339 -0.6749  0.4731
  599MOL0     C80785   1.620  11.512   0.854  0.0961 -0.3215 -1.1876
  599MOL0     C80786   1.605  11.560   0.726 -0.1092 -0.5517 -0.1950
  599MOL0     C80787   1.472  11.598   0.676  0.1056  0.6135 -0.7964
  599MOL0     C80788   1.358  11.558   0.757  0.7183 -0.0814  0.1640
  599MOL0     O80789   1.236  11.568   0.695  0.1157 -0.3245  0.0642
  599MOL0     C80790   1.116  11.533   0.769 -0.4194 -0.6975 -0.6153
  599MOL0     C80791   0.985  11.546   0.686  0.0147  0.0767  0.3775
  599MOL0     C80792   0.965  11.679   0.597  0.5960 -0.1275 -0.2135
  599MOL0     C80793   0.838  11.683   0.526  0.5181 -0.0211  0.2237
  599MOL0     C80794   0.835  11.583   0.416  0.3835  0.8480  0.9749
  599MOL0     C80795   0.847  11.502   0.320  0.3317  0.9430  0.0317
  599MOL0     C80796   1.381  11.505   0.888 -0.8537  0.3009 -0.2187
  599MOL0     C80797   1.514  11.486   0.938 -0.3849 -0.3268  0.0338
  599MOL0     H80798   1.994  11.396   0.722  2.9332 -1.5404 -1.2278
  599MOL0     H80799   2.243  11.367   0.751 -2.4483 -4.5070  1.5830
  599MOL0     H80800   2.387  11.276   0.917  1.6403 -1.0809  2.8516
  599MOL0     H80801   2.478  11.387   0.812  4.0561 -0.7551  1.7827
  599MOL0     H80802   2.599  11.459   1.029 -1.5909  0.2692  2.6090
  599MOL0     H80803   2.534  11.314   1.096 -1.1230  1.1505 -0.4002
  599MOL0     H80804   2.660  11.161   0.956  2.1658 -0.2917 -1.8050
  599MOL0     H80805   2.703  11.287   0.845  0.6786 -2.2477 -0.9146
  599MOL0     H80806   2.796  11.393   1.070 -5.0109 -0.4231  0.3622
  599MOL0     H80807   2.775  11.240   1.138 -1.6644  1.0959  0.7341
  599MOL0     H80808   2.931  11.132   0.958 -2.4170 -0.3894  5.2612
  599MOL0     H80809   2.960  11.309   0.910 -0.9405  1.5885  0.7367
  599MOL0     H80810   3.033  11.187   1.174 -1.6651  1.9833  2.1527
  599MOL0     H80811   3.150  11.217   1.031 -0.4101  3.8089 -1.8929
  599MOL0     H80812   3.191  11.431   1.101  0.4201  2.7424 -0.5620
  599MOL0     H80813   3.018  11.462   1.078 -0.1520 -1.9399 -1.4004
  599MOL0     H80814   3.136  11.506   1.307  1.1973 -0.7611  1.4135
  599MOL0     H80815   3.127  11.335   1.333  0.1170  1.8710  1.0172
  599MOL0     H80816   2.887  11.213   1.377 -1.6253 -0.1400  3.0061
  599MOL0     H80817   2.656  11.205   1.521 -0.0982  1.5096  3.3386
  599MOL0     H80818   2.599  11.351   1.575  1.1250 -2.9278  1.4515
  599MOL0     H80819   2.451  11.201   1.433 -0.0635 -0.5198 -0.7600
  599MOL0     H80820   2.546  11.235   1.298  0.2119  1.2651  0.6529
  599MOL0     H80821   2.358  11.372   1.276  0.3251  3.5911 -1.2277
  599MOL0     H80822   2.477  11.489   1.340  1.4341 -0.4425  2.2510
  599MOL0     H80823   2.254  11.371   1.511  2.5419 -1.6498  0.1316
  599MOL0     H80824   2.264  11.520   1.419 -3.5431 -2.7774 -2.0912
  599MOL0     H80825   2.190  11.643   1.657  2.1003 -3.7167 -1.3557
  599MOL0     H80826   2.047  11.923   1.611 -0.7379  0.7207 -0.6760
  599MOL0     H80827   2.094  11.830   1.749  2.4210 -2.1749 -1.1602
  599MOL0     H80828   2.143  12.011   1.729  0.8627 -1.1551  2.2557
  599MOL0     H80829   2.120  12.355   1.631 -1.0224  2.2251 -0.6136
  599MOL0     H80830   2.179  12.580   1.660  1.0498  1.0183 -0.2456
  599MOL0     H80831   2.312  12.789   1.427  0.5010  1.6039  1.0577
  599MOL0     H80832   2.223  12.767   1.588 -1.1340 -0.5870 -1.6922
  599MOL0     H80833   2.396  12.922   1.673 -0.0239 -2.6594  0.2667
  599MOL0     H80834   2.469  12.911   1.503 -0.7279 -3.0251 -1.3541
  599MOL0     H80835   2.195  13.047   1.581  0.0182  4.8142 -0.3309
  599MOL0     H80836   2.273  13.032   1.424  1.4845  0.9758 -0.8759
  599MOL0     H80837   2.421  13.156   1.661 -0.4361  0.9935  0.7185
  599MOL0     H80838   2.423  13.208   1.492 -0.8182  2.9222  1.0281
  599MOL0     H80839   2.189  13.257   1.674 -3.0039  2.3412 -3.3226
  599MOL0     H80840   2.230  13.329   1.523 -0.0140 -1.2837 -1.4524
  599MOL0     H80841   2.458  13.399   1.634 -0.3555  0.9130 -1.1295
  599MOL0     H80842   2.319  13.491   1.673 -2.2411 -0.7881  0.0544
  599MOL0     H80843   2.398  13.263   1.852 -3.6992  0.5522 -0.1730
  599MOL0     H80844   2.303  13.408   1.889  1.3823  3.9135  1.1010
  599MOL0     H80845   2.606  13.406   1.817 -3.0300 -2.4533 -3.0350
  599MOL0     H80846   2.549  13.410   1.983  3.3212 -2.6318 -1.5848
  599MOL0     H80847   2.564  12.489   1.480 -0.3504 -2.4132 -0.2608
  599MOL0     H80848   2.512  12.269   1.472  0.0329  0.2152 -0.2053
  599MOL0     H80849   2.562  11.927   1.510 -0.9295 -0.6516 -1.8514
  599MOL0     H80850   2.584  11.673   1.501 -0.5135 -2.0003  1.6453
  599MOL0     H80851   2.224  11.654   1.076  0.3138 -1.5028  2.0939
  599MOL0     H80852   1.992  11.683   1.044 -0.4053 -0.8395  0.0068
  599MOL0     H80853   1.686  11.559   0.654 -0.3134 -0.4322 -0.4254
  599MOL0     H80854   1.445  11.614   0.572 -2.7960  0.1851 -0.2113
  599MOL0     H80855   1.124  11.435   0.817  1.6508  0.3579  1.3457
  599MOL0     H80856   1.100  11.598   0.855  0.4439  0.1349 -1.0705
  599MOL0     H80857   0.894  11.545   0.747 -0.2055 -2.3990  0.1424
  599MOL0     H80858   0.977  11.456   0.623 -0.2315  0.0096  0.5023
  599MOL0     H80859   1.049  11.677   0.527  0.2220 -1.8067 -0.6680
  599MOL0     H80860   0.971  11.765   0.663  7.4135 -2.3726  3.0444
  599MOL0     H80861   0.830  11.781   0.477 -0.8541  1.0880  2.4913
  599MOL0     H80862   0.753  11.684   0.595 -0.1242 -1.3328 -0.5142
  599MOL0     H80863   0.845  11.433   0.238 -0.8514  1.2898 -0.2587
  599MOL0     H80864   1.297  11.465   0.944 -1.7557  0.2340 -1.5683
  599MOL0     H80865   1.536  11.449   1.038  0.0644 -1.2277 -0.3874
  600MOL0     O80866   0.255   3.493   2.487 -0.3829  0.0038  0.4547
  600MOL0     C80867   0.166   3.419   2.455  0.2988 -0.2402 -0.6826
  600MOL0     O80868   0.116   3.415   2.331 -1.1305  0.2832  0.7384
  600MOL0     C80869   0.194   3.465   2.229  0.1577  0.1154 -0.1000
  600MOL0     C80870   0.130   3.551   2.145  0.3423  0.0710  0.5893
  600MOL0     C80871   0.191   3.603   2.033 -0.7603 -0.2871 -0.4746
  600MOL0     C80872   0.328   3.569   2.007  0.6487 -0.9611 -0.5213
  600MOL0     O80873   0.406   3.619   1.905 -0.6675  0.1807 -0.0086
  600MOL0     C80874   0.338   3.632   1.770 -0.0810  0.0131 -0.0406
  600MOL0     C80875   0.436   3.684   1.668 -0.9043 -0.3086  0.7378
  600MOL0     C80876   0.391   3.658   1.518  0.2846 -0.3846  0.2038
  600MOL0     C80877   0.484   3.724   1.402 -0.2620  0.8733 -0.5675
  600MOL0     C80878   0.423   3.713   1.258  0.5234 -0.5425  0.1996
  600MOL0     C80879   0.439   3.572   1.201 -0.1997 -0.3355 -0.1153
  600MOL0     C80880   0.370   3.573   1.058  0.2415 -0.7033 -0.2575
  600MOL0     C80881   0.395   3.449   0.979  0.1941  0.2728  0.4934
  600MOL0     N80882   0.361   3.326   1.041  0.9548  0.1109 -0.2149
  600MOL0     C80883   0.229   3.284   1.067  0.3973 -0.0655  0.3314
  600MOL0     C80884   0.235   3.154   1.086  0.9683 -0.3908  0.5964
  600MOL0     C80885   0.106   3.084   1.124  0.2729  0.2508 -0.0656
  600MOL0     C80886   0.016   3.058   0.999  0.4176 -0.7892  0.4363
  600MOL0     C80887  -0.051   3.182   0.940 -1.0341 -0.3668  0.4090
  600MOL0     C80888  -0.197   3.146   0.890 -0.0630  0.3630 -0.4029
  600MOL0     O80889  -0.268   3.258   0.837 -0.2674 -0.7167 -0.0837
  600MOL0     C80890  -0.348   3.233   0.728 -0.6595 -0.8329  0.4498
  600MOL0     C80891  -0.348   3.333   0.629  0.6848 -0.0973  0.5049
  600MOL0     C80892  -0.406   3.332   0.501 -0.1590 -0.7209 -1.0997
  600MOL0     C80893  -0.349   3.432   0.396  0.4184  0.4493 -0.3334
  600MOL0     C80894  -0.489   3.220   0.472 -0.8936  0.8356 -0.5036
  600MOL0     C80895  -0.561   3.207   0.351  0.0124 -0.7323 -0.2847
  600MOL0     O80896  -0.600   3.320   0.280 -0.0120 -0.6395  0.5570
  600MOL0     C80897  -0.684   3.340   0.168 -1.1003 -0.1641 -0.4174
  600MOL0     C80898  -0.781   3.250   0.122  0.2759  0.3869 -0.1409
  600MOL0     C80899  -0.863   3.293   0.019  0.6930 -0.2857 -0.4891
  600MOL0     C80900  -0.865   3.421  -0.023 -0.2110 -0.7262 -0.8625
  600MOL0     O80901  -0.950   3.444  -0.131 -0.1567  0.1386 -0.6179
  600MOL0     C80902  -0.940   3.568  -0.195 -0.2997 -0.4178 -0.2843
  600MOL0     C80903  -1.058   3.579  -0.295 -0.7563 -0.0563 -1.0988
  600MOL0     C80904  -1.069   3.718  -0.356  0.7126 -0.0386  0.7514
  600MOL0     C80905  -1.194   3.731  -0.445 -0.2753 -0.4991  0.6683
  600MOL0     C80906  -1.211   3.876  -0.498 -0.5666 -0.8037 -0.9439
  600MOL0     C80907  -1.361   3.922  -0.520 -0.9531 -0.2377 -0.1022
  600MOL0     C80908  -1.425   3.823  -0.624  0.0704 -0.4881 -0.8372
  600MOL0     C80909  -1.569   3.871  -0.649  0.0359  0.0793  0.1698
  600MOL0    Cl80910  -1.673   3.853  -0.510  0.4877 -0.2275 -0.3316
  600MOL0     C80911  -0.780   3.511   0.032  0.7105 -0.0911 -0.1896
  600MOL0     C80912  -0.689   3.478   0.120 -1.1766  0.7129  0.2352
  600MOL0     O80913  -0.592   3.096   0.317 -0.2052  0.1548  0.1011
  600MOL0     C80914  -0.502   3.116   0.578  0.2262 -0.0392 -0.1931
  600MOL0     C80915  -0.423   3.124   0.702  0.2190  0.8241 -0.1415
  600MOL0     N80916   0.361   3.112   1.077  0.1520 -0.2344  0.1132
  600MOL0     N80917   0.436   3.214   1.048  1.0218  0.2144  0.5118
  600MOL0     C80918   0.391   3.481   2.087 -0.2849  0.1652 -1.4646
  600MOL0     C80919   0.323   3.423   2.198 -0.0941 -0.2259 -1.0359
  600MOL0     C80920   0.139   3.306   2.544 -0.6334 -0.1093 -0.2001
  600MOL0     C80921   0.232   3.238   2.617 -0.6661  0.7816 -0.6396
  600MOL0     C80922   0.204   3.130   2.704 -0.2272 -0.2083  0.0942
  600MOL0     C80923   0.076   3.096   2.709 -0.2706  0.2597  0.5286
  600MOL0     O80924   0.029   2.995   2.792 -0.2062  0.2192  0.2848
  600MOL0     C80925   0.081   2.991   2.930  0.7585 -0.2701  0.6129
  600MOL0     C80926   0.018   3.102   3.006 -0.3339 -0.0277  0.3746
  600MOL0     C80927   0.084   3.121   3.149 -0.3746  0.1627  0.4206
  600MOL0     C80928   0.039   3.019   3.263 -0.8214  1.2954 -0.4871
  600MOL0     C80929   0.133   2.907   3.277  0.4882 -0.4199  0.0362
  600MOL0     C80930   0.223   2.823   3.292  0.3252  0.0871 -1.0371
  600MOL0     C80931  -0.025   3.148   2.627 -0.3350  0.7235  0.1379
  600MOL0     C80932   0.007   3.250   2.544 -0.2370  0.2290  0.0450
  600MOL0     H80933   0.027   3.569   2.175 -0.9009 -4.1937 -0.3568
  600MOL0     H80934   0.136   3.686   1.990  0.7073  0.7260 -0.4641
  600MOL0     H80935   0.297   3.535   1.743 -0.6981  0.4184 -0.6090
  600MOL0     H80936   0.255   3.702   1.779 -1.0495 -1.3689  3.5363
  600MOL0     H80937   0.451   3.790   1.688  2.4757 -0.6717  0.7395
  600MOL0     H80938   0.533   3.637   1.689  0.7404  1.8647 -1.4223
  600MOL0     H80939   0.374   3.552   1.495 -3.7134  0.3667 -1.1584
  600MOL0     H80940   0.295   3.706   1.497  1.6245  1.1580 -2.9785
  600MOL0     H80941   0.488   3.833   1.415 -0.0067  0.6495  1.6146
  600MOL0     H80942   0.589   3.695   1.405  0.6453  3.8371  1.6776
  600MOL0     H80943   0.319   3.748   1.260  1.3342  2.1734  2.8747
  600MOL0     H80944   0.479   3.782   1.195  0.8507  0.2379  1.2983
  600MOL0     H80945   0.544   3.544   1.198 -0.1366 -0.1281  0.1810
  600MOL0     H80946   0.384   3.505   1.269 -5.1511  1.6488 -1.6886
  600MOL0     H80947   0.262   3.583   1.070  0.0637  2.3943 -3.0072
  600MOL0     H80948   0.404   3.661   1.003 -0.1629  0.4697  1.2724
  600MOL0     H80949   0.495   3.450   0.933 -0.1232 -0.9780 -0.2624
  600MOL0     H80950   0.336   3.437   0.888  1.3794  1.7881 -0.5253
  600MOL0     H80951   0.139   3.344   1.078  1.2070  0.7872  2.8881
  600MOL0     H80952   0.120   2.985   1.169 -0.2174  0.3133  0.2251
  600MOL0     H80953   0.059   3.150   1.198  0.0450 -0.7542  0.7069
  600MOL0     H80954  -0.060   2.988   1.035  0.2135  0.1868  2.0347
  600MOL0     H80955   0.064   3.007   0.915  0.1164 -1.8456  0.8873
  600MOL0     H80956   0.006   3.223   0.856 -2.0934  0.5515  0.1167
  600MOL0     H80957  -0.063   3.261   1.015  0.0125 -1.3161  1.6233
  600MOL0     H80958  -0.260   3.110   0.972  3.0446  0.8202  2.4041
  600MOL0     H80959  -0.189   3.065   0.817  0.0682  0.2898 -0.3070
  600MOL0     H80960  -0.293   3.424   0.650 -1.0297  1.5721 -1.7200
  600MOL0     H80961  -0.262   3.481   0.441 -0.7023  1.9092  0.3334
  600MOL0     H80962  -0.331   3.367   0.310 -1.8834 -2.0815  0.9362
  600MOL0     H80963  -0.415   3.510   0.359  1.7944  0.6124 -2.6077
  600MOL0     H80964  -0.789   3.147   0.156  1.4431  0.1432 -0.5351
  600MOL0     H80965  -0.938   3.230  -0.027 -0.6979 -0.2264  1.5691
  600MOL0     H80966  -0.952   3.641  -0.115  0.1284 -0.1494 -0.4640
  600MOL0     H80967  -0.839   3.592  -0.229  0.0260  0.1550  1.0146
  600MOL0     H80968  -1.037   3.501  -0.369 -2.9815 -0.5994 -1.2240
  600MOL0     H80969  -1.149   3.539  -0.248  0.3685 -1.2436  0.1566
  600MOL0     H80970  -0.985   3.742  -0.422 -0.8356 -1.2516 -1.8006
  600MOL0     H80971  -1.086   3.789  -0.274 -1.9191  1.0870 -0.6355
  600MOL0     H80972  -1.178   3.662  -0.528 -0.3023  0.2091  0.0661
  600MOL0     H80973  -1.285   3.692  -0.397  0.0718 -0.8682  1.0340
  600MOL0     H80974  -1.153   3.873  -0.591  3.3845  0.0507  1.2319
  600MOL0     H80975  -1.155   3.945  -0.434 -1.4666 -1.1934  0.3138
  600MOL0     H80976  -1.414   3.923  -0.425 -0.7613 -2.2570  0.0571
  600MOL0     H80977  -1.369   4.030  -0.540 -1.3619 -0.0384  1.0444
  600MOL0     H80978  -1.432   3.722  -0.582 -0.6298  0.3605  1.2083
  600MOL0     H80979  -1.360   3.818  -0.712  1.8619  3.6729  0.0111
  600MOL0     H80980  -1.618   3.818  -0.731 -1.0796  0.3473  0.6466
  600MOL0     H80981  -1.570   3.978  -0.673 -1.7553  0.2059  0.6107
  600MOL0     H80982  -0.775   3.608  -0.016 -3.7947 -1.2940 -3.8270
  600MOL0     H80983  -0.601   3.534   0.150  0.4244  0.0486 -2.7833
  600MOL0     H80984  -0.568   3.033   0.556  1.6599 -0.7171 -2.3023
  600MOL0     H80985  -0.429   3.037   0.766  0.8045  0.5832 -0.4042
  600MOL0     H80986   0.494   3.454   2.068  0.0906  1.7099 -1.7411
  600MOL0     H80987   0.367   3.347   2.263 -1.7214 -0.7767 -0.5301
  600MOL0     H80988   0.336   3.265   2.597  0.5539 -2.5672  0.4539
  600MOL0     H80989   0.279   3.080   2.765  0.2749  0.2355 -0.1505
  600MOL0     H80990   0.054   2.893   2.970  1.7282 -0.6357  0.4121
  600MOL0     H80991   0.190   3.001   2.917  0.3927  1.4384 -1.6609
  600MOL0     H80992  -0.089   3.081   3.012 -0.2397 -0.3039  1.2051
  600MOL0     H80993   0.055   3.191   2.955  2.7064 -1.1645  0.3398
  600MOL0     H80994   0.053   3.221   3.179  0.6886  0.1915  1.5316
  600MOL0     H80995   0.192   3.128   3.136 -0.1890 -3.7444 -1.7781
  600MOL0     H80996  -0.068   2.998   3.249 -1.5103  3.7005  0.6489
  600MOL0     H80997   0.037   3.068   3.361  2.2445  0.3287  0.1566
  600MOL0     H80998   0.304   2.752   3.286 -0.0727 -0.4393 -0.3206
  600MOL0     H80999  -0.125   3.106   2.638 -1.5744  3.3719 -0.1548
  600MOL0     H81000  -0.077   3.280   2.481  0.4801  0.4191 -0.8462
  601MOL0     O81001  11.379   4.902   9.230  0.6656 -0.2980 -0.4591
  601MOL0     C81002  11.398   4.999   9.162  1.1064  0.0728  0.1790
  601MOL0     O81003  11.480   5.017   9.053  0.4579  0.7714  0.2468
  601MOL0     C81004  11.552   4.916   8.995 -0.1171 -0.5785 -1.2096
  601MOL0     C81005  11.616   4.946   8.877  0.1389 -0.9692  0.4498
  601MOL0     C81006  11.685   4.852   8.802 -0.0391 -0.5311  0.1396
  601MOL0     C81007  11.709   4.721   8.845 -0.2557 -0.1612  0.3233
  601MOL0     O81008  11.783   4.635   8.762  0.1388  0.5934 -0.0373
  601MOL0     C81009  11.778   4.492   8.792 -0.5098 -1.0157 -0.0216
  601MOL0     C81010  11.870   4.420   8.686  0.0056 -0.3322 -0.2319
  601MOL0     C81011  11.878   4.259   8.687  0.3105 -0.0731 -0.5841
  601MOL0     C81012  11.903   4.197   8.551 -0.2506  0.6434 -0.5208
  601MOL0     C81013  11.972   4.074   8.567  0.3065 -0.5816  0.8769
  601MOL0     C81014  12.029   4.025   8.433 -0.5273  0.5404  0.6922
  601MOL0     C81015  12.090   3.885   8.458  0.5880 -0.3131  0.5395
  601MOL0     C81016  11.988   3.767   8.492  0.2551 -0.7010  0.3724
  601MOL0     N81017  11.891   3.741   8.383  0.1693  0.6364 -1.0476
  601MOL0     C81018  11.772   3.810   8.364  0.2996 -0.1332 -0.8084
  601MOL0     C81019  11.713   3.745   8.261 -0.4490 -0.0294  0.0539
  601MOL0     C81020  11.590   3.792   8.192 -0.1441 -0.4473  0.6241
  601MOL0     C81021  11.476   3.726   8.258  0.5034 -0.1985  0.8667
  601MOL0     C81022  11.357   3.725   8.160 -0.7679  0.1555  0.1083
  601MOL0     C81023  11.316   3.859   8.103 -0.8704 -0.4829 -0.4784
  601MOL0     O81024  11.274   3.946   8.208 -0.2507 -0.3133 -0.4525
  601MOL0     C81025  11.250   4.073   8.193 -0.3421 -0.0717 -0.6835
  601MOL0     C81026  11.204   4.148   8.303  0.0275 -0.9712  0.7180
  601MOL0     C81027  11.181   4.285   8.294 -0.1584  0.3983  0.0954
  601MOL0     C81028  11.121   4.345   8.414 -0.1264  0.0578  0.6887
  601MOL0     C81029  11.216   4.352   8.177 -1.3987 -0.0159 -0.2400
  601MOL0     C81030  11.194   4.497   8.157  0.8219  0.8530  0.9452
  601MOL0     O81031  11.108   4.564   8.238 -0.1438 -0.8853 -0.0715
  601MOL0     C81032  11.102   4.698   8.219  0.4431  0.7298 -0.3724
  601MOL0     C81033  11.205   4.780   8.270  0.2337 -0.3154  0.3638
  601MOL0     C81034  11.217   4.912   8.236 -0.0266 -0.7329  0.9312
  601MOL0     C81035  11.119   4.971   8.156 -1.2054 -0.7652 -0.3072
  601MOL0     O81036  11.117   5.112   8.137  0.3026  0.2156 -0.7253
  601MOL0     C81037  11.052   5.192   8.235  1.3692  0.4598 -0.0429
  601MOL0     C81038  11.152   5.252   8.335  0.0685 -0.1562  0.0430
  601MOL0     C81039  11.101   5.396   8.355 -0.9896  0.2426  0.7830
  601MOL0     C81040  10.968   5.406   8.425  0.4121  0.2875 -0.3997
  601MOL0     C81041  10.903   5.542   8.397  0.9207 -0.4001  0.6960
  601MOL0     C81042  10.968   5.655   8.474  0.9094  0.1357 -0.4978
  601MOL0     C81043  10.934   5.797   8.422  0.2096  0.2524  0.1416
  601MOL0     C81044  10.783   5.816   8.422  0.3523 -0.1984 -0.0867
  601MOL0    Cl81045  10.750   5.990   8.409 -0.0161  0.3517  0.1611
  601MOL0     C81046  11.027   4.892   8.086  0.7787 -0.0794 -0.4709
  601MOL0     C81047  11.004   4.757   8.132 -0.4483 -0.3614  0.1851
  601MOL0     O81048  11.256   4.546   8.055 -0.2182  1.2475  0.0535
  601MOL0     C81049  11.281   4.285   8.075  0.3580  0.3521 -0.3663
  601MOL0     C81050  11.293   4.143   8.086  0.0439 -0.4389  0.2426
  601MOL0     N81051  11.785   3.638   8.215  0.1975  0.1988 -0.0600
  601MOL0     N81052  11.892   3.646   8.286 -0.6273  0.8091 -0.3984
  601MOL0     C81053  11.656   4.698   8.974 -0.2892  0.9600 -0.7404
  601MOL0     C81054  11.570   4.787   9.044 -0.3865  0.1781 -0.5266
  601MOL0     C81055  11.309   5.119   9.190 -0.3934  0.1500  0.6960
  601MOL0     C81056  11.193   5.113   9.260  0.5855  0.1975  0.3384
  601MOL0     C81057  11.127   5.231   9.311  0.3248  0.9004  0.6272
  601MOL0     C81058  11.177   5.353   9.277 -0.1321 -0.0208 -0.0080
  601MOL0     O81059  11.133   5.477   9.324  0.6081  0.3534 -0.3149
  601MOL0     C81060  11.026   5.479   9.417 -0.2998  0.3630  0.0128
  601MOL0     C81061  11.077   5.440   9.553 -0.5906 -0.4492 -0.6038
  601MOL0     C81062  11.150   5.555   9.625  0.1505  0.8079  0.4925
  601MOL0     C81063  11.270   5.635   9.547  0.4374 -0.7014  0.4265
  601MOL0     C81064  11.352   5.688   9.656  0.3245  0.5762  0.4637
  601MOL0     C81065  11.413   5.738   9.743 -0.0036 -0.6029  0.5346
  601MOL0     C81066  11.286   5.358   9.189  0.2060  0.1245  0.3285
  601MOL0     C81067  11.357   5.243   9.148  0.0295  0.6643 -0.2866
  601MOL0     H81068  11.591   5.044   8.836 -1.0530 -1.1688  0.6582
  601MOL0     H81069  11.732   4.881   8.708 -0.2030 -2.8797 -0.7391
  601MOL0     H81070  11.806   4.467   8.895  0.8028 -1.0856 -0.3807
  601MOL0     H81071  11.676   4.456   8.778 -0.4186 -0.7501 -1.5633
  601MOL0     H81072  11.836   4.463   8.591 -0.2339 -0.0328 -0.0120
  601MOL0     H81073  11.970   4.457   8.711  0.0001 -0.1472 -0.4807
  601MOL0     H81074  11.932   4.217   8.772 -1.7016  1.2690  1.4717
  601MOL0     H81075  11.774   4.233   8.706  0.4893 -0.4985 -0.1707
  601MOL0     H81076  11.815   4.185   8.488  2.0703  0.3738 -3.9532
  601MOL0     H81077  11.970   4.261   8.492  1.8858 -0.2644  0.7854
  601MOL0     H81078  12.046   4.073   8.647 -2.9550 -1.2335  4.1331
  601MOL0     H81079  11.899   4.000   8.602 -0.0492 -0.6837 -0.0493
  601MOL0     H81080  11.954   4.011   8.355 -0.1070 -0.7933  0.5071
  601MOL0     H81081  12.088   4.103   8.383 -1.6200  0.6260 -0.5055
  601MOL0     H81082  12.144   3.850   8.369  0.0818  0.2152  0.0187
  601MOL0     H81083  12.172   3.887   8.530  2.3596 -0.0720 -1.3714
  601MOL0     H81084  11.930   3.776   8.585 -2.0355  0.4769 -1.0745
  601MOL0     H81085  12.050   3.678   8.499  2.2706  0.5043 -1.2345
  601MOL0     H81086  11.729   3.893   8.419 -1.6502 -1.5720 -0.0436
  601MOL0     H81087  11.579   3.901   8.184  0.2812 -0.4415  0.0375
  601MOL0     H81088  11.597   3.759   8.087  0.1232  1.1374  0.1160
  601MOL0     H81089  11.437   3.772   8.350 -3.7820 -3.1001  0.8282
  601MOL0     H81090  11.499   3.621   8.280 -0.4740 -0.6627 -0.2252
  601MOL0     H81091  11.263   3.691   8.204 -2.6135  2.4217 -1.8489
  601MOL0     H81092  11.371   3.659   8.074 -1.2686  1.6541 -1.1528
  601MOL0     H81093  11.239   3.863   8.025  1.4612  0.0042 -2.9092
  601MOL0     H81094  11.403   3.901   8.053  0.2480 -0.4756  1.3989
  601MOL0     H81095  11.179   4.096   8.395 -0.7109  0.7695  1.5452
  601MOL0     H81096  11.137   4.281   8.501 -0.2311  0.1955  0.8096
  601MOL0     H81097  11.172   4.440   8.429  0.4935  0.5042 -3.1867
  601MOL0     H81098  11.012   4.356   8.407 -0.0360  0.6621  0.2374
  601MOL0     H81099  11.264   4.725   8.342  1.3333  0.5331  0.1413
  601MOL0     H81100  11.281   4.980   8.291 -0.7740  1.5418 -0.8598
  601MOL0     H81101  11.012   5.276   8.179  0.3624  2.0474  2.8669
  601MOL0     H81102  10.972   5.133   8.280  1.9924 -0.7872 -0.4835
  601MOL0     H81103  11.147   5.187   8.422 -4.5693 -4.3449 -2.8378
  601MOL0     H81104  11.252   5.249   8.290 -0.9376  0.3012 -2.4169
  601MOL0     H81105  11.078   5.452   8.264 -4.9548 -0.4909  1.1660
  601MOL0     H81106  11.166   5.452   8.422 -0.9505 -1.2071  2.0084
  601MOL0     H81107  10.900   5.326   8.394  0.7506  0.4302 -1.5691
  601MOL0     H81108  10.991   5.386   8.530  3.1092 -2.5877 -1.3960
  601MOL0     H81109  10.803   5.537   8.442  0.4422  0.2826 -0.2572
  601MOL0     H81110  10.897   5.559   8.289 -0.9753  0.9772  0.9585
  601MOL0     H81111  10.936   5.640   8.577  0.2247  2.8422 -0.2355
  601MOL0     H81112  11.077   5.642   8.470  0.8286 -0.3342 -1.6288
  601MOL0     H81113  10.976   5.801   8.321  3.4120 -3.9245  1.0201
  601MOL0     H81114  10.982   5.860   8.497  0.3276 -3.5132  3.6038
  601MOL0     H81115  10.733   5.770   8.508  0.6927 -0.3424  0.0357
  601MOL0     H81116  10.746   5.768   8.331  0.7436 -1.0185  0.1846
  601MOL0     H81117  10.947   4.948   8.040 -0.6519  0.7303  2.7253
  601MOL0     H81118  10.931   4.690   8.087 -0.2851 -0.7090  0.4242
  601MOL0     H81119  11.326   4.321   7.983  2.4494 -2.0859 -0.4470
  601MOL0     H81120  11.344   4.093   8.005  0.6443 -1.3527  1.1603
  601MOL0     H81121  11.662   4.596   9.011 -2.1219  1.4574  1.1332
  601MOL0     H81122  11.525   4.742   9.132 -0.8625 -1.8394 -1.7455
  601MOL0     H81123  11.155   5.017   9.292 -0.3252 -0.4150 -2.3011
  601MOL0     H81124  11.043   5.218   9.378  0.7798 -1.5300  0.7945
  601MOL0     H81125  10.975   5.575   9.403 -2.8521 -0.7488  1.2256
  601MOL0     H81126  10.948   5.406   9.397 -1.0445  0.5160  2.1783
  601MOL0     H81127  11.137   5.348   9.558  2.4074  1.3538  4.6173
  601MOL0     H81128  10.981   5.419   9.602  0.8017 -0.6068  2.2833
  601MOL0     H81129  11.200   5.511   9.712  2.4965 -0.3814 -1.3392
  601MOL0     H81130  11.073   5.627   9.655 -1.9997 -2.7278  4.3421
  601MOL0     H81131  11.218   5.716   9.493  1.1122  0.2649  1.1861
  601MOL0     H81132  11.334   5.577   9.481  1.3270 -0.4916  1.0829
  601MOL0     H81133  11.452   5.803   9.819 -1.4855  2.5869 -1.2251
  601MOL0     H81134  11.318   5.453   9.147  2.5910 -0.0065  1.6635
  601MOL0     H81135  11.447   5.247   9.088  0.8730 -3.2338  0.4840
  602MOL0     O81136   9.988   6.750   8.088 -0.6006 -0.6702  0.1237
  602MOL0     C81137  10.037   6.827   8.167  0.1090 -0.0761 -0.4080
  602MOL0     O81138  10.169   6.833   8.193 -0.2017 -0.2495  0.3235
  602MOL0     C81139  10.244   6.722   8.188  0.3584  0.8117  0.1699
  602MOL0     C81140  10.213   6.620   8.278  0.1385  0.2201 -0.9001
  602MOL0     C81141  10.292   6.508   8.297  0.4701  0.4856 -0.2175
  602MOL0     C81142  10.414   6.490   8.219  1.2602  0.1010 -0.7468
  602MOL0     O81143  10.506   6.391   8.242  0.8400  0.0927  0.8795
  602MOL0     C81144  10.463   6.272   8.322  0.4675 -1.0356  0.6943
  602MOL0     C81145  10.370   6.166   8.253 -0.0056 -0.0762 -0.3742
  602MOL0     C81146  10.342   6.024   8.311  0.4680  0.3605  0.4961
  602MOL0     C81147  10.288   6.036   8.452 -1.0164 -0.1066  0.3046
  602MOL0     C81148  10.212   5.916   8.505  0.7748 -0.0945  0.0897
  602MOL0     C81149  10.309   5.798   8.520 -0.6395  0.1784  0.6326
  602MOL0     C81150  10.227   5.672   8.514  0.7586 -0.9172  0.6549
  602MOL0     C81151  10.305   5.538   8.516 -0.0138 -0.3386  0.7676
  602MOL0     N81152  10.387   5.528   8.401  0.7975  0.5232 -0.2051
  602MOL0     C81153  10.351   5.479   8.284  0.2998  0.5104 -0.2064
  602MOL0     C81154  10.471   5.474   8.215 -0.0099 -0.3109  0.1849
  602MOL0     C81155  10.492   5.395   8.080 -0.7587 -0.4307 -0.9767
  602MOL0     C81156  10.541   5.249   8.120 -0.7461  0.1220 -0.2062
  602MOL0     C81157  10.691   5.233   8.104  0.2736  0.3018 -0.0940
  602MOL0     C81158  10.744   5.229   7.975  0.4020 -0.1650 -0.0885
  602MOL0     O81159  10.666   5.141   7.893  0.1606 -0.7405 -0.0530
  602MOL0     C81160  10.685   5.146   7.757  0.4247 -0.6588  0.9054
  602MOL0     C81161  10.807   5.131   7.702  0.1020 -0.8855 -0.8218
  602MOL0     C81162  10.833   5.116   7.567  1.3213  0.9062 -0.5949
  602MOL0     C81163  10.961   5.075   7.518 -0.1705 -0.3790  0.0119
  602MOL0     C81164  10.718   5.116   7.483  0.4739  0.6690  0.7560
  602MOL0     C81165  10.720   5.091   7.334 -0.6915  0.6908 -0.9083
  602MOL0     O81166  10.630   5.005   7.294 -0.0809 -0.3965  0.0687
  602MOL0     C81167  10.629   4.986   7.150  0.4793  1.1414 -0.8231
  602MOL0     C81168  10.578   5.079   7.054  0.4596 -0.0853  0.7850
  602MOL0     C81169  10.559   5.054   6.921 -0.1512  0.2422 -0.0394
  602MOL0     C81170  10.604   4.929   6.871 -0.0687 -1.0299 -0.1672
  602MOL0     O81171  10.582   4.882   6.744  0.8438  0.3500  0.1926
  602MOL0     C81172  10.471   4.789   6.742  0.2803 -0.0379 -0.9362
  602MOL0     C81173  10.424   4.762   6.597  0.8607  0.5884 -0.0984
  602MOL0     C81174  10.487   4.635   6.540  0.3950  0.3828  1.4764
  602MOL0     C81175  10.389   4.574   6.441  0.3401  0.4206  0.1248
  602MOL0     C81176  10.467   4.441   6.380  0.1740 -0.1846 -0.7343
  602MOL0     C81177  10.390   4.360   6.289  0.9066  0.7569 -0.5046
  602MOL0     C81178  10.470   4.251   6.222 -0.2785  0.4467 -0.4106
  602MOL0     C81179  10.526   4.143   6.319  0.8536  0.8133  0.2495
  602MOL0    Cl81180  10.679   4.210   6.394 -0.1700  0.0454  0.4142
  602MOL0     C81181  10.639   4.828   6.965 -0.9228  0.6566 -0.8363
  602MOL0     C81182  10.656   4.854   7.106 -0.1240 -0.3819  0.7432
  602MOL0     O81183  10.795   5.158   7.264  0.3327  0.2700 -0.5140
  602MOL0     C81184  10.584   5.132   7.540 -0.1173  0.7616  0.5114
  602MOL0     C81185  10.568   5.143   7.677  0.1063  0.5115  0.4845
  602MOL0     N81186  10.569   5.532   8.295  0.1314  0.5222  0.3402
  602MOL0     N81187  10.518   5.555   8.411 -0.2394  0.1063  0.0260
  602MOL0     C81188  10.444   6.590   8.127 -0.6134 -0.0381  0.1128
  602MOL0     C81189  10.361   6.699   8.111 -0.1207 -0.0532 -0.9074
  602MOL0     C81190   9.943   6.917   8.252  0.0461  0.9415  1.6713
  602MOL0     C81191   9.805   6.896   8.250  0.3230 -0.5375 -0.0869
  602MOL0     C81192   9.729   6.973   8.338  0.8633  0.0397 -0.0275
  602MOL0     C81193   9.792   7.077   8.417  0.3444  0.0922 -0.3378
  602MOL0     O81194   9.708   7.171   8.470  0.2155  0.0996  0.0934
  602MOL0     C81195   9.714   7.188   8.618 -0.1463  0.1455  0.7138
  602MOL0     C81196   9.589   7.115   8.682  0.3674 -0.4500  0.4590
  602MOL0     C81197   9.456   7.193   8.673  0.0232 -0.0969 -0.1905
  602MOL0     C81198   9.442   7.324   8.742 -0.0463 -0.3232 -0.1534
  602MOL0     C81199   9.465   7.319   8.885 -0.6553 -0.2732 -0.0692
  602MOL0     C81200   9.497   7.284   9.003  0.7881 -0.3601 -0.9970
  602MOL0     C81201   9.931   7.090   8.413 -0.1056  0.4622 -0.7453
  602MOL0     C81202   9.998   7.003   8.335  0.5768 -0.5785 -0.9417
  602MOL0     H81203  10.135   6.641   8.351  0.1421  1.0050 -1.1088
  602MOL0     H81204  10.241   6.437   8.361 -0.5492  0.8490 -0.6004
  602MOL0     H81205  10.561   6.229   8.346  2.2049  3.2322  2.2419
  602MOL0     H81206  10.410   6.304   8.412 -0.8226 -1.5011  0.1179
  602MOL0     H81207  10.274   6.214   8.236  0.8054  0.9798 -2.2958
  602MOL0     H81208  10.406   6.162   8.150 -0.1577 -1.5548 -0.3874
  602MOL0     H81209  10.257   5.988   8.253  0.4113  0.4171  0.5459
  602MOL0     H81210  10.436   5.969   8.302 -0.4105 -1.0990 -0.1042
  602MOL0     H81211  10.371   6.055   8.521  0.1562 -2.0883 -0.4593
  602MOL0     H81212  10.219   6.120   8.444 -1.9230 -0.7841  0.7352
  602MOL0     H81213  10.176   5.954   8.600  1.9126  3.4792 -0.7645
  602MOL0     H81214  10.126   5.886   8.445 -1.5871  1.2649  2.6233
  602MOL0     H81215  10.380   5.792   8.437  1.3073  0.1306  2.2150
  602MOL0     H81216  10.372   5.795   8.609 -0.0795 -2.3381  0.2258
  602MOL0     H81217  10.162   5.674   8.602 -0.4217  2.3853 -0.1634
  602MOL0     H81218  10.181   5.673   8.415  0.3256 -0.4717  0.8579
  602MOL0     H81219  10.247   5.445   8.520 -1.0710  0.3532  2.2098
  602MOL0     H81220  10.376   5.538   8.599  0.0736 -1.0532  0.7022
  602MOL0     H81221  10.254   5.442   8.254  1.2426 -1.0120 -1.6054
  602MOL0     H81222  10.402   5.386   8.018 -0.8104 -0.5391 -0.8864
  602MOL0     H81223  10.560   5.446   8.011  2.0529 -2.9206 -0.2786
  602MOL0     H81224  10.481   5.179   8.062 -1.3869  0.8335 -0.4225
  602MOL0     H81225  10.522   5.232   8.227  2.4771  2.1075  0.8123
  602MOL0     H81226  10.710   5.141   8.159  1.2829 -1.2587 -2.8582
  602MOL0     H81227  10.738   5.319   8.151 -0.1224 -0.3640  1.5773
  602MOL0     H81228  10.847   5.193   7.967  0.2721 -0.2632 -1.5671
  602MOL0     H81229  10.747   5.329   7.930  0.7467 -0.8390 -1.6239
  602MOL0     H81230  10.894   5.130   7.766 -0.2826 -2.6904 -0.2764
  602MOL0     H81231  11.004   5.006   7.592  1.9225  0.3910 -0.4163
  602MOL0     H81232  10.957   5.013   7.428 -1.0841  1.1491 -1.0397
  602MOL0     H81233  11.024   5.162   7.502 -0.6880  0.0552  0.3155
  602MOL0     H81234  10.555   5.179   7.089 -3.0889 -0.6461  0.3915
  602MOL0     H81235  10.526   5.133   6.854  3.4110  2.9755  1.1147
  602MOL0     H81236  10.499   4.696   6.793 -0.2572 -0.7044 -1.8226
  602MOL0     H81237  10.392   4.838   6.800  0.8512  0.6426 -0.7269
  602MOL0     H81238  10.317   4.750   6.615  0.3395  2.9606 -1.2848
  602MOL0     H81239  10.436   4.844   6.527 -0.3592  1.8440  1.0975
  602MOL0     H81240  10.505   4.561   6.618  2.7931  0.3930  1.0122
  602MOL0     H81241  10.584   4.639   6.490  0.7403 -0.9941  1.9874
  602MOL0     H81242  10.303   4.544   6.501 -0.8926  1.6698 -0.9466
  602MOL0     H81243  10.357   4.647   6.366  1.8155  1.3878  0.4044
  602MOL0     H81244  10.485   4.385   6.473  2.2045  1.2745 -0.1731
  602MOL0     H81245  10.564   4.471   6.339  0.5886 -1.7304 -0.9409
  602MOL0     H81246  10.310   4.317   6.349  0.0233  0.6706 -1.7193
  602MOL0     H81247  10.341   4.432   6.223  0.6755  0.8288 -0.2545
  602MOL0     H81248  10.549   4.299   6.163 -0.3760  0.0462 -0.8768
  602MOL0     H81249  10.415   4.194   6.147 -0.4109 -0.2474  0.2047
  602MOL0     H81250  10.558   4.057   6.259 -2.9919  0.3583 -1.4338
  602MOL0     H81251  10.459   4.111   6.399  2.5130 -1.0588  0.9740
  602MOL0     H81252  10.662   4.741   6.904 -1.4339  2.3883 -3.6559
  602MOL0     H81253  10.668   4.767   7.169  1.9334  0.0386  0.9949
  602MOL0     H81254  10.505   5.114   7.466  2.4743  1.4987 -2.6841
  602MOL0     H81255  10.468   5.149   7.720 -0.1194 -3.9612  1.0614
  602MOL0     H81256  10.521   6.563   8.056 -2.5965 -0.4590 -2.0089
  602MOL0     H81257  10.403   6.770   8.040  2.5356  0.0647  0.6460
  602MOL0     H81258   9.753   6.819   8.194 -2.4382  0.8446  0.4271
  602MOL0     H81259   9.622   6.972   8.321  0.7444  1.1486  0.5995
  602MOL0     H81260   9.799   7.127   8.649  1.4629  0.6979 -2.2230
  602MOL0     H81261   9.724   7.293   8.647 -0.8258 -0.2738  2.6440
  602MOL0     H81262   9.602   7.108   8.790 -1.5293  3.1370  1.0930
  602MOL0     H81263   9.577   7.014   8.641 -1.8029  0.1314 -0.4670
  602MOL0     H81264   9.392   7.110   8.700  1.6644 -1.8110 -1.3382
  602MOL0     H81265   9.432   7.214   8.568 -0.1546 -0.5554 -0.2431
  602MOL0     H81266   9.337   7.352   8.727 -0.2836 -0.7890  0.6153
  602MOL0     H81267   9.512   7.392   8.692  0.5008 -0.9817 -0.2997
  602MOL0     H81268   9.510   7.252   9.105  0.6294  3.8378  0.5340
  602MOL0     H81269   9.980   7.165   8.475  2.3074  0.7196 -2.8364
  602MOL0     H81270  10.105   7.019   8.329  0.5810  2.7440  3.2781
  603MOL0     O81271   2.012   9.994  10.266 -0.3951 -0.1150  0.7088
  603MOL0     C81272   2.007   9.907  10.175 -0.1728 -1.2548  0.9472
  603MOL0     O81273   1.981   9.770  10.192  0.1966  0.3078 -0.4525
  603MOL0     C81274   1.981   9.712  10.318 -0.4899  0.0778 -0.3155
  603MOL0     C81275   1.949   9.582  10.304  0.6669  0.1892 -0.0007
  603MOL0     C81276   1.938   9.495  10.414  0.0790  0.2387 -0.5062
  603MOL0     C81277   1.972   9.539  10.540  0.3640  0.2508 -0.4272
  603MOL0     O81278   1.961   9.473  10.657 -1.0008 -0.1566  0.0656
  603MOL0     C81279   1.936   9.328  10.665 -0.2899  0.2521 -0.3943
  603MOL0     C81280   1.898   9.280  10.798 -0.2599 -1.0413 -0.7109
  603MOL0     C81281   2.023   9.301  10.894 -0.6196 -0.4746 -0.2494
  603MOL0     C81282   2.007   9.224  11.020  0.4023  0.0774  0.6929
  603MOL0     C81283   2.109   9.272  11.119  0.2860 -0.5356  0.3128
  603MOL0     C81284   2.096   9.178  11.245 -0.0721  0.4922  0.3232
  603MOL0     C81285   2.190   9.202  11.355 -1.0234 -0.3684 -0.6097
  603MOL0     C81286   2.163   9.337  11.437 -0.8101 -0.3752 -0.2586
  603MOL0     N81287   2.274   9.364  11.535 -0.2951 -0.1243 -0.4293
  603MOL0     C81288   2.383   9.448  11.513 -0.1416 -0.0958  0.6784
  603MOL0     C81289   2.433   9.469  11.639  0.8099  0.2045  0.9086
  603MOL0     C81290   2.549   9.550  11.682  0.2678 -0.4093  0.1784
  603MOL0     C81291   2.683   9.504  11.618 -0.5867  0.5232 -0.0704
  603MOL0     C81292   2.730   9.361  11.649  0.5260  0.2949 -1.5142
  603MOL0     C81293   2.851   9.318  11.577 -0.3133  1.1712 -0.8070
  603MOL0     O81294   2.956   9.394  11.628  0.2407 -0.1274  0.1554
  603MOL0     C81295   3.074   9.384  11.558  0.0588 -0.3820 -0.4872
  603MOL0     C81296   3.124   9.276  11.484 -0.7499 -1.3883  0.0051
  603MOL0     C81297   3.250   9.290  11.425 -0.0979  1.3128 -0.6119
  603MOL0     C81298   3.284   9.171  11.342 -0.7400  0.2365  0.2127
  603MOL0     C81299   3.338   9.392  11.453 -0.7885 -0.1302  0.5131
  603MOL0     C81300   3.472   9.412  11.396 -0.8954 -0.2269  0.8106
  603MOL0     O81301   3.504   9.333  11.291  0.1827 -0.2139  0.0848
  603MOL0     C81302   3.634   9.324  11.237  1.1329  0.4593  0.7159
  603MOL0     C81303   3.643   9.365  11.104  0.4252 -1.7573 -0.7176
  603MOL0     C81304   3.763   9.354  11.038 -0.2404 -0.6263  0.2026
  603MOL0     C81305   3.875   9.291  11.103 -0.9295  0.2925  0.4406
  603MOL0     O81306   3.988   9.281  11.027 -0.4596 -0.3390  0.2572
  603MOL0     C81307   4.115   9.242  11.080 -0.7467 -0.1816 -0.2360
  603MOL0     C81308   4.219   9.345  11.025  0.7815 -1.0750  0.6919
  603MOL0     C81309   4.332   9.385  11.120 -0.4339 -0.2069 -0.4567
  603MOL0     C81310   4.451   9.291  11.088  0.7468 -0.1837  0.8591
  603MOL0     C81311   4.514   9.331  10.958 -0.6592 -0.5695  0.5603
  603MOL0     C81312   4.641   9.251  10.911 -1.5228 -0.1242  0.3129
  603MOL0     C81313   4.760   9.284  11.001  0.1059  0.2334 -0.3198
  603MOL0     C81314   4.889   9.286  10.926  0.1347  1.0109  1.2633
  603MOL0    Cl81315   4.901   9.415  10.796 -0.1453 -0.0857 -0.0448
  603MOL0     C81316   3.853   9.236  11.232 -0.4384 -0.3765 -0.7101
  603MOL0     C81317   3.738   9.262  11.306 -1.2766 -0.2205  0.3050
  603MOL0     O81318   3.553   9.495  11.441 -0.7002 -0.5888 -0.0960
  603MOL0     C81319   3.296   9.497  11.532  0.1586 -0.0961 -0.0869
  603MOL0     C81320   3.156   9.499  11.562  0.6740 -0.1265 -0.6476
  603MOL0     N81321   2.356   9.402  11.731  0.1212  0.4872 -0.0506
  603MOL0     N81322   2.273   9.329  11.672  0.7823  0.2709 -0.2211
  603MOL0     C81323   2.016   9.675  10.552 -0.4766  0.3835 -1.0657
  603MOL0     C81324   2.019   9.757  10.444 -0.1470  0.6303 -0.2478
  603MOL0     C81325   2.034   9.947  10.035 -0.3561  0.1321  0.2041
  603MOL0     C81326   2.035   9.867   9.927  0.6241 -0.2803 -0.3635
  603MOL0     C81327   2.045   9.908   9.792  0.7476  0.5068 -0.5270
  603MOL0     C81328   2.084  10.040   9.771  0.3847 -0.1482  0.2261
  603MOL0     O81329   2.114  10.080   9.648  0.2497 -0.1994  0.3776
  603MOL0     C81330   2.157   9.991   9.543  0.0387  1.0709 -0.3565
  603MOL0     C81331   2.164  10.075   9.418 -0.0759 -0.2944 -0.1910
  603MOL0     C81332   2.030  10.122   9.372  0.4896  0.4232  0.0214
  603MOL0     C81333   2.015  10.178   9.227  0.5534  0.2465 -0.4592
  603MOL0     C81334   2.118  10.149   9.132  0.7496  0.8710  0.2766
  603MOL0     C81335   2.208  10.124   9.062 -0.1720  0.7588 -0.9436
  603MOL0     C81336   2.096  10.121   9.874  0.4799 -0.0860  0.1787
  603MOL0     C81337   2.058  10.080  10.002  0.5169 -0.7397  0.7153
  603MOL0     H81338   1.916   9.541  10.209 -0.9336 -1.7827  1.3190
  603MOL0     H81339   1.913   9.391  10.393  0.3879 -0.2957  1.4794
  603MOL0     H81340   1.849   9.317  10.599  0.3323 -0.3344 -1.1398
  603MOL0     H81341   2.024   9.271  10.633  0.7366  1.8708 -0.5313
  603MOL0     H81342   1.817   9.342  10.838  0.2821 -0.0418 -1.1045
  603MOL0     H81343   1.866   9.177  10.785  0.9636 -1.6958  1.0503
  603MOL0     H81344   2.111   9.260  10.845  0.6624  1.7442  0.0844
  603MOL0     H81345   2.050   9.404  10.915 -1.4791 -0.9576  4.3634
  603MOL0     H81346   1.905   9.238  11.055 -0.4958 -3.2767 -0.1597
  603MOL0     H81347   2.009   9.118  10.993  0.0961 -0.1809  1.6423
  603MOL0     H81348   2.211   9.278  11.078 -0.0886 -0.3482 -0.5957
  603MOL0     H81349   2.086   9.375  11.144  1.4452 -0.2608  0.3186
  603MOL0     H81350   1.990   9.169  11.273  0.0714  2.9177  1.9943
  603MOL0     H81351   2.124   9.080  11.205 -1.1320 -0.9703  2.9276
  603MOL0     H81352   2.198   9.122  11.429  2.4214  1.1372  0.8893
  603MOL0     H81353   2.291   9.220  11.316 -0.7739  0.4178  0.3482
  603MOL0     H81354   2.064   9.338  11.485  0.4338 -0.9346  2.4820
  603MOL0     H81355   2.172   9.424  11.372  0.8149  0.9383  1.6106
  603MOL0     H81356   2.413   9.490  11.417 -1.4421  1.1383  0.7813
  603MOL0     H81357   2.540   9.652  11.642  1.2258 -0.4794 -0.2453
  603MOL0     H81358   2.566   9.570  11.788 -0.9467 -0.1630  0.3474
  603MOL0     H81359   2.758   9.576  11.652 -0.8984 -0.0926  2.0734
  603MOL0     H81360   2.690   9.501  11.509  2.3185 -0.7311  0.0692
  603MOL0     H81361   2.655   9.284  11.631  1.4354 -0.7740 -0.8550
  603MOL0     H81362   2.750   9.347  11.755  0.4950 -0.4847 -1.6006
  603MOL0     H81363   2.840   9.329  11.469  2.5683  0.8452 -1.2116
  603MOL0     H81364   2.850   9.213  11.607 -4.3821  1.6073  1.2363
  603MOL0     H81365   3.063   9.187  11.472  1.2713 -2.9852  0.9065
  603MOL0     H81366   3.292   9.208  11.239 -1.0023 -0.1834  0.0409
  603MOL0     H81367   3.372   9.112  11.367 -1.8874 -3.1588 -2.9294
  603MOL0     H81368   3.209   9.095  11.361 -0.9958  0.6074  0.7235
  603MOL0     H81369   3.555   9.414  11.064  0.4564 -0.3571  0.8506
  603MOL0     H81370   3.769   9.385  10.935 -3.1460 -0.0481  0.1043
  603MOL0     H81371   4.112   9.248  11.189 -1.6497 -0.4890 -0.2350
  603MOL0     H81372   4.144   9.146  11.035 -0.2659  0.4237 -1.2463
  603MOL0     H81373   4.258   9.304  10.932  1.5678  2.3759 -0.6473
  603MOL0     H81374   4.164   9.431  10.988 -0.2194 -0.7019  2.8909
  603MOL0     H81375   4.303   9.377  11.225  3.4265  1.3698  0.9198
  603MOL0     H81376   4.366   9.488  11.103  1.4103 -0.8428 -0.8965
  603MOL0     H81377   4.525   9.308  11.167  2.0945  1.8816 -0.7268
  603MOL0     H81378   4.410   9.190  11.081 -0.9402  0.5504 -0.5482
  603MOL0     H81379   4.529   9.439  10.963 -3.1263 -0.2324  3.4118
  603MOL0     H81380   4.442   9.318  10.877 -0.3578  0.6495  0.0725
  603MOL0     H81381   4.635   9.142  10.919  3.7864 -0.7832 -0.5093
  603MOL0     H81382   4.654   9.278  10.806  1.2807 -3.2402 -0.3405
  603MOL0     H81383   4.758   9.201  11.072  1.7697 -0.8432 -1.4647
  603MOL0     H81384   4.749   9.382  11.048  0.0091  0.9464 -1.7842
  603MOL0     H81385   4.897   9.189  10.876  3.4259  0.9566  1.6413
  603MOL0     H81386   4.987   9.295  10.975  1.0930  4.1504 -0.8874
  603MOL0     H81387   3.936   9.181  11.277 -1.8585 -1.6435  0.5038
  603MOL0     H81388   3.724   9.216  11.404 -1.2183 -3.1043 -0.9613
  603MOL0     H81389   3.359   9.581  11.559 -0.4714 -0.1932  1.8354
  603MOL0     H81390   3.129   9.595  11.605  1.7429 -0.6451  1.2936
  603MOL0     H81391   2.043   9.724  10.645  2.0161  2.8632 -2.9362
  603MOL0     H81392   2.049   9.856  10.475 -1.0108 -0.2301  4.1159
  603MOL0     H81393   1.997   9.767   9.941 -1.4133  0.5615  0.4921
  603MOL0     H81394   2.034   9.837   9.711  1.6083  1.3183 -1.3943
  603MOL0     H81395   2.249   9.943   9.576 -0.3639 -0.4218 -1.2887
  603MOL0     H81396   2.078   9.918   9.523 -0.2504  1.2970 -0.0713
  603MOL0     H81397   2.203  10.017   9.334  0.0335 -0.3102 -0.1299
  603MOL0     H81398   2.223  10.166   9.434 -0.6007 -0.1664  1.1312
  603MOL0     H81399   1.998  10.192   9.449  0.3569 -1.4323  1.7292
  603MOL0     H81400   1.956  10.042   9.383  0.5916  0.4293  0.7790
  603MOL0     H81401   2.013  10.287   9.239 -0.8733  0.2130 -0.1848
  603MOL0     H81402   1.916  10.155   9.185 -0.3904  0.2639  1.6381
  603MOL0     H81403   2.294  10.119   8.998 -1.4343  2.9995 -2.9891
  603MOL0     H81404   2.117  10.227   9.864  0.8308 -0.2888 -1.4982
  603MOL0     H81405   2.072  10.148  10.086  6.7921 -1.0513  0.3850
  604MOL0     O81406  10.461   9.532   6.933  0.1558 -0.7905 -0.6041
  604MOL0     C81407  10.507   9.517   7.048  0.1070  0.3329  0.6293
  604MOL0     O81408  10.634   9.498   7.087  1.0099 -0.0419  0.3784
  604MOL0     C81409  10.733   9.437   7.001  0.3458 -0.8368 -0.1598
  604MOL0     C81410  10.838   9.398   7.077  0.4512 -0.4749 -0.5065
  604MOL0     C81411  10.942   9.321   7.020 -0.1601 -0.4818 -0.1174
  604MOL0     C81412  10.930   9.294   6.885 -0.7091 -0.3246 -0.0789
  604MOL0     O81413  11.032   9.211   6.837  0.4249 -0.0036 -0.4929
  604MOL0     C81414  11.069   9.214   6.694 -0.1280 -0.6696 -0.0013
  604MOL0     C81415  11.140   9.355   6.657 -0.0920  0.1739  0.6874
  604MOL0     C81416  11.179   9.366   6.509 -0.6952  0.0470  0.7455
  604MOL0     C81417  11.220   9.509   6.475  0.6079  0.4940  0.1199
  604MOL0     C81418  11.263   9.539   6.334 -0.6923  0.0930 -0.0691
  604MOL0     C81419  11.328   9.682   6.347 -0.5591 -0.1607 -0.4283
  604MOL0     C81420  11.347   9.752   6.210 -0.0742 -0.2038  0.1496
  604MOL0     C81421  11.368   9.906   6.212 -0.4561 -0.3390 -0.4852
  604MOL0     N81422  11.482   9.936   6.290 -1.3535  0.6632 -1.0219
  604MOL0     C81423  11.620   9.944   6.255  0.7632  0.5435  0.2174
  604MOL0     C81424  11.671  10.004   6.359 -0.3442 -0.3772  0.5070
  604MOL0     C81425  11.813  10.028   6.381 -1.0266  0.0546 -0.0556
  604MOL0     C81426  11.858  10.171   6.347  0.7062  0.6145  0.0611
  604MOL0     C81427  11.788  10.278   6.427 -0.4811  0.2543 -0.6665
  604MOL0     C81428  11.826  10.287   6.577 -0.1002 -0.1476 -0.4991
  604MOL0     O81429  11.787  10.410   6.638  0.2937 -0.5738  0.0621
  604MOL0     C81430  11.674  10.411   6.714  0.0319  0.1500 -0.8644
  604MOL0     C81431  11.553  10.329   6.707 -0.0296 -0.9058  0.1913
  604MOL0     C81432  11.444  10.339   6.793 -0.1210  0.4126 -0.2408
  604MOL0     C81433  11.337  10.253   6.766  0.8665 -0.0460 -0.2621
  604MOL0     C81434  11.459  10.424   6.914  0.7775 -0.1523 -0.5305
  604MOL0     C81435  11.362  10.416   7.029 -0.2700  1.0713  0.3703
  604MOL0     O81436  11.419  10.432   7.146 -0.3507 -0.5648  0.7869
  604MOL0     C81437  11.366  10.395   7.257 -0.3099 -0.6233 -0.8108
  604MOL0     C81438  11.256  10.308   7.281 -0.6973  0.0213 -0.3754
  604MOL0     C81439  11.232  10.256   7.410 -0.3429 -0.4104  0.1364
  604MOL0     C81440  11.290  10.321   7.521 -0.6971 -0.5565  0.0307
  604MOL0     O81441  11.257  10.263   7.644  0.0457  0.1299  0.4005
  604MOL0     C81442  11.305  10.317   7.753  0.0895  0.1044  0.0470
  604MOL0     C81443  11.242  10.264   7.885 -0.7074 -0.1470  0.5167
  604MOL0     C81444  11.312  10.286   8.014 -0.4731  1.2107 -0.4402
  604MOL0     C81445  11.225  10.357   8.122 -1.0083 -1.1238 -0.2606
  604MOL0     C81446  11.236  10.293   8.263 -0.0931 -0.0409 -0.8057
  604MOL0     C81447  11.165  10.158   8.265  0.5402 -0.2167  0.3440
  604MOL0     C81448  11.169  10.084   8.405 -0.7701  0.5023 -0.4719
  604MOL0     C81449  11.068  10.146   8.514  0.4738  0.2003  0.4895
  604MOL0    Cl81450  11.032  10.026   8.644 -0.2069  0.1375 -0.5056
  604MOL0     C81451  11.382  10.421   7.494  0.1528 -0.2078  0.8313
  604MOL0     C81452  11.421  10.458   7.362  0.6693 -0.0589  0.0552
  604MOL0     O81453  11.244  10.405   7.008 -0.0176  0.4340 -0.1436
  604MOL0     C81454  11.574  10.506   6.916  0.3840 -0.2366 -0.7261
  604MOL0     C81455  11.669  10.504   6.815  0.9007 -0.4938 -0.0397
  604MOL0     N81456  11.583  10.001   6.463  0.5488 -0.7414  0.4068
  604MOL0     N81457  11.464   9.962   6.424 -1.3419 -0.6524  0.2392
  604MOL0     C81458  10.825   9.339   6.804  0.4697  0.4154 -0.5246
  604MOL0     C81459  10.723   9.408   6.865 -0.2947  0.7390  0.2224
  604MOL0     C81460  10.413   9.531   7.162 -0.2360  0.3566  0.6142
  604MOL0     C81461  10.275   9.531   7.156 -0.6366 -0.7365  0.1420
  604MOL0     C81462  10.198   9.582   7.262 -0.4074  0.8616 -0.3749
  604MOL0     C81463  10.257   9.602   7.390  0.7700  1.0105 -0.2479
  604MOL0     O81464  10.180   9.638   7.497 -0.3509  0.0816  0.1151
  604MOL0     C81465  10.069   9.716   7.472  1.1410  0.1666  0.1922
  604MOL0     C81466  10.012   9.794   7.598 -0.5830  0.2879  0.4303
  604MOL0     C81467   9.950   9.932   7.583  0.4511 -0.6457  0.9383
  604MOL0     C81468   9.798   9.924   7.536  0.3903  1.1069 -1.0192
  604MOL0     C81469   9.758  10.049   7.472  0.2820  0.0139 -0.2386
  604MOL0     C81470   9.702  10.142   7.416  0.5130  0.4505 -0.0240
  604MOL0     C81471  10.395   9.580   7.403  0.4718 -0.4217  0.3546
  604MOL0     C81472  10.469   9.542   7.285 -0.1800  0.3555  1.1106
  604MOL0     H81473  10.840   9.421   7.183  2.8100  2.7023 -1.0790
  604MOL0     H81474  11.036   9.294   7.068 -1.1007 -0.2149  2.0143
  604MOL0     H81475  11.143   9.135   6.675 -0.3067 -0.7002 -0.5867
  604MOL0     H81476  10.977   9.198   6.637 -0.8165 -3.5447  1.7357
  604MOL0     H81477  11.078   9.442   6.680  0.2659  0.7419 -0.3765
  604MOL0     H81478  11.230   9.362   6.720 -0.1877 -0.6263  0.9229
  604MOL0     H81479  11.264   9.300   6.487  0.8311  2.2283 -0.2086
  604MOL0     H81480  11.106   9.336   6.433  2.3473  0.2708 -2.4890
  604MOL0     H81481  11.140   9.579   6.497  1.2306  0.8922  1.2145
  604MOL0     H81482  11.293   9.537   6.552  0.0946  1.2847  0.3201
  604MOL0     H81483  11.337   9.470   6.292 -1.7860 -2.8045  2.3742
  604MOL0     H81484  11.177   9.551   6.268 -0.1901 -1.5219 -1.0611
  604MOL0     H81485  11.274   9.747   6.416  0.8980  0.4541  0.1852
  604MOL0     H81486  11.430   9.662   6.382  0.1396 -0.2039 -2.3829
  604MOL0     H81487  11.429   9.705   6.155  0.5331  1.7438 -0.6755
  604MOL0     H81488  11.263   9.728   6.145  1.5632 -1.3449 -1.6360
  604MOL0     H81489  11.279   9.951   6.258 -0.0357 -0.0010  0.0092
  604MOL0     H81490  11.371   9.957   6.115  1.2476  2.6186  0.9812
  604MOL0     H81491  11.658   9.916   6.158  3.6074 -0.3577  1.4746
  604MOL0     H81492  11.834  10.002   6.485  2.1703 -0.6021 -0.7567
  604MOL0     H81493  11.876   9.956   6.327  0.6707  1.5790 -0.1831
  604MOL0     H81494  11.835  10.201   6.244 -1.8170 -0.2752  0.2989
  604MOL0     H81495  11.967  10.178   6.353  0.6588  1.6350 -0.1777
  604MOL0     H81496  11.679  10.272   6.421 -0.3558 -2.9692 -1.4569
  604MOL0     H81497  11.818  10.371   6.377  2.4904 -1.0725 -1.6355
  604MOL0     H81498  11.934  10.280   6.584 -0.0323 -1.4489 -2.2564
  604MOL0     H81499  11.779  10.204   6.632  0.6477 -0.4350 -0.2914
  604MOL0     H81500  11.540  10.261   6.624  2.1072 -2.0912  0.7320
  604MOL0     H81501  11.247  10.309   6.740  0.0943 -1.3636 -0.5270
  604MOL0     H81502  11.365  10.173   6.697  2.0388 -1.3371  1.6123
  604MOL0     H81503  11.310  10.201   6.859  2.9134 -2.8537 -1.1083
  604MOL0     H81504  11.211  10.253   7.199 -3.0957  0.0752  0.8361
  604MOL0     H81505  11.155  10.180   7.422  0.1989 -1.5072 -2.7023
  604MOL0     H81506  11.412  10.294   7.755  0.3592  1.3225  0.2537
  604MOL0     H81507  11.295  10.426   7.754 -0.0850  0.2912 -3.9785
  604MOL0     H81508  11.148  10.320   7.875  1.1898  3.2502  0.2495
  604MOL0     H81509  11.218  10.158   7.869  1.6663 -0.4506 -1.8563
  604MOL0     H81510  11.397  10.355   8.012 -0.6947  1.6877  2.4156
  604MOL0     H81511  11.340  10.188   8.052 -1.5838  1.2808  0.6213
  604MOL0     H81512  11.254  10.462   8.134  2.5963 -2.1634  1.3909
  604MOL0     H81513  11.119  10.360   8.095 -1.5502  0.5238  1.7674
  604MOL0     H81514  11.196  10.359   8.341 -0.8989  2.8518 -3.4656
  604MOL0     H81515  11.340  10.272   8.289  0.5350  0.3521 -2.8314
  604MOL0     H81516  11.065  10.162   8.220  1.1053  2.8668 -0.8702
  604MOL0     H81517  11.208  10.094   8.187 -0.7751  0.0955 -0.6843
  604MOL0     H81518  11.274  10.085   8.438 -1.2341 -2.3971  1.5654
  604MOL0     H81519  11.135   9.982   8.385 -0.7723  0.1598  1.1116
  604MOL0     H81520  10.979  10.187   8.465  0.9020  2.1349  1.2423
  604MOL0     H81521  11.122  10.225   8.565 -1.5053 -1.2895  5.4609
  604MOL0     H81522  11.440  10.480   7.565 -2.6774  2.6083  1.0285
  604MOL0     H81523  11.503  10.528   7.354 -0.9318  2.1668  1.7840
  604MOL0     H81524  11.589  10.562   7.007 -2.6986 -1.5186  0.7515
  604MOL0     H81525  11.738  10.587   6.821  1.6710 -1.2143  2.2203
  604MOL0     H81526  10.815   9.309   6.701  2.2199  0.7561 -0.8183
  604MOL0     H81527  10.633   9.419   6.806 -0.8045  2.7805  1.2776
  604MOL0     H81528  10.232   9.517   7.058  1.3737  0.0704 -0.9314
  604MOL0     H81529  10.094   9.603   7.240 -0.8881 -0.2258  0.7391
  604MOL0     H81530  10.102   9.794   7.403 -1.1938 -0.9763 -2.4082
  604MOL0     H81531   9.991   9.654   7.427  1.1088 -1.6265  2.5385
  604MOL0     H81532  10.108   9.817   7.645  0.5830  0.7304 -2.0085
  604MOL0     H81533   9.948   9.723   7.652 -1.0782 -0.8465 -1.5529
  604MOL0     H81534  10.009   9.979   7.504 -0.9633 -0.1883  0.1155
  604MOL0     H81535   9.962   9.998   7.669 -0.3697 -0.0385  0.6010
  604MOL0     H81536   9.733   9.912   7.623  1.1187 -0.1747 -0.6342
  604MOL0     H81537   9.779   9.842   7.466 -2.7332  1.1622 -0.3699
  604MOL0     H81538   9.638  10.219   7.376  0.1556  1.1309  1.7827
  604MOL0     H81539  10.445   9.585   7.499  0.7150  0.3540  0.1924
  604MOL0     H81540  10.576   9.540   7.303  0.0832  0.4773 -0.3488
  605MOL0     O81541   8.839   5.505   6.101  0.5696  0.5654 -0.4993
  605MOL0     C81542   8.844   5.382   6.084  0.4475 -0.1894  0.1384
  605MOL0     O81543   8.936   5.320   6.002  0.3207 -0.1387 -0.1493
  605MOL0     C81544   9.018   5.401   5.932 -0.1699  0.6577 -0.6326
  605MOL0     C81545   9.029   5.404   5.788 -0.7248 -0.0804  1.5341
  605MOL0     C81546   9.113   5.487   5.719  0.2695 -0.3706  0.2351
  605MOL0     C81547   9.190   5.583   5.791  0.2053 -0.4085  0.7191
  605MOL0     O81548   9.268   5.695   5.740 -0.5154  0.5633 -0.2247
  605MOL0     C81549   9.261   5.724   5.598  0.0511 -0.8534 -0.1558
  605MOL0     C81550   9.361   5.841   5.567  0.8743 -0.0947  0.7862
  605MOL0     C81551   9.337   5.970   5.637 -0.1062 -0.9864 -0.3711
  605MOL0     C81552   9.473   6.040   5.681  0.8411 -0.3348  0.0971
  605MOL0     C81553   9.456   6.161   5.773  0.0497 -0.6026 -0.6990
  605MOL0     C81554   9.590   6.214   5.825  0.8367  0.8362  0.1823
  605MOL0     C81555   9.550   6.336   5.920 -0.8852 -0.6411 -0.2826
  605MOL0     C81556   9.621   6.463   5.856 -0.1412 -0.7336  1.0089
  605MOL0     N81557   9.566   6.494   5.722 -1.0568  0.9503 -0.6332
  605MOL0     C81558   9.435   6.507   5.691  1.0117  0.4784 -0.3731
  605MOL0     C81559   9.432   6.514   5.551 -0.8359  1.0329 -0.1847
  605MOL0     C81560   9.303   6.524   5.468  0.3988  0.7416  0.5135
  605MOL0     C81561   9.249   6.384   5.438  0.5033 -0.4601  0.3209
  605MOL0     C81562   9.344   6.291   5.368 -0.7420  0.5064 -0.0491
  605MOL0     C81563   9.384   6.338   5.229  0.3601 -0.7141  0.0387
  605MOL0     O81564   9.260   6.367   5.159 -0.7733 -0.2889 -0.4189
  605MOL0     C81565   9.199   6.267   5.091  0.3318  0.2471 -0.4411
  605MOL0     C81566   9.230   6.129   5.099  0.2687  0.4132  0.7053
  605MOL0     C81567   9.167   6.039   5.011 -0.2327  1.0166  0.4006
  605MOL0     C81568   9.200   5.896   5.032  0.6446 -0.0823  0.3215
  605MOL0     C81569   9.058   6.074   4.923 -0.0416  0.5676 -0.0194
  605MOL0     C81570   8.977   5.981   4.840 -0.5651  0.0368  1.0446
  605MOL0     O81571   8.895   6.050   4.755  0.7182  0.5500  0.1690
  605MOL0     C81572   8.826   5.978   4.657 -1.2146 -0.0807 -1.1133
  605MOL0     C81573   8.894   5.949   4.542 -0.6287  0.3770 -0.9548
  605MOL0     C81574   8.824   5.871   4.446  0.3777 -0.6002 -0.7035
  605MOL0     C81575   8.688   5.844   4.465  0.9258 -0.2684 -0.1775
  605MOL0     O81576   8.629   5.753   4.386 -0.3130 -0.1438 -0.2635
  605MOL0     C81577   8.668   5.725   4.251 -0.8708 -0.3738  0.2490
  605MOL0     C81578   8.547   5.655   4.197  1.2855 -0.2623 -0.5285
  605MOL0     C81579   8.555   5.634   4.037 -0.7169  0.2435 -1.0091
  605MOL0     C81580   8.442   5.545   3.993 -0.2062  0.2892 -0.0681
  605MOL0     C81581   8.439   5.543   3.844  0.0799  0.4403 -0.4044
  605MOL0     C81582   8.562   5.454   3.785  0.5694 -0.0923 -0.0279
  605MOL0     C81583   8.573   5.474   3.630 -0.9263 -0.0033 -0.1675
  605MOL0     C81584   8.570   5.616   3.582  0.5424 -0.3528  0.1970
  605MOL0    Cl81585   8.570   5.612   3.407  0.1934 -0.2133 -0.1813
  605MOL0     C81586   8.625   5.875   4.582  0.1911  0.0277  1.1759
  605MOL0     C81587   8.691   5.937   4.687  0.3339 -0.4356  1.2471
  605MOL0     O81588   8.995   5.857   4.845  0.5158  0.0508  0.2070
  605MOL0     C81589   9.023   6.211   4.922 -0.3733 -1.3537 -0.1107
  605MOL0     C81590   9.085   6.292   5.013 -1.0319 -1.7181 -0.0675
  605MOL0     N81591   9.570   6.503   5.507  0.0019  0.0208 -0.4915
  605MOL0     N81592   9.647   6.482   5.608 -0.6330 -0.9115 -0.4360
  605MOL0     C81593   9.186   5.581   5.929  0.6640  0.5489 -0.1822
  605MOL0     C81594   9.104   5.485   6.004 -0.5225 -0.4515  0.0819
  605MOL0     C81595   8.757   5.293   6.175  0.0104 -0.2719 -0.0316
  605MOL0     C81596   8.752   5.156   6.154 -1.0751 -0.1444 -0.6679
  605MOL0     C81597   8.697   5.072   6.251  0.8128  0.4349  0.1869
  605MOL0     C81598   8.611   5.120   6.350  0.2125 -0.2295  0.3059
  605MOL0     O81599   8.535   5.038   6.434  0.3381 -0.0376  0.4471
  605MOL0     C81600   8.528   4.895   6.415 -0.1473 -0.0671  0.2377
  605MOL0     C81601   8.455   4.857   6.287  0.3889  0.6640  1.2444
  605MOL0     C81602   8.483   4.714   6.239 -0.7465  0.3205  0.6082
  605MOL0     C81603   8.409   4.694   6.105  0.3963  0.4503 -0.6112
  605MOL0     C81604   8.430   4.560   6.058 -0.2413  0.1228  0.7256
  605MOL0     C81605   8.468   4.455   6.021 -0.3679 -0.2451  0.2344
  605MOL0     C81606   8.610   5.262   6.367  0.8693 -1.1876 -0.2255
  605MOL0     C81607   8.686   5.341   6.286 -0.4545 -0.8152 -0.1302
  605MOL0     H81608   8.955   5.353   5.727  1.7244  0.3218 -2.0862
  605MOL0     H81609   9.122   5.486   5.611 -1.5520 -1.2255  0.0590
  605MOL0     H81610   9.286   5.636   5.538  2.7871 -0.7379  0.6835
  605MOL0     H81611   9.161   5.764   5.581 -0.0034  0.6341  2.9745
  605MOL0     H81612   9.463   5.807   5.587  0.7253 -2.3915 -1.7499
  605MOL0     H81613   9.371   5.871   5.462 -1.5118  1.0195  0.8126
  605MOL0     H81614   9.286   6.032   5.563  2.8678  2.1004 -0.0649
  605MOL0     H81615   9.273   5.964   5.725  0.2564  0.9552  0.0793
  605MOL0     H81616   9.523   5.965   5.743  0.3082 -0.8562 -0.0901
  605MOL0     H81617   9.534   6.062   5.592 -2.3470 -0.9059 -2.4309
  605MOL0     H81618   9.413   6.237   5.707  4.2383  0.6282 -2.2946
  605MOL0     H81619   9.394   6.131   5.858  2.6833 -1.6647  0.9936
  605MOL0     H81620   9.647   6.133   5.872  2.5835  1.8073 -0.1690
  605MOL0     H81621   9.643   6.243   5.733 -2.7804  0.4164 -2.2105
  605MOL0     H81622   9.443   6.358   5.913 -1.0592 -1.7364 -1.4475
  605MOL0     H81623   9.580   6.319   6.023  0.0200  0.6636 -0.3033
  605MOL0     H81624   9.729   6.446   5.852 -0.2146 -1.0062  0.0967
  605MOL0     H81625   9.607   6.546   5.925  1.6781 -0.1149  0.6862
  605MOL0     H81626   9.341   6.501   5.746  0.3554  2.3358 -1.1940
  605MOL0     H81627   9.224   6.580   5.518  1.0900  0.5709  1.8488
  605MOL0     H81628   9.340   6.573   5.378  0.0168 -2.3375 -1.4638
  605MOL0     H81629   9.156   6.390   5.381 -0.3555 -1.1605  1.5843
  605MOL0     H81630   9.226   6.349   5.540 -1.9217 -0.4607 -0.1676
  605MOL0     H81631   9.296   6.193   5.370 -0.7967  0.4806  3.3386
  605MOL0     H81632   9.437   6.290   5.426 -0.7443  1.9563  0.0061
  605MOL0     H81633   9.453   6.261   5.193 -0.0553 -0.2416 -1.8955
  605MOL0     H81634   9.447   6.426   5.243 -3.0203  1.5469  2.7319
  605MOL0     H81635   9.306   6.085   5.163  1.3406  0.1478 -0.6748
  605MOL0     H81636   9.236   5.846   4.942  1.3995  0.6008  0.2418
  605MOL0     H81637   9.275   5.888   5.111  1.7812 -0.0854 -0.7456
  605MOL0     H81638   9.106   5.841   5.051  0.0476  0.8499  0.1131
  605MOL0     H81639   9.000   5.974   4.538 -0.3961  0.1853  1.9145
  605MOL0     H81640   8.894   5.833   4.373  1.7290  0.9585 -0.2556
  605MOL0     H81641   8.694   5.818   4.199  1.7303 -2.3641 -2.3203
  605MOL0     H81642   8.753   5.657   4.243 -0.4228  0.2339 -0.3057
  605MOL0     H81643   8.539   5.560   4.249  0.9095 -0.2498 -0.5592
  605MOL0     H81644   8.466   5.722   4.228  3.4651  0.4347  4.5411
  605MOL0     H81645   8.655   5.595   4.016 -0.7783 -0.6305  0.1832
  605MOL0     H81646   8.552   5.734   3.993 -3.5683  0.4113 -0.6114
  605MOL0     H81647   8.433   5.453   4.052 -1.5104 -0.1847 -0.9503
  605MOL0     H81648   8.349   5.589   4.030 -1.4444 -4.0419  2.6856
  605MOL0     H81649   8.453   5.650   3.822  1.4182  0.4697  0.4461
  605MOL0     H81650   8.344   5.510   3.802 -1.0874  0.3312  2.1471
  605MOL0     H81651   8.658   5.481   3.828 -0.3287  0.3659  1.7858
  605MOL0     H81652   8.550   5.351   3.819  0.8935  0.2618  1.2277
  605MOL0     H81653   8.498   5.415   3.576 -2.8123  2.6438 -0.6755
  605MOL0     H81654   8.667   5.429   3.598 -0.4058  1.7009 -1.1907
  605MOL0     H81655   8.665   5.650   3.625  1.0694 -2.1735  0.5999
  605MOL0     H81656   8.483   5.665   3.626  0.0040 -1.8395  0.8975
  605MOL0     H81657   8.519   5.858   4.600 -0.3110  2.3360  0.7902
  605MOL0     H81658   8.635   5.970   4.775 -0.4965  1.1105  0.2016
  605MOL0     H81659   8.940   6.255   4.868 -1.6575 -1.5331  1.6452
  605MOL0     H81660   9.058   6.396   5.018 -0.4058 -1.5556  0.0277
  605MOL0     H81661   9.246   5.652   5.986 -1.7864 -0.8612  4.7018
  605MOL0     H81662   9.104   5.498   6.111 -2.5763  0.1106  0.0418
  605MOL0     H81663   8.812   5.112   6.075  0.5741  0.4684  0.2015
  605MOL0     H81664   8.711   4.965   6.245 -0.4664  0.3136 -1.3299
  605MOL0     H81665   8.631   4.861   6.430 -0.6076 -1.9598 -0.6636
  605MOL0     H81666   8.460   4.854   6.490 -1.1966 -0.3662 -0.8592
  605MOL0     H81667   8.474   4.923   6.202 -0.4279 -1.8915 -1.0862
  605MOL0     H81668   8.350   4.861   6.316 -0.7735 -3.7993 -1.3314
  605MOL0     H81669   8.452   4.636   6.308  0.6015  0.7379  1.7270
  605MOL0     H81670   8.590   4.711   6.219 -0.4585 -0.4077  2.1384
  605MOL0     H81671   8.433   4.773   6.034  1.7951  0.5339 -0.0799
  605MOL0     H81672   8.303   4.709   6.128 -0.1587 -0.3451 -2.4484
  605MOL0     H81673   8.497   4.358   5.986  0.0264 -0.5796  1.4277
  605MOL0     H81674   8.547   5.296   6.449 -1.4444 -2.0164 -1.5611
  605MOL0     H81675   8.692   5.444   6.318  3.1361 -1.5133  1.9027
  606MOL0     O81676   6.852   9.097   4.436 -0.5333  0.3118 -0.4942
  606MOL0     C81677   6.785   9.026   4.358  0.0317 -0.0339 -0.3085
  606MOL0     O81678   6.726   9.065   4.241  0.4528 -0.5136  0.0840
  606MOL0     C81679   6.755   9.184   4.177 -1.1709  0.9642  0.0615
  606MOL0     C81680   6.883   9.243   4.181 -0.7993  0.9778  0.5420
  606MOL0     C81681   6.911   9.369   4.130 -0.7694 -0.4295 -0.0423
  606MOL0     C81682   6.803   9.448   4.096 -0.3289 -0.8011  0.4427
  606MOL0     O81683   6.809   9.586   4.064  0.3665  0.7761 -0.0799
  606MOL0     C81684   6.936   9.653   4.060 -1.5383  0.2612  0.5292
  606MOL0     C81685   6.922   9.801   4.042  0.5094 -1.1001  0.4339
  606MOL0     C81686   6.808   9.836   3.934 -0.1693 -0.3309  0.2463
  606MOL0     C81687   6.794   9.981   3.913  0.8035 -0.3713 -0.0125
  606MOL0     C81688   6.679  10.028   3.830 -0.5378  0.0412 -0.0009
  606MOL0     C81689   6.533  10.020   3.882  0.5058  0.5451 -0.0104
  606MOL0     C81690   6.432  10.082   3.774  0.3294  0.1446  0.3037
  606MOL0     C81691   6.401  10.234   3.800 -0.3383 -0.0972  0.1475
  606MOL0     N81692   6.329  10.285   3.688  0.2262  0.1765  0.2206
  606MOL0     C81693   6.384  10.287   3.561 -0.9717 -0.4532  0.8130
  606MOL0     C81694   6.273  10.280   3.480  0.2149 -0.1615 -0.1542
  606MOL0     C81695   6.271  10.266   3.333 -0.0213 -0.7784 -0.7340
  606MOL0     C81696   6.261  10.113   3.307  0.0332  0.4176  0.0712
  606MOL0     C81697   6.237  10.113   3.149  0.1760 -0.5303 -0.3362
  606MOL0     C81698   6.236   9.974   3.085 -0.5069 -0.1848 -0.1670
  606MOL0     O81699   6.378   9.949   3.064  0.7228 -0.2931 -0.4973
  606MOL0     C81700   6.436   9.827   3.066 -0.4739 -0.3705  0.7049
  606MOL0     C81701   6.571   9.813   3.086 -1.4083  0.5297 -0.6302
  606MOL0     C81702   6.640   9.692   3.087  0.3052 -0.5067 -0.3220
  606MOL0     C81703   6.789   9.698   3.113  0.8032  0.1057  0.0688
  606MOL0     C81704   6.568   9.574   3.069 -0.0523 -0.8706 -0.6083
  606MOL0     C81705   6.621   9.445   3.067 -0.1126  0.8769  0.0615
  606MOL0     O81706   6.559   9.339   3.122  0.0025  0.3261 -0.3908
  606MOL0     C81707   6.620   9.220   3.121 -0.7131 -0.4208 -0.1685
  606MOL0     C81708   6.688   9.176   3.238 -0.7452 -0.3810  0.3280
  606MOL0     C81709   6.733   9.042   3.238  0.4184  0.7022 -0.4621
  606MOL0     C81710   6.705   8.958   3.133 -0.9677  0.0574  0.2488
  606MOL0     O81711   6.710   8.824   3.166  0.4750  0.0156 -0.1149
  606MOL0     C81712   6.670   8.738   3.056 -0.0917  0.3397 -0.2426
  606MOL0     C81713   6.698   8.596   3.092  0.1716 -0.0286  0.2996
  606MOL0     C81714   6.611   8.500   3.007 -0.2085 -0.7070 -0.5655
  606MOL0     C81715   6.578   8.370   3.077 -0.3046  1.5925 -0.7494
  606MOL0     C81716   6.534   8.253   2.975 -0.2462 -0.2888 -0.4631
  606MOL0     C81717   6.478   8.130   3.048  0.6424  0.0208  0.3629
  606MOL0     C81718   6.388   8.050   2.951  0.0031  0.3331  0.4504
  606MOL0     C81719   6.343   7.924   3.013  0.5598 -0.6654 -0.7858
  606MOL0    Cl81720   6.222   7.846   2.902  0.0095  0.8123  0.4706
  606MOL0     C81721   6.648   9.015   3.015 -0.2892 -0.3400 -0.2524
  606MOL0     C81722   6.594   9.141   3.018 -1.2287 -0.2753  0.0240
  606MOL0     O81723   6.736   9.435   3.020  0.3490 -0.1484  0.5928
  606MOL0     C81724   6.431   9.582   3.046  0.2549 -1.0954  0.0395
  606MOL0     C81725   6.361   9.711   3.050  0.3732  0.0667  0.0746
  606MOL0     N81726   6.160  10.284   3.560 -0.1468  0.4187 -0.0874
  606MOL0     N81727   6.197  10.286   3.685 -0.0994 -0.3228  0.2800
  606MOL0     C81728   6.676   9.400   4.100 -0.6631  0.7418 -0.1197
  606MOL0     C81729   6.657   9.263   4.115 -0.3264 -0.5911 -0.4490
  606MOL0     C81730   6.777   8.879   4.391 -0.3237 -0.9897  0.6761
  606MOL0     C81731   6.731   8.786   4.301 -0.9673 -0.0042 -0.1441
  606MOL0     C81732   6.708   8.650   4.348 -0.1433 -0.0418 -0.0610
  606MOL0     C81733   6.727   8.609   4.476 -0.2595 -0.3957  0.4358
  606MOL0     O81734   6.680   8.481   4.505 -0.1022 -0.0729  0.7991
  606MOL0     C81735   6.669   8.444   4.643  0.4571  0.9519 -0.1157
  606MOL0     C81736   6.798   8.402   4.711  0.6913 -0.1384 -1.0860
  606MOL0     C81737   6.840   8.255   4.673  0.1246  0.6540 -0.0516
  606MOL0     C81738   6.985   8.234   4.687 -0.1065  0.3463 -0.2185
  606MOL0     C81739   7.038   8.276   4.819  1.8109 -0.8170 -0.3557
  606MOL0     C81740   7.108   8.299   4.917 -0.4449 -0.1219  0.0031
  606MOL0     C81741   6.769   8.707   4.564 -0.5845 -0.2219  0.7830
  606MOL0     C81742   6.788   8.838   4.521 -0.1657  0.1784  0.7522
  606MOL0     H81743   6.960   9.176   4.217 -0.8705 -0.6010 -1.9608
  606MOL0     H81744   7.015   9.398   4.118 -0.1972 -1.2530  2.3454
  606MOL0     H81745   6.990   9.657   4.155 -2.0923  2.1975  0.8005
  606MOL0     H81746   7.002   9.607   3.985 -1.4119 -0.6452  1.1786
  606MOL0     H81747   6.907   9.856   4.136 -0.2196  0.9714 -0.8337
  606MOL0     H81748   7.019   9.837   4.007  0.5916 -0.0830  1.6201
  606MOL0     H81749   6.824   9.785   3.839 -0.4242  2.0391 -1.1381
  606MOL0     H81750   6.711   9.794   3.965 -1.2165  1.3174 -0.6800
  606MOL0     H81751   6.790  10.029   4.011  1.2238  2.0276 -1.0788
  606MOL0     H81752   6.877  10.025   3.856 -0.5713  2.4846 -0.0084
  606MOL0     H81753   6.691  10.136   3.817  0.1320 -0.1432 -0.9525
  606MOL0     H81754   6.684   9.976   3.734 -2.5643 -1.9059  0.8476
  606MOL0     H81755   6.500   9.919   3.910 -2.2095  1.7776  1.5764
  606MOL0     H81756   6.525  10.082   3.972 -0.9394 -1.3320  1.2290
  606MOL0     H81757   6.488  10.065   3.682  2.2493 -3.6434  1.9238
  606MOL0     H81758   6.346  10.015   3.766  1.9980 -1.9061 -3.8146
  606MOL0     H81759   6.494  10.284   3.827 -0.5131 -1.5682  3.9203
  606MOL0     H81760   6.340  10.239   3.890 -0.0479  1.9344  0.2900
  606MOL0     H81761   6.487  10.287   3.527 -1.6369 -0.9421 -1.3153
  606MOL0     H81762   6.184  10.315   3.288 -0.3212 -0.0044  0.6188
  606MOL0     H81763   6.363  10.299   3.284  0.2786 -1.2586 -0.5055
  606MOL0     H81764   6.181  10.070   3.367  1.1055 -0.5988  0.8090
  606MOL0     H81765   6.349  10.059   3.342 -1.8899 -1.4486  2.3511
  606MOL0     H81766   6.312  10.182   3.109  0.2715 -1.5225 -1.9231
  606MOL0     H81767   6.141  10.159   3.126  0.7877 -0.0951 -2.1829
  606MOL0     H81768   6.183   9.990   2.990 -2.6061  1.3214  1.1689
  606MOL0     H81769   6.177   9.902   3.143 -2.2069  2.1400  1.1323
  606MOL0     H81770   6.628   9.905   3.095 -1.0633  0.2466  0.1464
  606MOL0     H81771   6.842   9.692   3.017 -0.9623 -1.3674 -0.8732
  606MOL0     H81772   6.819   9.796   3.153  1.5707  2.0008 -4.4851
  606MOL0     H81773   6.819   9.616   3.178 -3.9997 -2.6921 -0.7928
  606MOL0     H81774   6.687   9.246   3.321  0.1950  0.9615 -0.7398
  606MOL0     H81775   6.778   8.998   3.326 -1.4887 -2.6023 -1.0124
  606MOL0     H81776   6.564   8.759   3.038 -0.1569 -0.2688 -0.5939
  606MOL0     H81777   6.731   8.760   2.968 -0.8478  1.0695 -0.6004
  606MOL0     H81778   6.804   8.576   3.076  0.0872 -0.6989  0.5689
  606MOL0     H81779   6.667   8.571   3.194  2.5167  0.2363  1.1357
  606MOL0     H81780   6.669   8.490   2.915  2.5663  5.3017  0.0179
  606MOL0     H81781   6.515   8.548   2.984 -0.1041  0.0944  0.6145
  606MOL0     H81782   6.661   8.325   3.132 -1.9486  1.0873  1.5003
  606MOL0     H81783   6.493   8.385   3.145  1.4888  1.1728  1.7501
  606MOL0     H81784   6.612   8.226   2.903  2.3663 -2.0625  2.7518
  606MOL0     H81785   6.451   8.306   2.926  0.0273  0.7153  0.1343
  606MOL0     H81786   6.564   8.072   3.084  1.4658  0.6167 -0.5989
  606MOL0     H81787   6.421   8.165   3.134  1.9606  2.0726  0.4629
  606MOL0     H81788   6.436   8.021   2.857  2.0784  1.0409  1.2355
  606MOL0     H81789   6.306   8.117   2.922 -0.0078  0.8378  1.6092
  606MOL0     H81790   6.285   7.956   3.100 -0.5812  2.8460 -2.6219
  606MOL0     H81791   6.421   7.851   3.037 -0.1178 -1.4814 -1.0025
  606MOL0     H81792   6.610   8.951   2.936  3.0785  0.4345 -2.7074
  606MOL0     H81793   6.535   9.181   2.936  0.6603  0.3500 -1.0753
  606MOL0     H81794   6.364   9.500   3.024  1.0014 -1.9071  0.6860
  606MOL0     H81795   6.253   9.714   3.039  0.4076  1.1731 -0.1053
  606MOL0     H81796   6.589   9.456   4.070 -1.1853 -1.3354 -2.9492
  606MOL0     H81797   6.563   9.219   4.085 -1.1384  0.1297  0.9514
  606MOL0     H81798   6.709   8.828   4.203 -1.0014  2.9967  1.0375
  606MOL0     H81799   6.666   8.572   4.285  0.1278 -0.4022  0.2007
  606MOL0     H81800   6.614   8.517   4.704  2.2221  1.8162  0.5217
  606MOL0     H81801   6.607   8.356   4.661 -0.2848  1.9778  3.0684
  606MOL0     H81802   6.771   8.420   4.816 -3.1469 -2.1863 -1.5447
  606MOL0     H81803   6.873   8.475   4.683 -2.1185  3.5798  0.2452
  606MOL0     H81804   6.806   8.227   4.573 -0.3924 -3.9011  1.1688
  606MOL0     H81805   6.785   8.186   4.737 -2.6899  2.6000 -0.1966
  606MOL0     H81806   7.038   8.291   4.611 -1.0978 -1.0123 -1.9976
  606MOL0     H81807   7.009   8.127   4.679 -0.6610  0.2062 -0.0799
  606MOL0     H81808   7.166   8.317   5.004 -0.1291 -1.0999  0.0044
  606MOL0     H81809   6.762   8.678   4.668 -0.2317 -0.4002  0.7580
  606MOL0     H81810   6.817   8.908   4.599  0.3543  1.8745 -0.8989
  607MOL0     O81811   9.752  10.905   7.119 -0.2191  0.2165 -0.4352
  607MOL0     C81812   9.726  10.984   7.209 -0.2513  0.3157 -0.4232
  607MOL0     O81813   9.755  10.962   7.337 -0.4743  0.1937 -0.1259
  607MOL0     C81814   9.865  10.883   7.354 -0.2418 -0.2142  0.1121
  607MOL0     C81815   9.847  10.747   7.347 -0.2347  0.3200  0.4529
  607MOL0     C81816   9.947  10.655   7.386 -0.5668  0.0258 -0.3969
  607MOL0     C81817  10.069  10.707   7.430  0.2222  0.0496  0.2188
  607MOL0     O81818  10.182  10.635   7.455  0.3982  0.5415 -0.4016
  607MOL0     C81819  10.169  10.507   7.525 -0.5168 -0.1555 -0.7374
  607MOL0     C81820  10.298  10.430   7.532 -0.0527  0.0070  0.2350
  607MOL0     C81821  10.411  10.489   7.623  0.3917  1.1531 -0.2313
  607MOL0     C81822  10.467  10.633   7.589  0.6801 -0.4870  0.4710
  607MOL0     C81823  10.561  10.682   7.700 -0.3518  0.0379  0.3386
  607MOL0     C81824  10.607  10.820   7.676  0.1565 -0.3887  0.2390
  607MOL0     C81825  10.697  10.840   7.560 -0.8888 -0.1343 -0.6079
  607MOL0     C81826  10.682  10.984   7.528  0.5719 -1.0020 -0.6386
  607MOL0     N81827  10.799  10.997   7.438  0.3858 -0.4554  0.0423
  607MOL0     C81828  10.798  10.960   7.304 -0.2885 -0.1957  0.4978
  607MOL0     C81829  10.889  11.038   7.247  0.1988  0.3255 -0.6433
  607MOL0     C81830  10.896  11.029   7.102  0.4557  0.2039  0.4542
  607MOL0     C81831  11.028  11.068   7.045 -0.2247 -0.1150 -0.3841
  607MOL0     C81832  11.021  11.118   6.900 -0.7582 -0.4812  0.4100
  607MOL0     C81833  11.171  11.151   6.850  0.0353  0.4186 -0.2491
  607MOL0     O81834  11.166  11.143   6.704 -0.2062 -0.9235  0.4968
  607MOL0     C81835  11.287  11.186   6.643  0.2364 -0.5713 -0.1707
  607MOL0     C81836  11.408  11.225   6.710 -0.3481  0.0772  0.1546
  607MOL0     C81837  11.525  11.283   6.647 -0.1506  0.3096 -0.3046
  607MOL0     C81838  11.636  11.331   6.735  0.1299  0.6251 -0.2252
  607MOL0     C81839  11.513  11.305   6.501  0.0185  0.5091 -0.5359
  607MOL0     C81840  11.621  11.365   6.412  0.4564 -0.4802  0.1655
  607MOL0     O81841  11.592  11.396   6.286  0.7071 -0.2885 -0.2263
  607MOL0     C81842  11.688  11.462   6.208  0.7941 -0.4733  0.3181
  607MOL0     C81843  11.779  11.388   6.143 -0.5919 -0.0824 -0.0620
  607MOL0     C81844  11.892  11.442   6.077  0.1070 -1.0139 -0.1659
  607MOL0     C81845  11.884  11.581   6.056  0.9991 -0.4362  0.1347
  607MOL0     O81846  11.968  11.664   5.985  0.7542  0.0028  0.2294
  607MOL0     C81847  12.020  11.777   6.047 -0.9634  0.1586 -0.4510
  607MOL0     C81848  12.080  11.874   5.955  0.0181  0.1400 -0.3386
  607MOL0     C81849  11.971  11.959   5.884 -0.5754  0.3652  0.0897
  607MOL0     C81850  12.041  12.050   5.792 -0.6797 -0.4057  0.1274
  607MOL0     C81851  11.947  12.099   5.680  1.3811 -0.1056  1.2363
  607MOL0     C81852  12.017  12.210   5.599 -0.1530  0.3243  0.0954
  607MOL0     C81853  11.942  12.232   5.462  0.6273 -0.0504 -0.2329
  607MOL0     C81854  12.020  12.332   5.374  0.8583  0.8507  1.1605
  607MOL0    Cl81855  12.014  12.496   5.431 -0.0457  0.1903 -0.0877
  607MOL0     C81856  11.766  11.653   6.096 -0.0665  0.4402  0.0390
  607MOL0     C81857  11.675  11.592   6.181 -0.1919 -0.4044  0.0245
  607MOL0     O81858  11.737  11.354   6.462 -0.3537 -0.0517  0.2031
  607MOL0     C81859  11.389  11.267   6.444  0.5084  0.0859 -0.0183
  607MOL0     C81860  11.277  11.223   6.514  0.7889  0.1717 -0.1106
  607MOL0     N81861  10.948  11.124   7.339 -0.1892 -0.0804 -0.5635
  607MOL0     N81862  10.895  11.093   7.454 -0.0098 -0.5602 -1.1968
  607MOL0     C81863  10.075  10.845   7.446 -0.7352 -0.5879 -0.0951
  607MOL0     C81864   9.981  10.934   7.404  0.8246  0.0567  0.3410
  607MOL0     C81865   9.680  11.114   7.169 -0.7426  0.9326  0.7021
  607MOL0     C81866   9.635  11.211   7.261 -0.8564  0.6913  0.2140
  607MOL0     C81867   9.585  11.340   7.231 -0.0619 -0.1512 -0.5135
  607MOL0     C81868   9.576  11.375   7.102  0.3535  0.6606 -0.2323
  607MOL0     O81869   9.545  11.504   7.060 -0.2979 -0.6251  0.1858
  607MOL0     C81870   9.428  11.564   7.121 -0.5549  0.9955  0.1094
  607MOL0     C81871   9.341  11.663   7.040 -0.1935 -0.4993  0.8367
  607MOL0     C81872   9.424  11.775   6.967  1.5510  0.2555 -0.2735
  607MOL0     C81873   9.478  11.882   7.063 -0.3610 -0.3444 -0.3323
  607MOL0     C81874   9.532  11.999   6.984 -0.1243  0.3483  0.4328
  607MOL0     C81875   9.538  12.109   6.923 -0.2166 -0.8837 -0.7541
  607MOL0     C81876   9.617  11.288   7.004 -0.0282  0.2607  0.0833
  607MOL0     C81877   9.669  11.159   7.035  0.7415 -0.5969 -0.6207
  607MOL0     H81878   9.759  10.697   7.307 -0.4962  0.0845  1.3027
  607MOL0     H81879   9.934  10.548   7.373  0.4438 -0.0046 -1.3724
  607MOL0     H81880  10.133  10.524   7.627  1.7709 -2.3179  0.5418
  607MOL0     H81881  10.104  10.443   7.464 -1.2269 -0.8861  0.7227
  607MOL0     H81882  10.264  10.329   7.557 -1.6953  0.1016 -1.4392
  607MOL0     H81883  10.345  10.430   7.433  0.3382 -0.5110  0.4159
  607MOL0     H81884  10.358  10.488   7.718  2.1549 -1.2053  0.8218
  607MOL0     H81885  10.496  10.420   7.635 -0.8320 -0.1795  1.1790
  607MOL0     H81886  10.498  10.638   7.485 -2.9463 -0.0968 -0.7448
  607MOL0     H81887  10.381  10.699   7.607  1.9532  1.9308 -1.6375
  607MOL0     H81888  10.499  10.677   7.790  0.0443 -0.0250  0.6122
  607MOL0     H81889  10.642  10.608   7.702 -0.4470 -0.0632  0.4815
  607MOL0     H81890  10.516  10.879   7.661  0.8706  0.0540 -2.9760
  607MOL0     H81891  10.644  10.864   7.769 -0.0423  1.1760 -0.3903
  607MOL0     H81892  10.800  10.816   7.584  0.6029  1.1099 -4.7349
  607MOL0     H81893  10.672  10.778   7.474 -1.8316 -1.6444  0.7125
  607MOL0     H81894  10.691  11.051   7.614  1.5265 -2.5873  0.5753
  607MOL0     H81895  10.580  11.003   7.494  0.2262  1.8937  1.6724
  607MOL0     H81896  10.734  10.893   7.247 -0.7967  0.3450  0.4265
  607MOL0     H81897  10.861  10.933   7.064 -2.1192  0.9901  0.6188
  607MOL0     H81898  10.831  11.103   7.054  0.4591  1.9298  2.9290
  607MOL0     H81899  11.105  10.993   7.064  1.4641  1.5644 -0.3399
  607MOL0     H81900  11.061  11.151   7.107  0.6156  0.4633 -1.5623
  607MOL0     H81901  10.964  11.211   6.903 -0.9387 -0.5808  0.2085
  607MOL0     H81902  10.974  11.050   6.828  0.6013 -1.3802  0.3416
  607MOL0     H81903  11.246  11.082   6.889 -0.5590 -0.4311 -0.5935
  607MOL0     H81904  11.200  11.249   6.890  0.8744 -0.1454  0.5495
  607MOL0     H81905  11.419  11.207   6.816  0.6096 -2.4565 -0.2928
  607MOL0     H81906  11.620  11.301   6.839 -3.6122  2.6270 -0.0475
  607MOL0     H81907  11.733  11.293   6.701 -0.4695  0.7845 -2.2535
  607MOL0     H81908  11.643  11.440   6.729  1.3957  0.6441  1.0388
  607MOL0     H81909  11.777  11.280   6.158 -3.1531  0.2962  3.6998
  607MOL0     H81910  11.963  11.370   6.039 -0.6243 -2.7264  1.5548
  607MOL0     H81911  11.940  11.825   6.103 -0.9179  0.0345 -0.2780
  607MOL0     H81912  12.092  11.737   6.118  1.2087  0.1199 -2.5335
  607MOL0     H81913  12.154  11.927   6.016  0.5074 -1.2901  0.3639
  607MOL0     H81914  12.138  11.819   5.881  0.5006 -1.9458  1.4663
  607MOL0     H81915  11.908  12.005   5.961 -0.8281  0.5881 -0.2468
  607MOL0     H81916  11.908  11.890   5.827  3.3061 -2.5619 -1.0919
  607MOL0     H81917  12.085  12.134   5.846  0.6849 -0.6715 -0.5083
  607MOL0     H81918  12.127  12.004   5.741 -0.0136  0.4081  0.4908
  607MOL0     H81919  11.846  12.135   5.703  0.5141 -1.5162 -0.1921
  607MOL0     H81920  11.923  12.007   5.627 -1.5248 -0.5937  3.1698
  607MOL0     H81921  12.019  12.296   5.668 -2.5629  0.3065  0.3018
  607MOL0     H81922  12.118  12.180   5.571  0.6725  1.7160  1.4191
  607MOL0     H81923  11.848  12.283   5.487  1.3313  0.0882  2.3264
  607MOL0     H81924  11.911  12.150   5.396 -3.5724  1.0175  0.1357
  607MOL0     H81925  11.984  12.335   5.271  0.9827  1.9264  1.1338
  607MOL0     H81926  12.126  12.306   5.368  1.3069  2.4076  1.7027
  607MOL0     H81927  11.757  11.756   6.063 -0.0366  0.6877  0.7747
  607MOL0     H81928  11.598  11.648   6.232  0.9051 -0.2889  1.6301
  607MOL0     H81929  11.359  11.271   6.339 -0.6085 -0.5172  0.2655
  607MOL0     H81930  11.182  11.199   6.467 -0.3210  1.6312  1.2762
  607MOL0     H81931  10.169  10.889   7.476 -1.6262  3.0577 -2.1252
  607MOL0     H81932  10.000  11.041   7.414  1.2142 -0.0072  0.2926
  607MOL0     H81933   9.645  11.195   7.367 -1.3937  0.8049  0.2858
  607MOL0     H81934   9.561  11.400   7.318 -1.0687 -0.4559 -0.5765
  607MOL0     H81935   9.356  11.483   7.134  0.7201 -0.3480 -0.9675
  607MOL0     H81936   9.461  11.614   7.213  2.3774  0.9892 -0.8246
  607MOL0     H81937   9.290  11.709   7.126  0.2519 -2.1101  2.0113
  607MOL0     H81938   9.269  11.605   6.981  0.1731 -1.7478  1.5628
  607MOL0     H81939   9.360  11.809   6.885  1.4991  0.4009 -0.1720
  607MOL0     H81940   9.513  11.726   6.926  0.2723 -0.6116 -2.1644
  607MOL0     H81941   9.559  11.842   7.125  1.6791  2.0805 -1.2564
  607MOL0     H81942   9.388  11.901   7.122 -0.5983 -2.8094  0.2298
  607MOL0     H81943   9.559  12.199   6.870 -1.7689 -0.8615 -1.3586
  607MOL0     H81944   9.618  11.324   6.902 -1.2583  3.6377  1.1491
  607MOL0     H81945   9.702  11.095   6.953 -1.4569 -0.0886 -1.9915
  608MOL0     O81946   7.318   2.809   8.391  0.2075 -0.6594 -0.1423
  608MOL0     C81947   7.202   2.782   8.356  0.5691 -0.3007  0.8045
  608MOL0     O81948   7.168   2.741   8.220  0.7633  0.7217 -0.1901
  608MOL0     C81949   7.254   2.770   8.112  0.7353 -0.2497 -1.5309
  608MOL0     C81950   7.247   2.886   8.039  1.0185  0.2971  0.6114
  608MOL0     C81951   7.330   2.924   7.949  0.5154 -0.2181 -0.5379
  608MOL0     C81952   7.432   2.834   7.902 -0.6548 -0.9424  0.2766
  608MOL0     O81953   7.508   2.861   7.779  0.0789 -0.1272 -0.1673
  608MOL0     C81954   7.547   2.746   7.697 -0.3687  0.9175  0.1778
  608MOL0     C81955   7.622   2.782   7.569  0.5068 -0.1071  0.2905
  608MOL0     C81956   7.521   2.859   7.481  0.3534 -1.1780  0.7941
  608MOL0     C81957   7.544   2.829   7.331 -0.6888 -0.4520  0.8124
  608MOL0     C81958   7.477   2.921   7.231  0.9583 -0.5456 -0.0993
  608MOL0     C81959   7.320   2.897   7.212 -0.5747 -0.2540 -0.4495
  608MOL0     C81960   7.285   2.750   7.175  0.0201  0.8220 -0.0144
  608MOL0     C81961   7.137   2.744   7.133 -0.2519 -0.5031  0.4823
  608MOL0     N81962   7.049   2.749   7.241 -0.3507 -0.4682 -0.7413
  608MOL0     C81963   6.993   2.861   7.312  0.1945 -0.1381  1.8426
  608MOL0     C81964   6.918   2.816   7.404 -0.2417 -0.0248  0.7005
  608MOL0     C81965   6.820   2.876   7.499  0.1291  1.0080 -0.3274
  608MOL0     C81966   6.748   2.989   7.435  0.3580 -0.0115  0.4466
  608MOL0     C81967   6.634   2.959   7.339 -0.3701 -0.4398  0.1385
  608MOL0     C81968   6.660   2.859   7.234  0.5185 -0.6273  0.2888
  608MOL0     O81969   6.547   2.872   7.137 -0.3829 -0.2506  0.2967
  608MOL0     C81970   6.541   2.765   7.050  0.4904 -0.9859  0.1535
  608MOL0     C81971   6.445   2.787   6.952 -0.7629  0.2006  0.4917
  608MOL0     C81972   6.421   2.699   6.851  0.5005  0.0055  0.4981
  608MOL0     C81973   6.308   2.741   6.759 -0.0999  0.2590 -0.1313
  608MOL0     C81974   6.499   2.573   6.849  1.1550 -0.0267  0.8975
  608MOL0     C81975   6.463   2.482   6.748  0.8113  0.4460  0.4189
  608MOL0     O81976   6.571   2.424   6.677  0.3629  0.8019  0.0511
  608MOL0     C81977   6.557   2.299   6.632 -0.1188  0.0248 -0.1065
  608MOL0     C81978   6.627   2.190   6.679 -0.3056  0.4550 -0.5619
  608MOL0     C81979   6.613   2.064   6.628  0.2975 -1.1866  0.2399
  608MOL0     C81980   6.527   2.033   6.523 -0.5473 -0.0615  0.3328
  608MOL0     O81981   6.526   1.909   6.464  0.8502 -0.4261  0.0304
  608MOL0     C81982   6.476   1.880   6.327  0.8204 -0.0350  0.3937
  608MOL0     C81983   6.505   1.734   6.302 -0.4180 -0.4711 -0.2066
  608MOL0     C81984   6.426   1.697   6.178  0.2928  0.1426  0.5727
  608MOL0     C81985   6.487   1.587   6.096  0.3231 -0.2566  0.0726
  608MOL0     C81986   6.420   1.568   5.956  0.4124  0.0147 -0.4295
  608MOL0     C81987   6.370   1.423   5.921  0.6930  0.5140  0.5186
  608MOL0     C81988   6.250   1.433   5.825  0.5213 -0.1308  0.7297
  608MOL0     C81989   6.266   1.526   5.706  0.1837 -0.6344 -0.9075
  608MOL0    Cl81990   6.418   1.477   5.626 -0.0842  0.0017  0.3332
  608MOL0     C81991   6.456   2.141   6.466  0.5151  0.4915  0.2741
  608MOL0     C81992   6.463   2.268   6.530 -0.5330  0.0720  0.1389
  608MOL0     O81993   6.338   2.466   6.728 -0.2608  0.9700 -0.6643
  608MOL0     C81994   6.602   2.564   6.937  0.5576  0.0387 -0.1084
  608MOL0     C81995   6.622   2.652   7.037  0.3196 -0.6283  0.1414
  608MOL0     N81996   6.923   2.681   7.397  0.3891  0.5541  0.1369
  608MOL0     N81997   7.007   2.636   7.313 -0.0599  0.0442  0.4704
  608MOL0     C81998   7.453   2.721   7.977  0.0979  0.0431 -0.3479
  608MOL0     C81999   7.361   2.688   8.087 -1.5695 -0.7618  0.6134
  608MOL0     C82000   7.091   2.783   8.451 -0.7338  0.8262  0.9019
  608MOL0     C82001   7.116   2.795   8.588  0.5102 -0.2062 -0.5141
  608MOL0     C82002   7.014   2.805   8.689  0.2854  0.0660 -0.3119
  608MOL0     C82003   6.873   2.811   8.655  0.3511  0.3891 -0.2320
  608MOL0     O82004   6.782   2.813   8.760  0.4125 -0.9139 -0.4246
  608MOL0     C82005   6.645   2.841   8.724  0.3113 -0.3845 -0.0970
  608MOL0     C82006   6.559   2.848   8.845  0.2140 -0.2402  0.4735
  608MOL0     C82007   6.582   2.745   8.952 -0.4848  0.5620 -0.6980
  608MOL0     C82008   6.671   2.788   9.068 -0.2149  0.6738  0.8836
  608MOL0     C82009   6.598   2.867   9.169 -0.5992  0.0388 -1.1476
  608MOL0     C82010   6.543   2.926   9.259  0.6935 -0.8373  1.1256
  608MOL0     C82011   6.849   2.806   8.516 -0.0795  0.1284 -0.4228
  608MOL0     C82012   6.952   2.788   8.418 -0.1151  1.1370 -0.2069
  608MOL0     H82013   7.163   2.951   8.062  1.2392  0.1424  1.9324
  608MOL0     H82014   7.307   3.015   7.894  1.7298 -0.0178 -0.7461
  608MOL0     H82015   7.627   2.688   7.744 -0.3692  0.7556 -0.0180
  608MOL0     H82016   7.469   2.671   7.679  1.4875 -0.9885 -0.3103
  608MOL0     H82017   7.715   2.837   7.587  1.9945 -2.7858  1.4604
  608MOL0     H82018   7.656   2.687   7.526  0.1553 -0.1418  0.0862
  608MOL0     H82019   7.416   2.830   7.494 -0.6768  0.9230 -1.8768
  608MOL0     H82020   7.528   2.967   7.493  0.1450 -0.5571 -3.4284
  608MOL0     H82021   7.653   2.830   7.323 -0.7186  1.1081  0.2883
  608MOL0     H82022   7.516   2.726   7.308 -1.3693  0.2457 -1.7629
  608MOL0     H82023   7.494   3.022   7.269  0.9961 -0.4688 -0.3210
  608MOL0     H82024   7.532   2.911   7.137 -0.9946 -0.1065 -1.3557
  608MOL0     H82025   7.278   2.922   7.310 -2.0590  0.5789 -1.2626
  608MOL0     H82026   7.277   2.967   7.139 -0.0827  1.3917  0.7595
  608MOL0     H82027   7.346   2.708   7.096  1.3278 -0.1805  1.4617
  608MOL0     H82028   7.316   2.690   7.261  1.2420  0.1657 -0.8902
  608MOL0     H82029   7.112   2.655   7.073  0.2876  1.0324 -2.1912
  608MOL0     H82030   7.117   2.829   7.066  2.5451  1.8167  2.3659
  608MOL0     H82031   6.992   2.964   7.279 -1.8178 -0.6585  0.0881
  608MOL0     H82032   6.759   2.808   7.559  0.4754  0.3366 -0.7195
  608MOL0     H82033   6.877   2.927   7.578  1.4632  2.3267 -2.0613
  608MOL0     H82034   6.819   3.051   7.380  0.2530 -1.5013 -1.4861
  608MOL0     H82035   6.703   3.047   7.516  0.1013  1.7717 -0.9049
  608MOL0     H82036   6.619   3.050   7.280 -0.8842 -1.1806 -0.8950
  608MOL0     H82037   6.543   2.940   7.396 -0.7465  4.0792  1.4109
  608MOL0     H82038   6.668   2.758   7.275  0.1700  0.1499  2.3923
  608MOL0     H82039   6.752   2.876   7.177  0.5183  1.9197  0.8959
  608MOL0     H82040   6.394   2.882   6.963 -0.4637  0.2041  2.2227
  608MOL0     H82041   6.270   2.843   6.771 -0.5856  0.4345 -2.6735
  608MOL0     H82042   6.334   2.713   6.657  0.5865 -1.4772  0.4840
  608MOL0     H82043   6.223   2.673   6.772  0.5692 -0.2940  1.5435
  608MOL0     H82044   6.684   2.208   6.769  0.0766 -4.3326  0.4596
  608MOL0     H82045   6.648   1.976   6.682  1.8479 -0.1649  1.0051
  608MOL0     H82046   6.367   1.876   6.318  0.8540 -3.7298  0.3487
  608MOL0     H82047   6.517   1.942   6.246  2.1748 -2.8448 -1.2306
  608MOL0     H82048   6.612   1.717   6.290 -0.4352 -0.3937 -0.4761
  608MOL0     H82049   6.466   1.677   6.387  3.2515  0.2379  2.1737
  608MOL0     H82050   6.406   1.784   6.116 -1.9856 -0.7485 -0.0655
  608MOL0     H82051   6.334   1.648   6.214  1.4268 -2.1773  0.5385
  608MOL0     H82052   6.591   1.618   6.082  0.0466  1.4660  1.5359
  608MOL0     H82053   6.476   1.495   6.155 -2.5520  1.9253  3.3508
  608MOL0     H82054   6.493   1.599   5.880  1.6828 -0.8357  0.4029
  608MOL0     H82055   6.329   1.627   5.946 -0.3440 -1.3700 -2.2155
  608MOL0     H82056   6.446   1.361   5.872 -1.6700 -1.0463 -1.4171
  608MOL0     H82057   6.334   1.376   6.013 -1.5407  3.9091  1.5520
  608MOL0     H82058   6.163   1.460   5.886 -1.4872  0.7188 -2.2883
  608MOL0     H82059   6.234   1.334   5.780  1.9866  0.4288 -1.1722
  608MOL0     H82060   6.277   1.629   5.741 -0.3770 -1.7914  3.2569
  608MOL0     H82061   6.180   1.517   5.640 -1.2159 -4.7542  1.0905
  608MOL0     H82062   6.386   2.135   6.383  0.1073  2.3704  0.4366
  608MOL0     H82063   6.389   2.339   6.495  0.2875  0.4733 -0.8309
  608MOL0     H82064   6.660   2.472   6.934  2.2211  0.9814  1.2105
  608MOL0     H82065   6.709   2.657   7.101  0.6494  4.4256 -0.2836
  608MOL0     H82066   7.528   2.646   7.952 -1.3351 -2.0706  1.3376
  608MOL0     H82067   7.390   2.609   8.156 -1.5386 -0.2626  1.1835
  608MOL0     H82068   7.215   2.784   8.631 -1.0550  1.2137  3.9463
  608MOL0     H82069   7.035   2.817   8.795 -3.9383  0.4099  0.6537
  608MOL0     H82070   6.635   2.939   8.677  2.1598  0.3334  0.9232
  608MOL0     H82071   6.616   2.754   8.663 -0.5850  1.5909 -2.6523
  608MOL0     H82072   6.454   2.853   8.812  0.0174 -1.1873  0.8961
  608MOL0     H82073   6.577   2.946   8.889 -0.2629  2.0581 -3.8950
  608MOL0     H82074   6.616   2.650   8.908 -2.8883 -0.6893 -0.0493
  608MOL0     H82075   6.481   2.722   8.989  0.1430 -1.4031 -0.0712
  608MOL0     H82076   6.757   2.844   9.031  2.7735 -1.6065  3.7592
  608MOL0     H82077   6.715   2.704   9.123 -0.9389 -1.1074 -1.1111
  608MOL0     H82078   6.491   2.985   9.332  0.7223 -1.3318  1.5593
  608MOL0     H82079   6.748   2.809   8.478 -0.8255  0.8317  1.4916
  608MOL0     H82080   6.920   2.774   8.315 -0.4281 -4.8670  0.3494
  609MOL0     O82081   2.949   2.191   2.996 -0.1197  0.3145 -0.3853
  609MOL0     C82082   2.853   2.246   3.040  0.5740  0.3860  0.4168
  609MOL0     O82083   2.725   2.185   3.061 -0.2569  0.7741 -0.3164
  609MOL0     C82084   2.707   2.043   3.030 -0.8190 -1.0649 -0.0411
  609MOL0     C82085   2.586   1.997   3.083  0.4256  0.6222 -0.8106
  609MOL0     C82086   2.547   1.866   3.088 -0.8776 -0.4938  0.9520
  609MOL0     C82087   2.624   1.773   3.020  0.8269 -0.3906  0.6882
  609MOL0     O82088   2.593   1.638   3.013  0.1258  0.0840  0.3698
  609MOL0     C82089   2.455   1.598   2.973 -0.0816  0.8478 -0.2126
  609MOL0     C82090   2.470   1.489   2.873 -0.0600 -0.2986  0.0312
  609MOL0     C82091   2.537   1.528   2.743  0.0358  0.0025 -0.6327
  609MOL0     C82092   2.505   1.426   2.638 -0.6871 -0.5083  0.0105
  609MOL0     C82093   2.605   1.442   2.526 -0.2718  0.1646  1.2146
  609MOL0     C82094   2.578   1.339   2.419 -0.1418 -0.2668  0.1048
  609MOL0     C82095   2.642   1.358   2.289 -0.2727 -0.4787  0.6073
  609MOL0     C82096   2.801   1.324   2.296 -0.6238  0.5732  0.2104
  609MOL0     N82097   2.812   1.187   2.346 -0.4812  0.5110 -1.1401
  609MOL0     C82098   2.767   1.077   2.275 -0.2347 -0.1619  0.5937
  609MOL0     C82099   2.775   0.964   2.351 -0.3465 -0.6209  0.8679
  609MOL0     C82100   2.739   0.831   2.305 -0.0923 -0.2312  0.2285
  609MOL0     C82101   2.855   0.784   2.208 -0.5017  0.4920  0.7341
  609MOL0     C82102   2.822   0.673   2.105 -0.8199  0.2273 -1.2249
  609MOL0     C82103   2.723   0.724   2.006  0.1488  0.4175 -0.0492
  609MOL0     O82104   2.780   0.833   1.935  0.5475 -0.1198 -0.4383
  609MOL0     C82105   2.698   0.944   1.909 -1.0405 -1.4239 -0.1113
  609MOL0     C82106   2.758   1.067   1.915 -0.5032 -0.4298  0.9480
  609MOL0     C82107   2.678   1.182   1.918  0.1894  1.3773 -0.1612
  609MOL0     C82108   2.771   1.308   1.904 -0.2984  0.5608  0.2934
  609MOL0     C82109   2.539   1.176   1.919  0.7041 -0.1311  0.8280
  609MOL0     C82110   2.456   1.296   1.937 -0.2654 -0.7603  0.3974
  609MOL0     O82111   2.322   1.278   1.897  0.6024  0.6430 -0.1172
  609MOL0     C82112   2.220   1.375   1.896 -0.1895  0.1667 -1.3986
  609MOL0     C82113   2.248   1.516   1.897 -0.2353 -0.3080 -0.2823
  609MOL0     C82114   2.148   1.611   1.899  0.2566 -0.5575  1.5798
  609MOL0     C82115   2.015   1.570   1.881  1.7998 -0.7316  0.2310
  609MOL0     O82116   1.915   1.664   1.901 -0.1839 -0.1247  1.0560
  609MOL0     C82117   1.780   1.618   1.875  0.4795  0.7506  0.1387
  609MOL0     C82118   1.676   1.726   1.894 -0.1292 -0.6426 -0.4390
  609MOL0     C82119   1.653   1.764   2.051  0.6060  1.0155  0.4734
  609MOL0     C82120   1.529   1.868   2.043 -0.0485 -1.7133 -0.9984
  609MOL0     C82121   1.528   1.950   2.172 -0.2050  0.6859 -0.1099
  609MOL0     C82122   1.586   2.089   2.147  0.1766 -0.5521 -0.0959
  609MOL0     C82123   1.540   2.165   2.269  0.3084  0.0852  0.6151
  609MOL0     C82124   1.594   2.312   2.271  0.1144 -0.1187  0.0631
  609MOL0    Cl82125   1.544   2.394   2.417 -0.1563 -0.4546  0.2811
  609MOL0     C82126   1.991   1.436   1.853 -0.3702 -0.7821  0.8481
  609MOL0     C82127   2.090   1.342   1.867  0.5424  0.5658 -0.0788
  609MOL0     O82128   2.492   1.393   2.007 -0.0875  0.9215 -0.3517
  609MOL0     C82129   2.480   1.049   1.907 -0.0244  0.8477  0.5766
  609MOL0     C82130   2.561   0.934   1.893  0.7233 -0.0854  0.2088
  609MOL0     N82131   2.795   1.006   2.478  0.5811  0.0619 -0.1310
  609MOL0     N82132   2.817   1.137   2.474 -0.7194 -0.2635 -0.1709
  609MOL0     C82133   2.745   1.818   2.957  0.2194 -0.0425 -0.2832
  609MOL0     C82134   2.790   1.954   2.967 -0.1009 -0.3978 -0.2590
  609MOL0     C82135   2.870   2.383   3.074  0.2236 -0.2901 -0.2483
  609MOL0     C82136   2.993   2.445   3.104  0.7796 -0.6242 -0.4195
  609MOL0     C82137   3.011   2.585   3.116 -0.2941  0.0387  0.5405
  609MOL0     C82138   2.900   2.661   3.083 -1.0115 -0.1556 -0.9650
  609MOL0     O82139   2.924   2.798   3.056 -0.3113 -0.4023 -0.4480
  609MOL0     C82140   2.821   2.881   2.990 -0.6824 -0.0075 -0.0483
  609MOL0     C82141   2.893   3.002   2.937 -0.3031 -0.6993 -0.0148
  609MOL0     C82142   2.890   3.120   3.034  0.2759  0.6177 -0.2870
  609MOL0     C82143   2.961   3.236   2.975  0.3071 -0.7225  0.3594
  609MOL0     C82144   2.883   3.310   2.877 -0.4791  0.8633  0.9801
  609MOL0     C82145   2.795   3.344   2.798 -1.1472  0.1189  0.9966
  609MOL0     C82146   2.777   2.605   3.081 -0.1926 -0.9532  0.4864
  609MOL0     C82147   2.764   2.470   3.070 -0.0620 -0.1051 -0.2646
  609MOL0     H82148   2.522   2.068   3.135  2.6500 -1.2481  5.4028
  609MOL0     H82149   2.454   1.827   3.126 -1.4321 -0.7527 -0.5879
  609MOL0     H82150   2.403   1.563   3.063 -1.8205  3.2970 -0.1661
  609MOL0     H82151   2.407   1.684   2.926 -0.2599  1.6383  1.3460
  609MOL0     H82152   2.508   1.397   2.920 -3.6546 -1.2104  1.4601
  609MOL0     H82153   2.363   1.475   2.853 -0.0896 -0.8953  0.5769
  609MOL0     H82154   2.518   1.630   2.706  2.1041  1.3051  1.6472
  609MOL0     H82155   2.644   1.545   2.753 -0.4127  4.3373 -1.1842
  609MOL0     H82156   2.529   1.333   2.689 -1.2640 -1.1676 -0.8890
  609MOL0     H82157   2.404   1.437   2.597 -0.5808 -2.6301 -0.9633
  609MOL0     H82158   2.595   1.547   2.495 -3.5795 -0.3884  0.1092
  609MOL0     H82159   2.711   1.433   2.552  1.8840  2.4882 -4.9153
  609MOL0     H82160   2.583   1.235   2.451  0.8516 -0.7078 -1.3944
  609MOL0     H82161   2.473   1.356   2.392 -0.1365  4.5802  2.1486
  609MOL0     H82162   2.597   1.289   2.216  1.4572  0.7234 -1.7405
  609MOL0     H82163   2.618   1.454   2.243 -1.7180 -0.5641  1.1358
  609MOL0     H82164   2.853   1.394   2.362 -4.4162  2.6180  1.3429
  609MOL0     H82165   2.845   1.326   2.196 -0.1839  2.4013  0.4099
  609MOL0     H82166   2.739   1.068   2.171  0.0951  2.4459  0.2074
  609MOL0     H82167   2.736   0.762   2.390  1.0974 -3.6121 -2.2769
  609MOL0     H82168   2.636   0.844   2.269 -0.8422 -0.6004  2.1113
  609MOL0     H82169   2.940   0.763   2.273 -1.4172  4.2088  3.4977
  609MOL0     H82170   2.893   0.870   2.151 -1.4767 -0.5323 -1.5691
  609MOL0     H82171   2.788   0.586   2.162  0.3387 -0.8966 -2.1682
  609MOL0     H82172   2.911   0.640   2.051 -1.0945 -1.9326 -0.4465
  609MOL0     H82173   2.632   0.746   2.062  1.2115 -0.0901  1.9687
  609MOL0     H82174   2.698   0.639   1.942 -1.4709  0.6908  0.1720
  609MOL0     H82175   2.865   1.087   1.917 -0.8907  1.8664  0.6537
  609MOL0     H82176   2.709   1.398   1.896  1.0059  1.4449 -0.2318
  609MOL0     H82177   2.832   1.325   1.993 -0.3601  1.8219  0.1180
  609MOL0     H82178   2.839   1.300   1.819  1.7551 -0.3075  1.9326
  609MOL0     H82179   2.351   1.549   1.898  1.0853 -3.8129  2.7637
  609MOL0     H82180   2.170   1.716   1.914  1.9321 -0.9420  2.1182
  609MOL0     H82181   1.768   1.589   1.770  1.2081  3.5288 -0.7855
  609MOL0     H82182   1.758   1.532   1.940  1.5084 -0.1262 -0.6425
  609MOL0     H82183   1.714   1.810   1.834 -0.8561 -0.2447 -0.3589
  609MOL0     H82184   1.585   1.693   1.844 -1.0779 -0.3772  1.0375
  609MOL0     H82185   1.735   1.816   2.099  1.3080 -1.1366  1.7171
  609MOL0     H82186   1.627   1.682   2.118 -0.7621  0.9393 -0.0949
  609MOL0     H82187   1.555   1.936   1.961  4.4528 -1.2833  0.5013
  609MOL0     H82188   1.433   1.817   2.034 -0.7931 -0.8048  1.3132
  609MOL0     H82189   1.597   1.903   2.243 -0.5654  0.1889 -0.0765
  609MOL0     H82190   1.427   1.958   2.214  0.2787  0.8508  1.0576
  609MOL0     H82191   1.694   2.075   2.151  0.1925 -0.3010  2.7987
  609MOL0     H82192   1.557   2.145   2.057  0.0368  1.9783  1.4143
  609MOL0     H82193   1.580   2.111   2.355  0.3017  1.1804  1.3296
  609MOL0     H82194   1.431   2.173   2.263  0.2283 -1.0043  0.4200
  609MOL0     H82195   1.542   2.370   2.194 -1.6589 -1.9665 -0.2145
  609MOL0     H82196   1.703   2.314   2.261 -0.0118  2.4209 -1.7130
  609MOL0     H82197   1.889   1.403   1.835 -0.7190 -0.1118  1.5060
  609MOL0     H82198   2.068   1.238   1.847  0.0695  1.3339 -4.6906
  609MOL0     H82199   2.372   1.034   1.906 -0.3833  1.3131 -5.3760
  609MOL0     H82200   2.515   0.835   1.900 -2.4226  1.1348 -1.5147
  609MOL0     H82201   2.819   1.754   2.911  0.7546  0.6343 -0.3844
  609MOL0     H82202   2.888   1.959   2.922  1.2028 -1.4081  2.3186
  609MOL0     H82203   3.092   2.402   3.115 -0.0766 -2.1367  2.3953
  609MOL0     H82204   3.111   2.627   3.113 -0.2125  0.1539  2.6904
  609MOL0     H82205   2.773   2.822   2.912  0.6744  0.2154 -1.0824
  609MOL0     H82206   2.742   2.901   3.063 -4.7520 -0.9818 -3.7585
  609MOL0     H82207   2.856   3.033   2.839  2.9969 -1.7064 -1.7178
  609MOL0     H82208   2.997   2.979   2.911 -0.6937 -0.0251 -2.4025
  609MOL0     H82209   2.933   3.105   3.133 -1.9620  1.9788  0.9892
  609MOL0     H82210   2.788   3.160   3.042  0.9856  2.7661 -1.3161
  609MOL0     H82211   3.064   3.217   2.943  0.8302 -0.5485  1.8482
  609MOL0     H82212   2.959   3.300   3.064  0.0512 -1.0102  0.5629
  609MOL0     H82213   2.723   3.394   2.736  0.4164  1.6412  0.3376
  609MOL0     H82214   2.691   2.671   3.074  1.1848  0.7597 -3.7647
  609MOL0     H82215   2.671   2.421   3.044 -1.7128  1.0213  2.9507
  610MOL0     O82216   1.469   0.228  10.636  0.4647 -1.0498  0.0017
  610MOL0     C82217   1.451   0.145  10.723  0.4844  0.7692  0.2811
  610MOL0     O82218   1.546   0.092  10.812  0.2192  0.1942  0.6072
  610MOL0     C82219   1.641   0.189  10.827  0.6322 -0.1281  1.4270
  610MOL0     C82220   1.754   0.179  10.751 -0.8323 -0.0466 -1.0094
  610MOL0     C82221   1.853   0.281  10.773  0.0012  0.0844 -0.0020
  610MOL0     C82222   1.829   0.380  10.867  0.0657  0.1947  0.8822
  610MOL0     O82223   1.918   0.483  10.879  0.5116  0.7246  0.6852
  610MOL0     C82224   1.985   0.539  10.757  0.0015 -0.2581 -0.1320
  610MOL0     C82225   2.047   0.674  10.803 -0.0147 -0.2870  0.0110
  610MOL0     C82226   2.058   0.785  10.700  0.0949 -0.3895  0.1688
  610MOL0     C82227   1.933   0.801  10.619 -1.0431  0.4679 -0.8006
  610MOL0     C82228   1.908   0.942  10.549 -0.6397  0.3280  0.4285
  610MOL0     C82229   2.037   0.979  10.467  0.8912 -0.7684 -0.0014
  610MOL0     C82230   2.014   1.125  10.409  0.2466  0.4409 -0.5192
  610MOL0     C82231   2.144   1.177  10.332  0.1715  0.4995  0.8664
  610MOL0     N82232   2.173   1.070  10.230 -0.4470  1.3916  0.0116
  610MOL0     C82233   2.113   1.057  10.108  0.3549 -0.7407 -0.4092
  610MOL0     C82234   2.170   0.944  10.051 -0.1796  0.2370 -0.7780
  610MOL0     C82235   2.117   0.874   9.928 -0.5112 -0.5500 -0.4830
  610MOL0     C82236   1.967   0.843   9.944 -0.6170 -0.1471 -0.6294
  610MOL0     C82237   1.886   0.783   9.823  0.3836  0.3043  0.0621
  610MOL0     C82238   1.952   0.671   9.750 -0.3327  0.4793 -0.4427
  610MOL0     O82239   1.977   0.568   9.854  0.3788 -0.3030 -0.3045
  610MOL0     C82240   2.097   0.490   9.856  0.1504 -0.3418 -0.4580
  610MOL0     C82241   2.100   0.388   9.955 -0.6215 -0.0417  0.2786
  610MOL0     C82242   2.211   0.300   9.969  0.3110 -0.9655 -0.2640
  610MOL0     C82243   2.212   0.197  10.081  0.2515 -0.0120  0.1180
  610MOL0     C82244   2.317   0.309   9.883 -0.5905  0.6690  0.5269
  610MOL0     C82245   2.431   0.219   9.893  0.4847 -0.7872 -0.0921
  610MOL0     O82246   2.414   0.088   9.888  0.1649 -0.1207 -0.1243
  610MOL0     C82247   2.526   0.019   9.854  0.7628 -0.2937  0.5957
  610MOL0     C82248   2.619  -0.022   9.958 -0.2106  0.1098 -0.8894
  610MOL0     C82249   2.741  -0.087   9.937  0.2638 -0.9131 -0.4537
  610MOL0     C82250   2.785  -0.108   9.806 -0.0987  0.2574 -1.1921
  610MOL0     O82251   2.897  -0.175   9.765  0.4027  0.9129 -0.1307
  610MOL0     C82252   2.970  -0.244   9.870 -0.2228 -0.6659  1.2078
  610MOL0     C82253   3.102  -0.322   9.836  0.2320 -0.2645  0.0896
  610MOL0     C82254   3.077  -0.433   9.734 -1.5671 -0.2800 -0.3099
  610MOL0     C82255   3.213  -0.491   9.703 -0.5144  0.4750  0.0137
  610MOL0     C82256   3.183  -0.578   9.587  0.2148 -0.0675 -0.1920
  610MOL0     C82257   3.291  -0.679   9.548 -0.0801 -0.7294 -0.3158
  610MOL0     C82258   3.329  -0.784   9.654  0.2609  0.3902  0.1205
  610MOL0     C82259   3.472  -0.836   9.617  1.0071  0.5493 -0.4682
  610MOL0    Cl82260   3.523  -0.958   9.737 -0.1831 -0.0771 -0.4701
  610MOL0     C82261   2.693  -0.067   9.705  0.2673  0.2138  0.0134
  610MOL0     C82262   2.571  -0.007   9.729 -0.1639 -0.4734  0.4292
  610MOL0     O82263   2.533   0.277   9.887 -0.1047 -0.8196  0.2736
  610MOL0     C82264   2.322   0.418   9.791 -0.9777  0.1230  0.1448
  610MOL0     C82265   2.209   0.507   9.777  0.4560  0.9319  0.2848
  610MOL0     N82266   2.259   0.883  10.137 -0.1207 -0.3643 -1.3494
  610MOL0     N82267   2.265   0.960  10.240  0.2102 -0.0686 -0.0819
  610MOL0     C82268   1.719   0.370  10.950  0.7800 -0.0379 -0.6879
  610MOL0     C82269   1.625   0.279  10.932 -0.1693 -0.5925 -0.5548
  610MOL0     C82270   1.329   0.061  10.712  0.2018  0.0972 -0.1307
  610MOL0     C82271   1.257   0.050  10.591  0.4258 -0.0539  0.0110
  610MOL0     C82272   1.136  -0.016  10.589  0.0009  1.1237 -0.9759
  610MOL0     C82273   1.087  -0.074  10.713 -0.1954 -0.0785  0.3546
  610MOL0     O82274   0.961  -0.130  10.727  0.8067 -0.9906  0.2884
  610MOL0     C82275   0.890  -0.196  10.624  0.0849  0.4464 -0.4747
  610MOL0     C82276   0.957  -0.322  10.563  0.0916  0.3750 -1.0600
  610MOL0     C82277   0.874  -0.379  10.448 -0.2693  0.1512  0.4059
  610MOL0     C82278   0.905  -0.537  10.408 -0.2003 -1.7323  0.1383
  610MOL0     C82279   0.846  -0.619  10.507  0.0861 -0.1111  0.3099
  610MOL0     C82280   0.809  -0.697  10.597 -0.4695 -0.5134 -0.6519
  610MOL0     C82281   1.163  -0.064  10.832 -0.2697 -0.3614 -0.6317
  610MOL0     C82282   1.282  -0.005  10.824 -0.4271 -0.2207  0.3772
  610MOL0     H82283   1.757   0.120  10.661 -0.1275  0.5556 -1.3939
  610MOL0     H82284   1.933   0.285  10.700  0.1799 -2.5447 -0.0576
  610MOL0     H82285   2.069   0.482  10.717  1.6887 -0.9195  3.8584
  610MOL0     H82286   1.902   0.563  10.690 -2.5375 -0.5126  2.7214
  610MOL0     H82287   1.988   0.706  10.889  1.0771 -1.3894  1.2121
  610MOL0     H82288   2.147   0.652  10.843  0.7959 -0.1524 -1.8243
  610MOL0     H82289   2.087   0.875  10.756 -1.1716  0.0887  0.0735
  610MOL0     H82290   2.131   0.757  10.624 -0.2203  0.1665 -0.3462
  610MOL0     H82291   1.932   0.715  10.551  0.6576  0.3981 -0.7947
  610MOL0     H82292   1.839   0.773  10.667  0.0757 -3.2566 -0.4547
  610MOL0     H82293   1.821   0.936  10.482 -0.0515 -0.3921 -0.2860
  610MOL0     H82294   1.904   1.023  10.623  2.1824 -0.3611  1.4489
  610MOL0     H82295   2.124   0.976  10.533  1.3335 -0.1307 -0.5484
  610MOL0     H82296   2.050   0.905  10.387  3.5209  0.3801 -0.7617
  610MOL0     H82297   1.935   1.115  10.334 -2.1114  1.3975  1.6870
  610MOL0     H82298   1.989   1.196  10.488 -0.1769 -1.1932  0.8464
  610MOL0     H82299   2.237   1.189  10.388  1.3476  1.5211 -1.2029
  610MOL0     H82300   2.119   1.275  10.289  1.4052 -0.0865 -1.3416
  610MOL0     H82301   2.042   1.130  10.070 -0.0205 -0.9725 -0.1591
  610MOL0     H82302   2.136   0.933   9.837  2.3425  1.8754  1.4451
  610MOL0     H82303   2.177   0.783   9.920  0.7460  0.1180  0.7816
  610MOL0     H82304   1.913   0.934   9.969 -0.8581 -0.3362 -0.4613
  610MOL0     H82305   1.960   0.780  10.033  0.1946  0.0365 -0.4228
  610MOL0     H82306   1.868   0.867   9.756  1.5860  1.8610  1.6004
  610MOL0     H82307   1.790   0.751   9.866  0.9901  1.2911  2.2902
  610MOL0     H82308   2.039   0.713   9.700  1.4803 -2.9791 -0.4728
  610MOL0     H82309   1.905   0.627   9.662 -0.4771  0.3635 -0.3096
  610MOL0     H82310   2.017   0.379  10.024  0.6714  1.9820  2.2043
  610MOL0     H82311   2.204   0.099  10.032 -0.0260  0.1977 -0.2687
  610MOL0     H82312   2.300   0.199  10.144 -1.7172  0.9258  3.0276
  610MOL0     H82313   2.127   0.208  10.148  0.2512 -2.8267  0.6658
  610MOL0     H82314   2.590   0.002  10.060  0.6017 -1.3897 -0.2686
  610MOL0     H82315   2.797  -0.127  10.020 -1.5445 -2.7803 -0.0709
  610MOL0     H82316   3.004  -0.163   9.936  2.6456  1.3932 -2.3636
  610MOL0     H82317   2.898  -0.314   9.911  0.0002 -1.8041 -0.2531
  610MOL0     H82318   3.173  -0.254   9.787  0.3918 -0.2991  0.2744
  610MOL0     H82319   3.144  -0.364   9.928 -0.2072  0.9184  0.8584
  610MOL0     H82320   3.023  -0.389   9.649 -0.7648  1.3627 -0.0126
  610MOL0     H82321   3.013  -0.512   9.774 -1.6394  0.2754  0.6898
  610MOL0     H82322   3.292  -0.420   9.677 -0.7153  1.5143  2.0357
  610MOL0     H82323   3.261  -0.545   9.784 -1.7306 -3.1969 -1.5049
  610MOL0     H82324   3.153  -0.520   9.500  2.4879  2.0145  0.2777
  610MOL0     H82325   3.087  -0.625   9.611 -0.8076  1.3607 -1.3306
  610MOL0     H82326   3.264  -0.714   9.448 -2.7823 -0.6134  0.2867
  610MOL0     H82327   3.377  -0.613   9.528  0.9051 -0.6861  3.2459
  610MOL0     H82328   3.262  -0.869   9.666  1.2037 -0.4342 -0.3874
  610MOL0     H82329   3.324  -0.733   9.751 -2.5073 -0.9592  0.7879
  610MOL0     H82330   3.546  -0.755   9.617  1.8907 -0.2355 -1.2622
  610MOL0     H82331   3.472  -0.877   9.515 -1.4107  1.1580 -0.7741
  610MOL0     H82332   2.719  -0.087   9.602  2.0921  0.0266  0.4651
  610MOL0     H82333   2.512   0.020   9.642  1.0462  0.6587 -0.0687
  610MOL0     H82334   2.413   0.437   9.736 -0.9909  0.6987  0.3145
  610MOL0     H82335   2.205   0.589   9.705  1.3840  0.6792 -0.0705
  610MOL0     H82336   1.716   0.447  11.026 -0.1316 -0.0053 -0.7516
  610MOL0     H82337   1.532   0.274  10.987  0.4800  0.9351  0.7602
  610MOL0     H82338   1.289   0.086  10.494 -2.6997 -0.8826 -1.4785
  610MOL0     H82339   1.089  -0.018  10.491 -1.4825  2.5855 -0.3509
  610MOL0     H82340   0.800  -0.228  10.678  0.3593  1.0604  0.3820
  610MOL0     H82341   0.885  -0.128  10.539  0.8278 -0.0270 -0.9039
  610MOL0     H82342   0.971  -0.409  10.627 -2.9487  0.2083 -0.4867
  610MOL0     H82343   1.060  -0.291  10.541  0.4834 -1.2721 -1.6867
  610MOL0     H82344   0.893  -0.313  10.363  0.3807 -0.9494 -0.3195
  610MOL0     H82345   0.768  -0.363  10.471 -0.0388  1.2501  0.7979
  610MOL0     H82346   1.014  -0.545  10.416 -0.0591  0.5445  1.3939
  610MOL0     H82347   0.859  -0.565  10.313  2.1635 -1.7309 -1.0913
  610MOL0     H82348   0.798  -0.761  10.683 -1.5767 -1.7333 -1.6649
  610MOL0     H82349   1.128  -0.099  10.928  0.3622 -1.9373 -0.9427
  610MOL0     H82350   1.335  -0.003  10.919 -1.2948 -2.3708  0.9763
  611MOL0     O82351   6.034   4.306   4.329 -0.2779 -0.6315 -0.1911
  611MOL0     C82352   5.966   4.390   4.272  0.2869  0.2669  0.1664
  611MOL0     O82353   5.838   4.432   4.316 -0.0695 -1.1545  0.2021
  611MOL0     C82354   5.787   4.347   4.411 -0.3262  0.2254 -0.7288
  611MOL0     C82355   5.726   4.419   4.517 -0.2074 -0.0884 -0.0670
  611MOL0     C82356   5.679   4.360   4.631 -0.0930  0.6990 -0.6536
  611MOL0     C82357   5.683   4.219   4.641  0.7017  0.5172 -0.3640
  611MOL0     O82358   5.634   4.159   4.753 -0.5389 -0.5316  0.2801
  611MOL0     C82359   5.568   4.035   4.735 -0.4995  0.2453 -0.5149
  611MOL0     C82360   5.419   4.066   4.716 -0.1856  0.0445 -0.8329
  611MOL0     C82361   5.361   4.133   4.841 -0.1341  0.0805  0.0846
  611MOL0     C82362   5.337   4.033   4.952  0.8316 -0.6502  0.6266
  611MOL0     C82363   5.315   4.102   5.084  0.1561 -0.5139  0.2182
  611MOL0     C82364   5.242   4.012   5.194  0.2750 -0.2041  1.1691
  611MOL0     C82365   5.169   4.098   5.304 -0.6487  1.3858  0.1502
  611MOL0     C82366   5.158   4.009   5.437  0.1881 -0.6019  0.5028
  611MOL0     N82367   5.108   4.086   5.541  0.4276 -0.7108 -0.8021
  611MOL0     C82368   4.975   4.104   5.570 -0.8377 -0.2943  0.2467
  611MOL0     C82369   4.967   4.164   5.687 -0.1206  0.2153  0.1110
  611MOL0     C82370   4.836   4.208   5.751 -0.4330 -0.3711 -0.2895
  611MOL0     C82371   4.787   4.111   5.866 -0.6779  0.4616  0.5122
  611MOL0     C82372   4.850   4.147   5.999  0.0897 -0.0832 -0.1483
  611MOL0     C82373   4.961   4.053   6.055  0.6538 -0.6171  0.7696
  611MOL0     O82374   4.999   4.093   6.179  0.0509 -0.0674  0.0230
  611MOL0     C82375   5.108   4.035   6.240  0.2551  0.1261  0.1975
  611MOL0     C82376   5.209   3.956   6.180 -0.7379  0.1215  0.2656
  611MOL0     C82377   5.318   3.918   6.256  0.2696  0.7842 -0.0806
  611MOL0     C82378   5.436   3.846   6.186 -0.2029 -0.6086  0.1476
  611MOL0     C82379   5.336   3.966   6.384  0.3044  1.2883 -0.6223
  611MOL0     C82380   5.458   3.931   6.472  0.8321  0.7889 -0.4582
  611MOL0     O82381   5.516   4.023   6.545  0.5336 -0.5955  0.7427
  611MOL0     C82382   5.619   3.990   6.626  0.4086 -0.1194 -0.9886
  611MOL0     C82383   5.590   3.944   6.761 -0.7424  0.1884  0.5989
  611MOL0     C82384   5.699   3.879   6.838 -1.0565 -0.2828 -0.7082
  611MOL0     C82385   5.842   3.886   6.794  0.9239  0.8456  0.6100
  611MOL0     O82386   5.936   3.847   6.884 -0.3505  0.5784 -0.0120
  611MOL0     C82387   6.021   3.955   6.937  0.2847 -0.0207  0.5233
  611MOL0     C82388   5.958   4.018   7.060 -0.3308 -0.6234 -0.1892
  611MOL0     C82389   6.037   4.144   7.110  0.3742 -0.3080  0.0260
  611MOL0     C82390   6.172   4.105   7.158 -0.2340  0.4913 -0.4930
  611MOL0     C82391   6.249   4.220   7.222  0.2477  0.9276  0.6374
  611MOL0     C82392   6.369   4.176   7.310  0.1915  0.0098 -0.0873
  611MOL0     C82393   6.480   4.093   7.243 -0.7645 -0.8473  0.0131
  611MOL0     C82394   6.540   4.161   7.117 -0.2049 -0.3451  0.7502
  611MOL0    Cl82395   6.437   4.189   6.970 -0.1423 -0.5402 -0.3448
  611MOL0     C82396   5.866   3.946   6.670 -0.2190 -0.3079 -0.5469
  611MOL0     C82397   5.761   3.992   6.587  0.7326  0.0662  0.2453
  611MOL0     O82398   5.473   3.808   6.491 -0.6296  0.4365 -0.8359
  611MOL0     C82399   5.244   4.051   6.438  0.4866 -0.2127 -0.6139
  611MOL0     C82400   5.124   4.074   6.371  0.2327  0.6582  0.8230
  611MOL0     N82401   5.101   4.191   5.732 -0.3765 -0.5529  0.0708
  611MOL0     N82402   5.180   4.139   5.644  0.5522  0.2393 -0.0824
  611MOL0     C82403   5.732   4.146   4.531  0.2398  0.0751 -0.1965
  611MOL0     C82404   5.784   4.211   4.421  0.6771  0.3086 -0.1330
  611MOL0     C82405   6.031   4.450   4.159  0.3298  0.0538 -0.0772
  611MOL0     C82406   5.943   4.498   4.061 -0.8218 -0.7021 -0.2822
  611MOL0     C82407   5.990   4.567   3.953 -0.3652  0.1303  0.2210
  611MOL0     C82408   6.132   4.575   3.924 -0.2277 -0.3317 -0.5769
  611MOL0     O82409   6.176   4.657   3.818  0.0384 -0.3333 -0.2991
  611MOL0     C82410   6.298   4.612   3.748  0.2192 -0.5817 -0.2901
  611MOL0     C82411   6.292   4.669   3.605  0.0269  0.1666 -0.0795
  611MOL0     C82412   6.145   4.661   3.556 -0.0068 -0.1897 -0.4320
  611MOL0     C82413   6.127   4.777   3.445 -0.4478  0.4775 -0.1456
  611MOL0     C82414   5.992   4.766   3.388 -0.8230  0.0782  0.9224
  611MOL0     C82415   5.885   4.777   3.345 -0.5852  0.2588  0.5836
  611MOL0     C82416   6.210   4.513   4.019 -0.4448  0.7973  0.4730
  611MOL0     C82417   6.173   4.463   4.137  0.0107  0.6520  0.1708
  611MOL0     H82418   5.715   4.526   4.500  0.6499 -0.0041 -0.1667
  611MOL0     H82419   5.640   4.429   4.705  2.0249  2.3856 -1.0106
  611MOL0     H82420   5.608   3.961   4.666  2.8200  1.4733 -0.1249
  611MOL0     H82421   5.589   3.991   4.833  1.8901 -1.0768 -1.5401
  611MOL0     H82422   5.401   4.131   4.629 -3.4076 -0.8210 -0.9118
  611MOL0     H82423   5.354   3.979   4.705  0.1709 -0.3243 -0.0723
  611MOL0     H82424   5.434   4.208   4.873  1.6749 -2.4906  2.5197
  611MOL0     H82425   5.267   4.184   4.819  0.7727  1.2261 -1.2859
  611MOL0     H82426   5.252   3.967   4.932 -1.7439  1.3861  3.8336
  611MOL0     H82427   5.422   3.967   4.969  1.9325  0.2644 -0.9966
  611MOL0     H82428   5.405   4.154   5.118  1.6069 -2.4347 -0.5300
  611MOL0     H82429   5.250   4.186   5.059 -0.6538 -0.4008  2.4420
  611MOL0     H82430   5.159   3.957   5.148  0.1449  0.1037  1.0347
  611MOL0     H82431   5.323   3.947   5.228  2.3755  2.2110  1.0637
  611MOL0     H82432   5.227   4.188   5.324  0.6881  1.0543 -1.8414
  611MOL0     H82433   5.069   4.105   5.262 -0.9565 -2.2425 -0.0392
  611MOL0     H82434   5.258   3.968   5.454  1.6460  0.7151 -3.5965
  611MOL0     H82435   5.086   3.932   5.407 -3.5438  0.9214  4.5205
  611MOL0     H82436   4.897   4.077   5.500 -2.7063  1.5961  1.4742
  611MOL0     H82437   4.849   4.311   5.788  3.0662 -0.7026 -0.2702
  611MOL0     H82438   4.760   4.223   5.673 -0.0539 -1.9604 -0.9849
  611MOL0     H82439   4.819   4.008   5.848 -0.6664  0.6048 -0.3334
  611MOL0     H82440   4.678   4.125   5.872 -0.7959  1.2606 -2.2975
  611MOL0     H82441   4.776   4.143   6.080 -0.5765  3.7887 -0.3580
  611MOL0     H82442   4.892   4.248   6.007  1.3634 -0.7239  5.4305
  611MOL0     H82443   5.046   4.052   5.985  0.9132 -1.0078  1.0874
  611MOL0     H82444   4.925   3.951   6.070 -0.7085 -0.1388  0.9025
  611MOL0     H82445   5.208   3.933   6.074  2.7668 -3.3886  0.7645
  611MOL0     H82446   5.453   3.765   6.258  0.1314 -0.2660  0.4612
  611MOL0     H82447   5.412   3.799   6.090 -3.4123  1.0270 -0.0096
  611MOL0     H82448   5.519   3.913   6.168  0.3334 -0.8083  1.6812
  611MOL0     H82449   5.493   3.950   6.810 -2.4777 -1.7045 -2.2919
  611MOL0     H82450   5.669   3.839   6.935  0.4628  0.0917 -0.0555
  611MOL0     H82451   6.118   3.906   6.953  0.4795 -0.4200 -1.5909
  611MOL0     H82452   6.032   4.037   6.865  1.1782 -1.4510 -1.0411
  611MOL0     H82453   5.866   4.064   7.022 -0.3458 -0.5737 -0.0918
  611MOL0     H82454   5.957   3.944   7.141  1.9915  2.6469  3.1446
  611MOL0     H82455   5.969   4.185   7.186 -1.6263  1.7609 -2.6503
  611MOL0     H82456   6.051   4.212   7.026  5.6924 -0.8082  0.2222
  611MOL0     H82457   6.163   4.036   7.242 -0.4169 -1.0836 -1.7556
  611MOL0     H82458   6.228   4.045   7.086  1.0855 -2.7949  2.9763
  611MOL0     H82459   6.194   4.275   7.299  0.4548  0.8517  0.8432
  611MOL0     H82460   6.288   4.291   7.148  1.7988  0.2551  0.7636
  611MOL0     H82461   6.410   4.271   7.345  1.5801 -0.6253  0.1006
  611MOL0     H82462   6.334   4.126   7.401 -0.2538  0.6429  0.0985
  611MOL0     H82463   6.452   3.992   7.210 -0.1677 -1.3783  1.0406
  611MOL0     H82464   6.565   4.074   7.310  2.3205  1.1546 -3.0272
  611MOL0     H82465   6.631   4.109   7.087  0.5140 -0.2090  2.5578
  611MOL0     H82466   6.576   4.254   7.161 -1.1533 -0.4591  1.8117
  611MOL0     H82467   5.971   3.959   6.646  0.0647 -3.0944 -1.1129
  611MOL0     H82468   5.779   4.027   6.485 -0.8112 -3.2660 -1.3236
  611MOL0     H82469   5.263   4.109   6.527 -0.1244 -0.5759 -0.2384
  611MOL0     H82470   5.052   4.141   6.416  0.6675  0.8374  1.2641
  611MOL0     H82471   5.725   4.038   4.530  0.1709  0.0802 -0.2633
  611MOL0     H82472   5.816   4.149   4.338 -2.7373 -1.4374 -0.3308
  611MOL0     H82473   5.837   4.477   4.058 -0.6069 -2.4444  1.5750
  611MOL0     H82474   5.926   4.624   3.886  1.6258  2.5315  0.2167
  611MOL0     H82475   6.380   4.663   3.800 -2.9612  2.3759  2.2209
  611MOL0     H82476   6.302   4.503   3.741 -0.9773 -0.5818 -1.1997
  611MOL0     H82477   6.359   4.614   3.539 -2.6723 -2.2780 -1.0003
  611MOL0     H82478   6.323   4.774   3.610  2.1225 -0.4525  0.8788
  611MOL0     H82479   6.073   4.692   3.632  1.3150 -0.6223  1.0568
  611MOL0     H82480   6.114   4.563   3.517 -0.4635  0.8947 -3.0252
  611MOL0     H82481   6.212   4.783   3.376 -0.4257  2.0525 -0.0208
  611MOL0     H82482   6.134   4.874   3.495 -0.5817  0.3483  0.1272
  611MOL0     H82483   5.783   4.762   3.315 -0.9905  0.0780  1.9599
  611MOL0     H82484   6.317   4.522   4.008 -0.2544  2.2363  2.8902
  611MOL0     H82485   6.237   4.421   4.214  0.1612  0.5584 -0.0038
  612MOL0     O82486   0.991   8.394   1.980 -1.0888 -0.2628  0.0501
  612MOL0     C82487   1.036   8.382   1.861 -0.1648  0.5748 -1.5025
  612MOL0     O82488   1.059   8.260   1.802  0.2775  0.5939 -0.0809
  612MOL0     C82489   1.022   8.137   1.846  1.0109 -0.1444 -0.9348
  612MOL0     C82490   0.926   8.078   1.771  0.2884  1.0382  0.1723
  612MOL0     C82491   0.880   7.949   1.811  1.2835  0.0565 -0.2281
  612MOL0     C82492   0.925   7.882   1.922 -0.9386  0.1894 -0.3717
  612MOL0     O82493   0.848   7.770   1.963  0.2075  0.4053  0.4868
  612MOL0     C82494   0.882   7.696   2.092 -0.5662 -0.9051  1.2908
  612MOL0     C82495   0.795   7.571   2.085 -0.1467  0.1547  0.4486
  612MOL0     C82496   0.863   7.439   2.030  0.0576 -0.9173  1.4395
  612MOL0     C82497   0.757   7.330   2.021 -0.7439  0.3568 -0.3741
  612MOL0     C82498   0.822   7.189   2.029  0.1392  0.6410  1.0008
  612MOL0     C82499   0.933   7.163   1.930 -0.6371 -0.0556  0.7084
  612MOL0     C82500   0.998   7.023   1.949 -0.0074  0.6353 -0.3446
  612MOL0     C82501   0.963   6.921   1.835  0.0065  0.3168 -0.8316
  612MOL0     N82502   1.073   6.815   1.812  0.8228  0.5799  0.3263
  612MOL0     C82503   1.116   6.730   1.914 -0.1583 -1.0598  0.6926
  612MOL0     C82504   1.176   6.633   1.858  1.1862 -0.4940  0.2748
  612MOL0     C82505   1.237   6.518   1.938  0.1662  0.0956  0.1787
  612MOL0     C82506   1.384   6.529   1.991 -0.0268 -0.6966 -0.7265
  612MOL0     C82507   1.402   6.456   2.130 -1.2011 -0.7028 -0.1966
  612MOL0     C82508   1.552   6.416   2.133  0.4451  1.0012  0.9574
  612MOL0     O82509   1.545   6.312   2.233  0.6777  0.4149 -0.3686
  612MOL0     C82510   1.647   6.300   2.329 -0.7249 -0.6637 -0.4247
  612MOL0     C82511   1.619   6.246   2.452 -0.0563  0.2743 -0.1075
  612MOL0     C82512   1.719   6.235   2.553 -0.3419  1.0321 -0.0674
  612MOL0     C82513   1.675   6.175   2.685 -0.6361 -0.3073  0.0715
  612MOL0     C82514   1.852   6.262   2.521  0.4929  0.9023 -0.2042
  612MOL0     C82515   1.972   6.227   2.607  0.1592  0.5729  0.1119
  612MOL0     O82516   2.092   6.202   2.547 -0.7806  0.5184 -0.0470
  612MOL0     C82517   2.190   6.136   2.610 -0.8859  1.2912 -0.2863
  612MOL0     C82518   2.167   6.034   2.702 -1.3015 -0.2783  0.1875
  612MOL0     C82519   2.270   5.963   2.757  0.5046  0.6229 -0.3122
  612MOL0     C82520   2.405   5.989   2.723  0.2546  0.2807  0.4118
  612MOL0     O82521   2.512   5.927   2.789  0.6725  0.4398  0.1815
  612MOL0     C82522   2.477   5.862   2.912 -0.5962 -0.4256 -0.0489
  612MOL0     C82523   2.593   5.792   2.990 -0.0353  0.4500  0.8444
  612MOL0     C82524   2.604   5.642   2.957  0.8150 -0.5790 -0.1118
  612MOL0     C82525   2.713   5.586   3.045  0.1403  0.4498 -0.1699
  612MOL0     C82526   2.729   5.435   3.027  0.3486  0.3366 -0.5796
  612MOL0     C82527   2.804   5.381   3.152  0.4924 -1.0211  0.2882
  612MOL0     C82528   2.881   5.256   3.094  0.6159 -0.3368 -0.7521
  612MOL0     C82529   2.941   5.150   3.196  0.7401  0.0997  0.5793
  612MOL0    Cl82530   2.818   5.097   3.306 -0.1762 -0.6184 -0.4206
  612MOL0     C82531   2.431   6.081   2.620  0.9479 -0.8512 -0.9542
  612MOL0     C82532   2.326   6.155   2.575  0.9806 -0.0596  1.2794
  612MOL0     O82533   1.960   6.248   2.729  0.4661 -0.5506  0.6101
  612MOL0     C82534   1.877   6.319   2.395  0.3144 -0.3567 -0.0148
  612MOL0     C82535   1.780   6.328   2.295 -0.7892  0.3157 -0.1654
  612MOL0     N82536   1.159   6.650   1.717 -0.0875 -0.2740 -0.3131
  612MOL0     N82537   1.092   6.761   1.692  0.2698 -0.4477 -0.0985
  612MOL0     C82538   1.035   7.942   1.991  0.2681  0.1456  0.3711
  612MOL0     C82539   1.081   8.074   1.955 -0.0138 -0.2229 -0.0679
  612MOL0     C82540   1.057   8.507   1.787 -0.0751 -0.5207  1.8359
  612MOL0     C82541   1.049   8.636   1.836 -0.7704 -0.5105 -0.2387
  612MOL0     C82542   1.061   8.748   1.752  0.2158 -0.9862  0.0387
  612MOL0     C82543   1.085   8.735   1.612  0.5229  1.0551  0.2003
  612MOL0     O82544   1.120   8.834   1.525  0.2117  0.2412  0.4338
  612MOL0     C82545   1.007   8.930   1.526 -0.0992 -0.0137  0.5864
  612MOL0     C82546   1.011   9.023   1.410  0.5211  0.0085 -0.7764
  612MOL0     C82547   0.891   9.118   1.419  0.1449  0.0725  1.1502
  612MOL0     C82548   0.887   9.227   1.311  0.0823  0.0823 -1.0523
  612MOL0     C82549   1.022   9.273   1.281  0.1586  0.1709  0.3812
  612MOL0     C82550   1.133   9.313   1.266 -0.3710  0.0842  0.2084
  612MOL0     C82551   1.080   8.605   1.565  0.5140 -0.8102 -0.6081
  612MOL0     C82552   1.082   8.497   1.650  1.0495 -0.2900 -0.7086
  612MOL0     H82553   0.894   8.143   1.690 -0.8626  1.6674  1.1108
  612MOL0     H82554   0.803   7.906   1.747  1.6875  0.6087 -1.1001
  612MOL0     H82555   0.988   7.677   2.115 -0.2919  0.9086  1.7426
  612MOL0     H82556   0.843   7.765   2.168 -0.2877  2.6658 -1.5202
  612MOL0     H82557   0.773   7.544   2.189  2.3616  1.0765  1.3117
  612MOL0     H82558   0.700   7.597   2.037  0.5930  4.0280  0.7442
  612MOL0     H82559   0.900   7.467   1.931 -1.0855 -0.9736  0.9787
  612MOL0     H82560   0.946   7.416   2.096  1.1943 -0.7190  0.1128
  612MOL0     H82561   0.677   7.337   2.095  0.2038 -1.9075  0.9869
  612MOL0     H82562   0.713   7.333   1.920  1.1504 -1.5004 -1.3392
  612MOL0     H82563   0.856   7.184   2.133 -0.7798 -1.7323  1.2481
  612MOL0     H82564   0.746   7.113   2.011 -0.3107  1.0255  1.2823
  612MOL0     H82565   0.905   7.176   1.824 -1.6074 -0.0693  0.9492
  612MOL0     H82566   1.008   7.238   1.958  0.9387 -0.9498 -0.9318
  612MOL0     H82567   1.107   7.015   1.945  0.1435  2.5278 -0.7706
  612MOL0     H82568   0.967   6.980   2.045 -1.5022  1.0942 -0.5879
  612MOL0     H82569   0.938   6.981   1.747  1.0399  0.7737 -0.8242
  612MOL0     H82570   0.875   6.867   1.872 -0.0116  1.0062  0.1754
  612MOL0     H82571   1.100   6.750   2.019  0.2837 -1.7424  0.8904
  612MOL0     H82572   1.174   6.498   2.026  2.9006 -0.8094  2.0687
  612MOL0     H82573   1.241   6.427   1.877  0.5114  0.2746 -0.0615
  612MOL0     H82574   1.407   6.635   1.993 -0.5041 -0.5639 -1.8323
  612MOL0     H82575   1.453   6.494   1.914  1.9621 -0.2302  0.7605
  612MOL0     H82576   1.341   6.366   2.132  1.3592 -2.5762 -1.1500
  612MOL0     H82577   1.371   6.517   2.215 -1.2563 -1.7339  0.5443
  612MOL0     H82578   1.610   6.506   2.157  0.1625  2.5440 -3.2951
  612MOL0     H82579   1.592   6.380   2.038 -0.5086  2.3494  0.0060
  612MOL0     H82580   1.514   6.235   2.476 -1.4396  8.7231  1.0567
  612MOL0     H82581   1.567   6.160   2.690 -0.7064  0.0828 -0.1405
  612MOL0     H82582   1.703   6.070   2.696 -3.6443 -0.9831  2.7905
  612MOL0     H82583   1.694   6.233   2.776 -0.2369  1.2714 -0.9727
  612MOL0     H82584   2.066   6.001   2.722 -1.1432 -1.4618 -0.8741
  612MOL0     H82585   2.252   5.894   2.839 -0.0874  0.5098 -0.5318
  612MOL0     H82586   2.432   5.933   2.981  0.0539  0.8298 -0.8858
  612MOL0     H82587   2.410   5.782   2.879  1.6648 -2.0860 -0.8962
  612MOL0     H82588   2.691   5.836   2.976  0.4536  1.6526  5.9834
  612MOL0     H82589   2.585   5.799   3.099 -1.1126  0.8717  0.7541
  612MOL0     H82590   2.629   5.631   2.851 -0.6076 -2.2078 -0.3151
  612MOL0     H82591   2.507   5.592   2.965  1.7087 -2.5865 -1.1982
  612MOL0     H82592   2.808   5.635   3.024 -0.5036  2.5051  1.3530
  612MOL0     H82593   2.684   5.600   3.150  1.7546 -2.5490  0.8090
  612MOL0     H82594   2.775   5.425   2.928 -2.2672 -3.6576 -1.6443
  612MOL0     H82595   2.639   5.374   3.019 -0.2990  0.8987  1.6870
  612MOL0     H82596   2.883   5.450   3.184 -0.2724 -1.0791  2.4782
  612MOL0     H82597   2.730   5.346   3.225  1.7791 -4.1728  0.2373
  612MOL0     H82598   2.967   5.289   3.035  0.0175 -0.6463 -1.8134
  612MOL0     H82599   2.809   5.206   3.029 -0.3752  3.8242 -3.2454
  612MOL0     H82600   3.030   5.184   3.251  0.5836  1.4627  0.0315
  612MOL0     H82601   2.977   5.063   3.140  3.7074 -0.3168  2.8696
  612MOL0     H82602   2.530   6.099   2.578 -0.3976  1.2258 -3.5775
  612MOL0     H82603   2.346   6.236   2.505  1.5616  0.7294  2.3170
  612MOL0     H82604   1.980   6.327   2.362 -0.5171 -1.4003 -3.1981
  612MOL0     H82605   1.793   6.355   2.190 -2.5950 -2.9114 -1.3726
  612MOL0     H82606   1.075   7.885   2.074  1.3241 -0.6610 -0.6596
  612MOL0     H82607   1.165   8.111   2.013 -0.4083  0.2360  0.2164
  612MOL0     H82608   1.017   8.655   1.938 -0.2100  1.0199 -0.3165
  612MOL0     H82609   1.051   8.846   1.797  1.1231 -1.4118  1.2193
  612MOL0     H82610   0.909   8.884   1.543 -2.4633  4.5303  0.7614
  612MOL0     H82611   1.023   8.995   1.613 -2.7520  1.7697 -0.1265
  612MOL0     H82612   1.023   8.979   1.311 -0.2822 -0.6998 -0.5650
  612MOL0     H82613   1.097   9.089   1.431 -0.3504  1.2699 -1.0752
  612MOL0     H82614   0.898   9.166   1.517 -2.5750  1.4676  0.7746
  612MOL0     H82615   0.800   9.057   1.423  1.8123 -2.6723 -0.0582
  612MOL0     H82616   0.841   9.317   1.353  0.8995 -0.2432  0.6236
  612MOL0     H82617   0.833   9.188   1.224  0.3960 -1.1273 -0.7193
  612MOL0     H82618   1.234   9.343   1.250 -0.9931  2.5983  0.6647
  612MOL0     H82619   1.102   8.585   1.460 -0.0814  2.2562 -1.4351
  612MOL0     H82620   1.103   8.405   1.598  3.4213 -0.2543  0.0580
  613MOL0     O82621  10.307   5.893   6.950 -0.7819  0.3546 -0.4218
  613MOL0     C82622  10.231   5.909   7.040 -0.5286 -0.9002  0.3345
  613MOL0     O82623  10.260   5.890   7.171 -0.2042 -0.8563  0.4684
  613MOL0     C82624  10.392   5.916   7.219 -0.4561  0.5751  0.5330
  613MOL0     C82625  10.493   5.991   7.166  0.7504 -0.3315 -0.0267
  613MOL0     C82626  10.611   6.003   7.241 -1.3748  0.5950  0.3300
  613MOL0     C82627  10.622   5.942   7.371  0.0392  0.5267  0.1310
  613MOL0     O82628  10.739   5.933   7.425 -0.7044 -0.6531 -0.3577
  613MOL0     C82629  10.803   6.058   7.471  0.8952  0.4373 -0.1211
  613MOL0     C82630  10.894   6.012   7.594  0.0166  0.4640 -1.0858
  613MOL0     C82631  10.962   6.131   7.667  0.5351  0.7593  0.9584
  613MOL0     C82632  11.070   6.188   7.578  0.2385  0.2103  0.0218
  613MOL0     C82633  11.155   6.273   7.671  0.1971  0.4585  0.0715
  613MOL0     C82634  11.276   6.332   7.598  0.1766  1.3135  0.0277
  613MOL0     C82635  11.402   6.244   7.616  0.3181  1.5689 -0.9687
  613MOL0     C82636  11.527   6.310   7.563  0.4298  0.2955 -0.6974
  613MOL0     N82637  11.530   6.318   7.420 -0.6037 -0.6740 -0.0890
  613MOL0     C82638  11.451   6.389   7.337  0.2018 -0.5262 -0.9638
  613MOL0     C82639  11.485   6.346   7.213 -0.3357 -0.2685  0.0162
  613MOL0     C82640  11.402   6.386   7.097  0.2887 -0.3294  0.2597
  613MOL0     C82641  11.398   6.269   6.998  0.6279  0.1275  0.4901
  613MOL0     C82642  11.509   6.268   6.892  0.7480  0.8669 -0.1535
  613MOL0     C82643  11.505   6.136   6.817  0.0375  0.1534  0.2996
  613MOL0     O82644  11.593   6.142   6.706 -0.6413 -0.9433  0.3982
  613MOL0     C82645  11.559   6.049   6.607 -0.3307  0.6948  0.9931
  613MOL0     C82646  11.582   6.084   6.471 -0.2841 -0.0938 -0.5490
  613MOL0     C82647  11.568   5.996   6.370  0.2909  1.1891  0.1107
  613MOL0     C82648  11.588   6.050   6.233  0.3408  0.7223  1.0477
  613MOL0     C82649  11.529   5.866   6.389 -0.3863  0.7911  0.4383
  613MOL0     C82650  11.536   5.762   6.295 -1.3330  0.5725 -0.6654
  613MOL0     O82651  11.421   5.694   6.263  0.2272 -0.0180 -0.7367
  613MOL0     C82652  11.423   5.602   6.163  0.3266  0.7044 -0.4295
  613MOL0     C82653  11.393   5.472   6.213  0.0205 -0.6053  0.0098
  613MOL0     C82654  11.391   5.359   6.134  0.2729 -0.3724 -0.1889
  613MOL0     C82655  11.389   5.383   5.994 -0.5413 -0.2581 -0.8051
  613MOL0     O82656  11.354   5.280   5.917 -0.4623  0.4672 -0.0021
  613MOL0     C82657  11.406   5.263   5.789  0.1896  0.5912 -0.2640
  613MOL0     C82658  11.406   5.115   5.749 -0.2586 -0.2456  0.6875
  613MOL0     C82659  11.254   5.064   5.737 -0.9358  0.3302  0.7330
  613MOL0     C82660  11.187   5.103   5.611 -0.4476 -0.3220  0.3702
  613MOL0     C82661  11.052   5.039   5.579  0.8023  0.1986  0.4062
  613MOL0     C82662  10.934   5.080   5.665 -0.7648  0.2077  0.4671
  613MOL0     C82663  10.816   4.976   5.652 -0.5909 -0.0140  0.0758
  613MOL0     C82664  10.708   5.007   5.754  0.0766  0.6236  0.2642
  613MOL0    Cl82665  10.639   5.176   5.734  0.6196  0.1633 -0.4289
  613MOL0     C82666  11.431   5.514   5.946 -0.4224 -0.5990  0.3542
  613MOL0     C82667  11.447   5.623   6.028 -0.1601 -0.5526  0.2832
  613MOL0     O82668  11.646   5.737   6.248 -0.2883  0.1306  0.4250
  613MOL0     C82669  11.486   5.831   6.517  0.0937 -0.6258 -0.6686
  613MOL0     C82670  11.495   5.923   6.624 -0.0679 -1.1523  0.0072
  613MOL0     N82671  11.600   6.273   7.222 -0.5223  0.1365  0.4067
  613MOL0     N82672  11.625   6.260   7.344 -0.8427 -0.1247 -0.0903
  613MOL0     C82673  10.521   5.862   7.419  0.4332 -0.4069  0.1922
  613MOL0     C82674  10.399   5.850   7.343  0.4229  0.1564  0.4326
  613MOL0     C82675  10.094   5.924   6.987  0.1762 -0.4179  0.0902
  613MOL0     C82676  10.065   5.929   6.848  1.4136 -0.3203 -0.6020
  613MOL0     C82677   9.926   5.906   6.809  0.1388 -0.4915 -0.5016
  613MOL0     C82678   9.817   5.910   6.894 -0.2611  0.0403  0.2544
  613MOL0     O82679   9.687   5.889   6.869 -0.6787 -0.5725  0.5186
  613MOL0     C82680   9.636   5.922   6.734  0.0672 -0.5295 -0.1456
  613MOL0     C82681   9.482   5.945   6.749  0.3870 -0.0698  0.8022
  613MOL0     C82682   9.400   5.915   6.622 -0.4598  0.0607 -0.7457
  613MOL0     C82683   9.417   5.767   6.578  0.0060 -0.8294  0.3386
  613MOL0     C82684   9.307   5.733   6.489 -0.4541 -0.5578  0.1654
  613MOL0     C82685   9.218   5.711   6.407  0.0066 -0.0673  0.3216
  613MOL0     C82686   9.852   5.919   7.033 -0.2328 -1.1403  0.3986
  613MOL0     C82687   9.984   5.923   7.077 -0.6576 -0.5974  0.5283
  613MOL0     H82688  10.477   6.025   7.065  2.6316 -2.0347 -0.9861
  613MOL0     H82689  10.689   6.065   7.199 -0.0851  0.9139  3.0173
  613MOL0     H82690  10.861   6.098   7.387 -0.6910  2.8609 -0.1751
  613MOL0     H82691  10.726   6.129   7.501 -0.4427 -0.4981 -1.2108
  613MOL0     H82692  10.826   5.965   7.666  0.8062  2.0161  0.7733
  613MOL0     H82693  10.975   5.946   7.560 -0.8405 -2.2229  1.5658
  613MOL0     H82694  10.902   6.220   7.684  0.3464  0.2470  3.1914
  613MOL0     H82695  10.995   6.097   7.765 -0.9344 -2.0082  0.6214
  613MOL0     H82696  11.127   6.109   7.527 -1.1135  0.2837 -1.7159
  613MOL0     H82697  11.026   6.249   7.499 -1.7013 -2.0404 -0.7586
  613MOL0     H82698  11.094   6.360   7.697 -0.5025  0.2807 -0.9095
  613MOL0     H82699  11.192   6.226   7.763  1.0141 -0.3470 -0.6573
  613MOL0     H82700  11.245   6.332   7.493  2.8284 -2.7587 -1.0145
  613MOL0     H82701  11.291   6.435   7.631 -3.6697  1.6079  1.3155
  613MOL0     H82702  11.419   6.220   7.721 -2.9165 -0.8940 -0.8472
  613MOL0     H82703  11.401   6.147   7.566  0.5239  1.9224 -1.6694
  613MOL0     H82704  11.619   6.258   7.590 -0.1475 -0.4899 -0.1963
  613MOL0     H82705  11.526   6.410   7.607 -4.3975  1.1833 -2.2480
  613MOL0     H82706  11.369   6.456   7.363  2.1385  1.1437  1.3147
  613MOL0     H82707  11.299   6.412   7.124  0.1685  0.0417 -0.5388
  613MOL0     H82708  11.446   6.473   7.048 -1.2987  1.2396  1.5095
  613MOL0     H82709  11.304   6.270   6.942  1.3477 -1.6399 -0.8471
  613MOL0     H82710  11.409   6.176   7.055 -0.1712  0.1930  0.7768
  613MOL0     H82711  11.606   6.285   6.940  1.0373  0.2500 -0.5058
  613MOL0     H82712  11.499   6.346   6.816  1.3788  1.1417  0.0345
  613MOL0     H82713  11.405   6.123   6.775  0.3968 -3.8802  0.2937
  613MOL0     H82714  11.513   6.056   6.891 -2.6924  1.7067  2.4675
  613MOL0     H82715  11.616   6.186   6.458  1.9206 -0.3711  2.2189
  613MOL0     H82716  11.507   6.115   6.201 -0.3910  0.3895  2.1650
  613MOL0     H82717  11.685   6.100   6.222 -2.0853  5.3160 -3.3156
  613MOL0     H82718  11.592   5.962   6.167  3.0556 -0.4708  2.6132
  613MOL0     H82719  11.383   5.456   6.320 -1.8631 -3.1087 -0.4351
  613MOL0     H82720  11.380   5.265   6.187  2.1496 -0.4042  0.2348
  613MOL0     H82721  11.344   5.322   5.721 -1.1006  0.2399  0.5745
  613MOL0     H82722  11.508   5.302   5.780  1.6105 -3.0285 -1.2732
  613MOL0     H82723  11.463   5.102   5.657  3.6795 -0.3838  2.9687
  613MOL0     H82724  11.458   5.051   5.820 -0.7876 -2.1321 -0.5436
  613MOL0     H82725  11.197   5.110   5.818  2.1719  1.4357  2.4589
  613MOL0     H82726  11.252   4.954   5.741 -2.6774  0.3488  1.3183
  613MOL0     H82727  11.186   5.212   5.608 -0.1234 -0.2901  1.2599
  613MOL0     H82728  11.253   5.080   5.527  0.0218  3.4687 -0.5002
  613MOL0     H82729  11.061   4.931   5.592 -0.7829 -0.1856 -1.1939
  613MOL0     H82730  11.031   5.060   5.474 -3.4925 -0.3651  0.9862
  613MOL0     H82731  10.970   5.079   5.768  0.9940 -0.8827 -0.0891
  613MOL0     H82732  10.897   5.181   5.650  0.3178  0.3663 -1.4211
  613MOL0     H82733  10.860   4.876   5.662  2.9464  1.2604 -1.1963
  613MOL0     H82734  10.777   4.990   5.550 -0.1867  2.7501  0.2244
  613MOL0     H82735  10.743   4.992   5.857 -2.1899 -0.7297  0.9128
  613MOL0     H82736  10.620   4.947   5.732 -1.7076  2.8311  1.0228
  613MOL0     H82737  11.447   5.539   5.841  3.9220 -0.1250  0.9670
  613MOL0     H82738  11.464   5.723   5.989  2.4603 -1.6794 -1.7527
  613MOL0     H82739  11.446   5.732   6.537 -1.1818  0.0627  0.3770
  613MOL0     H82740  11.469   5.875   6.718 -0.8122 -2.3332 -0.7757
  613MOL0     H82741  10.531   5.818   7.517  2.6733  1.7444  1.0371
  613MOL0     H82742  10.320   5.789   7.384 -3.7860  4.7430  0.0895
  613MOL0     H82743  10.139   5.929   6.770  1.0087 -0.8522 -0.9951
  613MOL0     H82744   9.920   5.878   6.704 -1.0897 -0.7599 -0.3650
  613MOL0     H82745   9.682   6.012   6.692 -1.6291  0.2847 -0.3642
  613MOL0     H82746   9.652   5.848   6.655 -2.0490  0.4879 -1.6576
  613MOL0     H82747   9.455   6.046   6.781 -1.7445 -1.1267  2.6213
  613MOL0     H82748   9.443   5.871   6.820  0.1159 -1.2408 -0.5281
  613MOL0     H82749   9.434   5.987   6.546  0.6331 -0.3500 -0.6592
  613MOL0     H82750   9.302   5.932   6.668  0.5070  0.1136  1.4025
  613MOL0     H82751   9.415   5.696   6.661  1.5607 -0.1803  0.9809
  613MOL0     H82752   9.508   5.760   6.518  0.5927  1.4544  0.8496
  613MOL0     H82753   9.136   5.688   6.343  0.5172 -0.6862 -0.1193
  613MOL0     H82754   9.766   5.922   7.098  0.2676 -1.5556  1.1060
  613MOL0     H82755   9.997   5.943   7.183  1.4407 -1.3175  0.4545
  614MOL0     O82756  10.414   2.958   3.209  0.1617  0.0009  0.2814
  614MOL0     C82757  10.509   2.908   3.259 -0.9287 -0.1905  0.4337
  614MOL0     O82758  10.523   2.789   3.319 -0.8363  0.6702  0.0895
  614MOL0     C82759  10.404   2.710   3.325 -0.4968 -0.6945  0.1484
  614MOL0     C82760  10.320   2.715   3.436 -0.6914  0.2000 -0.5676
  614MOL0     C82761  10.196   2.648   3.435  0.2827  0.0667 -0.4360
  614MOL0     C82762  10.140   2.592   3.321 -0.3851  1.1766  0.4012
  614MOL0     O82763  10.010   2.549   3.321  0.0426  0.5440 -0.1305
  614MOL0     C82764   9.970   2.455   3.423  0.3017 -0.4591  0.3935
  614MOL0     C82765   9.825   2.498   3.462 -0.1337  0.3284  0.1917
  614MOL0     C82766   9.826   2.630   3.539  0.4837 -0.5486  0.1616
  614MOL0     C82767   9.681   2.689   3.561  0.4836  0.0536 -0.0179
  614MOL0     C82768   9.679   2.830   3.609  0.3814 -1.4351 -0.9900
  614MOL0     C82769   9.705   2.842   3.770 -0.8909  0.3889  0.8437
  614MOL0     C82770   9.704   2.994   3.813 -0.1666  0.1668 -0.9405
  614MOL0     C82771   9.565   3.050   3.840  0.0129  0.3547 -0.8219
  614MOL0     N82772   9.474   2.955   3.909  0.1594  0.2639  0.7956
  614MOL0     C82773   9.357   2.909   3.869  0.1405  0.6841 -0.7151
  614MOL0     C82774   9.303   2.825   3.968  0.5228  0.4615  0.9979
  614MOL0     C82775   9.176   2.743   3.970 -0.1579 -0.1022  0.4490
  614MOL0     C82776   9.144   2.681   3.833 -0.2138 -0.1350  0.3409
  614MOL0     C82777   9.029   2.578   3.845  0.3514 -1.1694 -0.1733
  614MOL0     C82778   8.986   2.514   3.712  0.1648  0.7179  0.0081
  614MOL0     O82779   9.073   2.412   3.673 -0.3115 -0.0753  0.3487
  614MOL0     C82780   9.024   2.315   3.590  0.3999  0.1317  0.7127
  614MOL0     C82781   8.912   2.319   3.502  0.0426 -0.8186 -0.7942
  614MOL0     C82782   8.878   2.214   3.417 -0.4389  0.2709  0.7711
  614MOL0     C82783   8.763   2.233   3.325 -0.1356  0.4972 -1.0179
  614MOL0     C82784   8.963   2.100   3.410  0.0205 -0.4471  0.2967
  614MOL0     C82785   8.936   1.995   3.313  0.1515 -0.1056 -0.6601
  614MOL0     O82786   9.032   1.971   3.227 -0.4392 -0.2163 -0.4678
  614MOL0     C82787   9.019   1.913   3.103 -0.5788 -0.0748 -0.0937
  614MOL0     C82788   8.908   1.892   3.015  0.1685  0.0616  0.0668
  614MOL0     C82789   8.927   1.820   2.892 -0.6757 -0.0636  0.3032
  614MOL0     C82790   9.051   1.777   2.852 -0.9413  0.0607  0.3308
  614MOL0     O82791   9.063   1.722   2.724  0.0367  0.1594 -0.2274
  614MOL0     C82792   8.953   1.646   2.668 -0.2301  0.0811 -0.6065
  614MOL0     C82793   8.993   1.576   2.538 -0.1140 -0.9077 -0.8654
  614MOL0     C82794   9.021   1.672   2.422  0.5315  0.0787 -0.3183
  614MOL0     C82795   9.065   1.599   2.294  0.7843 -0.3506  0.7527
  614MOL0     C82796   9.175   1.491   2.315 -0.2845  0.2644 -0.0471
  614MOL0     C82797   9.124   1.356   2.295 -0.7296 -0.6125  1.1489
  614MOL0     C82798   9.232   1.250   2.317  0.1924  0.2402 -0.3950
  614MOL0     C82799   9.192   1.117   2.249 -0.8253  0.3629 -0.6324
  614MOL0    Cl82800   9.341   1.022   2.256  0.0809 -0.2152 -0.0277
  614MOL0     C82801   9.162   1.791   2.942  0.3159  0.7487  0.4569
  614MOL0     C82802   9.146   1.855   3.065 -0.4234 -0.1076 -0.2406
  614MOL0     O82803   8.831   1.936   3.330  0.4623  0.1762  0.4466
  614MOL0     C82804   9.079   2.097   3.493  0.6133 -0.8244 -0.0266
  614MOL0     C82805   9.101   2.200   3.587  0.1493 -0.3065 -0.0355
  614MOL0     N82806   9.383   2.845   4.076 -0.1837 -0.4315  0.0902
  614MOL0     N82807   9.492   2.912   4.039 -0.3030 -0.2405  0.5198
  614MOL0     C82808  10.222   2.590   3.212  0.3599  0.3434  0.4851
  614MOL0     C82809  10.353   2.648   3.209  0.9222  0.9665 -0.7981
  614MOL0     C82810  10.629   2.988   3.253 -0.6799 -0.1186 -0.0157
  614MOL0     C82811  10.648   3.087   3.156 -0.8886 -0.6860  0.8961
  614MOL0     C82812  10.755   3.174   3.147  0.1925 -0.0935  0.1661
  614MOL0     C82813  10.866   3.140   3.221 -0.2626  0.1937  0.2883
  614MOL0     O82814  10.982   3.217   3.182 -0.2966 -0.3759 -0.2609
  614MOL0     C82815  11.098   3.138   3.143 -0.4743 -0.2414 -0.0741
  614MOL0     C82816  11.080   3.093   2.998  0.8928 -0.3602  0.4751
  614MOL0     C82817  11.103   3.200   2.887 -0.2447  0.3154 -0.1919
  614MOL0     C82818  11.094   3.148   2.741 -0.2551 -0.4798  0.1812
  614MOL0     C82819  11.100   3.262   2.651 -0.7224  0.6130 -0.2678
  614MOL0     C82820  11.117   3.354   2.581  0.6952 -0.2677 -0.2341
  614MOL0     C82821  10.861   3.038   3.312  0.1310 -0.7885 -1.1434
  614MOL0     C82822  10.744   2.959   3.331  0.6993 -0.1854  1.1010
  614MOL0     H82823  10.341   2.776   3.523 -0.9129 -0.6873  0.1174
  614MOL0     H82824  10.139   2.665   3.526  0.3063 -0.1006 -0.3901
  614MOL0     H82825   9.991   2.359   3.375 -1.3875 -1.4770  1.5971
  614MOL0     H82826  10.038   2.466   3.509  0.2649 -0.7294  0.4579
  614MOL0     H82827   9.774   2.517   3.367 -0.8945  0.9359  0.7084
  614MOL0     H82828   9.772   2.425   3.524  0.9539 -1.0739 -0.4814
  614MOL0     H82829   9.878   2.615   3.634  0.4989  2.3042  0.7126
  614MOL0     H82830   9.882   2.707   3.485  2.4225 -0.7026  1.8248
  614MOL0     H82831   9.633   2.680   3.463  0.4166 -0.8556  0.0889
  614MOL0     H82832   9.625   2.619   3.624  0.0196 -1.8885 -2.4574
  614MOL0     H82833   9.750   2.891   3.552 -1.9714  1.4250 -1.0960
  614MOL0     H82834   9.578   2.870   3.594 -0.4444 -2.2645  1.7182
  614MOL0     H82835   9.644   2.783   3.838  0.3226  0.1629  1.7611
  614MOL0     H82836   9.810   2.813   3.777 -1.2480 -1.3807 -0.4464
  614MOL0     H82837   9.776   3.004   3.894 -0.3560 -2.6133 -0.3328
  614MOL0     H82838   9.762   3.054   3.742  1.9812 -1.3144 -0.5444
  614MOL0     H82839   9.522   3.088   3.747 -0.5971  0.7330 -0.3867
  614MOL0     H82840   9.574   3.139   3.902  0.0588  0.0054 -0.3166
  614MOL0     H82841   9.324   2.925   3.767 -0.0953  3.3384 -0.2693
  614MOL0     H82842   9.190   2.664   4.043  0.0686 -2.2355 -1.7807
  614MOL0     H82843   9.093   2.810   3.995  0.5076  1.0565 -0.3465
  614MOL0     H82844   9.232   2.635   3.788 -0.2074  1.2143 -1.1187
  614MOL0     H82845   9.113   2.761   3.766 -1.8709  0.2347  1.4979
  614MOL0     H82846   8.953   2.635   3.900  0.4988  1.5587 -2.5654
  614MOL0     H82847   9.064   2.498   3.911 -0.3698 -3.3260 -2.2593
  614MOL0     H82848   8.986   2.593   3.636  3.2310  2.3800  1.5229
  614MOL0     H82849   8.883   2.478   3.719  0.7346 -1.2668 -1.2132
  614MOL0     H82850   8.848   2.407   3.496 -1.0011 -1.3872  1.1210
  614MOL0     H82851   8.753   2.340   3.306  0.8581  0.5883 -1.1000
  614MOL0     H82852   8.785   2.177   3.234 -1.9906 -2.4100  0.1843
  614MOL0     H82853   8.663   2.201   3.354 -0.0527  0.2516 -1.0048
  614MOL0     H82854   8.812   1.932   3.048 -2.0203 -1.5454 -3.7263
  614MOL0     H82855   8.841   1.810   2.826 -2.6797  0.5928  2.6393
  614MOL0     H82856   8.898   1.582   2.738 -0.9287  0.7272 -0.5645
  614MOL0     H82857   8.873   1.715   2.643 -1.3449 -0.6282  0.7941
  614MOL0     H82858   9.078   1.512   2.566 -0.5517  0.1435  3.4903
  614MOL0     H82859   8.906   1.513   2.520 -0.4093 -0.6520 -0.3437
  614MOL0     H82860   9.103   1.735   2.457 -1.2810  2.4465 -0.1141
  614MOL0     H82861   8.928   1.729   2.406  0.6560  1.0080  1.9691
  614MOL0     H82862   8.984   1.558   2.233  3.5112 -2.2853 -1.7966
  614MOL0     H82863   9.113   1.672   2.228  1.1801 -0.9791  0.3397
  614MOL0     H82864   9.235   1.512   2.403  1.3641  0.7679 -1.2382
  614MOL0     H82865   9.250   1.504   2.236  1.6523  0.7255  1.7979
  614MOL0     H82866   9.034   1.332   2.352 -3.7795  2.0160 -2.1393
  614MOL0     H82867   9.107   1.352   2.187  0.9407  1.8787  0.7076
  614MOL0     H82868   9.243   1.237   2.425  0.0676  1.5137 -0.2191
  614MOL0     H82869   9.318   1.291   2.264  1.9337 -2.4055  0.1722
  614MOL0     H82870   9.160   1.143   2.148  0.7876  1.7333 -0.8250
  614MOL0     H82871   9.120   1.061   2.309 -0.6583  0.3553 -0.4393
  614MOL0     H82872   9.248   1.733   2.911 -0.4383 -0.1359 -0.0488
  614MOL0     H82873   9.220   1.858   3.144 -2.4161 -0.4889  1.7292
  614MOL0     H82874   9.138   2.006   3.490  0.3648 -0.9896 -3.5364
  614MOL0     H82875   9.193   2.199   3.645  0.6485 -0.6326 -0.8083
  614MOL0     H82876  10.178   2.530   3.133  2.5729  0.7405 -1.1469
  614MOL0     H82877  10.408   2.636   3.117  0.3772 -3.9656 -0.7319
  614MOL0     H82878  10.572   3.088   3.079 -1.1484  2.2111  1.0749
  614MOL0     H82879  10.751   3.253   3.073 -0.9634 -0.8864 -0.6394
  614MOL0     H82880  11.195   3.187   3.154  1.4950 -3.5352 -1.1481
  614MOL0     H82881  11.112   3.053   3.211  2.4796  0.5004  0.3730
  614MOL0     H82882  10.979   3.050   2.995 -0.0875  1.8043  0.3782
  614MOL0     H82883  11.163   3.025   2.982  1.7982  0.6463  0.7568
  614MOL0     H82884  11.201   3.236   2.918 -1.0623  1.3437  1.3254
  614MOL0     H82885  11.033   3.282   2.907 -0.3249  0.0451  0.6380
  614MOL0     H82886  10.997   3.107   2.714 -1.1839  0.8694  1.3159
  614MOL0     H82887  11.164   3.068   2.715 -1.5163 -1.1590 -1.3084
  614MOL0     H82888  11.134   3.430   2.507 -0.4179  0.6072  0.3666
  614MOL0     H82889  10.936   2.996   3.378 -1.3030 -1.3461  0.2246
  614MOL0     H82890  10.746   2.872   3.396  1.1617 -0.9846  0.0440
  615MOL0     O82891   3.585   1.470   4.920 -0.1993  0.3873  0.1866
  615MOL0     C82892   3.653   1.538   4.844  0.3208  0.0223  1.0058
  615MOL0     O82893   3.655   1.673   4.829 -0.8268 -0.3675  0.3918
  615MOL0     C82894   3.581   1.747   4.922  1.0669  0.4532  0.4570
  615MOL0     C82895   3.436   1.732   4.926 -0.2737  0.7656 -0.5231
  615MOL0     C82896   3.368   1.819   5.001  0.4437 -0.8968  0.0317
  615MOL0     C82897   3.426   1.924   5.073 -0.2657  0.4364 -0.4956
  615MOL0     O82898   3.365   2.019   5.156 -0.4260 -0.5244  0.1049
  615MOL0     C82899   3.226   2.030   5.151 -0.3649 -0.4434 -0.0681
  615MOL0     C82900   3.148   1.950   5.256  0.5577  0.3116  0.5773
  615MOL0     C82901   3.051   1.850   5.211  0.3744  0.6510  0.1563
  615MOL0     C82902   3.018   1.754   5.326 -0.4098  0.2524 -0.9689
  615MOL0     C82903   2.916   1.809   5.420  0.5400  0.1109 -0.1031
  615MOL0     C82904   2.890   1.719   5.549 -0.6936 -0.1779  0.4797
  615MOL0     C82905   2.786   1.768   5.647  0.5311 -0.2699  0.8184
  615MOL0     C82906   2.794   1.705   5.778  0.4358 -0.3923 -0.8109
  615MOL0     N82907   2.713   1.590   5.784  0.0797  0.5301  0.0924
  615MOL0     C82908   2.759   1.464   5.838 -0.3688 -0.1575  0.0278
  615MOL0     C82909   2.646   1.398   5.858  0.4660 -0.4781  0.0597
  615MOL0     C82910   2.628   1.268   5.931  0.4445  0.1383  0.6568
  615MOL0     C82911   2.534   1.177   5.851  0.2175 -0.9980  0.3639
  615MOL0     C82912   2.596   1.116   5.723 -0.1723  0.2426  0.0875
  615MOL0     C82913   2.740   1.061   5.731  0.4517 -0.5765  0.3199
  615MOL0     O82914   2.764   0.971   5.845  0.8219  0.0621 -0.6288
  615MOL0     C82915   2.731   0.840   5.841  0.3880  0.3998 -0.0424
  615MOL0     C82916   2.652   0.782   5.745  0.9023  0.4540  0.6271
  615MOL0     C82917   2.611   0.650   5.749  0.2355  0.3378  0.0011
  615MOL0     C82918   2.523   0.607   5.637  0.5841  1.2286  0.5507
  615MOL0     C82919   2.652   0.575   5.859 -0.0716  0.4704 -0.2381
  615MOL0     C82920   2.600   0.441   5.889 -1.1075  0.7951  0.9434
  615MOL0     O82921   2.687   0.340   5.910  0.2020 -0.5037 -0.1675
  615MOL0     C82922   2.628   0.223   5.913  0.8620  0.0755 -0.5768
  615MOL0     C82923   2.605   0.148   5.803  0.1081  0.1516  0.0069
  615MOL0     C82924   2.544   0.018   5.804  0.7733 -0.7165  0.6753
  615MOL0     C82925   2.497  -0.027   5.931 -0.1057 -0.2416  0.0068
  615MOL0     O82926   2.432  -0.152   5.948 -0.0658 -0.3562 -0.3050
  615MOL0     C82927   2.429  -0.252   5.840  0.0204 -0.2229  0.2889
  615MOL0     C82928   2.314  -0.237   5.739 -0.6034  0.0074  0.2701
  615MOL0     C82929   2.198  -0.328   5.775  0.4424  0.8803  0.3809
  615MOL0     C82930   2.095  -0.326   5.661 -0.5484 -0.3410 -0.1671
  615MOL0     C82931   1.962  -0.419   5.650  0.0564 -0.0961  0.5007
  615MOL0     C82932   2.000  -0.569   5.639  0.3547 -0.4612 -0.3785
  615MOL0     C82933   2.036  -0.609   5.491 -0.6197 -0.6598 -0.1343
  615MOL0     C82934   2.032  -0.765   5.478 -0.5237 -0.0489  0.6633
  615MOL0    Cl82935   2.085  -0.821   5.314  0.2804  0.0601 -0.1105
  615MOL0     C82936   2.511   0.050   6.050  0.9039 -0.1438 -0.3575
  615MOL0     C82937   2.573   0.176   6.040  0.0823  0.3371  0.9485
  615MOL0     O82938   2.477   0.430   5.892 -0.0191 -0.6184 -0.0557
  615MOL0     C82939   2.736   0.631   5.958  0.2040  0.1106  0.4417
  615MOL0     C82940   2.779   0.759   5.950  0.1996 -1.3137 -0.2662
  615MOL0     N82941   2.533   1.469   5.814 -0.3701  0.4070  0.4989
  615MOL0     N82942   2.576   1.582   5.768 -0.2425 -0.4457 -0.4016
  615MOL0     C82943   3.565   1.941   5.063  0.1920  0.4320  0.2406
  615MOL0     C82944   3.644   1.857   4.995  0.3726 -0.0358  0.7002
  615MOL0     C82945   3.750   1.454   4.769 -0.4250  1.2178 -0.2536
  615MOL0     C82946   3.799   1.329   4.803  0.4165  0.3590  0.3322
  615MOL0     C82947   3.909   1.270   4.743 -0.3574 -0.0150 -0.2895
  615MOL0     C82948   3.981   1.331   4.640  0.8261  0.0593  0.5927
  615MOL0     O82949   4.086   1.272   4.578  0.3105 -0.6235 -0.4013
  615MOL0     C82950   4.168   1.331   4.482 -0.2563 -0.0512 -0.3653
  615MOL0     C82951   4.300   1.252   4.456 -0.3319  0.5031 -0.7315
  615MOL0     C82952   4.288   1.131   4.367 -0.0469  0.8433 -0.8046
  615MOL0     C82953   4.255   1.156   4.212 -0.0043 -0.3434 -0.7708
  615MOL0     C82954   4.379   1.204   4.137 -0.1481  0.3653  0.6935
  615MOL0     C82955   4.470   1.243   4.070 -0.3159  0.6123  0.7626
  615MOL0     C82956   3.927   1.454   4.602 -0.4999 -0.0856  0.1589
  615MOL0     C82957   3.821   1.514   4.662 -1.0003  0.0151 -0.4732
  615MOL0     H82958   3.388   1.651   4.872  0.6852 -0.0825 -0.1264
  615MOL0     H82959   3.263   1.792   4.995  0.6820 -1.7244 -0.6948
  615MOL0     H82960   3.192   2.132   5.171 -0.2190 -0.2012 -0.9959
  615MOL0     H82961   3.192   1.988   5.056  1.0976  0.9880 -1.2933
  615MOL0     H82962   3.226   1.904   5.317 -1.0646 -1.0560  1.7156
  615MOL0     H82963   3.088   2.025   5.308  0.0046  0.2581  0.0261
  615MOL0     H82964   2.956   1.901   5.191 -1.6921 -1.9310  2.5620
  615MOL0     H82965   3.075   1.787   5.124  0.5815 -0.1410  0.7760
  615MOL0     H82966   2.981   1.658   5.288  0.3137 -1.2241  1.8028
  615MOL0     H82967   3.100   1.733   5.395 -0.5308 -0.5602 -1.0612
  615MOL0     H82968   2.939   1.911   5.453 -4.1846  1.3539  0.0283
  615MOL0     H82969   2.828   1.818   5.356 -0.4258 -0.3027  1.1396
  615MOL0     H82970   2.855   1.624   5.509 -3.0120  2.1249 -3.6956
  615MOL0     H82971   2.987   1.706   5.597 -1.4469  1.1227  2.4757
  615MOL0     H82972   2.811   1.874   5.658  1.5839 -0.4603  0.4695
  615MOL0     H82973   2.684   1.756   5.609  0.3722  0.6863  0.9160
  615MOL0     H82974   2.759   1.780   5.849 -2.9873 -0.1793 -2.5256
  615MOL0     H82975   2.900   1.687   5.797  0.4171 -0.9828 -1.2356
  615MOL0     H82976   2.854   1.417   5.865 -1.7441 -3.3487 -0.2884
  615MOL0     H82977   2.728   1.225   5.943  0.8825 -0.2456 -3.0200
  615MOL0     H82978   2.576   1.281   6.026  0.1367  0.9336  0.3831
  615MOL0     H82979   2.442   1.229   5.824  1.1583 -0.5601 -2.2956
  615MOL0     H82980   2.496   1.099   5.918 -1.0567 -0.0570  0.7745
  615MOL0     H82981   2.585   1.200   5.654  3.1376 -0.1867 -1.1936
  615MOL0     H82982   2.524   1.043   5.688 -0.0881  1.7339 -3.6224
  615MOL0     H82983   2.804   1.148   5.748 -0.6907  0.1405  1.0149
  615MOL0     H82984   2.758   1.021   5.631 -0.5095  1.2396 -0.6153
  615MOL0     H82985   2.614   0.841   5.662 -2.6374 -1.5344  0.6498
  615MOL0     H82986   2.425   0.656   5.634  0.4525  0.8984 -2.1853
  615MOL0     H82987   2.571   0.636   5.543 -0.1898 -1.3908 -0.7516
  615MOL0     H82988   2.502   0.500   5.642 -2.0672  1.7050  1.3248
  615MOL0     H82989   2.657   0.167   5.710  1.5724  0.2890  0.8278
  615MOL0     H82990   2.543  -0.035   5.710  1.4767 -2.6859  1.7199
  615MOL0     H82991   2.531  -0.262   5.801  0.0411  0.8122  0.0682
  615MOL0     H82992   2.425  -0.352   5.886  3.7153 -0.3076  0.7584
  615MOL0     H82993   2.277  -0.134   5.733 -0.7866  0.0090  1.2414
  615MOL0     H82994   2.352  -0.267   5.641 -0.2290  0.4672  0.2696
  615MOL0     H82995   2.144  -0.290   5.863 -3.5222 -3.3363  0.1525
  615MOL0     H82996   2.222  -0.432   5.799 -0.8471  0.4176 -0.2019
  615MOL0     H82997   2.066  -0.221   5.668  1.5220  0.2230  0.6619
  615MOL0     H82998   2.147  -0.351   5.568  4.2792 -2.0222  2.6345
  615MOL0     H82999   1.918  -0.385   5.556 -2.2992  2.1277  2.2444
  615MOL0     H83000   1.882  -0.403   5.722 -0.0237  1.4225  0.0940
  615MOL0     H83001   2.083  -0.593   5.706 -1.0073 -0.2881  1.4495
  615MOL0     H83002   1.912  -0.630   5.664  0.2900 -0.5287 -0.7613
  615MOL0     H83003   2.137  -0.575   5.465 -0.3986 -2.0706 -1.2866
  615MOL0     H83004   1.972  -0.567   5.413  1.0724 -0.1500 -1.3210
  615MOL0     H83005   1.931  -0.802   5.501 -0.3382 -2.5376 -2.0423
  615MOL0     H83006   2.082  -0.812   5.563 -2.1808 -1.1874  1.0672
  615MOL0     H83007   2.470   0.016   6.144  0.3031  2.2413  0.2996
  615MOL0     H83008   2.584   0.247   6.121 -3.3224  0.9551  1.0231
  615MOL0     H83009   2.761   0.561   6.037  2.8651 -0.2564 -0.6534
  615MOL0     H83010   2.842   0.796   6.031 -0.1062  1.0838 -1.0408
  615MOL0     H83011   3.608   2.027   5.113 -2.0709  2.4119 -1.0326
  615MOL0     H83012   3.750   1.878   4.983 -0.0701  0.6623 -2.8440
  615MOL0     H83013   3.742   1.282   4.882  0.3355 -0.3891 -0.1584
  615MOL0     H83014   3.956   1.183   4.787 -0.2227  1.6149  3.1267
  615MOL0     H83015   4.118   1.346   4.386  1.1322 -2.0005 -1.4579
  615MOL0     H83016   4.203   1.427   4.522  2.0462 -0.9398 -0.1200
  615MOL0     H83017   4.343   1.237   4.555 -0.8200  3.1802 -0.0165
  615MOL0     H83018   4.360   1.310   4.385  0.1219  0.5025 -0.3468
  615MOL0     H83019   4.206   1.068   4.403  1.6779 -1.1199 -0.0230
  615MOL0     H83020   4.380   1.073   4.381  0.3709  0.9712 -2.7332
  615MOL0     H83021   4.173   1.227   4.207 -0.9369 -1.4081 -1.0263
  615MOL0     H83022   4.227   1.071   4.149 -1.2030  0.5175 -1.4250
  615MOL0     H83023   4.555   1.284   4.019 -1.6616 -0.2534 -2.4380
  615MOL0     H83024   3.973   1.511   4.522 -2.0291  0.4205 -0.3802
  615MOL0     H83025   3.791   1.616   4.641 -3.6828 -0.5239  0.2464
  616MOL0     O83026   0.621   2.676   4.368  0.2523  0.1756  0.2130
  616MOL0     C83027   0.597   2.776   4.431 -0.3376  0.1135 -0.0254
  616MOL0     O83028   0.640   2.794   4.565  0.6670 -0.0596  0.3673
  616MOL0     C83029   0.720   2.702   4.642 -0.6261  0.4611  0.0380
  616MOL0     C83030   0.813   2.611   4.584 -1.2509  0.3197 -0.6660
  616MOL0     C83031   0.899   2.538   4.672  0.4038  0.7567 -0.4776
  616MOL0     C83032   0.887   2.549   4.816  0.0035 -0.4867  0.7107
  616MOL0     O83033   0.983   2.486   4.881 -0.6360 -0.1235 -0.7134
  616MOL0     C83034   0.982   2.503   5.025  0.2728  1.0217 -0.6298
  616MOL0     C83035   1.069   2.398   5.089  0.1011  0.1921 -0.3370
  616MOL0     C83036   1.213   2.423   5.051 -0.2803  0.0815 -0.8778
  616MOL0     C83037   1.307   2.297   5.056  0.3850 -0.2832  0.5574
  616MOL0     C83038   1.440   2.321   4.986 -0.1535  0.6470  0.7039
  616MOL0     C83039   1.514   2.194   4.997  0.1428  0.6702 -0.3714
  616MOL0     C83040   1.649   2.195   4.925  0.8668  0.0952 -0.1711
  616MOL0     C83041   1.761   2.116   4.986  0.8337  0.3275  0.1410
  616MOL0     N83042   1.721   1.990   5.048 -0.1883  0.5915 -0.4274
  616MOL0     C83043   1.661   1.965   5.169  0.0732  0.0316 -0.0043
  616MOL0     C83044   1.630   1.831   5.164  0.4708  0.9468 -0.0654
  616MOL0     C83045   1.539   1.758   5.251  0.1440  0.4161 -0.6761
  616MOL0     C83046   1.404   1.716   5.179  0.2999 -0.8632 -0.3756
  616MOL0     C83047   1.345   1.607   5.249 -0.0964 -0.1986  0.0314
  616MOL0     C83048   1.204   1.566   5.207  0.2878  0.5078  0.6747
  616MOL0     O83049   1.171   1.423   5.233 -0.1786 -0.1855 -0.6171
  616MOL0     C83050   1.101   1.387   5.341  1.0676  0.9312 -0.4297
  616MOL0     C83051   1.035   1.271   5.326  0.3325  0.2340  0.1323
  616MOL0     C83052   0.964   1.206   5.427  0.5730  0.7758  0.0679
  616MOL0     C83053   0.880   1.083   5.394  0.4430  0.1344 -1.4337
  616MOL0     C83054   0.965   1.264   5.560  0.2316 -0.6446  0.7346
  616MOL0     C83055   0.890   1.210   5.673 -0.5224 -0.2803  0.0423
  616MOL0     O83056   0.758   1.179   5.656  0.5265 -0.1245  0.5575
  616MOL0     C83057   0.679   1.164   5.766 -0.5773  0.5882 -0.4118
  616MOL0     C83058   0.702   1.067   5.861 -0.0402 -0.2250  0.5086
  616MOL0     C83059   0.622   1.053   5.968  0.5778  0.2153  1.1248
  616MOL0     C83060   0.528   1.159   5.988  0.0461  0.8553  0.1884
  616MOL0     O83061   0.466   1.157   6.107  0.3920 -0.0522 -0.4282
  616MOL0     C83062   0.479   1.275   6.195  1.1948 -0.0621  0.6452
  616MOL0     C83063   0.568   1.247   6.308  0.6359 -0.0950 -0.1460
  616MOL0     C83064   0.587   1.365   6.397  0.2101 -0.2622 -0.3191
  616MOL0     C83065   0.670   1.346   6.513 -0.1386  0.1799 -0.6171
  616MOL0     C83066   0.656   1.471   6.606  0.3009 -0.0324  0.9660
  616MOL0     C83067   0.770   1.476   6.704 -0.3178  0.3733  0.1493
  616MOL0     C83068   0.810   1.617   6.747  0.2403  0.5051 -0.3972
  616MOL0     C83069   0.947   1.630   6.800 -1.4284 -0.6134 -0.2387
  616MOL0    Cl83070   0.963   1.542   6.958  0.4070 -0.1775  0.0944
  616MOL0     C83071   0.494   1.244   5.896  0.6802  0.3489 -0.4122
  616MOL0     C83072   0.574   1.249   5.782  0.7530  1.0880 -0.3399
  616MOL0     O83073   0.947   1.200   5.779  0.4909 -0.5158 -0.3262
  616MOL0     C83074   1.031   1.385   5.576 -0.6959 -0.4329 -0.8928
  616MOL0     C83075   1.100   1.445   5.466  0.5353  0.4071 -0.4021
  616MOL0     N83076   1.681   1.779   5.045  0.1486 -0.6983  0.7067
  616MOL0     N83077   1.736   1.873   4.977  0.2409  0.5222  0.0041
  616MOL0     C83078   0.795   2.638   4.869  1.1197 -0.1272  0.2925
  616MOL0     C83079   0.726   2.721   4.770  0.0641 -0.6326 -0.7908
  616MOL0     C83080   0.525   2.896   4.370  0.5371  1.3986 -0.2616
  616MOL0     C83081   0.493   2.899   4.233 -0.3328  0.1001  0.3489
  616MOL0     C83082   0.432   3.007   4.182 -0.0818 -0.3428 -0.3366
  616MOL0     C83083   0.386   3.121   4.267 -0.6151  0.0956  0.1466
  616MOL0     O83084   0.314   3.223   4.211  0.1727 -0.0823 -0.3220
  616MOL0     C83085   0.297   3.344   4.277 -0.5008 -0.2783  0.2072
  616MOL0     C83086   0.228   3.439   4.188  0.6824  0.0270  0.5491
  616MOL0     C83087   0.101   3.400   4.111 -0.3011  0.3914  0.6712
  616MOL0     C83088   0.043   3.491   3.996  0.0477  0.5431  0.4671
  616MOL0     C83089  -0.078   3.429   3.940 -0.1956 -0.3905 -0.6098
  616MOL0     C83090  -0.184   3.385   3.887 -0.6295  0.4730 -0.8475
  616MOL0     C83091   0.432   3.121   4.399  0.9788  0.2536  0.3066
  616MOL0     C83092   0.493   3.008   4.453 -0.5138 -0.1182  0.0752
  616MOL0     H83093   0.821   2.595   4.477  2.1847 -0.9132 -0.3643
  616MOL0     H83094   0.982   2.482   4.629  1.3535  1.0162  0.9708
  616MOL0     H83095   1.009   2.603   5.060  2.2746  0.1303  0.5311
  616MOL0     H83096   0.880   2.486   5.060  1.1295  1.4335  2.3990
  616MOL0     H83097   1.052   2.410   5.196 -2.8114  2.5978 -0.9264
  616MOL0     H83098   1.032   2.299   5.060  0.9793 -0.4322  0.6213
  616MOL0     H83099   1.212   2.468   4.951  3.7716  2.1308 -0.1915
  616MOL0     H83100   1.257   2.508   5.105  1.3990  0.1731 -2.2719
  616MOL0     H83101   1.331   2.271   5.160 -0.2040  1.9619  1.2949
  616MOL0     H83102   1.262   2.208   5.010  2.8290 -1.5361  0.4111
  616MOL0     H83103   1.426   2.349   4.881  1.3677 -0.5965  0.1236
  616MOL0     H83104   1.502   2.398   5.032  1.1732 -0.6846  1.2377
  616MOL0     H83105   1.529   2.171   5.103 -1.3583 -4.3139 -0.9745
  616MOL0     H83106   1.456   2.115   4.948 -1.0109  1.1410  0.1837
  616MOL0     H83107   1.630   2.176   4.819 -0.0652 -0.5169  0.1022
  616MOL0     H83108   1.692   2.296   4.928 -0.7457  0.9412 -2.4609
  616MOL0     H83109   1.794   2.178   5.069  0.2033  0.4853  0.2749
  616MOL0     H83110   1.839   2.089   4.914  0.9513  0.4866  0.2078
  616MOL0     H83111   1.646   2.040   5.246 -3.0692 -0.7005  0.2319
  616MOL0     H83112   1.590   1.664   5.270 -0.2438  0.3743  0.1845
  616MOL0     H83113   1.525   1.818   5.342  1.0077  0.2221 -0.4047
  616MOL0     H83114   1.421   1.683   5.077  0.9220 -3.8041  0.5892
  616MOL0     H83115   1.338   1.803   5.174 -0.8587 -1.7472 -0.7766
  616MOL0     H83116   1.329   1.639   5.352  0.8132 -0.0692  0.1407
  616MOL0     H83117   1.413   1.521   5.247  0.7292  0.4535 -0.8382
  616MOL0     H83118   1.197   1.590   5.100  0.2329 -0.2058  0.5065
  616MOL0     H83119   1.126   1.628   5.251 -2.1255 -1.3781 -0.6594
  616MOL0     H83120   1.030   1.230   5.225 -0.8448  1.8595 -0.5016
  616MOL0     H83121   0.897   1.002   5.466 -0.2678  0.4894 -0.8433
  616MOL0     H83122   0.775   1.114   5.395  0.0513 -1.1160 -2.3316
  616MOL0     H83123   0.907   1.056   5.292  2.0178 -2.1344 -0.5036
  616MOL0     H83124   0.790   1.004   5.852  1.8330  2.4791 -2.1263
  616MOL0     H83125   0.642   0.974   6.040 -1.7869 -1.9828 -0.4807
  616MOL0     H83126   0.515   1.358   6.133  0.1696 -1.7011 -2.3319
  616MOL0     H83127   0.388   1.315   6.240  0.3580  0.1156 -1.0938
  616MOL0     H83128   0.517   1.169   6.366  2.7952 -1.1138  0.5170
  616MOL0     H83129   0.665   1.211   6.270 -0.1617 -3.3616  0.5915
  616MOL0     H83130   0.486   1.390   6.431  0.5818  1.4535 -0.4171
  616MOL0     H83131   0.630   1.448   6.341  1.0533  1.3842  2.5600
  616MOL0     H83132   0.649   1.261   6.579  1.0864  0.2683 -0.0959
  616MOL0     H83133   0.776   1.344   6.488  1.9853 -0.8145  6.3246
  616MOL0     H83134   0.556   1.465   6.651 -1.1175  2.1894 -1.5480
  616MOL0     H83135   0.657   1.559   6.540  1.8265  0.1645  1.2139
  616MOL0     H83136   0.742   1.409   6.786 -0.7151 -0.9151 -1.0184
  616MOL0     H83137   0.859   1.435   6.655 -0.1359  0.8706  0.0529
  616MOL0     H83138   0.737   1.646   6.824  0.7152 -0.9092  0.6432
  616MOL0     H83139   0.789   1.681   6.661 -0.6971  2.0617  0.9369
  616MOL0     H83140   0.972   1.736   6.810 -1.8331 -0.6254  1.0282
  616MOL0     H83141   1.018   1.591   6.726 -1.0084 -0.1240 -0.0998
  616MOL0     H83142   0.414   1.313   5.921  1.1146  0.8796 -0.4678
  616MOL0     H83143   0.559   1.318   5.699  2.5538  2.3390  0.3170
  616MOL0     H83144   1.026   1.447   5.666 -0.6996  0.8553 -1.7568
  616MOL0     H83145   1.148   1.542   5.477  1.6497 -0.4012  3.0872
  616MOL0     H83146   0.782   2.652   4.976 -1.0328  1.6869 -0.1298
  616MOL0     H83147   0.676   2.808   4.812  2.4335  1.9070 -2.7974
  616MOL0     H83148   0.504   2.817   4.163 -2.5875  0.8482 -0.9838
  616MOL0     H83149   0.410   3.018   4.077  2.7013 -0.7653 -1.0267
  616MOL0     H83150   0.248   3.339   4.375  0.5937  0.7511  0.8338
  616MOL0     H83151   0.400   3.373   4.295 -0.2647  2.0957 -3.6577
  616MOL0     H83152   0.308   3.462   4.117 -1.8897 -0.7416 -2.8577
  616MOL0     H83153   0.213   3.536   4.237 -0.9838  1.1870 -2.0274
  616MOL0     H83154   0.018   3.386   4.181 -0.0270 -0.9805  0.7553
  616MOL0     H83155   0.120   3.307   4.057  1.4453  1.9463 -1.5937
  616MOL0     H83156   0.109   3.503   3.910 -1.3493  3.2652 -0.3368
  616MOL0     H83157   0.024   3.594   4.028 -2.6883  0.3040 -0.1412
  616MOL0     H83158  -0.272   3.369   3.828 -0.9357  1.7125 -0.7539
  616MOL0     H83159   0.403   3.197   4.470  3.7852  2.4438 -0.7165
  616MOL0     H83160   0.510   3.013   4.560  1.0988  0.2183 -0.1684
  617MOL0     O83161   1.603   9.725   4.766  0.4848 -0.2314 -0.3739
  617MOL0     C83162   1.620   9.652   4.865  0.5152  0.1226  0.0680
  617MOL0     O83163   1.565   9.525   4.876  0.5701  0.4675 -0.0569
  617MOL0     C83164   1.480   9.478   4.783 -0.5182  0.0719  0.8581
  617MOL0     C83165   1.373   9.568   4.739  0.1059 -0.1981 -0.2644
  617MOL0     C83166   1.281   9.522   4.648  0.0956  1.1462  0.0654
  617MOL0     C83167   1.305   9.393   4.589  0.4216  0.1399 -0.5121
  617MOL0     O83168   1.218   9.355   4.483  0.7287 -0.7631 -0.0828
  617MOL0     C83169   1.210   9.437   4.371 -0.0856 -0.3756 -0.4939
  617MOL0     C83170   1.334   9.416   4.278 -0.2622  0.0781 -0.0687
  617MOL0     C83171   1.343   9.266   4.250  0.1910  0.3398 -0.4682
  617MOL0     C83172   1.426   9.237   4.130  0.2509  0.4648  0.5301
  617MOL0     C83173   1.443   9.095   4.061  0.4298 -0.0340 -0.1242
  617MOL0     C83174   1.521   9.086   3.936 -0.2791  1.0942 -0.2607
  617MOL0     C83175   1.462   9.156   3.815  0.3939  0.5150 -0.0642
  617MOL0     C83176   1.493   9.069   3.692 -0.4205 -0.3964  0.3641
  617MOL0     N83177   1.389   9.088   3.583 -1.0682 -0.6820 -0.1029
  617MOL0     C83178   1.258   9.087   3.577  0.8066  0.9539  0.7923
  617MOL0     C83179   1.231   9.115   3.450  0.3763 -0.0637  0.0686
  617MOL0     C83180   1.088   9.113   3.400 -0.0511  0.0299  0.5585
  617MOL0     C83181   0.984   9.031   3.486  0.0516  0.1070  0.1474
  617MOL0     C83182   0.844   9.028   3.424 -0.3165 -0.5478  0.4607
  617MOL0     C83183   0.782   9.161   3.426 -0.2348 -0.2761  0.4988
  617MOL0     O83184   0.646   9.142   3.393 -0.2566 -0.3803  0.5268
  617MOL0     C83185   0.590   9.184   3.273  0.4704 -0.3239 -0.1294
  617MOL0     C83186   0.660   9.205   3.158 -0.0053  1.1370 -0.4752
  617MOL0     C83187   0.602   9.249   3.041  1.0545 -0.8970 -1.0685
  617MOL0     C83188   0.691   9.251   2.917  0.3226 -0.4345 -0.4374
  617MOL0     C83189   0.468   9.294   3.046 -0.6851 -0.9022  0.4867
  617MOL0     C83190   0.401   9.337   2.918  0.5535  0.0440  0.0214
  617MOL0     O83191   0.450   9.457   2.861  0.8491 -0.2066  0.5972
  617MOL0     C83192   0.422   9.502   2.737  0.8339  0.4185  0.1231
  617MOL0     C83193   0.516   9.581   2.673  0.6474  0.3942  0.3933
  617MOL0     C83194   0.491   9.629   2.546 -0.1799 -0.0753 -0.4714
  617MOL0     C83195   0.380   9.584   2.466  0.6046 -0.0695 -0.2477
  617MOL0     O83196   0.344   9.626   2.337 -0.2080  0.8682 -0.6538
  617MOL0     C83197   0.423   9.721   2.257 -0.1168 -0.0887 -0.1801
  617MOL0     C83198   0.324   9.769   2.155 -0.7456  0.2933 -0.8034
  617MOL0     C83199   0.404   9.829   2.025 -0.2638  1.2501  0.5774
  617MOL0     C83200   0.318   9.862   1.906 -0.6741  0.0871 -0.5813
  617MOL0     C83201   0.215   9.958   1.953  0.5471  0.1013  0.6014
  617MOL0     C83202   0.144  10.026   1.837 -0.2242 -0.1169 -1.2799
  617MOL0     C83203   0.040  10.123   1.900  0.5138  0.2983  0.3714
  617MOL0     C83204   0.007  10.239   1.800  0.7516  0.4651 -0.3540
  617MOL0    Cl83205   0.164  10.326   1.760 -0.0783  0.1736 -0.3376
  617MOL0     C83206   0.291   9.498   2.532  0.0411 -0.5034  1.0011
  617MOL0     C83207   0.308   9.468   2.666  0.8901  1.8378 -0.1229
  617MOL0     O83208   0.288   9.281   2.890 -0.1922 -0.2299  0.2066
  617MOL0     C83209   0.397   9.278   3.167 -0.1542  0.0019 -0.1178
  617MOL0     C83210   0.451   9.220   3.280  0.3201 -0.0348  0.1030
  617MOL0     N83211   1.341   9.149   3.373 -0.6506  0.1884 -0.1787
  617MOL0     N83212   1.431   9.128   3.461  0.2781  0.0603  0.3086
  617MOL0     C83213   1.408   9.306   4.630  0.3158 -0.6777  0.0125
  617MOL0     C83214   1.496   9.351   4.724  0.8836  0.1133 -0.1193
  617MOL0     C83215   1.706   9.697   4.976 -0.3355 -0.0514  0.1845
  617MOL0     C83216   1.774   9.814   4.978  1.1786  0.9314  0.3285
  617MOL0     C83217   1.851   9.859   5.081 -0.7759  0.1005  0.0787
  617MOL0     C83218   1.854   9.789   5.204 -0.7337  0.7719  0.3049
  617MOL0     O83219   1.927   9.847   5.306  0.3676 -0.1979 -0.2137
  617MOL0     C83220   1.943   9.804   5.441  0.8407  0.1995 -0.4360
  617MOL0     C83221   2.059   9.695   5.444  1.0429  0.2627  0.1288
  617MOL0     C83222   2.200   9.760   5.450  0.2413 -0.0954  0.3751
  617MOL0     C83223   2.314   9.667   5.402 -0.3009 -0.6933  0.3617
  617MOL0     C83224   2.304   9.625   5.260  0.2601  0.2386  1.1652
  617MOL0     C83225   2.269   9.580   5.147 -0.3850 -0.0171  0.7363
  617MOL0     C83226   1.788   9.669   5.201 -0.2327 -0.4592 -0.3460
  617MOL0     C83227   1.720   9.616   5.090  0.0763 -0.5680  0.1448
  617MOL0     H83228   1.359   9.665   4.785  0.9037  0.2948 -1.0299
  617MOL0     H83229   1.195   9.576   4.611 -1.7235 -1.4081  0.3864
  617MOL0     H83230   1.114   9.432   4.320 -0.5587 -1.0485  0.4312
  617MOL0     H83231   1.208   9.541   4.406 -1.0819 -0.8640  0.9862
  617MOL0     H83232   1.329   9.474   4.185 -3.0305  2.6453  1.5295
  617MOL0     H83233   1.431   9.430   4.326  0.7433 -3.2623 -0.8580
  617MOL0     H83234   1.389   9.229   4.343 -3.3089 -0.8346  0.9752
  617MOL0     H83235   1.246   9.216   4.250 -0.2704  0.6105  4.6366
  617MOL0     H83236   1.405   9.307   4.048  0.3633  0.7333  0.7290
  617MOL0     H83237   1.525   9.252   4.173 -0.1978  3.2149  0.8318
  617MOL0     H83238   1.473   9.021   4.136  0.2077 -1.7363 -1.6288
  617MOL0     H83239   1.345   9.059   4.027  0.3798 -1.1662  1.1017
  617MOL0     H83240   1.626   9.112   3.956  0.6679 -1.0265 -2.0173
  617MOL0     H83241   1.530   8.979   3.914 -1.6723  1.1339 -1.1400
  617MOL0     H83242   1.354   9.174   3.824  0.7604  2.2795  1.4029
  617MOL0     H83243   1.521   9.248   3.816  1.6458 -0.2550 -0.5555
  617MOL0     H83244   1.489   8.962   3.714  2.6932 -1.3568 -2.7816
  617MOL0     H83245   1.596   9.092   3.664  0.4798 -2.4529  1.6626
  617MOL0     H83246   1.191   9.059   3.658 -1.0771 -0.4640 -1.1452
  617MOL0     H83247   1.053   9.216   3.393 -1.2707 -0.4492 -1.1412
  617MOL0     H83248   1.090   9.070   3.299 -4.5513 -0.6665  0.5697
  617MOL0     H83249   0.984   9.057   3.592  1.5674 -2.3549  0.8490
  617MOL0     H83250   1.024   8.929   3.487 -1.2286 -0.4100  0.5099
  617MOL0     H83251   0.775   8.965   3.480  0.7901 -0.5717  1.8776
  617MOL0     H83252   0.858   9.007   3.318 -0.9364 -2.4657  0.7366
  617MOL0     H83253   0.846   9.225   3.365 -0.3471 -1.9866 -1.5340
  617MOL0     H83254   0.793   9.206   3.525 -0.0577 -2.4567  1.5266
  617MOL0     H83255   0.763   9.175   3.171 -0.9350 -2.6804 -0.7668
  617MOL0     H83256   0.710   9.146   2.893  2.8559 -0.1127 -0.1197
  617MOL0     H83257   0.647   9.284   2.822 -2.1567 -2.4505 -0.1130
  617MOL0     H83258   0.784   9.306   2.932  0.0008  0.2627 -0.9318
  617MOL0     H83259   0.605   9.623   2.718  0.5027  1.8357 -0.5969
  617MOL0     H83260   0.574   9.677   2.495 -1.1449  1.1141 -0.9844
  617MOL0     H83261   0.458   9.799   2.326 -0.2279  0.3123 -0.5727
  617MOL0     H83262   0.500   9.666   2.202 -0.4818 -0.8066  0.0233
  617MOL0     H83263   0.256   9.691   2.120 -2.7957  1.7582 -0.2682
  617MOL0     H83264   0.255   9.841   2.202  1.8630  0.6303  3.0073
  617MOL0     H83265   0.478   9.754   1.997  0.7504  3.0233 -1.8722
  617MOL0     H83266   0.459   9.917   2.060  0.8591 -0.0924  2.3881
  617MOL0     H83267   0.379   9.904   1.826  0.1355 -0.6929 -0.3937
  617MOL0     H83268   0.274   9.765   1.878 -2.6502  0.9234 -0.5360
  617MOL0     H83269   0.255  10.040   2.013  2.5539 -0.2029 -0.2621
  617MOL0     H83270   0.140   9.899   2.007 -0.6002 -0.6695 -1.6940
  617MOL0     H83271   0.216  10.060   1.761 -3.0185  0.1556 -3.9946
  617MOL0     H83272   0.083   9.948   1.791 -0.6793 -0.6673  0.2054
  617MOL0     H83273   0.078  10.155   1.997  4.5332  1.9763 -1.5222
  617MOL0     H83274  -0.054  10.072   1.925 -0.1778  1.8836  1.1152
  617MOL0     H83275  -0.046  10.313   1.861  1.4988  1.6560 -1.0853
  617MOL0     H83276  -0.048  10.204   1.713  2.6939  0.8330 -1.8100
  617MOL0     H83277   0.203   9.465   2.476  0.7371 -0.2151 -0.3056
  617MOL0     H83278   0.222   9.422   2.712  2.5595 -1.0168  0.4008
  617MOL0     H83279   0.291   9.302   3.166 -0.9743 -2.9206 -3.2091
  617MOL0     H83280   0.390   9.211   3.369  0.2053  0.8430  0.1196
  617MOL0     H83281   1.424   9.216   4.571 -3.9586 -1.9879  0.5378
  617MOL0     H83282   1.579   9.295   4.766  1.7143  2.9364  2.3569
  617MOL0     H83283   1.758   9.882   4.894 -2.9427 -1.6411 -1.2868
  617MOL0     H83284   1.891   9.958   5.061  1.7779 -0.8689 -0.0909
  617MOL0     H83285   1.952   9.891   5.507 -3.9756 -0.2686  1.2668
  617MOL0     H83286   1.849   9.758   5.475 -0.2562  0.4404 -2.9344
  617MOL0     H83287   2.051   9.620   5.364 -1.8871 -0.1008  0.6580
  617MOL0     H83288   2.044   9.638   5.536  1.2397 -0.6929 -0.4084
  617MOL0     H83289   2.215   9.796   5.553  0.0201 -3.1336  1.5574
  617MOL0     H83290   2.199   9.852   5.390  0.6564  0.7005  1.5404
  617MOL0     H83291   2.303   9.576   5.461  2.1917 -2.6156 -1.8670
  617MOL0     H83292   2.411   9.716   5.412 -1.1642  1.0500  0.5570
  617MOL0     H83293   2.241   9.537   5.053 -0.9414  0.4616  0.6770
  617MOL0     H83294   1.788   9.602   5.287  3.1287  1.1786  1.0767
  617MOL0     H83295   1.687   9.513   5.096 -0.4094 -0.3241  2.5098
  618MOL0     O83296   4.196  10.344   8.366  0.3387  0.3841  0.5955
  618MOL0     C83297   4.089  10.285   8.397  0.8859 -0.7491  0.8033
  618MOL0     O83298   4.077  10.180   8.467  0.4162 -0.3797  0.2686
  618MOL0     C83299   4.193  10.118   8.513  0.2348  0.5222  0.0804
  618MOL0     C83300   4.264  10.031   8.420  1.0981 -1.3761 -1.2031
  618MOL0     C83301   4.374   9.963   8.471  0.4294 -0.2271  0.2885
  618MOL0     C83302   4.416   9.969   8.605  0.7943  0.2294  0.4988
  618MOL0     O83303   4.518   9.887   8.641  0.4586  0.3140  0.6330
  618MOL0     C83304   4.555   9.885   8.779  0.2164  0.1487  0.7860
  618MOL0     C83305   4.686   9.805   8.806  0.0902 -0.1551  0.4361
  618MOL0     C83306   4.804   9.850   8.725  0.1324 -0.2533 -0.1871
  618MOL0     C83307   4.925   9.759   8.727 -0.7934  1.1988  0.1844
  618MOL0     C83308   5.029   9.780   8.620  0.6783  0.0899 -0.0628
  618MOL0     C83309   5.090   9.643   8.577 -0.5217  0.6926 -0.9368
  618MOL0     C83310   5.193   9.668   8.467  0.0991  0.8787 -0.4622
  618MOL0     C83311   5.288   9.548   8.442 -0.3352  0.5386 -0.5603
  618MOL0     N83312   5.396   9.542   8.544  0.4665  0.4851  0.9849
  618MOL0     C83313   5.521   9.590   8.524  0.8505 -0.6143  0.5311
  618MOL0     C83314   5.591   9.526   8.619  0.7047  0.6333 -0.9650
  618MOL0     C83315   5.746   9.538   8.622  0.2152  0.3424 -0.9697
  618MOL0     C83316   5.826   9.438   8.721 -0.3332  0.3835  0.3364
  618MOL0     C83317   5.813   9.293   8.683 -0.0868 -0.0511 -0.2666
  618MOL0     C83318   5.837   9.264   8.536 -0.6493  0.0887  0.5921
  618MOL0     O83319   5.833   9.125   8.516  0.6726  0.9060  0.6395
  618MOL0     C83320   5.837   9.076   8.389 -1.0753  0.2995  0.6497
  618MOL0     C83321   5.860   8.938   8.390 -1.0334 -0.4171 -0.4394
  618MOL0     C83322   5.842   8.854   8.274 -0.0162  0.1566  0.8717
  618MOL0     C83323   5.872   8.709   8.275 -0.6769 -0.8221 -0.5627
  618MOL0     C83324   5.793   8.921   8.154 -1.1113 -0.0101  0.0326
  618MOL0     C83325   5.769   8.855   8.027 -0.1883  0.7908 -0.3108
  618MOL0     O83326   5.670   8.919   7.951  0.6255  0.7995  0.3963
  618MOL0     C83327   5.636   8.879   7.823 -0.4781  0.0524  0.2461
  618MOL0     C83328   5.701   8.926   7.708  0.3722  0.5416  1.0060
  618MOL0     C83329   5.657   8.873   7.587 -1.3591  0.7919 -0.2159
  618MOL0     C83330   5.543   8.792   7.573 -0.9521 -0.2361 -0.0094
  618MOL0     O83331   5.505   8.756   7.439 -0.5492  0.3329 -0.5450
  618MOL0     C83332   5.458   8.623   7.413 -0.1180 -0.8608 -0.6183
  618MOL0     C83333   5.339   8.617   7.323  0.1088  0.7337  0.4301
  618MOL0     C83334   5.254   8.486   7.349 -0.6754 -0.7253 -0.8994
  618MOL0     C83335   5.128   8.487   7.264  0.8320 -0.2038 -0.2341
  618MOL0     C83336   5.052   8.361   7.282 -0.2998  0.3524 -1.0535
  618MOL0     C83337   5.093   8.246   7.184 -1.0855  0.7003 -0.2232
  618MOL0     C83338   5.060   8.299   7.042 -0.1216 -0.0183 -0.2745
  618MOL0     C83339   4.991   8.179   6.969 -0.5681 -0.4198 -0.0375
  618MOL0    Cl83340   5.037   8.222   6.791  0.1242  0.1179  0.2130
  618MOL0     C83341   5.474   8.759   7.682  0.0494  0.5107 -0.1219
  618MOL0     C83342   5.518   8.793   7.812 -1.5988 -0.6787  0.4631
  618MOL0     O83343   5.826   8.753   7.991  0.4152  0.1691  0.3115
  618MOL0     C83344   5.785   9.057   8.151 -0.6342  1.3268  0.6027
  618MOL0     C83345   5.802   9.130   8.269  0.0089  0.8914  0.1930
  618MOL0     N83346   5.520   9.430   8.687  0.5206  0.5030 -0.0343
  618MOL0     N83347   5.398   9.451   8.649  0.3424 -0.5030  0.2889
  618MOL0     C83348   4.342  10.048   8.691 -0.6029  1.1420 -0.9908
  618MOL0     C83349   4.232  10.122   8.652  0.3089 -0.9473  0.2148
  618MOL0     C83350   3.971  10.354   8.329 -0.0699  0.3777  0.0321
  618MOL0     C83351   3.974  10.460   8.243  0.0906  0.0276  0.7402
  618MOL0     C83352   3.856  10.501   8.184 -0.9911 -0.3345 -0.2143
  618MOL0     C83353   3.734  10.445   8.214  0.1786  0.2360  0.2886
  618MOL0     O83354   3.621  10.502   8.151 -0.1306  0.5978 -0.3386
  618MOL0     C83355   3.493  10.445   8.170  0.3593  0.5128  0.3869
  618MOL0     C83356   3.381  10.530   8.114 -0.1840 -1.2671 -0.1757
  618MOL0     C83357   3.408  10.675   8.172  0.5658  0.1030  0.3666
  618MOL0     C83358   3.289  10.762   8.146 -0.0267  0.1005  0.4116
  618MOL0     C83359   3.173  10.712   8.220 -0.1239  0.5836 -0.2566
  618MOL0     C83360   3.075  10.683   8.287  0.2391  0.0220 -0.0439
  618MOL0     C83361   3.732  10.335   8.298  0.4155 -0.1825 -0.8848
  618MOL0     C83362   3.851  10.291   8.355 -0.4543  0.3298  0.2461
  618MOL0     H83363   4.228  10.007   8.321  0.9328 -2.6530 -0.8417
  618MOL0     H83364   4.437   9.925   8.391  0.1496  2.1196 -1.1563
  618MOL0     H83365   4.561   9.992   8.802 -2.6538  2.1648 -5.6264
  618MOL0     H83366   4.477   9.837   8.839  3.1920 -1.6823  3.5056
  618MOL0     H83367   4.704   9.816   8.913 -0.4811 -0.8474  0.6116
  618MOL0     H83368   4.658   9.701   8.788 -1.4778  0.1653  0.8631
  618MOL0     H83369   4.768   9.866   8.623 -1.9680  0.1400  0.5738
  618MOL0     H83370   4.837   9.948   8.761  0.1601 -1.0482  2.1067
  618MOL0     H83371   4.972   9.745   8.825  0.7682  0.2693 -0.6593
  618MOL0     H83372   4.888   9.656   8.717  2.6466 -0.3981  2.2109
  618MOL0     H83373   4.979   9.811   8.527  0.5181  0.3431  0.1087
  618MOL0     H83374   5.107   9.851   8.650 -2.3430  2.8392  1.8906
  618MOL0     H83375   5.145   9.604   8.663 -1.4807  0.2829 -0.4946
  618MOL0     H83376   5.020   9.566   8.543 -0.1462 -0.5464  0.9469
  618MOL0     H83377   5.143   9.675   8.370  3.0711 -0.3368 -2.2245
  618MOL0     H83378   5.250   9.759   8.484  1.1671  0.0571  0.4486
  618MOL0     H83379   5.340   9.560   8.347 -0.5813  2.0333 -0.5191
  618MOL0     H83380   5.231   9.455   8.451  0.7851 -0.0364  1.0740
  618MOL0     H83381   5.549   9.652   8.440  0.5801 -0.3101  0.6669
  618MOL0     H83382   5.786   9.528   8.521  5.0429 -0.3195  0.7495
  618MOL0     H83383   5.770   9.638   8.660 -0.6760  0.5011 -0.8144
  618MOL0     H83384   5.794   9.451   8.824 -0.0355 -0.0777  0.4908
  618MOL0     H83385   5.932   9.463   8.712  0.1348 -0.7710  2.0804
  618MOL0     H83386   5.711   9.268   8.712 -0.8068  2.6694 -0.1627
  618MOL0     H83387   5.881   9.236   8.747  0.0204 -2.3439 -2.2803
  618MOL0     H83388   5.938   9.302   8.518 -1.1673  0.8335 -0.8767
  618MOL0     H83389   5.776   9.322   8.466  1.1245 -1.1235 -2.0937
  618MOL0     H83390   5.893   8.894   8.484 -1.6110 -0.1257 -0.0900
  618MOL0     H83391   5.962   8.700   8.214 -0.1960  0.4457 -0.0613
  618MOL0     H83392   5.883   8.668   8.376 -1.8104  2.2094  0.9166
  618MOL0     H83393   5.781   8.664   8.234 -0.6984  0.4052 -1.9251
  618MOL0     H83394   5.780   9.000   7.714 -1.3321  2.5882 -0.5274
  618MOL0     H83395   5.711   8.901   7.497 -2.3379 -2.2153 -1.8660
  618MOL0     H83396   5.534   8.564   7.362 -0.6820 -0.1813 -2.2957
  618MOL0     H83397   5.444   8.562   7.503 -0.5552 -1.6105 -1.1886
  618MOL0     H83398   5.278   8.707   7.305 -0.2099 -0.0304 -3.1376
  618MOL0     H83399   5.380   8.592   7.225 -2.5512 -2.1153 -0.1127
  618MOL0     H83400   5.231   8.482   7.456 -0.6612  2.4266 -0.6913
  618MOL0     H83401   5.311   8.396   7.325 -1.4470 -1.0840 -1.4218
  618MOL0     H83402   5.056   8.563   7.298  0.0361 -0.3653 -1.4845
  618MOL0     H83403   5.158   8.511   7.162  0.1175 -0.7073 -0.5653
  618MOL0     H83404   4.944   8.370   7.269 -1.0023 -6.0405 -2.7189
  618MOL0     H83405   5.076   8.325   7.383 -5.1147 -2.1156 -0.5207
  618MOL0     H83406   5.199   8.223   7.200 -1.5519 -1.8764 -0.5107
  618MOL0     H83407   5.027   8.166   7.220  0.5077 -1.5182 -1.9380
  618MOL0     H83408   5.146   8.334   6.984 -1.8867  3.1870 -1.1658
  618MOL0     H83409   4.988   8.380   7.039  1.4375  1.4008 -1.0369
  618MOL0     H83410   4.886   8.186   6.996 -0.3755  0.3555  0.5638
  618MOL0     H83411   5.032   8.081   6.995  3.7420  2.1911  5.1454
  618MOL0     H83412   5.387   8.697   7.663  1.2850 -1.1509 -0.5863
  618MOL0     H83413   5.464   8.745   7.893  1.1912 -1.0125  2.2868
  618MOL0     H83414   5.754   9.111   8.063  0.1209  1.5652  0.4788
  618MOL0     H83415   5.766   9.232   8.279  2.4071  1.9266 -0.7760
  618MOL0     H83416   4.372  10.042   8.794 -2.4444  2.0507 -0.3408
  618MOL0     H83417   4.181  10.175   8.733  2.5707  2.2139 -0.2362
  618MOL0     H83418   4.061  10.517   8.212  0.4755 -0.4989  0.8401
  618MOL0     H83419   3.869  10.589   8.122 -1.2460  0.8490  1.3387
  618MOL0     H83420   3.484  10.356   8.107  0.6038  1.2023 -0.6448
  618MOL0     H83421   3.483  10.427   8.278 -1.6669 -0.7146  0.0559
  618MOL0     H83422   3.290  10.490   8.158  1.1826 -2.9878  1.2541
  618MOL0     H83423   3.381  10.520   8.006  2.1865 -0.5747 -0.3025
  618MOL0     H83424   3.490  10.718   8.114 -0.6159  0.9289 -0.7367
  618MOL0     H83425   3.435  10.676   8.278 -0.3438  0.2544  0.6039
  618MOL0     H83426   3.270  10.761   8.038 -1.5356  1.2882  0.6348
  618MOL0     H83427   3.309  10.863   8.183 -2.4487  1.1535 -0.8687
  618MOL0     H83428   2.981  10.680   8.337  0.6039  0.0623  0.6520
  618MOL0     H83429   3.641  10.285   8.331 -1.0316  3.2622  0.8025
  618MOL0     H83430   3.837  10.194   8.403 -2.3720  0.6403  0.4045
  619MOL0     O83431   8.941   2.510   5.295  0.2258  0.3267  0.0285
  619MOL0     C83432   8.985   2.542   5.189  0.1816 -0.7237  0.9263
  619MOL0     O83433   9.115   2.523   5.152 -0.0137  0.2655 -0.6335
  619MOL0     C83434   9.201   2.445   5.228  0.0917 -0.8960  1.0269
  619MOL0     C83435   9.333   2.508   5.221 -0.0313 -0.6724  0.2533
  619MOL0     C83436   9.436   2.462   5.308  0.3235  0.5229  1.0370
  619MOL0     C83437   9.405   2.356   5.400 -0.8432 -0.7198 -0.4626
  619MOL0     O83438   9.496   2.304   5.490 -0.2155 -0.0168  0.4097
  619MOL0     C83439   9.593   2.387   5.549 -0.5247  0.3661  0.4802
  619MOL0     C83440   9.663   2.307   5.659 -0.1269  0.5172 -0.9245
  619MOL0     C83441   9.566   2.288   5.770  0.2429  0.4473 -0.6876
  619MOL0     C83442   9.611   2.381   5.895  0.1408 -0.3666 -0.3871
  619MOL0     C83443   9.531   2.355   6.028  0.2253  0.6617  0.5498
  619MOL0     C83444   9.614   2.404   6.140 -0.6647  0.0669 -0.3965
  619MOL0     C83445   9.535   2.398   6.267 -0.1323  0.2268  0.6381
  619MOL0     C83446   9.626   2.437   6.392  1.0367 -0.2077 -0.5991
  619MOL0     N83447   9.633   2.588   6.409 -0.3039  0.4633 -0.3176
  619MOL0     C83448   9.636   2.646   6.536 -0.0321  0.3810  0.2331
  619MOL0     C83449   9.657   2.778   6.506 -0.4055  0.1227 -0.0979
  619MOL0     C83450   9.684   2.884   6.610 -0.1804  0.5619  1.1434
  619MOL0     C83451   9.769   2.823   6.732  0.2702 -0.1276  0.3454
  619MOL0     C83452   9.914   2.795   6.691  0.2077 -0.2169  0.3088
  619MOL0     C83453   9.991   2.738   6.805  0.7139  0.2047  0.6979
  619MOL0     O83454  10.122   2.787   6.814  0.1047  0.4892 -0.3425
  619MOL0     C83455  10.149   2.910   6.868  0.3319  1.0478  0.8051
  619MOL0     C83456  10.272   2.954   6.811  0.6857 -0.2776 -0.8255
  619MOL0     C83457  10.324   3.078   6.863 -0.5365  0.5825  0.4491
  619MOL0     C83458  10.458   3.106   6.808 -0.1287  0.2049  0.4389
  619MOL0     C83459  10.258   3.163   6.959 -1.0062  0.0098  0.5449
  619MOL0     C83460  10.311   3.291   7.003  0.4320 -0.3764 -0.6987
  619MOL0     O83461  10.380   3.369   6.915 -0.0720 -0.2701  0.2836
  619MOL0     C83462  10.428   3.489   6.961 -0.1286  0.5210  0.2752
  619MOL0     C83463  10.363   3.608   6.934  0.0283 -1.6170 -1.3122
  619MOL0     C83464  10.400   3.720   7.008  0.3440 -0.2225  0.4873
  619MOL0     C83465  10.512   3.725   7.082  0.0220 -0.5979  0.1107
  619MOL0     O83466  10.547   3.835   7.156  0.1273  0.1595  0.6285
  619MOL0     C83467  10.470   3.837   7.274  0.0837  0.6382  0.0857
  619MOL0     C83468  10.557   3.895   7.378 -0.5416 -0.9539  0.6165
  619MOL0     C83469  10.507   3.896   7.528 -0.1431 -0.1249  0.5449
  619MOL0     C83470  10.621   3.878   7.633  0.6837  0.0763 -0.4619
  619MOL0     C83471  10.588   3.931   7.774 -0.4103 -0.3191 -0.6042
  619MOL0     C83472  10.475   3.866   7.833  0.8574  0.4720 -0.2416
  619MOL0     C83473  10.441   3.923   7.971 -0.7165  0.5042 -0.9455
  619MOL0     C83474  10.303   3.928   8.011  0.1318 -0.3850  0.0314
  619MOL0    Cl83475  10.279   3.960   8.184  0.1326 -0.4974  0.0149
  619MOL0     C83476  10.591   3.609   7.088 -0.4441  0.3755 -0.3119
  619MOL0     C83477  10.551   3.488   7.033 -0.9707 -0.0325  0.1463
  619MOL0     O83478  10.312   3.311   7.127 -0.5698 -1.0537  0.0769
  619MOL0     C83479  10.134   3.112   7.000  1.2311  0.7377  0.4160
  619MOL0     C83480  10.084   2.981   6.970 -1.1244 -0.4785 -0.3011
  619MOL0     N83481   9.666   2.798   6.367 -0.6060  0.1537 -0.3143
  619MOL0     N83482   9.664   2.684   6.315 -0.3372  0.3478 -0.4811
  619MOL0     C83483   9.284   2.292   5.401 -0.2431  0.3433  0.0237
  619MOL0     C83484   9.174   2.338   5.314 -0.3800  0.3215  0.5332
  619MOL0     C83485   8.897   2.592   5.079  0.7372 -0.4753  0.2892
  619MOL0     C83486   8.957   2.623   4.949 -0.4539  0.4768 -0.6840
  619MOL0     C83487   8.878   2.668   4.848 -0.0576 -0.5453 -0.3871
  619MOL0     C83488   8.745   2.693   4.870  0.2361 -0.2242 -1.0382
  619MOL0     O83489   8.670   2.735   4.765 -0.1102 -0.2128  0.5379
  619MOL0     C83490   8.569   2.653   4.712  0.3125  0.0662 -0.8872
  619MOL0     C83491   8.519   2.701   4.576 -0.1676 -0.2308 -0.3075
  619MOL0     C83492   8.617   2.729   4.465  0.1224  0.7397 -0.9505
  619MOL0     C83493   8.557   2.802   4.344  0.0205 -0.8284  0.1110
  619MOL0     C83494   8.477   2.713   4.258 -0.4824  0.8498 -0.0201
  619MOL0     C83495   8.400   2.634   4.201 -0.2866 -0.1786 -0.1764
  619MOL0     C83496   8.682   2.661   4.993 -0.1627 -0.2864 -0.2352
  619MOL0     C83497   8.760   2.617   5.100  0.0537 -0.5200  0.1347
  619MOL0     H83498   9.353   2.576   5.139 -1.9593  0.3497  0.5717
  619MOL0     H83499   9.541   2.471   5.284  0.3321 -1.2491  0.2560
  619MOL0     H83500   9.671   2.408   5.475  0.2602  0.2992  1.2643
  619MOL0     H83501   9.555   2.480   5.590  1.3104  1.6952 -0.6678
  619MOL0     H83502   9.694   2.206   5.628  0.9899  0.9696 -1.3372
  619MOL0     H83503   9.753   2.354   5.699 -1.1818 -1.4317  4.6241
  619MOL0     H83504   9.467   2.305   5.728  0.2433  0.3321 -0.7353
  619MOL0     H83505   9.561   2.185   5.807 -2.9313  1.9889  4.0640
  619MOL0     H83506   9.716   2.373   5.925  0.1228 -1.8681 -0.6428
  619MOL0     H83507   9.603   2.487   5.871  0.8121  0.3206  2.0639
  619MOL0     H83508   9.429   2.393   6.025 -0.6760 -1.4536  1.8180
  619MOL0     H83509   9.534   2.246   6.043  1.1929  0.0224 -3.2461
  619MOL0     H83510   9.705   2.344   6.147  0.2718  1.3091 -1.4289
  619MOL0     H83511   9.656   2.503   6.121  0.6232 -0.1854  0.9666
  619MOL0     H83512   9.452   2.469   6.267 -1.5414 -1.3546  1.0622
  619MOL0     H83513   9.491   2.302   6.297 -0.3920  0.5613  1.3754
  619MOL0     H83514   9.725   2.395   6.374  1.5890  1.0601 -0.6004
  619MOL0     H83515   9.590   2.399   6.488  0.6324 -1.2875 -1.1609
  619MOL0     H83516   9.611   2.601   6.631 -1.7316  0.2243 -0.2541
  619MOL0     H83517   9.742   2.968   6.570  2.4231 -0.1655  3.1264
  619MOL0     H83518   9.591   2.936   6.635 -0.8810  1.4225 -2.5587
  619MOL0     H83519   9.730   2.729   6.772  1.2503 -0.1978  1.1887
  619MOL0     H83520   9.773   2.899   6.811 -0.3776 -0.8391  1.0818
  619MOL0     H83521   9.961   2.887   6.657  0.4667  0.1980  1.7345
  619MOL0     H83522   9.909   2.721   6.610  0.5312 -2.4264  2.2128
  619MOL0     H83523   9.996   2.629   6.791  2.4739  0.4691 -1.2134
  619MOL0     H83524   9.935   2.763   6.896 -0.1233  2.3127 -0.3367
  619MOL0     H83525  10.309   2.879   6.742 -2.2128 -0.2831 -2.5497
  619MOL0     H83526  10.478   3.059   6.711 -0.5618 -0.8058  0.8253
  619MOL0     H83527  10.481   3.212   6.796 -2.8209  0.8795  0.4740
  619MOL0     H83528  10.530   3.069   6.882 -0.8763 -0.0895  1.0360
  619MOL0     H83529  10.286   3.614   6.858  0.3501 -1.5786 -1.6426
  619MOL0     H83530  10.341   3.811   7.006  0.3212 -0.2060 -2.2397
  619MOL0     H83531  10.382   3.901   7.258 -0.8069 -0.6681 -0.3526
  619MOL0     H83532  10.441   3.736   7.303 -1.7931  1.0310 -0.2878
  619MOL0     H83533  10.647   3.835   7.366 -0.4591 -0.9769  1.3359
  619MOL0     H83534  10.572   3.995   7.336  0.4084 -1.4986 -0.3864
  619MOL0     H83535  10.433   3.818   7.547 -1.3917  0.8852  0.0513
  619MOL0     H83536  10.452   3.988   7.548 -0.0615 -0.5467  3.0458
  619MOL0     H83537  10.641   3.771   7.642 -1.9989 -0.5322 -0.7902
  619MOL0     H83538  10.711   3.922   7.590  0.1838 -0.6726 -2.3596
  619MOL0     H83539  10.571   4.039   7.767  2.8146  0.2587 -0.7913
  619MOL0     H83540  10.670   3.918   7.846 -0.0239 -0.0002 -0.9813
  619MOL0     H83541  10.393   3.883   7.763  1.7967  2.2400 -0.9899
  619MOL0     H83542  10.487   3.757   7.838 -3.4092 -0.2693 -1.7727
  619MOL0     H83543  10.499   4.014   7.982 -1.2455  0.8938 -1.3447
  619MOL0     H83544  10.478   3.846   8.039  1.2450  3.1337  1.1555
  619MOL0     H83545  10.242   3.843   7.981 -1.0170  0.8126 -1.1649
  619MOL0     H83546  10.261   4.012   7.955  0.2901 -0.6677 -0.5206
  619MOL0     H83547  10.682   3.615   7.147 -0.4475 -0.9771 -0.1417
  619MOL0     H83548  10.623   3.408   7.041 -1.6631 -0.5066  1.8920
  619MOL0     H83549  10.059   3.173   7.050  0.3103  1.0806 -1.2851
  619MOL0     H83550   9.990   2.949   7.014 -2.0635 -1.0481 -2.6007
  619MOL0     H83551   9.272   2.215   5.477  0.3371  3.4001  3.4761
  619MOL0     H83552   9.076   2.301   5.345  0.3033 -1.8602  0.2605
  619MOL0     H83553   9.062   2.613   4.923 -0.2217  1.0797 -0.0366
  619MOL0     H83554   8.922   2.678   4.749  0.0546 -2.3895 -0.5534
  619MOL0     H83555   8.605   2.550   4.709  1.1851  0.2781  0.9893
  619MOL0     H83556   8.487   2.641   4.782  0.8665 -0.4506 -0.3137
  619MOL0     H83557   8.454   2.785   4.601 -1.0572 -1.1995  0.7722
  619MOL0     H83558   8.450   2.625   4.540 -0.1108 -0.1786 -0.5281
  619MOL0     H83559   8.666   2.638   4.430 -1.2139  0.1181 -1.2502
  619MOL0     H83560   8.705   2.784   4.500  0.1698  0.4704 -0.6384
  619MOL0     H83561   8.644   2.848   4.297 -2.3669  2.1351 -1.7696
  619MOL0     H83562   8.499   2.888   4.379  1.0479 -0.2426  0.4224
  619MOL0     H83563   8.349   2.555   4.149  2.8203 -1.1005 -2.1057
  619MOL0     H83564   8.575   2.671   5.007 -0.3304 -1.7853 -0.2668
  619MOL0     H83565   8.721   2.599   5.200  1.5448  1.2387  1.0795
  620MOL0     O83566  10.468   8.679   9.676 -0.0084  0.4636  0.3950
  620MOL0     C83567  10.401   8.749   9.599  0.5823 -0.4560 -0.5603
  620MOL0     O83568  10.268   8.770   9.599  0.5872  0.2164 -0.4184
  620MOL0     C83569  10.191   8.697   9.684  0.1600 -0.1060  0.4244
  620MOL0     C83570  10.106   8.756   9.780  0.4809 -0.7319 -0.1061
  620MOL0     C83571  10.014   8.674   9.852  0.2220 -0.6502 -0.4312
  620MOL0     C83572  10.004   8.539   9.823  0.2050  0.7872  0.4334
  620MOL0     O83573   9.924   8.470   9.913 -0.4116  0.1820  0.2916
  620MOL0     C83574   9.884   8.330   9.880 -0.2226 -0.1292  0.0916
  620MOL0     C83575   9.852   8.257  10.025 -0.0194  0.2945  0.0378
  620MOL0     C83576   9.959   8.263  10.122  0.2317 -0.3527  0.0999
  620MOL0     C83577  10.065   8.160  10.088 -0.1113 -0.4660  1.0355
  620MOL0     C83578  10.183   8.210  10.001  0.7777  0.2428  0.8215
  620MOL0     C83579  10.263   8.317  10.072 -0.1486  0.2104 -0.4600
  620MOL0     C83580  10.382   8.356   9.985  0.1560 -0.1522 -0.6673
  620MOL0     C83581  10.494   8.438  10.063 -0.3612  0.8094  0.6631
  620MOL0     N83582  10.457   8.577  10.110 -1.3358 -0.3443 -0.2897
  620MOL0     C83583  10.446   8.698  10.042  0.6895  0.4396 -0.0350
  620MOL0     C83584  10.451   8.798  10.129 -0.6491  0.0147 -0.5479
  620MOL0     C83585  10.420   8.944  10.109  0.2884 -0.7673 -0.2437
  620MOL0     C83586  10.532   9.008  10.020  0.6992 -0.1862 -0.8767
  620MOL0     C83587  10.498   9.161  10.012 -0.0026 -0.4153  0.8753
  620MOL0     C83588  10.360   9.203   9.939 -0.9187 -0.2241  0.1912
  620MOL0     O83589  10.358   9.125   9.823 -0.7691 -0.1292  1.6155
  620MOL0     C83590  10.262   9.182   9.735 -0.6107  0.3208  0.5552
  620MOL0     C83591  10.127   9.183   9.753 -0.1364 -0.2870 -0.0154
  620MOL0     C83592  10.034   9.220   9.653  0.2629  0.1212 -0.0321
  620MOL0     C83593   9.886   9.218   9.697  1.2520 -0.5972  0.9887
  620MOL0     C83594  10.083   9.265   9.526  0.1988 -0.2031  0.1308
  620MOL0     C83595  10.002   9.294   9.410  0.1025  0.8927 -0.7411
  620MOL0     O83596  10.056   9.298   9.285  0.8577 -0.0535 -0.0634
  620MOL0     C83597   9.976   9.298   9.176  0.2679 -0.6071 -0.1900
  620MOL0     C83598   9.854   9.220   9.164 -0.0656  0.7504 -1.5277
  620MOL0     C83599   9.777   9.213   9.046  0.1150  0.0154 -0.3592
  620MOL0     C83600   9.817   9.292   8.941 -0.1400  0.0694  0.6951
  620MOL0     O83601   9.744   9.295   8.823 -0.4307 -0.6516  1.0658
  620MOL0     C83602   9.699   9.172   8.760 -0.2298  0.2051 -0.7129
  620MOL0     C83603   9.552   9.153   8.798 -0.0697 -1.4964 -1.0965
  620MOL0     C83604   9.500   9.013   8.759 -0.3384  0.4007 -0.1957
  620MOL0     C83605   9.516   8.916   8.885  0.0103 -0.6895 -0.0047
  620MOL0     C83606   9.474   8.764   8.869 -0.5948 -0.5064  0.2993
  620MOL0     C83607   9.320   8.747   8.893  0.4734 -0.1830  0.6753
  620MOL0     C83608   9.274   8.602   8.939 -0.2051 -0.5228 -0.2370
  620MOL0     C83609   9.328   8.556   9.077 -0.1711 -0.2488 -0.3084
  620MOL0    Cl83610   9.283   8.385   9.086 -0.2563 -0.4045  0.3089
  620MOL0     C83611   9.931   9.372   8.945 -0.6580  0.9344 -0.3003
  620MOL0     C83612  10.000   9.384   9.064 -0.5830  0.7706  0.5952
  620MOL0     O83613   9.890   9.323   9.429 -0.2146 -0.3957 -0.1675
  620MOL0     C83614  10.226   9.259   9.505 -0.5759 -0.1003 -0.2404
  620MOL0     C83615  10.310   9.231   9.612 -0.3849  0.0127  0.0822
  620MOL0     N83616  10.482   8.749  10.245 -0.1344 -0.7465 -0.6956
  620MOL0     N83617  10.487   8.621  10.240 -0.7746 -0.0600  1.1762
  620MOL0     C83618  10.090   8.479   9.726  0.3482 -1.4396 -1.8526
  620MOL0     C83619  10.177   8.562   9.660  0.2224 -0.5592 -0.0206
  620MOL0     C83620  10.474   8.802   9.484 -0.1071  0.3877 -0.2121
  620MOL0     C83621  10.420   8.893   9.398 -0.3000 -0.8042 -0.0472
  620MOL0     C83622  10.477   8.922   9.274 -0.1312 -0.2226 -0.3110
  620MOL0     C83623  10.600   8.870   9.238 -0.8263  0.3062  0.1551
  620MOL0     O83624  10.666   8.923   9.130 -0.2154  0.1121 -0.3721
  620MOL0     C83625  10.791   8.984   9.162 -0.6347 -0.0178  0.2619
  620MOL0     C83626  10.771   9.130   9.213  0.5078  0.4587  0.5560
  620MOL0     C83627  10.744   9.134   9.363  0.2831  1.0793  0.4639
  620MOL0     C83628  10.782   9.262   9.435  0.7179  0.8382  0.7464
  620MOL0     C83629  10.747   9.269   9.578  0.0942  0.2366  0.9250
  620MOL0     C83630  10.732   9.271   9.691  0.5128 -0.1746  0.2325
  620MOL0     C83631  10.664   8.783   9.333 -0.6736 -0.4522 -0.2393
  620MOL0     C83632  10.605   8.753   9.453 -0.5438  0.2633 -0.4860
  620MOL0     H83633  10.102   8.864   9.788 -1.6906 -0.4886 -3.0733
  620MOL0     H83634   9.947   8.709   9.930 -0.6866 -1.0097 -1.0297
  620MOL0     H83635   9.787   8.346   9.834  0.2206 -0.9954 -1.2106
  620MOL0     H83636   9.955   8.272   9.819  0.0221 -1.5930  1.6601
  620MOL0     H83637   9.763   8.305  10.068 -0.7209 -1.3400  0.4938
  620MOL0     H83638   9.825   8.153  10.005  3.1037 -0.4350 -0.9768
  620MOL0     H83639   9.990   8.365  10.149 -3.8794  0.3995  2.9285
  620MOL0     H83640   9.914   8.228  10.216  4.0954 -1.8350  1.6130
  620MOL0     H83641  10.097   8.113  10.181 -1.1811 -3.2070  0.1272
  620MOL0     H83642  10.019   8.077  10.033  0.9891 -2.6884  3.2349
  620MOL0     H83643  10.256   8.135   9.970  1.6685  1.8525 -1.1946
  620MOL0     H83644  10.166   8.251   9.901  4.2844  1.2880  0.5323
  620MOL0     H83645  10.198   8.405  10.071 -0.9280 -0.3560 -0.7038
  620MOL0     H83646  10.299   8.284  10.170 -2.0469  1.5147  0.7376
  620MOL0     H83647  10.414   8.255   9.958 -4.4532 -2.1754  0.4153
  620MOL0     H83648  10.345   8.401   9.893 -2.0348 -0.1665  0.1265
  620MOL0     H83649  10.582   8.448   9.998 -0.3457  0.0661  0.5637
  620MOL0     H83650  10.530   8.368  10.139  3.8452 -3.0975 -4.2002
  620MOL0     H83651  10.414   8.709   9.938  2.0853  0.0242 -0.5318
  620MOL0     H83652  10.327   8.945  10.052 -0.8949  3.4532  1.3185
  620MOL0     H83653  10.425   8.992  10.208 -0.4476  0.4466 -0.7778
  620MOL0     H83654  10.522   8.960   9.923  3.8036  1.5117 -2.1827
  620MOL0     H83655  10.632   8.988  10.059  1.7627  0.2752 -3.1831
  620MOL0     H83656  10.583   9.206   9.960  0.3466 -0.6538  1.2339
  620MOL0     H83657  10.497   9.203  10.113  4.2551  0.6610  0.6565
  620MOL0     H83658  10.349   9.310   9.918  0.7402  0.5291  2.6707
  620MOL0     H83659  10.274   9.175  10.000 -1.8502  0.9318 -0.5503
  620MOL0     H83660  10.074   9.145   9.840 -1.4406 -0.4134 -0.8349
  620MOL0     H83661   9.863   9.152   9.782 -0.5897  0.5301  1.4216
  620MOL0     H83662   9.866   9.323   9.723  5.2719  0.2918  1.1524
  620MOL0     H83663   9.821   9.189   9.614 -0.6255 -0.9371  2.5002
  620MOL0     H83664   9.827   9.148   9.241  0.5060  1.5576 -0.5539
  620MOL0     H83665   9.695   9.143   9.044 -0.9320  1.0997  1.7405
  620MOL0     H83666   9.717   9.175   8.652  1.6703 -3.4331 -0.6451
  620MOL0     H83667   9.758   9.087   8.794  0.3802  0.4626 -1.1157
  620MOL0     H83668   9.529   9.184   8.901  1.5435 -3.2560 -0.1402
  620MOL0     H83669   9.492   9.212   8.728 -3.1344 -2.9430  0.1268
  620MOL0     H83670   9.556   8.985   8.669  0.8781  3.6333 -0.5842
  620MOL0     H83671   9.392   9.012   8.742 -0.8385 -2.3250  2.4094
  620MOL0     H83672   9.621   8.928   8.913 -1.2361  1.3032  4.5904
  620MOL0     H83673   9.453   8.956   8.965 -0.0069  0.2159 -0.4554
  620MOL0     H83674   9.535   8.708   8.940  0.1069  0.4241  0.4448
  620MOL0     H83675   9.492   8.738   8.764  2.0579 -1.0053  0.8226
  620MOL0     H83676   9.290   8.812   8.976  0.0731 -0.2085  0.5538
  620MOL0     H83677   9.264   8.781   8.804 -3.0538 -1.4030  2.2262
  620MOL0     H83678   9.315   8.527   8.870  1.3862 -1.4438  1.6328
  620MOL0     H83679   9.165   8.594   8.936 -0.3478  0.9806 -2.6248
  620MOL0     H83680   9.282   8.615   9.158 -2.2884 -1.6139 -0.4225
  620MOL0     H83681   9.435   8.571   9.093 -0.5080 -0.8580  3.5142
  620MOL0     H83682   9.954   9.429   8.855  0.1424 -2.9096 -2.7738
  620MOL0     H83683  10.077   9.461   9.072  0.4950 -0.4013  2.3424
  620MOL0     H83684  10.263   9.275   9.404  0.2971 -3.3481 -0.5332
  620MOL0     H83685  10.417   9.226   9.596 -0.7395 -0.2458 -2.5517
  620MOL0     H83686  10.104   8.371   9.719  0.3592 -1.3750 -2.8885
  620MOL0     H83687  10.237   8.524   9.578 -1.0567 -0.9940 -0.7953
  620MOL0     H83688  10.323   8.937   9.421  0.3050 -0.4311  1.9840
  620MOL0     H83689  10.445   8.992   9.197  4.0951 -0.1140 -2.2268
  620MOL0     H83690  10.848   8.922   9.232  0.1270  2.7495  2.2488
  620MOL0     H83691  10.839   8.988   9.064 -0.8356  0.5580  0.1852
  620MOL0     H83692  10.699   9.182   9.148 -1.1993 -0.1702  1.8716
  620MOL0     H83693  10.871   9.173   9.203  1.1625 -0.8425  1.2878
  620MOL0     H83694  10.804   9.052   9.405  0.3528  0.5846 -0.5642
  620MOL0     H83695  10.639   9.116   9.386  1.0376 -0.5837  2.9662
  620MOL0     H83696  10.720   9.330   9.376  0.8838  1.1509  0.9332
  620MOL0     H83697  10.887   9.287   9.415 -0.0565  1.9405 -2.7758
  620MOL0     H83698  10.738   9.290   9.796  1.2598  0.9728  0.0020
  620MOL0     H83699  10.761   8.738   9.314  0.2372  1.4017 -0.1481
  620MOL0     H83700  10.655   8.684   9.520 -3.1482  0.1761  1.5154
  621MOL0     O83701   7.044  11.261   3.298  0.7594  0.4023  0.2064
  621MOL0     C83702   7.000  11.202   3.198 -0.9991  0.0896  0.1699
  621MOL0     O83703   6.907  11.097   3.199  0.3621 -0.4445 -0.4771
  621MOL0     C83704   6.847  11.040   3.309 -0.4425  0.6969  0.0741
  621MOL0     C83705   6.805  10.906   3.281  0.9008  0.7915  0.1086
  621MOL0     C83706   6.750  10.825   3.385  0.8168 -0.4721  0.0030
  621MOL0     C83707   6.723  10.876   3.514 -0.3409 -0.4660  1.6451
  621MOL0     O83708   6.650  10.813   3.603  0.0289 -0.4236  0.4778
  621MOL0     C83709   6.522  10.768   3.560 -0.4421 -0.1760  0.9231
  621MOL0     C83710   6.471  10.663   3.659  1.0408 -0.4045  0.8532
  621MOL0     C83711   6.422  10.725   3.789  0.4819 -0.9441  1.4492
  621MOL0     C83712   6.376  10.614   3.883 -0.3446 -0.7954 -0.1609
  621MOL0     C83713   6.297  10.679   4.001 -0.5563 -0.1851 -0.4465
  621MOL0     C83714   6.256  10.578   4.105  0.3349 -0.0127 -0.6505
  621MOL0     C83715   6.173  10.639   4.220 -0.1686  1.1516  0.5920
  621MOL0     C83716   6.267  10.675   4.337 -0.6737  0.3404  0.5122
  621MOL0     N83717   6.270  10.561   4.421  0.3937  0.1071 -0.5915
  621MOL0     C83718   6.360  10.461   4.422 -0.4280  1.3973  0.3168
  621MOL0     C83719   6.343  10.416   4.548  0.2639 -0.7011 -0.4682
  621MOL0     C83720   6.410  10.290   4.595  0.2789  0.4894  0.1890
  621MOL0     C83721   6.309  10.191   4.646 -0.2932  0.2994  0.8607
  621MOL0     C83722   6.377  10.053   4.638  0.0206  0.3895  0.3309
  621MOL0     C83723   6.277   9.947   4.690  0.3459  0.6073  0.1454
  621MOL0     O83724   6.214   9.973   4.812  0.1927 -0.3472 -0.4030
  621MOL0     C83725   6.162   9.880   4.896  0.0066 -0.4686  0.1544
  621MOL0     C83726   6.125   9.920   5.025  0.8732 -0.0940  1.5534
  621MOL0     C83727   6.085   9.833   5.121  0.3013 -0.6616 -0.1909
  621MOL0     C83728   6.034   9.905   5.240 -0.5759  0.0019 -0.1811
  621MOL0     C83729   6.085   9.695   5.098 -0.9183 -0.7261  0.5135
  621MOL0     C83730   6.028   9.591   5.185 -0.6787 -0.3976 -0.3555
  621MOL0     O83731   6.083   9.466   5.189 -0.0219  0.5031 -0.3632
  621MOL0     C83732   6.030   9.380   5.280  0.8568  1.2881  0.6842
  621MOL0     C83733   6.075   9.376   5.409  0.8484  0.4629 -0.8286
  621MOL0     C83734   6.022   9.273   5.495  0.4692 -0.2936 -0.8330
  621MOL0     C83735   5.906   9.193   5.460  0.0972 -1.3167  0.8839
  621MOL0     O83736   5.844   9.095   5.531  0.3307  0.3025 -0.1777
  621MOL0     C83737   5.858   9.081   5.670 -0.2257  0.2421 -0.5391
  621MOL0     C83738   5.795   8.943   5.710  0.4639  0.6417 -0.2438
  621MOL0     C83739   5.774   8.915   5.858  0.6258  0.4386 -0.4451
  621MOL0     C83740   5.901   8.909   5.936 -0.0079 -0.2995 -0.2419
  621MOL0     C83741   5.863   8.878   6.087  0.2693  0.1913  0.5094
  621MOL0     C83742   5.998   8.894   6.170  0.6956  0.1087  0.1736
  621MOL0     C83743   6.051   9.033   6.202 -0.2955 -1.4293  0.5057
  621MOL0     C83744   6.139   9.030   6.330  0.0886 -0.8320  0.4757
  621MOL0    Cl83745   6.298   8.979   6.275  0.4910 -0.3362 -0.2787
  621MOL0     C83746   5.858   9.213   5.325 -1.0442  0.3912 -0.3823
  621MOL0     C83747   5.921   9.294   5.239 -0.4719 -0.8475  0.1149
  621MOL0     O83748   5.925   9.630   5.242  0.5807 -0.0923  0.3517
  621MOL0     C83749   6.133   9.654   4.968  0.0289 -0.0654 -0.8316
  621MOL0     C83750   6.173   9.746   4.870  1.9204 -0.1790 -0.5023
  621MOL0     N83751   6.237  10.474   4.608  0.7425  0.6890 -0.2508
  621MOL0     N83752   6.200  10.571   4.539  0.2847  0.0431  0.4570
  621MOL0     C83753   6.769  11.009   3.540 -0.8294  0.6779 -0.0572
  621MOL0     C83754   6.836  11.090   3.438  1.2512  0.0700 -0.5254
  621MOL0     C83755   7.045  11.251   3.063 -0.5520 -0.5490 -0.2613
  621MOL0     C83756   7.137  11.359   3.051  0.6799 -0.9062  0.3661
  621MOL0     C83757   7.168  11.413   2.928 -0.4428  1.1534 -0.7854
  621MOL0     C83758   7.128  11.349   2.809  0.2703 -0.6109  0.0996
  621MOL0     O83759   7.170  11.393   2.685 -0.0583 -0.0686  0.7125
  621MOL0     C83760   7.281  11.477   2.673 -0.2518 -0.4174 -0.6252
  621MOL0     C83761   7.330  11.481   2.528  0.1044 -0.1782 -1.1664
  621MOL0     C83762   7.218  11.536   2.435  0.6075 -0.6704  0.2272
  621MOL0     C83763   7.257  11.588   2.299  1.2581 -0.2509 -0.3433
  621MOL0     C83764   7.341  11.508   2.218 -0.3519  0.2512 -0.3055
  621MOL0     C83765   7.396  11.431   2.147  0.4956 -0.1955  0.5391
  621MOL0     C83766   7.044  11.239   2.823 -0.1882 -0.8841 -0.2422
  621MOL0     C83767   6.995  11.192   2.942 -0.9852 -1.2244  0.2599
  621MOL0     H83768   6.822  10.863   3.183 -1.0715 -0.9776  0.4795
  621MOL0     H83769   6.708  10.728   3.361 -2.5165  1.3738 -2.3581
  621MOL0     H83770   6.451  10.851   3.555 -1.8209 -1.1912  2.4622
  621MOL0     H83771   6.523  10.724   3.460  0.4709  1.3099  0.2419
  621MOL0     H83772   6.386  10.610   3.614  1.3655  0.7866 -1.2713
  621MOL0     H83773   6.553  10.593   3.678  0.7223 -1.1874 -0.5039
  621MOL0     H83774   6.509  10.766   3.841 -0.5434  1.4609  1.4222
  621MOL0     H83775   6.347  10.804   3.778  1.6991  0.2544  1.5713
  621MOL0     H83776   6.318  10.536   3.833 -0.4681  0.8363 -2.7507
  621MOL0     H83777   6.466  10.567   3.923 -0.2550  0.0446  0.6668
  621MOL0     H83778   6.354  10.750   4.061 -1.8369 -0.0069  0.5934
  621MOL0     H83779   6.210  10.726   3.954 -1.1168 -2.9837 -2.4481
  621MOL0     H83780   6.179  10.519   4.054 -1.1150  2.9446 -2.1618
  621MOL0     H83781   6.344  10.527   4.144  3.7427  4.1644 -2.0667
  621MOL0     H83782   6.125  10.732   4.187 -0.6657  0.5290 -0.4902
  621MOL0     H83783   6.099  10.563   4.246 -0.5154  1.9263  1.9507
  621MOL0     H83784   6.227  10.762   4.390  0.5170  2.3787 -1.7299
  621MOL0     H83785   6.362  10.713   4.296  0.2051 -2.2399 -0.0576
  621MOL0     H83786   6.445  10.438   4.358  0.8515  2.3851  1.6198
  621MOL0     H83787   6.462  10.252   4.507 -0.5806  0.3194 -0.2571
  621MOL0     H83788   6.480  10.309   4.676  0.6006 -0.6782  0.2078
  621MOL0     H83789   6.215  10.198   4.590  0.5177  1.7423 -0.4140
  621MOL0     H83790   6.279  10.223   4.746 -1.6502 -0.7090  0.8072
  621MOL0     H83791   6.471  10.064   4.694  0.8905  4.4263 -1.5885
  621MOL0     H83792   6.403  10.038   4.533 -0.3136  3.6039 -0.2990
  621MOL0     H83793   6.328   9.851   4.690 -2.1034 -0.7822 -0.6951
  621MOL0     H83794   6.190   9.949   4.624  0.2786  2.1521  0.2393
  621MOL0     H83795   6.126  10.027   5.042 -0.7318 -0.0337  1.4072
  621MOL0     H83796   6.021   9.834   5.322 -1.5440  0.0563 -0.2769
  621MOL0     H83797   6.092   9.994   5.265 -0.6691  0.6771 -2.1731
  621MOL0     H83798   5.932   9.936   5.213 -2.1578 -3.4497  1.2583
  621MOL0     H83799   6.148   9.441   5.457 -1.3270  1.8435  0.8352
  621MOL0     H83800   6.067   9.267   5.593 -2.0304 -0.9663  0.3493
  621MOL0     H83801   5.959   9.076   5.712 -1.0078 -1.5754  1.3379
  621MOL0     H83802   5.810   9.161   5.726 -1.2991 -0.8440  0.1480
  621MOL0     H83803   5.703   8.935   5.652  0.3862  1.8931 -0.3076
  621MOL0     H83804   5.860   8.863   5.671  1.3629  0.8621  0.7519
  621MOL0     H83805   5.738   8.812   5.865  1.8893 -0.0764 -1.1788
  621MOL0     H83806   5.699   8.981   5.903  0.3316 -0.7341  0.8357
  621MOL0     H83807   5.975   8.837   5.898 -1.7041 -1.5897 -1.3063
  621MOL0     H83808   5.951   9.006   5.935  2.3456 -1.3593  2.5847
  621MOL0     H83809   5.837   8.771   6.090  1.3037 -0.2757 -2.9707
  621MOL0     H83810   5.793   8.941   6.141 -0.8394 -1.2251  0.8035
  621MOL0     H83811   5.977   8.852   6.269 -0.7392  4.3806  1.9231
  621MOL0     H83812   6.082   8.843   6.122 -0.3525  0.7646 -2.5280
  621MOL0     H83813   5.971   9.103   6.231  2.4855  1.0952  2.7960
  621MOL0     H83814   6.090   9.087   6.116  0.3537 -3.5053 -0.5531
  621MOL0     H83815   6.102   8.958   6.404 -1.4096 -1.1022 -0.4994
  621MOL0     H83816   6.159   9.131   6.368  3.9192 -1.5433  0.6967
  621MOL0     H83817   5.771   9.165   5.282  0.6759 -2.1080 -1.2380
  621MOL0     H83818   5.880   9.324   5.143  1.6209 -0.4644 -0.7188
  621MOL0     H83819   6.116   9.547   4.956 -0.7656 -0.2041  1.1242
  621MOL0     H83820   6.217   9.692   4.787  3.2252 -0.8808  0.6065
  621MOL0     H83821   6.779  11.032   3.646  1.7977  2.5598 -0.6126
  621MOL0     H83822   6.884  11.187   3.452 -2.0372  1.7017  0.5660
  621MOL0     H83823   7.172  11.403   3.145 -2.7409  0.3929  1.1872
  621MOL0     H83824   7.235  11.499   2.923  0.2587  0.6690 -0.0031
  621MOL0     H83825   7.245  11.574   2.710  1.7706 -0.2395  1.0672
  621MOL0     H83826   7.367  11.441   2.730  1.2065 -0.4366 -2.7691
  621MOL0     H83827   7.356  11.380   2.498 -1.2782 -0.7828 -0.4419
  621MOL0     H83828   7.412  11.550   2.509 -0.9611  1.0840 -1.3870
  621MOL0     H83829   7.168  11.620   2.483 -1.3303 -2.7782  2.1082
  621MOL0     H83830   7.137  11.467   2.409 -0.2585  0.5558 -0.4469
  621MOL0     H83831   7.315  11.680   2.310  0.2690  0.7937 -3.0138
  621MOL0     H83832   7.176  11.621   2.234  1.4308  2.8157  0.8307
  621MOL0     H83833   7.464  11.385   2.079 -0.0807 -1.5603  0.8389
  621MOL0     H83834   7.018  11.186   2.732  0.2554 -0.2472 -0.7559
  621MOL0     H83835   6.916  11.117   2.948 -1.2256 -0.8513  2.5305
  622MOL0     O83836   0.603   9.693  10.748 -0.5603 -0.0197  0.1217
  622MOL0     C83837   0.531   9.787  10.771 -0.0296 -0.0730 -0.4451
  622MOL0     O83838   0.467   9.801  10.894 -0.0132 -0.0158  0.6353
  622MOL0     C83839   0.548   9.792  11.001  0.5682 -0.4481 -0.5253
  622MOL0     C83840   0.539   9.697  11.108 -1.0235  0.4901  0.7068
  622MOL0     C83841   0.639   9.700  11.209  0.4154 -0.3832  0.3138
  622MOL0     C83842   0.741   9.798  11.203  0.4645  0.7549  0.8954
  622MOL0     O83843   0.841   9.805  11.294 -0.2034  0.3323 -0.4932
  622MOL0     C83844   0.788   9.860  11.416 -0.5196 -0.1985  0.3235
  622MOL0     C83845   0.793   9.755  11.527 -0.3140 -0.0437  0.0920
  622MOL0     C83846   0.802   9.816  11.665  0.1003 -0.0209 -0.5130
  622MOL0     C83847   0.917   9.770  11.755  0.9241 -0.1424 -1.1918
  622MOL0     C83848   0.898   9.830  11.891 -0.5117  0.5968  0.6919
  622MOL0     C83849   0.985   9.786  12.006  0.5428  0.3423  0.4195
  622MOL0     C83850   0.974   9.883  12.121  0.6017  0.5056  0.4780
  622MOL0     C83851   1.009   9.805  12.251  0.1304  0.1688  0.7848
  622MOL0     N83852   0.982   9.888  12.372  0.7489  0.0795 -0.4168
  622MOL0     C83853   0.852   9.934  12.399 -0.6329  0.0458 -0.4454
  622MOL0     C83854   0.875  10.025  12.495 -1.0388  0.1236 -0.4445
  622MOL0     C83855   0.776  10.123  12.555 -0.3084 -0.2103 -0.6474
  622MOL0     C83856   0.651  10.057  12.616 -1.5668 -0.1297  0.1565
  622MOL0     C83857   0.600  10.123  12.744 -0.2685  0.4864  0.6739
  622MOL0     C83858   0.552  10.263  12.726 -0.6576  0.3365  0.2487
  622MOL0     O83859   0.453  10.271  12.628 -0.1423 -0.1855  0.1359
  622MOL0     C83860   0.328  10.227  12.648 -0.1380  0.0020 -0.6534
  622MOL0     C83861   0.257  10.222  12.768  0.1321  0.6075 -0.7971
  622MOL0     C83862   0.125  10.185  12.780 -0.5636  0.6673  0.8400
  622MOL0     C83863   0.043  10.181  12.909  0.7551 -0.2459 -0.5232
  622MOL0     C83864   0.057  10.135  12.661 -0.3538  0.2650 -0.2041
  622MOL0     C83865  -0.084  10.086  12.658  0.8818  0.3471  0.2094
  622MOL0     O83866  -0.193  10.161  12.627  0.2861  0.9652  0.8434
  622MOL0     C83867  -0.174  10.278  12.558  0.3074  0.0546 -0.4628
  622MOL0     C83868  -0.111  10.391  12.600 -0.2447  0.0404 -0.8977
  622MOL0     C83869  -0.124  10.510  12.531  0.2002  0.1244 -0.7877
  622MOL0     C83870  -0.200  10.519  12.421 -0.3979 -0.9920  0.1152
  622MOL0     O83871  -0.213  10.631  12.344 -0.1437  1.1404 -0.0986
  622MOL0     C83872  -0.123  10.743  12.383 -0.2028 -0.0105 -0.0162
  622MOL0     C83873  -0.120  10.845  12.269 -0.5243 -0.2810  0.1661
  622MOL0     C83874   0.016  10.912  12.254 -0.1616  0.0802  0.4370
  622MOL0     C83875   0.050  10.969  12.120  0.2821 -0.3559  0.6279
  622MOL0     C83876  -0.031  11.096  12.078 -0.0193 -0.8938  0.3471
  622MOL0     C83877  -0.167  11.069  12.005  0.0212 -1.5460 -0.4703
  622MOL0     C83878  -0.231  11.207  11.988 -0.4505 -0.5569  0.2606
  622MOL0     C83879  -0.370  11.208  11.924  0.0199 -1.0150  0.0757
  622MOL0    Cl83880  -0.425  11.375  11.884 -0.6305 -0.0195  0.1000
  622MOL0     C83881  -0.258  10.405  12.363 -0.1933 -0.6005 -0.4630
  622MOL0     C83882  -0.254  10.282  12.442  0.0534 -0.3521 -1.4011
  622MOL0     O83883  -0.094   9.982  12.718 -0.2174 -0.4636  0.0412
  622MOL0     C83884   0.142  10.131  12.544  0.5059  0.5592 -0.3228
  622MOL0     C83885   0.264  10.186  12.536 -0.6464 -0.5972 -0.9888
  622MOL0     N83886   1.017  10.040  12.511  0.1090  0.3196 -0.4295
  622MOL0     N83887   1.080   9.953  12.439  0.7822 -0.0771  0.4602
  622MOL0     C83888   0.745   9.884  11.100 -0.1043 -0.5924 -0.0075
  622MOL0     C83889   0.649   9.891  11.002 -0.0740 -0.0970  0.1158
  622MOL0     C83890   0.496   9.887  10.659 -0.8914  1.2159 -0.1322
  622MOL0     C83891   0.425  10.008  10.692  1.1728 -0.0872 -0.4162
  622MOL0     C83892   0.431  10.121  10.619  0.2785  0.8484 -0.5620
  622MOL0     C83893   0.508  10.122  10.502  0.6504 -0.6172 -0.3463
  622MOL0     O83894   0.498  10.238  10.434 -0.5484  0.6450  0.6577
  622MOL0     C83895   0.585  10.345  10.446 -0.6199 -0.0094  0.4161
  622MOL0     C83896   0.552  10.456  10.360 -0.1181  0.3442 -0.1238
  622MOL0     C83897   0.428  10.536  10.402  0.4277 -0.1516 -0.0031
  622MOL0     C83898   0.393  10.629  10.289 -0.0556  0.1999 -0.1743
  622MOL0     C83899   0.493  10.736  10.284  0.0604  0.3902 -1.4252
  622MOL0     C83900   0.573  10.824  10.293  0.4153 -0.0819  0.1900
  622MOL0     C83901   0.561  10.001  10.456  0.2398  0.8409  0.1371
  622MOL0     C83902   0.563   9.884  10.533  0.8332 -0.7407 -0.5557
  622MOL0     H83903   0.468   9.616  11.112 -0.6162  0.1129  0.3679
  622MOL0     H83904   0.634   9.633  11.294  0.0781 -0.9164 -0.1233
  622MOL0     H83905   0.856   9.938  11.451 -1.2371  0.2510  0.7305
  622MOL0     H83906   0.691   9.909  11.404  0.3652  1.5281 -0.0465
  622MOL0     H83907   0.706   9.689  11.531 -0.6236  0.1784 -1.9066
  622MOL0     H83908   0.883   9.698  11.502 -0.1070 -0.4456  1.6724
  622MOL0     H83909   0.787   9.925  11.666  0.2473  0.2330  5.3616
  622MOL0     H83910   0.720   9.780  11.727  0.5913 -1.7259 -0.7984
  622MOL0     H83911   0.919   9.661  11.765  1.4435 -0.0549 -0.0633
  622MOL0     H83912   1.019   9.800  11.730  1.1014  0.5739  0.2492
  622MOL0     H83913   0.898   9.939  11.882 -1.6751  0.4814 -1.6303
  622MOL0     H83914   0.802   9.794  11.930  0.2682 -3.1072 -0.4051
  622MOL0     H83915   0.951   9.685  12.031  5.6893 -1.5481  1.0739
  622MOL0     H83916   1.090   9.783  11.976  0.1500  1.1619 -1.1446
  622MOL0     H83917   1.050   9.956  12.091  1.2473  0.5590  2.1129
  622MOL0     H83918   0.872   9.921  12.133 -0.7100 -0.6347 -4.5619
  622MOL0     H83919   1.112   9.769  12.251 -0.7506 -2.5677  0.9590
  622MOL0     H83920   0.939   9.721  12.250 -0.1626  0.3283  2.8189
  622MOL0     H83921   0.752   9.910  12.363 -0.5976 -2.2784  0.7881
  622MOL0     H83922   0.826  10.176  12.637 -0.0771  2.8598 -2.6182
  622MOL0     H83923   0.742  10.195  12.481  0.5093 -0.3301 -1.1544
  622MOL0     H83924   0.679   9.955  12.643  2.8253  0.7409 -0.4591
  622MOL0     H83925   0.567  10.060  12.545 -1.3486 -0.2058 -0.1082
  622MOL0     H83926   0.674  10.098  12.821 -0.0365  0.7719  0.5447
  622MOL0     H83927   0.511  10.066  12.771  0.1409 -1.1767 -1.1668
  622MOL0     H83928   0.642  10.321  12.703 -0.4490 -0.5707 -1.3617
  622MOL0     H83929   0.521  10.318  12.816  0.7983  0.8227  0.4843
  622MOL0     H83930   0.313  10.242  12.858  0.7717 -2.6120 -0.3442
  622MOL0     H83931   0.083  10.245  12.988 -3.5402  0.9886  0.9083
  622MOL0     H83932  -0.063  10.206  12.899  0.9581  0.8327 -0.1024
  622MOL0     H83933   0.046  10.077  12.943  1.5085 -0.4395 -1.1538
  622MOL0     H83934  -0.055  10.397  12.693 -2.7402 -3.4378  1.0686
  622MOL0     H83935  -0.068  10.589  12.578 -0.1279  1.1040 -1.9975
  622MOL0     H83936  -0.143  10.793  12.478 -0.6894 -0.5939  0.1962
  622MOL0     H83937  -0.022  10.703  12.376 -0.5747 -0.7583 -1.5944
  622MOL0     H83938  -0.130  10.789  12.175 -0.6404 -1.7425  1.0218
  622MOL0     H83939  -0.200  10.919  12.256  0.8125  0.8633 -2.3445
  622MOL0     H83940   0.098  10.842  12.272  0.6713  0.4482 -1.6964
  622MOL0     H83941   0.027  10.988  12.332  2.1867  0.2174  0.0607
  622MOL0     H83942   0.156  10.995  12.127  0.2211 -0.2221  1.1277
  622MOL0     H83943   0.051  10.890  12.044 -0.0692 -0.9608  1.2424
  622MOL0     H83944   0.035  11.140  12.002 -1.0086 -4.1791 -2.7129
  622MOL0     H83945  -0.038  11.163  12.164  1.1278  1.4461 -1.2535
  622MOL0     H83946  -0.157  11.019  11.909 -1.7865 -1.4070 -0.7666
  622MOL0     H83947  -0.228  11.005  12.070  1.1009 -0.8549  1.2954
  622MOL0     H83948  -0.167  11.268  11.924  2.2431 -2.0503  1.3381
  622MOL0     H83949  -0.235  11.263  12.082  2.2624 -0.1607  0.2250
  622MOL0     H83950  -0.443  11.172  11.998 -0.0752 -1.5458 -0.2680
  622MOL0     H83951  -0.376  11.144  11.835 -3.6402  1.4969 -1.7323
  622MOL0     H83952  -0.313  10.417  12.270  0.7136 -0.3577 -0.9769
  622MOL0     H83953  -0.294  10.189  12.401  0.6064  0.1877 -3.2324
  622MOL0     H83954   0.108  10.095  12.447  0.1489  3.4263 -1.3782
  622MOL0     H83955   0.326  10.187  12.448  2.0975 -0.7464  0.8351
  622MOL0     H83956   0.822   9.960  11.095 -2.1526  1.5192 -1.9614
  622MOL0     H83957   0.655   9.956  10.915 -1.5628  0.4740  0.3971
  622MOL0     H83958   0.367  10.014  10.784 -1.5299 -3.1635 -1.7158
  622MOL0     H83959   0.372  10.209  10.641 -0.2826  0.9031 -2.1543
  622MOL0     H83960   0.582  10.375  10.551 -0.6598 -2.3116  1.1389
  622MOL0     H83961   0.677  10.298  10.410 -1.6529 -0.6268 -1.5240
  622MOL0     H83962   0.540  10.411  10.261  1.0414  0.2310 -0.2324
  622MOL0     H83963   0.641  10.520  10.352 -0.3362  0.5522 -1.0807
  622MOL0     H83964   0.452  10.593  10.492  0.0284  2.4403 -1.4490
  622MOL0     H83965   0.337  10.480  10.426 -0.9444  1.4863 -1.1728
  622MOL0     H83966   0.293  10.672  10.306 -0.1804 -0.6232  1.3741
  622MOL0     H83967   0.389  10.579  10.191 -3.4590 -1.2392  0.5342
  622MOL0     H83968   0.649  10.899  10.289 -1.6785  2.1064 -1.1132
  622MOL0     H83969   0.607  10.007  10.358  2.2209 -2.5638  0.7023
  622MOL0     H83970   0.620   9.794  10.514  1.0974 -0.6717 -0.1092
  623MOL0     O83971   3.609   3.758   7.049 -1.6101 -0.3239  0.6727
  623MOL0     C83972   3.647   3.874   7.079  0.5173  0.1864 -0.4955
  623MOL0     O83973   3.779   3.916   7.094  0.1089  0.5125  0.6190
  623MOL0     C83974   3.863   3.824   7.139 -0.3303 -0.0012  0.0935
  623MOL0     C83975   3.875   3.801   7.274  0.7177 -0.4237 -0.7492
  623MOL0     C83976   3.967   3.715   7.332  0.0354 -0.0065  0.4472
  623MOL0     C83977   4.051   3.635   7.244  0.2982  0.5374  0.2442
  623MOL0     O83978   4.121   3.539   7.300  0.2069  0.2440  0.3204
  623MOL0     C83979   4.201   3.446   7.219  1.0585 -0.4930  0.2099
  623MOL0     C83980   4.297   3.379   7.314 -1.0909  0.0867 -0.9222
  623MOL0     C83981   4.391   3.275   7.245  1.2869  0.7665 -0.2602
  623MOL0     C83982   4.341   3.124   7.245  1.0111 -0.8527  0.4352
  623MOL0     C83983   4.441   3.030   7.180  0.1023 -0.9915  0.4928
  623MOL0     C83984   4.369   2.902   7.136  0.3333 -1.0026  0.3389
  623MOL0     C83985   4.465   2.809   7.066 -0.7857 -0.1892 -0.3865
  623MOL0     C83986   4.411   2.668   7.045 -0.6981  0.1167 -0.0132
  623MOL0     N83987   4.508   2.584   6.971  0.1756 -0.1434  0.1899
  623MOL0     C83988   4.619   2.633   6.909  0.0723  0.8164 -0.0948
  623MOL0     C83989   4.670   2.514   6.855  0.1584 -0.9057 -0.7967
  623MOL0     C83990   4.778   2.501   6.750 -0.0272  0.1004  0.2501
  623MOL0     C83991   4.761   2.391   6.640  0.3948  0.1116 -1.1428
  623MOL0     C83992   4.652   2.382   6.526 -0.5042 -0.7317  0.4015
  623MOL0     C83993   4.616   2.520   6.473 -0.1410 -0.5863  0.7685
  623MOL0     O83994   4.501   2.520   6.390  0.5582 -0.0783  0.0184
  623MOL0     C83995   4.523   2.471   6.262  0.9134 -0.2085  0.4245
  623MOL0     C83996   4.642   2.467   6.198  1.0426  0.0428  0.2360
  623MOL0     C83997   4.661   2.423   6.067 -0.2828  0.0524 -0.5537
  623MOL0     C83998   4.812   2.414   6.039 -0.0002  0.3945  1.0164
  623MOL0     C83999   4.555   2.374   5.994 -0.4036  0.0988 -0.1854
  623MOL0     C84000   4.581   2.302   5.866 -0.1156 -0.0661 -0.1292
  623MOL0     O84001   4.678   2.358   5.785 -0.2754  0.0178 -0.1829
  623MOL0     C84002   4.667   2.354   5.651 -0.2118 -0.0180  0.0841
  623MOL0     C84003   4.767   2.413   5.583 -0.8295  0.8573  0.7759
  623MOL0     C84004   4.777   2.422   5.444 -0.2060  1.1595 -1.3031
  623MOL0     C84005   4.678   2.362   5.359 -0.0543  1.0236  0.3085
  623MOL0     O84006   4.686   2.367   5.223  0.6560  0.1186  0.1237
  623MOL0     C84007   4.666   2.242   5.149  0.5169  0.0838  0.4447
  623MOL0     C84008   4.803   2.170   5.112  0.9275 -0.3116  0.3295
  623MOL0     C84009   4.896   2.267   5.042  0.6711  0.6010 -0.0024
  623MOL0     C84010   5.027   2.189   5.014  0.1972 -0.3804  0.6465
  623MOL0     C84011   5.135   2.278   4.954  0.1159  0.1700 -0.0867
  623MOL0     C84012   5.216   2.366   5.053 -0.1437 -0.3158 -0.2889
  623MOL0     C84013   5.288   2.477   4.976  0.3590  0.2502 -0.3971
  623MOL0     C84014   5.399   2.534   5.065 -1.0613  0.3891 -0.5617
  623MOL0    Cl84015   5.455   2.699   5.011 -0.6222 -0.1611  0.3829
  623MOL0     C84016   4.579   2.299   5.429 -0.5814 -0.4170 -0.1015
  623MOL0     C84017   4.568   2.297   5.567 -0.1318 -0.3722 -0.7053
  623MOL0     O84018   4.515   2.205   5.832 -0.9009  0.1178 -0.2932
  623MOL0     C84019   4.424   2.377   6.056 -0.7360  0.5692  0.0011
  623MOL0     C84020   4.412   2.432   6.187  0.0703  0.0637  0.6176
  623MOL0     N84021   4.593   2.410   6.887 -0.7106  0.3534 -0.4575
  623MOL0     N84022   4.491   2.451   6.951  0.2136 -0.1168 -0.9409
  623MOL0     C84023   4.027   3.655   7.104 -0.3145  0.0536  0.5431
  623MOL0     C84024   3.948   3.754   7.051  0.3369 -0.6886  0.1450
  623MOL0     C84025   3.538   3.977   7.066  0.6169 -0.6120  0.5248
  623MOL0     C84026   3.396   3.941   7.066  0.2373  0.1131  0.0705
  623MOL0     C84027   3.298   4.041   7.035  0.0562 -0.2933 -0.5886
  623MOL0     C84028   3.337   4.176   7.029  0.4500  0.1775  0.5404
  623MOL0     O84029   3.231   4.262   7.024 -0.7426 -0.1075  1.1187
  623MOL0     C84030   3.258   4.404   7.015  0.1274  0.7263 -0.0562
  623MOL0     C84031   3.129   4.469   6.976 -0.0325 -0.7230  1.1610
  623MOL0     C84032   3.145   4.620   6.999  0.1681  0.5244  0.1934
  623MOL0     C84033   3.003   4.685   6.979  0.0178  0.6279  0.1502
  623MOL0     C84034   3.011   4.827   6.938  0.0605  0.4317  0.0195
  623MOL0     C84035   3.019   4.942   6.893 -0.2456 -0.0127 -0.9299
  623MOL0     C84036   3.476   4.205   7.042 -0.3289 -0.1200 -0.1467
  623MOL0     C84037   3.573   4.107   7.049 -1.3175  0.3937 -0.4711
  623MOL0     H84038   3.815   3.863   7.341  4.0146  0.5082  1.6073
  623MOL0     H84039   3.969   3.699   7.439  1.6509 -0.3268  0.4012
  623MOL0     H84040   4.148   3.375   7.155  0.1290  0.8091 -0.5155
  623MOL0     H84041   4.260   3.509   7.152  0.6382 -1.3982 -1.0602
  623MOL0     H84042   4.359   3.459   7.355 -1.4584  0.7823 -1.6984
  623MOL0     H84043   4.242   3.325   7.392 -1.8220 -0.0702 -1.5386
  623MOL0     H84044   4.400   3.305   7.141 -0.2539  2.0998 -0.0542
  623MOL0     H84045   4.489   3.284   7.294 -0.2433  1.6542  2.9463
  623MOL0     H84046   4.322   3.099   7.350  3.0025  2.5662  1.7744
  623MOL0     H84047   4.249   3.115   7.187 -0.1719 -1.4462  2.3048
  623MOL0     H84048   4.482   3.074   7.089 -0.2755  1.5813  1.4806
  623MOL0     H84049   4.528   3.009   7.243  2.2283  0.0969 -1.8983
  623MOL0     H84050   4.315   2.851   7.216  0.0870 -1.6797 -0.2486
  623MOL0     H84051   4.290   2.933   7.068  0.9545 -1.9321 -0.8531
  623MOL0     H84052   4.502   2.858   6.975  0.9586 -0.8415 -0.0638
  623MOL0     H84053   4.555   2.799   7.128  0.6576 -2.1682 -2.6155
  623MOL0     H84054   4.317   2.678   6.990 -1.1559 -1.5430  0.3962
  623MOL0     H84055   4.389   2.624   7.143 -1.6624  0.2935 -0.1423
  623MOL0     H84056   4.657   2.735   6.915  0.6178  0.8051 -2.3836
  623MOL0     H84057   4.774   2.600   6.703  1.5811  0.2135  0.2651
  623MOL0     H84058   4.877   2.493   6.797  0.4257  1.9649 -0.2974
  623MOL0     H84059   4.751   2.294   6.689 -2.1536  0.9195  0.1259
  623MOL0     H84060   4.851   2.383   6.579  0.5471 -3.3384 -0.6398
  623MOL0     H84061   4.559   2.334   6.560  0.5650 -2.4090  1.1231
  623MOL0     H84062   4.691   2.327   6.440  1.3889  3.1806 -1.4532
  623MOL0     H84063   4.704   2.573   6.435  0.2247 -0.5372  1.6741
  623MOL0     H84064   4.584   2.583   6.556 -0.7852  1.7317 -1.1142
  623MOL0     H84065   4.733   2.496   6.251  1.6008 -2.5748  0.8478
  623MOL0     H84066   4.833   2.323   5.983 -0.9844 -0.8445  2.5839
  623MOL0     H84067   4.849   2.500   5.982 -0.6081  0.5499  0.8397
  623MOL0     H84068   4.871   2.392   6.129 -1.0525  3.9387  2.7807
  623MOL0     H84069   4.858   2.442   5.635  0.5320  1.7569 -1.8838
  623MOL0     H84070   4.864   2.473   5.403  1.1191  1.8969  2.1387
  623MOL0     H84071   4.606   2.166   5.200  0.6619  0.6182  1.4507
  623MOL0     H84072   4.624   2.268   5.052  3.6975  1.5868 -0.6751
  623MOL0     H84073   4.848   2.135   5.205  2.1442 -0.3604 -0.2630
  623MOL0     H84074   4.772   2.081   5.057  0.7257 -0.5500  0.8210
  623MOL0     H84075   4.919   2.357   5.099  2.0308 -0.8100  1.7826
  623MOL0     H84076   4.848   2.309   4.953  3.0312  1.0348 -1.1489
  623MOL0     H84077   5.075   2.154   5.106  2.2915 -1.0627 -0.6422
  623MOL0     H84078   5.018   2.108   4.942  0.9673  0.1773 -0.0887
  623MOL0     H84079   5.088   2.337   4.875  1.9913  2.2479  0.2729
  623MOL0     H84080   5.197   2.207   4.898  1.6270  1.5258 -0.2000
  623MOL0     H84081   5.154   2.410   5.132  0.2972  0.2330 -0.2418
  623MOL0     H84082   5.294   2.310   5.104 -0.2459  0.1008  0.3373
  623MOL0     H84083   5.221   2.562   4.960  0.1782  0.6874  2.2255
  623MOL0     H84084   5.327   2.441   4.881  0.3380  1.0362 -0.7052
  623MOL0     H84085   5.488   2.469   5.063 -1.7473 -0.5591 -1.6974
  623MOL0     H84086   5.356   2.537   5.165  3.3899  3.6564  1.5930
  623MOL0     H84087   4.500   2.273   5.359  1.4567  3.4429 -4.4138
  623MOL0     H84088   4.489   2.234   5.607  0.5186  0.3431  1.9619
  623MOL0     H84089   4.335   2.337   6.009 -0.4545  1.5880 -1.4520
  623MOL0     H84090   4.318   2.482   6.209 -0.8957  0.0247 -2.8709
  623MOL0     H84091   4.080   3.600   7.026  0.7478 -0.5961  1.6857
  623MOL0     H84092   3.942   3.787   6.948  2.5841  0.9158  0.4366
  623MOL0     H84093   3.373   3.836   7.084  0.8775 -0.0807 -0.2161
  623MOL0     H84094   3.195   4.009   7.024 -0.2235 -1.0452  2.8788
  623MOL0     H84095   3.280   4.446   7.114  0.9116  0.4923 -0.1228
  623MOL0     H84096   3.337   4.423   6.942 -0.7949  0.0934 -1.2623
  623MOL0     H84097   3.038   4.436   7.027 -0.6589  0.9856  1.2152
  623MOL0     H84098   3.113   4.461   6.868 -1.7136  0.8403  1.2410
  623MOL0     H84099   3.209   4.664   6.922  0.8425 -0.1489  0.3575
  623MOL0     H84100   3.178   4.640   7.101  1.4494 -1.1262  0.1483
  623MOL0     H84101   2.941   4.676   7.069 -0.1395 -0.9348 -0.0775
  623MOL0     H84102   2.953   4.627   6.901 -0.1096  1.2886 -0.2611
  623MOL0     H84103   3.030   5.043   6.858  1.4236 -0.1253 -0.8000
  623MOL0     H84104   3.504   4.306   7.013  1.2370 -0.5856 -0.3483
  623MOL0     H84105   3.677   4.137   7.057 -1.2953 -0.1457  4.1106
  624MOL0     O84106   9.045   0.523  10.560 -0.8039  0.0283 -0.0686
  624MOL0     C84107   8.952   0.486  10.487  0.1422  0.6957 -0.1440
  624MOL0     O84108   8.833   0.543  10.488 -0.7580 -0.9257  0.4178
  624MOL0     C84109   8.812   0.658  10.562 -0.9605  0.1231 -0.5032
  624MOL0     C84110   8.845   0.780  10.512 -0.4098  0.0853 -0.5588
  624MOL0     C84111   8.808   0.898  10.568 -1.2922  0.6579  0.3784
  624MOL0     C84112   8.736   0.890  10.688 -0.5093 -0.2357  0.1242
  624MOL0     O84113   8.696   1.005  10.752 -0.7026 -0.4813  0.4698
  624MOL0     C84114   8.612   1.080  10.667  0.7644 -1.1123  0.1590
  624MOL0     C84115   8.466   1.037  10.681  0.4659 -0.1182  0.6592
  624MOL0     C84116   8.415   1.050  10.828 -0.7172 -0.8984  0.7459
  624MOL0     C84117   8.418   1.195  10.873  0.6603  0.2470  0.5744
  624MOL0     C84118   8.330   1.230  10.995 -0.1380 -0.4435 -0.1767
  624MOL0     C84119   8.347   1.133  11.118 -0.3547 -0.6872 -0.1656
  624MOL0     C84120   8.237   1.161  11.221 -0.1036  0.5153 -0.2020
  624MOL0     C84121   8.286   1.265  11.314  0.3098 -0.0500 -0.3797
  624MOL0     N84122   8.202   1.253  11.432 -0.2610  0.0826 -0.1031
  624MOL0     C84123   8.227   1.179  11.547  0.4010  0.2323 -0.6553
  624MOL0     C84124   8.105   1.185  11.617 -0.6608 -0.7543 -0.4093
  624MOL0     C84125   8.083   1.120  11.758 -0.6897 -0.6998  0.4208
  624MOL0     C84126   8.065   0.971  11.737  0.3570  0.2949  0.7758
  624MOL0     C84127   7.914   0.932  11.757  1.0965  0.6110 -0.0349
  624MOL0     C84128   7.865   0.778  11.748 -0.6328  0.1611  0.4434
  624MOL0     O84129   7.976   0.685  11.737 -0.3252 -0.0828 -0.0289
  624MOL0     C84130   7.949   0.553  11.722  0.2191 -1.1320 -0.9261
  624MOL0     C84131   7.856   0.484  11.793 -0.4739  0.4635 -0.8378
  624MOL0     C84132   7.862   0.342  11.797  0.3498  0.1839  0.1333
  624MOL0     C84133   7.765   0.268  11.894  0.2444 -0.2598  0.3340
  624MOL0     C84134   7.939   0.271  11.694 -0.1784 -0.6291  0.2197
  624MOL0     C84135   7.924   0.134  11.668  0.0480 -0.3230 -0.3491
  624MOL0     O84136   7.924   0.111  11.533 -0.3933 -0.4235 -0.3692
  624MOL0     C84137   7.893  -0.013  11.496 -0.2037  0.0105  0.1984
  624MOL0     C84138   7.781  -0.039  11.406 -0.6789 -0.2059 -0.7250
  624MOL0     C84139   7.765  -0.161  11.350 -0.4910 -1.0771  0.4513
  624MOL0     C84140   7.851  -0.259  11.383 -0.1455 -0.7575 -0.4952
  624MOL0     O84141   7.819  -0.380  11.329 -0.1183  0.1396 -0.6008
  624MOL0     C84142   7.920  -0.477  11.292 -0.2042 -0.1929 -0.0464
  624MOL0     C84143   7.906  -0.509  11.134  0.3504 -0.4037  0.4331
  624MOL0     C84144   8.023  -0.582  11.074  0.3589 -0.3956 -0.4758
  624MOL0     C84145   7.984  -0.619  10.927  0.3092  0.1646 -0.2374
  624MOL0     C84146   8.079  -0.731  10.871  0.4690 -0.7446  0.7004
  624MOL0     C84147   8.047  -0.773  10.724  0.5519 -0.7020 -0.1046
  624MOL0     C84148   8.157  -0.859  10.672  0.3437 -0.0176 -0.4872
  624MOL0     C84149   8.269  -0.785  10.603 -0.8837  0.5828  0.4575
  624MOL0    Cl84150   8.247  -0.807  10.429 -0.9256 -0.1436  0.1709
  624MOL0     C84151   7.973  -0.243  11.457  1.2966  0.1454 -0.5565
  624MOL0     C84152   7.986  -0.112  11.506 -0.1953 -0.1905  0.0185
  624MOL0     O84153   7.906   0.055  11.760  0.5211 -0.6671 -0.4086
  624MOL0     C84154   8.037   0.350  11.631 -0.8908  0.6187 -0.4239
  624MOL0     C84155   8.041   0.487  11.643 -0.1751 -0.1066 -0.0166
  624MOL0     N84156   8.022   1.271  11.554  0.4988 -0.8595  0.6111
  624MOL0     N84157   8.079   1.318  11.443 -0.3646  0.0221  0.3981
  624MOL0     C84158   8.703   0.760  10.745 -0.3736 -0.2690  0.5261
  624MOL0     C84159   8.739   0.648  10.677 -0.9011  0.8421 -0.5278
  624MOL0     C84160   8.976   0.361  10.412 -0.2236  0.4043 -0.4379
  624MOL0     C84161   9.091   0.293  10.434 -0.5511  0.3139 -0.2617
  624MOL0     C84162   9.133   0.189  10.345 -0.2513  0.2331  0.4538
  624MOL0     C84163   9.063   0.157  10.231 -0.7494  0.0875 -0.3462
  624MOL0     O84164   9.093   0.058  10.148 -0.1613  0.5661  0.3659
  624MOL0     C84165   9.188  -0.037  10.179 -0.6231  0.2047  0.5395
  624MOL0     C84166   9.196  -0.146  10.064  0.8769  0.4832  0.0296
  624MOL0     C84167   9.314  -0.228  10.092  0.0617  0.1906  0.4044
  624MOL0     C84168   9.307  -0.349  10.010 -0.7191 -0.1348 -0.1269
  624MOL0     C84169   9.434  -0.423  10.008 -0.2335 -0.4450 -0.3131
  624MOL0     C84170   9.540  -0.484  10.010  0.3797 -0.1839 -0.9228
  624MOL0     C84171   8.940   0.221  10.221 -0.2180  0.1179  0.4258
  624MOL0     C84172   8.897   0.326  10.304 -0.4174 -0.5104  0.2086
  624MOL0     H84173   8.899   0.786  10.418  0.2936  1.3740 -0.0903
  624MOL0     H84174   8.838   0.985  10.510 -0.2322  0.5672  0.7624
  624MOL0     H84175   8.616   1.185  10.695 -0.5711 -1.5920  2.4317
  624MOL0     H84176   8.637   1.086  10.561 -2.3498  3.3904 -0.6238
  624MOL0     H84177   8.402   1.095  10.614 -0.2817  0.9834  2.2679
  624MOL0     H84178   8.461   0.932  10.648 -1.4569 -1.2978  4.1257
  624MOL0     H84179   8.310   1.019  10.830 -1.0960  0.1501 -0.9380
  624MOL0     H84180   8.467   0.989  10.902  2.8915 -0.2358 -1.0091
  624MOL0     H84181   8.515   1.238  10.899  0.4127  0.8177  0.5531
  624MOL0     H84182   8.374   1.251  10.790 -0.6333  0.1764  1.1972
  624MOL0     H84183   8.342   1.334  11.027 -0.3627 -0.6445  0.5923
  624MOL0     H84184   8.223   1.230  10.971 -1.1351 -2.3036  3.5399
  624MOL0     H84185   8.318   1.036  11.078  0.2771  0.0327 -2.5023
  624MOL0     H84186   8.448   1.129  11.160 -0.1887 -0.7333 -0.5675
  624MOL0     H84187   8.144   1.206  11.185 -0.1630  1.0782  0.6226
  624MOL0     H84188   8.204   1.072  11.275 -1.2497  0.2689 -1.2620
  624MOL0     H84189   8.281   1.363  11.265 -2.7696  0.5662  0.9556
  624MOL0     H84190   8.388   1.245  11.348 -0.4311 -2.0382  0.8139
  624MOL0     H84191   8.318   1.130  11.580  0.4635 -0.9732 -2.4750
  624MOL0     H84192   8.171   1.156  11.812  0.2649 -0.4034 -1.2485
  624MOL0     H84193   7.998   1.166  11.808  0.4799  2.0201  0.0572
  624MOL0     H84194   8.130   0.933  11.816  2.4936 -1.7529 -1.7712
  624MOL0     H84195   8.096   0.924  11.643 -3.3527  2.6324 -1.8996
  624MOL0     H84196   7.846   0.983  11.688 -0.3169 -3.3610 -1.9269
  624MOL0     H84197   7.893   0.963  11.859 -1.0723 -0.0198 -0.2291
  624MOL0     H84198   7.818   0.770  11.650  2.7844 -1.0603 -1.2793
  624MOL0     H84199   7.801   0.753  11.834 -5.0360 -2.1648 -3.1040
  624MOL0     H84200   7.785   0.529  11.863  0.4626 -0.3525  0.7073
  624MOL0     H84201   7.704   0.346  11.940  1.1940  0.8887 -0.2929
  624MOL0     H84202   7.702   0.194  11.844  0.5146  0.8208 -1.7712
  624MOL0     H84203   7.822   0.205  11.962 -1.2480 -1.0437  0.8998
  624MOL0     H84204   7.714   0.041  11.377  0.3550  1.2710  0.7469
  624MOL0     H84205   7.691  -0.178  11.272  3.2278  2.6428 -4.5132
  624MOL0     H84206   8.022  -0.447  11.316 -0.2451 -1.5699  2.1546
  624MOL0     H84207   7.916  -0.574  11.342  1.1306  1.3327  3.2640
  624MOL0     H84208   7.816  -0.570  11.124 -0.4787  0.9987 -1.5742
  624MOL0     H84209   7.880  -0.421  11.074  3.9588  0.5409 -0.0162
  624MOL0     H84210   8.040  -0.670  11.136  0.4332 -0.3858 -0.4813
  624MOL0     H84211   8.118  -0.527  11.082  0.2641 -0.3753  0.5772
  624MOL0     H84212   7.882  -0.654  10.908 -0.4409 -0.6371  4.1340
  624MOL0     H84213   7.990  -0.525  10.871 -3.0200 -0.7102 -2.3615
  624MOL0     H84214   8.082  -0.815  10.940 -0.0231  0.8709  2.7741
  624MOL0     H84215   8.185  -0.702  10.872  0.4977 -0.5426 -1.5207
  624MOL0     H84216   7.956  -0.834  10.716  1.2056 -1.7809  0.4447
  624MOL0     H84217   8.036  -0.684  10.661 -0.4706  0.4265  1.5898
  624MOL0     H84218   8.113  -0.932  10.604 -1.1844  2.7222 -2.6594
  624MOL0     H84219   8.189  -0.920  10.757 -0.0751  0.2085 -0.1587
  624MOL0     H84220   8.364  -0.836  10.625 -1.7010 -1.0723  0.3419
  624MOL0     H84221   8.268  -0.677  10.618 -1.1865  0.5980  0.3318
  624MOL0     H84222   8.042  -0.322  11.486  3.3109  1.9815 -0.1731
  624MOL0     H84223   8.080  -0.098  11.558  0.6271  0.0584 -1.4618
  624MOL0     H84224   8.108   0.320  11.555  2.3710 -2.2169  3.2946
  624MOL0     H84225   8.127   0.545  11.610  0.5298  0.9083  3.1648
  624MOL0     H84226   8.654   0.736  10.839 -2.8954 -1.0459 -0.8944
  624MOL0     H84227   8.714   0.546  10.703  3.7131 -0.5513 -0.7980
  624MOL0     H84228   9.164   0.300  10.514  0.3331 -0.3267 -0.9969
  624MOL0     H84229   9.225   0.140  10.375 -1.6318 -2.9505 -0.0785
  624MOL0     H84230   9.288   0.007  10.181  1.0632 -2.9168  5.9205
  624MOL0     H84231   9.180  -0.090  10.274  1.9081 -1.0345  0.1476
  624MOL0     H84232   9.207  -0.097   9.967 -0.8890 -0.9433 -0.9428
  624MOL0     H84233   9.106  -0.205  10.084  0.4463  1.6703  1.9037
  624MOL0     H84234   9.301  -0.272  10.192 -5.4261 -3.3027 -1.3617
  624MOL0     H84235   9.402  -0.166  10.077  0.8651 -1.0139  0.0013
  624MOL0     H84236   9.296  -0.320   9.905 -1.9482 -4.0964 -1.2971
  624MOL0     H84237   9.223  -0.415  10.035  0.2142 -1.0105  0.8066
  624MOL0     H84238   9.639  -0.523  10.001  0.7472 -0.1212  1.8653
  624MOL0     H84239   8.870   0.196  10.141 -1.4339  1.6112  0.9836
  624MOL0     H84240   8.808   0.383  10.278  1.5766  3.2867  1.0638
  625MOL0     O84241   4.225   9.271   9.373 -0.1085  0.0148 -0.2644
  625MOL0     C84242   4.111   9.234   9.343 -0.1380  0.3832  0.0060
  625MOL0     O84243   4.072   9.100   9.322  0.2859 -0.2589  0.0437
  625MOL0     C84244   4.157   8.998   9.324 -0.3362  1.1352  0.3824
  625MOL0     C84245   4.101   8.868   9.293 -0.7509 -0.3371  0.1490
  625MOL0     C84246   4.180   8.748   9.286  0.8283 -0.6864 -0.1085
  625MOL0     C84247   4.316   8.760   9.305 -0.1512 -0.3336 -0.4197
  625MOL0     O84248   4.402   8.655   9.293  0.4562  0.4100 -0.0574
  625MOL0     C84249   4.368   8.517   9.270  0.1955  0.2384 -0.4238
  625MOL0     C84250   4.491   8.427   9.281  0.0245  0.2562 -0.7282
  625MOL0     C84251   4.520   8.396   9.438 -0.6921 -0.2128  0.4478
  625MOL0     C84252   4.641   8.316   9.440  1.0839 -0.7536 -0.2938
  625MOL0     C84253   4.707   8.320   9.574  0.2992 -0.4348 -0.6327
  625MOL0     C84254   4.815   8.210   9.583  0.2456 -0.3668  0.4676
  625MOL0     C84255   4.944   8.270   9.519 -0.1071 -0.2401  0.6574
  625MOL0     C84256   5.068   8.176   9.524  0.1900 -0.6586 -0.3743
  625MOL0     N84257   5.190   8.214   9.450 -0.3771 -0.3556  0.3063
  625MOL0     C84258   5.211   8.305   9.344  1.4093  1.1987  0.5223
  625MOL0     C84259   5.340   8.316   9.327  0.8962  0.8045  0.0203
  625MOL0     C84260   5.411   8.409   9.246  0.1493 -0.1463 -0.0459
  625MOL0     C84261   5.324   8.472   9.135  0.0334 -0.2607  0.4603
  625MOL0     C84262   5.417   8.555   9.046 -0.9678  0.5456  0.0527
  625MOL0     C84263   5.349   8.606   8.916  0.2939  0.2939  0.2835
  625MOL0     O84264   5.306   8.488   8.846 -1.0994 -0.8127  0.3743
  625MOL0     C84265   5.323   8.490   8.705  0.2974 -0.3514 -0.8406
  625MOL0     C84266   5.454   8.529   8.653 -0.0746  0.3471 -0.3603
  625MOL0     C84267   5.485   8.514   8.514  0.1559 -0.4867 -0.1090
  625MOL0     C84268   5.622   8.554   8.475 -0.5595 -0.5913 -0.3027
  625MOL0     C84269   5.390   8.448   8.428 -0.5528  0.5963  0.5495
  625MOL0     C84270   5.402   8.415   8.285  0.2924 -0.5869 -0.2455
  625MOL0     O84271   5.515   8.446   8.227 -0.0872  0.3216  0.4973
  625MOL0     C84272   5.526   8.403   8.094  0.7501 -0.3945 -0.1300
  625MOL0     C84273   5.461   8.472   7.989  0.4313 -0.0546  0.2582
  625MOL0     C84274   5.471   8.436   7.854 -0.7885 -0.6584 -0.0061
  625MOL0     C84275   5.542   8.321   7.815 -0.3040  0.5953 -0.6730
  625MOL0     O84276   5.547   8.299   7.679 -0.5439  0.6352  0.0891
  625MOL0     C84277   5.686   8.317   7.641 -0.7167  0.1829  0.9534
  625MOL0     C84278   5.692   8.325   7.488  1.2080  0.5888  0.1836
  625MOL0     C84279   5.622   8.198   7.426  0.4569  1.2702 -0.1252
  625MOL0     C84280   5.677   8.193   7.280  0.6777 -0.0860 -0.4472
  625MOL0     C84281   5.623   8.073   7.210  0.2121  0.0963 -0.1699
  625MOL0     C84282   5.473   8.072   7.183  0.4193  0.2476  0.2248
  625MOL0     C84283   5.446   7.941   7.113 -1.0440 -0.1139  0.4783
  625MOL0     C84284   5.300   7.915   7.053 -0.7382  1.0182  0.2651
  625MOL0    Cl84285   5.291   7.771   6.953 -0.4819  0.3622  0.2225
  625MOL0     C84286   5.600   8.244   7.921 -1.2170 -1.8323  0.4299
  625MOL0     C84287   5.594   8.291   8.056 -0.2749  0.0446 -0.1155
  625MOL0     O84288   5.305   8.359   8.232 -0.6963 -0.4606  0.5342
  625MOL0     C84289   5.261   8.415   8.484 -0.0945 -0.2073  0.1650
  625MOL0     C84290   5.234   8.429   8.617 -0.5183  0.1727  0.1584
  625MOL0     N84291   5.406   8.230   9.415 -0.3155 -0.0288  0.0775
  625MOL0     N84292   5.314   8.168   9.484  0.5027 -0.6771 -0.6104
  625MOL0     C84293   4.370   8.879   9.345  0.8931  0.1690  0.1954
  625MOL0     C84294   4.294   8.999   9.350 -0.5328 -0.2831  0.4304
  625MOL0     C84295   4.016   9.341   9.321 -0.4187 -0.0733 -0.4307
  625MOL0     C84296   3.904   9.328   9.242  0.7904 -0.7752 -0.1105
  625MOL0     C84297   3.836   9.439   9.199  0.5189 -0.1390  0.1272
  625MOL0     C84298   3.864   9.567   9.242  0.3072 -0.7947 -0.0938
  625MOL0     O84299   3.799   9.680   9.195  0.0565 -0.3257  0.2922
  625MOL0     C84300   3.675   9.677   9.112  0.7915  0.1379  0.0192
  625MOL0     C84301   3.641   9.821   9.089  0.4405 -0.3939 -0.1191
  625MOL0     C84302   3.530   9.849   8.991 -0.6544  0.5645 -0.2932
  625MOL0     C84303   3.488   9.997   9.013  0.2694 -0.0518 -0.3142
  625MOL0     C84304   3.446  10.060   8.890 -0.4788  0.4591 -0.1578
  625MOL0     C84305   3.407  10.124   8.794  0.5727 -0.2193  0.0301
  625MOL0     C84306   3.973   9.575   9.335  0.4464  0.5356  1.1267
  625MOL0     C84307   4.044   9.464   9.382 -0.0632  0.1673 -0.2117
  625MOL0     H84308   3.994   8.868   9.276 -0.5048 -1.1014 -1.6071
  625MOL0     H84309   4.136   8.649   9.278  2.3971 -1.2974 -2.0536
  625MOL0     H84310   4.294   8.485   9.344 -0.4280  1.9639 -0.2667
  625MOL0     H84311   4.324   8.508   9.171  0.0858 -2.2165 -0.2063
  625MOL0     H84312   4.469   8.330   9.235 -1.6800 -0.2525  1.0103
  625MOL0     H84313   4.583   8.466   9.236 -0.2767  0.2522 -1.3551
  625MOL0     H84314   4.533   8.489   9.493  1.0232 -1.9242  3.1869
  625MOL0     H84315   4.438   8.331   9.470 -0.7344 -1.3055 -1.6515
  625MOL0     H84316   4.616   8.212   9.415 -2.1668  0.1950 -1.5260
  625MOL0     H84317   4.712   8.354   9.366  1.1288  0.2393  0.2441
  625MOL0     H84318   4.756   8.414   9.600  0.4305  0.0914 -2.6271
  625MOL0     H84319   4.633   8.310   9.654  3.3387 -1.2488  2.3240
  625MOL0     H84320   4.847   8.182   9.684  0.5428 -1.8124  0.0002
  625MOL0     H84321   4.806   8.116   9.529  2.5125  0.0310 -0.7330
  625MOL0     H84322   4.930   8.303   9.416 -0.4708  1.6853  1.2950
  625MOL0     H84323   4.964   8.355   9.585  2.6330 -0.3577  0.1013
  625MOL0     H84324   5.036   8.077   9.489  3.3655 -0.9959 -2.7271
  625MOL0     H84325   5.104   8.171   9.627  5.5759  3.5026 -1.5991
  625MOL0     H84326   5.136   8.359   9.287  1.9620  0.1316 -1.3070
  625MOL0     H84327   5.451   8.481   9.318 -2.0566 -0.8787  2.0409
  625MOL0     H84328   5.500   8.363   9.203  0.7462 -0.7092  1.7110
  625MOL0     H84329   5.253   8.542   9.180  2.0046  2.1164  0.1317
  625MOL0     H84330   5.268   8.399   9.076 -2.7532  1.8653  0.3067
  625MOL0     H84331   5.503   8.493   9.021  0.0547  1.1875  1.7917
  625MOL0     H84332   5.464   8.640   9.096 -0.7356 -0.0206  0.8178
  625MOL0     H84333   5.418   8.666   8.855 -0.1332 -1.8528 -2.5505
  625MOL0     H84334   5.263   8.665   8.949 -0.4078  0.8691 -2.2954
  625MOL0     H84335   5.542   8.569   8.702  0.9921 -1.7997 -0.4093
  625MOL0     H84336   5.670   8.474   8.418 -2.1021 -2.1787  0.5287
  625MOL0     H84337   5.599   8.641   8.412 -2.1954 -0.5395  0.3262
  625MOL0     H84338   5.681   8.589   8.559 -0.0173 -0.9528 -0.5247
  625MOL0     H84339   5.416   8.563   8.027  4.0415  1.9388  0.1525
  625MOL0     H84340   5.419   8.498   7.781 -1.5908 -2.6094 -1.1768
  625MOL0     H84341   5.709   8.415   7.685 -4.0961  1.3290  0.4401
  625MOL0     H84342   5.745   8.233   7.680 -0.6294 -0.4443 -0.4802
  625MOL0     H84343   5.638   8.417   7.462  1.4355  0.0412 -2.4168
  625MOL0     H84344   5.793   8.343   7.450 -0.0941  1.4778 -3.2464
  625MOL0     H84345   5.514   8.212   7.418  0.4957  0.4225 -2.9896
  625MOL0     H84346   5.641   8.102   7.475 -2.4128  0.8748  0.3877
  625MOL0     H84347   5.650   8.288   7.233 -1.7008 -0.5585 -0.1624
  625MOL0     H84348   5.785   8.179   7.278  1.0517  2.2461  0.2923
  625MOL0     H84349   5.645   7.990   7.278 -2.0656 -0.6883 -0.2899
  625MOL0     H84350   5.676   8.072   7.114 -3.5689 -0.6102 -2.4530
  625MOL0     H84351   5.406   8.069   7.269 -0.7594  1.3334 -0.6253
  625MOL0     H84352   5.445   8.161   7.126 -1.6276  0.5175  1.5759
  625MOL0     H84353   5.468   7.854   7.174  3.3685  2.0668  2.4581
  625MOL0     H84354   5.504   7.944   7.020 -1.8408  1.0042 -0.0142
  625MOL0     H84355   5.282   8.001   6.988  0.6854 -0.4452 -2.2686
  625MOL0     H84356   5.215   7.895   7.119 -1.9023 -1.4559 -1.7765
  625MOL0     H84357   5.649   8.151   7.895 -1.2116 -1.6947 -0.0637
  625MOL0     H84358   5.657   8.235   8.125  3.0134  1.5220 -1.6840
  625MOL0     H84359   5.187   8.373   8.417  1.8338 -2.0414 -0.9144
  625MOL0     H84360   5.133   8.406   8.650 -1.1701  0.3032 -1.6074
  625MOL0     H84361   4.477   8.880   9.363  0.4861 -1.2011  3.4822
  625MOL0     H84362   4.350   9.087   9.381 -1.3495 -0.3298  2.1108
  625MOL0     H84363   3.858   9.234   9.215 -0.5697  0.0390 -0.7212
  625MOL0     H84364   3.747   9.425   9.138 -0.5646  1.3478  1.3014
  625MOL0     H84365   3.696   9.637   9.013  1.2604  0.4413 -0.0067
  625MOL0     H84366   3.593   9.623   9.161  1.4748  0.3195  1.4314
  625MOL0     H84367   3.724   9.871   9.038 -1.0615 -0.0748 -2.3985
  625MOL0     H84368   3.622   9.871   9.184  0.0543  1.3529 -1.0661
  625MOL0     H84369   3.450   9.774   8.993  0.6580 -0.9662 -1.7818
  625MOL0     H84370   3.573   9.850   8.890  1.2720 -1.6421  0.4075
  625MOL0     H84371   3.571  10.059   9.048  1.2776 -1.2199 -0.5536
  625MOL0     H84372   3.407  10.004   9.086 -0.7208 -1.9984 -1.1619
  625MOL0     H84373   3.376  10.178   8.707  0.7885  3.4719  2.0161
  625MOL0     H84374   4.008   9.674   9.362 -1.8003  1.2567  1.5932
  625MOL0     H84375   4.126   9.483   9.451 -1.5794  1.2614  1.3817
  626MOL0     O84376   4.273   8.733   7.583  0.2431  0.5743 -0.4110
  626MOL0     C84377   4.353   8.678   7.507  0.6486 -0.6072  0.5543
  626MOL0     O84378   4.313   8.622   7.386  0.4654  0.0164  0.3874
  626MOL0     C84379   4.183   8.634   7.352 -0.2744  0.2003 -0.4159
  626MOL0     C84380   4.082   8.547   7.392 -0.0345 -0.3262  0.4315
  626MOL0     C84381   3.953   8.543   7.344 -0.1137  0.0479 -0.0214
  626MOL0     C84382   3.923   8.640   7.244  0.1476 -0.3414 -0.1079
  626MOL0     O84383   3.803   8.651   7.168  0.2157  1.0603  0.1021
  626MOL0     C84384   3.725   8.755   7.207 -0.0721 -0.3328 -0.4277
  626MOL0     C84385   3.643   8.798   7.093 -0.1921 -0.3378  0.0181
  626MOL0     C84386   3.715   8.819   6.957  0.1298 -0.0214 -0.1677
  626MOL0     C84387   3.651   8.950   6.892 -0.7772  0.2490  0.6099
  626MOL0     C84388   3.716   9.003   6.764 -0.8706 -0.0597  0.2674
  626MOL0     C84389   3.861   9.058   6.778  0.2810 -0.8776  0.1371
  626MOL0     C84390   3.830   9.191   6.852  1.1255  1.1223 -0.3831
  626MOL0     C84391   3.958   9.281   6.872 -0.4706  0.3928  0.2520
  626MOL0     N84392   4.028   9.337   6.756  0.2821 -0.1049  0.0347
  626MOL0     C84393   4.106   9.454   6.770  0.1247  0.8697  0.0350
  626MOL0     C84394   4.112   9.512   6.651  0.9405 -0.5866  0.7935
  626MOL0     C84395   4.184   9.639   6.607 -0.1894  0.4829  0.3245
  626MOL0     C84396   4.331   9.613   6.633 -0.5511  0.3478  0.1741
  626MOL0     C84397   4.375   9.477   6.579  0.2164 -0.2417 -0.5248
  626MOL0     C84398   4.340   9.446   6.433 -0.8361  1.1216 -0.1134
  626MOL0     O84399   4.428   9.516   6.341  0.4531  0.4706  0.2099
  626MOL0     C84400   4.419   9.475   6.214  0.3072  0.6240 -0.0242
  626MOL0     C84401   4.517   9.519   6.127  0.8924  0.6897 -0.3351
  626MOL0     C84402   4.518   9.492   5.986  0.3210 -0.0179  0.2087
  626MOL0     C84403   4.622   9.567   5.904 -0.1986  0.0387 -0.0274
  626MOL0     C84404   4.420   9.414   5.929  0.5581 -0.0510 -0.3882
  626MOL0     C84405   4.413   9.378   5.790 -0.7573  0.5458  0.6192
  626MOL0     O84406   4.532   9.383   5.715  0.2350  0.6538  0.7761
  626MOL0     C84407   4.523   9.365   5.580  0.8306  0.3851  0.1900
  626MOL0     C84408   4.483   9.238   5.537 -0.3035 -0.3325 -0.2153
  626MOL0     C84409   4.459   9.216   5.402  0.6434 -0.8778 -0.2480
  626MOL0     C84410   4.474   9.312   5.308  0.0961  0.6666 -0.0561
  626MOL0     O84411   4.432   9.279   5.184 -0.0136  0.1311  0.3206
  626MOL0     C84412   4.498   9.348   5.082 -0.7784  0.3375  1.2790
  626MOL0     C84413   4.491   9.274   4.948 -1.0519 -0.5205  0.0180
  626MOL0     C84414   4.356   9.240   4.899 -0.4375  0.6351  1.4301
  626MOL0     C84415   4.279   9.366   4.854 -0.9739 -0.0421  0.3247
  626MOL0     C84416   4.141   9.326   4.794  0.3048  0.5094  0.3980
  626MOL0     C84417   4.055   9.452   4.763 -0.6279  0.6584 -0.0579
  626MOL0     C84418   3.932   9.397   4.686 -0.2443 -0.0022  0.6842
  626MOL0     C84419   3.855   9.515   4.602 -0.8339 -0.0513 -1.1229
  626MOL0    Cl84420   3.729   9.440   4.497  0.0660 -0.2028  0.2294
  626MOL0     C84421   4.512   9.436   5.355 -0.3406 -0.3217 -0.3091
  626MOL0     C84422   4.534   9.467   5.488 -0.1706 -0.2884 -0.1109
  626MOL0     O84423   4.305   9.335   5.747 -0.9715  0.1047  0.4826
  626MOL0     C84424   4.320   9.368   6.021  0.2075  0.5804  0.6903
  626MOL0     C84425   4.317   9.404   6.149 -0.4666 -0.5115 -1.1461
  626MOL0     N84426   4.041   9.437   6.561  0.6240 -0.7243 -0.3949
  626MOL0     N84427   3.987   9.334   6.626 -0.7966 -0.2506 -0.2475
  626MOL0     C84428   4.021   8.733   7.208  0.4626  0.5323 -0.0586
  626MOL0     C84429   4.149   8.733   7.259 -1.1061  0.3521 -0.2085
  626MOL0     C84430   4.495   8.653   7.540  0.1711 -1.1747  0.4191
  626MOL0     C84431   4.549   8.705   7.661 -0.7740 -0.8215  0.5164
  626MOL0     C84432   4.682   8.655   7.694 -0.2370 -0.4615  0.8746
  626MOL0     C84433   4.758   8.575   7.613 -0.1288  0.7875  1.5991
  626MOL0     O84434   4.884   8.535   7.625  0.5724  0.8583  0.0261
  626MOL0     C84435   4.927   8.539   7.762  0.1822  0.5038  0.4809
  626MOL0     C84436   5.051   8.452   7.779  0.1552 -0.5300  0.4694
  626MOL0     C84437   5.020   8.302   7.770 -0.7463  1.4423  0.4617
  626MOL0     C84438   5.139   8.215   7.808 -0.3137 -0.8256 -0.5018
  626MOL0     C84439   5.105   8.075   7.792 -0.2674 -0.8102  0.2061
  626MOL0     C84440   5.074   7.954   7.799 -0.3362  0.3704  1.1350
  626MOL0     C84441   4.695   8.522   7.502 -0.0051 -0.5760 -0.6523
  626MOL0     C84442   4.566   8.551   7.471 -0.3897  0.4355  0.6566
  626MOL0     H84443   4.102   8.472   7.467  1.3164 -1.2474 -0.8035
  626MOL0     H84444   3.876   8.480   7.384 -0.4646  1.2507  1.2800
  626MOL0     H84445   3.669   8.717   7.292 -0.1336  0.8283  0.0639
  626MOL0     H84446   3.781   8.842   7.244  0.1847 -1.2818  1.5396
  626MOL0     H84447   3.572   8.716   7.083  0.8502 -1.5335  1.7746
  626MOL0     H84448   3.587   8.886   7.127  1.9503  0.3036  2.1555
  626MOL0     H84449   3.824   8.823   6.967 -0.1094  1.3952  3.2622
  626MOL0     H84450   3.695   8.731   6.895  2.2316  0.3574 -1.4849
  626MOL0     H84451   3.543   8.941   6.877 -0.5566  0.5705 -1.5391
  626MOL0     H84452   3.663   9.023   6.973  1.8147 -1.4425  1.8880
  626MOL0     H84453   3.713   8.919   6.694 -0.4409  0.4698 -0.3974
  626MOL0     H84454   3.656   9.086   6.726  0.4103  0.6446 -0.2864
  626MOL0     H84455   3.928   8.979   6.814  0.9314 -0.7421 -0.7502
  626MOL0     H84456   3.902   9.089   6.682 -0.5608  1.8917  0.5636
  626MOL0     H84457   3.755   9.246   6.795 -2.3039 -1.1244  1.5734
  626MOL0     H84458   3.790   9.172   6.952  2.1602  1.6298  0.1371
  626MOL0     H84459   4.035   9.228   6.928 -0.6670  0.5265  0.6524
  626MOL0     H84460   3.943   9.371   6.932 -0.7964  1.8620 -1.9078
  626MOL0     H84461   4.147   9.495   6.862 -0.5573 -0.5158  1.0139
  626MOL0     H84462   4.181   9.659   6.500  3.0807 -4.6418 -1.1074
  626MOL0     H84463   4.148   9.724   6.666  2.8268  1.9482  0.2333
  626MOL0     H84464   4.346   9.613   6.741 -1.4816  1.1337  0.3129
  626MOL0     H84465   4.387   9.689   6.578  1.6915 -0.0855  1.7448
  626MOL0     H84466   4.349   9.398   6.651 -0.9588  0.3767 -0.2474
  626MOL0     H84467   4.484   9.474   6.587  0.0727 -2.3300  2.2991
  626MOL0     H84468   4.232   9.457   6.422 -1.2836 -0.4328  1.9735
  626MOL0     H84469   4.356   9.338   6.438 -0.2525  1.1918 -0.2895
  626MOL0     H84470   4.605   9.572   6.163  0.9990 -1.6545  3.4216
  626MOL0     H84471   4.569   9.631   5.832 -0.9326  2.3164  2.3552
  626MOL0     H84472   4.689   9.636   5.956 -2.0067  0.0273  2.4690
  626MOL0     H84473   4.697   9.504   5.857 -0.6252 -0.9129  0.5473
  626MOL0     H84474   4.482   9.145   5.594  0.4691  0.1438  0.5969
  626MOL0     H84475   4.426   9.116   5.373  3.1203 -2.4062  1.7193
  626MOL0     H84476   4.450   9.445   5.064  0.9751  0.7172 -2.4646
  626MOL0     H84477   4.605   9.361   5.102  0.4092  1.6592 -4.1139
  626MOL0     H84478   4.560   9.327   4.880  2.2342  0.0560  3.4826
  626MOL0     H84479   4.544   9.180   4.963  2.4482  0.7157 -2.8541
  626MOL0     H84480   4.298   9.177   4.968  2.5381 -2.7205  1.1858
  626MOL0     H84481   4.364   9.186   4.804  0.2695 -1.4362  2.5918
  626MOL0     H84482   4.260   9.434   4.937  0.1807  1.9562 -0.9550
  626MOL0     H84483   4.344   9.423   4.787 -1.9446 -1.6539 -2.1235
  626MOL0     H84484   4.103   9.265   4.876  2.4759 -0.2863  0.8919
  626MOL0     H84485   4.151   9.256   4.711 -2.6595  0.3920  0.0576
  626MOL0     H84486   4.029   9.504   4.856 -1.2915 -0.2667  0.2926
  626MOL0     H84487   4.122   9.524   4.716 -0.5443  0.7041  0.1299
  626MOL0     H84488   3.865   9.344   4.754 -3.6234  0.1808 -2.2139
  626MOL0     H84489   3.968   9.327   4.611 -0.7692 -0.1225  0.5372
  626MOL0     H84490   3.919   9.587   4.550 -2.2315  1.1068 -1.3161
  626MOL0     H84491   3.810   9.581   4.678  1.4479  0.4149 -0.0991
  626MOL0     H84492   4.500   9.522   5.289  0.7680  0.5033  0.5083
  626MOL0     H84493   4.566   9.567   5.512 -0.7923  0.5845 -2.5929
  626MOL0     H84494   4.243   9.308   5.975  1.4540  2.2605 -4.1819
  626MOL0     H84495   4.236   9.370   6.213  0.1724  0.3826  0.1754
  626MOL0     H84496   3.995   8.811   7.137 -0.8310  0.0132 -0.1823
  626MOL0     H84497   4.226   8.808   7.245 -1.8260  1.5867  1.9666
  626MOL0     H84498   4.490   8.763   7.731 -0.7484  0.9422 -0.8513
  626MOL0     H84499   4.729   8.699   7.781 -2.6285  0.5094  1.7660
  626MOL0     H84500   4.939   8.643   7.794  0.0110  0.7173 -0.1086
  626MOL0     H84501   4.848   8.493   7.822 -1.8456 -0.5588 -2.6938
  626MOL0     H84502   5.089   8.491   7.874  0.6584  1.6290 -0.5522
  626MOL0     H84503   5.113   8.481   7.693 -3.0238 -1.1744 -2.2463
  626MOL0     H84504   4.982   8.276   7.671  1.4771 -0.0735 -0.0582
  626MOL0     H84505   4.936   8.284   7.837 -0.5241  0.0283  0.3979
  626MOL0     H84506   5.181   8.239   7.906 -1.4595 -0.8372  0.0047
  626MOL0     H84507   5.220   8.220   7.734 -3.7781 -1.1605 -4.6948
  626MOL0     H84508   5.068   7.850   7.825 -0.0301  0.8436  3.2362
  626MOL0     H84509   4.753   8.458   7.436  2.6682  0.2258  0.7348
  626MOL0     H84510   4.528   8.500   7.383 -1.1938 -1.5226  2.0740
  627MOL0     O84511   8.392   6.564   5.365  0.0715 -0.1299 -0.0833
  627MOL0     C84512   8.336   6.630   5.456  0.7234 -0.2288 -0.2743
  627MOL0     O84513   8.208   6.618   5.495 -0.3505  0.6766  1.1569
  627MOL0     C84514   8.122   6.576   5.396 -1.2623 -0.7091  0.8658
  627MOL0     C84515   8.010   6.647   5.362  0.3966 -0.8478  0.4699
  627MOL0     C84516   7.916   6.610   5.265 -0.3768 -1.2450 -0.4322
  627MOL0     C84517   7.927   6.486   5.208 -0.5860  0.7279  1.0130
  627MOL0     O84518   7.836   6.441   5.111 -0.2193 -0.1697  1.1169
  627MOL0     C84519   7.841   6.311   5.050 -0.0021 -0.2505  0.4309
  627MOL0     C84520   7.757   6.295   4.927  0.0142 -0.2181  0.0378
  627MOL0     C84521   7.611   6.268   4.951  1.1968 -0.0548 -0.1226
  627MOL0     C84522   7.518   6.394   4.999  0.1610  0.3990  1.0602
  627MOL0     C84523   7.368   6.355   5.005  0.1349  1.4886 -0.1367
  627MOL0     C84524   7.255   6.442   5.070  0.4872 -0.5101 -0.4269
  627MOL0     C84525   7.229   6.568   4.982  0.0218 -0.3653 -0.6429
  627MOL0     C84526   7.088   6.624   4.998  0.5209  0.1833  0.0522
  627MOL0     N84527   7.072   6.756   4.925  0.5119 -0.1427  0.0917
  627MOL0     C84528   7.041   6.757   4.793  0.8826  0.1520  1.0206
  627MOL0     C84529   7.011   6.883   4.752  0.2215  0.1993 -0.2051
  627MOL0     C84530   6.992   6.939   4.617 -0.3270 -0.2537  0.0721
  627MOL0     C84531   7.113   7.014   4.566  0.0280  0.6711  0.4070
  627MOL0     C84532   7.145   7.010   4.417  0.1220  0.6617  0.1958
  627MOL0     C84533   7.023   7.006   4.322  1.0738 -0.7726 -0.2449
  627MOL0     O84534   6.925   7.113   4.337  0.4669 -0.2201 -0.2255
  627MOL0     C84535   6.970   7.232   4.289 -0.9465  0.6469 -0.7448
  627MOL0     C84536   6.986   7.249   4.151 -0.5486  0.9707  0.4757
  627MOL0     C84537   7.026   7.374   4.098 -1.0251  0.1798 -1.0343
  627MOL0     C84538   7.048   7.382   3.950  0.2328  0.0104 -0.7241
  627MOL0     C84539   7.052   7.484   4.191  0.3111  0.1240 -0.0301
  627MOL0     C84540   7.103   7.612   4.155 -0.4494  0.7240 -0.3465
  627MOL0     O84541   7.192   7.622   4.044  0.5419 -0.0297 -0.1731
  627MOL0     C84542   7.305   7.702   4.053 -0.1038  0.4320 -0.1520
  627MOL0     C84543   7.383   7.704   3.939  0.3231  0.0382  0.6817
  627MOL0     C84544   7.495   7.783   3.928 -0.3781  0.0241  0.8294
  627MOL0     C84545   7.551   7.843   4.048 -0.1578 -0.5217  0.6182
  627MOL0     O84546   7.660   7.929   4.042 -0.0038  0.2333 -0.0073
  627MOL0     C84547   7.770   7.898   3.957 -0.0328 -0.2912 -0.2471
  627MOL0     C84548   7.851   7.785   4.027 -0.1332 -0.5701 -0.2619
  627MOL0     C84549   8.000   7.777   3.990  0.1416  0.8099  0.9380
  627MOL0     C84550   8.056   7.650   4.055 -0.5456 -0.7313  0.5209
  627MOL0     C84551   8.208   7.618   4.037 -0.7472  0.6020  0.1542
  627MOL0     C84552   8.304   7.712   4.111  0.6681  0.4370  0.2062
  627MOL0     C84553   8.443   7.666   4.096 -0.0114 -0.0892 -0.4095
  627MOL0     C84554   8.537   7.765   4.174  0.1534 -0.3894 -0.5279
  627MOL0    Cl84555   8.555   7.702   4.341  0.3388 -0.2764  0.1430
  627MOL0     C84556   7.485   7.828   4.174  0.4677  0.3990 -0.2130
  627MOL0     C84557   7.358   7.770   4.169  0.8816  0.1327 -0.2574
  627MOL0     O84558   7.061   7.706   4.218  0.4107  0.1288 -1.0323
  627MOL0     C84559   7.038   7.460   4.334  0.2149  0.1158  0.2185
  627MOL0     C84560   6.996   7.331   4.381 -0.5501 -1.1756  0.5301
  627MOL0     N84561   7.011   6.959   4.869 -0.5701  0.3177 -0.0995
  627MOL0     N84562   7.052   6.884   4.972 -0.4225 -0.0133  0.0079
  627MOL0     C84563   8.029   6.396   5.254  0.6723 -0.9769 -1.0473
  627MOL0     C84564   8.127   6.448   5.348 -0.2069 -0.1644  0.5913
  627MOL0     C84565   8.431   6.723   5.526 -0.0613  0.0706  0.1651
  627MOL0     C84566   8.380   6.808   5.628  0.5289  0.1088 -0.5075
  627MOL0     C84567   8.471   6.892   5.690  0.3907  0.1593  0.8923
  627MOL0     C84568   8.614   6.889   5.672 -0.5969 -0.1827 -0.8488
  627MOL0     O84569   8.692   6.968   5.756 -0.0665 -0.2153 -0.2337
  627MOL0     C84570   8.839   6.988   5.734  1.2834 -0.1463 -0.5174
  627MOL0     C84571   8.878   7.134   5.774 -0.3000 -0.1019 -0.7580
  627MOL0     C84572   8.878   7.158   5.920  0.0870 -0.2763 -0.9435
  627MOL0     C84573   8.992   7.241   5.971 -0.0237  0.9034  0.6874
  627MOL0     C84574   8.956   7.375   5.934 -0.1998  0.3900 -0.0030
  627MOL0     C84575   8.926   7.491   5.905 -0.7744 -0.0011  0.8098
  627MOL0     C84576   8.667   6.805   5.578 -0.7118  0.1591  1.2058
  627MOL0     C84577   8.576   6.720   5.504  0.8140 -0.6853  0.8309
  627MOL0     H84578   7.988   6.738   5.417 -1.4026 -1.2537  0.4744
  627MOL0     H84579   7.854   6.689   5.224 -1.7910 -1.4037  1.3361
  627MOL0     H84580   7.946   6.288   5.029  0.3288 -0.0636  1.8054
  627MOL0     H84581   7.817   6.233   5.123 -0.1201  0.7201  1.4572
  627MOL0     H84582   7.766   6.388   4.870  3.3119  0.8307  1.9894
  627MOL0     H84583   7.802   6.206   4.882  2.1229  0.2463  1.0529
  627MOL0     H84584   7.570   6.234   4.855  1.1621  2.9474 -1.2763
  627MOL0     H84585   7.602   6.188   5.025 -0.4238 -0.8255 -1.0863
  627MOL0     H84586   7.548   6.443   5.092  2.3627  4.3134 -1.4255
  627MOL0     H84587   7.537   6.464   4.917  0.6345 -3.6467 -2.6640
  627MOL0     H84588   7.339   6.314   4.908  2.4573 -0.4872 -0.0962
  627MOL0     H84589   7.373   6.260   5.059  1.1535  1.4659 -0.2482
  627MOL0     H84590   7.162   6.384   5.074  0.0927  0.0841 -0.8392
  627MOL0     H84591   7.288   6.461   5.172  0.9773  0.3002 -0.7317
  627MOL0     H84592   7.313   6.635   5.006  0.8638 -1.3732 -0.7154
  627MOL0     H84593   7.252   6.544   4.877  1.2499 -1.7305 -0.0978
  627MOL0     H84594   7.078   6.636   5.106 -0.9441 -1.5695  0.1737
  627MOL0     H84595   7.015   6.549   4.964  2.8254 -1.0418 -2.6217
  627MOL0     H84596   7.031   6.672   4.726 -2.0956  0.9225  0.3657
  627MOL0     H84597   6.970   6.852   4.554  1.6505 -2.1705  1.8659
  627MOL0     H84598   6.903   7.001   4.603 -0.0439  0.7119  2.2460
  627MOL0     H84599   7.198   6.967   4.616  0.9420 -1.0799 -2.5053
  627MOL0     H84600   7.094   7.119   4.588 -1.3934  1.1074 -2.4033
  627MOL0     H84601   7.207   6.920   4.403 -0.6315 -0.3482  2.8292
  627MOL0     H84602   7.209   7.096   4.394  1.0739 -0.1604 -0.3717
  627MOL0     H84603   6.971   6.911   4.335  1.2521 -1.1701 -2.1885
  627MOL0     H84604   7.059   7.004   4.219 -0.0691  0.7272 -0.7107
  627MOL0     H84605   6.963   7.174   4.075  5.5167  0.5155 -1.4697
  627MOL0     H84606   7.005   7.290   3.909  3.0575 -2.4029  1.2325
  627MOL0     H84607   6.993   7.469   3.913  0.0792 -0.3433 -1.3278
  627MOL0     H84608   7.150   7.394   3.912  0.4395  1.9010  0.2868
  627MOL0     H84609   7.338   7.661   3.851  1.8976  0.8240 -0.5529
  627MOL0     H84610   7.548   7.808   3.836 -4.3169  3.3972 -0.8527
  627MOL0     H84611   7.742   7.870   3.855 -1.2883  0.1607 -0.0471
  627MOL0     H84612   7.825   7.992   3.944  0.4111 -0.6027 -0.6207
  627MOL0     H84613   7.839   7.792   4.135 -1.3672  1.9059 -0.4936
  627MOL0     H84614   7.817   7.691   3.983  1.7455 -0.0383 -3.0868
  627MOL0     H84615   8.057   7.865   4.020  3.6283 -1.2959  1.0233
  627MOL0     H84616   8.020   7.775   3.883 -1.3166  4.1102  0.4623
  627MOL0     H84617   8.043   7.667   4.162  1.4814 -0.8104  0.8252
  627MOL0     H84618   7.998   7.570   4.008 -0.1643  1.1234 -3.5805
  627MOL0     H84619   8.215   7.618   3.927 -1.0064 -3.8758 -0.0340
  627MOL0     H84620   8.233   7.514   4.059  0.4730  0.0051 -3.2948
  627MOL0     H84621   8.292   7.805   4.054 -0.8878  0.5182  0.6393
  627MOL0     H84622   8.267   7.730   4.212  1.2269  1.5165  0.2411
  627MOL0     H84623   8.474   7.671   3.991  1.1424  0.2552 -0.0659
  627MOL0     H84624   8.453   7.565   4.138 -2.7528 -0.0411  0.5561
  627MOL0     H84625   8.492   7.865   4.184 -1.9442 -1.0512 -2.5601
  627MOL0     H84626   8.637   7.780   4.133 -0.0477 -0.4980 -1.0711
  627MOL0     H84627   7.525   7.887   4.255  0.0461  0.9261 -0.3856
  627MOL0     H84628   7.309   7.763   4.266 -1.8978  2.1488 -1.4042
  627MOL0     H84629   7.055   7.543   4.402  0.9631  1.1664 -1.1990
  627MOL0     H84630   6.989   7.311   4.487  1.9594 -1.6964  0.6623
  627MOL0     H84631   8.047   6.296   5.214  1.4714 -0.7645 -1.2375
  627MOL0     H84632   8.214   6.384   5.360 -0.8672 -1.3654 -0.7010
  627MOL0     H84633   8.273   6.810   5.649  1.0018  1.6921  2.1826
  627MOL0     H84634   8.442   6.975   5.754  0.3267  0.5259  0.4029
  627MOL0     H84635   8.898   6.912   5.786  3.0146 -0.7114 -3.1021
  627MOL0     H84636   8.865   6.984   5.628  0.7544  0.3047 -0.6681
  627MOL0     H84637   8.824   7.218   5.728 -0.4547  0.2191 -0.0008
  627MOL0     H84638   8.977   7.143   5.730  0.5541  2.2257  1.4095
  627MOL0     H84639   8.887   7.058   5.963 -2.7384 -0.3375 -0.2787
  627MOL0     H84640   8.780   7.201   5.945  0.5001  1.8129 -2.6283
  627MOL0     H84641   9.082   7.199   5.925 -0.2804 -1.1186  1.8898
  627MOL0     H84642   8.992   7.235   6.080  0.0268  1.3159  0.7106
  627MOL0     H84643   8.912   7.598   5.905 -0.2465  0.0692  1.1773
  627MOL0     H84644   8.772   6.791   5.553 -0.8508  1.5099 -0.3470
  627MOL0     H84645   8.609   6.658   5.421  3.6922  0.9674  0.6310
  628MOL0     O84646   7.758  10.379   9.682 -0.4531  0.0763 -0.3134
  628MOL0     C84647   7.822  10.343   9.579 -0.2125  0.0363  0.8807
  628MOL0     O84648   7.899  10.433   9.499  0.6060 -0.4367 -0.4055
  628MOL0     C84649   7.874  10.566   9.529 -0.1765 -0.0692 -0.4803
  628MOL0     C84650   7.967  10.644   9.595 -0.3590  0.1142  0.1355
  628MOL0     C84651   7.951  10.780   9.614 -0.3597  1.2468 -0.5185
  628MOL0     C84652   7.828  10.847   9.570  0.7916  0.3103 -0.2522
  628MOL0     O84653   7.811  10.984   9.580 -0.1844  0.2331 -0.0984
  628MOL0     C84654   7.933  11.055   9.556  0.9160 -0.4701 -0.7462
  628MOL0     C84655   7.891  11.188   9.490  0.1747 -0.6410  0.5191
  628MOL0     C84656   7.832  11.279   9.589  0.0732 -0.9040 -0.4991
  628MOL0     C84657   7.848  11.432   9.541 -0.2588 -0.9955  0.2360
  628MOL0     C84658   7.791  11.529   9.645  0.4325 -0.3526 -0.1673
  628MOL0     C84659   7.844  11.669   9.615  0.4914 -0.8642 -0.6525
  628MOL0     C84660   7.823  11.767   9.735  0.8369 -0.0092 -1.0643
  628MOL0     C84661   7.766  11.909   9.687 -0.0212 -0.1048  0.6831
  628MOL0     N84662   7.891  11.973   9.634 -0.1513 -0.2056  0.0058
  628MOL0     C84663   7.953  11.930   9.517  0.7344 -0.3502  0.2124
  628MOL0     C84664   8.083  11.978   9.536  0.6115 -0.8739 -0.5566
  628MOL0     C84665   8.213  11.970   9.457  1.2111 -0.1843  0.3991
  628MOL0     C84666   8.276  11.831   9.486  0.1318 -0.2739  0.7390
  628MOL0     C84667   8.365  11.838   9.620  0.0958  0.6974  0.6270
  628MOL0     C84668   8.433  11.698   9.637 -0.1964 -0.1410  0.2282
  628MOL0     O84669   8.340  11.595   9.667  0.1561  0.4286  0.9083
  628MOL0     C84670   8.374  11.467   9.635 -0.4134 -0.1698 -0.7197
  628MOL0     C84671   8.499  11.417   9.638 -0.3512 -1.6030 -0.2435
  628MOL0     C84672   8.529  11.283   9.610  0.4924  0.4486  0.0596
  628MOL0     C84673   8.673  11.238   9.628 -0.3027 -0.1393  1.1213
  628MOL0     C84674   8.434  11.202   9.560  0.1084 -0.0985  0.0577
  628MOL0     C84675   8.459  11.067   9.498  0.8035 -0.6030  0.0851
  628MOL0     O84676   8.357  10.982   9.489 -0.0994 -0.1282 -0.8407
  628MOL0     C84677   8.372  10.853   9.434 -0.3566 -1.2630  0.0804
  628MOL0     C84678   8.487  10.776   9.416 -0.3672  0.1448  1.4730
  628MOL0     C84679   8.477  10.642   9.373 -0.4087  0.0005 -0.8337
  628MOL0     C84680   8.363  10.583   9.349  0.5457  0.2113  0.0662
  628MOL0     O84681   8.361  10.445   9.311 -0.0408 -1.1832  0.0690
  628MOL0     C84682   8.235  10.381   9.301  0.0029  1.1117 -0.4171
  628MOL0     C84683   8.180  10.399   9.176 -0.5951 -0.3097  0.6603
  628MOL0     C84684   8.041  10.340   9.145  0.2575 -0.6303 -0.4160
  628MOL0     C84685   7.994  10.414   9.016  0.3130  0.6343  0.2532
  628MOL0     C84686   7.855  10.376   8.975  0.6156  0.1995  0.8707
  628MOL0     C84687   7.748  10.402   9.081 -0.8774 -0.0361  0.1654
  628MOL0     C84688   7.609  10.370   9.029  0.3922 -0.6277  0.2040
  628MOL0     C84689   7.500  10.340   9.132 -0.0272 -0.4055  0.1205
  628MOL0    Cl84690   7.484  10.475   9.245  0.0272  0.1329 -0.1286
  628MOL0     C84691   8.248  10.652   9.367  0.0293  0.3461 -0.4523
  628MOL0     C84692   8.258  10.780   9.422  0.7884 -0.6779 -0.4061
  628MOL0     O84693   8.568  11.048   9.437  0.4312 -1.0779 -0.2914
  628MOL0     C84694   8.301  11.248   9.564 -0.8571  0.8999 -0.4593
  628MOL0     C84695   8.270  11.385   9.594  0.1579  0.6728 -0.7152
  628MOL0     N84696   8.084  12.047   9.659 -0.3824  1.0060 -0.4259
  628MOL0     N84697   7.968  12.051   9.713 -0.1898 -0.1784 -0.0333
  628MOL0     C84698   7.734  10.765   9.510 -0.2351 -0.7544 -0.5119
  628MOL0     C84699   7.755  10.631   9.481 -0.2943  0.6506 -1.0564
  628MOL0     C84700   7.805  10.200   9.533 -0.5599  0.4416  0.0841
  628MOL0     C84701   7.915  10.145   9.450  0.3997 -0.5420 -0.9172
  628MOL0     C84702   7.916  10.008   9.411 -0.4929 -0.0835  0.1215
  628MOL0     C84703   7.806   9.927   9.436 -0.8693  0.5844  0.2963
  628MOL0     O84704   7.795   9.793   9.404 -0.1520 -0.6971  0.3518
  628MOL0     C84705   7.906   9.738   9.336 -1.2892 -0.5665  0.3389
  628MOL0     C84706   7.885   9.590   9.328  0.1547  0.4065 -0.4411
  628MOL0     C84707   7.884   9.522   9.462  0.5175  0.8483 -0.0231
  628MOL0     C84708   7.885   9.374   9.424 -0.4382  0.8805  0.3817
  628MOL0     C84709   7.858   9.286   9.534 -0.9040 -0.5621 -0.2390
  628MOL0     C84710   7.856   9.215   9.627  0.5682  0.3495 -0.4619
  628MOL0     C84711   7.705   9.974   9.520  0.7211 -0.8454 -0.3878
  628MOL0     C84712   7.707  10.103   9.571  1.0473  0.5286  0.0648
  628MOL0     H84713   8.064  10.597   9.611 -0.9822 -2.5385 -2.7857
  628MOL0     H84714   8.032  10.839   9.658  0.6914 -0.0275 -0.6993
  628MOL0     H84715   7.974  11.084   9.653  1.0916 -1.4636 -0.5176
  628MOL0     H84716   8.003  11.003   9.490 -0.6591 -3.3094 -0.3532
  628MOL0     H84717   7.983  11.235   9.453 -0.3970  0.5727  0.5662
  628MOL0     H84718   7.814  11.172   9.414 -0.5299  1.9138  0.6097
  628MOL0     H84719   7.725  11.257   9.596 -0.5404  2.0703  1.1768
  628MOL0     H84720   7.869  11.264   9.691 -0.9057 -2.1146 -0.2843
  628MOL0     H84721   7.953  11.459   9.531 -0.8495  3.0612  2.8461
  628MOL0     H84722   7.805  11.449   9.442 -0.7313 -1.7542  0.3013
  628MOL0     H84723   7.684  11.534   9.623  0.5042 -3.8304 -2.0975
  628MOL0     H84724   7.805  11.503   9.750  1.7376  0.2883 -0.1709
  628MOL0     H84725   7.952  11.652   9.607  0.8942  1.8366 -1.8833
  628MOL0     H84726   7.800  11.707   9.522 -0.9460  0.4298  0.5069
  628MOL0     H84727   7.738  11.724   9.788  0.3152  1.5316 -0.6066
  628MOL0     H84728   7.907  11.768   9.806  2.1031 -1.2295 -2.4710
  628MOL0     H84729   7.725  11.969   9.769  0.4351 -0.2900  1.0450
  628MOL0     H84730   7.679  11.910   9.620 -0.8603 -0.8785  1.7361
  628MOL0     H84731   7.926  11.860   9.438  0.6224 -0.7295  0.5815
  628MOL0     H84732   8.199  11.988   9.350  2.3425  0.7824  0.3856
  628MOL0     H84733   8.286  12.045   9.490  2.5941 -2.0471  1.7774
  628MOL0     H84734   8.340  11.805   9.401  0.0454 -0.6228  0.7790
  628MOL0     H84735   8.197  11.755   9.489  3.3850 -4.0736 -0.4873
  628MOL0     H84736   8.307  11.853   9.712 -1.7669 -1.1248 -0.1821
  628MOL0     H84737   8.446  11.912   9.618 -0.1087  0.9800  1.8713
  628MOL0     H84738   8.514  11.709   9.710  0.9879 -1.4959 -0.8054
  628MOL0     H84739   8.475  11.674   9.538 -1.2944  0.5837 -0.4248
  628MOL0     H84740   8.582  11.485   9.656 -0.3019 -1.1151 -2.1225
  628MOL0     H84741   8.730  11.229   9.536 -0.0365  2.5000  0.9790
  628MOL0     H84742   8.722  11.320   9.682  0.9260 -1.8637  2.7878
  628MOL0     H84743   8.690  11.150   9.691 -2.3697 -0.1678  1.7176
  628MOL0     H84744   8.590  10.806   9.433  0.6832 -1.8485 -0.7686
  628MOL0     H84745   8.575  10.598   9.359 -1.2609 -2.0856 -0.5541
  628MOL0     H84746   8.262  10.276   9.315 -0.4778  1.2723  2.3678
  628MOL0     H84747   8.171  10.395   9.389  4.2314  2.1341  2.8155
  628MOL0     H84748   8.172  10.506   9.153  0.8005  0.2484  2.4622
  628MOL0     H84749   8.241  10.348   9.101 -1.3483  1.0749 -0.9641
  628MOL0     H84750   7.976  10.358   9.231  0.5785  0.8788 -0.4663
  628MOL0     H84751   8.048  10.231   9.135  3.3054 -0.3986 -2.3254
  628MOL0     H84752   7.995  10.521   9.039  1.1376  0.9214 -1.0262
  628MOL0     H84753   8.067  10.398   8.936 -0.9848 -0.2788 -0.7806
  628MOL0     H84754   7.863  10.269   8.951 -1.5261 -0.1267  1.3765
  628MOL0     H84755   7.836  10.433   8.883  0.4368  2.2822  2.1405
  628MOL0     H84756   7.751  10.339   9.171 -1.9106  1.6783  1.4623
  628MOL0     H84757   7.749  10.505   9.117 -0.6754  0.8343 -2.1486
  628MOL0     H84758   7.608  10.292   8.952  0.4107  0.7860 -1.2759
  628MOL0     H84759   7.586  10.459   8.970 -2.1517 -0.1842  1.6870
  628MOL0     H84760   7.530  10.250   9.185  1.3964 -0.8013 -1.2903
  628MOL0     H84761   7.407  10.309   9.084 -1.3682 -0.0725  2.3858
  628MOL0     H84762   8.151  10.622   9.329  1.0144  1.1404 -3.9809
  628MOL0     H84763   8.163  10.832   9.428 -0.1372 -1.6918 -3.8814
  628MOL0     H84764   8.224  11.185   9.520  0.1527  0.4185 -1.5775
  628MOL0     H84765   8.170  11.420   9.570 -1.8681 -2.3465  2.4157
  628MOL0     H84766   7.640  10.808   9.478 -0.5898 -2.4484 -1.8967
  628MOL0     H84767   7.681  10.563   9.440  1.4098 -1.0058 -1.5155
  628MOL0     H84768   7.992  10.207   9.406  0.6660 -1.8247 -2.3578
  628MOL0     H84769   8.006   9.988   9.354  0.8491  3.8942  0.5087
  628MOL0     H84770   7.927   9.767   9.232  0.7077  0.2983  0.9186
  628MOL0     H84771   8.005   9.745   9.383 -0.5826 -1.5265 -0.9444
  628MOL0     H84772   7.967   9.546   9.269  0.9897  0.7240  0.4538
  628MOL0     H84773   7.793   9.572   9.273 -1.2683 -1.1718  2.2493
  628MOL0     H84774   7.796   9.550   9.521 -0.8224 -3.8471  0.6126
  628MOL0     H84775   7.970   9.541   9.526  0.4975 -0.1494  0.3217
  628MOL0     H84776   7.977   9.353   9.369 -1.8705  0.4253 -2.0084
  628MOL0     H84777   7.810   9.343   9.350  1.9594 -2.3696 -0.9372
  628MOL0     H84778   7.850   9.157   9.717 -3.0702  4.6340  2.5338
  628MOL0     H84779   7.621   9.914   9.555  0.4663 -0.2292  0.0731
  628MOL0     H84780   7.634  10.146   9.639 -0.3797 -1.4744 -0.1043
  629MOL0     O84781   6.736   7.421   9.199  0.0078  0.0842 -0.2455
  629MOL0     C84782   6.850   7.381   9.175  1.1274 -0.1591 -0.4038
  629MOL0     O84783   6.954   7.356   9.270 -0.6952  0.1438 -0.4274
  629MOL0     C84784   6.922   7.347   9.402  0.9649 -0.3714 -0.9408
  629MOL0     C84785   6.851   7.242   9.456  0.7237 -0.3675 -0.0092
  629MOL0     C84786   6.827   7.238   9.595  0.3924 -0.0245  0.7217
  629MOL0     C84787   6.862   7.347   9.672  0.1049  0.2727 -0.3825
  629MOL0     O84788   6.823   7.332   9.803  0.6797  0.5476 -0.1206
  629MOL0     C84789   6.896   7.402   9.906 -0.0500  0.2723  0.3209
  629MOL0     C84790   6.849   7.349  10.041 -1.0272  0.4465  0.4859
  629MOL0     C84791   6.858   7.187  10.057 -0.7968  0.6453  0.1871
  629MOL0     C84792   7.007   7.138  10.027 -0.0692  0.4012  0.2779
  629MOL0     C84793   7.007   6.979  10.038  0.0768 -0.0883 -0.3514
  629MOL0     C84794   7.154   6.925  10.036 -0.4356  0.1733 -0.7415
  629MOL0     C84795   7.153   6.775  10.061  0.6409  0.6956 -0.7792
  629MOL0     C84796   7.124   6.688   9.942  0.3333  0.0728  0.7589
  629MOL0     N84797   7.172   6.548   9.963  0.4415 -0.9135  0.6485
  629MOL0     C84798   7.293   6.509   9.993 -0.7168  0.3864  0.2186
  629MOL0     C84799   7.290   6.378  10.002  0.0155  0.1523  0.6954
  629MOL0     C84800   7.411   6.294  10.006  0.3960  0.4618  1.0170
  629MOL0     C84801   7.455   6.246   9.869 -0.5524  1.0299  0.5583
  629MOL0     C84802   7.409   6.104   9.819 -0.7902  0.6054 -0.0556
  629MOL0     C84803   7.415   6.085   9.671 -0.3713 -0.3774  0.0881
  629MOL0     O84804   7.557   6.086   9.629 -0.2930  0.0655  0.2559
  629MOL0     C84805   7.615   5.972   9.563 -0.7524 -0.2963 -0.6015
  629MOL0     C84806   7.540   5.881   9.484 -0.6636 -0.4494  1.2726
  629MOL0     C84807   7.613   5.791   9.397  0.0393 -0.7214  0.0812
  629MOL0     C84808   7.524   5.721   9.299  0.5791  0.5872 -0.2816
  629MOL0     C84809   7.752   5.784   9.421 -0.1457 -0.7354  0.5801
  629MOL0     C84810   7.842   5.699   9.337  0.4101  0.2475  0.1935
  629MOL0     O84811   7.950   5.646   9.403  0.4533  0.5186 -0.0495
  629MOL0     C84812   8.038   5.553   9.350 -0.5106  0.2429 -0.1902
  629MOL0     C84813   8.025   5.472   9.234 -0.4757 -0.1230  0.1864
  629MOL0     C84814   8.121   5.380   9.183  0.4606 -1.0538  0.2565
  629MOL0     C84815   8.242   5.379   9.249  0.2726 -0.1580 -0.3702
  629MOL0     O84816   8.353   5.305   9.209 -0.3825 -0.7182 -0.0524
  629MOL0     C84817   8.388   5.324   9.077 -1.2017  0.1468  0.7998
  629MOL0     C84818   8.537   5.293   9.057 -0.5087 -0.7506  0.9433
  629MOL0     C84819   8.624   5.417   9.087 -0.2877  0.5229 -0.2058
  629MOL0     C84820   8.769   5.396   9.063 -0.0770  0.2675  0.1785
  629MOL0     C84821   8.855   5.517   9.084  0.1813 -0.8485  0.5250
  629MOL0     C84822   8.822   5.640   9.006  0.7238  0.1725  0.0501
  629MOL0     C84823   8.932   5.749   9.019 -0.0691 -0.1066 -0.2845
  629MOL0     C84824   8.891   5.895   8.995 -0.6155  0.2288 -0.1083
  629MOL0    Cl84825   9.033   5.999   9.040 -0.1807 -0.3856 -0.4104
  629MOL0     C84826   8.256   5.452   9.366 -0.2157  0.7080  0.1129
  629MOL0     C84827   8.157   5.537   9.418  0.9456  1.0621 -0.0534
  629MOL0     O84828   7.825   5.699   9.214 -0.3297  0.0521  0.1510
  629MOL0     C84829   7.814   5.860   9.515  0.9418  0.6905  0.1336
  629MOL0     C84830   7.756   5.957   9.581  0.0427  0.0834 -0.0717
  629MOL0     N84831   7.154   6.341  10.006 -0.4600  0.7660  0.4879
  629MOL0     N84832   7.086   6.445   9.981  0.2641 -0.2972 -0.3983
  629MOL0     C84833   6.920   7.456   9.615  0.3121 -0.3583  0.8864
  629MOL0     C84834   6.949   7.456   9.478  0.2844  0.4659  0.2111
  629MOL0     C84835   6.892   7.354   9.035  0.1507 -0.4675  0.0142
  629MOL0     C84836   6.796   7.366   8.932  0.3879  1.1626  0.0027
  629MOL0     C84837   6.835   7.344   8.804 -1.2344  1.3230  0.8108
  629MOL0     C84838   6.962   7.317   8.761  0.1114 -0.2156 -0.2345
  629MOL0     O84839   6.985   7.290   8.630 -0.4861  0.2115  0.2854
  629MOL0     C84840   7.096   7.206   8.606 -0.5233 -0.0116  0.3565
  629MOL0     C84841   7.119   7.211   8.458  0.4405  0.7307 -0.1416
  629MOL0     C84842   7.162   7.358   8.419 -0.9244 -0.7042  0.6221
  629MOL0     C84843   7.234   7.359   8.288  0.2545  0.7658 -0.0947
  629MOL0     C84844   7.361   7.289   8.311 -0.2865 -0.6146 -0.1320
  629MOL0     C84845   7.468   7.237   8.297  1.1202 -0.6589 -0.1677
  629MOL0     C84846   7.061   7.309   8.870  0.0147 -0.7646  0.8436
  629MOL0     C84847   7.026   7.333   9.001  0.2817 -0.0478 -0.2386
  629MOL0     H84848   6.800   7.170   9.393 -0.5174  1.5807 -1.3416
  629MOL0     H84849   6.783   7.159   9.654  2.4041  0.1845  2.6326
  629MOL0     H84850   7.001   7.374   9.897  0.2478  1.7040 -1.2810
  629MOL0     H84851   6.885   7.509   9.887 -2.5082 -0.0903 -0.7315
  629MOL0     H84852   6.917   7.392  10.115 -2.1753  1.0985  1.2038
  629MOL0     H84853   6.749   7.387  10.063 -1.4411  1.5029 -2.6793
  629MOL0     H84854   6.831   7.162  10.160  0.1955 -1.4615 -0.0139
  629MOL0     H84855   6.798   7.129   9.986  1.5906 -1.4330 -0.2942
  629MOL0     H84856   7.047   7.167   9.929 -0.2151  1.6254  0.5639
  629MOL0     H84857   7.083   7.180  10.094  0.9496  1.0702 -1.2165
  629MOL0     H84858   6.976   6.955  10.140  5.2093 -0.6817  1.4019
  629MOL0     H84859   6.939   6.936   9.965 -1.7665 -1.4216  2.0252
  629MOL0     H84860   7.191   6.939   9.934  0.5866 -0.1526 -0.4302
  629MOL0     H84861   7.206   6.975  10.118 -0.2727 -0.3050 -0.5489
  629MOL0     H84862   7.249   6.748  10.107  0.2401  4.6982  3.1378
  629MOL0     H84863   7.069   6.750  10.126  0.9592 -2.1755 -1.3557
  629MOL0     H84864   7.170   6.731   9.853  2.1411  1.6866  2.3818
  629MOL0     H84865   7.015   6.686   9.935  0.3566  2.0503 -1.3633
  629MOL0     H84866   7.390   6.558   9.998 -1.0964  1.2851 -0.7647
  629MOL0     H84867   7.491   6.340  10.065 -0.9884  1.8655  1.8918
  629MOL0     H84868   7.392   6.207  10.070 -3.0806  0.0704 -0.3475
  629MOL0     H84869   7.564   6.240   9.879 -0.7223 -2.0459  1.7770
  629MOL0     H84870   7.427   6.321   9.794 -1.6521  1.7585  1.6761
  629MOL0     H84871   7.305   6.084   9.848 -0.9056  1.6465  0.3168
  629MOL0     H84872   7.459   6.026   9.876 -3.0317 -1.4435 -0.7075
  629MOL0     H84873   7.351   6.154   9.615 -0.4204 -1.1567 -0.8545
  629MOL0     H84874   7.373   5.986   9.651 -0.9073  0.0151 -0.7904
  629MOL0     H84875   7.435   5.897   9.465 -0.5596 -0.4832  0.6329
  629MOL0     H84876   7.471   5.798   9.242 -0.9731 -0.2459  0.0061
  629MOL0     H84877   7.582   5.658   9.231  1.1198  2.3689 -1.5646
  629MOL0     H84878   7.452   5.653   9.343  1.6895 -0.8606 -0.6285
  629MOL0     H84879   7.935   5.481   9.175 -0.4436  1.0864  0.2929
  629MOL0     H84880   8.088   5.316   9.102 -2.0838  0.5406 -0.0778
  629MOL0     H84881   8.322   5.261   9.017 -1.3612  0.9198  0.1459
  629MOL0     H84882   8.371   5.424   9.036 -0.3072 -1.6527 -4.7878
  629MOL0     H84883   8.563   5.218   9.133 -1.7242 -0.2324  1.9159
  629MOL0     H84884   8.557   5.264   8.954 -2.3907  0.9829  0.0321
  629MOL0     H84885   8.607   5.444   9.192  0.8182 -0.9070  0.3806
  629MOL0     H84886   8.582   5.493   9.020  0.9397  0.8958 -0.5699
  629MOL0     H84887   8.807   5.340   9.150 -0.1482 -0.1008 -0.0228
  629MOL0     H84888   8.796   5.357   8.964 -1.2419  0.7094 -0.3225
  629MOL0     H84889   8.956   5.497   9.046 -0.7643 -2.1793 -1.4570
  629MOL0     H84890   8.869   5.540   9.190 -2.1518 -0.9657  0.9099
  629MOL0     H84891   8.806   5.611   8.902  0.0535 -3.6723  1.0600
  629MOL0     H84892   8.728   5.681   9.044  0.4332 -2.9155  3.2155
  629MOL0     H84893   9.013   5.728   8.949  1.0622  6.9164 -1.8201
  629MOL0     H84894   8.966   5.733   9.122  0.7000 -5.3592 -1.0778
  629MOL0     H84895   8.810   5.922   9.064  0.6085  2.3094  0.5983
  629MOL0     H84896   8.860   5.926   8.895 -3.4974  0.5582  0.7727
  629MOL0     H84897   8.340   5.422   9.428 -1.6043 -1.2513  1.1609
  629MOL0     H84898   8.173   5.587   9.512 -0.8705  1.8605 -0.1223
  629MOL0     H84899   7.922   5.856   9.531  0.4317 -1.8249  4.0265
  629MOL0     H84900   7.812   6.015   9.654  1.2520 -1.7217  0.5147
  629MOL0     H84901   6.942   7.547   9.669 -0.5796 -0.6751  1.8131
  629MOL0     H84902   7.003   7.533   9.423  0.8036 -0.6249 -0.8653
  629MOL0     H84903   6.690   7.381   8.946 -0.3347 -3.1017  0.6133
  629MOL0     H84904   6.755   7.365   8.733 -2.4239 -2.1135  0.9289
  629MOL0     H84905   7.187   7.235   8.659  1.8804 -0.5661 -3.0954
  629MOL0     H84906   7.082   7.101   8.633  2.8107 -0.3966  0.9898
  629MOL0     H84907   7.038   7.170   8.396  1.0192 -1.3507  0.4135
  629MOL0     H84908   7.194   7.134   8.440 -1.7544 -2.2463  2.3410
  629MOL0     H84909   7.227   7.409   8.491  1.4475  0.4077 -2.0707
  629MOL0     H84910   7.068   7.415   8.414 -2.3418 -2.9420  0.7408
  629MOL0     H84911   7.253   7.456   8.241  1.5330  0.8400  0.5368
  629MOL0     H84912   7.175   7.300   8.217  0.7672 -1.9940  1.6189
  629MOL0     H84913   7.558   7.187   8.268  2.0608  1.2042 -0.6149
  629MOL0     H84914   7.167   7.298   8.852  0.5819  2.8530  1.0834
  629MOL0     H84915   7.112   7.342   9.066 -0.3764  0.5721  0.5650
  630MOL0     O84916   1.114   7.802   1.244 -0.1128 -0.5077 -0.2068
  630MOL0     C84917   1.021   7.883   1.251  0.8917 -0.1892 -0.3266
  630MOL0     O84918   1.001   7.999   1.182  0.1700 -0.7129 -0.1570
  630MOL0     C84919   1.094   8.019   1.085 -0.6227  0.1431 -0.4315
  630MOL0     C84920   1.059   7.965   0.957  0.4863  1.5131 -0.4992
  630MOL0     C84921   1.167   7.973   0.863 -0.1238  0.3030  0.4212
  630MOL0     C84922   1.280   8.060   0.874 -1.5554 -0.5827 -0.8521
  630MOL0     O84923   1.382   8.054   0.780  0.6373  1.0148 -0.9037
  630MOL0     C84924   1.478   8.161   0.779 -0.0839 -1.2759  0.7143
  630MOL0     C84925   1.575   8.147   0.662  0.0718  0.2675 -0.3109
  630MOL0     C84926   1.707   8.075   0.681  0.4698  0.8562 -1.7496
  630MOL0     C84927   1.815   8.089   0.574 -0.7805  0.2880 -0.0057
  630MOL0     C84928   1.893   8.217   0.550  0.1677  0.8373 -0.1022
  630MOL0     C84929   1.974   8.270   0.675 -0.3495  0.4263 -1.1482
  630MOL0     C84930   2.063   8.385   0.617  0.2063 -0.0302  0.6607
  630MOL0     C84931   2.178   8.408   0.715 -0.2442 -0.3969 -0.2996
  630MOL0     N84932   2.146   8.517   0.812 -0.1529 -0.2571 -1.0890
  630MOL0     C84933   2.185   8.647   0.797 -0.0008 -0.3466  0.4021
  630MOL0     C84934   2.116   8.714   0.895  0.5927  0.6889 -0.5374
  630MOL0     C84935   2.098   8.860   0.911 -0.2848  0.6131  1.0959
  630MOL0     C84936   1.979   8.929   0.836 -0.0304  0.0500  0.6643
  630MOL0     C84937   2.013   8.974   0.695  0.3107  0.0391 -0.2037
  630MOL0     C84938   1.893   8.998   0.606  0.7229  0.3326  0.1917
  630MOL0     O84939   1.937   9.026   0.471 -0.3207 -0.0932 -0.1165
  630MOL0     C84940   1.927   8.930   0.371 -0.1616 -0.7516 -0.1315
  630MOL0     C84941   2.000   8.936   0.252  0.5340 -0.3396 -0.0729
  630MOL0     C84942   1.999   8.836   0.149  0.6493 -0.0047 -0.0910
  630MOL0     C84943   2.075   8.867   0.019  0.0772  0.1901 -0.5419
  630MOL0     C84944   1.952   8.710   0.181  0.3223 -0.0575  0.1700
  630MOL0     C84945   1.982   8.578   0.103 -0.3895 -0.7285 -0.3869
  630MOL0     O84946   1.920   8.461   0.144  0.4702  0.2063 -0.1801
  630MOL0     C84947   1.966   8.336   0.108 -0.5059 -0.3150  0.5788
  630MOL0     C84948   2.059   8.303  -0.005 -1.0266  0.8283 -0.4621
  630MOL0     C84949   2.082   8.175  -0.042 -0.9432  0.3610  0.2834
  630MOL0     C84950   2.021   8.069   0.033  0.1072 -0.1117 -0.5255
  630MOL0     O84951   2.052   7.943  -0.007 -0.9289 -0.1955 -0.4201
  630MOL0     C84952   1.939   7.875  -0.059 -0.4834 -0.1944 -0.1953
  630MOL0     C84953   1.920   7.752   0.034 -0.1977 -0.6311  1.6718
  630MOL0     C84954   1.797   7.675  -0.000 -1.0928  0.5363  0.2817
  630MOL0     C84955   1.817   7.584  -0.128 -0.5779  0.6734  0.7111
  630MOL0     C84956   1.900   7.469  -0.094 -0.6337 -0.0988 -0.1728
  630MOL0     C84957   1.864   7.394   0.038 -0.3360 -0.2554 -0.1851
  630MOL0     C84958   1.925   7.259   0.032  0.2195 -0.0711  0.8794
  630MOL0     C84959   1.873   7.168   0.148  0.5957 -0.0371 -0.3499
  630MOL0    Cl84960   1.964   7.012   0.153 -0.5303  0.1924 -0.1267
  630MOL0     C84961   1.942   8.101   0.147  0.5495 -0.4452 -0.9996
  630MOL0     C84962   1.907   8.237   0.177  1.0206 -0.1715 -0.1989
  630MOL0     O84963   2.064   8.591   0.015  0.3237  0.6885  0.1450
  630MOL0     C84964   1.890   8.696   0.308 -0.5278  0.5511 -0.1102
  630MOL0     C84965   1.867   8.801   0.395 -0.1276  0.3625  0.1559
  630MOL0     N84966   2.046   8.621   0.964  0.8701 -0.0104  0.1805
  630MOL0     N84967   2.061   8.505   0.918  0.0725 -0.3981 -1.0668
  630MOL0     C84968   1.291   8.128   0.993 -0.2342 -0.0795 -0.9184
  630MOL0     C84969   1.205   8.098   1.103 -0.3265  0.0661 -0.4888
  630MOL0     C84970   0.912   7.845   1.345  0.1882 -0.5732 -0.8447
  630MOL0     C84971   0.927   7.744   1.439  0.1466  0.1698  0.5364
  630MOL0     C84972   0.819   7.713   1.520 -0.2302 -0.1132  0.2578
  630MOL0     C84973   0.697   7.783   1.519 -0.2047 -0.0716 -0.6932
  630MOL0     O84974   0.584   7.753   1.587 -0.1923  0.1876  0.4419
  630MOL0     C84975   0.605   7.669   1.703  0.2709 -0.8110  0.4091
  630MOL0     C84976   0.470   7.651   1.790 -0.7014 -0.0348 -0.2051
  630MOL0     C84977   0.427   7.791   1.848 -0.7489 -0.1376  0.2278
  630MOL0     C84978   0.505   7.832   1.976  0.1953 -0.7454 -0.0571
  630MOL0     C84979   0.423   7.916   2.074 -0.3584  0.2463  0.5729
  630MOL0     C84980   0.367   7.962   2.171  0.2124  0.1265  0.7141
  630MOL0     C84981   0.696   7.902   1.447  0.2600  0.1470  0.2443
  630MOL0     C84982   0.801   7.925   1.355  1.2295 -0.1119  0.0951
  630MOL0     H84983   0.979   7.892   0.951  3.7168 -2.5910  1.1662
  630MOL0     H84984   1.152   7.917   0.772 -1.9817 -0.3411  1.0773
  630MOL0     H84985   1.420   8.253   0.766  0.1094 -1.2040  0.3290
  630MOL0     H84986   1.531   8.171   0.874 -1.0838  2.2638  1.0789
  630MOL0     H84987   1.522   8.089   0.585  1.3172  0.4045 -1.3003
  630MOL0     H84988   1.605   8.247   0.630  1.3804 -0.7499 -2.5425
  630MOL0     H84989   1.757   8.123   0.766 -0.0778 -0.2478 -0.7795
  630MOL0     H84990   1.687   7.968   0.696  1.1257  0.8236 -1.0852
  630MOL0     H84991   1.888   8.016   0.610 -2.6024 -2.0539 -0.7806
  630MOL0     H84992   1.776   8.050   0.479 -1.3688 -5.2757  2.1142
  630MOL0     H84993   1.962   8.191   0.469 -1.3815  0.7079 -1.4324
  630MOL0     H84994   1.826   8.294   0.511  0.8528  0.8412 -1.3101
  630MOL0     H84995   1.900   8.305   0.747  2.1266 -2.5440  3.2558
  630MOL0     H84996   2.037   8.187   0.708  0.8958  0.0782 -4.0537
  630MOL0     H84997   2.116   8.350   0.528  2.8315  0.8882  1.7416
  630MOL0     H84998   2.006   8.477   0.599 -0.8317 -0.9462 -0.9052
  630MOL0     H84999   2.272   8.432   0.667 -1.0863 -0.3650 -1.9982
  630MOL0     H85000   2.194   8.318   0.775 -2.3877 -0.2213  0.6501
  630MOL0     H85001   2.238   8.698   0.718 -1.9350  2.7796  0.9418
  630MOL0     H85002   2.090   8.884   1.018 -1.8971  0.2311  1.0826
  630MOL0     H85003   2.194   8.905   0.882 -1.6258  1.1244 -3.3161
  630MOL0     H85004   1.966   9.017   0.901  2.1935 -2.3844  4.8115
  630MOL0     H85005   1.886   8.870   0.840  0.4551 -0.8599 -0.7810
  630MOL0     H85006   2.083   8.899   0.657  0.2446 -2.1461  3.5015
  630MOL0     H85007   2.073   9.063   0.716  1.2767 -1.2277  2.9872
  630MOL0     H85008   1.834   9.082   0.643  2.7695  1.6056  0.7269
  630MOL0     H85009   1.818   8.920   0.615 -1.7507  2.5306 -0.3290
  630MOL0     H85010   2.055   9.026   0.228  1.2659 -1.4666 -3.1151
  630MOL0     H85011   2.184   8.864   0.028  0.2896 -0.2864 -2.6022
  630MOL0     H85012   2.055   8.797  -0.064  2.1697 -0.7521 -0.3242
  630MOL0     H85013   2.063   8.969  -0.018 -0.0120  0.1153 -0.7232
  630MOL0     H85014   2.106   8.381  -0.063 -1.8071  0.9550 -0.9307
  630MOL0     H85015   2.144   8.151  -0.128 -1.6568  0.7460 -0.3502
  630MOL0     H85016   1.853   7.943  -0.050  1.5869  2.4149  1.3571
  630MOL0     H85017   1.951   7.837  -0.161 -0.7566  2.9942 -1.5364
  630MOL0     H85018   2.014   7.695   0.032 -0.2709 -0.7304  0.8171
  630MOL0     H85019   1.915   7.797   0.133  0.9580  0.8231  1.0958
  630MOL0     H85020   1.716   7.746  -0.020 -0.4129  0.8531 -1.5448
  630MOL0     H85021   1.768   7.615   0.086 -1.5364  0.3211 -0.0124
  630MOL0     H85022   1.719   7.550  -0.162  0.0868 -2.1913  1.4286
  630MOL0     H85023   1.859   7.640  -0.213  0.2294  1.7072  1.7603
  630MOL0     H85024   2.004   7.500  -0.086 -0.4095 -1.0104  0.6354
  630MOL0     H85025   1.888   7.394  -0.173  2.6016 -1.4061  0.4258
  630MOL0     H85026   1.908   7.456   0.117 -0.2942  1.8437 -1.7762
  630MOL0     H85027   1.756   7.388   0.053 -0.2711  1.2836  1.3157
  630MOL0     H85028   2.032   7.282   0.041  0.1960  1.8095 -2.3540
  630MOL0     H85029   1.909   7.201  -0.059  0.6778  2.9874 -1.3091
  630MOL0     H85030   1.766   7.153   0.139  0.7677 -0.3201 -2.2655
  630MOL0     H85031   1.884   7.215   0.246 -1.4617  1.0924 -0.6074
  630MOL0     H85032   1.902   8.020   0.207  0.0013 -0.6683 -1.6638
  630MOL0     H85033   1.839   8.273   0.253  0.3752  1.6979 -1.5901
  630MOL0     H85034   1.866   8.594   0.335  3.4790 -0.4315  0.4013
  630MOL0     H85035   1.810   8.785   0.486  2.6414  2.3567  2.4338
  630MOL0     H85036   1.384   8.178   1.019  0.0920 -0.5252 -1.2172
  630MOL0     H85037   1.207   8.136   1.205 -0.7981 -1.7683  0.2402
  630MOL0     H85038   1.011   7.676   1.430  1.1945  1.6437 -1.4265
  630MOL0     H85039   0.837   7.627   1.585  2.8364 -1.0050 -1.5661
  630MOL0     H85040   0.643   7.569   1.680 -3.4413 -2.2391 -0.2314
  630MOL0     H85041   0.688   7.712   1.759  1.1614 -0.7728 -0.9095
  630MOL0     H85042   0.482   7.585   1.876 -2.6206  0.7935  0.7613
  630MOL0     H85043   0.398   7.613   1.718 -2.8004 -2.2442  2.7967
  630MOL0     H85044   0.322   7.784   1.877 -1.1435  0.8412 -0.8597
  630MOL0     H85045   0.435   7.857   1.760  0.4563  0.2836  0.6321
  630MOL0     H85046   0.583   7.899   1.936  0.4814  0.1386  1.9007
  630MOL0     H85047   0.549   7.747   2.029  1.2016 -0.2541 -0.0820
  630MOL0     H85048   0.320   8.008   2.255 -3.3073  0.2604 -1.1296
  630MOL0     H85049   0.613   7.972   1.443  0.9203  0.9831  0.7361
  630MOL0     H85050   0.789   8.014   1.294 -0.6597 -0.5832 -0.2990
  631MOL0     O85051  10.576  10.441   9.080 -1.5708 -0.7655  0.0457
  631MOL0     C85052  10.663  10.532   9.085  0.0599  1.3441 -0.8195
  631MOL0     O85053  10.696  10.601   9.199 -0.3224 -0.3682  0.3901
  631MOL0     C85054  10.652  10.554   9.328 -0.0392  0.6924  0.5433
  631MOL0     C85055  10.747  10.554   9.427  0.3332  0.1094  0.5089
  631MOL0     C85056  10.712  10.517   9.559  0.0647 -0.0097 -0.7509
  631MOL0     C85057  10.580  10.472   9.596  0.0051  0.0604  0.2530
  631MOL0     O85058  10.540  10.439   9.723  0.5285  0.1135 -0.1179
  631MOL0     C85059  10.614  10.485   9.837  0.8384  0.3382  0.1346
  631MOL0     C85060  10.551  10.439   9.971  0.4826 -0.8093  0.4951
  631MOL0     C85061  10.638  10.461  10.091 -0.5119 -0.9054 -0.0048
  631MOL0     C85062  10.567  10.423  10.217  0.5398 -0.4800 -0.1599
  631MOL0     C85063  10.684  10.434  10.319  0.6455 -0.1077  0.1949
  631MOL0     C85064  10.630  10.384  10.463  0.3506  0.3709  0.4813
  631MOL0     C85065  10.747  10.366  10.570 -0.0139 -0.9234  0.8321
  631MOL0     C85066  10.790  10.508  10.612 -0.9648 -0.0591 -0.3853
  631MOL0     N85067  10.881  10.499  10.727 -0.4638 -0.1332  0.7771
  631MOL0     C85068  10.842  10.525  10.854  0.1163  0.0158 -0.8307
  631MOL0     C85069  10.932  10.457  10.933  0.3811 -0.0332  0.3607
  631MOL0     C85070  10.930  10.438  11.071  0.5575 -0.4913 -0.3088
  631MOL0     C85071  10.803  10.384  11.141  0.0054 -0.2144 -0.0297
  631MOL0     C85072  10.764  10.249  11.072 -0.8213 -0.2047  0.6230
  631MOL0     C85073  10.851  10.141  11.109  0.2125  0.2969  0.6270
  631MOL0     O85074  10.790  10.017  11.053 -0.2400  0.2553 -0.8050
  631MOL0     C85075  10.772  10.002  10.923 -0.2520  0.8386  0.7330
  631MOL0     C85076  10.664   9.928  10.865 -0.5330 -0.4170 -0.3215
  631MOL0     C85077  10.653   9.895  10.734  0.3603  0.2339 -0.6874
  631MOL0     C85078  10.546   9.791  10.697 -0.5899 -0.6474  0.3081
  631MOL0     C85079  10.734   9.958  10.638 -1.0281  0.0769  0.1230
  631MOL0     C85080  10.717   9.963  10.488 -0.1807 -0.5679 -0.0292
  631MOL0     O85081  10.793  10.058  10.414  0.0878  0.6124  0.2936
  631MOL0     C85082  10.804  10.061  10.277 -0.4095  0.1220  0.3611
  631MOL0     C85083  10.740   9.992  10.174  0.4476  0.1487 -0.0645
  631MOL0     C85084  10.784  10.014  10.045  0.1244 -0.5516  0.1007
  631MOL0     C85085  10.887  10.107  10.016 -0.2613  0.0005 -0.3194
  631MOL0     O85086  10.942  10.126   9.891  0.3845  0.1756 -0.4148
  631MOL0     C85087  10.882  10.077   9.779  0.1486 -0.4060  0.7303
  631MOL0     C85088  10.960  10.093   9.650  0.6233 -0.1836  0.1046
  631MOL0     C85089  11.107  10.046   9.672 -0.2652 -0.7682 -0.3264
  631MOL0     C85090  11.197  10.053   9.535  0.1305  0.4047 -0.1591
  631MOL0     C85091  11.333  10.003   9.572 -1.6446  0.1420  0.8615
  631MOL0     C85092  11.445  10.060   9.471  0.6631  0.5701 -1.0721
  631MOL0     C85093  11.413  10.012   9.325  0.8980  0.1678  0.2005
  631MOL0     C85094  11.541  10.042   9.243 -0.5863  0.5889  0.8818
  631MOL0    Cl85095  11.550  10.212   9.199 -0.0110  0.3961  0.5391
  631MOL0     C85096  10.942  10.181  10.112  0.0114 -0.7616 -0.2194
  631MOL0     C85097  10.903  10.156  10.245 -0.4911  0.9113  0.2287
  631MOL0     O85098  10.631   9.895  10.439 -0.0911 -0.0409  0.6738
  631MOL0     C85099  10.832  10.047  10.696  0.3971  0.5284 -0.0012
  631MOL0     C85100  10.857  10.063  10.832  0.2574  1.0168  0.5013
  631MOL0     N85101  11.030  10.399  10.847 -1.6587 -0.0501 -0.3419
  631MOL0     N85102  10.998  10.423  10.723  0.8197  0.2458 -0.3874
  631MOL0     C85103  10.483  10.482   9.496 -0.7134  0.5741 -0.8552
  631MOL0     C85104  10.519  10.521   9.362  1.1930  0.5326 -0.3742
  631MOL0     C85105  10.737  10.551   8.965 -0.4930 -0.1594 -0.2680
  631MOL0     C85106  10.699  10.499   8.834 -0.3261 -0.1475  0.2467
  631MOL0     C85107  10.778  10.535   8.717  0.9503  0.2003  0.0361
  631MOL0     C85108  10.882  10.629   8.719  0.1915 -0.2906 -0.2677
  631MOL0     O85109  10.952  10.681   8.612 -0.2472 -0.4003 -0.2266
  631MOL0     C85110  10.886  10.684   8.476 -0.5360  0.0376 -0.5804
  631MOL0     C85111  11.004  10.649   8.386 -0.5205 -0.9421  0.1403
  631MOL0     C85112  10.972  10.658   8.237  1.1495 -0.1599  0.1879
  631MOL0     C85113  10.964  10.808   8.197 -0.1247 -0.3782  0.1833
  631MOL0     C85114  10.933  10.829   8.053 -0.4709  0.0521  0.0294
  631MOL0     C85115  10.882  10.836   7.938  0.2218  0.3866 -0.4953
  631MOL0     C85116  10.924  10.666   8.844  0.4410 -1.4481  0.3076
  631MOL0     C85117  10.860  10.625   8.970 -0.0733  0.5782  0.3624
  631MOL0     H85118  10.845  10.592   9.401  0.7712 -3.1076 -3.5001
  631MOL0     H85119  10.783  10.524   9.641 -1.1677 -0.8369  0.4314
  631MOL0     H85120  10.713  10.438   9.832  0.4744 -0.8995  2.6714
  631MOL0     H85121  10.636  10.592   9.845  3.8770 -0.3218  3.2071
  631MOL0     H85122  10.460  10.495   9.994  0.7799 -1.2330  3.0520
  631MOL0     H85123  10.518  10.335   9.966 -1.5889 -0.3827  2.8465
  631MOL0     H85124  10.727  10.398  10.084  0.2658 -0.0656  1.8222
  631MOL0     H85125  10.662  10.567  10.089 -0.1253 -1.0005 -0.4167
  631MOL0     H85126  10.488  10.495  10.241 -1.8869 -2.3970 -1.9239
  631MOL0     H85127  10.537  10.318  10.208  1.6225 -1.0003  1.7200
  631MOL0     H85128  10.773  10.378  10.287  1.7997  1.6817  0.1682
  631MOL0     H85129  10.717  10.538  10.324  1.8968 -0.4352 -0.6014
  631MOL0     H85130  10.553  10.451  10.500 -1.8367 -2.1147  0.6892
  631MOL0     H85131  10.576  10.290  10.447  0.0265  0.9406 -2.4457
  631MOL0     H85132  10.709  10.304  10.652  1.0202 -0.2302  1.8857
  631MOL0     H85133  10.831  10.308  10.532  0.7780 -0.2429  1.4966
  631MOL0     H85134  10.699  10.553  10.653 -1.4821 -0.8149 -0.6737
  631MOL0     H85135  10.824  10.573  10.531 -2.4332  1.1910 -0.0533
  631MOL0     H85136  10.754  10.568  10.901  0.4554 -1.2188  1.0132
  631MOL0     H85137  11.019  10.380  11.097  2.0679  1.2084 -1.4198
  631MOL0     H85138  10.945  10.534  11.121 -0.2615  1.7577 -4.0144
  631MOL0     H85139  10.724  10.460  11.136 -1.6783 -1.8688  0.4892
  631MOL0     H85140  10.827  10.374  11.247  1.3127  0.6348 -0.2287
  631MOL0     H85141  10.756  10.254  10.963  1.0496 -1.8714  0.3460
  631MOL0     H85142  10.665  10.219  11.107 -0.3248 -3.1241 -0.2019
  631MOL0     H85143  10.852  10.116  11.216 -1.0353 -1.0570  0.3471
  631MOL0     H85144  10.954  10.155  11.075  0.6726  4.4252  3.0899
  631MOL0     H85145  10.587   9.883  10.927 -0.2677 -2.3105 -1.2845
  631MOL0     H85146  10.445   9.831  10.687 -0.0536  0.5261 -0.5592
  631MOL0     H85147  10.564   9.727  10.610 -1.0108  0.0710 -0.3212
  631MOL0     H85148  10.539   9.724  10.784  0.1972 -1.7333 -0.4373
  631MOL0     H85149  10.653   9.927  10.184 -2.4597  3.1185 -3.3412
  631MOL0     H85150  10.718   9.977   9.968 -0.8988  1.5392 -0.0923
  631MOL0     H85151  10.854   9.973   9.801 -1.4692 -0.4576 -1.3143
  631MOL0     H85152  10.792  10.137   9.767  0.2086 -0.9511 -4.3799
  631MOL0     H85153  10.921  10.019   9.581 -1.1009  1.3864 -0.7024
  631MOL0     H85154  10.952  10.189   9.597  0.4239 -1.1273 -1.6324
  631MOL0     H85155  11.114   9.946   9.715 -0.7690 -0.6355  0.0802
  631MOL0     H85156  11.154  10.111   9.747 -2.9369  0.9498 -0.0158
  631MOL0     H85157  11.156   9.988   9.458 -0.1270  0.2075  0.1454
  631MOL0     H85158  11.197  10.156   9.497  1.0508  0.2972 -0.4876
  631MOL0     H85159  11.323   9.895   9.562  1.1449 -0.0248 -1.1428
  631MOL0     H85160  11.360  10.050   9.667 -1.7538  1.0376  0.4625
  631MOL0     H85161  11.446  10.169   9.474  0.7969  0.5434  1.1096
  631MOL0     H85162  11.542  10.025   9.508  0.7916  0.7207 -1.2662
  631MOL0     H85163  11.336  10.071   9.275 -0.3539  0.4017  2.2864
  631MOL0     H85164  11.376   9.909   9.331 -3.2441  1.2766 -2.6284
  631MOL0     H85165  11.529   9.979   9.154  2.6476  0.6813  0.2590
  631MOL0     H85166  11.633  10.012   9.295 -0.4037 -3.3313 -1.2665
  631MOL0     H85167  11.029  10.241  10.088 -0.4781 -0.0644 -0.2767
  631MOL0     H85168  10.946  10.217  10.324 -2.3869 -1.3613  3.2431
  631MOL0     H85169  10.884  10.098  10.615 -1.2171  0.6540 -1.0152
  631MOL0     H85170  10.944  10.120  10.863  1.2699 -0.9253  1.3962
  631MOL0     H85171  10.380  10.458   9.522 -1.4607  0.4194 -3.6201
  631MOL0     H85172  10.437  10.513   9.291 -0.1374 -1.6163  1.2812
  631MOL0     H85173  10.620  10.430   8.809  1.5698 -2.3806  0.1399
  631MOL0     H85174  10.743  10.489   8.625  1.0784  0.2366 -0.0309
  631MOL0     H85175  10.797  10.620   8.474  0.0173 -0.8376  1.3396
  631MOL0     H85176  10.850  10.785   8.455 -0.7587  0.0512 -0.1365
  631MOL0     H85177  11.045  10.550   8.404 -2.3044 -1.7601 -0.0902
  631MOL0     H85178  11.084  10.719   8.410 -1.6178  0.7294 -0.8573
  631MOL0     H85179  10.874  10.612   8.231  1.5068 -0.6642 -3.3048
  631MOL0     H85180  11.049  10.606   8.180  1.9963  0.7637  0.4485
  631MOL0     H85181  11.062  10.844   8.228  0.7349 -2.7174  0.3871
  631MOL0     H85182  10.890  10.870   8.248 -0.3516  0.4510 -1.0835
  631MOL0     H85183  10.822  10.838   7.850 -0.5711 -0.1866  0.0245
  631MOL0     H85184  11.021  10.714   8.854  1.3055 -3.0486  0.0160
  631MOL0     H85185  10.904  10.656   9.065  0.3905  0.9697  0.0290
  632MOL0     O85186   9.222   6.054   6.042  0.0972  0.0532 -0.6764
  632MOL0     C85187   9.121   6.098   6.100 -0.5637 -0.9598  0.0972
  632MOL0     O85188   9.110   6.204   6.183 -0.9140 -0.8878  0.0558
  632MOL0     C85189   9.230   6.260   6.228  0.2104 -0.0386  0.8373
  632MOL0     C85190   9.231   6.395   6.216 -0.3693  0.1533 -0.1138
  632MOL0     C85191   9.354   6.454   6.260  0.3669  0.8884 -0.2748
  632MOL0     C85192   9.457   6.390   6.330  0.2843  1.3246 -0.7813
  632MOL0     O85193   9.568   6.454   6.381 -0.2055 -0.0105  0.7830
  632MOL0     C85194   9.670   6.377   6.435  0.0127  0.3163 -0.8144
  632MOL0     C85195   9.782   6.471   6.489  1.1116 -0.1454  0.4317
  632MOL0     C85196   9.751   6.555   6.615 -0.6962  0.6592  0.1590
  632MOL0     C85197   9.859   6.656   6.639 -0.1877  0.4913  0.2923
  632MOL0     C85198   9.844   6.730   6.776  0.1746  0.4691 -0.1845
  632MOL0     C85199   9.973   6.809   6.802  0.1738 -0.2677 -0.4582
  632MOL0     C85200   9.992   6.923   6.699  0.3906  0.1461 -0.3447
  632MOL0     C85201   9.896   7.039   6.703 -0.7711 -0.6394 -0.8368
  632MOL0     N85202   9.883   7.104   6.835 -0.2571 -0.1336  0.5117
  632MOL0     C85203   9.967   7.175   6.917 -0.9296 -0.2447  0.3828
  632MOL0     C85204   9.894   7.207   7.022 -0.2367  0.6578  0.4164
  632MOL0     C85205   9.943   7.298   7.133  0.1214  0.0816  0.8522
  632MOL0     C85206  10.008   7.224   7.250 -0.1374 -0.7280  0.6897
  632MOL0     C85207  10.044   7.327   7.356 -0.0747 -1.5018  0.0330
  632MOL0     C85208  10.107   7.261   7.477  0.2567 -0.8707  0.6139
  632MOL0     O85209  10.126   7.366   7.571  0.6532 -0.0618  0.9979
  632MOL0     C85210  10.187   7.340   7.690 -0.2781 -0.1740  0.2397
  632MOL0     C85211  10.261   7.441   7.756 -0.2984  0.2202  0.6140
  632MOL0     C85212  10.330   7.423   7.875 -0.5365  1.3853 -1.5664
  632MOL0     C85213  10.393   7.547   7.935 -0.2118 -1.1430 -1.0914
  632MOL0     C85214  10.334   7.294   7.933 -0.1079 -1.0956  0.0838
  632MOL0     C85215  10.402   7.266   8.065  0.0013 -0.5467 -0.8576
  632MOL0     O85216  10.374   7.146   8.126  0.5100 -0.3035  0.3241
  632MOL0     C85217  10.403   7.125   8.258  0.6466  0.4735  0.6995
  632MOL0     C85218  10.339   7.209   8.354 -1.5219  0.0384 -0.3433
  632MOL0     C85219  10.389   7.201   8.483 -0.2007  0.3119  0.6346
  632MOL0     C85220  10.503   7.124   8.510 -0.5909 -0.4217  1.3697
  632MOL0     O85221  10.553   7.135   8.631 -0.2506  0.2681  0.2972
  632MOL0     C85222  10.654   7.051   8.676 -0.7420  0.8981 -0.2412
  632MOL0     C85223  10.789   7.115   8.655 -0.0130  0.9565  0.1925
  632MOL0     C85224  10.898   7.025   8.714 -0.1488  0.4475  0.3725
  632MOL0     C85225  11.029   7.095   8.672  0.1701 -0.1337 -0.7498
  632MOL0     C85226  11.145   7.011   8.717 -0.5483  0.7286 -0.6732
  632MOL0     C85227  11.166   6.977   8.867 -0.1501  0.0137  0.6233
  632MOL0     C85228  11.157   7.099   8.962  0.0475 -0.6773 -0.5173
  632MOL0     C85229  11.243   7.217   8.938 -0.0779 -0.1930  0.1014
  632MOL0    Cl85230  11.421   7.167   8.982 -0.6563 -0.3474 -0.6262
  632MOL0     C85231  10.562   7.043   8.412 -0.7159 -0.0580  0.0802
  632MOL0     C85232  10.500   7.026   8.291 -0.8950 -0.2086  0.5669
  632MOL0     O85233  10.480   7.341   8.110  0.0661 -0.5059  0.4647
  632MOL0     C85234  10.264   7.193   7.862  0.4177  0.1689  0.1225
  632MOL0     C85235  10.202   7.213   7.737  0.9447  0.4221 -0.3601
  632MOL0     N85236   9.763   7.164   7.002  0.2395 -0.3812  0.3333
  632MOL0     N85237   9.755   7.100   6.892 -0.0315  0.1809 -0.4747
  632MOL0     C85238   9.436   6.244   6.330 -0.5358 -0.3141 -0.0937
  632MOL0     C85239   9.332   6.182   6.277  1.1043 -0.0149 -0.3190
  632MOL0     C85240   8.997   6.032   6.069 -0.0877  0.4993 -0.0087
  632MOL0     C85241   9.000   5.896   6.032 -0.5468 -0.2141  0.4851
  632MOL0     C85242   8.890   5.827   5.987  0.6542 -0.3975  0.0275
  632MOL0     C85243   8.758   5.886   5.997  0.5656 -0.7966 -0.0707
  632MOL0     O85244   8.643   5.850   5.938  0.4423 -0.3098 -0.5007
  632MOL0     C85245   8.629   5.704   5.931 -0.2341 -0.2462  0.4077
  632MOL0     C85246   8.480   5.661   5.912 -0.4325 -0.6742  0.2350
  632MOL0     C85247   8.447   5.539   6.004  0.4772  0.2517 -0.3273
  632MOL0     C85248   8.306   5.482   5.995  0.9860  0.4551 -0.7870
  632MOL0     C85249   8.290   5.453   5.855 -0.4410  0.6051  0.2939
  632MOL0     C85250   8.299   5.446   5.734  0.0312  0.0696 -0.6697
  632MOL0     C85251   8.751   6.021   6.036  0.2456 -0.1737 -0.1812
  632MOL0     C85252   8.868   6.090   6.072 -0.1757 -0.6621  0.4095
  632MOL0     H85253   9.160   6.460   6.166  0.9824  1.2613 -0.6405
  632MOL0     H85254   9.375   6.556   6.229  1.9780  0.7240  0.1949
  632MOL0     H85255   9.637   6.315   6.519 -0.6461  1.6063 -0.0687
  632MOL0     H85256   9.712   6.310   6.360 -3.4980 -3.9333  0.6124
  632MOL0     H85257   9.867   6.406   6.512 -1.5863 -3.9985  0.5042
  632MOL0     H85258   9.814   6.542   6.413  1.0574  0.8126  1.2798
  632MOL0     H85259   9.655   6.607   6.604 -0.5490  1.1373  1.0355
  632MOL0     H85260   9.750   6.487   6.701  1.6348 -0.7300 -0.8154
  632MOL0     H85261   9.960   6.616   6.624 -0.3631 -0.6850  1.8827
  632MOL0     H85262   9.850   6.734   6.564 -3.3035  0.3933  0.4290
  632MOL0     H85263   9.753   6.791   6.774  0.3745  0.9094  1.8528
  632MOL0     H85264   9.831   6.669   6.866 -0.8972  2.3279  0.9885
  632MOL0     H85265   9.965   6.850   6.904 -1.0551 -2.5981  0.4507
  632MOL0     H85266  10.067   6.753   6.806  1.4178  1.7467  2.1312
  632MOL0     H85267  10.089   6.970   6.718 -0.0172  0.4302  1.2341
  632MOL0     H85268   9.976   6.893   6.595  2.0529 -0.2356 -0.5245
  632MOL0     H85269   9.796   7.017   6.665 -1.7182  3.7758 -1.4520
  632MOL0     H85270   9.924   7.119   6.634 -0.6819 -1.5780 -1.9103
  632MOL0     H85271  10.071   7.202   6.903 -1.1845  2.6337  2.9285
  632MOL0     H85272  10.012   7.370   7.089  0.2256  0.1993  1.2098
  632MOL0     H85273   9.856   7.349   7.174 -0.6579 -1.4687  1.2063
  632MOL0     H85274  10.094   7.162   7.225 -0.3844 -1.1389  0.8568
  632MOL0     H85275   9.934   7.157   7.295 -0.1175  0.1700  2.1282
  632MOL0     H85276   9.946   7.362   7.389  1.5893  4.1631  0.0326
  632MOL0     H85277  10.095   7.408   7.303  0.1788 -0.6203  1.5533
  632MOL0     H85278  10.203   7.210   7.462 -0.3939 -1.9774  0.1354
  632MOL0     H85279  10.039   7.191   7.525  1.1693 -1.0261  1.7367
  632MOL0     H85280  10.268   7.538   7.707 -0.1826 -0.0577  0.0622
  632MOL0     H85281  10.389   7.550   8.045 -2.3084  1.2483 -1.1129
  632MOL0     H85282  10.494   7.575   7.905 -0.2419  0.6368  0.2524
  632MOL0     H85283  10.328   7.634   7.920 -0.3500 -1.3771 -1.8727
  632MOL0     H85284  10.252   7.262   8.318 -0.4933 -0.4819 -3.9819
  632MOL0     H85285  10.339   7.266   8.554 -0.0929  0.3818  0.6466
  632MOL0     H85286  10.640   7.038   8.783  0.1203 -3.1916 -0.4647
  632MOL0     H85287  10.654   6.949   8.636  2.3984  0.6443  0.1774
  632MOL0     H85288  10.814   7.118   8.549  1.7423 -2.3740  0.3802
  632MOL0     H85289  10.795   7.216   8.696 -0.6571 -0.0729  3.0997
  632MOL0     H85290  10.899   6.927   8.665 -1.1535  2.1512 -3.4334
  632MOL0     H85291  10.884   7.021   8.823  1.0806 -0.2800  0.5185
  632MOL0     H85292  11.021   7.124   8.567  1.3537 -0.5397 -0.9630
  632MOL0     H85293  11.033   7.196   8.713 -2.2695  0.0502 -0.8103
  632MOL0     H85294  11.238   7.053   8.677  1.1249 -2.2273 -0.1643
  632MOL0     H85295  11.146   6.917   8.662  3.6044  0.6222 -0.7467
  632MOL0     H85296  11.099   6.897   8.899 -0.4818  0.5274  1.2481
  632MOL0     H85297  11.267   6.937   8.868 -0.0174  0.2387  3.3043
  632MOL0     H85298  11.169   7.060   9.064 -1.0343 -2.0411 -0.8701
  632MOL0     H85299  11.059   7.145   8.946  1.4779  3.0308  0.4379
  632MOL0     H85300  11.219   7.295   9.012 -0.2116 -0.7463  0.6473
  632MOL0     H85301  11.223   7.252   8.836  2.9151  0.7407 -0.2515
  632MOL0     H85302  10.653   6.986   8.421 -1.3664 -1.0220  0.7860
  632MOL0     H85303  10.544   6.954   8.223 -1.0458 -0.8688  1.1650
  632MOL0     H85304  10.267   7.094   7.904  2.2367 -1.0944 -2.6406
  632MOL0     H85305  10.172   7.127   7.677  0.9254 -0.7796  1.3060
  632MOL0     H85306   9.511   6.178   6.373  0.1203  0.4347 -0.0458
  632MOL0     H85307   9.314   6.075   6.286  0.1780  0.2023  0.5771
  632MOL0     H85308   9.098   5.855   6.007  0.4186  1.3230  1.5899
  632MOL0     H85309   8.910   5.731   5.942 -7.1224 -1.5601 -2.2519
  632MOL0     H85310   8.700   5.665   5.856 -0.5887  0.0941 -0.1139
  632MOL0     H85311   8.658   5.667   6.030  1.0759 -1.2052 -0.2920
  632MOL0     H85312   8.479   5.623   5.810  2.4198 -0.1664 -0.0538
  632MOL0     H85313   8.407   5.741   5.926 -0.0265 -0.1858 -0.3919
  632MOL0     H85314   8.457   5.569   6.109 -0.7349 -0.7805  0.1066
  632MOL0     H85315   8.525   5.466   5.984  1.3386  0.4678  1.9023
  632MOL0     H85316   8.236   5.559   6.028  0.6385 -0.5044  0.7779
  632MOL0     H85317   8.298   5.384   6.043  0.2093  1.6564  1.7158
  632MOL0     H85318   8.305   5.458   5.628 -2.1674  0.1199 -0.8266
  632MOL0     H85319   8.659   6.078   6.029  0.1670 -0.2184  0.3864
  632MOL0     H85320   8.861   6.189   6.116  1.4631 -0.4962  0.3646
  633MOL0     O85321   6.095   6.067   7.458 -0.8769  0.2838 -0.2320
  633MOL0     C85322   6.155   6.074   7.351  0.6386 -0.4374  0.4152
  633MOL0     O85323   6.287   6.090   7.342  0.2702 -0.4460  0.1191
  633MOL0     C85324   6.352   6.142   7.450  0.9871 -0.3406 -0.8561
  633MOL0     C85325   6.443   6.066   7.532 -0.8007 -0.2043  1.5796
  633MOL0     C85326   6.520   6.137   7.631 -0.5309 -0.3358  0.1786
  633MOL0     C85327   6.504   6.276   7.645  0.9658 -0.0424 -0.1543
  633MOL0     O85328   6.554   6.355   7.737  0.2240 -0.3845  0.3489
  633MOL0     C85329   6.697   6.338   7.746 -0.8985 -0.4327  0.5251
  633MOL0     C85330   6.762   6.470   7.791 -0.0889 -0.3621  0.0926
  633MOL0     C85331   6.771   6.591   7.694 -1.3071 -0.3433 -0.1463
  633MOL0     C85332   6.842   6.716   7.756 -0.0186 -0.2436  0.3013
  633MOL0     C85333   6.811   6.854   7.678  0.1314 -0.3512  0.1418
  633MOL0     C85334   6.887   6.864   7.538  0.1829  0.3800 -0.5773
  633MOL0     C85335   6.889   7.006   7.492 -0.2477  0.0663  0.1685
  633MOL0     C85336   6.995   7.092   7.565  0.0217 -0.0537  0.4755
  633MOL0     N85337   7.136   7.070   7.511  1.1263  0.8996 -0.1660
  633MOL0     C85338   7.190   7.103   7.396 -0.5380  0.1760  0.3249
  633MOL0     C85339   7.304   7.040   7.369 -0.1985 -0.6660 -0.0359
  633MOL0     C85340   7.392   7.039   7.248 -0.3469  1.0170  0.2530
  633MOL0     C85341   7.361   7.165   7.164  0.6875  0.3782 -0.0548
  633MOL0     C85342   7.443   7.171   7.032 -0.4674  0.3789  0.7001
  633MOL0     C85343   7.476   7.320   6.979  0.4843  0.3549 -0.0227
  633MOL0     O85344   7.578   7.386   7.056  0.0121  0.5839  0.1773
  633MOL0     C85345   7.587   7.520   7.026  0.9085 -0.6565 -0.8103
  633MOL0     C85346   7.699   7.566   6.955 -0.0787  0.0070  0.4361
  633MOL0     C85347   7.711   7.691   6.903  0.0388 -0.0566  0.0904
  633MOL0     C85348   7.824   7.729   6.810  0.8126  0.9632 -1.3357
  633MOL0     C85349   7.616   7.787   6.940 -2.0415 -0.0298  0.6855
  633MOL0     C85350   7.593   7.922   6.867  0.7276 -0.4067 -0.2373
  633MOL0     O85351   7.706   8.000   6.833  0.6702 -0.3972 -0.6952
  633MOL0     C85352   7.693   8.110   6.759  0.6372  0.5311 -0.6113
  633MOL0     C85353   7.791   8.139   6.659  0.6256 -0.0510 -1.1277
  633MOL0     C85354   7.791   8.272   6.615  0.1933  1.0801  0.5612
  633MOL0     C85355   7.697   8.372   6.649  0.5077 -0.3511  0.5602
  633MOL0     O85356   7.692   8.508   6.601  0.9688 -0.5037  0.8055
  633MOL0     C85357   7.802   8.556   6.534 -0.0916  0.0586  0.6533
  633MOL0     C85358   7.763   8.678   6.458 -0.3525 -0.3587 -0.4617
  633MOL0     C85359   7.887   8.740   6.403 -0.1412  0.1578  0.2361
  633MOL0     C85360   7.828   8.869   6.321 -0.1533  0.6737 -0.2591
  633MOL0     C85361   7.935   8.937   6.243  0.4831 -0.0525 -0.6697
  633MOL0     C85362   7.988   8.878   6.115 -0.7387  0.3605 -0.3041
  633MOL0     C85363   7.875   8.859   6.007 -0.0892 -0.2547  0.3946
  633MOL0     C85364   7.928   8.754   5.908 -0.0529  0.0873  0.4883
  633MOL0    Cl85365   7.992   8.596   5.973 -0.1784 -0.4711 -0.3002
  633MOL0     C85366   7.590   8.332   6.736  0.3894  0.4763 -0.2891
  633MOL0     C85367   7.591   8.202   6.798  0.2478 -0.0762  0.5181
  633MOL0     O85368   7.479   7.949   6.834  0.1030 -0.3718 -0.2121
  633MOL0     C85369   7.509   7.741   7.014  0.6717  0.3970  0.2112
  633MOL0     C85370   7.486   7.612   7.049 -0.4564 -0.0581  0.1121
  633MOL0     N85371   7.325   6.979   7.488 -0.4515  0.4550 -0.4027
  633MOL0     N85372   7.221   6.980   7.563  0.0211 -0.0358  0.4472
  633MOL0     C85373   6.407   6.343   7.568  0.0403 -0.3097 -0.6051
  633MOL0     C85374   6.327   6.279   7.480 -0.7660  0.3808  1.3435
  633MOL0     C85375   6.078   6.061   7.222 -0.4491  0.2073 -0.7843
  633MOL0     C85376   5.945   6.013   7.220 -0.3074  0.2480  0.1706
  633MOL0     C85377   5.879   6.007   7.094  0.2517 -0.5509 -0.2408
  633MOL0     C85378   5.949   6.051   6.982  0.4685 -0.3485  0.5291
  633MOL0     O85379   5.872   6.076   6.861 -0.1708  0.6655  0.1172
  633MOL0     C85380   5.755   6.003   6.828  0.4629  0.2536 -0.3984
  633MOL0     C85381   5.707   6.031   6.689 -0.2161  1.1105  0.4143
  633MOL0     C85382   5.609   6.148   6.660 -0.1676 -0.0227 -0.5750
  633MOL0     C85383   5.476   6.112   6.732 -0.9978  0.9632 -0.0878
  633MOL0     C85384   5.377   6.198   6.670 -0.0300  0.1896 -1.3101
  633MOL0     C85385   5.292   6.267   6.628 -0.4740 -0.6480 -0.0180
  633MOL0     C85386   6.082   6.101   6.984 -0.7547  0.8282 -0.0823
  633MOL0     C85387   6.145   6.092   7.104 -1.6497 -0.8128 -0.5805
  633MOL0     H85388   6.436   5.958   7.530 -1.2840 -0.1724  0.2461
  633MOL0     H85389   6.587   6.087   7.700  3.1894 -0.8744 -3.4442
  633MOL0     H85390   6.732   6.253   7.805  0.9539  0.8917  1.4598
  633MOL0     H85391   6.747   6.332   7.649 -1.9451  1.4581 -0.1925
  633MOL0     H85392   6.716   6.498   7.886 -0.9739 -2.1986  0.2563
  633MOL0     H85393   6.865   6.435   7.805 -0.4416 -1.8714 -0.8370
  633MOL0     H85394   6.821   6.557   7.603 -2.2747  0.6285 -1.0629
  633MOL0     H85395   6.677   6.622   7.649 -1.9423 -0.0384  1.3264
  633MOL0     H85396   6.812   6.722   7.861 -1.1023  1.6524 -0.0725
  633MOL0     H85397   6.949   6.693   7.748 -0.3845 -2.3018  0.9365
  633MOL0     H85398   6.704   6.875   7.665  0.2144 -1.2130 -2.6376
  633MOL0     H85399   6.858   6.930   7.741  1.7480  0.6488 -2.1308
  633MOL0     H85400   6.986   6.816   7.544 -1.1452 -2.4037  1.8039
  633MOL0     H85401   6.822   6.818   7.463  0.8333 -0.6334 -0.5407
  633MOL0     H85402   6.909   7.012   7.385  0.8150  2.7679  0.4416
  633MOL0     H85403   6.785   7.034   7.513 -1.0356  0.2918 -3.4336
  633MOL0     H85404   7.003   7.060   7.669  5.4009 -1.4917 -0.0845
  633MOL0     H85405   6.967   7.198   7.557  0.7270  0.0919 -0.1651
  633MOL0     H85406   7.138   7.167   7.325  2.0145  1.8136 -0.2147
  633MOL0     H85407   7.492   7.039   7.291 -1.3318  1.4545  2.6936
  633MOL0     H85408   7.373   6.950   7.186 -1.0022 -0.4519  2.4423
  633MOL0     H85409   7.365   7.258   7.221 -0.1189  1.5881 -1.9149
  633MOL0     H85410   7.254   7.171   7.139  0.6224  0.0495  0.1312
  633MOL0     H85411   7.378   7.131   6.953 -1.1028 -0.9608  1.8764
  633MOL0     H85412   7.528   7.102   7.032  0.3691  1.3777  0.9760
  633MOL0     H85413   7.386   7.382   6.969  1.7441  2.2452 -0.2148
  633MOL0     H85414   7.524   7.304   6.881 -1.8204 -0.5522 -1.0809
  633MOL0     H85415   7.777   7.497   6.922  2.2215  2.4371  0.4706
  633MOL0     H85416   7.873   7.825   6.831  0.2540  1.4299 -2.1015
  633MOL0     H85417   7.904   7.656   6.829 -1.8297 -1.4077  1.6904
  633MOL0     H85418   7.775   7.734   6.712  0.1036 -3.2896 -1.4020
  633MOL0     H85419   7.865   8.067   6.627  0.0417 -1.0159 -0.3647
  633MOL0     H85420   7.862   8.285   6.534 -2.6716 -1.6955 -2.7454
  633MOL0     H85421   7.879   8.580   6.607 -2.2229  1.1741  2.6760
  633MOL0     H85422   7.845   8.481   6.467  0.9086  0.2613  1.0645
  633MOL0     H85423   7.693   8.661   6.376 -1.8559  3.3865 -0.1838
  633MOL0     H85424   7.710   8.740   6.531  0.3191 -2.2802  1.7636
  633MOL0     H85425   7.933   8.676   6.327  1.5126 -0.4195  1.6650
  633MOL0     H85426   7.964   8.764   6.478  1.9035 -1.2440 -1.3030
  633MOL0     H85427   7.745   8.845   6.253  1.4360 -0.9183 -1.7597
  633MOL0     H85428   7.784   8.935   6.396  0.2078  0.5347  0.0826
  633MOL0     H85429   8.023   8.950   6.307 -0.7150  1.8780  0.6946
  633MOL0     H85430   7.882   9.029   6.216 -1.0512 -0.7485 -0.1816
  633MOL0     H85431   8.057   8.952   6.075 -2.5337  2.5668  0.4657
  633MOL0     H85432   8.038   8.782   6.130 -1.2932  0.0684 -0.2830
  633MOL0     H85433   7.846   8.953   5.958  1.2577  0.8037  1.5487
  633MOL0     H85434   7.784   8.815   6.048  0.8085  0.2998  3.2022
  633MOL0     H85435   7.997   8.804   5.840 -0.3385  1.2147  0.9831
  633MOL0     H85436   7.851   8.726   5.835 -1.6659  0.5063  1.9423
  633MOL0     H85437   7.521   8.415   6.751 -2.6960 -1.7362 -1.2257
  633MOL0     H85438   7.510   8.183   6.868  0.4861 -0.6738  0.6418
  633MOL0     H85439   7.421   7.803   7.028  0.6632  0.5656 -0.5879
  633MOL0     H85440   7.393   7.565   7.079 -1.3754  0.5089 -1.7400
  633MOL0     H85441   6.385   6.447   7.591  0.2540 -0.3356 -0.2687
  633MOL0     H85442   6.256   6.334   7.420  1.3031  2.7034  0.8515
  633MOL0     H85443   5.896   5.983   7.312 -0.2447  1.3570  0.5852
  633MOL0     H85444   5.774   5.980   7.087 -0.0830  0.6177  0.1053
  633MOL0     H85445   5.776   5.896   6.837 -1.2214 -0.1086 -0.4818
  633MOL0     H85446   5.669   6.015   6.894 -0.2756 -0.5598 -1.1811
  633MOL0     H85447   5.662   5.939   6.650  1.5031  1.0014 -1.4812
  633MOL0     H85448   5.799   6.030   6.631 -2.0735 -0.5905 -2.7712
  633MOL0     H85449   5.594   6.159   6.552  0.3168  0.9402 -0.5528
  633MOL0     H85450   5.648   6.240   6.704  1.6895 -0.6185 -0.8877
  633MOL0     H85451   5.491   6.137   6.837 -2.0250  0.6656  0.1421
  633MOL0     H85452   5.450   6.007   6.716  2.8674  0.3152 -4.4798
  633MOL0     H85453   5.219   6.330   6.581 -0.4294 -1.8969 -1.8840
  633MOL0     H85454   6.139   6.123   6.894  1.2410 -0.7334  0.7129
  633MOL0     H85455   6.248   6.125   7.098 -1.9362  0.4397  0.7395
  634MOL0     O85456   3.405   4.179   9.840  0.2119 -0.4557 -0.3077
  634MOL0     C85457   3.488   4.202   9.755 -0.2974  0.4469 -0.4485
  634MOL0     O85458   3.533   4.112   9.661  1.0431  0.1953  0.7732
  634MOL0     C85459   3.501   3.982   9.683  0.4621  0.6871  0.2392
  634MOL0     C85460   3.572   3.902   9.774  0.4796  0.1764 -0.2779
  634MOL0     C85461   3.529   3.772   9.814  0.1075 -0.7010  0.3028
  634MOL0     C85462   3.416   3.715   9.763  0.2403 -0.1854  0.3306
  634MOL0     O85463   3.373   3.592   9.800  0.0466 -0.4331  0.1446
  634MOL0     C85464   3.241   3.580   9.847  0.9120 -0.3056  0.7280
  634MOL0     C85465   3.238   3.474   9.955  0.3104  0.5568  0.7644
  634MOL0     C85466   3.335   3.352   9.919  0.8707 -0.0411  0.3489
  634MOL0     C85467   3.304   3.232  10.001 -0.2395 -0.6891  0.0275
  634MOL0     C85468   3.435   3.171  10.030  0.2226  1.0678 -0.4436
  634MOL0     C85469   3.406   3.052  10.126 -0.4896  0.5928 -1.0405
  634MOL0     C85470   3.544   2.978  10.143 -0.0846  0.3183  0.2270
  634MOL0     C85471   3.614   3.015  10.267  0.3994  0.0546  0.0796
  634MOL0     N85472   3.557   2.942  10.384  0.3942  0.0873  0.7502
  634MOL0     C85473   3.555   2.809  10.392  0.7588  0.1454  0.5389
  634MOL0     C85474   3.491   2.787  10.508  0.0057  0.4208  0.9097
  634MOL0     C85475   3.473   2.646  10.572  0.7821  1.2144 -0.8444
  634MOL0     C85476   3.393   2.547  10.487 -0.0005 -0.4136  0.0363
  634MOL0     C85477   3.242   2.572  10.495 -0.4552  0.0823 -0.5907
  634MOL0     C85478   3.172   2.536  10.367 -1.0467 -0.7962 -0.1662
  634MOL0     O85479   3.223   2.617  10.258 -0.4231 -0.2697 -0.0478
  634MOL0     C85480   3.140   2.716  10.223  0.0388  1.0469 -0.0406
  634MOL0     C85481   3.038   2.701  10.130  0.2391 -0.0967 -0.2656
  634MOL0     C85482   2.953   2.799  10.096  0.6639  0.5232  0.0627
  634MOL0     C85483   2.834   2.763  10.008  0.0739 -1.4839  0.2768
  634MOL0     C85484   2.978   2.932  10.140 -0.9118  0.5420  0.0338
  634MOL0     C85485   2.908   3.060  10.108 -1.0396  0.2182 -0.2944
  634MOL0     O85486   2.973   3.180  10.135 -0.1831 -0.4853 -0.2428
  634MOL0     C85487   2.913   3.299  10.090  0.6238  0.6383 -0.2252
  634MOL0     C85488   2.885   3.337   9.952 -0.8039 -0.1878 -1.3871
  634MOL0     C85489   2.813   3.452   9.930 -1.1275 -0.6044 -0.1024
  634MOL0     C85490   2.766   3.535  10.030 -0.1300  0.5376 -0.7297
  634MOL0     O85491   2.704   3.652   9.997 -0.5612  0.2577  0.5961
  634MOL0     C85492   2.727   3.771  10.075 -0.9595  1.0358  0.3495
  634MOL0     C85493   2.590   3.838  10.114  0.3814 -0.5465 -0.0552
  634MOL0     C85494   2.472   3.756  10.148 -0.2991  0.3052 -0.2939
  634MOL0     C85495   2.422   3.662  10.036  0.7815  0.5445  0.0488
  634MOL0     C85496   2.269   3.634  10.052  0.4998  0.1583  0.2899
  634MOL0     C85497   2.166   3.737  10.014 -0.3623  0.0014  0.0980
  634MOL0     C85498   2.154   3.742   9.862  0.2352 -0.1603  0.5526
  634MOL0     C85499   2.058   3.851   9.803 -0.0699 -0.4266 -0.3204
  634MOL0    Cl85500   1.878   3.844   9.862  0.0922 -0.0367 -0.2959
  634MOL0     C85501   2.800   3.494  10.161  0.8915 -0.6443 -0.4736
  634MOL0     C85502   2.864   3.382  10.186 -0.4586  0.7722 -0.2073
  634MOL0     O85503   2.796   3.050  10.053 -0.0278 -1.0884  0.6428
  634MOL0     C85504   3.089   2.950  10.235 -0.2366 -0.2195 -0.3932
  634MOL0     C85505   3.160   2.843  10.265 -0.2334 -0.5418  0.2063
  634MOL0     N85506   3.452   2.907  10.571  0.2055  0.6007  0.8972
  634MOL0     N85507   3.498   2.994  10.496  0.0838 -0.2458 -0.1724
  634MOL0     C85508   3.342   3.788   9.667  0.1986 -0.5543 -0.7396
  634MOL0     C85509   3.386   3.918   9.626 -0.1789  0.4621 -0.0157
  634MOL0     C85510   3.510   4.345   9.738 -0.1310  0.7013 -0.1703
  634MOL0     C85511   3.475   4.443   9.836  0.4745  0.8083 -0.7175
  634MOL0     C85512   3.473   4.581   9.804  0.6369 -0.1097 -0.0974
  634MOL0     C85513   3.504   4.620   9.667  0.2902 -0.0800  0.3577
  634MOL0     O85514   3.486   4.743   9.611  0.7572  0.8791 -1.1454
  634MOL0     C85515   3.432   4.839   9.701  0.8338  0.2274  0.4270
  634MOL0     C85516   3.395   4.955   9.607  0.1268  0.9428  0.1497
  634MOL0     C85517   3.360   5.085   9.683 -0.0023  0.7285 -0.2271
  634MOL0     C85518   3.495   5.145   9.727 -0.4614  0.0486 -0.8269
  634MOL0     C85519   3.516   5.110   9.870  0.1531  0.2865  0.0539
  634MOL0     C85520   3.531   5.083   9.989  0.1399 -0.1698  0.4670
  634MOL0     C85521   3.565   4.530   9.582  0.0960  0.1058  0.0609
  634MOL0     C85522   3.559   4.392   9.612 -0.4096  0.7536  0.4647
  634MOL0     H85523   3.655   3.954   9.821 -0.8833  0.7821  1.5574
  634MOL0     H85524   3.587   3.713   9.884 -1.5422 -2.8024  0.0460
  634MOL0     H85525   3.194   3.671   9.886 -1.9809  1.2168 -5.1635
  634MOL0     H85526   3.170   3.560   9.766  2.1457 -0.5065 -0.3270
  634MOL0     H85527   3.260   3.517  10.053 -1.2742  1.9027  0.5569
  634MOL0     H85528   3.139   3.431   9.965  0.8533 -0.3034  2.9948
  634MOL0     H85529   3.317   3.312   9.819 -1.9325 -2.3329  1.5975
  634MOL0     H85530   3.441   3.379   9.926  0.9264  0.3742 -1.5925
  634MOL0     H85531   3.248   3.250  10.093 -0.5794  0.5377 -0.3957
  634MOL0     H85532   3.243   3.159   9.945 -0.8112 -0.2217  0.0249
  634MOL0     H85533   3.499   3.143   9.946  3.8326 -0.9993  2.6514
  634MOL0     H85534   3.498   3.239  10.089  2.4240 -2.1821  1.2740
  634MOL0     H85535   3.382   3.083  10.228  1.1545  0.8311 -0.6914
  634MOL0     H85536   3.335   2.987  10.075  0.1682 -0.0215 -1.1865
  634MOL0     H85537   3.526   2.870  10.146 -3.5940  0.7860  1.0863
  634MOL0     H85538   3.606   3.001  10.056 -0.4858 -1.6104 -0.6209
  634MOL0     H85539   3.614   3.122  10.291  1.0032  0.1935 -0.5104
  634MOL0     H85540   3.716   2.981  10.246  0.7585  1.8348 -1.3418
  634MOL0     H85541   3.592   2.729  10.328  0.3031 -0.3927  0.9357
  634MOL0     H85542   3.568   2.600  10.600 -0.4626 -0.5004  0.7994
  634MOL0     H85543   3.430   2.659  10.672  1.8430  0.9674 -0.3455
  634MOL0     H85544   3.395   2.443  10.523  3.6682 -1.2142 -1.9869
  634MOL0     H85545   3.426   2.539  10.383 -0.5236 -2.3841 -0.0279
  634MOL0     H85546   3.215   2.677  10.509 -3.1757 -0.6936  0.6783
  634MOL0     H85547   3.201   2.518  10.580 -0.6224  2.5733  1.0223
  634MOL0     H85548   3.066   2.553  10.390 -1.3501  3.1624 -3.2534
  634MOL0     H85549   3.204   2.435  10.343  1.3131  0.3309 -2.2895
  634MOL0     H85550   3.034   2.599  10.094  1.7453 -0.4756  0.5503
  634MOL0     H85551   2.845   2.836   9.927 -1.5273  2.2500  3.1416
  634MOL0     H85552   2.836   2.657   9.978 -0.4764 -1.5383  0.4245
  634MOL0     H85553   2.735   2.778  10.052 -0.8461  2.4416 -2.5959
  634MOL0     H85554   2.931   3.273   9.878 -2.3461 -1.1700 -1.5160
  634MOL0     H85555   2.792   3.490   9.830  0.5626  3.1259  0.8155
  634MOL0     H85556   2.770   3.749  10.174  0.9637  1.9151 -0.2606
  634MOL0     H85557   2.798   3.842  10.033  1.9330 -0.5461  2.1690
  634MOL0     H85558   2.605   3.903  10.200  0.3112  0.0441 -0.4834
  634MOL0     H85559   2.552   3.910  10.041 -2.1156 -0.4575  1.2232
  634MOL0     H85560   2.388   3.819  10.181 -0.9326 -1.5865  1.9501
  634MOL0     H85561   2.479   3.690  10.234  0.4534 -0.8511 -1.2085
  634MOL0     H85562   2.446   3.713   9.942  0.4550  2.1331  0.7804
  634MOL0     H85563   2.480   3.571  10.049  0.3519  0.1890 -0.4822
  634MOL0     H85564   2.260   3.616  10.159 -0.2168 -2.4639 -0.1459
  634MOL0     H85565   2.248   3.547   9.989  0.8633  0.9173 -0.9166
  634MOL0     H85566   2.066   3.711  10.050 -1.1486  0.3851 -1.6548
  634MOL0     H85567   2.180   3.837  10.055  2.2085 -0.7690  1.2680
  634MOL0     H85568   2.120   3.648   9.816  2.1093 -0.9433  0.6499
  634MOL0     H85569   2.251   3.760   9.814 -0.6802  1.5138 -0.7902
  634MOL0     H85570   2.057   3.851   9.694  2.5655  0.9825 -0.4477
  634MOL0     H85571   2.098   3.950   9.829 -0.2621 -0.0468 -1.4499
  634MOL0     H85572   2.781   3.552  10.251  0.5860 -3.1088  1.1278
  634MOL0     H85573   2.902   3.351  10.283 -0.3063  1.0258 -0.1846
  634MOL0     H85574   3.126   3.043  10.278 -4.8416  0.4598  2.8740
  634MOL0     H85575   3.248   2.849  10.328  0.3842 -0.9402 -0.5994
  634MOL0     H85576   3.252   3.748   9.621 -0.7141  0.3104  0.2431
  634MOL0     H85577   3.323   3.966   9.551 -2.1225 -1.4995  0.2458
  634MOL0     H85578   3.428   4.402   9.925  0.1716  2.1214 -0.2528
  634MOL0     H85579   3.448   4.651   9.883 -0.0343  2.5058 -2.4577
  634MOL0     H85580   3.338   4.808   9.749  0.2579 -0.3167 -0.9916
  634MOL0     H85581   3.503   4.870   9.778 -0.5588  2.2393  0.9698
  634MOL0     H85582   3.312   4.917   9.547  0.9626 -2.4496  0.8942
  634MOL0     H85583   3.475   4.971   9.533  0.1414  0.2952  0.0189
  634MOL0     H85584   3.294   5.061   9.767 -0.7477  1.7540 -0.5099
  634MOL0     H85585   3.302   5.138   9.607  0.2410 -0.7257 -1.4811
  634MOL0     H85586   3.498   5.254   9.718  0.8756  0.0772 -0.4114
  634MOL0     H85587   3.576   5.106   9.664 -1.3505  0.0865 -2.0175
  634MOL0     H85588   3.543   5.059  10.093  2.1428  0.9247  0.5253
  634MOL0     H85589   3.591   4.572   9.485 -0.2351  2.0716  0.7817
  634MOL0     H85590   3.584   4.324   9.532 -1.3088 -0.0293  0.8273
  635MOL0     O85591  10.552   6.552  10.018 -0.3300  0.4774  0.3855
  635MOL0     C85592  10.602   6.612   9.920  0.5038 -0.4945  0.2408
  635MOL0     O85593  10.627   6.560   9.800 -0.2893  0.6961 -0.6998
  635MOL0     C85594  10.586   6.430   9.769 -0.2766 -0.0025 -1.1630
  635MOL0     C85595  10.450   6.378   9.794 -0.0882 -0.6290  0.0042
  635MOL0     C85596  10.417   6.245   9.770 -0.5461 -0.3796 -0.8201
  635MOL0     C85597  10.518   6.166   9.730 -0.2933  0.3980  0.5926
  635MOL0     O85598  10.503   6.034   9.706  0.1381 -0.7531  0.0154
  635MOL0     C85599  10.385   5.958   9.742 -0.2977 -0.4115  0.6773
  635MOL0     C85600  10.398   5.813   9.716 -0.3789  0.3089  0.1434
  635MOL0     C85601  10.263   5.737   9.710 -0.2579  0.5382  0.2435
  635MOL0     C85602  10.285   5.592   9.650 -0.0429  0.1249 -0.0700
  635MOL0     C85603  10.171   5.494   9.695  0.1247 -0.9224  0.0070
  635MOL0     C85604  10.190   5.354   9.632 -1.2368  0.2776  0.1879
  635MOL0     C85605  10.099   5.246   9.682  0.2122  0.3363  0.0776
  635MOL0     C85606   9.945   5.258   9.668  0.4719  0.1831  0.2814
  635MOL0     N85607   9.884   5.125   9.680  0.7439  0.4590 -0.7178
  635MOL0     C85608   9.881   5.039   9.581 -0.0829 -0.0864  0.0750
  635MOL0     C85609   9.791   4.948   9.623 -0.1584  1.0713  0.8783
  635MOL0     C85610   9.736   4.851   9.524  1.5256 -0.2010  0.3263
  635MOL0     C85611   9.629   4.907   9.420 -0.1956 -0.0854 -1.0405
  635MOL0     C85612   9.536   4.803   9.354 -0.4596 -0.8796  0.5280
  635MOL0     C85613   9.429   4.866   9.273  0.3599 -0.3365  0.3519
  635MOL0     O85614   9.355   4.960   9.350 -0.5945 -0.1306 -0.3157
  635MOL0     C85615   9.227   4.993   9.352  0.7206  0.6945  0.2695
  635MOL0     C85616   9.187   5.117   9.400 -0.5048  0.6429 -0.2080
  635MOL0     C85617   9.053   5.155   9.408  0.1479 -0.1585 -0.5415
  635MOL0     C85618   9.031   5.291   9.451  0.1423 -1.0784  0.0254
  635MOL0     C85619   8.956   5.057   9.381 -0.2107  0.2872 -1.0946
  635MOL0     C85620   8.812   5.074   9.416  0.1652 -0.2598 -0.6091
  635MOL0     O85621   8.744   5.193   9.412 -1.0749 -0.0582 -0.2131
  635MOL0     C85622   8.625   5.203   9.477  0.5074 -0.1488 -0.4754
  635MOL0     C85623   8.627   5.246   9.608  1.7347 -0.6829  0.2106
  635MOL0     C85624   8.508   5.241   9.682 -0.1734  0.6122  0.9714
  635MOL0     C85625   8.384   5.203   9.622 -0.5462  0.4781  0.7756
  635MOL0     O85626   8.278   5.234   9.699 -0.1204  0.1986 -0.5051
  635MOL0     C85627   8.147   5.174   9.666  0.8314 -0.3897  0.0574
  635MOL0     C85628   8.031   5.199   9.766 -0.7960 -0.1605 -0.5255
  635MOL0     C85629   8.026   5.333   9.828 -0.8269  0.7082  0.4004
  635MOL0     C85630   7.926   5.344   9.944  1.8996  0.2193  0.2624
  635MOL0     C85631   7.910   5.495   9.987 -0.0439 -0.1338  0.8658
  635MOL0     C85632   8.023   5.534  10.097  0.5334 -0.4383 -0.1926
  635MOL0     C85633   7.999   5.462  10.228  0.1622  0.8409  0.6404
  635MOL0     C85634   7.966   5.563  10.336 -0.4358  0.1859 -0.3903
  635MOL0    Cl85635   7.799   5.616  10.338  0.6624  0.2453  0.0774
  635MOL0     C85636   8.391   5.162   9.490 -0.0081 -1.0723  0.1324
  635MOL0     C85637   8.507   5.158   9.415 -0.2851 -0.0576  0.1414
  635MOL0     O85638   8.757   4.969   9.455  0.0258  0.2911 -0.5294
  635MOL0     C85639   8.996   4.936   9.322 -0.6690  0.3333 -0.6597
  635MOL0     C85640   9.129   4.903   9.305 -0.4260 -1.3879 -0.2251
  635MOL0     N85641   9.726   4.991   9.735 -0.3595  0.3309 -0.5891
  635MOL0     N85642   9.789   5.094   9.771 -0.7070 -0.6497 -0.3742
  635MOL0     C85643  10.638   6.211   9.682  0.2708 -0.5592 -0.3471
  635MOL0     C85644  10.677   6.345   9.712 -0.6796  1.2118 -0.1438
  635MOL0     C85645  10.673   6.740   9.954  0.0296  0.2048 -0.8304
  635MOL0     C85646  10.717   6.818   9.848 -0.4626 -0.9320  0.6203
  635MOL0     C85647  10.789   6.940   9.879 -0.2198 -0.6751 -0.1274
  635MOL0     C85648  10.806   6.981  10.010  0.1506 -0.4339 -0.0695
  635MOL0     O85649  10.885   7.092  10.042 -0.2462 -0.2239  0.6973
  635MOL0     C85650  10.962   7.173   9.947  0.7368 -0.4151 -0.0075
  635MOL0     C85651  10.865   7.296   9.932  0.2018  0.6455 -0.4336
  635MOL0     C85652  10.936   7.416   9.846 -0.6131  0.1704 -0.8760
  635MOL0     C85653  10.989   7.545   9.916  0.3263  0.1915 -0.6714
  635MOL0     C85654  11.085   7.513  10.027  0.3590  0.0315  0.0063
  635MOL0     C85655  11.158   7.482  10.122  0.0639 -0.8050  0.1799
  635MOL0     C85656  10.750   6.902  10.112  0.3963  0.3623 -0.2775
  635MOL0     C85657  10.693   6.781  10.085  0.8477  0.0074  0.0295
  635MOL0     H85658  10.373   6.450   9.821  0.0124 -0.5159 -0.0154
  635MOL0     H85659  10.322   6.202   9.800 -0.6166  1.8539  2.7926
  635MOL0     H85660  10.356   5.976   9.845  1.3911  0.8591  0.9674
  635MOL0     H85661  10.303   5.994   9.678  1.2195 -1.5652 -2.1158
  635MOL0     H85662  10.444   5.795   9.619 -2.1250  0.3287 -0.7297
  635MOL0     H85663  10.459   5.766   9.794  2.3666 -0.2543 -2.1689
  635MOL0     H85664  10.218   5.729   9.809 -0.8867  2.9788  0.2180
  635MOL0     H85665  10.189   5.789   9.648  1.6327  0.4600 -2.2178
  635MOL0     H85666  10.296   5.600   9.541  0.3797  2.6993  0.1084
  635MOL0     H85667  10.374   5.549   9.695  0.1243 -1.7622 -2.0275
  635MOL0     H85668  10.165   5.488   9.804 -0.9228  2.7942  0.2762
  635MOL0     H85669  10.074   5.540   9.677 -0.0713 -0.2200  2.5920
  635MOL0     H85670  10.172   5.370   9.525 -1.5848  2.6532  0.5422
  635MOL0     H85671  10.294   5.325   9.650 -1.3295  0.7005  1.5494
  635MOL0     H85672  10.126   5.157   9.625  3.6475  1.0909  0.3308
  635MOL0     H85673  10.104   5.221   9.788 -1.2744  1.2298  0.3872
  635MOL0     H85674   9.908   5.293   9.571 -0.0051 -3.2966 -0.9318
  635MOL0     H85675   9.918   5.320   9.754  0.6798 -0.8334  1.1013
  635MOL0     H85676   9.948   5.039   9.496 -0.5483 -2.2414 -0.3630
  635MOL0     H85677   9.818   4.800   9.472  0.8197 -2.7485  1.5219
  635MOL0     H85678   9.688   4.769   9.580 -1.4416  2.0343  1.3370
  635MOL0     H85679   9.681   4.969   9.346  2.5532 -0.0455  0.7513
  635MOL0     H85680   9.568   4.979   9.475  1.0219  0.3928 -0.2479
  635MOL0     H85681   9.498   4.733   9.429  0.4098  0.1822  1.9905
  635MOL0     H85682   9.585   4.724   9.295  1.6292 -0.5043  1.6849
  635MOL0     H85683   9.371   4.781   9.236  1.8402 -0.3882 -2.1342
  635MOL0     H85684   9.467   4.918   9.184 -0.0851  1.5389  1.2136
  635MOL0     H85685   9.268   5.186   9.421 -0.0859  0.8158 -2.1397
  635MOL0     H85686   8.950   5.334   9.392 -0.4289 -1.3626  0.5879
  635MOL0     H85687   9.023   5.308   9.559 -2.0114 -1.5704 -0.0069
  635MOL0     H85688   9.123   5.349   9.437  0.4844 -1.1301  1.7875
  635MOL0     H85689   8.718   5.277   9.658  2.0420  2.1856 -1.8839
  635MOL0     H85690   8.505   5.256   9.789  0.1655  2.1352  0.7854
  635MOL0     H85691   8.110   5.202   9.567 -0.7046  2.1273  1.2407
  635MOL0     H85692   8.164   5.066   9.662  2.8389 -0.3919  3.8790
  635MOL0     H85693   7.940   5.193   9.706 -1.6090 -0.9540  0.7375
  635MOL0     H85694   8.027   5.117   9.839 -2.1133  0.7435  0.4666
  635MOL0     H85695   8.001   5.398   9.744 -2.5880 -0.2586  0.1327
  635MOL0     H85696   8.126   5.345   9.870  0.9669 -2.0515 -2.7150
  635MOL0     H85697   7.828   5.312   9.910  0.2631  3.9998  0.8878
  635MOL0     H85698   7.946   5.272  10.024 -1.9058 -0.3183  0.9079
  635MOL0     H85699   7.817   5.517  10.041  0.6148  2.5682  1.0479
  635MOL0     H85700   7.922   5.567   9.905 -0.3084  0.1109  1.0411
  635MOL0     H85701   8.124   5.521  10.057  2.0326 -1.8730  3.5888
  635MOL0     H85702   8.015   5.642  10.115 -0.6088 -0.7658  1.4849
  635MOL0     H85703   8.086   5.411  10.268 -0.0396 -0.5008 -0.5371
  635MOL0     H85704   7.918   5.389  10.223  0.5656  0.1642  3.0386
  635MOL0     H85705   8.027   5.653  10.324 -0.7059  0.5297  0.6238
  635MOL0     H85706   7.985   5.528  10.438  0.3372 -0.3516 -0.7072
  635MOL0     H85707   8.299   5.128   9.443 -0.5858 -1.9771  1.8226
  635MOL0     H85708   8.504   5.111   9.317  0.0137 -0.7258  0.4427
  635MOL0     H85709   8.922   4.859   9.303  1.2529 -2.6608  2.6558
  635MOL0     H85710   9.164   4.811   9.260  1.6606 -0.3770 -0.7754
  635MOL0     H85711  10.695   6.139   9.624  0.3538 -0.4773 -0.3672
  635MOL0     H85712  10.772   6.391   9.688 -1.0059  2.1451  0.3235
  635MOL0     H85713  10.701   6.781   9.747 -0.4025 -1.6663  0.8698
  635MOL0     H85714  10.821   6.989   9.787 -0.6073 -1.2478 -0.5740
  635MOL0     H85715  11.056   7.204   9.996  0.0142  0.4769  0.8728
  635MOL0     H85716  10.979   7.124   9.851 -3.8545 -0.1494 -1.1685
  635MOL0     H85717  10.836   7.332  10.031 -0.2742 -0.5802 -0.1132
  635MOL0     H85718  10.768   7.281   9.884 -0.7259  4.3173 -0.0090
  635MOL0     H85719  10.862   7.461   9.779 -1.4726  2.6626  1.5593
  635MOL0     H85720  11.005   7.357   9.785 -1.9057  0.3037 -2.5211
  635MOL0     H85721  10.901   7.600   9.953 -0.0667 -0.4032 -0.7134
  635MOL0     H85722  11.039   7.598   9.834 -0.2528 -2.0085 -2.5746
  635MOL0     H85723  11.210   7.441  10.207 -2.6634 -2.2747  1.2753
  635MOL0     H85724  10.767   6.944  10.211  1.2626  0.4069 -0.4395
  635MOL0     H85725  10.654   6.721  10.166 -3.5285  0.8945 -1.1681
  636MOL0     O85726   7.134   5.232   7.667 -0.4516 -0.6039 -0.2400
  636MOL0     C85727   7.179   5.187   7.774 -0.9767 -0.8947  0.5918
  636MOL0     O85728   7.280   5.095   7.793  0.3672  0.3460 -0.0208
  636MOL0     C85729   7.318   5.006   7.692  0.3066 -0.2434  0.9657
  636MOL0     C85730   7.438   4.943   7.708 -0.5299 -0.0066  0.8138
  636MOL0     C85731   7.496   4.860   7.616  0.3764  0.0890  0.3227
  636MOL0     C85732   7.445   4.841   7.484  0.3815 -0.1880 -0.0449
  636MOL0     O85733   7.501   4.757   7.397 -0.8818  0.0013 -0.1589
  636MOL0     C85734   7.490   4.801   7.252 -0.3348  0.0030  1.0591
  636MOL0     C85735   7.630   4.768   7.179  0.1015 -0.7495 -0.2926
  636MOL0     C85736   7.602   4.693   7.052 -0.3980 -0.3263 -0.5400
  636MOL0     C85737   7.729   4.671   6.976 -0.4004  0.2179 -0.4878
  636MOL0     C85738   7.721   4.569   6.861 -0.2806 -0.5701 -0.1799
  636MOL0     C85739   7.653   4.636   6.747 -0.3009 -0.4177 -0.3319
  636MOL0     C85740   7.647   4.528   6.646 -0.8364 -0.4452  0.1082
  636MOL0     C85741   7.597   4.586   6.510 -0.6149  0.0686  0.6786
  636MOL0     N85742   7.597   4.481   6.408 -1.0135  1.1616  0.2146
  636MOL0     C85743   7.715   4.429   6.363  0.8877 -0.3844  0.1020
  636MOL0     C85744   7.676   4.338   6.274  0.5604  0.8762 -0.0392
  636MOL0     C85745   7.767   4.241   6.198  0.6634 -0.5485 -0.2421
  636MOL0     C85746   7.731   4.214   6.044 -0.6435 -0.2737 -0.1659
  636MOL0     C85747   7.716   4.345   5.970  0.6613  0.3369  0.6010
  636MOL0     C85748   7.849   4.396   5.928 -1.3198  0.2620  0.1802
  636MOL0     O85749   7.815   4.525   5.871  0.3020 -0.2054 -0.1570
  636MOL0     C85750   7.768   4.520   5.744  0.1689 -0.3992  0.3200
  636MOL0     C85751   7.810   4.431   5.639  0.0640 -0.3803 -0.6150
  636MOL0     C85752   7.757   4.439   5.508 -0.0935 -0.6440  0.5625
  636MOL0     C85753   7.821   4.357   5.397 -0.6225  0.0940 -0.6803
  636MOL0     C85754   7.662   4.535   5.474  0.6382 -0.0875  0.0948
  636MOL0     C85755   7.602   4.551   5.338  0.1786 -1.2248  0.0718
  636MOL0     O85756   7.483   4.631   5.332 -0.4061  0.4138  0.7008
  636MOL0     C85757   7.420   4.634   5.208  0.2825  0.6992  0.3282
  636MOL0     C85758   7.415   4.761   5.144 -0.2682 -0.3321  0.3246
  636MOL0     C85759   7.363   4.767   5.015 -0.1885  0.5116  0.5628
  636MOL0     C85760   7.291   4.658   4.971 -0.2657 -0.2279  0.0599
  636MOL0     O85761   7.233   4.673   4.857  0.8861  0.6789 -0.6064
  636MOL0     C85762   7.158   4.573   4.796 -0.5015  0.3045 -0.3820
  636MOL0     C85763   7.067   4.633   4.688 -0.1039 -0.6120  0.1035
  636MOL0     C85764   6.975   4.520   4.621  0.4263 -0.9235 -0.1783
  636MOL0     C85765   7.046   4.407   4.538 -0.5293 -0.1782 -0.8461
  636MOL0     C85766   6.952   4.343   4.450 -0.5222  0.2415  0.6157
  636MOL0     C85767   7.014   4.276   4.330 -0.5284 -0.0376  0.9079
  636MOL0     C85768   7.046   4.377   4.220  1.0480 -1.0887 -0.3499
  636MOL0     C85769   7.158   4.345   4.124  0.0428 -0.0085  0.8094
  636MOL0    Cl85770   7.299   4.343   4.233  0.0587  0.5747 -0.1998
  636MOL0     C85771   7.299   4.535   5.032 -0.7866  0.1191  0.2771
  636MOL0     C85772   7.365   4.522   5.151  0.7375 -0.0240 -0.0080
  636MOL0     O85773   7.669   4.519   5.242  1.0848 -0.2248  0.5090
  636MOL0     C85774   7.616   4.621   5.580  0.6388 -0.4881  0.9108
  636MOL0     C85775   7.671   4.613   5.702 -0.0954  0.2427 -0.4879
  636MOL0     N85776   7.536   4.333   6.266  0.2900 -0.2446  0.5089
  636MOL0     N85777   7.497   4.434   6.332  0.5504  0.0973 -0.2587
  636MOL0     C85778   7.320   4.911   7.467  0.5225  0.2060 -0.0206
  636MOL0     C85779   7.256   4.983   7.570 -0.5945  1.0374  0.0236
  636MOL0     C85780   7.105   5.245   7.891 -0.3424  0.8744 -0.1399
  636MOL0     C85781   6.982   5.311   7.887  0.1893  0.1379 -0.0103
  636MOL0     C85782   6.911   5.346   8.003  0.2918 -0.1860  0.9757
  636MOL0     C85783   6.963   5.312   8.125 -0.8765  0.3358 -1.2065
  636MOL0     O85784   6.900   5.323   8.249  0.2340 -0.6826  0.7726
  636MOL0     C85785   6.751   5.332   8.252 -0.6010 -0.1527  0.2725
  636MOL0     C85786   6.702   5.330   8.392 -0.5401  0.5547  0.3431
  636MOL0     C85787   6.563   5.394   8.421  0.1276 -0.0702  0.0388
  636MOL0     C85788   6.445   5.322   8.360 -0.0622  0.5859 -0.2824
  636MOL0     C85789   6.311   5.365   8.403 -0.8902  0.4140 -0.1900
  636MOL0     C85790   6.205   5.405   8.446  0.6642  0.3780 -0.0706
  636MOL0     C85791   7.099   5.261   8.141  0.8000 -0.9495 -0.2246
  636MOL0     C85792   7.163   5.224   8.021  0.7637  0.3617  0.4005
  636MOL0     H85793   7.497   4.971   7.795  0.4482  2.0410 -0.4273
  636MOL0     H85794   7.582   4.799   7.643 -0.9407 -1.5914  0.9545
  636MOL0     H85795   7.416   4.745   7.194  1.3826  1.4594 -2.8966
  636MOL0     H85796   7.474   4.908   7.238 -0.4688 -0.2794 -1.3577
  636MOL0     H85797   7.682   4.862   7.156 -2.0439  0.8672  1.0118
  636MOL0     H85798   7.696   4.704   7.237 -0.0765 -1.2539 -0.6407
  636MOL0     H85799   7.563   4.594   7.079 -3.2020  0.7014 -0.5410
  636MOL0     H85800   7.538   4.755   6.990  0.7008  1.3826 -0.0225
  636MOL0     H85801   7.772   4.766   6.944 -0.2421  0.6943  1.0665
  636MOL0     H85802   7.799   4.631   7.049 -1.5613  2.2519  1.8785
  636MOL0     H85803   7.823   4.551   6.825  0.1205  0.2985  0.4772
  636MOL0     H85804   7.686   4.471   6.895 -2.5099  0.0753 -0.4371
  636MOL0     H85805   7.555   4.669   6.781  0.5455  1.5808  0.3150
  636MOL0     H85806   7.708   4.723   6.709  2.7830 -2.7195 -1.5875
  636MOL0     H85807   7.743   4.480   6.628 -0.1620  0.8930  0.0300
  636MOL0     H85808   7.582   4.450   6.688 -1.1498  1.2711  3.0392
  636MOL0     H85809   7.649   4.672   6.466 -1.7945 -0.3115 -1.6339
  636MOL0     H85810   7.493   4.616   6.522 -0.7259 -0.7804  2.1432
  636MOL0     H85811   7.812   4.441   6.410 -0.2189  4.5899  1.7146
  636MOL0     H85812   7.870   4.279   6.200 -0.6076  3.3534  0.1918
  636MOL0     H85813   7.774   4.147   6.253  0.8615  1.3592  3.3557
  636MOL0     H85814   7.632   4.169   6.056 -1.6468  2.4738  4.2337
  636MOL0     H85815   7.813   4.151   6.006 -0.5239  0.5198 -1.2734
  636MOL0     H85816   7.678   4.425   6.034  0.1726  0.3399  0.3065
  636MOL0     H85817   7.644   4.333   5.889 -2.5255  2.4619  2.9054
  636MOL0     H85818   7.889   4.322   5.859 -0.3462  0.5456  0.4272
  636MOL0     H85819   7.925   4.416   6.004 -2.0041 -0.9513  1.2251
  636MOL0     H85820   7.884   4.354   5.660  0.8462  0.1028 -1.5498
  636MOL0     H85821   7.886   4.277   5.435  0.1996  1.1394  0.1795
  636MOL0     H85822   7.747   4.293   5.348 -1.4962 -2.6494  3.6249
  636MOL0     H85823   7.877   4.427   5.335 -0.8130  1.5184  0.6951
  636MOL0     H85824   7.456   4.854   5.182  0.3051  0.1281 -1.3323
  636MOL0     H85825   7.375   4.853   4.949  3.1134 -0.7091 -0.6117
  636MOL0     H85826   7.214   4.485   4.763 -0.6068 -0.9202  2.4339
  636MOL0     H85827   7.091   4.532   4.872 -2.3655 -0.0804 -2.1265
  636MOL0     H85828   7.001   4.706   4.735  1.3537  1.1383 -0.4682
  636MOL0     H85829   7.119   4.687   4.608  0.0559 -0.4873  0.2881
  636MOL0     H85830   6.891   4.565   4.567 -0.1932 -1.3869  0.3845
  636MOL0     H85831   6.914   4.474   4.699 -0.7699  1.9241  0.6735
  636MOL0     H85832   7.117   4.451   4.467 -1.5775  2.3949 -0.4127
  636MOL0     H85833   7.103   4.329   4.589 -0.6969 -0.0277 -0.4278
  636MOL0     H85834   6.885   4.420   4.411 -1.7907  0.2925  2.7167
  636MOL0     H85835   6.875   4.278   4.493 -2.1657  1.0210 -1.0073
  636MOL0     H85836   7.103   4.217   4.355  0.3180  0.4933 -0.7188
  636MOL0     H85837   6.944   4.203   4.290  0.3335  0.5485 -1.9167
  636MOL0     H85838   7.065   4.476   4.262 -4.0821 -1.0047  2.4666
  636MOL0     H85839   6.948   4.381   4.171 -0.4269 -2.2828  2.2912
  636MOL0     H85840   7.172   4.421   4.047 -2.1375  0.9142  1.2462
  636MOL0     H85841   7.147   4.251   4.069  1.5607  0.1810  0.1247
  636MOL0     H85842   7.248   4.445   4.998 -1.3751  0.4362  0.2960
  636MOL0     H85843   7.361   4.431   5.211 -3.1391  2.2014  3.6801
  636MOL0     H85844   7.524   4.677   5.566  0.7298  0.1225  2.5830
  636MOL0     H85845   7.631   4.684   5.774  2.0031  0.0545  0.9607
  636MOL0     H85846   7.260   4.906   7.377  2.9025 -0.6513 -1.6597
  636MOL0     H85847   7.157   5.023   7.554 -0.7734  0.5938  0.0302
  636MOL0     H85848   6.932   5.330   7.792 -1.8221  2.9065  1.4388
  636MOL0     H85849   6.816   5.399   8.006  0.5202  0.4140 -1.0166
  636MOL0     H85850   6.702   5.415   8.201  0.1905 -1.8836 -3.7123
  636MOL0     H85851   6.706   5.246   8.201  0.7397 -1.0686  0.5460
  636MOL0     H85852   6.775   5.390   8.447 -1.1393  0.9678  0.7046
  636MOL0     H85853   6.712   5.229   8.431 -1.9083  0.0666 -0.4922
  636MOL0     H85854   6.576   5.497   8.388  1.8810  0.1255  1.1943
  636MOL0     H85855   6.548   5.408   8.529 -0.2105  3.1788 -0.3556
  636MOL0     H85856   6.455   5.214   8.378 -2.5846 -0.4194 -3.7045
  636MOL0     H85857   6.445   5.331   8.251 -1.4493 -0.0199 -0.3623
  636MOL0     H85858   6.111   5.444   8.479  0.8115  0.7973 -0.1345
  636MOL0     H85859   7.127   5.215   8.235 -2.1924 -1.3633  0.5833
  636MOL0     H85860   7.248   5.157   8.025 -1.6704 -3.2352 -2.0800
  637MOL0     O85861   8.371   2.589   1.859 -0.1592  0.3979  0.8387
  637MOL0     C85862   8.296   2.506   1.816 -0.4879 -0.7775  0.7428
  637MOL0     O85863   8.253   2.402   1.885  0.0912 -0.1221  0.3242
  637MOL0     C85864   8.287   2.382   2.013 -0.0357 -0.2289 -0.5090
  637MOL0     C85865   8.416   2.353   2.056  0.2312 -1.3033 -0.7312
  637MOL0     C85866   8.449   2.346   2.189 -0.2709  0.7888  0.1489
  637MOL0     C85867   8.348   2.359   2.286 -0.2169  0.2290  0.5448
  637MOL0     O85868   8.368   2.356   2.417 -0.1590 -0.1905  0.1282
  637MOL0     C85869   8.469   2.434   2.472 -0.0361 -0.5909 -0.0225
  637MOL0     C85870   8.411   2.505   2.601  0.0512  0.1926 -0.8454
  637MOL0     C85871   8.509   2.601   2.665 -0.3101  0.7910  0.4547
  637MOL0     C85872   8.443   2.683   2.780  0.1631  0.1337 -0.6697
  637MOL0     C85873   8.535   2.789   2.833 -0.4606  0.2640 -0.0352
  637MOL0     C85874   8.516   2.830   2.985  0.9331  0.6511  0.5897
  637MOL0     C85875   8.620   2.932   3.041  1.1966 -0.0200  0.3951
  637MOL0     C85876   8.764   2.879   3.020 -0.4707  0.0155 -0.5155
  637MOL0     N85877   8.870   2.972   3.066  0.1129 -1.1741 -0.1731
  637MOL0     C85878   8.864   3.103   3.031  0.6074 -0.1618 -0.1781
  637MOL0     C85879   8.983   3.167   3.043 -0.8998 -0.7987 -0.0068
  637MOL0     C85880   9.024   3.305   3.012  0.2702 -0.8702 -0.0464
  637MOL0     C85881   9.066   3.304   2.864  0.3609 -0.6504  0.4571
  637MOL0     C85882   9.128   3.434   2.816 -0.2921  0.6695 -0.5547
  637MOL0     C85883   9.229   3.496   2.908 -0.3940  0.1498 -0.9419
  637MOL0     O85884   9.304   3.600   2.841  0.2201  0.5486  0.2756
  637MOL0     C85885   9.403   3.668   2.904  0.4065  0.2250 -0.1439
  637MOL0     C85886   9.464   3.625   3.015  0.1517 -0.0639 -1.0595
  637MOL0     C85887   9.556   3.696   3.079 -0.5530 -0.7459  0.1248
  637MOL0     C85888   9.591   3.643   3.211  0.0507  0.4309 -0.3812
  637MOL0     C85889   9.609   3.815   3.020 -0.5030 -0.7924  0.1161
  637MOL0     C85890   9.730   3.890   3.071 -0.8508 -0.7060 -0.1875
  637MOL0     O85891   9.772   3.993   2.985  0.3685  0.2377 -0.3228
  637MOL0     C85892   9.888   4.048   3.016 -0.1194  0.4778  0.9217
  637MOL0     C85893   9.904   4.145   3.113 -0.5307 -1.0445 -0.5118
  637MOL0     C85894  10.031   4.204   3.136 -0.9621  0.2343  0.5597
  637MOL0     C85895  10.148   4.155   3.065  0.1149 -0.3590 -0.5676
  637MOL0     O85896  10.266   4.223   3.084 -0.2195  0.3348 -0.0070
  637MOL0     C85897  10.389   4.150   3.066  0.0679  0.2329  0.1915
  637MOL0     C85898  10.491   4.247   3.009 -0.2501 -0.3223  0.7084
  637MOL0     C85899  10.612   4.173   2.952  0.3320 -0.1544  0.0765
  637MOL0     C85900  10.582   4.115   2.812 -0.1012 -0.3744  0.0186
  637MOL0     C85901  10.693   4.030   2.755 -0.2768 -0.1075 -0.4292
  637MOL0     C85902  10.667   4.001   2.607 -0.5091  0.3868  0.2099
  637MOL0     C85903  10.684   4.114   2.500 -0.0044  0.0921  0.3618
  637MOL0     C85904  10.693   4.063   2.355  0.0552  0.6576  0.1826
  637MOL0    Cl85905  10.534   4.076   2.267 -0.1137 -0.0416  0.0252
  637MOL0     C85906  10.131   4.041   2.983 -0.2701  1.2054 -0.7642
  637MOL0     C85907  10.002   3.997   2.953 -0.1934  0.5071 -0.3947
  637MOL0     O85908   9.803   3.847   3.168  0.0730 -0.6464 -0.6001
  637MOL0     C85909   9.556   3.854   2.897  0.6564 -0.5080 -0.5700
  637MOL0     C85910   9.450   3.786   2.841 -0.1629  0.2780 -1.5099
  637MOL0     N85911   9.065   3.061   3.078  0.1264 -0.0712  0.1620
  637MOL0     N85912   8.999   2.949   3.097  0.1414  0.8725 -0.5865
  637MOL0     C85913   8.220   2.368   2.244  0.5035  0.1268  0.2792
  637MOL0     C85914   8.188   2.385   2.109 -0.5445 -1.0607 -0.6036
  637MOL0     C85915   8.259   2.505   1.670 -0.4896  0.4408 -0.4003
  637MOL0     C85916   8.313   2.610   1.587  0.1416 -0.0251 -0.2687
  637MOL0     C85917   8.268   2.623   1.452 -0.3998  0.3140  0.7436
  637MOL0     C85918   8.191   2.521   1.397 -0.1663 -0.4395 -0.1010
  637MOL0     O85919   8.151   2.526   1.270 -0.0594  0.1886  0.3753
  637MOL0     C85920   8.089   2.651   1.227 -0.5008 -0.4878  0.3428
  637MOL0     C85921   8.072   2.672   1.073 -0.5984  0.6669 -0.5490
  637MOL0     C85922   8.211   2.675   1.009  0.3510 -0.8367  0.4510
  637MOL0     C85923   8.208   2.629   0.864  0.5665 -0.0583 -0.2156
  637MOL0     C85924   8.115   2.697   0.781  0.0821 -0.2715 -0.0622
  637MOL0     C85925   8.056   2.759   0.694  0.4431  0.5250 -0.2138
  637MOL0     C85926   8.165   2.407   1.471 -0.3441 -0.2647  1.0040
  637MOL0     C85927   8.189   2.405   1.605  0.1895 -0.0880  0.1499
  637MOL0     H85928   8.487   2.347   1.974  0.0149 -1.4318 -0.9100
  637MOL0     H85929   8.540   2.298   2.226 -0.9835 -0.0186  0.8897
  637MOL0     H85930   8.567   2.391   2.497  2.4686  3.9655 -0.7886
  637MOL0     H85931   8.502   2.514   2.406  0.4780 -0.7935 -0.0202
  637MOL0     H85932   8.323   2.554   2.560 -1.0987  0.1179  1.4098
  637MOL0     H85933   8.384   2.429   2.675 -1.1928 -1.2580 -2.6691
  637MOL0     H85934   8.595   2.546   2.703 -1.2898  0.7641  2.7848
  637MOL0     H85935   8.541   2.672   2.588  0.8898  0.5177  0.6817
  637MOL0     H85936   8.350   2.730   2.744 -0.7207 -1.8250 -1.0768
  637MOL0     H85937   8.411   2.620   2.863  1.3834 -2.0874 -1.8077
  637MOL0     H85938   8.638   2.758   2.814 -0.5711 -1.0089  1.3184
  637MOL0     H85939   8.527   2.874   2.765 -1.4869 -0.9459 -1.5266
  637MOL0     H85940   8.420   2.880   2.993 -0.2170 -1.0207 -1.6631
  637MOL0     H85941   8.515   2.744   3.053  2.7669  1.5310  1.8246
  637MOL0     H85942   8.615   3.029   2.993  1.2404 -1.5814 -3.0490
  637MOL0     H85943   8.591   2.951   3.145  3.7097  0.6162  1.0406
  637MOL0     H85944   8.776   2.877   2.911  1.5558  1.3893 -0.3721
  637MOL0     H85945   8.785   2.781   3.064  1.4713  1.1768  1.4034
  637MOL0     H85946   8.775   3.158   3.001  2.2498  2.0115 -1.3701
  637MOL0     H85947   8.940   3.372   3.034  0.4560 -0.6363 -0.0481
  637MOL0     H85948   9.115   3.333   3.066 -0.6972  1.5834  0.4620
  637MOL0     H85949   8.977   3.267   2.812  0.4905 -1.4214  0.7677
  637MOL0     H85950   9.138   3.226   2.838 -0.2990 -1.0002 -0.3620
  637MOL0     H85951   9.041   3.501   2.815 -2.4752 -1.8172  2.3362
  637MOL0     H85952   9.165   3.406   2.716  0.3943  0.9119 -0.3721
  637MOL0     H85953   9.280   3.409   2.950 -3.7222 -1.1098  0.8431
  637MOL0     H85954   9.173   3.541   2.990 -1.2047 -0.3246 -1.2185
  637MOL0     H85955   9.427   3.529   3.048 -2.4128  0.8406 -1.0219
  637MOL0     H85956   9.529   3.556   3.234  1.3539 -0.5391 -0.4356
  637MOL0     H85957   9.697   3.615   3.209 -0.4954 -1.8144  0.2060
  637MOL0     H85958   9.583   3.715   3.294 -1.2561 -1.3756  1.1408
  637MOL0     H85959   9.827   4.193   3.173  0.7668  1.9914 -1.0909
  637MOL0     H85960  10.044   4.289   3.201  1.1365  1.9652 -1.8877
  637MOL0     H85961  10.424   4.102   3.158  0.7549 -0.5811 -0.4782
  637MOL0     H85962  10.376   4.079   2.984 -1.4378  1.8078 -0.9976
  637MOL0     H85963  10.430   4.288   2.928 -5.2201 -1.3837  3.4689
  637MOL0     H85964  10.533   4.320   3.080 -1.1919 -0.3202  1.2825
  637MOL0     H85965  10.635   4.094   3.023  2.0287  0.7043  0.5444
  637MOL0     H85966  10.699   4.240   2.950  1.1079 -1.0980 -2.7706
  637MOL0     H85967  10.495   4.050   2.822 -0.6115  0.4817  1.5196
  637MOL0     H85968  10.580   4.207   2.752 -2.0395  1.4303  2.6078
  637MOL0     H85969  10.704   3.935   2.808  0.9747  1.3652  2.1356
  637MOL0     H85970  10.789   4.078   2.777  1.1127 -2.1953 -1.5322
  637MOL0     H85971  10.740   3.921   2.593 -0.4703 -0.3849  3.7897
  637MOL0     H85972  10.569   3.954   2.595  0.0292 -1.0073  1.0384
  637MOL0     H85973  10.776   4.164   2.530  0.4831 -1.3802  1.4197
  637MOL0     H85974  10.603   4.186   2.512 -0.3457 -0.0617 -0.8741
  637MOL0     H85975  10.715   3.955   2.362  2.4690  1.0681  0.0039
  637MOL0     H85976  10.781   4.111   2.311 -0.3562 -1.4618 -3.3585
  637MOL0     H85977  10.213   3.981   2.945 -0.0580 -2.0061  3.9761
  637MOL0     H85978   9.984   3.921   2.879 -1.2566 -0.5282  0.8777
  637MOL0     H85979   9.591   3.930   2.828  2.8808 -1.4216 -0.5254
  637MOL0     H85980   9.400   3.816   2.749 -0.0183  2.9806 -0.7741
  637MOL0     H85981   8.153   2.368   2.330  0.1305  1.2756  0.0031
  637MOL0     H85982   8.082   2.399   2.093 -0.2918  1.8183 -0.2305
  637MOL0     H85983   8.369   2.690   1.633 -1.2438 -0.8602  3.2519
  637MOL0     H85984   8.303   2.711   1.400 -3.6964  1.8863  0.9466
  637MOL0     H85985   7.988   2.637   1.267 -1.1989 -2.0869 -1.8061
  637MOL0     H85986   8.131   2.734   1.285 -0.4200 -0.9178  0.9015
  637MOL0     H85987   8.012   2.763   1.065  0.8580  2.2937  4.0040
  637MOL0     H85988   8.015   2.586   1.036 -1.0059 -1.0638  3.5715
  637MOL0     H85989   8.282   2.613   1.064 -0.3068 -2.2682 -0.2701
  637MOL0     H85990   8.258   2.774   1.008 -1.3357  0.0454  2.4263
  637MOL0     H85991   8.203   2.520   0.851 -0.5723  0.1139 -1.3752
  637MOL0     H85992   8.305   2.653   0.819  0.4296 -0.5848 -0.8029
  637MOL0     H85993   8.013   2.818   0.615  2.1161 -0.1572 -1.7103
  637MOL0     H85994   8.106   2.337   1.412 -1.6262  3.0137 -2.0001
  637MOL0     H85995   8.154   2.321   1.665 -2.1591  1.1420  0.6094
  638MOL0     O85996   9.566   4.248  10.787  0.0750 -0.0720 -0.6985
  638MOL0     C85997   9.566   4.139  10.842 -0.0759  0.3506  0.6138
  638MOL0     O85998   9.609   4.109  10.971  0.8988 -0.7542 -0.3799
  638MOL0     C85999   9.650   4.218  11.053 -0.2738  0.5759  0.6446
  638MOL0     C86000   9.561   4.308  11.113  1.7747  1.4439 -0.1890
  638MOL0     C86001   9.617   4.399  11.207  0.7429 -0.9730  0.4618
  638MOL0     C86002   9.752   4.420  11.221  0.5535  0.5362 -0.0323
  638MOL0     O86003   9.795   4.502  11.315  0.5496  0.6583 -0.0442
  638MOL0     C86004   9.887   4.600  11.277 -0.4744  0.2676  0.3225
  638MOL0     C86005   9.858   4.721  11.365 -1.0775 -0.4173 -0.3300
  638MOL0     C86006   9.951   4.841  11.337 -0.2185 -0.6518  0.4089
  638MOL0     C86007  10.088   4.815  11.278  0.3633  0.9470  0.3062
  638MOL0     C86008  10.200   4.934  11.290 -0.0387  1.1285  0.2841
  638MOL0     C86009  10.152   5.075  11.253  0.2092  0.0298  0.4924
  638MOL0     C86010  10.272   5.178  11.243 -0.1567  0.1606  0.1578
  638MOL0     C86011  10.361   5.154  11.123 -0.1888 -0.6939 -0.1561
  638MOL0     N86012  10.453   5.264  11.095  0.2318 -0.5386  0.5198
  638MOL0     C86013  10.586   5.265  11.071 -0.1719  0.4496 -0.0468
  638MOL0     C86014  10.617   5.386  11.028  0.6472 -0.2398  0.4096
  638MOL0     C86015  10.746   5.434  10.981 -0.2055 -0.1547  0.1812
  638MOL0     C86016  10.801   5.348  10.863  0.3980  0.5085  0.6633
  638MOL0     C86017  10.921   5.419  10.805 -0.5246 -0.3000  0.7056
  638MOL0     C86018  10.925   5.417  10.649  0.3849 -0.5822 -0.3008
  638MOL0     O86019  11.046   5.459  10.580 -0.4594 -0.0003 -0.1427
  638MOL0     C86020  11.067   5.592  10.558  1.2534 -0.3884 -0.8977
  638MOL0     C86021  11.174   5.620  10.477 -0.1873  0.1458  0.0228
  638MOL0     C86022  11.209   5.751  10.453 -0.6496  0.1889  1.1641
  638MOL0     C86023  11.341   5.764  10.383 -0.4041  0.3589  0.0937
  638MOL0     C86024  11.129   5.858  10.507  0.1099 -0.0636  1.8421
  638MOL0     C86025  11.176   6.006  10.501  0.6354  0.6544 -0.0119
  638MOL0     O86026  11.116   6.086  10.593  0.0929 -0.3836  0.0870
  638MOL0     C86027  11.135   6.222  10.595 -0.8791 -0.7235 -0.4565
  638MOL0     C86028  11.043   6.307  10.529 -0.2239  0.8214  0.7906
  638MOL0     C86029  11.071   6.445  10.530  0.2920  0.6615 -0.4160
  638MOL0     C86030  11.183   6.488  10.596  0.6661  0.1247  0.2722
  638MOL0     O86031  11.205   6.618  10.608  0.7241 -0.0846 -0.4262
  638MOL0     C86032  11.170   6.674  10.733  0.2673  0.3096 -0.4304
  638MOL0     C86033  11.016   6.668  10.765 -0.0889  0.4509  0.2634
  638MOL0     C86034  10.972   6.765  10.871  0.7652  0.3704  0.3486
  638MOL0     C86035  10.818   6.749  10.886 -0.0974  0.2739  0.6967
  638MOL0     C86036  10.782   6.832  11.006  0.8349  0.0085 -1.0581
  638MOL0     C86037  10.630   6.830  11.038  0.0421 -1.0787  0.4666
  638MOL0     C86038  10.577   6.947  11.119  0.5811  0.2958  0.0446
  638MOL0     C86039  10.605   6.926  11.266 -0.3909 -0.8764 -0.1937
  638MOL0    Cl86040  10.504   7.056  11.346 -0.3783  0.5224 -0.0181
  638MOL0     C86041  11.277   6.408  10.658 -0.1020  0.6160 -0.0086
  638MOL0     C86042  11.251   6.271  10.660  0.2478 -0.4086 -0.9954
  638MOL0     O86043  11.272   6.036  10.431 -0.7868  0.3061 -0.0293
  638MOL0     C86044  11.014   5.829  10.578  0.4731  0.2607  0.0462
  638MOL0     C86045  10.977   5.694  10.601  0.3767 -0.2138 -0.1375
  638MOL0     N86046  10.505   5.461  11.021  0.2876  0.9449  1.1562
  638MOL0     N86047  10.407   5.392  11.065 -0.0116  0.3069 -0.2839
  638MOL0     C86048   9.833   4.338  11.140 -0.4344  0.0928 -1.0564
  638MOL0     C86049   9.781   4.232  11.064 -0.6769 -0.0327 -0.4936
  638MOL0     C86050   9.496   4.023  10.768 -1.2316  0.0257  1.0190
  638MOL0     C86051   9.485   3.893  10.809  1.5946  0.3374  0.5493
  638MOL0     C86052   9.418   3.790  10.731  0.3626  0.9209 -0.4512
  638MOL0     C86053   9.375   3.814  10.606 -0.3344 -0.6159 -0.7545
  638MOL0     O86054   9.304   3.727  10.537  0.2909 -0.6210  0.3327
  638MOL0     C86055   9.260   3.605  10.586  0.3088  0.2464 -0.8578
  638MOL0     C86056   9.138   3.617  10.678 -0.1670 -0.0044  0.8544
  638MOL0     C86057   9.045   3.746  10.667  0.1206  0.1088  0.8257
  638MOL0     C86058   8.974   3.747  10.528  0.1650  0.2463  0.6023
  638MOL0     C86059   8.919   3.882  10.494  0.4581  0.6151 -0.2824
  638MOL0     C86060   8.857   3.984  10.466 -0.2514  0.7979  0.8846
  638MOL0     C86061   9.381   3.944  10.555  0.6621  0.1702  0.2897
  638MOL0     C86062   9.440   4.047  10.635 -1.0069 -0.1652 -1.3668
  638MOL0     H86063   9.454   4.300  11.100  1.6197  1.1400  1.1613
  638MOL0     H86064   9.548   4.444  11.278  0.4421 -0.0497 -0.4010
  638MOL0     H86065   9.986   4.554  11.278 -1.0302 -1.0061  0.1676
  638MOL0     H86066   9.874   4.645  11.178 -0.6543 -0.0727  0.1879
  638MOL0     H86067   9.759   4.763  11.344 -1.5456  0.2290  2.7115
  638MOL0     H86068   9.870   4.684  11.467  0.9462 -0.1866 -0.4451
  638MOL0     H86069   9.902   4.915  11.273  0.1808  2.2976  3.2003
  638MOL0     H86070   9.960   4.896  11.432 -0.0911  2.6040 -1.3410
  638MOL0     H86071  10.136   4.725  11.319 -0.4383  0.0805 -0.5788
  638MOL0     H86072  10.086   4.795  11.170  1.1634  0.5166  0.3567
  638MOL0     H86073  10.238   4.926  11.393 -0.8768 -1.2429  0.4851
  638MOL0     H86074  10.280   4.916  11.218 -0.1707 -0.2613  0.4640
  638MOL0     H86075  10.104   5.081  11.154 -4.4302 -0.2421  2.4460
  638MOL0     H86076  10.073   5.111  11.319 -2.0381  1.2234 -2.6320
  638MOL0     H86077  10.235   5.280  11.235  1.9650  0.8347 -4.3238
  638MOL0     H86078  10.333   5.168  11.333 -1.3943  1.2938  1.1600
  638MOL0     H86079  10.289   5.141  11.042 -3.2191  0.6174  2.1145
  638MOL0     H86080  10.423   5.067  11.147  0.8713  0.4453  1.4899
  638MOL0     H86081  10.645   5.174  11.073 -1.4648 -0.4012  0.2803
  638MOL0     H86082  10.724   5.528  10.929  3.3979 -0.0100 -1.4048
  638MOL0     H86083  10.822   5.450  11.058  0.7932  0.4191 -0.8885
  638MOL0     H86084  10.725   5.330  10.787  3.4836 -2.1194 -2.0811
  638MOL0     H86085  10.835   5.253  10.905 -0.6018 -0.3998 -0.5062
  638MOL0     H86086  11.009   5.363  10.840  0.8465  1.6797  0.6141
  638MOL0     H86087  10.926   5.522  10.842 -2.4995 -0.5594  1.7964
  638MOL0     H86088  10.838   5.481  10.629  2.0332  1.1415 -2.6256
  638MOL0     H86089  10.911   5.318  10.604  4.0053 -0.9425 -0.8981
  638MOL0     H86090  11.235   5.536  10.446  1.1265 -0.2597  3.2182
  638MOL0     H86091  11.376   5.664  10.354  1.5329  0.9953  0.1499
  638MOL0     H86092  11.338   5.829  10.295  0.4773 -0.3143 -0.4575
  638MOL0     H86093  11.408   5.803  10.459 -0.6091 -0.8538  0.9154
  638MOL0     H86094  10.953   6.264  10.485  0.6077  1.0043 -1.1710
  638MOL0     H86095  11.016   6.527  10.486 -0.0716  0.6862  0.0731
  638MOL0     H86096  11.212   6.612  10.812  0.2074 -0.0537 -0.6812
  638MOL0     H86097  11.211   6.775  10.738 -0.9997  0.7760  1.7932
  638MOL0     H86098  10.965   6.695  10.672 -1.5670 -0.5820  0.7313
  638MOL0     H86099  10.987   6.566  10.792 -3.4391  1.1950 -0.0687
  638MOL0     H86100  11.007   6.864  10.839 -3.3043  1.6429 -0.7207
  638MOL0     H86101  11.014   6.744  10.970  1.7536 -0.6007 -0.2614
  638MOL0     H86102  10.781   6.803  10.798  2.9229  0.6432 -0.4688
  638MOL0     H86103  10.778   6.648  10.897 -1.5149  0.8268  0.8486
  638MOL0     H86104  10.808   6.935  10.984  0.2287  1.3117  3.2708
  638MOL0     H86105  10.837   6.800  11.095 -0.1225 -2.6174 -1.3183
  638MOL0     H86106  10.582   6.842  10.940  2.3178  2.6741 -0.3939
  638MOL0     H86107  10.606   6.732  11.080 -0.3236 -1.0440  0.3378
  638MOL0     H86108  10.469   6.949  11.109  0.1105 -0.3296  3.5280
  638MOL0     H86109  10.628   7.038  11.086  2.6970 -0.5921  0.6862
  638MOL0     H86110  10.709   6.912  11.297 -0.3521 -1.7231 -0.6853
  638MOL0     H86111  10.557   6.829  11.277 -2.2015 -0.5328 -3.4975
  638MOL0     H86112  11.372   6.447  10.689  1.4472 -2.0882 -0.9500
  638MOL0     H86113  11.317   6.191  10.695  3.3712  0.8968 -3.4043
  638MOL0     H86114  10.954   5.909  10.621  1.3089  0.4184  0.9695
  638MOL0     H86115  10.881   5.686  10.650  1.2825  1.9482  2.2337
  638MOL0     H86116   9.938   4.351  11.165 -1.4788  1.3756  3.7163
  638MOL0     H86117   9.856   4.169  11.017  1.0113  1.7747 -0.3066
  638MOL0     H86118   9.525   3.858  10.904 -1.1935 -3.4579  0.5745
  638MOL0     H86119   9.412   3.688  10.767  0.0108  1.1913  0.3032
  638MOL0     H86120   9.235   3.541  10.502  1.3924  0.8784 -1.6859
  638MOL0     H86121   9.339   3.559  10.647 -0.9410 -0.1956  0.4960
  638MOL0     H86122   9.168   3.613  10.783  2.8911 -0.2316  0.0860
  638MOL0     H86123   9.077   3.526  10.673  0.7972 -0.8580  3.1357
  638MOL0     H86124   9.105   3.836  10.677  0.9222 -0.5937  2.9511
  638MOL0     H86125   8.974   3.753  10.750  0.7904 -1.1038  1.5395
  638MOL0     H86126   8.907   3.662  10.518 -0.2573  0.7305 -0.7959
  638MOL0     H86127   9.049   3.736  10.449 -1.0594 -0.0868 -0.5350
  638MOL0     H86128   8.810   4.069  10.423 -1.6804 -2.0493 -3.8798
  638MOL0     H86129   9.349   3.971  10.455 -1.0533 -0.7779  0.5544
  638MOL0     H86130   9.443   4.145  10.589 -3.1974  1.0659  0.8294
  639MOL0     O86131   0.298   1.334   8.373 -0.2438 -0.7429 -0.0171
  639MOL0     C86132   0.379   1.259   8.320 -0.6498  0.3363 -0.5814
  639MOL0     O86133   0.507   1.241   8.361  0.0433 -0.9712 -0.7040
  639MOL0     C86134   0.578   1.323   8.453 -0.1644 -0.3536 -0.7343
  639MOL0     C86135   0.545   1.457   8.487 -0.2334  0.3249  0.1532
  639MOL0     C86136   0.611   1.535   8.573 -0.8944 -0.6008 -0.4383
  639MOL0     C86137   0.706   1.469   8.658 -0.0083  0.0194 -0.0754
  639MOL0     O86138   0.768   1.527   8.768  0.3847 -0.2196  0.0497
  639MOL0     C86139   0.804   1.661   8.761 -0.0245  0.8440 -0.3078
  639MOL0     C86140   0.892   1.685   8.880  0.3230  0.0685 -0.1098
  639MOL0     C86141   0.809   1.668   9.006 -0.0660  0.4319  0.0858
  639MOL0     C86142   0.900   1.732   9.110  1.1575  0.7391 -0.4775
  639MOL0     C86143   1.021   1.647   9.156 -0.8968 -0.6565 -0.5429
  639MOL0     C86144   1.096   1.716   9.278  0.0413  0.5935 -0.2508
  639MOL0     C86145   1.142   1.857   9.251  0.0941 -1.0858  0.0974
  639MOL0     C86146   1.251   1.861   9.142  0.6280 -0.3279 -0.1415
  639MOL0     N86147   1.320   1.992   9.145 -0.2302  0.0093 -0.0131
  639MOL0     C86148   1.449   2.026   9.182 -0.8427  0.0750  0.2781
  639MOL0     C86149   1.456   2.163   9.181 -0.2847 -0.6111  1.2556
  639MOL0     C86150   1.552   2.257   9.243 -0.2601  0.0136 -0.4300
  639MOL0     C86151   1.587   2.249   9.394  0.5089  0.0029  0.8898
  639MOL0     C86152   1.457   2.266   9.481 -0.5683  0.4125 -0.1505
  639MOL0     C86153   1.484   2.326   9.618  0.0574  0.6140  0.4352
  639MOL0     O86154   1.362   2.310   9.690 -0.0759  0.1590  0.0443
  639MOL0     C86155   1.374   2.340   9.824 -1.1163  0.8365 -0.4819
  639MOL0     C86156   1.470   2.420   9.894 -0.4128  0.2967  0.8830
  639MOL0     C86157   1.475   2.457  10.029  0.2806  0.9970  0.3528
  639MOL0     C86158   1.591   2.546  10.076 -0.0545  1.4997 -0.3636
  639MOL0     C86159   1.365   2.408  10.103 -0.1866  0.0634 -0.1594
  639MOL0     C86160   1.365   2.407  10.251 -0.4546  0.4535 -0.0053
  639MOL0     O86161   1.436   2.512  10.312  0.4865 -0.1291  0.1414
  639MOL0     C86162   1.460   2.513  10.450  0.1263  0.3522  0.7145
  639MOL0     C86163   1.491   2.403  10.522 -0.1289 -0.1352  0.2698
  639MOL0     C86164   1.506   2.406  10.665  1.3427  0.5861  0.1081
  639MOL0     C86165   1.476   2.529  10.729  0.4211 -0.2459 -0.5355
  639MOL0     O86166   1.458   2.537  10.863 -0.2782 -0.1416 -0.4912
  639MOL0     C86167   1.505   2.443  10.956 -0.5211 -0.1170  0.3592
  639MOL0     C86168   1.446   2.485  11.084  0.1140  0.8562  0.0800
  639MOL0     C86169   1.490   2.628  11.144 -0.6418 -1.3458 -0.7346
  639MOL0     C86170   1.479   2.629  11.301 -0.0805 -0.3856  0.5719
  639MOL0     C86171   1.551   2.725  11.386 -0.2796  0.2981  0.2167
  639MOL0     C86172   1.473   2.860  11.398  0.2069 -0.2038  0.7347
  639MOL0     C86173   1.529   2.962  11.492 -0.5733  0.3303 -0.0199
  639MOL0     C86174   1.525   2.894  11.635  0.5476 -0.8141  1.0998
  639MOL0    Cl86175   1.681   2.824  11.666  0.1225  0.2346  0.1558
  639MOL0     C86176   1.435   2.640  10.647 -0.2736  0.2641  0.2057
  639MOL0     C86177   1.428   2.631  10.510 -0.0190 -0.1771 -0.2377
  639MOL0     O86178   1.304   2.310  10.305 -1.1259 -0.8733 -0.8018
  639MOL0     C86179   1.260   2.340  10.041 -0.2986 -1.5028 -0.9277
  639MOL0     C86180   1.264   2.306   9.909 -0.4405  0.7425 -0.6629
  639MOL0     N86181   1.327   2.206   9.146 -0.1909  0.4307  0.7790
  639MOL0     N86182   1.248   2.105   9.128  0.2947  0.0856 -0.3692
  639MOL0     C86183   0.751   1.338   8.624 -0.4748  0.1725  0.8616
  639MOL0     C86184   0.699   1.273   8.506  1.1445  0.3335 -0.2525
  639MOL0     C86185   0.330   1.177   8.192  0.1396 -0.6758 -0.9122
  639MOL0     C86186   0.198   1.178   8.153  0.1316  1.0282  0.1813
  639MOL0     C86187   0.161   1.094   8.045 -0.3054 -0.4725 -0.0461
  639MOL0     C86188   0.250   1.003   7.983 -0.3030 -0.7453 -0.1113
  639MOL0     O86189   0.190   0.926   7.887  0.1838  0.1152 -0.3265
  639MOL0     C86190   0.267   0.815   7.855  0.8727  0.3591  0.0364
  639MOL0     C86191   0.157   0.699   7.833 -0.3503 -0.3830 -0.0395
  639MOL0     C86192   0.225   0.575   7.786  0.2735 -0.5243 -0.3880
  639MOL0     C86193   0.126   0.464   7.761  0.3875 -0.4718  1.0753
  639MOL0     C86194   0.069   0.434   7.900 -0.8487  0.0265  0.9126
  639MOL0     C86195   0.008   0.436   8.002  0.4972 -0.2114  0.6065
  639MOL0     C86196   0.383   1.006   8.025  0.5300  0.2230 -0.9722
  639MOL0     C86197   0.422   1.099   8.119  0.3117  0.1549 -0.3792
  639MOL0     H86198   0.455   1.503   8.446 -0.9286  2.5161  3.7124
  639MOL0     H86199   0.592   1.640   8.590  1.8352 -0.3276  1.8346
  639MOL0     H86200   0.855   1.691   8.669 -0.3644  1.0570 -0.4264
  639MOL0     H86201   0.717   1.726   8.772 -2.8856 -2.1931 -2.9203
  639MOL0     H86202   0.964   1.603   8.874 -1.6191 -1.7113 -0.2710
  639MOL0     H86203   0.939   1.783   8.867  2.0377 -0.8730 -1.4654
  639MOL0     H86204   0.714   1.722   9.000 -0.5291 -0.3392  0.3701
  639MOL0     H86205   0.793   1.562   9.028 -3.5339  0.6915 -0.6268
  639MOL0     H86206   0.932   1.831   9.078 -1.3259  1.0057 -2.5089
  639MOL0     H86207   0.823   1.753   9.184 -0.4789 -0.3682 -1.7743
  639MOL0     H86208   0.984   1.557   9.205 -0.3955 -0.4582  0.2137
  639MOL0     H86209   1.093   1.619   9.078 -0.6788 -0.6503 -0.3429
  639MOL0     H86210   1.045   1.714   9.375  2.0789 -1.1140  0.8484
  639MOL0     H86211   1.177   1.654   9.316  0.1271  1.4160  0.9814
  639MOL0     H86212   1.056   1.921   9.233 -0.1420 -0.9647  1.5534
  639MOL0     H86213   1.178   1.901   9.344  1.5718  0.5481 -1.1747
  639MOL0     H86214   1.201   1.862   9.045  1.2301 -0.7309 -0.4560
  639MOL0     H86215   1.309   1.771   9.163  0.4810  0.0433  2.1452
  639MOL0     H86216   1.541   1.974   9.209 -0.0360  1.5357  0.5094
  639MOL0     H86217   1.643   2.226   9.191 -1.8482 -2.5008 -1.8591
  639MOL0     H86218   1.528   2.360   9.215 -0.9398 -0.8364 -3.3012
  639MOL0     H86219   1.652   2.336   9.408 -0.9224  1.4206 -0.8346
  639MOL0     H86220   1.633   2.153   9.419 -2.1360 -2.2475 -2.0958
  639MOL0     H86221   1.413   2.167   9.493 -1.0275  0.3771 -1.8727
  639MOL0     H86222   1.381   2.330   9.435 -0.9911  2.1513  2.6919
  639MOL0     H86223   1.512   2.432   9.610 -1.1632  0.9662  0.5540
  639MOL0     H86224   1.556   2.262   9.669 -3.6027 -3.2216  1.3672
  639MOL0     H86225   1.556   2.457   9.839 -1.2671  0.6434 -0.2578
  639MOL0     H86226   1.627   2.539  10.179 -1.7508  0.5291  0.1978
  639MOL0     H86227   1.687   2.532  10.025  0.0276 -1.2888  0.3625
  639MOL0     H86228   1.560   2.648  10.050 -0.3524  1.0354 -1.9433
  639MOL0     H86229   1.501   2.304  10.477  1.5127  0.0615  0.1152
  639MOL0     H86230   1.519   2.318  10.726  1.9695  1.9430  2.0373
  639MOL0     H86231   1.458   2.350  10.923 -2.5938  0.9542  0.0889
  639MOL0     H86232   1.613   2.425  10.956 -0.4527  0.1237 -1.3771
  639MOL0     H86233   1.337   2.482  11.068  0.1369  0.0377  0.0557
  639MOL0     H86234   1.472   2.407  11.155 -2.3063  2.1836  2.6316
  639MOL0     H86235   1.430   2.710  11.103  1.0780  0.3949  0.0340
  639MOL0     H86236   1.596   2.652  11.125 -0.4793  1.0592  2.3929
  639MOL0     H86237   1.371   2.642  11.312 -0.2917  0.4546 -1.9256
  639MOL0     H86238   1.515   2.532  11.337  0.3922  0.2949  1.9701
  639MOL0     H86239   1.648   2.761  11.351  0.1312 -3.4864 -3.4811
  639MOL0     H86240   1.567   2.686  11.487 -0.6295  1.0266  0.5588
  639MOL0     H86241   1.452   2.899  11.298  0.1919 -2.4960 -0.2322
  639MOL0     H86242   1.370   2.836  11.427  0.1961  0.2129  1.0338
  639MOL0     H86243   1.469   3.053  11.498 -0.3621  0.4313  0.6489
  639MOL0     H86244   1.631   2.988  11.464 -1.4428  0.9060 -2.9672
  639MOL0     H86245   1.448   2.816  11.635 -1.5518  1.0103 -1.9052
  639MOL0     H86246   1.494   2.965  11.712 -0.3861 -1.1561  1.0547
  639MOL0     H86247   1.399   2.727  10.701 -2.7728 -1.8374  2.2142
  639MOL0     H86248   1.400   2.716  10.450  0.4633 -0.4682 -0.8890
  639MOL0     H86249   1.186   2.292  10.104  0.3709  0.0896  1.1664
  639MOL0     H86250   1.191   2.239   9.864  1.0002 -1.6266  0.3322
  639MOL0     H86251   0.846   1.296   8.655 -0.2414  0.9702  1.2628
  639MOL0     H86252   0.738   1.176   8.478 -2.2304 -0.9441 -0.9643
  639MOL0     H86253   0.115   1.228   8.202 -2.0863 -0.2632 -2.0969
  639MOL0     H86254   0.059   1.086   8.011 -0.8740 -1.6409  1.7836
  639MOL0     H86255   0.304   0.837   7.755  1.3317  1.8845  0.5197
  639MOL0     H86256   0.350   0.774   7.913  1.0681  0.0611 -0.4432
  639MOL0     H86257   0.079   0.735   7.766  1.7582  3.1518 -0.8230
  639MOL0     H86258   0.129   0.680   7.937  0.3548 -0.8453  0.0778
  639MOL0     H86259   0.293   0.550   7.868 -0.4472 -0.3994  0.2656
  639MOL0     H86260   0.283   0.590   7.694 -0.4700 -0.2228 -0.8175
  639MOL0     H86261   0.178   0.375   7.723 -2.0641 -1.5616  0.0847
  639MOL0     H86262   0.044   0.501   7.698  1.3157  0.9959  0.6741
  639MOL0     H86263  -0.051   0.431   8.090 -0.3836 -1.7136 -0.0203
  639MOL0     H86264   0.459   0.933   7.998 -0.5352 -2.1983  1.9271
  639MOL0     H86265   0.521   1.093   8.163 -0.3745 -1.0748  1.0892
  640MOL0     O86266   3.542   4.346  10.133  0.0753 -0.0240 -0.6534
  640MOL0     C86267   3.576   4.345  10.253 -0.5535  0.6272 -0.4113
  640MOL0     O86268   3.678   4.274  10.296 -1.1100 -0.8223 -0.0749
  640MOL0     C86269   3.759   4.183  10.229  0.0401 -1.0425  0.0389
  640MOL0     C86270   3.734   4.127  10.101 -0.1881 -0.3567 -0.1110
  640MOL0     C86271   3.824   4.038  10.043  0.4844  0.7027 -0.8559
  640MOL0     C86272   3.938   4.005  10.115  0.6807  0.2163 -0.2548
  640MOL0     O86273   4.024   3.912  10.062 -0.1456  0.0762 -0.5364
  640MOL0     C86274   3.978   3.784  10.109  0.8711 -0.5046 -0.5774
  640MOL0     C86275   3.883   3.712  10.021 -0.0664 -0.0598  0.1648
  640MOL0     C86276   3.925   3.568   9.985 -0.6338  0.5500 -0.6624
  640MOL0     C86277   3.828   3.513   9.880  0.0634 -0.1442  0.2120
  640MOL0     C86278   3.805   3.362   9.878  0.5482  0.4592 -0.3150
  640MOL0     C86279   3.920   3.288   9.812  0.0573  0.1198 -0.0357
  640MOL0     C86280   3.864   3.158   9.743 -0.7519  0.3189 -0.6143
  640MOL0     C86281   3.801   3.177   9.606 -0.3049  0.0734 -0.7943
  640MOL0     N86282   3.653   3.201   9.615 -0.0328  0.3078 -0.7530
  640MOL0     C86283   3.596   3.318   9.572  1.2739  0.4350 -0.2439
  640MOL0     C86284   3.464   3.288   9.571  0.5150  0.3162  0.5460
  640MOL0     C86285   3.341   3.374   9.520 -1.0311  1.1219  0.3748
  640MOL0     C86286   3.317   3.347   9.373 -0.2179 -0.5983  0.0721
  640MOL0     C86287   3.264   3.209   9.343  0.5892  0.5577 -0.1142
  640MOL0     C86288   3.270   3.170   9.201  0.7428  0.1480 -0.1671
  640MOL0     O86289   3.192   3.272   9.123 -0.4817 -0.2069 -0.4154
  640MOL0     C86290   3.060   3.264   9.126  0.0300  0.1528 -0.0856
  640MOL0     C86291   2.991   3.387   9.146  0.4870  0.3999  1.3411
  640MOL0     C86292   2.853   3.395   9.153  0.3665  0.5126  0.7708
  640MOL0     C86293   2.788   3.534   9.156  0.5648  0.7256 -0.6304
  640MOL0     C86294   2.774   3.282   9.140 -0.2759  0.2709 -0.0509
  640MOL0     C86295   2.620   3.285   9.147  0.2808  0.3157 -0.2386
  640MOL0     O86296   2.561   3.202   9.058  0.8597  0.6456  0.1046
  640MOL0     C86297   2.426   3.216   9.061  0.1655 -0.2159  0.6015
  640MOL0     C86298   2.334   3.166   9.153 -0.4033  0.2217  0.1830
  640MOL0     C86299   2.202   3.169   9.123 -0.3939 -0.5411 -0.6907
  640MOL0     C86300   2.150   3.221   9.004  0.4285  0.0290 -0.4994
  640MOL0     O86301   2.009   3.216   8.985 -0.6732 -0.4843 -0.0474
  640MOL0     C86302   1.979   3.132   8.877 -0.4257  0.2401  0.5113
  640MOL0     C86303   1.829   3.096   8.883 -0.7691  0.9105  0.3722
  640MOL0     C86304   1.784   3.026   8.747  0.8432 -0.8001 -0.3096
  640MOL0     C86305   1.737   3.148   8.656  0.0257  0.6927  0.3289
  640MOL0     C86306   1.650   3.101   8.539 -0.6962 -0.9323 -0.0981
  640MOL0     C86307   1.515   3.070   8.573 -0.0140  0.0468 -0.2931
  640MOL0     C86308   1.452   2.971   8.487  0.3782  0.3497  0.5846
  640MOL0     C86309   1.309   2.932   8.520  0.5011  0.0679  0.0279
  640MOL0    Cl86310   1.256   2.824   8.380 -0.0374 -0.4768 -0.3097
  640MOL0     C86311   2.235   3.274   8.912  0.3555  0.1822 -0.8966
  640MOL0     C86312   2.374   3.270   8.944  0.4213 -0.2096 -0.2844
  640MOL0     O86313   2.571   3.342   9.250 -0.6289 -0.7661 -0.2422
  640MOL0     C86314   2.846   3.166   9.104 -0.1349  0.0844 -0.6109
  640MOL0     C86315   2.986   3.149   9.109  0.5428 -0.4709  0.2397
  640MOL0     N86316   3.442   3.156   9.621 -0.3536 -0.3447  0.1159
  640MOL0     N86317   3.556   3.100   9.637  0.4016  0.6679  0.5828
  640MOL0     C86318   3.977   4.069  10.238 -0.6784  0.5391  0.8230
  640MOL0     C86319   3.882   4.155  10.293  0.3927  0.4769 -0.0961
  640MOL0     C86320   3.517   4.429  10.362 -0.4794  0.8393 -0.6689
  640MOL0     C86321   3.414   4.511  10.326  0.0959  0.2713  0.7919
  640MOL0     C86322   3.346   4.582  10.425 -0.0441  0.0503  0.0995
  640MOL0     C86323   3.375   4.572  10.560  0.5914 -0.3389  0.3030
  640MOL0     O86324   3.304   4.661  10.633  0.8315 -0.3283 -0.4494
  640MOL0     C86325   3.202   4.625  10.727  0.0933 -0.4952  0.3121
  640MOL0     C86326   3.142   4.748  10.789 -0.2990 -1.2802  0.5968
  640MOL0     C86327   3.071   4.841  10.699  0.0552 -0.6200  0.2478
  640MOL0     C86328   2.919   4.863  10.739 -0.4985  0.4185  1.2388
  640MOL0     C86329   2.853   4.738  10.721  0.0138  0.4287  0.7419
  640MOL0     C86330   2.814   4.623  10.704  0.4922 -1.0768  0.3876
  640MOL0     C86331   3.483   4.497  10.597 -0.5469  0.4634  0.3244
  640MOL0     C86332   3.557   4.424  10.505  0.2181  0.9652 -0.3947
  640MOL0     H86333   3.645   4.143  10.040 -0.2448 -1.0137 -0.2152
  640MOL0     H86334   3.794   3.980   9.957 -0.7253  0.5478 -0.3426
  640MOL0     H86335   4.056   3.711  10.128 -0.3743 -2.5884 -2.9057
  640MOL0     H86336   3.932   3.786  10.208  0.5969 -3.2404 -0.5686
  640MOL0     H86337   3.783   3.707  10.063  0.6217 -0.2430  1.8675
  640MOL0     H86338   3.878   3.774   9.931 -2.0797 -2.4804 -1.5447
  640MOL0     H86339   4.027   3.576   9.947  0.5685  2.4261  2.5135
  640MOL0     H86340   3.931   3.516  10.082 -0.6066  1.8524  0.0644
  640MOL0     H86341   3.729   3.555   9.901  0.5328  0.2138  1.8332
  640MOL0     H86342   3.857   3.544   9.779 -2.6454  1.9362 -0.0387
  640MOL0     H86343   3.777   3.310   9.970  0.4617 -0.3063 -0.7613
  640MOL0     H86344   3.717   3.340   9.816  1.9292  0.8038 -2.5050
  640MOL0     H86345   3.965   3.353   9.737 -0.9789  0.6591 -0.2090
  640MOL0     H86346   3.995   3.269   9.890  0.1444  2.6857  0.5804
  640MOL0     H86347   3.947   3.088   9.725 -1.5545 -1.1522  1.0768
  640MOL0     H86348   3.795   3.106   9.810 -1.5401  2.3152  0.2080
  640MOL0     H86349   3.821   3.084   9.553  1.2828  0.4541 -0.9068
  640MOL0     H86350   3.842   3.259   9.545 -2.8154  0.4366 -2.1251
  640MOL0     H86351   3.649   3.406   9.537 -1.3159  1.3091 -2.2704
  640MOL0     H86352   3.242   3.358   9.564 -1.7460 -0.3996 -1.6189
  640MOL0     H86353   3.364   3.481   9.527 -0.9509  1.7158 -4.8211
  640MOL0     H86354   3.415   3.361   9.326 -0.5842  0.6264 -0.3569
  640MOL0     H86355   3.243   3.415   9.331 -0.9015 -0.7909  0.9351
  640MOL0     H86356   3.159   3.214   9.370  0.7233  1.1566  0.3013
  640MOL0     H86357   3.311   3.137   9.411  2.2000  3.4534  2.0660
  640MOL0     H86358   3.233   3.068   9.190 -1.1037  0.7884 -0.1579
  640MOL0     H86359   3.376   3.167   9.174  1.9240  1.1239  3.7624
  640MOL0     H86360   3.039   3.484   9.153 -3.7753  3.1692 -2.0499
  640MOL0     H86361   2.679   3.537   9.147  0.5124 -0.6541 -0.7985
  640MOL0     H86362   2.813   3.571   9.255  2.4581 -1.8903 -0.0205
  640MOL0     H86363   2.836   3.584   9.071  2.8834 -0.0722  0.1470
  640MOL0     H86364   2.387   3.115   9.232  0.8326  0.0809 -0.6960
  640MOL0     H86365   2.132   3.116   9.187  0.5336 -1.2014 -0.1957
  640MOL0     H86366   1.989   3.176   8.777 -0.7276  1.1447  0.8638
  640MOL0     H86367   2.038   3.041   8.863 -2.3086 -0.7845 -1.3589
  640MOL0     H86368   1.806   3.034   8.970  1.3366  1.0081  1.0542
  640MOL0     H86369   1.771   3.188   8.891 -0.2816  1.5154 -2.1606
  640MOL0     H86370   1.702   2.956   8.762  0.7321 -1.2241 -2.4902
  640MOL0     H86371   1.878   2.985   8.711 -0.0638 -1.3830 -2.1384
  640MOL0     H86372   1.695   3.237   8.704 -0.6106  1.9441 -2.3265
  640MOL0     H86373   1.818   3.196   8.600 -2.0369  1.9484 -1.7758
  640MOL0     H86374   1.704   3.020   8.491  0.3985  0.3771 -1.1653
  640MOL0     H86375   1.651   3.188   8.473  0.2657  0.0766  1.1928
  640MOL0     H86376   1.519   3.022   8.671  3.1829 -4.2244 -2.1555
  640MOL0     H86377   1.455   3.161   8.581 -0.1938  0.0154 -1.1230
  640MOL0     H86378   1.521   2.886   8.483  1.0055  0.7764  1.9241
  640MOL0     H86379   1.451   3.005   8.383  0.3552 -1.2168  0.0342
  640MOL0     H86380   1.253   3.026   8.527  0.4281  0.0803 -0.6344
  640MOL0     H86381   1.298   2.878   8.614 -0.8914  0.2737 -0.0024
  640MOL0     H86382   2.196   3.310   8.817 -1.9618 -0.7516 -0.3834
  640MOL0     H86383   2.446   3.306   8.872 -0.9584  2.5067 -0.4250
  640MOL0     H86384   2.786   3.079   9.081 -1.4581  1.6894 -3.9590
  640MOL0     H86385   3.030   3.050   9.117 -0.6482 -0.9672  0.8497
  640MOL0     H86386   4.075   4.052  10.282  0.7900  1.4832 -1.8500
  640MOL0     H86387   3.900   4.208  10.386  3.3623  1.1628 -0.9367
  640MOL0     H86388   3.381   4.527  10.223  0.7829  0.4073  0.5927
  640MOL0     H86389   3.284   4.663  10.390  0.3870 -0.1930 -1.2981
  640MOL0     H86390   3.138   4.564  10.663  2.6152 -1.5852 -1.3698
  640MOL0     H86391   3.248   4.556  10.799  1.3998  1.6617  1.6374
  640MOL0     H86392   3.222   4.810  10.831 -2.1396  1.0132  0.8908
  640MOL0     H86393   3.083   4.712  10.873 -1.8631  2.4795  1.2933
  640MOL0     H86394   3.080   4.806  10.596  0.2131 -1.8738  0.6757
  640MOL0     H86395   3.120   4.938  10.709 -0.0373  0.0915 -4.2433
  640MOL0     H86396   2.870   4.941  10.680  0.6748 -0.4120 -0.9752
  640MOL0     H86397   2.906   4.891  10.844  0.5140  0.8563  1.2606
  640MOL0     H86398   2.776   4.524  10.684 -0.1906 -0.6763 -0.3678
  640MOL0     H86399   3.495   4.482  10.704  1.1560 -3.6686 -0.2610
  640MOL0     H86400   3.644   4.366  10.534  1.6065  2.7467 -0.7974
  641MOL0     O86401   1.700   2.820   0.897 -0.5484  0.0628  0.3235
  641MOL0     C86402   1.772   2.734   0.841 -0.7394  0.1252 -0.2271
  641MOL0     O86403   1.730   2.614   0.787 -0.5086  0.0603  0.2012
  641MOL0     C86404   1.603   2.606   0.743  0.4905  0.4241  0.0354
  641MOL0     C86405   1.540   2.481   0.756  0.6152  0.5444  0.3843
  641MOL0     C86406   1.410   2.463   0.704 -0.1015  0.3459 -0.3388
  641MOL0     C86407   1.346   2.557   0.632 -0.0906  0.5353 -0.2183
  641MOL0     O86408   1.209   2.547   0.592  1.4979  0.1814 -0.1914
  641MOL0     C86409   1.143   2.416   0.580  0.4113 -0.4659  0.5012
  641MOL0     C86410   1.108   2.370   0.716  1.2470 -0.0401  0.7972
  641MOL0     C86411   0.955   2.405   0.724 -0.1853 -0.6981  0.1504
  641MOL0     C86412   0.871   2.282   0.674  0.2537 -0.3884  0.1289
  641MOL0     C86413   0.723   2.314   0.679 -0.6384  0.0746 -0.1584
  641MOL0     C86414   0.623   2.191   0.685  1.1947 -0.3073  0.9816
  641MOL0     C86415   0.491   2.222   0.755  0.4092 -0.1011  0.3901
  641MOL0     C86416   0.422   2.342   0.697 -0.7931 -0.0103  1.1230
  641MOL0     N86417   0.300   2.376   0.776  0.1020  0.1166 -0.3844
  641MOL0     C86418   0.272   2.448   0.887 -0.6787 -0.1567 -0.0180
  641MOL0     C86419   0.158   2.396   0.935 -0.2008 -0.2141 -0.2401
  641MOL0     C86420   0.094   2.422   1.068 -0.9135  0.2246  0.2288
  641MOL0     C86421   0.195   2.368   1.178  0.4308 -0.1317 -0.4608
  641MOL0     C86422   0.125   2.368   1.311 -0.5547  0.6941  0.1111
  641MOL0     C86423   0.213   2.379   1.433 -0.1224  0.5016 -0.5140
  641MOL0     O86424   0.136   2.399   1.544 -0.5986  0.4577 -0.8215
  641MOL0     C86425   0.195   2.389   1.669 -0.0465  0.3610 -0.7750
  641MOL0     C86426   0.185   2.270   1.735 -0.8338  0.3362  0.4415
  641MOL0     C86427   0.234   2.249   1.861 -0.7687  0.9201  0.8407
  641MOL0     C86428   0.228   2.104   1.919 -0.1078 -0.7210  0.8824
  641MOL0     C86429   0.306   2.357   1.923 -0.0970  0.6795  0.7486
  641MOL0     C86430   0.373   2.341   2.045  0.6349  0.5712  0.4780
  641MOL0     O86431   0.288   2.319   2.153 -0.2395 -0.1000  0.2715
  641MOL0     C86432   0.347   2.260   2.261  1.0965 -0.2594  0.0226
  641MOL0     C86433   0.427   2.344   2.342  1.0074  0.8207  0.0420
  641MOL0     C86434   0.493   2.302   2.451  0.9236  0.9228 -0.4935
  641MOL0     C86435   0.486   2.162   2.485  0.1273 -0.4301  0.0817
  641MOL0     O86436   0.556   2.124   2.598  0.8242 -0.1442 -0.5617
  641MOL0     C86437   0.682   2.055   2.575  0.9671  0.0349 -0.9784
  641MOL0     C86438   0.779   2.153   2.494  0.3334 -0.8262 -0.2013
  641MOL0     C86439   0.807   2.274   2.594  0.6895 -0.2842 -0.2328
  641MOL0     C86440   0.898   2.367   2.529 -0.3601 -0.7551 -0.3608
  641MOL0     C86441   0.816   2.472   2.439 -0.1542  0.1379 -1.1615
  641MOL0     C86442   0.894   2.577   2.364  0.8425  1.1059 -0.7918
  641MOL0     C86443   0.811   2.671   2.276 -0.5881 -0.0917 -0.6206
  641MOL0     C86444   0.751   2.616   2.139 -1.1061  0.5397  0.1810
  641MOL0    Cl86445   0.641   2.731   2.064 -0.0265  0.1344  0.2431
  641MOL0     C86446   0.406   2.077   2.401  0.1752  0.2359  0.3069
  641MOL0     C86447   0.327   2.127   2.296 -0.6113  0.4356  0.2293
  641MOL0     O86448   0.497   2.357   2.041  0.0778 -0.2208 -0.3141
  641MOL0     C86449   0.307   2.477   1.860 -0.3624  0.1646 -0.8087
  641MOL0     C86450   0.255   2.500   1.736  0.3692 -0.2893 -0.5178
  641MOL0     N86451   0.101   2.311   0.845 -0.3413  1.0643 -0.1631
  641MOL0     N86452   0.194   2.297   0.753 -0.3885 -0.4010  0.0560
  641MOL0     C86453   1.407   2.680   0.622 -0.6418 -0.0241 -0.5963
  641MOL0     C86454   1.536   2.707   0.671  0.5620 -0.7479 -0.0814
  641MOL0     C86455   1.916   2.766   0.854 -0.2912  0.9512  1.0989
  641MOL0     C86456   2.001   2.697   0.781 -1.0856  0.1962 -0.1779
  641MOL0     C86457   2.139   2.702   0.814  0.5552  0.9836  0.9090
  641MOL0     C86458   2.188   2.790   0.914 -0.0429  0.7684  0.5446
  641MOL0     O86459   2.318   2.795   0.945 -0.8709  0.1036  0.5665
  641MOL0     C86460   2.414   2.688   0.911  0.2276 -0.3607 -0.6055
  641MOL0     C86461   2.489   2.737   0.781  0.2044  0.8617  0.3060
  641MOL0     C86462   2.580   2.854   0.806 -0.5883  0.2000 -0.2065
  641MOL0     C86463   2.634   2.911   0.670  0.6475  0.4006  0.0176
  641MOL0     C86464   2.720   3.022   0.714  0.0639  0.4276  0.7605
  641MOL0     C86465   2.800   3.103   0.746  0.3301 -0.0659  0.0848
  641MOL0     C86466   2.093   2.859   0.980  0.0334 -1.8454  1.0026
  641MOL0     C86467   1.960   2.858   0.953 -0.5115 -0.6514  0.4757
  641MOL0     H86468   1.589   2.392   0.795 -0.1803 -0.2324 -0.3499
  641MOL0     H86469   1.363   2.367   0.720  0.1950  0.2881  0.2131
  641MOL0     H86470   1.054   2.435   0.520  1.4358  1.3540 -0.5440
  641MOL0     H86471   1.198   2.337   0.528 -0.0636  0.0892 -0.8890
  641MOL0     H86472   1.122   2.262   0.712 -0.2659 -0.2263 -0.6447
  641MOL0     H86473   1.159   2.425   0.796  1.2923  2.4486 -0.8158
  641MOL0     H86474   0.933   2.428   0.829  1.4484 -0.3642  0.4437
  641MOL0     H86475   0.927   2.487   0.657  1.4852 -1.0262 -1.0009
  641MOL0     H86476   0.915   2.260   0.576  0.8012  0.0850  0.2603
  641MOL0     H86477   0.896   2.205   0.748  0.3693  0.1036  0.6112
  641MOL0     H86478   0.697   2.378   0.763 -0.8298  2.5896 -2.0325
  641MOL0     H86479   0.707   2.368   0.585  1.1283 -0.9865 -1.1295
  641MOL0     H86480   0.620   2.155   0.582  4.5792  2.5875 -0.3629
  641MOL0     H86481   0.675   2.116   0.745  0.8275 -1.1665  0.2420
  641MOL0     H86482   0.432   2.133   0.731  1.3485 -0.5796 -0.2376
  641MOL0     H86483   0.514   2.222   0.862  0.4870 -0.7618  0.3772
  641MOL0     H86484   0.404   2.326   0.591  2.9045 -3.5835  0.7947
  641MOL0     H86485   0.490   2.427   0.710 -2.1117  1.2501  0.0356
  641MOL0     H86486   0.336   2.516   0.943 -0.3289 -1.6790  1.5121
  641MOL0     H86487   0.084   2.530   1.085  1.2304  0.3245  1.1915
  641MOL0     H86488  -0.001   2.371   1.085  0.2766 -1.9752  0.6740
  641MOL0     H86489   0.270   2.447   1.189 -0.3676  0.7846 -1.3685
  641MOL0     H86490   0.249   2.279   1.145  1.4031  0.3556 -0.2098
  641MOL0     H86491   0.069   2.274   1.313 -2.4573  1.7312 -1.0109
  641MOL0     H86492   0.041   2.438   1.318  1.3003  3.0990 -0.5871
  641MOL0     H86493   0.277   2.466   1.414 -0.1712  1.2249  2.1978
  641MOL0     H86494   0.276   2.290   1.436  2.5262  2.2716  0.5217
  641MOL0     H86495   0.140   2.184   1.687  0.2459  0.4609 -0.8624
  641MOL0     H86496   0.211   2.107   2.027  3.6162  2.7620  1.6329
  641MOL0     H86497   0.148   2.049   1.868 -1.3042  1.3735  0.3721
  641MOL0     H86498   0.324   2.054   1.905  0.3926 -0.2653  2.4401
  641MOL0     H86499   0.434   2.449   2.313  1.8527  1.9752  3.7999
  641MOL0     H86500   0.560   2.365   2.508  0.8952  1.2401 -0.8107
  641MOL0     H86501   0.733   2.033   2.669 -2.9200 -0.9810  1.1180
  641MOL0     H86502   0.661   1.962   2.522 -1.4362  1.4089 -2.6463
  641MOL0     H86503   0.874   2.100   2.476 -1.2545 -4.1745  0.4545
  641MOL0     H86504   0.729   2.178   2.400  1.6733 -2.2378 -1.3429
  641MOL0     H86505   0.853   2.223   2.679  1.5018  0.0749 -0.4540
  641MOL0     H86506   0.711   2.322   2.618  1.2278  0.4758  0.4468
  641MOL0     H86507   0.961   2.424   2.597 -1.0642 -0.6153  0.1829
  641MOL0     H86508   0.960   2.309   2.459  2.2666  0.9246  0.4393
  641MOL0     H86509   0.742   2.510   2.510  0.6095 -1.9515  0.8703
  641MOL0     H86510   0.769   2.429   2.351  3.8824  0.6375 -3.7932
  641MOL0     H86511   0.952   2.635   2.436 -3.1928  2.8678  1.3524
  641MOL0     H86512   0.969   2.520   2.307  2.0017  0.6902  1.0631
  641MOL0     H86513   0.860   2.766   2.253 -2.9099  1.3501  0.0067
  641MOL0     H86514   0.723   2.706   2.331  0.7238  0.3317  1.3031
  641MOL0     H86515   0.693   2.525   2.157 -0.1794  0.2481  1.7975
  641MOL0     H86516   0.832   2.594   2.069 -2.4172 -1.0151 -0.9293
  641MOL0     H86517   0.401   1.972   2.428  1.6936 -0.3221 -1.3801
  641MOL0     H86518   0.258   2.066   2.239 -3.1033  2.2323  1.1688
  641MOL0     H86519   0.360   2.550   1.920  1.7056 -2.6440  1.0491
  641MOL0     H86520   0.273   2.599   1.696  0.7189 -0.7134 -1.4364
  641MOL0     H86521   1.359   2.746   0.550 -0.9354  0.2602 -0.1427
  641MOL0     H86522   1.590   2.796   0.643 -1.3582  0.6696  0.5308
  641MOL0     H86523   1.977   2.634   0.697  3.5422 -1.9508 -0.1993
  641MOL0     H86524   2.213   2.643   0.759 -0.2541 -1.4421  2.2733
  641MOL0     H86525   2.481   2.675   0.996 -1.6331  0.0756  1.0132
  641MOL0     H86526   2.362   2.593   0.897 -0.1523 -0.1692 -0.5146
  641MOL0     H86527   2.412   2.770   0.711  1.2985  2.1137 -0.3565
  641MOL0     H86528   2.546   2.657   0.732  0.8592  2.0253 -0.8905
  641MOL0     H86529   2.661   2.835   0.876  1.9299  0.4646 -2.8647
  641MOL0     H86530   2.516   2.930   0.853 -1.0072 -0.8952  1.0612
  641MOL0     H86531   2.551   2.950   0.612  0.1225  0.9991  1.1365
  641MOL0     H86532   2.690   2.835   0.614  0.0419 -0.7322  0.9059
  641MOL0     H86533   2.842   3.190   0.793 -2.1460  1.4528 -0.3109
  641MOL0     H86534   2.123   2.931   1.055  0.9516 -0.9894 -0.1451
  641MOL0     H86535   1.906   2.931   1.012  0.8721  1.1565 -0.4026
  642MOL0     O86536  10.411  11.242   4.238  0.2886  0.1124 -0.1899
  642MOL0     C86537  10.494  11.237   4.330  1.0318 -0.3936 -0.1933
  642MOL0     O86538  10.614  11.294   4.329  0.2637 -0.4011 -0.1545
  642MOL0     C86539  10.621  11.415   4.260  0.4745  0.6044 -0.4410
  642MOL0     C86540  10.747  11.446   4.224 -0.2523 -0.8308  0.7640
  642MOL0     C86541  10.778  11.578   4.171 -0.6046  0.4052  0.5564
  642MOL0     C86542  10.669  11.665   4.147  0.6676  0.0623  0.2765
  642MOL0     O86543  10.700  11.795   4.110  0.5876 -0.0374  0.8147
  642MOL0     C86544  10.621  11.846   4.004 -0.4122  0.2598  0.0577
  642MOL0     C86545  10.680  11.957   3.918 -0.1240  0.1592  1.0463
  642MOL0     C86546  10.804  11.924   3.829 -0.2275 -0.0304  0.2853
  642MOL0     C86547  10.859  12.052   3.758 -0.3097  0.0242  0.3387
  642MOL0     C86548  10.988  12.029   3.658 -0.3202  1.1346 -0.3514
  642MOL0     C86549  11.029  12.150   3.574  0.0934  0.0661 -0.1534
  642MOL0     C86550  11.162  12.117   3.490  0.7331  0.1394 -1.1804
  642MOL0     C86551  11.162  11.999   3.399  0.4053 -0.0513  0.4097
  642MOL0     N86552  11.274  12.020   3.305  0.3991  0.4943  0.4766
  642MOL0     C86553  11.408  12.001   3.315  0.3523  0.5577 -0.2745
  642MOL0     C86554  11.464  12.031   3.193  1.0062  1.1830  0.1666
  642MOL0     C86555  11.612  12.034   3.144  0.0146  0.4607  0.2989
  642MOL0     C86556  11.654  11.920   3.050 -0.1526 -1.5321 -0.3219
  642MOL0     C86557  11.799  11.940   2.993  0.4285  0.4109 -0.0672
  642MOL0     C86558  11.818  11.838   2.887 -0.0141  0.6896  0.3366
  642MOL0     O86559  11.736  11.884   2.780 -0.7648 -0.4815  0.6199
  642MOL0     C86560  11.719  11.801   2.680 -0.0127  0.6471 -0.1722
  642MOL0     C86561  11.647  11.863   2.573  0.4013 -0.4813  0.8317
  642MOL0     C86562  11.622  11.796   2.446 -0.3556  0.0827  0.0490
  642MOL0     C86563  11.548  11.878   2.339 -0.2482 -0.3186 -0.2654
  642MOL0     C86564  11.671  11.665   2.430 -0.3946  0.3156 -0.2765
  642MOL0     C86565  11.693  11.602   2.298  0.0536 -0.3588 -1.0968
  642MOL0     O86566  11.777  11.493   2.284 -0.1175  0.5481 -0.7026
  642MOL0     C86567  11.738  11.414   2.185  0.6276  0.3064  0.4397
  642MOL0     C86568  11.845  11.354   2.111  0.0818 -0.7475  0.4617
  642MOL0     C86569  11.810  11.253   2.022  0.1750  0.0880  0.9853
  642MOL0     C86570  11.679  11.208   2.007 -0.5089  0.0761 -0.6497
  642MOL0     O86571  11.626  11.119   1.919 -0.5502 -0.0639 -0.1952
  642MOL0     C86572  11.726  11.026   1.864 -0.4100 -0.3409  0.5653
  642MOL0     C86573  11.765  10.924   1.973 -0.1746 -0.1474  0.8329
  642MOL0     C86574  11.784  10.784   1.918  0.1534  0.5124  0.5550
  642MOL0     C86575  11.920  10.747   1.841  0.4619  1.0647  0.0762
  642MOL0     C86576  11.916  10.591   1.817 -0.7320  0.7177 -1.4193
  642MOL0     C86577  12.049  10.528   1.794 -0.2030 -0.4407  0.0052
  642MOL0     C86578  12.032  10.373   1.787  0.7523  0.3229  0.2098
  642MOL0     C86579  12.160  10.292   1.771  0.1126 -0.0161  0.5268
  642MOL0    Cl86580  12.246  10.334   1.616  0.1390 -0.0297  0.4426
  642MOL0     C86581  11.576  11.273   2.082 -0.4731  0.2298 -0.4681
  642MOL0     C86582  11.608  11.373   2.165  0.1663 -0.7799 -0.6277
  642MOL0     O86583  11.628  11.655   2.202  0.0338 -0.7928  0.8230
  642MOL0     C86584  11.740  11.605   2.532 -0.0582  0.3696 -0.7328
  642MOL0     C86585  11.764  11.664   2.661  0.5570  0.0917 -0.4095
  642MOL0     N86586  11.358  12.079   3.116 -0.7537  1.4759  0.0102
  642MOL0     N86587  11.244  12.073   3.188 -0.1323  0.4038  0.6967
  642MOL0     C86588  10.540  11.618   4.174  0.9940  0.1996 -0.2042
  642MOL0     C86589  10.511  11.502   4.232 -0.0268  0.6255  0.5689
  642MOL0     C86590  10.453  11.159   4.454 -0.0687  0.1236  0.1512
  642MOL0     C86591  10.315  11.130   4.464  0.2705  0.6273  0.0453
  642MOL0     C86592  10.260  11.075   4.582  0.2233  0.1333 -1.2917
  642MOL0     C86593  10.349  11.029   4.686  0.5219 -0.8656 -0.8785
  642MOL0     O86594  10.296  10.957   4.795 -0.8011  0.5811 -0.1519
  642MOL0     C86595  10.388  10.907   4.900  0.2634  2.1397  0.1734
  642MOL0     C86596  10.471  10.781   4.856  1.1269 -0.1564 -0.3612
  642MOL0     C86597  10.397  10.653   4.856  0.2327 -0.1513  0.6533
  642MOL0     C86598  10.459  10.556   4.959 -0.9669  0.7376 -0.2963
  642MOL0     C86599  10.389  10.426   4.958 -0.0961  0.4962 -0.4859
  642MOL0     C86600  10.346  10.306   4.959  0.8012  0.4456 -0.4732
  642MOL0     C86601  10.487  11.057   4.670 -0.6512 -0.2394  0.2329
  642MOL0     C86602  10.540  11.130   4.566 -0.5442 -0.1267  0.0710
  642MOL0     H86603  10.827  11.375   4.244 -0.9051 -2.5534 -2.1951
  642MOL0     H86604  10.884  11.595   4.155 -0.7654  0.6129 -0.3424
  642MOL0     H86605  10.591  11.761   3.942 -2.8281  0.1493  1.2701
  642MOL0     H86606  10.527  11.890   4.039  0.8586  1.5943  1.9148
  642MOL0     H86607  10.602  11.986   3.846 -0.7111  0.9746  1.9820
  642MOL0     H86608  10.689  12.056   3.963 -3.8213  2.3503 -2.2908
  642MOL0     H86609  10.878  11.869   3.889  0.2142 -0.4395 -0.6083
  642MOL0     H86610  10.764  11.850   3.759  1.8830 -0.5586 -0.4285
  642MOL0     H86611  10.780  12.102   3.702  1.3944  3.2320  0.5721
  642MOL0     H86612  10.890  12.125   3.832  0.3676 -3.4782  3.8239
  642MOL0     H86613  11.064  11.998   3.730 -3.5209  1.2676  3.4506
  642MOL0     H86614  10.943  11.948   3.600 -2.0105  0.7184  1.4390
  642MOL0     H86615  10.952  12.171   3.499  1.5087  2.5262 -1.0286
  642MOL0     H86616  11.043  12.236   3.640 -1.0871 -2.6800  4.1045
  642MOL0     H86617  11.168  12.209   3.431 -1.6315  1.8841  1.0651
  642MOL0     H86618  11.248  12.107   3.556 -0.1531 -0.4809 -0.0811
  642MOL0     H86619  11.067  12.002   3.345  1.3749 -2.1585 -1.6037
  642MOL0     H86620  11.166  11.904   3.453 -5.1907  0.1677  1.8478
  642MOL0     H86621  11.470  11.970   3.398  0.9005  1.4938 -0.3262
  642MOL0     H86622  11.620  12.126   3.086 -4.6227  0.8868 -0.0660
  642MOL0     H86623  11.678  12.050   3.229 -0.4942  0.1671  0.7580
  642MOL0     H86624  11.587  11.912   2.964 -1.2042  0.0713  0.3139
  642MOL0     H86625  11.645  11.829   3.110 -0.0564 -0.8264  0.7932
  642MOL0     H86626  11.880  11.926   3.065  1.1639 -0.2583 -0.9936
  642MOL0     H86627  11.810  12.041   2.953  2.7060 -0.2554 -1.3211
  642MOL0     H86628  11.778  11.744   2.925 -2.9449  1.6937  0.0071
  642MOL0     H86629  11.922  11.829   2.853  0.0291 -1.9425  0.9726
  642MOL0     H86630  11.621  11.966   2.591  1.2377  0.0457 -0.7938
  642MOL0     H86631  11.628  11.899   2.268 -1.4001 -3.3258 -2.6819
  642MOL0     H86632  11.472  11.821   2.285 -1.3384 -0.1183  1.0096
  642MOL0     H86633  11.492  11.957   2.390  1.6854  2.4260 -2.1100
  642MOL0     H86634  11.940  11.398   2.137  0.2771 -0.3415 -0.9011
  642MOL0     H86635  11.884  11.209   1.956 -0.9368  1.3993 -1.2438
  642MOL0     H86636  11.674  10.967   1.788 -0.0042 -1.7841  1.3656
  642MOL0     H86637  11.811  11.071   1.812  0.3540 -2.1233  0.1995
  642MOL0     H86638  11.853  10.953   2.030 -0.1223 -0.2214  0.7903
  642MOL0     H86639  11.679  10.925   2.042 -3.1855  1.2790 -2.6213
  642MOL0     H86640  11.696  10.760   1.857 -0.0947 -1.0622  1.4727
  642MOL0     H86641  11.783  10.720   2.007 -0.3072 -0.8289 -0.3688
  642MOL0     H86642  11.944  10.807   1.752 -0.6068  1.7937  0.2500
  642MOL0     H86643  11.998  10.767   1.914 -1.2297 -2.6255  3.2380
  642MOL0     H86644  11.854  10.571   1.729  0.1714  0.7442 -2.0805
  642MOL0     H86645  11.886  10.532   1.903 -1.0480  0.7573 -1.5012
  642MOL0     H86646  12.088  10.563   1.697 -2.5486 -3.1456 -2.0643
  642MOL0     H86647  12.116  10.549   1.878 -0.3373 -3.1946  0.9008
  642MOL0     H86648  11.978  10.333   1.701 -0.3695  2.6202 -0.2196
  642MOL0     H86649  11.964  10.341   1.866 -3.4394 -0.1025 -3.2075
  642MOL0     H86650  12.130  10.187   1.766  0.7570 -0.4168  3.2536
  642MOL0     H86651  12.234  10.307   1.850 -0.0529 -1.1557  0.9210
  642MOL0     H86652  11.471  11.246   2.075 -0.6123  1.1391 -2.9854
  642MOL0     H86653  11.532  11.396   2.238  0.0280 -2.3877 -0.2259
  642MOL0     H86654  11.776  11.505   2.511  0.3695  0.1655  0.8146
  642MOL0     H86655  11.805  11.618   2.751 -3.6475 -0.0602  1.6636
  642MOL0     H86656  10.461  11.688   4.149  2.4977  1.6130 -1.2067
  642MOL0     H86657  10.408  11.469   4.244 -0.1995  0.2958 -1.4335
  642MOL0     H86658  10.231  11.158   4.400 -2.0387  1.6238  3.2308
  642MOL0     H86659  10.153  11.064   4.597  0.2240  1.3442 -0.2061
  642MOL0     H86660  10.454  10.992   4.921  3.5335 -0.2219  0.3024
  642MOL0     H86661  10.331  10.886   4.990  1.7349  3.6393  1.5190
  642MOL0     H86662  10.554  10.769   4.927  2.1551 -3.2751 -1.8784
  642MOL0     H86663  10.519  10.802   4.760  0.1724 -1.4882 -1.1651
  642MOL0     H86664  10.391  10.599   4.762 -0.1755 -1.8003  1.5967
  642MOL0     H86665  10.295  10.673   4.890  0.3497 -1.5515  1.9339
  642MOL0     H86666  10.465  10.599   5.060 -0.9327 -0.9893  0.4679
  642MOL0     H86667  10.557  10.542   4.912 -1.1786  2.1560 -1.2018
  642MOL0     H86668  10.312  10.205   4.973 -2.1749  1.6995  2.7368
  642MOL0     H86669  10.557  11.017   4.744 -3.0759 -2.7317  1.3590
  642MOL0     H86670  10.646  11.150   4.558  0.2711 -3.3705  1.2026
  643MOL0     O86671   8.378   7.097   1.272  0.0676 -0.0962  0.0735
  643MOL0     C86672   8.368   7.042   1.381 -0.1406  0.1183 -0.0817
  643MOL0     O86673   8.446   6.936   1.418  0.2648 -0.7080  0.1630
  643MOL0     C86674   8.521   6.866   1.328 -0.6597  0.2145 -0.2350
  643MOL0     C86675   8.508   6.730   1.332  0.2302  0.3219  0.4673
  643MOL0     C86676   8.574   6.642   1.248 -0.3034  0.6087 -0.4902
  643MOL0     C86677   8.670   6.688   1.161 -0.6997 -0.3098  0.7214
  643MOL0     O86678   8.757   6.603   1.098  0.0536  0.0938  0.6633
  643MOL0     C86679   8.698   6.500   1.010  0.1200  0.0231  0.4373
  643MOL0     C86680   8.811   6.442   0.917  0.4880  0.2588 -0.2459
  643MOL0     C86681   8.864   6.549   0.819  0.1282  0.3243 -0.5780
  643MOL0     C86682   8.765   6.575   0.707 -0.2610 -0.4063 -0.1553
  643MOL0     C86683   8.792   6.678   0.601 -0.3051 -0.2737 -0.0135
  643MOL0     C86684   8.815   6.819   0.655  0.5428 -0.9889 -0.3162
  643MOL0     C86685   8.826   6.915   0.536  0.2012 -0.7222 -0.1617
  643MOL0     C86686   8.874   7.051   0.583  0.3712 -0.1649  0.9949
  643MOL0     N86687   8.832   7.167   0.492 -0.0389  0.1800 -0.0748
  643MOL0     C86688   8.719   7.237   0.523 -0.5475 -0.2278  0.6844
  643MOL0     C86689   8.707   7.323   0.418  1.4665 -0.1262 -0.4387
  643MOL0     C86690   8.581   7.412   0.386  0.7834 -0.8779 -0.0608
  643MOL0     C86691   8.578   7.464   0.239 -0.5764  0.1122 -0.1089
  643MOL0     C86692   8.452   7.555   0.215  0.8361  0.8006 -0.2147
  643MOL0     C86693   8.314   7.470   0.222  0.3893  0.3825 -0.6923
  643MOL0     O86694   8.212   7.554   0.179  0.1742  0.6998 -0.8367
  643MOL0     C86695   8.156   7.542   0.055 -0.2417  0.7187 -1.1582
  643MOL0     C86696   8.032   7.600   0.035  0.8265  0.2064 -0.7278
  643MOL0     C86697   7.951   7.592  -0.078  0.7185  0.6120 -0.2656
  643MOL0     C86698   7.812   7.652  -0.082 -0.8497 -0.0817  0.6993
  643MOL0     C86699   8.011   7.530  -0.188 -0.2072  0.2192  0.1499
  643MOL0     C86700   7.953   7.503  -0.316 -0.9437 -0.1543 -0.8184
  643MOL0     O86701   8.047   7.528  -0.416  0.3642  1.3688 -0.4902
  643MOL0     C86702   8.023   7.514  -0.548  0.0188 -0.1941  0.6646
  643MOL0     C86703   7.898   7.489  -0.613 -0.4934 -0.2044 -0.6572
  643MOL0     C86704   7.882   7.493  -0.754 -0.4120 -0.1233  0.2213
  643MOL0     C86705   7.995   7.517  -0.834  0.6084 -0.2651 -0.2177
  643MOL0     O86706   7.987   7.516  -0.966 -0.5441 -0.0416 -0.1926
  643MOL0     C86707   7.973   7.386  -1.024  0.8547  0.8151 -0.3299
  643MOL0     C86708   8.027   7.395  -1.163 -0.6794  0.1223 -0.0241
  643MOL0     C86709   7.947   7.320  -1.272 -0.2801  0.4896  0.6698
  643MOL0     C86710   8.031   7.335  -1.410  0.1979 -0.6411  0.1000
  643MOL0     C86711   7.937   7.298  -1.526  0.2413  0.3972  1.5547
  643MOL0     C86712   7.991   7.348  -1.655  0.4738 -0.6183  0.5086
  643MOL0     C86713   7.907   7.288  -1.771  0.4734 -0.6277 -0.2103
  643MOL0     C86714   7.927   7.138  -1.802 -0.6572 -0.2553  0.1765
  643MOL0    Cl86715   7.826   7.097  -1.948 -0.0248  0.0018 -0.2126
  643MOL0     C86716   8.120   7.533  -0.770  0.6735 -0.6927 -0.6445
  643MOL0     C86717   8.132   7.527  -0.630 -0.0485  0.1780  0.6063
  643MOL0     O86718   7.838   7.467  -0.327 -0.0694  0.0084  0.2218
  643MOL0     C86719   8.133   7.466  -0.171 -0.4878  0.4651  0.1138
  643MOL0     C86720   8.203   7.469  -0.049 -0.4180 -0.0145 -0.7775
  643MOL0     N86721   8.815   7.305   0.331  0.6430 -0.6122 -0.5328
  643MOL0     N86722   8.880   7.208   0.377 -0.0337  0.0659  0.2234
  643MOL0     C86723   8.686   6.833   1.152  0.4939  0.3864  0.1868
  643MOL0     C86724   8.603   6.915   1.233  0.3685  1.5273 -0.2609
  643MOL0     C86725   8.296   7.108   1.487  0.6887 -0.0301  1.1894
  643MOL0     C86726   8.279   7.045   1.611  0.5320 -0.6611 -0.7335
  643MOL0     C86727   8.217   7.116   1.711  0.1133  0.3910 -0.3988
  643MOL0     C86728   8.173   7.243   1.696 -0.4084  0.3168 -0.6788
  643MOL0     O86729   8.130   7.304   1.807  1.0615  0.8442  0.7400
  643MOL0     C86730   8.106   7.444   1.794  0.4540 -0.1781 -1.0040
  643MOL0     C86731   8.072   7.505   1.930  0.6871 -0.3088 -0.1605
  643MOL0     C86732   7.932   7.454   1.994 -0.8449 -0.3234 -0.8512
  643MOL0     C86733   7.870   7.559   2.099 -0.1885  0.7067 -0.3575
  643MOL0     C86734   7.746   7.507   2.160 -0.2109 -0.1593  0.4413
  643MOL0     C86735   7.629   7.488   2.190 -0.0170  1.4473  0.6809
  643MOL0     C86736   8.179   7.304   1.569 -0.4054 -0.1065  0.3732
  643MOL0     C86737   8.236   7.238   1.471  0.1026 -1.3256  1.0017
  643MOL0     H86738   8.440   6.692   1.409 -1.6107  1.0539 -0.7439
  643MOL0     H86739   8.564   6.534   1.256 -2.2103  0.6312 -1.8973
  643MOL0     H86740   8.651   6.423   1.071  1.2650  0.5195  2.0100
  643MOL0     H86741   8.622   6.545   0.946  3.4680  2.2130 -2.3885
  643MOL0     H86742   8.889   6.428   0.993 -2.6053 -1.7422  2.8440
  643MOL0     H86743   8.791   6.349   0.863 -0.4602 -1.0862  2.2585
  643MOL0     H86744   8.877   6.643   0.873 -1.8001 -1.1682  2.8002
  643MOL0     H86745   8.950   6.496   0.778  0.1246 -0.9113  0.9548
  643MOL0     H86746   8.750   6.478   0.659 -1.3382 -0.2965 -0.0530
  643MOL0     H86747   8.672   6.615   0.750 -1.2557 -0.7258 -1.9255
  643MOL0     H86748   8.873   6.640   0.538 -1.2004  1.2133 -2.2014
  643MOL0     H86749   8.705   6.683   0.534  0.6216 -1.0176 -1.3190
  643MOL0     H86750   8.729   6.849   0.716  0.9181  1.4007 -0.8457
  643MOL0     H86751   8.910   6.812   0.710 -0.0250 -1.6709  0.6211
  643MOL0     H86752   8.907   6.883   0.470  1.4137  0.3004  0.7832
  643MOL0     H86753   8.731   6.923   0.482  0.4158 -1.1906 -0.6151
  643MOL0     H86754   8.984   7.050   0.586  0.3765  0.3519  1.0700
  643MOL0     H86755   8.840   7.067   0.686  0.5658  0.2721  0.9907
  643MOL0     H86756   8.644   7.231   0.600 -1.5733  3.7638  0.2056
  643MOL0     H86757   8.487   7.365   0.413 -0.2855  0.2584 -1.6134
  643MOL0     H86758   8.586   7.504   0.446 -1.3516 -0.9654  0.2988
  643MOL0     H86759   8.578   7.381   0.168  3.8560  0.5607 -0.8946
  643MOL0     H86760   8.671   7.520   0.226  1.5267 -2.2748  3.1917
  643MOL0     H86761   8.449   7.607   0.119 -1.1932 -1.1095 -1.2767
  643MOL0     H86762   8.451   7.635   0.289 -1.5475 -0.8793  1.7017
  643MOL0     H86763   8.291   7.434   0.323  0.9187  1.2797 -0.2410
  643MOL0     H86764   8.315   7.377   0.166 -0.5960  0.5120 -0.9427
  643MOL0     H86765   7.991   7.655   0.119  2.9460 -1.4571  1.5458
  643MOL0     H86766   7.783   7.669   0.022 -0.3125 -1.7038  1.1421
  643MOL0     H86767   7.823   7.747  -0.136  0.0401 -1.0588 -0.9353
  643MOL0     H86768   7.737   7.591  -0.134  0.3012  1.1757 -2.7353
  643MOL0     H86769   7.808   7.472  -0.555 -0.6558 -1.5758 -1.2765
  643MOL0     H86770   7.790   7.464  -0.803  0.1253 -0.5745 -0.5325
  643MOL0     H86771   8.003   7.304  -0.957 -3.6525  2.4063  4.2600
  643MOL0     H86772   7.866   7.363  -1.025  0.8635  0.7880 -0.9343
  643MOL0     H86773   8.028   7.500  -1.195 -0.8567  0.4964  1.1336
  643MOL0     H86774   8.127   7.352  -1.156 -1.2959 -1.2845  0.4144
  643MOL0     H86775   7.848   7.367  -1.280  0.3382  1.7284 -0.1837
  643MOL0     H86776   7.951   7.214  -1.248  0.0813  0.1502 -0.8122
  643MOL0     H86777   8.056   7.441  -1.419  1.4871 -0.7113  2.3441
  643MOL0     H86778   8.124   7.279  -1.404  0.6048 -0.2791 -1.9033
  643MOL0     H86779   7.842   7.353  -1.525  0.9504  1.7844 -0.8144
  643MOL0     H86780   7.933   7.189  -1.527 -1.0871  0.4203 -0.1125
  643MOL0     H86781   7.977   7.456  -1.657  0.6993 -0.5872 -2.0059
  643MOL0     H86782   8.099   7.332  -1.665  0.9531  2.3230  0.1351
  643MOL0     H86783   7.923   7.349  -1.861  1.3865  5.3831  3.4483
  643MOL0     H86784   7.801   7.298  -1.745  0.0174  2.7521 -2.6864
  643MOL0     H86785   7.905   7.085  -1.709 -2.3707  0.8731  0.4587
  643MOL0     H86786   8.032   7.120  -1.826 -1.0036 -0.9829 -0.8546
  643MOL0     H86787   8.209   7.559  -0.826  0.7681  1.2527  0.3260
  643MOL0     H86788   8.233   7.540  -0.593 -0.7663 -0.9340  3.1933
  643MOL0     H86789   8.190   7.407  -0.241 -1.1707 -0.3898  0.2681
  643MOL0     H86790   8.300   7.423  -0.063 -0.7682 -1.0235 -0.0893
  643MOL0     H86791   8.758   6.868   1.079  0.2904 -1.5418 -1.0330
  643MOL0     H86792   8.607   7.023   1.223 -1.4387  1.6486 -0.0935
  643MOL0     H86793   8.321   6.949   1.638  0.3197 -0.8805 -1.1780
  643MOL0     H86794   8.201   7.065   1.806  0.8041  1.1371  0.1292
  643MOL0     H86795   8.189   7.497   1.746  1.1793  0.9623  1.3307
  643MOL0     H86796   8.029   7.474   1.722 -1.2806 -1.3381  0.2890
  643MOL0     H86797   8.071   7.613   1.913 -0.8666  0.2091  2.6275
  643MOL0     H86798   8.158   7.471   1.989 -0.1716 -4.3028 -0.9271
  643MOL0     H86799   7.958   7.358   2.038  3.5726  0.2126 -1.8398
  643MOL0     H86800   7.856   7.439   1.916 -1.5595 -1.1253 -0.0201
  643MOL0     H86801   7.846   7.653   2.048  2.0846  1.1083 -0.8126
  643MOL0     H86802   7.937   7.592   2.178  1.9825  0.2899 -1.9359
  643MOL0     H86803   7.535   7.445   2.220 -0.2129  2.7127  1.9945
  643MOL0     H86804   8.117   7.388   1.539 -0.1878  0.3398  1.1702
  643MOL0     H86805   8.236   7.294   1.378  0.6490 -0.8165  1.3011
  644MOL0     O86806   5.576   5.135   7.077 -0.8890  0.2004 -0.1879
  644MOL0     C86807   5.533   5.241   7.111  0.2688 -0.3694 -0.0026
  644MOL0     O86808   5.490   5.340   7.025  0.3670  0.7869  0.4749
  644MOL0     C86809   5.506   5.319   6.886  0.1600  0.2074  0.7113
  644MOL0     C86810   5.625   5.273   6.825 -0.9586  0.3827  0.3286
  644MOL0     C86811   5.642   5.262   6.686  0.1514 -1.3643  0.1612
  644MOL0     C86812   5.528   5.283   6.598 -0.0822 -0.1720  0.4409
  644MOL0     O86813   5.535   5.245   6.467 -0.2946  0.9087 -0.1693
  644MOL0     C86814   5.612   5.338   6.386 -0.2975 -0.3718  0.3941
  644MOL0     C86815   5.541   5.344   6.250  0.0764 -0.7669  0.5890
  644MOL0     C86816   5.639   5.408   6.140  0.8555 -0.5337 -0.2311
  644MOL0     C86817   5.687   5.291   6.049 -0.2595  0.4753 -0.1832
  644MOL0     C86818   5.796   5.324   5.948 -0.1445 -0.9077 -0.6999
  644MOL0     C86819   5.878   5.206   5.900  0.4037 -0.3368 -1.0817
  644MOL0     C86820   5.957   5.259   5.781  0.2735  0.8631 -0.5505
  644MOL0     C86821   6.054   5.137   5.753 -0.6028 -1.6660 -0.1676
  644MOL0     N86822   6.155   5.177   5.643  0.1646 -0.0859  0.1431
  644MOL0     C86823   6.257   5.268   5.654  0.7988 -0.2902  0.2951
  644MOL0     C86824   6.303   5.292   5.531  0.1415 -0.1004 -1.2944
  644MOL0     C86825   6.405   5.397   5.491  0.3272  0.0359 -0.6423
  644MOL0     C86826   6.459   5.474   5.607 -0.1128 -0.1630 -0.3800
  644MOL0     C86827   6.564   5.407   5.689 -0.5266  0.1065 -0.2406
  644MOL0     C86828   6.706   5.420   5.639 -0.0523  0.5941  0.4779
  644MOL0     O86829   6.757   5.548   5.675 -0.0792 -0.5407 -0.6876
  644MOL0     C86830   6.896   5.572   5.672  0.0442  0.1988  0.1348
  644MOL0     C86831   6.988   5.502   5.588 -0.4729  1.0655  0.2820
  644MOL0     C86832   7.122   5.538   5.576  0.2136  0.1115 -0.2834
  644MOL0     C86833   7.201   5.450   5.484  0.0289  0.0725  0.4810
  644MOL0     C86834   7.175   5.642   5.661  0.2293  0.2477 -0.0490
  644MOL0     C86835   7.312   5.686   5.672 -0.3052  1.1300  0.5179
  644MOL0     O86836   7.319   5.818   5.638 -0.3717 -1.2954 -0.8481
  644MOL0     C86837   7.447   5.867   5.645 -1.3511  0.6014 -0.4357
  644MOL0     C86838   7.502   5.911   5.768 -0.1374 -0.2257 -0.6607
  644MOL0     C86839   7.626   5.980   5.762 -0.0769 -0.2031 -0.0555
  644MOL0     C86840   7.706   5.986   5.642  0.7204  0.3102 -0.3560
  644MOL0     O86841   7.820   6.058   5.641 -0.5887 -0.8893 -0.1826
  644MOL0     C86842   7.874   6.103   5.773 -0.4204  0.0149  0.3684
  644MOL0     C86843   8.018   6.168   5.739 -0.2830  1.1621 -0.9262
  644MOL0     C86844   8.016   6.298   5.676 -0.5186  0.1356  0.1007
  644MOL0     C86845   7.944   6.390   5.772  0.5971  0.5505  0.3387
  644MOL0     C86846   7.967   6.542   5.750  0.2820 -0.8770  0.2640
  644MOL0     C86847   7.963   6.628   5.882 -0.6768  0.9159  1.1120
  644MOL0     C86848   7.983   6.780   5.854 -0.8178 -0.6077 -1.2322
  644MOL0     C86849   7.901   6.844   5.740 -0.1916  0.0137  0.1545
  644MOL0    Cl86850   7.897   7.017   5.766 -0.1661  0.4844 -0.2630
  644MOL0     C86851   7.651   5.928   5.527  0.6592 -0.7176 -0.1328
  644MOL0     C86852   7.524   5.871   5.532 -0.1453  0.1771  0.1293
  644MOL0     O86853   7.405   5.611   5.704 -0.6797 -0.3621  0.3906
  644MOL0     C86854   7.087   5.699   5.751  0.3684 -0.1681 -0.2148
  644MOL0     C86855   6.953   5.671   5.756  0.0046 -0.6531 -1.0537
  644MOL0     N86856   6.225   5.204   5.451  0.3527 -0.6852  0.0892
  644MOL0     N86857   6.140   5.135   5.522  0.0036 -0.1216  0.5743
  644MOL0     C86858   5.409   5.323   6.659  0.1998 -0.9729 -0.4206
  644MOL0     C86859   5.397   5.348   6.799 -0.6520  0.5397  0.0051
  644MOL0     C86860   5.497   5.260   7.253 -0.5222 -0.0824  0.4444
  644MOL0     C86861   5.535   5.169   7.359  0.0318  0.1852  0.7792
  644MOL0     C86862   5.508   5.193   7.497 -0.2178  0.5814  0.5455
  644MOL0     C86863   5.436   5.308   7.524 -0.4371 -0.6260  0.0741
  644MOL0     O86864   5.416   5.346   7.657 -0.3794 -0.2890 -0.1152
  644MOL0     C86865   5.362   5.268   7.763 -0.6807  0.7033  0.6261
  644MOL0     C86866   5.272   5.351   7.858 -0.1315 -0.1032 -0.5387
  644MOL0     C86867   5.333   5.477   7.917  0.6386  0.4913 -0.5901
  644MOL0     C86868   5.229   5.599   7.900  0.8258  0.1741  0.1140
  644MOL0     C86869   5.093   5.566   7.942  0.1670  0.6433  0.3248
  644MOL0     C86870   4.978   5.549   7.993 -0.4567 -0.4335 -0.0940
  644MOL0     C86871   5.398   5.405   7.427  1.0722  0.3754 -0.0613
  644MOL0     C86872   5.426   5.374   7.294 -0.8919 -0.0979 -0.0997
  644MOL0     H86873   5.710   5.238   6.883 -2.4450 -2.3423  1.0106
  644MOL0     H86874   5.739   5.230   6.647  1.7579  3.0479  0.0195
  644MOL0     H86875   5.610   5.441   6.421  1.3862  0.2351 -1.1493
  644MOL0     H86876   5.715   5.302   6.376  0.5101  1.4592  1.5413
  644MOL0     H86877   5.519   5.239   6.230  2.3532 -1.6152  2.1375
  644MOL0     H86878   5.441   5.384   6.266 -1.2593 -4.6239  3.3410
  644MOL0     H86879   5.588   5.480   6.075 -0.5304 -1.9634 -0.7923
  644MOL0     H86880   5.718   5.465   6.189 -0.6359  0.0762  1.5515
  644MOL0     H86881   5.735   5.221   6.117  1.1976  2.0636  0.5030
  644MOL0     H86882   5.600   5.244   6.002  0.3783 -0.5190 -0.3934
  644MOL0     H86883   5.741   5.378   5.870 -3.2397  0.7830  2.3547
  644MOL0     H86884   5.862   5.397   5.994 -0.5621 -0.0416 -1.4395
  644MOL0     H86885   5.951   5.171   5.973 -0.5544  1.6221  0.9220
  644MOL0     H86886   5.807   5.126   5.877 -0.2282 -0.4361  1.0283
  644MOL0     H86887   5.882   5.274   5.703  1.0924 -0.5001 -1.6466
  644MOL0     H86888   6.009   5.353   5.800  0.0610  0.6029  1.5599
  644MOL0     H86889   5.989   5.057   5.715 -1.7246 -0.8538 -0.0271
  644MOL0     H86890   6.107   5.093   5.837 -0.1769  0.3106  0.6458
  644MOL0     H86891   6.281   5.328   5.742  0.9686  0.8491 -0.5149
  644MOL0     H86892   6.483   5.346   5.433 -1.9023 -2.0810 -1.9753
  644MOL0     H86893   6.354   5.462   5.420  2.4095 -1.5297 -3.7946
  644MOL0     H86894   6.374   5.489   5.675  0.2012 -2.0535  0.4893
  644MOL0     H86895   6.497   5.573   5.582  0.4740  0.1062  1.3935
  644MOL0     H86896   6.537   5.305   5.717  4.2362 -1.5177 -0.5444
  644MOL0     H86897   6.561   5.465   5.782  3.9878  2.9102 -1.4966
  644MOL0     H86898   6.714   5.409   5.530  0.8799  1.4376  0.4537
  644MOL0     H86899   6.758   5.341   5.693 -0.5105  0.6256  0.9725
  644MOL0     H86900   6.955   5.419   5.526 -0.5728  2.3885 -1.4795
  644MOL0     H86901   7.287   5.513   5.464  0.7960 -1.4066 -1.0796
  644MOL0     H86902   7.230   5.359   5.538 -0.4917 -1.1643 -1.2594
  644MOL0     H86903   7.153   5.425   5.389  0.0844  0.7686  0.2669
  644MOL0     H86904   7.450   5.912   5.863  1.9897  0.4919  0.5494
  644MOL0     H86905   7.642   6.026   5.859  0.7642 -0.4612 -0.0675
  644MOL0     H86906   7.801   6.161   5.829 -0.8193  1.0139 -1.1400
  644MOL0     H86907   7.889   6.029   5.852  1.4174 -1.1846 -1.0199
  644MOL0     H86908   8.069   6.175   5.835 -1.7190 -1.2342  0.0802
  644MOL0     H86909   8.064   6.093   5.674  0.5313  1.1722 -0.3800
  644MOL0     H86910   7.974   6.309   5.575  1.1810  2.0589 -0.4626
  644MOL0     H86911   8.121   6.329   5.670  0.0819 -1.6868  0.5182
  644MOL0     H86912   7.839   6.364   5.785  0.5492  0.8932  0.6518
  644MOL0     H86913   7.997   6.373   5.866  0.0407 -3.5096  0.1118
  644MOL0     H86914   7.893   6.586   5.682  2.7449  0.7625 -1.4853
  644MOL0     H86915   8.060   6.575   5.705 -1.3442  1.7466 -1.4597
  644MOL0     H86916   7.861   6.636   5.919 -1.1584 -1.6601  0.5114
  644MOL0     H86917   8.038   6.597   5.955  0.9775 -0.5558 -1.0757
  644MOL0     H86918   8.089   6.801   5.834 -0.2964 -0.9077  0.9181
  644MOL0     H86919   7.951   6.831   5.946 -0.3974 -0.9073 -0.9150
  644MOL0     H86920   7.801   6.803   5.757 -0.8592  1.0660 -1.1032
  644MOL0     H86921   7.947   6.818   5.644  3.1708  0.5977  1.4819
  644MOL0     H86922   7.715   5.931   5.439  0.5896 -2.1183 -0.2512
  644MOL0     H86923   7.487   5.815   5.447 -2.6475  0.8096  0.7203
  644MOL0     H86924   7.121   5.770   5.826  0.1461 -3.1094  2.9677
  644MOL0     H86925   6.905   5.748   5.816  1.5987  1.0906 -1.9172
  644MOL0     H86926   5.313   5.321   6.610 -0.8919 -0.4100  1.6044
  644MOL0     H86927   5.312   5.378   6.860 -1.5854  1.9233 -1.8887
  644MOL0     H86928   5.578   5.074   7.331 -3.1024 -0.4844 -2.5048
  644MOL0     H86929   5.530   5.123   7.577  0.9341  0.1109 -0.1566
  644MOL0     H86930   5.290   5.197   7.723 -0.9299  1.2949  0.0027
  644MOL0     H86931   5.448   5.224   7.815  0.5733  2.0706 -0.1865
  644MOL0     H86932   5.236   5.277   7.930  1.1168 -0.9208 -0.7345
  644MOL0     H86933   5.182   5.373   7.799  0.6222  3.0237 -0.6908
  644MOL0     H86934   5.431   5.503   7.876 -0.2520  3.1697 -1.1995
  644MOL0     H86935   5.336   5.450   8.023  0.2578 -0.9676 -0.9211
  644MOL0     H86936   5.224   5.635   7.797 -0.3021  0.0116  0.1002
  644MOL0     H86937   5.267   5.684   7.958 -3.1998  0.4944  2.6839
  644MOL0     H86938   4.884   5.538   8.043 -0.4133 -0.6730 -0.0641
  644MOL0     H86939   5.342   5.492   7.461 -0.8933 -1.0354  0.5447
  644MOL0     H86940   5.402   5.446   7.216 -0.5720  2.6026  2.1363
  645MOL0     O86941   5.962   7.402   4.966 -0.5372 -0.4392  1.1570
  645MOL0     C86942   6.078   7.437   4.964  0.5072  0.1659  0.5242
  645MOL0     O86943   6.182   7.360   4.922  0.2368  0.3278  0.6185
  645MOL0     C86944   6.152   7.226   4.883  0.4605 -1.0204  0.5224
  645MOL0     C86945   6.216   7.121   4.929  0.8013 -0.0347 -0.2135
  645MOL0     C86946   6.196   6.996   4.873  0.1843  0.0843  0.2766
  645MOL0     C86947   6.120   6.973   4.756  0.0548 -1.1610 -0.5663
  645MOL0     O86948   6.107   6.838   4.720  0.2615  0.3484 -0.2025
  645MOL0     C86949   6.042   6.800   4.602  0.3724 -0.5241  0.7001
  645MOL0     C86950   5.984   6.669   4.625  0.3480  0.2709 -0.2351
  645MOL0     C86951   5.978   6.575   4.511 -0.1305 -0.2176  0.9384
  645MOL0     C86952   6.117   6.529   4.455  0.4860 -0.5927  0.3779
  645MOL0     C86953   6.124   6.400   4.387  0.1005  0.3766 -0.7916
  645MOL0     C86954   6.057   6.392   4.246  0.2163 -0.6244 -0.2309
  645MOL0     C86955   6.077   6.245   4.213  0.0793  0.4580 -0.1663
  645MOL0     C86956   6.041   6.203   4.076  1.2684  0.4654 -0.2919
  645MOL0     N86957   6.127   6.098   4.018 -0.5815  0.1383  0.0864
  645MOL0     C86958   6.185   6.110   3.892  0.9498  1.2493  0.9193
  645MOL0     C86959   6.276   6.005   3.899 -0.2138  0.2361  1.3459
  645MOL0     C86960   6.364   5.966   3.782  0.6795 -1.9349  0.5484
  645MOL0     C86961   6.280   5.907   3.665 -0.5411 -0.0980 -0.2787
  645MOL0     C86962   6.383   5.847   3.553 -0.3111 -0.4490  0.2191
  645MOL0     C86963   6.426   5.940   3.445 -0.1379  0.7424 -0.6810
  645MOL0     O86964   6.465   6.067   3.503  0.1522  0.2347 -0.4211
  645MOL0     C86965   6.602   6.107   3.511 -0.1765  0.0352  1.2567
  645MOL0     C86966   6.704   6.019   3.515 -0.5631 -0.0363 -0.0634
  645MOL0     C86967   6.840   6.071   3.503  0.2414 -0.6210  0.4279
  645MOL0     C86968   6.944   5.964   3.490  0.0329 -0.4776 -0.3417
  645MOL0     C86969   6.860   6.214   3.507 -0.0692 -0.4967  0.7786
  645MOL0     C86970   6.989   6.272   3.491 -0.5940  0.7016 -0.4651
  645MOL0     O86971   6.992   6.406   3.456 -0.3170 -0.3610  0.0440
  645MOL0     C86972   7.112   6.466   3.422  0.1908  0.4768  0.1408
  645MOL0     C86973   7.195   6.415   3.325 -0.0025 -0.1194 -0.5795
  645MOL0     C86974   7.315   6.480   3.295 -0.3852  0.6265  0.6618
  645MOL0     C86975   7.340   6.609   3.347 -0.7167  0.4247 -0.5812
  645MOL0     O86976   7.453   6.685   3.318 -0.2529  1.1906 -0.3475
  645MOL0     C86977   7.573   6.612   3.292  0.3792  0.1074 -0.8047
  645MOL0     C86978   7.679   6.707   3.229  0.4870  0.7017  0.4144
  645MOL0     C86979   7.644   6.747   3.088 -1.0018  0.4899 -0.1830
  645MOL0     C86980   7.528   6.843   3.055 -0.1422  0.7352  0.1392
  645MOL0     C86981   7.508   6.891   2.909  0.5859  1.0875 -0.3949
  645MOL0     C86982   7.629   6.980   2.856  0.3941 -0.4669 -0.5080
  645MOL0     C86983   7.657   7.100   2.930 -0.2713  0.1390  0.4801
  645MOL0     C86984   7.728   7.208   2.851  0.1123 -0.1671  0.1360
  645MOL0    Cl86985   7.617   7.330   2.784 -0.0766 -0.1670 -0.1107
  645MOL0     C86986   7.253   6.672   3.443 -0.3930 -0.1905  0.7425
  645MOL0     C86987   7.140   6.595   3.475 -0.0539 -0.8536 -0.1176
  645MOL0     O86988   7.088   6.208   3.531 -0.5766 -0.1289 -0.1105
  645MOL0     C86989   6.753   6.301   3.530  0.0616 -0.1947 -0.4193
  645MOL0     C86990   6.622   6.247   3.525 -0.5548 -0.5301 -0.5366
  645MOL0     N86991   6.267   5.937   4.017 -0.8555  0.2436 -0.3870
  645MOL0     N86992   6.178   5.991   4.082  0.4413 -0.3195  0.1368
  645MOL0     C86993   6.054   7.087   4.705 -0.3805  0.7331  0.5016
  645MOL0     C86994   6.068   7.209   4.768 -0.1537 -0.1858 -0.0517
  645MOL0     C86995   6.103   7.570   5.032 -0.8667  0.9080 -1.3881
  645MOL0     C86996   6.009   7.655   5.076  0.1993 -0.3565  0.2243
  645MOL0     C86997   6.032   7.783   5.130  0.8370 -0.5884  0.3239
  645MOL0     C86998   6.159   7.830   5.141 -0.8893  0.6447 -0.7851
  645MOL0     O86999   6.189   7.950   5.198  0.6220 -0.1414  0.1745
  645MOL0     C87000   6.090   8.034   5.260  0.4865 -0.1969 -1.0179
  645MOL0     C87001   6.144   8.153   5.337 -0.0543  0.5801 -0.0063
  645MOL0     C87002   6.208   8.120   5.462 -0.6206 -0.3310 -0.3239
  645MOL0     C87003   6.351   8.060   5.458 -0.0313  0.2875 -0.3321
  645MOL0     C87004   6.422   8.051   5.590  1.8635 -0.7869  0.9160
  645MOL0     C87005   6.470   8.037   5.697 -0.3522  1.2082  0.1349
  645MOL0     C87006   6.265   7.755   5.087  0.3752  0.4666  0.6255
  645MOL0     C87007   6.238   7.628   5.035  0.5752  0.8469 -0.1604
  645MOL0     H87008   6.290   7.149   5.004  1.3205  4.0680 -2.0333
  645MOL0     H87009   6.249   6.916   4.922 -2.8223 -3.3551 -1.5602
  645MOL0     H87010   5.958   6.861   4.570 -2.0146 -2.7557  2.3055
  645MOL0     H87011   6.117   6.781   4.524  2.2271 -3.2613  2.9326
  645MOL0     H87012   6.023   6.623   4.715  2.3710  0.3394 -1.0309
  645MOL0     H87013   5.877   6.691   4.637  0.7136  1.7325  0.5733
  645MOL0     H87014   5.928   6.480   4.534  3.8922 -2.7988  0.0132
  645MOL0     H87015   5.918   6.614   4.428 -2.0333 -4.2364  0.1547
  645MOL0     H87016   6.153   6.608   4.388 -0.5922 -2.4972 -2.6397
  645MOL0     H87017   6.169   6.523   4.551 -1.3429 -1.6122  1.3833
  645MOL0     H87018   6.231   6.385   4.369 -0.4220 -3.7302 -1.4307
  645MOL0     H87019   6.086   6.321   4.453 -1.5935  0.2976 -1.8150
  645MOL0     H87020   5.952   6.422   4.245  0.3552 -0.0383  0.9135
  645MOL0     H87021   6.105   6.463   4.178 -0.2021 -0.3376 -0.2288
  645MOL0     H87022   6.185   6.233   4.227  0.4486  0.3171 -2.5545
  645MOL0     H87023   6.027   6.182   4.287 -1.6781  2.2474  0.2420
  645MOL0     H87024   6.035   6.281   4.000 -2.0261 -2.0018 -2.9020
  645MOL0     H87025   5.938   6.165   4.084  2.0601 -2.0694 -1.0760
  645MOL0     H87026   6.165   6.194   3.825  1.9795  1.9452  1.4724
  645MOL0     H87027   6.414   6.061   3.760  1.1522 -2.1709  0.5913
  645MOL0     H87028   6.437   5.894   3.818  0.2458 -2.2083  0.8972
  645MOL0     H87029   6.213   5.982   3.621 -0.0994  0.1158 -0.5952
  645MOL0     H87030   6.217   5.824   3.697  2.4522 -2.9416 -1.2325
  645MOL0     H87031   6.369   5.745   3.517  3.2070 -0.4139 -1.7443
  645MOL0     H87032   6.476   5.840   3.611  0.1883 -1.9956 -0.7135
  645MOL0     H87033   6.338   5.965   3.384 -1.2519 -0.6452  0.2861
  645MOL0     H87034   6.502   5.896   3.380  1.2725  0.4596  1.0720
  645MOL0     H87035   6.693   5.911   3.522 -1.6015  0.1800  3.3309
  645MOL0     H87036   7.021   5.996   3.418  2.3009 -0.3548  2.0056
  645MOL0     H87037   6.987   5.928   3.584  2.3982 -0.6536 -1.4053
  645MOL0     H87038   6.900   5.880   3.435 -2.1377  1.3539 -1.5724
  645MOL0     H87039   7.180   6.321   3.273  2.8168 -0.7709 -0.3786
  645MOL0     H87040   7.378   6.424   3.226 -3.2579 -1.4243 -0.4774
  645MOL0     H87041   7.599   6.585   3.395 -0.9380  3.1337  0.4192
  645MOL0     H87042   7.564   6.524   3.227 -0.4854  0.8953 -1.7904
  645MOL0     H87043   7.686   6.805   3.278  0.3366  1.3839 -0.9096
  645MOL0     H87044   7.776   6.654   3.229  0.0143 -0.1930 -0.4492
  645MOL0     H87045   7.618   6.658   3.029 -0.9676 -0.3220  0.9929
  645MOL0     H87046   7.736   6.792   3.049  0.6029  0.4328  3.1874
  645MOL0     H87047   7.440   6.791   3.094  0.9899 -0.2204  1.5250
  645MOL0     H87048   7.540   6.931   3.120  3.3707 -2.9292  5.2832
  645MOL0     H87049   7.413   6.943   2.894  1.1150  3.0481  2.3154
  645MOL0     H87050   7.507   6.796   2.854 -0.0673  0.3449  0.8623
  645MOL0     H87051   7.722   6.927   2.834 -1.0207 -3.1298 -0.5636
  645MOL0     H87052   7.599   7.017   2.757 -0.8041 -0.8056 -0.2924
  645MOL0     H87053   7.717   7.068   3.015 -1.6814  0.4275  1.6266
  645MOL0     H87054   7.565   7.145   2.969  0.1391 -0.2387  1.9345
  645MOL0     H87055   7.784   7.162   2.770  1.4712  2.2796 -0.4058
  645MOL0     H87056   7.783   7.276   2.918  1.5612  0.4179 -1.5810
  645MOL0     H87057   7.269   6.769   3.488 -2.0361  0.1197  0.7065
  645MOL0     H87058   7.064   6.644   3.535  1.2493  0.4606  0.5467
  645MOL0     H87059   6.764   6.408   3.544  1.5880 -0.2906 -0.6891
  645MOL0     H87060   6.538   6.314   3.544  1.3233  1.4933  1.2330
  645MOL0     H87061   6.002   7.082   4.610  1.6217  1.1712 -0.6734
  645MOL0     H87062   6.023   7.300   4.729  1.4969  0.5370 -0.3644
  645MOL0     H87063   5.908   7.621   5.092  0.3712 -1.4469 -0.8624
  645MOL0     H87064   5.949   7.839   5.171  2.2478  0.5455  1.7526
  645MOL0     H87065   6.027   8.080   5.183  0.4589  1.1456 -0.2258
  645MOL0     H87066   6.023   7.989   5.335 -1.7960  2.9374 -0.9708
  645MOL0     H87067   6.061   8.221   5.359  0.5576  0.8556  1.5654
  645MOL0     H87068   6.212   8.211   5.274  0.9300 -0.6188 -0.0930
  645MOL0     H87069   6.145   8.063   5.531 -0.3137 -1.0940 -0.6575
  645MOL0     H87070   6.235   8.216   5.506  2.0040 -0.9193 -0.4501
  645MOL0     H87071   6.409   8.123   5.391 -1.7615  1.7580 -0.5287
  645MOL0     H87072   6.348   7.961   5.411 -0.7003  0.8722 -1.5664
  645MOL0     H87073   6.520   8.002   5.785  2.5286  0.9030 -1.5242
  645MOL0     H87074   6.365   7.792   5.068  0.6053 -1.0375 -1.5610
  645MOL0     H87075   6.322   7.568   5.001  1.5928  2.2571 -0.2455
  646MOL0     O87076   3.454   1.619   2.180  0.0761  0.1632 -0.0958
  646MOL0     C87077   3.488   1.666   2.080 -0.0613  0.6005  0.2175
  646MOL0     O87078   3.451   1.788   2.024  0.0751 -0.0892 -0.3557
  646MOL0     C87079   3.371   1.868   2.099 -0.5360 -0.6182  0.1559
  646MOL0     C87080   3.229   1.872   2.088 -0.8482 -0.2741  0.4368
  646MOL0     C87081   3.142   1.954   2.160  0.3533  0.1467 -0.4237
  646MOL0     C87082   3.201   2.029   2.267 -0.0992  0.6141  0.0852
  646MOL0     O87083   3.124   2.101   2.354 -0.6204  0.1345 -0.6534
  646MOL0     C87084   2.978   2.105   2.353 -0.0462 -0.0079 -0.3733
  646MOL0     C87085   2.911   2.201   2.266 -0.0724 -0.3534  0.1406
  646MOL0     C87086   2.753   2.178   2.256  0.5225  0.2056 -0.3953
  646MOL0     C87087   2.682   2.303   2.195 -0.5639  0.9843  0.5005
  646MOL0     C87088   2.537   2.290   2.173 -0.1880 -0.0979 -0.3662
  646MOL0     C87089   2.482   2.407   2.080 -0.2733  0.1583 -0.0237
  646MOL0     C87090   2.326   2.395   2.053 -0.0075 -0.7324 -0.6268
  646MOL0     C87091   2.284   2.517   1.966  0.3460 -0.1100 -0.2459
  646MOL0     N87092   2.138   2.527   1.979 -0.2421 -0.4726  0.4896
  646MOL0     C87093   2.069   2.593   2.081 -0.0778  1.0217  0.6173
  646MOL0     C87094   1.938   2.555   2.060  1.4020 -0.5835 -0.5619
  646MOL0     C87095   1.828   2.608   2.150 -0.3586 -0.1854 -0.2824
  646MOL0     C87096   1.723   2.692   2.082 -0.2508  0.4235 -0.3878
  646MOL0     C87097   1.614   2.733   2.183 -0.2295  0.1580  0.3064
  646MOL0     C87098   1.674   2.805   2.313 -0.1695 -0.3825  0.5618
  646MOL0     O87099   1.718   2.709   2.409  0.2356 -1.0129 -0.0286
  646MOL0     C87100   1.774   2.753   2.517  0.6898 -0.6715 -0.5142
  646MOL0     C87101   1.798   2.656   2.608 -0.2936  0.0613  0.5440
  646MOL0     C87102   1.849   2.687   2.732  0.8341 -0.3227 -0.4913
  646MOL0     C87103   1.846   2.569   2.830 -0.3667 -0.3153  0.0056
  646MOL0     C87104   1.874   2.826   2.762 -1.1331  1.0699 -0.2803
  646MOL0     C87105   1.951   2.868   2.883 -0.6319 -0.2965 -0.2296
  646MOL0     O87106   2.023   2.990   2.879 -0.5810 -0.4552  0.1049
  646MOL0     C87107   2.037   3.055   2.997  0.2585  0.7606  0.3020
  646MOL0     C87108   2.167   3.074   3.057 -0.0277  0.2340  0.3730
  646MOL0     C87109   2.177   3.138   3.180  0.3872 -0.7264  0.0418
  646MOL0     C87110   2.065   3.171   3.256  0.7519 -0.4891  0.0904
  646MOL0     O87111   2.089   3.214   3.382 -0.5830 -0.4452 -0.6212
  646MOL0     C87112   1.985   3.251   3.467  0.7818  0.0414  0.0161
  646MOL0     C87113   2.029   3.366   3.568 -1.3519 -0.2166  0.3464
  646MOL0     C87114   1.914   3.415   3.654 -0.8518 -0.7510  0.0596
  646MOL0     C87115   1.825   3.519   3.577  0.5115  0.2079  0.5695
  646MOL0     C87116   1.718   3.587   3.672  0.1783  0.3572 -1.1078
  646MOL0     C87117   1.667   3.724   3.622  0.8142 -0.6717 -0.2659
  646MOL0     C87118   1.575   3.719   3.496  0.2335  0.1746  0.4541
  646MOL0     C87119   1.469   3.835   3.494 -0.4794 -0.1529 -1.0583
  646MOL0    Cl87120   1.434   3.904   3.341  0.3554 -0.0311  0.0674
  646MOL0     C87121   1.933   3.141   3.203 -1.0851 -0.3521 -0.2881
  646MOL0     C87122   1.922   3.088   3.075 -0.2897 -0.8303  0.6595
  646MOL0     O87123   1.938   2.801   2.989 -0.1905 -0.3006 -1.2857
  646MOL0     C87124   1.853   2.920   2.666  1.0319 -0.7152 -0.5254
  646MOL0     C87125   1.799   2.888   2.538 -0.4417 -0.0147  0.3517
  646MOL0     N87126   1.927   2.464   1.957 -1.0022  1.2122  0.2984
  646MOL0     N87127   2.049   2.440   1.923 -1.0643  0.4477  0.2693
  646MOL0     C87128   3.336   2.016   2.289 -0.0312 -0.8314 -0.7567
  646MOL0     C87129   3.424   1.940   2.213 -0.2097  1.2945 -0.3026
  646MOL0     C87130   3.598   1.605   2.011 -0.0399  0.7112 -1.0675
  646MOL0     C87131   3.630   1.645   1.881 -0.3842  0.4754  0.3526
  646MOL0     C87132   3.739   1.598   1.818  0.8938 -0.0069  0.3726
  646MOL0     C87133   3.816   1.494   1.874  0.2277 -1.2134 -0.2785
  646MOL0     O87134   3.934   1.440   1.827  0.0073 -1.1593 -0.0021
  646MOL0     C87135   3.977   1.479   1.698 -0.1202  0.0880 -0.1911
  646MOL0     C87136   3.939   1.388   1.580 -0.8513 -0.9165  0.9201
  646MOL0     C87137   3.982   1.445   1.444  0.1119 -0.1051  0.3047
  646MOL0     C87138   3.985   1.336   1.335  0.2448  0.4770  0.6599
  646MOL0     C87139   3.860   1.265   1.329  0.9156 -0.8007  0.1955
  646MOL0     C87140   3.761   1.201   1.311 -0.2496 -0.0701 -0.3747
  646MOL0     C87141   3.788   1.452   1.998  0.4029 -0.6435 -0.6260
  646MOL0     C87142   3.671   1.499   2.065 -0.3222 -0.1622  0.1072
  646MOL0     H87143   3.197   1.815   2.001  0.3063  0.0190 -0.1965
  646MOL0     H87144   3.035   1.958   2.145  0.4495  0.2996 -1.0781
  646MOL0     H87145   2.935   2.006   2.334  0.2748 -0.1245 -0.5058
  646MOL0     H87146   2.945   2.118   2.457 -0.8514  0.8059 -0.7231
  646MOL0     H87147   2.910   2.305   2.299  0.4806 -0.3506  0.1575
  646MOL0     H87148   2.957   2.223   2.169  0.7200  3.6378  1.2370
  646MOL0     H87149   2.725   2.095   2.190 -0.5979  1.4524 -1.5407
  646MOL0     H87150   2.708   2.166   2.356 -0.5825  0.1758 -0.8799
  646MOL0     H87151   2.695   2.384   2.268  5.3823 -0.7406  1.8940
  646MOL0     H87152   2.738   2.332   2.106 -0.0654  1.3732  0.9352
  646MOL0     H87153   2.515   2.189   2.139 -1.5524 -0.5207  1.6443
  646MOL0     H87154   2.477   2.292   2.264  0.9380  1.1744  0.4042
  646MOL0     H87155   2.503   2.503   2.128 -2.7752 -0.0989  1.7860
  646MOL0     H87156   2.542   2.407   1.988 -0.8278 -1.0286 -0.3972
  646MOL0     H87157   2.306   2.301   2.001 -0.3651  0.4883 -2.7870
  646MOL0     H87158   2.275   2.395   2.150 -1.5211  1.5449 -1.3550
  646MOL0     H87159   2.325   2.507   1.865  0.6217 -2.2181  0.0177
  646MOL0     H87160   2.330   2.607   2.008 -0.0964  0.3344 -0.6911
  646MOL0     H87161   2.113   2.661   2.154  2.2681  1.2445 -0.8825
  646MOL0     H87162   1.790   2.526   2.211 -2.6868  3.0051  2.9447
  646MOL0     H87163   1.885   2.679   2.211  0.2832 -0.1366 -0.9150
  646MOL0     H87164   1.676   2.636   2.001  3.6412 -1.8818 -1.3579
  646MOL0     H87165   1.775   2.781   2.046  1.0134 -0.2040 -0.1701
  646MOL0     H87166   1.558   2.649   2.223  0.5569  0.1925  1.5670
  646MOL0     H87167   1.552   2.812   2.140  1.3702  2.5173  2.0060
  646MOL0     H87168   1.603   2.864   2.371  0.7281 -0.2871  1.5786
  646MOL0     H87169   1.761   2.867   2.290  0.6657 -1.7205 -0.0144
  646MOL0     H87170   1.771   2.553   2.587  4.5649 -1.1453 -1.0247
  646MOL0     H87171   1.814   2.600   2.930 -1.2910  0.7727 -0.6006
  646MOL0     H87172   1.770   2.496   2.803 -1.3183  1.3324 -2.0400
  646MOL0     H87173   1.942   2.523   2.854  0.7903  2.1448  0.4803
  646MOL0     H87174   2.248   3.060   2.987 -0.9262  0.8764 -0.8134
  646MOL0     H87175   2.277   3.147   3.222 -1.7063 -0.0927  5.7338
  646MOL0     H87176   1.907   3.301   3.408 -2.9823 -2.4572  2.4300
  646MOL0     H87177   1.940   3.164   3.514  0.5997  0.9463  1.6044
  646MOL0     H87178   2.119   3.333   3.621 -0.3140 -4.2920 -3.2848
  646MOL0     H87179   2.061   3.448   3.503  0.3224 -0.0098  1.3798
  646MOL0     H87180   1.974   3.457   3.735  0.9032 -2.1859 -0.4367
  646MOL0     H87181   1.856   3.333   3.699  0.3705 -0.5581  2.1307
  646MOL0     H87182   1.890   3.600   3.542  0.4999 -0.2848 -0.6389
  646MOL0     H87183   1.772   3.480   3.490 -3.2428 -1.1179  3.1997
  646MOL0     H87184   1.767   3.603   3.768  0.2264  0.6924 -1.1871
  646MOL0     H87185   1.639   3.520   3.706  1.8179 -0.0192  2.4483
  646MOL0     H87186   1.614   3.775   3.703  0.4467  2.3839 -2.2656
  646MOL0     H87187   1.749   3.787   3.586  2.0819 -2.5318 -0.7542
  646MOL0     H87188   1.525   3.621   3.496 -1.5817  1.0621  0.9374
  646MOL0     H87189   1.629   3.722   3.401  3.1026 -3.0105  1.7485
  646MOL0     H87190   1.493   3.916   3.562 -1.2167  0.4340 -1.4834
  646MOL0     H87191   1.371   3.790   3.514  0.0663 -0.3096  1.6520
  646MOL0     H87192   1.843   3.137   3.263 -1.1266  0.6570 -0.2700
  646MOL0     H87193   1.822   3.066   3.038 -1.5524  4.7409 -0.1997
  646MOL0     H87194   1.866   3.027   2.682 -0.4349 -0.4533 -0.8768
  646MOL0     H87195   1.789   2.964   2.462  1.1181 -1.6319 -1.6045
  646MOL0     H87196   3.381   2.067   2.374  0.0278  0.2197 -1.3971
  646MOL0     H87197   3.532   1.948   2.214 -0.1862  3.7130 -3.6420
  646MOL0     H87198   3.570   1.725   1.839 -1.7912  0.2839  1.8647
  646MOL0     H87199   3.760   1.648   1.724 -2.1782  0.7406 -0.0039
  646MOL0     H87200   3.951   1.584   1.682  0.5550  0.2213 -0.4231
  646MOL0     H87201   4.086   1.480   1.697 -0.1088 -0.3688  0.2343
  646MOL0     H87202   3.832   1.369   1.593 -1.6343  2.1308 -0.1950
  646MOL0     H87203   3.981   1.289   1.596 -0.7561 -1.4347 -2.0550
  646MOL0     H87204   4.076   1.498   1.460 -0.1032 -0.5013  3.3746
  646MOL0     H87205   3.908   1.519   1.411 -0.5349 -0.3881  1.0981
  646MOL0     H87206   4.060   1.259   1.356 -0.6119  0.1072  2.5912
  646MOL0     H87207   4.009   1.373   1.235 -4.6783  0.7469 -0.6816
  646MOL0     H87208   3.685   1.139   1.269 -1.3927  2.1391 -1.7629
  646MOL0     H87209   3.850   1.373   2.039  0.4949 -0.2065  0.0979
  646MOL0     H87210   3.645   1.461   2.163  1.3488 -0.6331  0.4069
  647MOL0     O87211   0.005   5.796   6.946  0.1222  0.7481  0.1865
  647MOL0     C87212  -0.042   5.699   7.015  0.3748 -0.1507  1.1636
  647MOL0     O87213  -0.032   5.571   6.969  0.1621  0.1019 -0.0458
  647MOL0     C87214   0.026   5.556   6.847  0.6120  1.0651 -0.2555
  647MOL0     C87215   0.156   5.602   6.803  0.2251 -0.6216 -0.0763
  647MOL0     C87216   0.197   5.571   6.670  0.9057 -0.2038  0.1258
  647MOL0     C87217   0.099   5.508   6.585 -0.7338  0.2353  0.1461
  647MOL0     O87218   0.124   5.482   6.455 -0.6008 -0.8063  0.4614
  647MOL0     C87219   0.267   5.483   6.408 -0.0997 -0.0846  1.7316
  647MOL0     C87220   0.279   5.426   6.261 -0.5397  0.4516  0.6278
  647MOL0     C87221   0.421   5.356   6.246  0.3351 -0.0106 -0.0126
  647MOL0     C87222   0.471   5.322   6.109  0.0056  0.1761  0.6299
  647MOL0     C87223   0.374   5.254   6.016  0.3697 -0.0396 -0.1421
  647MOL0     C87224   0.333   5.114   6.066  0.0896  0.1723  0.0584
  647MOL0     C87225   0.206   5.067   5.987  0.6184  0.4284  1.2551
  647MOL0     C87226   0.159   4.932   6.039 -0.3648  0.9006 -0.1716
  647MOL0     N87227   0.017   4.927   6.106 -0.4614  0.0862 -0.2591
  647MOL0     C87228  -0.024   4.983   6.221 -0.3567  0.5555 -0.1962
  647MOL0     C87229  -0.146   4.942   6.236  0.5188 -0.5942 -0.0090
  647MOL0     C87230  -0.225   4.958   6.365 -0.0915 -1.1304 -0.4087
  647MOL0     C87231  -0.283   5.103   6.386  0.7272  0.8085  0.0436
  647MOL0     C87232  -0.332   5.134   6.530  0.4777 -1.2382 -0.0907
  647MOL0     C87233  -0.203   5.135   6.620  0.2431 -0.1106 -0.5633
  647MOL0     O87234  -0.173   5.010   6.680 -0.4409 -0.1416  0.3523
  647MOL0     C87235  -0.212   4.987   6.810 -0.0417  0.5446 -0.3270
  647MOL0     C87236  -0.331   5.019   6.867 -0.0496 -1.0079 -0.6377
  647MOL0     C87237  -0.374   4.983   6.998  0.2277 -0.3333  0.1850
  647MOL0     C87238  -0.493   5.047   7.067 -0.1425 -0.5891  0.2037
  647MOL0     C87239  -0.287   4.893   7.061 -0.6030 -0.4120 -0.6656
  647MOL0     C87240  -0.316   4.836   7.197  0.5679 -0.6032  0.7363
  647MOL0     O87241  -0.450   4.815   7.239 -0.4724 -0.3741 -0.4980
  647MOL0     C87242  -0.465   4.722   7.332  0.3750  0.5074 -0.3681
  647MOL0     C87243  -0.575   4.740   7.414  0.8413  0.0023 -0.6755
  647MOL0     C87244  -0.596   4.660   7.530  0.9542  0.6824 -0.3762
  647MOL0     C87245  -0.510   4.550   7.555 -0.3851 -0.5809 -0.5328
  647MOL0     O87246  -0.538   4.480   7.665  0.7033 -0.0367  0.4523
  647MOL0     C87247  -0.431   4.460   7.757 -1.0040  0.4441 -0.1324
  647MOL0     C87248  -0.490   4.367   7.861 -0.3935 -0.7377 -0.8362
  647MOL0     C87249  -0.610   4.414   7.937 -0.5105 -0.0278  0.7921
  647MOL0     C87250  -0.662   4.308   8.036  0.2817  0.8281  0.5271
  647MOL0     C87251  -0.784   4.364   8.114  0.2424 -1.2049 -0.3239
  647MOL0     C87252  -0.888   4.442   8.031 -0.4268  0.4618 -1.3558
  647MOL0     C87253  -0.944   4.366   7.914  0.1513 -0.8251  0.3134
  647MOL0     C87254  -1.076   4.428   7.879 -0.3457 -1.1908 -0.4580
  647MOL0    Cl87255  -1.188   4.291   7.827  0.0302  0.3898  0.3103
  647MOL0     C87256  -0.405   4.520   7.466  0.9902  0.3892 -0.3849
  647MOL0     C87257  -0.384   4.604   7.353  0.0032 -0.4814  0.0055
  647MOL0     O87258  -0.217   4.802   7.258 -0.9953 -0.1678 -0.0589
  647MOL0     C87259  -0.167   4.853   6.995 -0.5712 -0.5143 -0.0897
  647MOL0     C87260  -0.137   4.894   6.872 -0.7590 -0.5055  0.4086
  647MOL0     N87261  -0.187   4.880   6.131 -0.9712  0.3678  0.9029
  647MOL0     N87262  -0.086   4.859   6.051 -0.2792 -0.3949 -0.3641
  647MOL0     C87263  -0.022   5.464   6.634  0.1310 -1.1806  0.3867
  647MOL0     C87264  -0.054   5.475   6.768  0.2573  0.0465  1.2057
  647MOL0     C87265  -0.059   5.717   7.156  0.3522  0.3277 -0.2684
  647MOL0     C87266   0.010   5.826   7.222 -0.5001  0.4282  0.6567
  647MOL0     C87267  -0.023   5.857   7.348 -0.3479  0.8197  0.7364
  647MOL0     C87268  -0.094   5.780   7.430  0.1978  1.1575  0.7240
  647MOL0     O87269  -0.095   5.803   7.564 -0.2729 -0.3107 -0.0608
  647MOL0     C87270  -0.145   5.713   7.659  0.3123  0.6856 -0.0764
  647MOL0     C87271  -0.119   5.775   7.791  0.1806  0.4356  0.1558
  647MOL0     C87272  -0.219   5.884   7.837  0.1337 -0.1499  0.9559
  647MOL0     C87273  -0.186   5.950   7.974  0.7694 -0.7308 -0.7246
  647MOL0     C87274  -0.318   5.991   8.025  0.0704 -0.1445  0.1999
  647MOL0     C87275  -0.415   6.033   8.078  0.9926 -0.7083  1.1842
  647MOL0     C87276  -0.165   5.673   7.371 -0.6305  1.4707 -0.0600
  647MOL0     C87277  -0.143   5.640   7.238 -0.9925  0.3945 -0.2742
  647MOL0     H87278   0.216   5.668   6.865  0.6535  0.9447 -2.0360
  647MOL0     H87279   0.294   5.598   6.627  0.6729 -0.1357 -0.3641
  647MOL0     H87280   0.309   5.584   6.410 -0.5293  0.1788 -0.1499
  647MOL0     H87281   0.323   5.416   6.474  1.2739 -1.0279 -0.2849
  647MOL0     H87282   0.197   5.357   6.240 -2.7163  2.7606  1.0217
  647MOL0     H87283   0.281   5.497   6.178  1.7054 -2.2672 -1.8513
  647MOL0     H87284   0.508   5.416   6.276  2.2920 -1.1545 -2.9475
  647MOL0     H87285   0.417   5.265   6.307 -1.9695 -1.2949 -1.9302
  647MOL0     H87286   0.491   5.417   6.057 -0.1122 -0.2667 -0.2438
  647MOL0     H87287   0.561   5.263   6.129  0.0049  0.6247  2.0314
  647MOL0     H87288   0.284   5.313   5.996 -0.1152  1.1922  4.4054
  647MOL0     H87289   0.433   5.233   5.927 -1.7764  0.5599 -1.7791
  647MOL0     H87290   0.418   5.048   6.045  1.2869  0.2482  3.8913
  647MOL0     H87291   0.308   5.114   6.173  0.9823  2.6583  0.3387
  647MOL0     H87292   0.120   5.131   6.008 -0.0146 -0.0169  0.1456
  647MOL0     H87293   0.229   5.061   5.880  1.4596 -0.2880  1.4599
  647MOL0     H87294   0.222   4.905   6.125  1.5886 -0.7060 -2.0050
  647MOL0     H87295   0.162   4.857   5.960 -0.6411  0.7641 -0.0523
  647MOL0     H87296   0.029   5.041   6.296 -0.2775  1.1884 -0.7333
  647MOL0     H87297  -0.313   4.893   6.355 -0.7906  0.1267 -3.5498
  647MOL0     H87298  -0.158   4.920   6.442  0.0069 -1.6503 -0.7425
  647MOL0     H87299  -0.359   5.119   6.308  1.0543  1.5947 -0.1171
  647MOL0     H87300  -0.196   5.162   6.355  2.3225 -2.7522 -3.1564
  647MOL0     H87301  -0.416   5.071   6.562 -1.4739  0.2136 -2.0385
  647MOL0     H87302  -0.364   5.239   6.532  2.5955 -0.5338  2.5521
  647MOL0     H87303  -0.205   5.210   6.700 -2.0463 -0.1661 -0.5026
  647MOL0     H87304  -0.118   5.173   6.563  0.7664  0.2710  0.4400
  647MOL0     H87305  -0.392   5.094   6.817  0.9840  1.3895  1.4812
  647MOL0     H87306  -0.539   5.124   7.005  1.4573 -0.2096 -0.5883
  647MOL0     H87307  -0.570   4.974   7.090  0.6887 -1.3299  0.6984
  647MOL0     H87308  -0.457   5.102   7.154  1.4226  0.2180 -0.8900
  647MOL0     H87309  -0.631   4.830   7.392  2.9344  1.7108  0.4794
  647MOL0     H87310  -0.671   4.684   7.605  0.8627 -0.6157 -0.0331
  647MOL0     H87311  -0.339   4.427   7.708  1.5970  1.4383  3.6643
  647MOL0     H87312  -0.403   4.550   7.812 -3.0099  0.4694  0.9126
  647MOL0     H87313  -0.493   4.265   7.820 -2.1661 -1.9080  1.8683
  647MOL0     H87314  -0.418   4.365   7.943 -0.1313 -0.0089 -1.0428
  647MOL0     H87315  -0.686   4.446   7.864  0.3726 -0.4820 -0.3531
  647MOL0     H87316  -0.582   4.503   7.994 -1.1525  0.2343  0.7027
  647MOL0     H87317  -0.698   4.228   7.970 -1.8384  4.0903 -2.6420
  647MOL0     H87318  -0.587   4.259   8.098 -0.4513 -1.3576 -0.2123
  647MOL0     H87319  -0.737   4.434   8.184  1.6752 -4.4195  2.1832
  647MOL0     H87320  -0.827   4.282   8.173 -1.0620 -0.4949 -0.2553
  647MOL0     H87321  -0.970   4.459   8.102  1.0307  3.3546 -0.2063
  647MOL0     H87322  -0.840   4.539   8.017  2.1325 -0.6863 -1.1121
  647MOL0     H87323  -0.957   4.260   7.937  0.5756 -0.9817 -0.1354
  647MOL0     H87324  -0.888   4.392   7.823 -3.7824  6.8332 -0.7810
  647MOL0     H87325  -1.069   4.503   7.799 -1.7965  2.3849  2.4663
  647MOL0     H87326  -1.109   4.502   7.952  1.9545  0.6275 -1.1198
  647MOL0     H87327  -0.343   4.434   7.490  1.8982  1.5656  1.7262
  647MOL0     H87328  -0.302   4.580   7.286  2.5393  2.3481  1.8309
  647MOL0     H87329  -0.112   4.774   7.044 -1.2205 -0.6347  0.4498
  647MOL0     H87330  -0.045   4.853   6.831 -1.6617 -2.0279 -0.1625
  647MOL0     H87331  -0.100   5.436   6.563 -0.4749  0.2327  0.4699
  647MOL0     H87332  -0.148   5.446   6.814  1.0596 -3.7347  0.7898
  647MOL0     H87333   0.075   5.886   7.159  0.2961 -1.7036 -0.6740
  647MOL0     H87334   0.013   5.947   7.397 -1.4132  0.6872  1.7880
  647MOL0     H87335  -0.253   5.697   7.649 -0.3493  3.8522  0.9781
  647MOL0     H87336  -0.087   5.620   7.659  1.0223  1.0820  2.0109
  647MOL0     H87337  -0.017   5.815   7.789  0.4145 -0.1055 -2.3029
  647MOL0     H87338  -0.117   5.701   7.872 -1.6086  1.1331  0.9071
  647MOL0     H87339  -0.320   5.842   7.837 -0.7824  1.5343 -3.0435
  647MOL0     H87340  -0.218   5.963   7.762 -0.4946 -0.9471  0.0826
  647MOL0     H87341  -0.119   6.036   7.962  0.8487 -0.6727  0.0688
  647MOL0     H87342  -0.134   5.884   8.043  3.3955 -0.0355 -1.9211
  647MOL0     H87343  -0.496   6.077   8.133  0.7679  2.5240 -1.3657
  647MOL0     H87344  -0.227   5.613   7.437  0.6654  0.7233  0.5308
  647MOL0     H87345  -0.200   5.555   7.204 -1.0585 -0.5699  2.0797
  648MOL0     O87346   4.172  11.452   9.484  0.2952 -0.7518  1.1839
  648MOL0     C87347   4.189  11.368   9.569  0.0207 -0.1525 -0.4096
  648MOL0     O87348   4.096  11.284   9.624  0.1898  0.7539  0.8335
  648MOL0     C87349   3.968  11.275   9.591  0.2181  0.6879 -0.2224
  648MOL0     C87350   3.871  11.234   9.687  0.7489 -0.5350 -0.8138
  648MOL0     C87351   3.732  11.231   9.661  1.5171 -0.4399  0.4858
  648MOL0     C87352   3.689  11.269   9.531 -0.8608 -0.2272 -0.0318
  648MOL0     O87353   3.557  11.261   9.508  0.0812 -0.3749  0.6004
  648MOL0     C87354   3.500  11.343   9.409 -0.1523  0.6216  0.3004
  648MOL0     C87355   3.348  11.342   9.440  1.4737 -0.9211 -0.7273
  648MOL0     C87356   3.317  11.430   9.579  0.3275 -0.3503  0.1281
  648MOL0     C87357   3.176  11.472   9.586  0.3286 -0.0413 -0.6436
  648MOL0     C87358   3.147  11.587   9.680 -0.0243  0.2107 -0.4533
  648MOL0     C87359   3.007  11.644   9.656 -0.3641 -0.5396  0.2690
  648MOL0     C87360   2.982  11.754   9.760 -0.5206 -0.7152  0.0203
  648MOL0     C87361   2.843  11.808   9.766 -0.5491  0.2366 -0.8120
  648MOL0     N87362   2.784  11.855   9.635 -0.1200  0.0022  0.5531
  648MOL0     C87363   2.676  11.802   9.584 -0.0100 -0.0010 -0.0925
  648MOL0     C87364   2.647  11.878   9.478  0.3648 -1.3046 -0.5782
  648MOL0     C87365   2.521  11.855   9.393 -0.2159  0.4977 -0.2920
  648MOL0     C87366   2.416  11.972   9.392  0.1669  0.3833 -0.2261
  648MOL0     C87367   2.449  12.090   9.298  0.1457  0.1495  0.7702
  648MOL0     C87368   2.396  12.217   9.347  0.0068 -0.3098  0.1081
  648MOL0     O87369   2.255  12.197   9.365  0.4457  0.5947  0.8074
  648MOL0     C87370   2.179  12.285   9.424  0.3938 -0.6667  0.3859
  648MOL0     C87371   2.047  12.265   9.403 -0.0226  0.9692 -0.5534
  648MOL0     C87372   1.946  12.349   9.459  0.0705 -0.5503  0.5009
  648MOL0     C87373   1.800  12.316   9.435  0.1750 -0.5779 -0.1511
  648MOL0     C87374   1.981  12.452   9.537  0.4286 -0.3501 -0.2695
  648MOL0     C87375   1.882  12.554   9.586 -0.0500  0.2652 -0.5945
  648MOL0     O87376   1.918  12.621   9.695 -0.0849  0.1574 -0.3414
  648MOL0     C87377   1.831  12.707   9.746  0.3609 -0.1830  0.6691
  648MOL0     C87378   1.842  12.838   9.709 -0.7292  0.3446 -0.0912
  648MOL0     C87379   1.776  12.934   9.775  0.4014 -0.7384  0.5404
  648MOL0     C87380   1.675  12.904   9.869 -0.4058  0.3320 -0.3382
  648MOL0     O87381   1.600  12.993   9.938 -0.5430  0.1784 -0.5122
  648MOL0     C87382   1.607  13.128   9.894  0.1652 -0.6621  0.4550
  648MOL0     C87383   1.513  13.228   9.967 -0.7402  1.0028 -0.6126
  648MOL0     C87384   1.369  13.233   9.909  0.0821 -0.1158 -0.4056
  648MOL0     C87385   1.352  13.344   9.809  1.1116 -0.2955  0.4082
  648MOL0     C87386   1.212  13.423   9.828  0.8315 -0.2028 -0.5204
  648MOL0     C87387   1.092  13.338   9.783  0.3723 -0.5866  0.9393
  648MOL0     C87388   0.973  13.433   9.768  0.4105  0.1163 -0.0643
  648MOL0     C87389   0.842  13.372   9.725  0.3005  0.1893  0.5174
  648MOL0    Cl87390   0.854  13.286   9.558 -0.1057 -0.1041  0.0396
  648MOL0     C87391   1.658  12.767   9.901 -0.6556 -0.5267 -0.3438
  648MOL0     C87392   1.737  12.679   9.834 -0.4373 -0.0749  1.1083
  648MOL0     O87393   1.804  12.598   9.504 -0.1440  0.0758 -0.1401
  648MOL0     C87394   2.117  12.476   9.568 -0.1573  0.4477  0.3470
  648MOL0     C87395   2.215  12.395   9.503  0.4839  0.5972 -0.1640
  648MOL0     N87396   2.743  11.974   9.463 -0.6718 -0.8720 -0.1201
  648MOL0     N87397   2.834  11.963   9.556  0.0923 -0.3056  0.2625
  648MOL0     C87398   3.781  11.310   9.434 -0.4704 -0.8545  1.0962
  648MOL0     C87399   3.918  11.318   9.467 -0.3593  0.7118 -1.4467
  648MOL0     C87400   4.331  11.350   9.610  0.3466  0.8296 -0.2447
  648MOL0     C87401   4.439  11.430   9.575 -0.1031  0.0231  0.7932
  648MOL0     C87402   4.575  11.420   9.625  0.3207 -1.4847 -0.5403
  648MOL0     C87403   4.600  11.325   9.728  0.0684  0.4762 -0.4484
  648MOL0     O87404   4.714  11.291   9.789  0.2044  0.1580 -0.8536
  648MOL0     C87405   4.825  11.376   9.772 -0.2480 -0.3005  0.8995
  648MOL0     C87406   4.954  11.333   9.833 -1.3048 -0.3931  1.3633
  648MOL0     C87407   4.945  11.315   9.978 -1.1112  1.0998 -1.0761
  648MOL0     C87408   5.043  11.396  10.052 -0.1179 -0.8783 -0.3722
  648MOL0     C87409   5.040  11.544  10.030  0.1961  0.3135  0.1450
  648MOL0     C87410   5.058  11.665  10.013 -0.2481  0.4446 -0.4253
  648MOL0     C87411   4.497  11.243   9.756 -0.1715 -0.1132  0.8116
  648MOL0     C87412   4.367  11.250   9.705  0.3616 -0.1083  0.2479
  648MOL0     H87413   3.895  11.207   9.790 -0.4212  0.0153 -0.3808
  648MOL0     H87414   3.659  11.194   9.731 -1.7959  1.8140 -1.4895
  648MOL0     H87415   3.542  11.444   9.414 -0.1285  0.6777 -0.9018
  648MOL0     H87416   3.512  11.306   9.307 -2.0438 -3.2711  1.2948
  648MOL0     H87417   3.305  11.399   9.358 -1.4219 -0.6641  0.8301
  648MOL0     H87418   3.318  11.237   9.435 -1.0690 -0.5212  2.5544
  648MOL0     H87419   3.345  11.360   9.658  0.1833 -1.3666 -0.7024
  648MOL0     H87420   3.387  11.513   9.590  1.2593 -1.1300  0.2152
  648MOL0     H87421   3.130  11.495   9.488 -1.1196  1.1590  0.2583
  648MOL0     H87422   3.128  11.384   9.628  3.5607 -0.6459  2.1477
  648MOL0     H87423   3.170  11.557   9.782  0.5937 -1.6735 -1.1029
  648MOL0     H87424   3.218  11.662   9.644  0.7638  0.0825  0.7820
  648MOL0     H87425   2.993  11.700   9.563 -5.4783 -0.1249  1.0344
  648MOL0     H87426   2.939  11.559   9.661 -2.0355  0.3715 -3.2998
  648MOL0     H87427   3.013  11.716   9.858 -4.0254 -2.7335  0.4912
  648MOL0     H87428   3.054  11.829   9.727 -0.0369 -1.3259 -0.3410
  648MOL0     H87429   2.848  11.895   9.833 -0.5051 -0.9860  0.8502
  648MOL0     H87430   2.775  11.739   9.817  1.2207  2.4869  5.5057
  648MOL0     H87431   2.613  11.721   9.621 -2.1247  0.0815 -3.1268
  648MOL0     H87432   2.547  11.842   9.288  1.5993  1.7517 -0.0409
  648MOL0     H87433   2.471  11.765   9.431  0.4223  1.2106  2.4444
  648MOL0     H87434   2.391  11.995   9.496  0.1302  4.2971 -0.9610
  648MOL0     H87435   2.323  11.947   9.340 -1.1972  1.6963  1.4366
  648MOL0     H87436   2.422  12.090   9.192 -1.5859 -0.1394  1.1865
  648MOL0     H87437   2.558  12.096   9.304  0.3252 -2.4333  1.3448
  648MOL0     H87438   2.420  12.298   9.278  1.1672 -1.9644 -1.5434
  648MOL0     H87439   2.436  12.241   9.446  0.7687  0.2898 -0.3409
  648MOL0     H87440   2.012  12.184   9.340 -1.8597  1.7999 -0.6692
  648MOL0     H87441   1.757  12.378   9.357  0.2919  0.5714  0.6724
  648MOL0     H87442   1.778  12.212   9.410 -1.1491 -0.4898  0.5919
  648MOL0     H87443   1.752  12.335   9.532  0.1154  2.0521 -0.6188
  648MOL0     H87444   1.903  12.875   9.627 -2.4393  3.2113 -0.1994
  648MOL0     H87445   1.806  13.038   9.763  0.3792 -0.4838  2.4213
  648MOL0     H87446   1.711  13.160   9.906 -0.6701  1.6095  2.3053
  648MOL0     H87447   1.585  13.142   9.787  0.1818 -1.1441  0.3887
  648MOL0     H87448   1.509  13.179  10.065  1.9690  3.9863  1.1631
  648MOL0     H87449   1.553  13.329   9.974  1.1912  0.5576 -3.6282
  648MOL0     H87450   1.302  13.262   9.990 -1.8582  2.0447 -2.6226
  648MOL0     H87451   1.335  13.139   9.866  1.6085 -1.6270  1.4996
  648MOL0     H87452   1.433  13.416   9.821  1.7107 -0.8109 -0.4386
  648MOL0     H87453   1.350  13.300   9.709 -1.0562 -3.2694  1.6077
  648MOL0     H87454   1.222  13.517   9.774  3.1198  0.7624  1.4472
  648MOL0     H87455   1.193  13.442   9.934 -0.4794 -0.2374 -0.7285
  648MOL0     H87456   1.105  13.297   9.682  2.6402  0.1338  0.8934
  648MOL0     H87457   1.070  13.248   9.842 -0.7687 -0.1408  1.2145
  648MOL0     H87458   0.998  13.506   9.690  1.7151 -0.4464 -0.1947
  648MOL0     H87459   0.952  13.475   9.867  0.7941 -0.6886  0.3726
  648MOL0     H87460   0.760  13.444   9.719  0.1423  0.4487  3.8820
  648MOL0     H87461   0.812  13.292   9.793 -3.4495 -0.1831 -1.3164
  648MOL0     H87462   1.582  12.734   9.972  0.5906 -4.2866 -0.5621
  648MOL0     H87463   1.724  12.573   9.854 -0.6094 -0.4351 -0.7058
  648MOL0     H87464   2.150  12.564   9.623 -1.6555  0.0131  2.0264
  648MOL0     H87465   2.321  12.407   9.524  0.9796 -2.4125 -0.4178
  648MOL0     H87466   3.749  11.332   9.332 -0.7771 -0.6908  1.2289
  648MOL0     H87467   3.983  11.351   9.387 -2.4445  0.7057 -3.2552
  648MOL0     H87468   4.403  11.507   9.507 -0.4028 -0.0854  0.8269
  648MOL0     H87469   4.652  11.480   9.578 -0.3529 -1.0006 -1.0466
  648MOL0     H87470   4.855  11.379   9.667 -1.0260  3.5131  0.6329
  648MOL0     H87471   4.803  11.480   9.799 -0.4015 -0.0679 -0.0976
  648MOL0     H87472   5.031  11.408   9.812 -3.3947  1.1325 -1.4913
  648MOL0     H87473   4.977  11.240   9.782 -1.6475 -0.3964  1.2132
  648MOL0     H87474   4.974  11.212  10.001  0.1841  1.9103  1.2791
  648MOL0     H87475   4.848  11.343  10.021 -1.0175 -0.4044  0.1813
  648MOL0     H87476   5.138  11.368  10.006  0.6125 -0.2430  0.6965
  648MOL0     H87477   5.057  11.377  10.159 -1.3286 -1.2339 -0.2641
  648MOL0     H87478   5.081  11.769   9.999  3.7252 -0.2771 -0.1473
  648MOL0     H87479   4.517  11.155   9.816 -0.5327  0.4395  1.7583
  648MOL0     H87480   4.305  11.168   9.738 -1.6060  1.8034  1.5340
  649MOL0     O87481   8.804   9.504   2.333  0.4059  0.0420 -0.4696
  649MOL0     C87482   8.896   9.464   2.259 -0.2372  0.0234 -0.1688
  649MOL0     O87483   8.905   9.343   2.207  0.9073 -0.5070 -0.2198
  649MOL0     C87484   8.796   9.268   2.176  1.0596  0.1433 -0.2709
  649MOL0     C87485   8.673   9.321   2.131  0.8875  0.4467  0.9887
  649MOL0     C87486   8.578   9.240   2.087 -0.2926 -0.1605  0.0738
  649MOL0     C87487   8.580   9.104   2.107 -0.0424 -0.0237 -0.7165
  649MOL0     O87488   8.462   9.031   2.090 -0.8859 -0.2421 -0.9057
  649MOL0     C87489   8.453   8.890   2.093  0.1018  0.3571  0.6275
  649MOL0     C87490   8.305   8.855   2.095  0.4295  0.3602 -0.0959
  649MOL0     C87491   8.225   8.904   2.215 -0.1385 -0.6662 -0.0497
  649MOL0     C87492   8.075   8.852   2.209 -0.7177 -0.0483  0.2636
  649MOL0     C87493   7.989   8.888   2.090  0.1411  0.1639  0.3837
  649MOL0     C87494   7.984   9.043   2.083  0.5077  0.5718 -0.2391
  649MOL0     C87495   7.876   9.083   1.989  0.0078  0.3834 -0.3132
  649MOL0     C87496   7.908   9.056   1.843 -0.1928 -0.7104 -0.1785
  649MOL0     N87497   7.786   9.087   1.767 -0.2941  0.6217  0.3938
  649MOL0     C87498   7.672   9.014   1.764 -1.1920  0.1756 -0.4474
  649MOL0     C87499   7.580   9.091   1.701 -0.9503  0.4255 -0.0716
  649MOL0     C87500   7.435   9.053   1.680  0.5655  0.1127 -0.2535
  649MOL0     C87501   7.397   8.996   1.541  0.2093  0.0488 -0.9651
  649MOL0     C87502   7.245   8.939   1.533  0.5256 -0.5650  0.1418
  649MOL0     C87503   7.246   8.826   1.641 -0.0781  0.2667  0.0635
  649MOL0     O87504   7.344   8.717   1.623 -0.4065 -0.1509  1.0186
  649MOL0     C87505   7.311   8.611   1.550 -0.1093 -0.0717 -0.5362
  649MOL0     C87506   7.428   8.549   1.500 -0.1941  0.6067  0.4574
  649MOL0     C87507   7.421   8.432   1.417 -0.1537 -0.6652 -1.4156
  649MOL0     C87508   7.553   8.371   1.376  0.1587 -0.0605 -0.8142
  649MOL0     C87509   7.294   8.383   1.376  0.2066 -0.2107 -0.6973
  649MOL0     C87510   7.281   8.263   1.288 -0.2404  0.7482  0.4506
  649MOL0     O87511   7.158   8.257   1.218  0.1396 -0.0146 -1.1128
  649MOL0     C87512   7.133   8.149   1.139 -0.8103  0.5165 -0.6906
  649MOL0     C87513   7.171   8.159   1.000  0.6770  0.6003 -0.4625
  649MOL0     C87514   7.135   8.059   0.912 -0.1135 -0.7243  0.3591
  649MOL0     C87515   7.062   7.944   0.951 -0.8313  0.0246 -0.0947
  649MOL0     O87516   7.019   7.843   0.869 -0.2144  0.1913 -0.6638
  649MOL0     C87517   7.027   7.860   0.723  0.5571 -0.8792  0.5814
  649MOL0     C87518   6.908   7.792   0.655  0.6272  0.4062 -1.0103
  649MOL0     C87519   6.908   7.643   0.668  0.2883  0.2555  0.0006
  649MOL0     C87520   6.796   7.578   0.587  0.3099  0.3712 -0.8321
  649MOL0     C87521   6.770   7.422   0.620 -0.0392 -0.2931  0.1835
  649MOL0     C87522   6.628   7.385   0.562 -0.5284  0.1420  0.8650
  649MOL0     C87523   6.622   7.379   0.413 -0.3280  0.2400  0.3626
  649MOL0     C87524   6.499   7.427   0.343 -0.1937  0.1599 -0.2572
  649MOL0    Cl87525   6.490   7.601   0.319 -0.1722  0.3145 -0.4242
  649MOL0     C87526   7.023   7.944   1.084  0.4014 -1.1133 -0.0469
  649MOL0     C87527   7.057   8.040   1.183  0.0248 -1.0793  0.1618
  649MOL0     O87528   7.374   8.177   1.270 -0.8973  0.0668  0.4932
  649MOL0     C87529   7.182   8.456   1.427  0.1931  1.0812  0.2612
  649MOL0     C87530   7.187   8.566   1.510  0.3135 -0.1296  0.0482
  649MOL0     N87531   7.646   9.210   1.670  0.3699 -0.4315  0.6831
  649MOL0     N87532   7.766   9.206   1.708 -0.4843  0.2147 -0.4153
  649MOL0     C87533   8.702   9.050   2.141 -0.3590 -0.2916 -1.2675
  649MOL0     C87534   8.812   9.129   2.173 -0.1278 -0.2079  0.3696
  649MOL0     C87535   9.018   9.544   2.252 -0.2238  1.3091  0.0441
  649MOL0     C87536   9.036   9.668   2.316 -0.3816  0.8738  0.4408
  649MOL0     C87537   9.160   9.736   2.317  0.6170  0.1601  0.3410
  649MOL0     C87538   9.276   9.684   2.250  0.9499 -0.1739 -0.4295
  649MOL0     O87539   9.403   9.723   2.263  0.4168 -0.3735 -0.0915
  649MOL0     C87540   9.444   9.834   2.351 -0.1119  1.0695  0.3902
  649MOL0     C87541   9.601   9.836   2.368 -0.2645 -0.1311  0.1296
  649MOL0     C87542   9.622   9.984   2.411  0.0186  0.1075  0.7991
  649MOL0     C87543   9.778  10.021   2.411  0.4976  0.3040 -0.7672
  649MOL0     C87544   9.874   9.967   2.308  0.3909  0.2112 -0.0351
  649MOL0     C87545   9.961   9.933   2.235  0.4879 -0.6659 -0.2502
  649MOL0     C87546   9.257   9.565   2.187 -0.5040  0.3204 -0.5844
  649MOL0     C87547   9.136   9.493   2.194  0.3750  0.9720  0.7184
  649MOL0     H87548   8.659   9.428   2.127  0.2089  0.3425 -1.6571
  649MOL0     H87549   8.483   9.279   2.052 -0.8832 -2.3971 -0.9342
  649MOL0     H87550   8.510   8.833   2.019 -0.7924 -3.6314  2.6855
  649MOL0     H87551   8.503   8.847   2.180  1.1003  0.7567  0.2667
  649MOL0     H87552   8.270   8.901   2.002  1.6977 -0.6343 -1.0998
  649MOL0     H87553   8.285   8.747   2.092  0.0601  0.4029  0.6965
  649MOL0     H87554   8.257   8.868   2.313 -3.5813 -1.1374  1.0571
  649MOL0     H87555   8.227   9.013   2.215  2.0150 -0.5892  3.1105
  649MOL0     H87556   8.071   8.743   2.219 -1.7999  0.0727  1.3075
  649MOL0     H87557   8.026   8.898   2.296  1.2948  0.8190  1.0087
  649MOL0     H87558   8.030   8.863   1.992  1.2902  1.1646  0.5776
  649MOL0     H87559   7.885   8.858   2.109 -0.4719  1.8657 -0.0965
  649MOL0     H87560   7.944   9.086   2.175  0.5104 -0.1322  0.0981
  649MOL0     H87561   8.082   9.091   2.072  2.2155 -1.5260  3.6879
  649MOL0     H87562   7.777   9.056   2.024 -0.4909  2.2244 -0.1664
  649MOL0     H87563   7.872   9.193   1.992 -1.9010  0.3197  0.8294
  649MOL0     H87564   7.950   8.955   1.837  2.6875  0.3144  0.9716
  649MOL0     H87565   7.983   9.123   1.801 -0.6515  0.3286  0.6012
  649MOL0     H87566   7.646   8.921   1.813 -0.5669  1.6777  3.0002
  649MOL0     H87567   7.414   8.986   1.764 -0.6861 -0.8809 -1.3211
  649MOL0     H87568   7.370   9.140   1.696  1.5472  0.6074  1.2314
  649MOL0     H87569   7.462   8.914   1.512  1.7583  1.1827 -0.8490
  649MOL0     H87570   7.408   9.069   1.460 -0.3413 -0.2076 -1.2814
  649MOL0     H87571   7.212   8.897   1.437  2.6561 -2.5449  0.1987
  649MOL0     H87572   7.168   9.011   1.564 -0.8834 -1.9542  0.0266
  649MOL0     H87573   7.143   8.789   1.646 -0.1149  0.3211 -0.3054
  649MOL0     H87574   7.259   8.872   1.740 -2.0903  0.1570  0.4210
  649MOL0     H87575   7.525   8.588   1.527 -0.7561  3.0391 -0.7802
  649MOL0     H87576   7.643   8.429   1.401  0.4177 -0.8348  0.1404
  649MOL0     H87577   7.573   8.284   1.440  1.6837  2.8257  3.0832
  649MOL0     H87578   7.554   8.361   1.267  0.7206  4.1498 -1.3729
  649MOL0     H87579   7.245   8.231   0.966  2.1452  0.4830  2.2085
  649MOL0     H87580   7.162   8.068   0.807 -1.3540  3.9466  0.2400
  649MOL0     H87581   7.016   7.966   0.698  0.6117 -1.3154 -1.4164
  649MOL0     H87582   7.122   7.825   0.684  2.2415  2.9773  0.7498
  649MOL0     H87583   6.818   7.818   0.711  1.0116 -2.7109  1.3373
  649MOL0     H87584   6.916   7.811   0.548  0.1044 -1.6217 -1.4405
  649MOL0     H87585   6.899   7.609   0.772  1.9253 -0.5394 -0.0826
  649MOL0     H87586   6.998   7.591   0.636 -0.4213 -1.6018  0.8794
  649MOL0     H87587   6.707   7.642   0.582 -0.2595 -0.4960 -3.6130
  649MOL0     H87588   6.831   7.585   0.484  1.8395  1.4070 -0.2713
  649MOL0     H87589   6.786   7.394   0.724  1.3915 -1.3915 -0.2960
  649MOL0     H87590   6.849   7.377   0.559  0.7310  2.7725 -1.3063
  649MOL0     H87591   6.603   7.288   0.606 -0.6887  0.8511  2.4072
  649MOL0     H87592   6.558   7.457   0.606  0.5089  1.7189  0.0403
  649MOL0     H87593   6.636   7.275   0.382  4.4508  0.5502  0.8099
  649MOL0     H87594   6.718   7.415   0.376  1.1083 -2.1360  1.5620
  649MOL0     H87595   6.410   7.398   0.399  0.4682 -2.1157 -0.3109
  649MOL0     H87596   6.496   7.369   0.251  1.2107  0.5010 -0.5349
  649MOL0     H87597   6.949   7.869   1.109 -0.4375 -0.1765  0.3399
  649MOL0     H87598   7.017   8.031   1.284  2.2263 -1.9672  1.0215
  649MOL0     H87599   7.085   8.430   1.387  0.3821  1.0958 -0.2127
  649MOL0     H87600   7.103   8.605   1.566  0.2642 -1.6398  1.0882
  649MOL0     H87601   8.716   8.943   2.145  0.6255 -0.1372  0.2649
  649MOL0     H87602   8.901   9.084   2.216 -0.7638 -0.3390  1.5837
  649MOL0     H87603   8.950   9.702   2.373 -0.6627  1.2874 -0.2122
  649MOL0     H87604   9.158   9.825   2.379 -0.2332  1.0273 -0.9070
  649MOL0     H87605   9.425   9.923   2.291  1.3542  0.6549 -0.7571
  649MOL0     H87606   9.378   9.840   2.438 -0.0449  0.4213  0.4908
  649MOL0     H87607   9.654   9.814   2.275 -1.0466 -2.1842  0.1142
  649MOL0     H87608   9.630   9.759   2.439  2.7699 -0.4298 -1.3018
  649MOL0     H87609   9.591  10.013   2.512  1.4752  5.6543  0.0007
  649MOL0     H87610   9.576  10.059   2.346  3.4313  0.0732 -1.9655
  649MOL0     H87611   9.813   9.980   2.506 -1.5548 -3.1391 -1.3203
  649MOL0     H87612   9.792  10.129   2.405  4.0052 -0.0344 -0.5052
  649MOL0     H87613  10.040   9.888   2.178  0.1948 -1.0447 -0.3676
  649MOL0     H87614   9.344   9.508   2.154  0.9197  1.5995  0.8453
  649MOL0     H87615   9.139   9.392   2.155 -2.5379  0.7523  0.8052
  650MOL0     O87616   2.129   6.253   0.631  0.0246 -0.1558 -0.5004
  650MOL0     C87617   2.058   6.193   0.716 -0.1220 -0.1922  0.5526
  650MOL0     O87618   2.106   6.088   0.799  0.4267  0.1416  0.5970
  650MOL0     C87619   2.235   6.026   0.793  1.3225  0.4547  0.2747
  650MOL0     C87620   2.272   5.955   0.901  1.6221 -0.0146  0.1458
  650MOL0     C87621   2.397   5.901   0.916 -0.4786 -0.6461 -0.3463
  650MOL0     C87622   2.494   5.902   0.816 -0.7616  0.8992  0.1808
  650MOL0     O87623   2.620   5.833   0.816  0.0101 -0.2797 -0.1813
  650MOL0     C87624   2.652   5.741   0.925  0.6880 -0.5236  0.5340
  650MOL0     C87625   2.763   5.647   0.867  0.4037  1.3404  0.0816
  650MOL0     C87626   2.700   5.562   0.747 -1.2056  0.1447 -0.3184
  650MOL0     C87627   2.567   5.495   0.760 -0.3236  0.2848  0.6926
  650MOL0     C87628   2.534   5.403   0.641  0.3830 -0.5439  0.0334
  650MOL0     C87629   2.620   5.274   0.644 -0.7167 -0.2879 -0.0859
  650MOL0     C87630   2.597   5.195   0.514  0.4869  0.1219  0.0397
  650MOL0     C87631   2.665   5.060   0.511  0.2941 -0.2782 -0.1572
  650MOL0     N87632   2.634   4.999   0.378  0.5923 -0.0836  0.1223
  650MOL0     C87633   2.539   4.899   0.362 -0.9185 -0.7010  0.1738
  650MOL0     C87634   2.547   4.870   0.232  0.2541  0.2134  1.1250
  650MOL0     C87635   2.448   4.781   0.155  0.1184 -0.3770 -0.1679
  650MOL0     C87636   2.513   4.664   0.078  0.1830  0.2415  0.1714
  650MOL0     C87637   2.392   4.581   0.002 -0.3570  0.0389  0.7421
  650MOL0     C87638   2.324   4.651  -0.107 -0.0515 -0.4811 -0.2305
  650MOL0     O87639   2.209   4.711  -0.049  0.6068 -0.0172 -0.3973
  650MOL0     C87640   2.107   4.761  -0.129  0.4454 -0.2895  0.3227
  650MOL0     C87641   2.003   4.840  -0.066 -0.6128  1.5267 -0.0665
  650MOL0     C87642   1.900   4.897  -0.140 -0.2639 -0.2643 -0.0184
  650MOL0     C87643   1.792   4.963  -0.058 -0.0763 -0.0567 -0.0506
  650MOL0     C87644   1.892   4.866  -0.278  0.8522  0.0879  0.3146
  650MOL0     C87645   1.780   4.918  -0.362  0.1580  0.2631  0.2856
  650MOL0     O87646   1.730   5.036  -0.340  0.1643  0.4532 -0.2122
  650MOL0     C87647   1.620   5.085  -0.412  0.7148  0.8167 -0.5676
  650MOL0     C87648   1.613   5.220  -0.437 -0.0716  0.5519 -0.9946
  650MOL0     C87649   1.511   5.273  -0.511  1.4786  0.3824  0.4472
  650MOL0     C87650   1.414   5.188  -0.566 -0.6833  0.4655 -0.3681
  650MOL0     O87651   1.319   5.252  -0.638  0.1412  0.1703 -0.3948
  650MOL0     C87652   1.251   5.187  -0.745 -0.0735 -0.0415  0.1463
  650MOL0     C87653   1.223   5.281  -0.865  0.6106  1.0120  0.3192
  650MOL0     C87654   1.345   5.364  -0.914 -0.0510  0.1774 -1.2184
  650MOL0     C87655   1.439   5.299  -1.009 -0.4043 -0.0757  0.2469
  650MOL0     C87656   1.552   5.402  -1.046  0.2056  0.6230  0.3754
  650MOL0     C87657   1.656   5.337  -1.129 -0.4903  0.4164  0.1642
  650MOL0     C87658   1.760   5.250  -1.051 -0.5655  0.0741 -0.2500
  650MOL0     C87659   1.874   5.211  -1.135  0.0773  0.5114 -0.6360
  650MOL0    Cl87660   1.805   5.147  -1.295 -0.0699 -0.6812  0.0002
  650MOL0     C87661   1.426   5.056  -0.549  0.2543 -0.3160  0.0041
  650MOL0     C87662   1.527   5.000  -0.461 -0.2099 -0.0533  0.2970
  650MOL0     O87663   1.739   4.835  -0.451 -0.5066  0.4708 -0.0197
  650MOL0     C87664   1.984   4.779  -0.337 -0.8673 -0.3741 -0.2069
  650MOL0     C87665   2.087   4.727  -0.264  0.6459  0.7432 -0.2054
  650MOL0     N87666   2.635   4.949   0.176  0.0719 -0.3953  1.2166
  650MOL0     N87667   2.696   5.031   0.262 -0.4151 -0.4205 -0.1795
  650MOL0     C87668   2.454   5.966   0.699 -0.0664  0.3530 -0.6768
  650MOL0     C87669   2.332   6.039   0.686 -0.4164 -1.3210 -0.3778
  650MOL0     C87670   1.918   6.219   0.731 -0.0434  0.0004  0.3612
  650MOL0     C87671   1.854   6.317   0.666  0.0225 -0.0583  0.4805
  650MOL0     C87672   1.714   6.346   0.691 -0.9332 -0.4011 -0.6047
  650MOL0     C87673   1.638   6.274   0.776  0.3742 -0.5565  0.3233
  650MOL0     O87674   1.503   6.297   0.811  0.1405  0.6618  0.7924
  650MOL0     C87675   1.423   6.391   0.742 -0.9366 -0.6005 -0.6210
  650MOL0     C87676   1.389   6.352   0.595  0.5214 -0.8975  0.1392
  650MOL0     C87677   1.347   6.213   0.564 -0.8912  0.3291 -0.3437
  650MOL0     C87678   1.344   6.195   0.406  0.7094 -0.4607  0.4592
  650MOL0     C87679   1.205   6.208   0.350  0.0764 -1.4617 -0.0253
  650MOL0     C87680   1.093   6.239   0.312  0.4364 -0.0037 -0.1332
  650MOL0     C87681   1.711   6.176   0.850 -0.3014 -0.0194  0.0840
  650MOL0     C87682   1.850   6.150   0.835 -0.5639 -0.9358  0.4089
  650MOL0     H87683   2.203   5.936   0.983  0.7425  1.2504 -0.2594
  650MOL0     H87684   2.426   5.853   1.010  4.8557 -1.5075 -2.1072
  650MOL0     H87685   2.692   5.800   1.007 -0.3073  1.6306 -0.4718
  650MOL0     H87686   2.575   5.674   0.963 -2.6701  0.7279 -3.3360
  650MOL0     H87687   2.842   5.700   0.814 -0.6409  0.7915 -2.1525
  650MOL0     H87688   2.818   5.582   0.936 -0.0864  1.8220  0.9603
  650MOL0     H87689   2.706   5.622   0.655  4.0904  1.1014  0.3087
  650MOL0     H87690   2.777   5.485   0.733 -0.2792  1.1476 -0.8748
  650MOL0     H87691   2.554   5.448   0.858 -3.2887  0.5932  0.5571
  650MOL0     H87692   2.496   5.579   0.759  0.2776  1.0444 -4.3467
  650MOL0     H87693   2.428   5.378   0.640  0.8140 -2.5871 -0.3073
  650MOL0     H87694   2.554   5.454   0.546 -1.8587 -0.4976 -0.4662
  650MOL0     H87695   2.726   5.301   0.653 -1.4017  2.0321  2.1515
  650MOL0     H87696   2.600   5.222   0.739  1.2596  3.5819  2.7303
  650MOL0     H87697   2.488   5.187   0.506  0.3488  2.8630 -2.0795
  650MOL0     H87698   2.628   5.244   0.422  0.9759 -2.2122 -1.1265
  650MOL0     H87699   2.619   4.992   0.583 -0.4628  0.1367 -0.2394
  650MOL0     H87700   2.773   5.068   0.524  0.1755  1.0827  0.1276
  650MOL0     H87701   2.475   4.864   0.442 -1.7574  4.9711  2.4722
  650MOL0     H87702   2.378   4.741   0.229  1.2663 -2.5001 -0.1273
  650MOL0     H87703   2.382   4.839   0.090 -0.4683 -1.8296 -0.9193
  650MOL0     H87704   2.558   4.589   0.142  0.1269  1.3602  1.5700
  650MOL0     H87705   2.588   4.703   0.009  0.0992  0.8745  0.4345
  650MOL0     H87706   2.322   4.545   0.078 -1.4301  0.1307 -0.1721
  650MOL0     H87707   2.431   4.494  -0.051 -2.5768 -1.2046  1.0079
  650MOL0     H87708   2.295   4.584  -0.188 -0.2649 -0.8776  0.1704
  650MOL0     H87709   2.396   4.727  -0.139 -0.0740  0.9495  2.8059
  650MOL0     H87710   2.009   4.845   0.042  0.5418 -2.3767  0.2041
  650MOL0     H87711   1.695   4.917  -0.077 -0.1173 -1.0075  2.1631
  650MOL0     H87712   1.816   4.957   0.049 -1.7173  0.6933  0.3912
  650MOL0     H87713   1.788   5.068  -0.088 -0.6942  0.5737  2.0327
  650MOL0     H87714   1.693   5.278  -0.393 -0.0127 -0.8732  0.9409
  650MOL0     H87715   1.494   5.379  -0.524 -0.1425  0.7161  4.1326
  650MOL0     H87716   1.311   5.101  -0.777 -0.9924 -1.3776  1.8040
  650MOL0     H87717   1.157   5.152  -0.702  0.1652  0.6882  1.3192
  650MOL0     H87718   1.178   5.225  -0.948 -0.1188 -0.0587  1.4069
  650MOL0     H87719   1.138   5.344  -0.834 -1.8498 -1.3996 -1.0958
  650MOL0     H87720   1.399   5.385  -0.821 -1.8529  2.4979 -0.5837
  650MOL0     H87721   1.309   5.454  -0.966  0.3831  0.1062 -1.6506
  650MOL0     H87722   1.491   5.218  -0.958 -0.6439 -0.0609  0.5132
  650MOL0     H87723   1.390   5.253  -1.096  0.0928 -1.5722  0.7299
  650MOL0     H87724   1.588   5.444  -0.952 -2.1762  0.5745  1.3772
  650MOL0     H87725   1.500   5.473  -1.110 -4.3990 -2.0881  0.5946
  650MOL0     H87726   1.620   5.275  -1.211  0.2223  5.4490 -4.5173
  650MOL0     H87727   1.704   5.420  -1.182  0.3129  0.8197  1.4621
  650MOL0     H87728   1.714   5.157  -1.016  1.4213 -1.6701 -1.9431
  650MOL0     H87729   1.800   5.311  -0.969  1.5510 -2.1383  0.5097
  650MOL0     H87730   1.938   5.130  -1.098 -1.6913 -1.5071 -1.7319
  650MOL0     H87731   1.935   5.299  -1.157  1.3245  0.5119  2.3625
  650MOL0     H87732   1.350   4.982  -0.572 -1.8383  1.1695  1.8174
  650MOL0     H87733   1.518   4.896  -0.431  2.3765 -0.4830 -0.1664
  650MOL0     H87734   1.979   4.747  -0.441 -1.8471 -2.7408  0.5061
  650MOL0     H87735   2.153   4.653  -0.308 -0.5140  0.8192 -2.2471
  650MOL0     H87736   2.532   5.972   0.624  2.9353 -1.5632  2.0521
  650MOL0     H87737   2.313   6.095   0.595  1.7251  1.9031  0.9677
  650MOL0     H87738   1.905   6.386   0.600  0.9458 -1.0667  0.1142
  650MOL0     H87739   1.680   6.435   0.638  2.9221  0.8810 -1.2093
  650MOL0     H87740   1.335   6.402   0.806 -1.2692 -1.7197 -0.8654
  650MOL0     H87741   1.476   6.487   0.742 -1.3428 -0.3532  1.0146
  650MOL0     H87742   1.470   6.388   0.531  1.1455 -1.1604  0.7655
  650MOL0     H87743   1.315   6.425   0.559  1.7814 -0.3009 -1.3960
  650MOL0     H87744   1.256   6.188   0.619  0.6344 -2.4377  1.1893
  650MOL0     H87745   1.431   6.156   0.606  1.1382  2.6766 -0.9289
  650MOL0     H87746   1.364   6.090   0.379 -2.3937 -0.9032 -0.4568
  650MOL0     H87747   1.408   6.263   0.350 -0.5835  0.6695  0.3229
  650MOL0     H87748   0.995   6.269   0.282 -0.1296  0.5239  2.0649
  650MOL0     H87749   1.655   6.122   0.926  1.0170 -2.9156 -0.8491
  650MOL0     H87750   1.891   6.068   0.893 -0.7387 -3.8939 -3.2404
  651MOL0     O87751   8.651   0.665   8.905  0.2954 -0.4480 -0.3206
  651MOL0     C87752   8.621   0.577   8.990  0.0524 -0.6469  0.4832
  651MOL0     O87753   8.702   0.538   9.089  1.3182 -0.4133 -1.3103
  651MOL0     C87754   8.826   0.583   9.083 -0.3083  0.8226 -0.0891
  651MOL0     C87755   8.928   0.492   9.050 -0.0741  0.2062 -0.9721
  651MOL0     C87756   9.062   0.532   9.047  0.0979 -0.7335 -0.4811
  651MOL0     C87757   9.099   0.654   9.089 -0.1332  0.6486 -0.6621
  651MOL0     O87758   9.230   0.690   9.098  0.6966  0.6831  0.7637
  651MOL0     C87759   9.328   0.612   9.161 -0.3906 -0.2114 -0.0217
  651MOL0     C87760   9.469   0.677   9.143 -0.3037  0.2528  0.4466
  651MOL0     C87761   9.506   0.674   8.995 -0.2308 -0.6868  0.1347
  651MOL0     C87762   9.570   0.536   8.940 -1.1991  0.3243  0.2856
  651MOL0     C87763   9.604   0.539   8.789 -0.3879  0.1682  1.0257
  651MOL0     C87764   9.642   0.398   8.727  0.6657  0.5210  0.5528
  651MOL0     C87765   9.688   0.410   8.573 -1.0609  0.1711 -0.3273
  651MOL0     C87766   9.740   0.275   8.523 -0.2587 -0.3140  0.3521
  651MOL0     N87767   9.810   0.284   8.389 -0.5558 -0.3678 -0.9456
  651MOL0     C87768   9.747   0.314   8.279 -0.6592 -0.8539 -1.1329
  651MOL0     C87769   9.844   0.308   8.182  0.5068 -0.1661  0.4615
  651MOL0     C87770   9.829   0.328   8.030  0.3431  0.2743  0.8091
  651MOL0     C87771   9.687   0.330   7.982  0.2071 -0.2693  0.0911
  651MOL0     C87772   9.624   0.187   7.977  0.3195  0.1648 -0.1845
  651MOL0     C87773   9.487   0.194   7.917 -0.3103  0.1602  0.5125
  651MOL0     O87774   9.400   0.290   7.978 -0.2695 -0.7176  0.2534
  651MOL0     C87775   9.272   0.281   7.938  1.0774  0.8294  0.1067
  651MOL0     C87776   9.183   0.378   7.972  1.8369  0.9627  0.2473
  651MOL0     C87777   9.052   0.393   7.917 -0.7453 -0.2199 -1.1297
  651MOL0     C87778   8.983   0.513   7.984  0.1542  0.2667  1.2633
  651MOL0     C87779   9.007   0.302   7.826 -0.4483 -0.3365 -0.6822
  651MOL0     C87780   8.871   0.313   7.766  0.4505 -0.2852 -0.9565
  651MOL0     O87781   8.828   0.212   7.691 -0.4154  1.2029  0.5163
  651MOL0     C87782   8.695   0.223   7.644 -0.0575  0.1746  0.0565
  651MOL0     C87783   8.608   0.121   7.672 -0.1642 -1.1565 -0.2486
  651MOL0     C87784   8.472   0.122   7.643  1.2981 -0.1462 -0.0661
  651MOL0     C87785   8.424   0.229   7.560 -0.3650  0.6384  0.5408
  651MOL0     O87786   8.301   0.241   7.523  0.0053 -0.0623  0.2629
  651MOL0     C87787   8.196   0.189   7.599 -0.5652  0.5362  0.6588
  651MOL0     C87788   8.070   0.266   7.580 -0.4517  0.6314  0.1653
  651MOL0     C87789   7.950   0.224   7.676 -0.6203 -0.6470 -0.7008
  651MOL0     C87790   7.805   0.281   7.631 -0.0995  0.2606 -0.3617
  651MOL0     C87791   7.695   0.289   7.745 -0.0986  0.1093 -0.1454
  651MOL0     C87792   7.644   0.145   7.783 -0.0978  0.0963 -1.1688
  651MOL0     C87793   7.527   0.155   7.892  0.3175  0.1646 -0.3963
  651MOL0     C87794   7.559   0.215   8.028  0.1908 -0.2661  0.4776
  651MOL0    Cl87795   7.712   0.166   8.092 -0.1655 -0.3828  0.0224
  651MOL0     C87796   8.511   0.327   7.519 -0.2013 -0.4887 -0.9926
  651MOL0     C87797   8.644   0.327   7.566 -0.0449 -0.1540  0.2577
  651MOL0     O87798   8.798   0.407   7.797  0.1195  0.0370  0.3737
  651MOL0     C87799   9.094   0.199   7.788  0.9681 -1.3602 -0.4035
  651MOL0     C87800   9.216   0.190   7.841 -0.2175  0.3500  0.1638
  651MOL0     N87801   9.952   0.269   8.249  0.4958  0.0881  0.0889
  651MOL0     N87802   9.940   0.257   8.367 -0.0646  0.4961 -1.1885
  651MOL0     C87803   9.004   0.745   9.130 -0.7667 -1.2097  0.1039
  651MOL0     C87804   8.866   0.712   9.127 -0.6275 -0.4721  0.1925
  651MOL0     C87805   8.486   0.520   8.998  0.3787  0.3602 -0.8469
  651MOL0     C87806   8.387   0.564   8.909 -0.0369  0.0478 -0.8872
  651MOL0     C87807   8.259   0.522   8.915  1.0725 -0.2105 -1.1147
  651MOL0     C87808   8.210   0.440   9.022  0.5664  0.0052 -0.2682
  651MOL0     O87809   8.070   0.398   9.025  0.0740  0.9264  0.3635
  651MOL0     C87810   7.989   0.417   8.908  0.2842 -0.1987 -0.2941
  651MOL0     C87811   7.869   0.322   8.900  0.0401 -0.1678  0.1123
  651MOL0     C87812   7.924   0.193   8.843 -0.2374 -0.1625  0.1501
  651MOL0     C87813   7.829   0.130   8.744  0.7105  0.4445 -0.6697
  651MOL0     C87814   7.712   0.073   8.815 -1.5616 -0.2587 -0.3961
  651MOL0     C87815   7.614   0.043   8.881 -0.0010  0.7287 -0.3869
  651MOL0     C87816   8.308   0.389   9.114 -0.1442  0.0509  0.8313
  651MOL0     C87817   8.441   0.433   9.106 -0.9050 -0.6572  1.1980
  651MOL0     H87818   8.897   0.396   9.010  1.0726  0.1597 -1.8012
  651MOL0     H87819   9.131   0.454   9.015 -0.7012 -2.0958  0.9950
  651MOL0     H87820   9.310   0.592   9.267 -1.2547 -0.8470 -0.2795
  651MOL0     H87821   9.330   0.511   9.120  1.1012 -0.2705  0.1401
  651MOL0     H87822   9.451   0.783   9.166 -2.2133 -0.4216  2.4755
  651MOL0     H87823   9.541   0.648   9.220  0.4395  2.3934  0.6379
  651MOL0     H87824   9.424   0.712   8.933 -0.7917  0.0186  1.2860
  651MOL0     H87825   9.580   0.754   8.984 -0.5792 -0.6227 -2.6287
  651MOL0     H87826   9.656   0.520   9.005 -1.3237  0.8225  0.5733
  651MOL0     H87827   9.503   0.452   8.956 -0.8941  0.4620  2.4988
  651MOL0     H87828   9.522   0.569   8.723 -0.2246 -1.2028  0.1676
  651MOL0     H87829   9.686   0.611   8.778 -2.3244  2.3560  0.0809
  651MOL0     H87830   9.726   0.352   8.779 -0.9216 -3.1902  0.1971
  651MOL0     H87831   9.557   0.329   8.736  1.0426 -0.4514 -2.3620
  651MOL0     H87832   9.614   0.450   8.503 -2.1746 -2.1648 -0.6042
  651MOL0     H87833   9.766   0.486   8.578  1.9675 -2.7321 -0.0812
  651MOL0     H87834   9.655   0.206   8.527 -1.0235  0.6077  0.2984
  651MOL0     H87835   9.819   0.241   8.591  0.0714 -0.0667  0.0994
  651MOL0     H87836   9.646   0.349   8.264  0.0455  3.0015  1.6554
  651MOL0     H87837   9.876   0.419   7.993 -0.6707  0.3946 -0.2612
  651MOL0     H87838   9.872   0.237   7.988  0.7256  1.7295 -2.1799
  651MOL0     H87839   9.682   0.384   7.887 -2.9924  3.1387  1.9298
  651MOL0     H87840   9.627   0.384   8.055 -2.0656  0.4718 -2.1915
  651MOL0     H87841   9.627   0.146   8.078  3.0771 -0.8267 -0.5751
  651MOL0     H87842   9.677   0.115   7.914 -1.8357  0.5339 -2.5778
  651MOL0     H87843   9.451   0.092   7.937  2.6130 -0.8882  0.9499
  651MOL0     H87844   9.491   0.211   7.809  1.5733  2.2576  0.8390
  651MOL0     H87845   9.224   0.448   8.045 -1.5199 -0.6152  4.0237
  651MOL0     H87846   9.013   0.607   7.938 -1.4417  1.3349  2.2852
  651MOL0     H87847   8.875   0.508   7.968  0.4503 -2.8792 -0.5851
  651MOL0     H87848   8.987   0.523   8.093  0.6755 -3.7089  1.7804
  651MOL0     H87849   8.650   0.040   7.731 -0.6073 -0.6852  0.7314
  651MOL0     H87850   8.416   0.030   7.655  2.8569 -1.3099 -1.3557
  651MOL0     H87851   8.181   0.083   7.576 -1.1736  1.0957 -1.8001
  651MOL0     H87852   8.228   0.195   7.703  2.1421  0.3311 -0.1032
  651MOL0     H87853   8.093   0.371   7.597  0.0511  1.4165 -4.2392
  651MOL0     H87854   8.050   0.250   7.473 -0.5080 -0.3217  0.3054
  651MOL0     H87855   7.967   0.258   7.779 -1.3177 -0.7549 -0.5429
  651MOL0     H87856   7.943   0.115   7.677  0.6481 -0.7641 -1.7672
  651MOL0     H87857   7.819   0.384   7.598 -2.8271  0.6907 -0.4173
  651MOL0     H87858   7.769   0.220   7.548 -0.4479 -3.6557  2.4003
  651MOL0     H87859   7.612   0.348   7.704 -0.2467  1.0311  1.4052
  651MOL0     H87860   7.730   0.345   7.833  2.1664 -1.1932 -0.1400
  651MOL0     H87861   7.611   0.103   7.688 -2.2472  0.1246 -0.5094
  651MOL0     H87862   7.728   0.083   7.816 -0.8964  0.1946  1.2794
  651MOL0     H87863   7.485   0.054   7.900 -1.2817  0.9372  1.8762
  651MOL0     H87864   7.451   0.217   7.845  0.1211  0.8308  0.7712
  651MOL0     H87865   7.480   0.197   8.102 -0.5388 -0.3506 -0.3084
  651MOL0     H87866   7.571   0.321   8.007 -3.3604 -0.2682 -2.5628
  651MOL0     H87867   8.476   0.406   7.454  3.7048  1.6786 -0.7794
  651MOL0     H87868   8.707   0.409   7.530  0.0108 -0.3753 -0.1586
  651MOL0     H87869   9.054   0.134   7.710 -0.4241 -1.5595  0.4592
  651MOL0     H87870   9.260   0.103   7.794 -2.2046  0.5416 -2.2487
  651MOL0     H87871   9.032   0.844   9.167 -3.4931  1.7926 -4.7429
  651MOL0     H87872   8.807   0.797   9.160  1.4124  0.4295  1.6751
  651MOL0     H87873   8.426   0.635   8.836  0.5761  0.4533 -0.1903
  651MOL0     H87874   8.188   0.565   8.845 -0.1817  0.5685  0.5957
  651MOL0     H87875   7.964   0.522   8.926  3.2849  0.5242  0.2656
  651MOL0     H87876   8.049   0.403   8.817 -0.3234  0.1653 -0.7610
  651MOL0     H87877   7.791   0.371   8.841  1.2495  0.8627 -0.6785
  651MOL0     H87878   7.833   0.314   9.003  3.4294 -1.0054  1.3475
  651MOL0     H87879   7.933   0.130   8.932  2.8732  1.9930  1.5855
  651MOL0     H87880   8.028   0.206   8.810 -0.4818  2.8271  0.2931
  651MOL0     H87881   7.877   0.047   8.692 -0.2984 -2.2940  2.4591
  651MOL0     H87882   7.806   0.204   8.667  0.2119  0.6218 -0.3557
  651MOL0     H87883   7.526   0.018   8.937 -0.2003  0.9351 -0.6061
  651MOL0     H87884   8.289   0.329   9.202 -1.7918  2.8723  2.5644
  651MOL0     H87885   8.508   0.394   9.182  0.1008  0.0294  0.6845
  652MOL0     O87886  11.137  11.439   7.029  1.2553  0.1818 -0.0098
  652MOL0     C87887  11.036  11.495   6.987 -0.2732  0.1648 -0.3636
  652MOL0     O87888  11.037  11.593   6.889  0.2929  0.2281  0.4358
  652MOL0     C87889  11.159  11.630   6.838 -0.2652  0.5299  0.0268
  652MOL0     C87890  11.238  11.549   6.757  0.4116  0.8986 -0.8757
  652MOL0     C87891  11.368  11.589   6.711 -0.9804 -0.7663  0.5601
  652MOL0     C87892  11.421  11.713   6.753  1.3563  0.2544  0.0213
  652MOL0     O87893  11.557  11.740   6.731 -0.1441  0.1345 -0.0122
  652MOL0     C87894  11.572  11.837   6.628 -0.6843 -1.0766  0.9845
  652MOL0     C87895  11.654  11.772   6.516  0.3262  0.8950  0.8465
  652MOL0     C87896  11.796  11.745   6.551  0.2459 -0.5954  0.4477
  652MOL0     C87897  11.880  11.672   6.441  0.3802  0.5114  0.5981
  652MOL0     C87898  12.007  11.609   6.501  0.7089  0.4897  0.4549
  652MOL0     C87899  12.085  11.538   6.383  0.2836 -0.1955  0.1423
  652MOL0     C87900  12.205  11.457   6.419  0.1364 -0.7458 -0.1605
  652MOL0     C87901  12.300  11.522   6.525  0.4314 -1.1154 -0.1809
  652MOL0     N87902  12.439  11.489   6.495 -0.1007 -0.4644 -0.3265
  652MOL0     C87903  12.544  11.582   6.494  0.5870  0.0117  0.1225
  652MOL0     C87904  12.653  11.510   6.515  1.4504  0.3182  0.5794
  652MOL0     C87905  12.794  11.567   6.531 -0.8077  0.6863 -0.4005
  652MOL0     C87906  12.841  11.559   6.681  0.8424 -0.2014  0.8120
  652MOL0     C87907  12.981  11.610   6.690 -0.0453 -0.1943 -1.3765
  652MOL0     C87908  13.002  11.672   6.828 -1.0092 -0.3558 -0.8574
  652MOL0     O87909  12.917  11.621   6.938  0.6474  0.0293 -0.1868
  652MOL0     C87910  12.939  11.486   6.974 -0.9098 -0.3336 -0.0908
  652MOL0     C87911  13.054  11.409   6.942 -0.2682  0.5993  0.0913
  652MOL0     C87912  13.082  11.289   7.004 -0.1662 -0.5762  0.4762
  652MOL0     C87913  13.200  11.210   6.957 -0.4263  0.0411 -0.1062
  652MOL0     C87914  12.993  11.233   7.097 -0.2272 -0.6541 -0.4764
  652MOL0     C87915  12.998  11.093   7.157 -0.1383 -1.0904 -0.1723
  652MOL0     O87916  12.872  11.047   7.200  0.3610 -0.2168  0.1831
  652MOL0     C87917  12.844  10.933   7.272 -1.1271 -0.5977 -1.1469
  652MOL0     C87918  12.728  10.945   7.347 -0.1884 -0.1385 -0.2542
  652MOL0     C87919  12.694  10.854   7.444  0.5557 -0.4467  1.1671
  652MOL0     C87920  12.775  10.739   7.463 -0.7925 -0.5591 -1.3640
  652MOL0     O87921  12.761  10.647   7.558  0.7479  0.0221  0.0762
  652MOL0     C87922  12.632  10.630   7.613  0.6052  0.6131 -1.2787
  652MOL0     C87923  12.628  10.683   7.757 -0.0627 -0.5501  0.2219
  652MOL0     C87924  12.485  10.701   7.810  0.6584 -0.7403  0.3614
  652MOL0     C87925  12.472  10.686   7.963 -0.9718 -0.8241 -0.2713
  652MOL0     C87926  12.570  10.777   8.038 -1.5375 -0.3914 -1.3096
  652MOL0     C87927  12.560  10.929   8.018 -0.1615 -0.0633  0.0620
  652MOL0     C87928  12.628  11.018   8.127 -1.0711  0.2853  0.0601
  652MOL0     C87929  12.595  11.175   8.104  0.0148  0.4613  1.2167
  652MOL0    Cl87930  12.619  11.241   7.944  0.2832  0.1890 -0.3357
  652MOL0     C87931  12.887  10.719   7.381  0.4481 -0.3465 -0.4308
  652MOL0     C87932  12.926  10.818   7.289  1.2549  0.2165 -0.1857
  652MOL0     O87933  13.109  11.040   7.180  0.2005  0.0828  0.8897
  652MOL0     C87934  12.876  11.309   7.126 -0.2578  0.2402 -0.0707
  652MOL0     C87935  12.852  11.427   7.068  0.1470  0.4747  0.0183
  652MOL0     N87936  12.617  11.371   6.518 -0.0449  0.5085 -0.1548
  652MOL0     N87937  12.487  11.363   6.511  0.1493 -1.0298 -0.0526
  652MOL0     C87938  11.348  11.793   6.830  0.5636 -0.2162 -0.5263
  652MOL0     C87939  11.226  11.752   6.878 -0.7400  0.3351 -0.5817
  652MOL0     C87940  10.902  11.467   7.041 -0.3325  0.3013 -0.5586
  652MOL0     C87941  10.893  11.397   7.161 -0.9017  0.1479  1.0894
  652MOL0     C87942  10.771  11.400   7.230 -0.5015 -0.3188  0.6079
  652MOL0     C87943  10.656  11.463   7.182  0.5058 -0.5606  1.0606
  652MOL0     O87944  10.524  11.457   7.220 -0.2150  0.5141 -0.3036
  652MOL0     C87945  10.516  11.466   7.364 -0.8080 -0.2339 -0.8554
  652MOL0     C87946  10.377  11.476   7.420 -0.4344 -0.4573  0.7388
  652MOL0     C87947  10.283  11.352   7.382 -0.1001 -0.3760 -0.0517
  652MOL0     C87948  10.138  11.352   7.430 -0.3091 -0.2383 -0.5749
  652MOL0     C87949  10.039  11.432   7.349  0.5154  0.1613 -0.4867
  652MOL0     C87950   9.951  11.482   7.283 -0.3269 -0.5035  0.5136
  652MOL0     C87951  10.668  11.521   7.054 -0.0955 -0.3679  0.3279
  652MOL0     C87952  10.785  11.523   6.989 -0.1705  0.3119 -0.6331
  652MOL0     H87953  11.197  11.454   6.725  0.9378  0.8433 -1.4097
  652MOL0     H87954  11.437  11.534   6.646  0.7592  0.8472  0.9320
  652MOL0     H87955  11.478  11.877   6.591 -1.0278 -1.7370  1.1315
  652MOL0     H87956  11.627  11.924   6.666 -0.7435  0.7789 -2.7425
  652MOL0     H87957  11.625  11.667   6.502  3.5510  0.1413 -1.1331
  652MOL0     H87958  11.651  11.824   6.421  3.6544 -0.5525 -0.1915
  652MOL0     H87959  11.839  11.841   6.581 -1.3504 -0.0089  0.9582
  652MOL0     H87960  11.783  11.674   6.633  0.2149 -3.0170 -1.5393
  652MOL0     H87961  11.814  11.603   6.387 -1.3483  0.4994  2.5807
  652MOL0     H87962  11.910  11.741   6.362 -1.3904 -1.7485 -2.2537
  652MOL0     H87963  12.075  11.685   6.542  0.3000  1.5758 -0.7988
  652MOL0     H87964  11.969  11.539   6.576 -2.1219 -0.2130 -1.5138
  652MOL0     H87965  12.020  11.460   6.342  1.1200 -1.1032  0.5188
  652MOL0     H87966  12.106  11.618   6.312  0.0933  0.7969  1.1829
  652MOL0     H87967  12.173  11.363   6.465 -1.2314  1.1511  3.1281
  652MOL0     H87968  12.266  11.442   6.329  2.3881  2.8611  0.5779
  652MOL0     H87969  12.257  11.488   6.619  0.2649 -0.3557  0.0183
  652MOL0     H87970  12.288  11.630   6.530 -0.8626 -1.2940  0.9977
  652MOL0     H87971  12.543  11.690   6.483  0.6098  0.0902  0.8717
  652MOL0     H87972  12.850  11.499   6.466 -0.6225 -1.8048  2.1381
  652MOL0     H87973  12.787  11.667   6.489  0.5864  1.1018  0.2916
  652MOL0     H87974  12.825  11.455   6.711 -0.5038 -0.7217 -1.4847
  652MOL0     H87975  12.771  11.627   6.730 -0.5812  3.2886 -5.0825
  652MOL0     H87976  13.011  11.681   6.612  1.1624 -1.6875 -2.3551
  652MOL0     H87977  13.055  11.530   6.679  1.9551  1.6352 -1.8354
  652MOL0     H87978  12.989  11.780   6.817 -1.6877 -0.1438  1.3930
  652MOL0     H87979  13.106  11.649   6.856 -0.8055  1.0448 -0.3688
  652MOL0     H87980  13.121  11.442   6.863  0.1096 -0.7118 -0.1635
  652MOL0     H87981  13.255  11.269   6.883  0.7769 -1.4144 -0.4367
  652MOL0     H87982  13.273  11.196   7.036  0.5319  1.1047 -0.7706
  652MOL0     H87983  13.183  11.109   6.917  4.3478 -0.7490 -0.6838
  652MOL0     H87984  12.666  11.034   7.332  1.1144  0.7310 -0.6144
  652MOL0     H87985  12.610  10.889   7.503 -0.7419  2.6661 -2.1864
  652MOL0     H87986  12.558  10.695   7.567 -0.1565 -0.3913 -1.5164
  652MOL0     H87987  12.609  10.523   7.602 -1.0387  0.7387  0.5802
  652MOL0     H87988  12.683  10.606   7.813 -0.9153 -0.3016  1.4530
  652MOL0     H87989  12.676  10.777   7.785 -1.6613  0.4627 -0.3181
  652MOL0     H87990  12.420  10.628   7.761  0.5506 -0.8715  0.6997
  652MOL0     H87991  12.449  10.800   7.777 -1.2132 -1.4750  0.0466
  652MOL0     H87992  12.372  10.722   7.988 -0.7909  2.3113 -3.2594
  652MOL0     H87993  12.485  10.583   7.996 -4.1696 -0.6341  2.0102
  652MOL0     H87994  12.671  10.740   8.023 -1.0030  0.0641  0.8410
  652MOL0     H87995  12.550  10.771   8.145  1.3083 -2.5383 -0.7978
  652MOL0     H87996  12.600  10.957   7.921  1.8835 -1.2695  0.4890
  652MOL0     H87997  12.453  10.950   8.016 -0.3760 -0.2487  3.5291
  652MOL0     H87998  12.737  11.018   8.125 -0.9579  0.5147  2.5002
  652MOL0     H87999  12.602  10.986   8.229  2.1795 -0.2022  0.8633
  652MOL0     H88000  12.653  11.237   8.173  2.6757 -0.2431 -0.2359
  652MOL0     H88001  12.488  11.187   8.119 -0.9824 -2.2530 -2.3317
  652MOL0     H88002  12.954  10.634   7.391 -2.2265 -2.9186 -2.5563
  652MOL0     H88003  13.023  10.820   7.239  0.3670 -0.9111 -2.0472
  652MOL0     H88004  12.810  11.279   7.206 -1.5581  2.1689 -0.3568
  652MOL0     H88005  12.762  11.484   7.090 -0.0769  1.2515 -2.5962
  652MOL0     H88006  11.393  11.883   6.868 -0.6382  0.2111 -0.0781
  652MOL0     H88007  11.164  11.820   6.935 -0.3598 -0.1868  0.4752
  652MOL0     H88008  10.978  11.338   7.196 -0.7024  0.8953  1.9072
  652MOL0     H88009  10.773  11.346   7.324 -2.3313  1.4971  1.7912
  652MOL0     H88010  10.577  11.393   7.419  2.7313 -0.5205 -4.7108
  652MOL0     H88011  10.561  11.560   7.394 -4.7276  1.8589 -0.8089
  652MOL0     H88012  10.332  11.564   7.373  1.3333 -0.4465 -1.0636
  652MOL0     H88013  10.393  11.497   7.526 -0.0596 -1.4083  0.8898
  652MOL0     H88014  10.333  11.267   7.428  1.5432  1.0917  0.9524
  652MOL0     H88015  10.276  11.339   7.273  0.2059  2.4563 -0.4681
  652MOL0     H88016  10.137  11.374   7.537 -1.5488 -2.0996 -0.1435
  652MOL0     H88017  10.102  11.249   7.439 -3.8476  0.9451  0.5431
  652MOL0     H88018   9.879  11.532   7.223  2.7881 -0.2235 -3.3751
  652MOL0     H88019  10.579  11.570   7.017  0.1623  0.8536  1.2780
  652MOL0     H88020  10.775  11.572   6.893 -1.2532 -0.7682 -1.0899
  653MOL0     O88021   2.150  11.485   7.666  0.2134 -0.9525 -0.8258
  653MOL0     C88022   2.162  11.389   7.744  0.7879 -0.9415 -1.0599
  653MOL0     O88023   2.151  11.253   7.726  0.6208  0.2317  0.6880
  653MOL0     C88024   2.121  11.214   7.594  0.2950  0.1504 -0.6019
  653MOL0     C88025   2.214  11.120   7.547 -0.3812  0.4699 -0.3202
  653MOL0     C88026   2.210  11.081   7.417  0.1874  0.8572  0.4218
  653MOL0     C88027   2.107  11.123   7.328  0.1797  0.4908 -0.5910
  653MOL0     O88028   2.110  11.073   7.202 -0.4209 -0.1501  0.3385
  653MOL0     C88029   2.005  11.008   7.143 -0.4230  0.4365  0.8972
  653MOL0     C88030   2.018  10.859   7.124 -0.4942  0.2192  0.7800
  653MOL0     C88031   1.909  10.800   7.023 -0.1992 -1.0186 -0.7795
  653MOL0     C88032   1.884  10.649   7.032 -0.3719 -0.2691  0.3583
  653MOL0     C88033   2.011  10.570   7.052 -0.1361 -0.5430  0.3457
  653MOL0     C88034   2.076  10.552   6.912  0.0087  0.2781  0.6489
  653MOL0     C88035   2.227  10.510   6.915 -0.7367  0.1377  1.0348
  653MOL0     C88036   2.285  10.478   6.768  0.3617 -0.0926 -0.3454
  653MOL0     N88037   2.400  10.386   6.789 -0.5646 -1.2184  0.0921
  653MOL0     C88038   2.524  10.436   6.809  0.1512  0.2423  0.2476
  653MOL0     C88039   2.595  10.335   6.856  0.3747  0.2632  0.9645
  653MOL0     C88040   2.746  10.345   6.882  0.0504 -0.3584  0.4438
  653MOL0     C88041   2.763  10.398   7.025 -0.1821 -0.4032 -1.0475
  653MOL0     C88042   2.915  10.391   7.069 -0.1372  0.4620  0.6021
  653MOL0     C88043   2.929  10.401   7.221 -0.1975 -0.0861 -0.4162
  653MOL0     O88044   2.841  10.322   7.306 -0.4588 -0.1400 -0.3861
  653MOL0     C88045   2.864  10.342   7.440 -0.5357  0.0323  0.5368
  653MOL0     C88046   2.954  10.437   7.496  0.5160  0.1320  0.1364
  653MOL0     C88047   2.973  10.448   7.631  0.6462 -0.9706  1.1772
  653MOL0     C88048   3.054  10.561   7.688 -0.4529  0.2162  0.0543
  653MOL0     C88049   2.919  10.345   7.715  0.3836 -0.2763  0.3669
  653MOL0     C88050   2.949  10.334   7.860  0.5920 -0.1664 -0.0483
  653MOL0     O88051   2.836  10.318   7.941 -0.1519  0.2525 -0.0397
  653MOL0     C88052   2.858  10.292   8.078  0.4480 -0.6713 -0.4993
  653MOL0     C88053   2.806  10.172   8.132  0.4033 -1.0238 -0.3429
  653MOL0     C88054   2.842  10.137   8.263  0.0818  0.6457 -1.0513
  653MOL0     C88055   2.921  10.210   8.349 -0.0107 -0.4784  0.6077
  653MOL0     O88056   2.957  10.185   8.478 -0.1991  0.4297  0.4800
  653MOL0     C88057   2.922  10.058   8.546  0.5812 -0.3251 -0.0156
  653MOL0     C88058   2.914  10.084   8.694  0.5172 -0.5222 -0.9398
  653MOL0     C88059   2.828   9.980   8.761  0.2667  0.7185 -1.3287
  653MOL0     C88060   2.742  10.019   8.884 -0.5874 -0.1587  0.0918
  653MOL0     C88061   2.666   9.900   8.948 -0.8765 -0.0383  0.0681
  653MOL0     C88062   2.735   9.774   8.964 -0.7927 -1.0532  0.8068
  653MOL0     C88063   2.651   9.683   9.057  0.3226  0.4314  0.2618
  653MOL0     C88064   2.685   9.531   9.037  0.1551  0.9624  0.1525
  653MOL0    Cl88065   2.851   9.482   9.066 -0.0026 -0.0369 -0.1503
  653MOL0     C88066   2.969  10.326   8.292  0.5148 -0.2895  0.0943
  653MOL0     C88067   2.924  10.370   8.163  0.0225 -0.0982  1.6443
  653MOL0     O88068   3.062  10.344   7.901 -0.4654  0.1345 -0.1090
  653MOL0     C88069   2.830  10.255   7.658  1.0273  0.0072 -0.3795
  653MOL0     C88070   2.803  10.262   7.531 -0.6109  0.2973  0.0421
  653MOL0     N88071   2.514  10.231   6.866  0.7628 -0.2216 -0.6139
  653MOL0     N88072   2.397  10.256   6.824 -0.2966  0.5023 -0.1087
  653MOL0     C88073   2.004  11.203   7.377 -0.0921  0.4355  0.5136
  653MOL0     C88074   2.019  11.258   7.507 -0.1775  0.5265 -0.7249
  653MOL0     C88075   2.191  11.430   7.884  0.5239 -0.7545  0.0384
  653MOL0     C88076   2.130  11.358   7.987 -0.2956  0.1373 -0.3999
  653MOL0     C88077   2.142  11.391   8.116 -0.0659 -0.3344  0.5932
  653MOL0     C88078   2.219  11.497   8.149  0.5915  0.2055 -0.8178
  653MOL0     O88079   2.239  11.544   8.280  0.1832 -0.1577 -0.1027
  653MOL0     C88080   2.129  11.572   8.372 -1.4025  0.2040  0.5700
  653MOL0     C88081   2.039  11.675   8.315 -0.1429  0.8927 -0.2647
  653MOL0     C88082   2.106  11.813   8.320 -0.5408  0.0335  0.3021
  653MOL0     C88083   2.053  11.899   8.446 -0.3119  0.6183  0.5379
  653MOL0     C88084   2.157  11.887   8.558  1.1000  0.0561  0.1797
  653MOL0     C88085   2.236  11.889   8.644 -0.0948 -0.7839  0.0987
  653MOL0     C88086   2.280  11.570   8.050 -0.2888 -0.2452  0.7327
  653MOL0     C88087   2.272  11.540   7.914 -1.1467 -0.3093  0.2254
  653MOL0     H88088   2.296  11.082   7.605  0.7589  1.8761 -0.9401
  653MOL0     H88089   2.293  11.019   7.384 -0.0882  0.4387  0.5050
  653MOL0     H88090   1.916  11.018   7.206 -2.1152  2.1977 -1.5913
  653MOL0     H88091   1.973  11.051   7.047 -1.7339 -2.4958 -0.1239
  653MOL0     H88092   2.116  10.829   7.088 -2.0893 -2.7455 -1.5145
  653MOL0     H88093   2.005  10.804   7.218 -3.0441 -2.8049 -1.1218
  653MOL0     H88094   1.812  10.852   7.019 -0.2134 -1.1308 -2.5396
  653MOL0     H88095   1.949  10.807   6.922  1.3207 -0.8492 -0.1943
  653MOL0     H88096   1.813  10.622   7.110 -1.3167  2.5887  0.6154
  653MOL0     H88097   1.842  10.601   6.943  0.9169 -3.3740  1.2780
  653MOL0     H88098   2.083  10.610   7.124 -0.6160  0.9746  0.0158
  653MOL0     H88099   1.987  10.467   7.080 -1.1953 -0.8414 -1.4779
  653MOL0     H88100   2.017  10.483   6.852  1.2905  0.3929 -0.7908
  653MOL0     H88101   2.065  10.640   6.848  2.8570 -0.7952 -1.5225
  653MOL0     H88102   2.293  10.578   6.969 -0.5685  0.5068  0.3787
  653MOL0     H88103   2.232  10.411   6.960 -2.5874 -0.1017  0.8159
  653MOL0     H88104   2.320  10.566   6.713  1.0457  0.0381  0.2970
  653MOL0     H88105   2.202  10.434   6.711 -1.5167  1.8302  0.7290
  653MOL0     H88106   2.559  10.538   6.819 -1.1532  0.4824  4.4028
  653MOL0     H88107   2.790  10.247   6.859  2.0359  0.0382  2.3043
  653MOL0     H88108   2.794  10.422   6.821  2.2502 -1.7051  0.3796
  653MOL0     H88109   2.702  10.339   7.094  0.6078 -0.9791 -0.8254
  653MOL0     H88110   2.731  10.503   7.034 -1.6232 -0.9331  0.5357
  653MOL0     H88111   2.965  10.469   7.011 -0.7049 -0.0247 -0.5794
  653MOL0     H88112   2.950  10.291   7.045  2.7986  0.7089  3.2674
  653MOL0     H88113   2.921  10.505   7.256  0.5408 -0.3936  0.7395
  653MOL0     H88114   3.028  10.374   7.259 -0.2659 -1.2059 -0.9940
  653MOL0     H88115   3.000  10.517   7.438 -0.2235  0.0046 -0.6384
  653MOL0     H88116   3.097  10.623   7.609  0.2700 -1.0214 -0.5297
  653MOL0     H88117   2.990  10.612   7.761 -3.7197 -1.2562 -1.5732
  653MOL0     H88118   3.136  10.522   7.748 -2.8770 -2.6521  1.7589
  653MOL0     H88119   2.747  10.096   8.081 -2.5743  0.4430  0.6566
  653MOL0     H88120   2.798  10.044   8.296  0.5246  0.7163 -0.2551
  653MOL0     H88121   2.821  10.027   8.519 -0.6088 -1.3324  4.6701
  653MOL0     H88122   3.000   9.985   8.522  0.6721 -0.0210 -0.6793
  653MOL0     H88123   3.017  10.094   8.730 -0.1669  1.4159  0.6821
  653MOL0     H88124   2.859  10.179   8.704 -0.4990 -1.0418 -1.4457
  653MOL0     H88125   2.897   9.897   8.773 -2.1754 -2.0210 -4.3165
  653MOL0     H88126   2.753   9.939   8.694 -4.5065  1.9198  2.6316
  653MOL0     H88127   2.810  10.077   8.948  0.5630 -0.7625 -0.5531
  653MOL0     H88128   2.663  10.087   8.850  1.9673  3.1691  0.2756
  653MOL0     H88129   2.574   9.882   8.890 -1.3966  1.1393  0.4964
  653MOL0     H88130   2.630   9.939   9.044  1.9602 -1.5817  1.8950
  653MOL0     H88131   2.740   9.726   8.866 -6.4197  1.7246 -1.3174
  653MOL0     H88132   2.835   9.788   9.005  0.5276 -0.0555 -2.4642
  653MOL0     H88133   2.546   9.694   9.030  0.9035 -0.3949 -2.6432
  653MOL0     H88134   2.660   9.697   9.165 -2.6409 -1.5951  0.8673
  653MOL0     H88135   2.672   9.498   8.933 -1.9914 -2.2741  1.2837
  653MOL0     H88136   2.634   9.470   9.112  0.3884  0.3444 -0.1804
  653MOL0     H88137   3.039  10.386   8.350 -1.6103  1.4523  1.0424
  653MOL0     H88138   2.951  10.462   8.110 -0.2748 -1.2018 -0.5539
  653MOL0     H88139   2.758  10.201   7.718 -1.8714  1.5802 -2.2004
  653MOL0     H88140   2.733  10.185   7.501 -0.4532  0.6393 -1.2239
  653MOL0     H88141   1.921  11.236   7.315 -0.7145 -1.4533  0.2760
  653MOL0     H88142   1.944  11.335   7.522 -0.4396 -0.0040  0.9134
  653MOL0     H88143   2.080  11.264   7.966  1.7798 -1.1584  0.1249
  653MOL0     H88144   2.094  11.327   8.190 -3.3601 -0.2620 -1.2620
  653MOL0     H88145   2.068  11.482   8.382 -0.5230 -0.7074 -1.4702
  653MOL0     H88146   2.187  11.593   8.462 -2.5359 -1.6171  1.7725
  653MOL0     H88147   1.946  11.688   8.371  0.4900  2.0680  0.5788
  653MOL0     H88148   2.023  11.655   8.209 -0.7089 -0.2599  0.0287
  653MOL0     H88149   2.079  11.859   8.224 -4.4458  0.0542  1.2514
  653MOL0     H88150   2.215  11.810   8.324 -0.3582  1.0692 -2.0071
  653MOL0     H88151   1.956  11.860   8.479 -0.0667  1.1034  1.8648
  653MOL0     H88152   2.058  12.006   8.426  1.0994  1.2164  3.5610
  653MOL0     H88153   2.300  11.896   8.730 -0.8183  0.6792  0.5529
  653MOL0     H88154   2.329  11.663   8.079 -0.3832 -0.1800  0.6809
  653MOL0     H88155   2.323  11.595   7.836 -3.1158  1.7346  0.2760
  654MOL0     O88156  11.185   8.220   1.306  0.1497  0.3944 -0.5090
  654MOL0     C88157  11.285   8.202   1.249 -0.0049  0.0871  0.4629
  654MOL0     O88158  11.302   8.124   1.140  0.4698  0.4317  0.0069
  654MOL0     C88159  11.192   8.039   1.117 -0.5728  1.0104  0.3246
  654MOL0     C88160  11.064   8.073   1.082 -0.1338  0.1660 -0.6267
  654MOL0     C88161  10.964   7.977   1.050  0.1735  0.3756  0.3447
  654MOL0     C88162  11.010   7.841   1.041 -0.3536 -1.0769  0.5488
  654MOL0     O88163  10.939   7.733   1.002  0.6050  0.1930 -0.1469
  654MOL0     C88164  10.799   7.754   1.037 -0.3670  0.2119 -0.2077
  654MOL0     C88165  10.737   7.609   1.011  0.3715  0.2333 -0.8444
  654MOL0     C88166  10.807   7.497   1.089  1.2017  0.8779  0.2871
  654MOL0     C88167  10.725   7.373   1.064 -0.0117  0.9363 -0.4743
  654MOL0     C88168  10.731   7.312   0.926 -0.6093  0.0869 -0.2465
  654MOL0     C88169  10.866   7.253   0.907 -1.1562  0.3261  0.4811
  654MOL0     C88170  10.883   7.139   0.802  0.3695  0.2844 -0.2254
  654MOL0     C88171  10.949   7.188   0.677  0.3371 -0.7933 -0.2707
  654MOL0     N88172  10.874   7.292   0.619  0.0606 -1.1852  0.7588
  654MOL0     C88173  10.914   7.425   0.623 -0.0077 -0.3443  0.5497
  654MOL0     C88174  10.842   7.490   0.531  0.2468 -0.6164 -1.1412
  654MOL0     C88175  10.819   7.632   0.493 -0.0669 -0.4466  0.6273
  654MOL0     C88176  10.915   7.728   0.562 -0.5467  1.1673  0.8068
  654MOL0     C88177  10.928   7.864   0.486 -1.1336  0.5599 -0.7950
  654MOL0     C88178  11.026   7.947   0.548  0.2796  0.4453 -0.1496
  654MOL0     O88179  11.161   7.897   0.547  0.4031 -0.7931  0.0031
  654MOL0     C88180  11.261   7.956   0.620 -0.7376 -0.6772 -0.7817
  654MOL0     C88181  11.253   8.092   0.641  0.0166  0.5925  1.0855
  654MOL0     C88182  11.358   8.161   0.690 -0.3196  0.2514 -0.7956
  654MOL0     C88183  11.335   8.303   0.724 -0.4014  0.5462  0.7019
  654MOL0     C88184  11.483   8.104   0.721 -0.2088  0.2452  0.4235
  654MOL0     C88185  11.600   8.173   0.785 -0.7454 -0.3131  1.1381
  654MOL0     O88186  11.695   8.245   0.722  1.0059  0.3891 -0.3456
  654MOL0     C88187  11.691   8.265   0.590 -0.1032 -0.2026  0.2162
  654MOL0     C88188  11.627   8.376   0.541 -0.0559  0.6235  0.3890
  654MOL0     C88189  11.613   8.401   0.404 -0.2135  0.8853  0.6711
  654MOL0     C88190  11.680   8.309   0.302  0.0617  0.0358 -0.7891
  654MOL0     O88191  11.674   8.342   0.174 -0.0195  0.1491  0.0434
  654MOL0     C88192  11.757   8.269   0.077  0.5454 -0.0926 -0.5396
  654MOL0     C88193  11.743   8.341  -0.060  0.1893  0.6597  0.4259
  654MOL0     C88194  11.857   8.446  -0.080  0.8494  0.9132 -0.8138
  654MOL0     C88195  11.969   8.372  -0.147 -0.1120 -0.6247 -0.1473
  654MOL0     C88196  12.098   8.459  -0.146 -0.2017 -0.4763 -0.8720
  654MOL0     C88197  12.081   8.589  -0.226 -0.5736 -0.4321 -0.1044
  654MOL0     C88198  12.060   8.557  -0.374  0.9618  0.8570 -0.0616
  654MOL0     C88199  12.097   8.676  -0.455 -0.3764  0.5972  0.8312
  654MOL0    Cl88200  12.014   8.826  -0.422  0.0190  0.0024 -0.2119
  654MOL0     C88201  11.737   8.195   0.352 -0.3815 -0.9038  0.2528
  654MOL0     C88202  11.748   8.171   0.496 -0.2630 -0.0956  0.3065
  654MOL0     O88203  11.598   8.144   0.901  0.0716 -0.3242  0.2539
  654MOL0     C88204  11.488   7.964   0.700 -0.6964  0.0924 -0.8799
  654MOL0     C88205  11.381   7.888   0.655  0.7136 -1.4619 -0.3261
  654MOL0     N88206  10.753   7.397   0.478 -0.1823 -0.3548 -0.7713
  654MOL0     N88207  10.784   7.278   0.521  0.0480  0.0249  0.1152
  654MOL0     C88208  11.140   7.808   1.059 -0.1675  0.3523  0.0032
  654MOL0     C88209  11.232   7.899   1.107 -0.1928  0.4904 -1.0141
  654MOL0     C88210  11.406   8.266   1.307  0.0126  0.3492 -0.4628
  654MOL0     C88211  11.393   8.290   1.445  0.1098  0.2072  0.4398
  654MOL0     C88212  11.518   8.346   1.504  1.1178 -1.0249  0.3408
  654MOL0     C88213  11.629   8.387   1.426 -0.6955 -0.1475 -0.2990
  654MOL0     O88214  11.741   8.431   1.496 -0.2531 -0.6337  0.1595
  654MOL0     C88215  11.841   8.513   1.434 -0.2513 -0.4046  0.3978
  654MOL0     C88216  11.964   8.425   1.412  0.0822  0.2323  0.8370
  654MOL0     C88217  12.027   8.387   1.552 -0.0625 -0.3731 -0.1371
  654MOL0     C88218  12.139   8.275   1.553  0.3607 -0.0942  0.4139
  654MOL0     C88219  12.223   8.300   1.433 -0.3989  0.5923 -0.4014
  654MOL0     C88220  12.303   8.308   1.342 -0.3955  0.0978 -0.5027
  654MOL0     C88221  11.632   8.358   1.281 -0.2875  0.2327 -0.9595
  654MOL0     C88222  11.519   8.292   1.230 -0.0409 -0.0476 -1.0212
  654MOL0     H88223  11.041   8.179   1.084 -1.7766 -0.1398  1.9409
  654MOL0     H88224  10.861   8.004   1.029  0.4627  1.9287  0.8214
  654MOL0     H88225  10.781   7.790   1.139 -3.6946  0.4899 -0.7748
  654MOL0     H88226  10.747   7.822   0.969  0.0629 -0.7508 -1.5348
  654MOL0     H88227  10.633   7.622   1.042  1.3943 -0.4807  3.7358
  654MOL0     H88228  10.747   7.575   0.908  3.3183 -0.3316 -0.4793
  654MOL0     H88229  10.909   7.480   1.054  2.2177 -0.6182  3.5539
  654MOL0     H88230  10.799   7.517   1.196 -2.1792  2.6590 -0.1858
  654MOL0     H88231  10.760   7.295   1.131  0.0351 -2.0853 -3.7442
  654MOL0     H88232  10.620   7.387   1.093 -0.1319 -0.2231 -0.3193
  654MOL0     H88233  10.648   7.241   0.915 -0.7536  0.4185 -1.3633
  654MOL0     H88234  10.720   7.373   0.837 -0.2707 -0.5329 -0.7221
  654MOL0     H88235  10.948   7.325   0.897  0.5150 -1.6020 -0.4262
  654MOL0     H88236  10.895   7.192   0.993 -0.8730 -1.1063 -0.6018
  654MOL0     H88237  10.943   7.058   0.844 -1.5889 -1.0958  0.0871
  654MOL0     H88238  10.784   7.103   0.773 -1.5009  3.6402  1.2856
  654MOL0     H88239  10.950   7.101   0.610 -4.8334 -1.1571 -0.2386
  654MOL0     H88240  11.052   7.219   0.695  0.2825 -0.6243 -0.2462
  654MOL0     H88241  10.988   7.474   0.686 -1.8056  1.6731  1.2143
  654MOL0     H88242  10.854   7.645   0.390  2.7798  0.0781  1.5594
  654MOL0     H88243  10.716   7.662   0.514  0.3917  0.7067  1.3021
  654MOL0     H88244  11.016   7.685   0.570 -0.0759  2.0379 -0.1944
  654MOL0     H88245  10.883   7.751   0.664 -1.2678 -0.8106  1.0778
  654MOL0     H88246  10.837   7.922   0.467 -1.7912 -1.1358 -3.3971
  654MOL0     H88247  10.954   7.835   0.384 -0.6979  0.6830 -0.7188
  654MOL0     H88248  10.996   7.967   0.651  3.3117 -0.0451  0.9369
  654MOL0     H88249  11.042   8.039   0.492  3.6902 -0.8779 -1.6839
  654MOL0     H88250  11.171   8.153   0.606 -1.1109 -0.1465  2.3388
  654MOL0     H88251  11.239   8.317   0.774  0.1575  3.0653  1.2405
  654MOL0     H88252  11.423   8.329   0.784  1.1461  3.4087 -2.4883
  654MOL0     H88253  11.352   8.365   0.635 -0.2408 -0.8596 -0.2862
  654MOL0     H88254  11.587   8.453   0.606 -2.9442  0.0516 -0.5741
  654MOL0     H88255  11.562   8.488   0.363  3.0634  1.3106 -3.1583
  654MOL0     H88256  11.862   8.255   0.105  1.5856  2.2897 -2.8192
  654MOL0     H88257  11.721   8.169   0.050 -2.9289  1.3383 -1.8122
  654MOL0     H88258  11.726   8.267  -0.138  1.9476  0.3098  0.3354
  654MOL0     H88259  11.655   8.405  -0.044 -0.9164 -0.3438 -1.3613
  654MOL0     H88260  11.882   8.479   0.022 -3.0358  1.0719  0.2824
  654MOL0     H88261  11.820   8.536  -0.131 -1.5673  1.1174  1.0651
  654MOL0     H88262  11.999   8.280  -0.095  0.3317 -0.8968 -0.8634
  654MOL0     H88263  11.929   8.355  -0.247 -2.9332  0.7566  0.6406
  654MOL0     H88264  12.188   8.409  -0.182 -0.7489 -2.6609  0.5457
  654MOL0     H88265  12.122   8.470  -0.040  0.1129  0.5463 -1.0445
  654MOL0     H88266  11.997   8.649  -0.190  0.2139  0.6883 -0.0855
  654MOL0     H88267  12.173   8.647  -0.213 -0.6829  0.0682 -1.4209
  654MOL0     H88268  11.952   8.539  -0.383  0.7275  1.0377  1.9825
  654MOL0     H88269  12.121   8.473  -0.410  2.3298  2.0140 -0.5347
  654MOL0     H88270  12.068   8.657  -0.558  0.8151 -1.3074  0.7900
  654MOL0     H88271  12.205   8.693  -0.456 -0.4055  1.1096  2.7945
  654MOL0     H88272  11.772   8.115   0.288 -0.8704 -1.7862  1.0807
  654MOL0     H88273  11.793   8.077   0.528 -1.5519 -1.1490 -0.8319
  654MOL0     H88274  11.573   7.908   0.739 -2.8460 -2.1065  0.9527
  654MOL0     H88275  11.383   7.782   0.631  1.2438 -1.1441 -1.7903
  654MOL0     H88276  11.183   7.712   1.033  0.9755  0.3685  1.6542
  654MOL0     H88277  11.331   7.857   1.124 -1.6295 -1.6854  3.5020
  654MOL0     H88278  11.321   8.256   1.518  3.3327 -0.0752  3.8133
  654MOL0     H88279  11.525   8.354   1.612  1.7842  1.3958  0.1792
  654MOL0     H88280  11.819   8.564   1.340 -3.0848  0.6635  1.5477
  654MOL0     H88281  11.864   8.601   1.495  1.4814 -0.1831 -0.5020
  654MOL0     H88282  12.039   8.482   1.356 -0.5378  0.5983  0.3813
  654MOL0     H88283  11.948   8.337   1.349  0.5919  0.3404  0.5501
  654MOL0     H88284  11.967   8.364   1.641  1.4300 -0.2233  0.9420
  654MOL0     H88285  12.084   8.474   1.586  0.5968 -0.2915 -1.4177
  654MOL0     H88286  12.097   8.174   1.560  2.6230 -1.0777  0.7741
  654MOL0     H88287  12.198   8.298   1.642 -1.1745 -0.3620  1.5426
  654MOL0     H88288  12.364   8.310   1.254  3.2919  0.3092  1.8711
  654MOL0     H88289  11.714   8.356   1.210 -1.7649  2.5214 -2.8820
  654MOL0     H88290  11.509   8.240   1.135 -2.2556 -1.3723 -0.1412
  655MOL0     O88291   9.743   9.151   1.526 -0.3277 -0.3176 -0.3236
  655MOL0     C88292   9.713   9.215   1.628 -0.7582 -0.6146  0.1521
  655MOL0     O88293   9.737   9.351   1.645 -0.1247  0.4065  0.3824
  655MOL0     C88294   9.769   9.427   1.537  0.2617 -0.1095  1.4386
  655MOL0     C88295   9.886   9.512   1.540  0.3686 -0.0352  0.8755
  655MOL0     C88296   9.916   9.591   1.429  0.1086  0.3962 -0.0988
  655MOL0     C88297   9.825   9.599   1.320  0.2235 -0.0311  0.9888
  655MOL0     O88298   9.867   9.652   1.202  0.1536 -1.2328 -0.3325
  655MOL0     C88299   9.765   9.689   1.106 -0.0192 -0.5829 -0.5539
  655MOL0     C88300   9.810   9.789   1.006  0.4761 -0.3414 -0.0251
  655MOL0     C88301   9.732   9.782   0.881 -0.2145 -0.0124  0.5606
  655MOL0     C88302   9.756   9.899   0.775 -0.2466  0.1233 -0.9969
  655MOL0     C88303   9.707   9.865   0.636 -0.2362  0.1022 -0.1579
  655MOL0     C88304   9.757   9.972   0.533  0.6377  0.2963 -0.0951
  655MOL0     C88305   9.706   9.927   0.388 -0.5578 -1.0612 -0.0724
  655MOL0     C88306   9.749  10.045   0.298 -0.0139  0.5034 -1.2834
  655MOL0     N88307   9.721  10.030   0.159  0.3391  0.0482  0.0908
  655MOL0     C88308   9.605  10.080   0.103 -0.3859  0.3792  0.4306
  655MOL0     C88309   9.613  10.054  -0.032 -0.5879  0.6130 -0.1083
  655MOL0     C88310   9.533  10.110  -0.145  0.6003  0.3548  0.6585
  655MOL0     C88311   9.529  10.267  -0.167  0.3989  0.4217 -0.3967
  655MOL0     C88312   9.663  10.330  -0.139  0.5121  0.5049  0.1761
  655MOL0     C88313   9.674  10.470  -0.199  0.5355 -0.4595  0.6996
  655MOL0     O88314   9.803  10.523  -0.165  0.1666 -0.4515  0.3198
  655MOL0     C88315   9.867  10.612  -0.251 -0.5111 -0.6348  0.1031
  655MOL0     C88316   9.795  10.691  -0.344 -0.9514  0.4616  0.2248
  655MOL0     C88317   9.864  10.771  -0.436  0.3237 -0.0922  0.0723
  655MOL0     C88318   9.781  10.857  -0.518  0.3072  0.8866  0.5409
  655MOL0     C88319  10.006  10.758  -0.448 -0.2659 -0.1066 -0.2780
  655MOL0     C88320  10.092  10.803  -0.565  0.7078 -0.0348 -0.3820
  655MOL0     O88321  10.212  10.729  -0.587  0.1181 -0.0099  0.2292
  655MOL0     C88322  10.318  10.782  -0.655 -0.6215  0.3132 -0.7469
  655MOL0     C88323  10.326  10.788  -0.791  0.2928 -0.3008 -0.5718
  655MOL0     C88324  10.444  10.830  -0.848  0.7438 -1.0591  0.1736
  655MOL0     C88325  10.560  10.858  -0.775 -0.0330 -1.4239  1.0939
  655MOL0     O88326  10.674  10.903  -0.837 -0.3545 -0.1055 -0.1466
  655MOL0     C88327  10.798  10.882  -0.778  0.5168 -0.0444 -0.6459
  655MOL0     C88328  10.903  10.951  -0.855 -0.3227  0.6089  0.3338
  655MOL0     C88329  11.038  10.899  -0.820 -0.1310 -0.1108  0.1818
  655MOL0     C88330  11.161  10.977  -0.882  0.7748 -0.5566  0.3647
  655MOL0     C88331  11.297  10.930  -0.833 -0.4314  0.2001 -0.3926
  655MOL0     C88332  11.326  10.784  -0.862  0.0326 -0.5122 -0.2637
  655MOL0     C88333  11.484  10.755  -0.827 -0.2745 -0.4733  0.2335
  655MOL0     C88334  11.575  10.773  -0.955  0.8410 -0.5065  0.1560
  655MOL0    Cl88335  11.737  10.828  -0.884  0.0802  0.2822  0.1662
  655MOL0     C88336  10.545  10.847  -0.636  0.8556  0.2344 -0.9340
  655MOL0     C88337  10.425  10.812  -0.576 -0.0693  0.2174  0.0571
  655MOL0     O88338  10.044  10.888  -0.647  0.3823  0.7020 -0.2367
  655MOL0     C88339  10.073  10.694  -0.346 -0.5811 -0.4459  0.0905
  655MOL0     C88340  10.003  10.620  -0.257  0.1965 -0.2355 -0.3688
  655MOL0     N88341   9.735  10.000  -0.050 -0.4893  0.1976 -0.9932
  655MOL0     N88342   9.807   9.992   0.061 -0.4542 -0.5198  0.7363
  655MOL0     C88343   9.702   9.529   1.325 -0.8545 -0.8598 -0.7140
  655MOL0     C88344   9.682   9.441   1.430  0.3230  0.1927  0.3269
  655MOL0     C88345   9.646   9.147   1.742  0.1343  0.9085 -0.5005
  655MOL0     C88346   9.579   9.020   1.718  0.3455  1.1650  0.3679
  655MOL0     C88347   9.510   8.938   1.817  0.1351 -0.3186  0.2852
  655MOL0     C88348   9.528   8.977   1.954  0.8600  0.0266  0.5877
  655MOL0     O88349   9.475   8.910   2.059  0.1214  0.1301 -0.4027
  655MOL0     C88350   9.406   8.775   2.045 -0.3081  0.1298 -0.0056
  655MOL0     C88351   9.378   8.710   2.185 -0.0685  0.6266 -0.2866
  655MOL0     C88352   9.328   8.566   2.172  0.9861  0.2877  0.4971
  655MOL0     C88353   9.288   8.513   2.314 -0.2121 -0.5781 -0.0710
  655MOL0     C88354   9.255   8.369   2.290 -0.2767 -0.3382 -0.6993
  655MOL0     C88355   9.234   8.242   2.282 -0.8721 -0.6087 -1.0686
  655MOL0     C88356   9.583   9.104   1.973  0.5707  1.0246 -0.3983
  655MOL0     C88357   9.643   9.187   1.878 -0.5140  0.7898  0.0875
  655MOL0     H88358   9.948   9.514   1.629  1.3267 -0.5772  0.2392
  655MOL0     H88359   9.995   9.665   1.431  1.9470 -1.4964  0.4975
  655MOL0     H88360   9.735   9.602   1.046  1.6135 -2.2844  0.9470
  655MOL0     H88361   9.677   9.731   1.156  1.3526 -0.8524  2.3407
  655MOL0     H88362   9.825   9.889   1.049  3.7552  0.0248 -1.6335
  655MOL0     H88363   9.914   9.767   0.978  0.1134  0.3026 -2.1180
  655MOL0     H88364   9.739   9.688   0.826 -0.2700  0.4124 -0.1889
  655MOL0     H88365   9.626   9.788   0.905 -0.4579 -0.2232 -0.4325
  655MOL0     H88366   9.723  10.000   0.800  3.0353  1.1637 -0.3908
  655MOL0     H88367   9.866   9.900   0.768  0.0093 -0.7048  1.7806
  655MOL0     H88368   9.753   9.770   0.608  1.5622  0.1429  2.2914
  655MOL0     H88369   9.598   9.858   0.634 -0.6836  1.4052  5.1534
  655MOL0     H88370   9.712  10.068   0.559  1.5619  1.0813 -1.2772
  655MOL0     H88371   9.866   9.981   0.534  0.6929 -0.3581  0.0262
  655MOL0     H88372   9.755   9.843   0.337  0.7196  0.4556 -1.4390
  655MOL0     H88373   9.597   9.919   0.395 -0.4191 -1.6582  2.9961
  655MOL0     H88374   9.858  10.050   0.306 -0.1934  2.6032  1.5241
  655MOL0     H88375   9.723  10.142   0.343  1.3818  0.2435  0.1877
  655MOL0     H88376   9.526  10.135   0.152 -1.3032  0.3184 -0.9237
  655MOL0     H88377   9.586  10.078  -0.236  1.7808  2.7842  0.4065
  655MOL0     H88378   9.429  10.079  -0.153  0.7461  0.0635 -0.3269
  655MOL0     H88379   9.452  10.311  -0.103 -0.9614 -0.6238 -1.2340
  655MOL0     H88380   9.505  10.287  -0.272  0.7983 -0.9616 -0.7746
  655MOL0     H88381   9.743  10.276  -0.191  1.8930  2.7787 -0.1909
  655MOL0     H88382   9.679  10.339  -0.032 -1.5495 -0.2881  0.6044
  655MOL0     H88383   9.594  10.526  -0.149 -0.1273 -0.0595 -0.7733
  655MOL0     H88384   9.654  10.488  -0.305  2.1953  5.0014  1.0488
  655MOL0     H88385   9.687  10.704  -0.340 -1.3069  1.4716 -4.8472
  655MOL0     H88386   9.770  10.803  -0.613  1.3991  0.7223  0.4943
  655MOL0     H88387   9.684  10.884  -0.474  0.1822 -0.0474  0.8651
  655MOL0     H88388   9.816  10.959  -0.532  0.5143  0.4999 -2.3789
  655MOL0     H88389  10.243  10.779  -0.861  0.3321  1.4739 -0.8917
  655MOL0     H88390  10.452  10.834  -0.956 -2.6241  0.9114 -0.1712
  655MOL0     H88391  10.791  10.919  -0.675 -2.0830  0.0794 -0.7927
  655MOL0     H88392  10.814  10.774  -0.765 -0.6992  0.0106  2.0296
  655MOL0     H88393  10.884  10.913  -0.956  0.6872 -1.5407  0.8988
  655MOL0     H88394  10.890  11.060  -0.850  0.2391  0.7426 -0.7407
  655MOL0     H88395  11.058  10.795  -0.847  1.7440  0.0789  0.6633
  655MOL0     H88396  11.050  10.900  -0.711  1.4500 -1.9909  0.0717
  655MOL0     H88397  11.159  10.970  -0.992  2.1472 -2.1271  0.4013
  655MOL0     H88398  11.152  11.082  -0.855  0.6255 -0.8204  1.3615
  655MOL0     H88399  11.294  10.941  -0.724 -4.1429 -1.9743 -0.1044
  655MOL0     H88400  11.378  10.983  -0.884  0.2542 -0.0880  0.3789
  655MOL0     H88401  11.261  10.723  -0.798 -1.5013  0.4542 -0.8546
  655MOL0     H88402  11.313  10.758  -0.967  0.4704 -1.3425 -0.1214
  655MOL0     H88403  11.504  10.655  -0.787 -0.5246 -0.4362  0.4578
  655MOL0     H88404  11.501  10.833  -0.752 -5.5859  1.9578 -0.6035
  655MOL0     H88405  11.523  10.854  -1.008  0.5388  0.4624  1.8486
  655MOL0     H88406  11.577  10.692  -1.029 -1.2783  1.0391 -1.7645
  655MOL0     H88407  10.628  10.859  -0.567 -0.2624  0.5446  0.4311
  655MOL0     H88408  10.420  10.796  -0.469  1.5355  0.8825  0.2526
  655MOL0     H88409  10.181  10.696  -0.353 -0.6907 -0.8162 -2.8067
  655MOL0     H88410  10.062  10.576  -0.178  2.4969  4.0659  0.6180
  655MOL0     H88411   9.629   9.531   1.245  1.9937  2.5936 -3.5815
  655MOL0     H88412   9.598   9.372   1.431  0.4019 -0.0641 -2.4197
  655MOL0     H88413   9.582   8.993   1.613  0.0054  2.6790 -0.0512
  655MOL0     H88414   9.455   8.846   1.799  1.0088 -0.5566 -1.3656
  655MOL0     H88415   9.312   8.777   1.989 -1.6634  5.9642  1.7895
  655MOL0     H88416   9.465   8.706   1.983  3.9612  2.2701  1.2779
  655MOL0     H88417   9.310   8.768   2.248 -0.1289 -1.0064  1.2316
  655MOL0     H88418   9.473   8.704   2.239  0.2996  0.1223 -0.9772
  655MOL0     H88419   9.418   8.509   2.146 -0.5915 -1.5886 -1.1248
  655MOL0     H88420   9.248   8.560   2.099  0.2555 -1.7544  1.3774
  655MOL0     H88421   9.198   8.567   2.346  0.2433  1.6510 -2.2492
  655MOL0     H88422   9.372   8.536   2.380 -0.4630 -1.1249  0.4451
  655MOL0     H88423   9.215   8.137   2.276  2.3309 -1.4513  0.8372
  655MOL0     H88424   9.604   9.139   2.074 -0.4802  1.1979 -0.2208
  655MOL0     H88425   9.695   9.276   1.912  2.9026 -1.3804  0.9597
  656MOL0     O88426   8.515   6.681  10.138  0.3493 -0.4462 -0.4848
  656MOL0     C88427   8.548   6.683  10.256 -0.4448 -0.1013 -0.2823
  656MOL0     O88428   8.555   6.787  10.339 -1.6501  0.8320 -0.3554
  656MOL0     C88429   8.501   6.902  10.306  1.2021 -0.7932 -0.3428
  656MOL0     C88430   8.553   7.021  10.362 -1.3026  0.7565  0.1625
  656MOL0     C88431   8.500   7.141  10.341  1.1649 -0.2631 -1.6702
  656MOL0     C88432   8.402   7.167  10.250  0.0031  0.7661  0.7227
  656MOL0     O88433   8.342   7.285  10.215  0.1925  0.0328 -0.1491
  656MOL0     C88434   8.420   7.409  10.242 -0.4975 -1.3555  0.3266
  656MOL0     C88435   8.380   7.532  10.162 -0.4505 -0.1074 -0.8185
  656MOL0     C88436   8.362   7.510  10.005  0.0792  0.2454  0.0043
  656MOL0     C88437   8.489   7.479   9.921  1.0055  0.2901 -0.3990
  656MOL0     C88438   8.432   7.452   9.778  1.1110  0.1526  0.2689
  656MOL0     C88439   8.550   7.482   9.675  0.3271  0.6802 -0.0956
  656MOL0     C88440   8.649   7.372   9.706  0.3758  0.0049  0.4501
  656MOL0     C88441   8.750   7.361   9.595  0.2873 -0.0676  0.6637
  656MOL0     N88442   8.846   7.474   9.593 -0.4250  0.5119  0.1274
  656MOL0     C88443   8.975   7.460   9.632  1.1386  0.0323 -0.1402
  656MOL0     C88444   9.030   7.583   9.608  0.4063  0.7048  0.4620
  656MOL0     C88445   9.164   7.632   9.643  0.1263  0.5860  0.3963
  656MOL0     C88446   9.242   7.510   9.682 -0.3649  0.8400  0.2006
  656MOL0     C88447   9.379   7.558   9.762  0.6408  0.1118  0.6268
  656MOL0     C88448   9.497   7.598   9.674 -0.1396  0.7665  0.5892
  656MOL0     O88449   9.470   7.697   9.583  0.0180 -0.3319  0.6768
  656MOL0     C88450   9.475   7.834   9.612 -0.7535  0.4353 -0.2990
  656MOL0     C88451   9.443   7.918   9.511 -0.3380  0.1566  0.4182
  656MOL0     C88452   9.463   8.062   9.514 -0.4713  0.3969 -0.1670
  656MOL0     C88453   9.415   8.143   9.399  0.2397 -0.6553  0.4567
  656MOL0     C88454   9.513   8.116   9.638 -0.5161 -0.0150 -0.2266
  656MOL0     C88455   9.510   8.270   9.665 -0.4431 -0.3898  0.6694
  656MOL0     O88456   9.486   8.373   9.571  0.0077 -0.4771  0.1695
  656MOL0     C88457   9.515   8.504   9.611 -0.2188 -0.2161 -0.0519
  656MOL0     C88458   9.639   8.556   9.660  0.6215 -0.2148  0.1826
  656MOL0     C88459   9.654   8.687   9.712  1.1082  0.4250 -0.0824
  656MOL0     C88460   9.547   8.771   9.684 -0.4986 -0.2869  0.2873
  656MOL0     O88461   9.572   8.904   9.709 -1.0146  0.4455  0.5265
  656MOL0     C88462   9.476   9.003   9.688  0.7129 -0.2002  0.2499
  656MOL0     C88463   9.534   9.147   9.694  0.3527 -0.5471  0.2239
  656MOL0     C88464   9.414   9.240   9.713 -0.8854  0.1162  0.4387
  656MOL0     C88465   9.460   9.389   9.681 -0.1244  0.1658  0.4568
  656MOL0     C88466   9.557   9.457   9.779 -1.1686  1.0667 -0.1174
  656MOL0     C88467   9.519   9.462   9.925 -0.0544  0.0681  0.1963
  656MOL0     C88468   9.398   9.546   9.968 -0.4170 -0.2773  0.2739
  656MOL0     C88469   9.313   9.464  10.066 -0.4665  0.8804 -0.0642
  656MOL0    Cl88470   9.203   9.562  10.156  0.3966  0.5435 -0.0730
  656MOL0     C88471   9.427   8.726   9.631 -0.7818 -0.4998  0.0913
  656MOL0     C88472   9.410   8.593   9.602  0.2943 -0.5885  1.0918
  656MOL0     O88473   9.553   8.283   9.777  0.0130  0.7442 -0.2427
  656MOL0     C88474   9.553   8.026   9.749  0.1878  0.6785  1.0728
  656MOL0     C88475   9.532   7.889   9.738 -0.1833 -0.9352 -0.2315
  656MOL0     N88476   8.937   7.655   9.542 -0.3367  0.2418  0.8776
  656MOL0     N88477   8.830   7.590   9.535 -0.3573  0.0378  0.3448
  656MOL0     C88478   8.353   7.058  10.177 -0.8771  0.6461  0.5557
  656MOL0     C88479   8.400   6.927  10.206 -0.0573 -0.0301 -0.2503
  656MOL0     C88480   8.622   6.559  10.299  0.3088 -0.1062  0.4506
  656MOL0     C88481   8.666   6.539  10.438  0.8167 -0.9824  0.6508
  656MOL0     C88482   8.740   6.432  10.484 -1.0612  0.7028 -0.1293
  656MOL0     C88483   8.773   6.331  10.386  1.0522 -0.4650 -0.6790
  656MOL0     O88484   8.842   6.223  10.430  0.4217  0.6573 -0.0595
  656MOL0     C88485   8.853   6.106  10.356 -0.1115 -1.0050  0.1671
  656MOL0     C88486   8.958   6.010  10.411 -0.0726 -0.4004 -0.4682
  656MOL0     C88487   8.941   5.969  10.553 -0.5050  1.0405 -0.6272
  656MOL0     C88488   8.821   5.874  10.571  0.2217  0.5086 -0.0012
  656MOL0     C88489   8.846   5.742  10.506 -0.4053  0.5648  0.1308
  656MOL0     C88490   8.863   5.628  10.460  0.4021 -0.6589  0.7388
  656MOL0     C88491   8.738   6.351  10.250  0.3247 -1.0198  0.0061
  656MOL0     C88492   8.671   6.466  10.199 -0.2004  0.4386 -0.8671
  656MOL0     H88493   8.648   7.015  10.413 -1.7416 -2.5309  0.8565
  656MOL0     H88494   8.527   7.232  10.394 -3.0667  0.8363 -1.0142
  656MOL0     H88495   8.407   7.430  10.348 -2.8965 -3.3527  0.5378
  656MOL0     H88496   8.525   7.395  10.214 -0.7985  0.5234 -2.1538
  656MOL0     H88497   8.282   7.571  10.193  0.3801  2.2050 -0.8818
  656MOL0     H88498   8.447   7.616  10.181 -1.0998 -0.0317  1.4820
  656MOL0     H88499   8.284   7.440   9.975  0.4335 -0.4258  0.5872
  656MOL0     H88500   8.334   7.612   9.980 -3.8176 -0.8890 -0.8915
  656MOL0     H88501   8.564   7.558   9.911 -1.2266  2.2540 -3.1580
  656MOL0     H88502   8.525   7.382   9.958 -1.2957 -0.1297  0.9521
  656MOL0     H88503   8.398   7.348   9.778  1.9941 -0.1557  1.0468
  656MOL0     H88504   8.350   7.520   9.752  1.7260  0.9235  0.3066
  656MOL0     H88505   8.513   7.474   9.572  0.7329 -2.6496 -0.0783
  656MOL0     H88506   8.614   7.571   9.678  3.4554 -1.3941 -0.7081
  656MOL0     H88507   8.705   7.374   9.800  3.0850 -0.1567 -1.0484
  656MOL0     H88508   8.585   7.285   9.690  0.3142  0.2744 -0.8617
  656MOL0     H88509   8.685   7.350   9.508 -0.0600 -0.7446  0.9928
  656MOL0     H88510   8.806   7.268   9.608  0.1208  0.0201  2.3473
  656MOL0     H88511   9.012   7.370   9.681 -1.3276 -2.6375 -2.7630
  656MOL0     H88512   9.205   7.685   9.556 -2.2152  2.2722  0.2368
  656MOL0     H88513   9.141   7.691   9.732 -0.3558 -0.1260  0.7527
  656MOL0     H88514   9.265   7.468   9.584  0.1000 -0.5349  0.8774
  656MOL0     H88515   9.200   7.436   9.750  1.7306  0.2353  0.9230
  656MOL0     H88516   9.406   7.471   9.823  0.4303 -0.9330 -0.7098
  656MOL0     H88517   9.354   7.641   9.828 -0.2331 -0.1778  0.6700
  656MOL0     H88518   9.534   7.512   9.617  0.1912  1.1738  0.1804
  656MOL0     H88519   9.585   7.631   9.730 -0.7571  1.0378  1.4178
  656MOL0     H88520   9.408   7.870   9.419 -0.3230 -0.2822  0.6369
  656MOL0     H88521   9.333   8.204   9.439  0.9808  0.7589 -0.1254
  656MOL0     H88522   9.490   8.199   9.342  2.1684 -1.1343  2.3820
  656MOL0     H88523   9.364   8.076   9.330  0.2225  1.5961 -1.8694
  656MOL0     H88524   9.714   8.481   9.682  1.8003  0.4274 -1.4923
  656MOL0     H88525   9.739   8.720   9.771 -0.5391 -1.1317  3.4804
  656MOL0     H88526   9.428   8.995   9.590 -0.1974  1.8841  0.4795
  656MOL0     H88527   9.403   8.980   9.766  1.8447 -1.1754  1.0631
  656MOL0     H88528   9.599   9.162   9.781  3.0191  3.3764 -2.1619
  656MOL0     H88529   9.589   9.175   9.604  1.4700  1.9381  1.5766
  656MOL0     H88530   9.375   9.231   9.815  0.5114  0.4961  1.0355
  656MOL0     H88531   9.326   9.232   9.649 -1.3212  2.0270  0.7297
  656MOL0     H88532   9.505   9.396   9.581 -0.0654  2.5710  0.5838
  656MOL0     H88533   9.368   9.446   9.665 -0.0002 -0.0460 -1.2899
  656MOL0     H88534   9.573   9.559   9.743 -0.2571  1.5430  1.5426
  656MOL0     H88535   9.647   9.396   9.783 -2.9655 -1.7983 -0.4102
  656MOL0     H88536   9.506   9.357   9.953  0.5342  0.2694  1.3047
  656MOL0     H88537   9.607   9.499   9.979  1.2830 -0.0408 -1.8054
  656MOL0     H88538   9.338   9.567   9.879  1.5245  3.4955 -0.3533
  656MOL0     H88539   9.436   9.638  10.014  2.9604  0.6164 -3.6841
  656MOL0     H88540   9.372   9.401  10.134 -1.4851 -1.4432 -1.1888
  656MOL0     H88541   9.261   9.391  10.002 -1.0171  0.4801  0.8213
  656MOL0     H88542   9.354   8.804   9.613  0.0856 -0.4343 -4.1963
  656MOL0     H88543   9.320   8.564   9.549  0.6541 -0.0548  0.1627
  656MOL0     H88544   9.588   8.059   9.847 -0.7147 -3.3931  3.0315
  656MOL0     H88545   9.552   7.828   9.825  1.8283  1.6221  1.2377
  656MOL0     H88546   8.291   7.068  10.088  1.1261 -2.5328 -1.4188
  656MOL0     H88547   8.355   6.857  10.137  0.4242  0.8539 -1.5102
  656MOL0     H88548   8.617   6.601  10.513  0.4765 -1.5624  0.9202
  656MOL0     H88549   8.755   6.415  10.590  0.2082 -0.7692 -0.5141
  656MOL0     H88550   8.754   6.059  10.363 -0.2733 -0.5099  1.5857
  656MOL0     H88551   8.878   6.125  10.251 -0.6738 -1.9704 -0.1604
  656MOL0     H88552   9.053   6.063  10.401 -1.4314  1.7775 -3.4896
  656MOL0     H88553   8.969   5.924  10.344  0.2000 -1.2875  0.6886
  656MOL0     H88554   8.917   6.052  10.621 -1.6616 -0.3233  0.6842
  656MOL0     H88555   9.038   5.926  10.581  1.0088  1.9105 -4.0288
  656MOL0     H88556   8.729   5.910  10.525  1.7175  2.9424 -1.3413
  656MOL0     H88557   8.813   5.855  10.678  1.0919  0.6270  0.0962
  656MOL0     H88558   8.903   5.540  10.415 -1.5232  0.2535 -3.3001
  656MOL0     H88559   8.762   6.288  10.166 -1.8680  1.5631 -2.7912
  656MOL0     H88560   8.661   6.482  10.092  0.5195 -0.5815 -1.0986
  657MOL0     O88561  11.067   5.344   6.868 -0.5962  0.1657  0.5298
  657MOL0     C88562  10.977   5.409   6.920  0.4943 -1.4960 -0.3152
  657MOL0     O88563  10.878   5.473   6.850  0.1882  0.3326  0.0852
  657MOL0     C88564  10.855   5.408   6.725 -0.8617  0.1568 -0.1493
  657MOL0     C88565  10.794   5.284   6.719  1.1193  0.5008  0.8139
  657MOL0     C88566  10.760   5.226   6.598  0.3541  0.5906  0.8856
  657MOL0     C88567  10.795   5.284   6.477  0.4875  0.3929  0.1723
  657MOL0     O88568  10.769   5.225   6.350 -0.4626 -0.7350 -0.2344
  657MOL0     C88569  10.727   5.087   6.352  0.3877 -0.5852 -0.7487
  657MOL0     C88570  10.782   5.005   6.241  0.1183 -0.5963 -0.4416
  657MOL0     C88571  10.721   4.864   6.235  0.1697 -0.0076 -0.8431
  657MOL0     C88572  10.718   4.804   6.093 -0.4524 -0.8032 -0.6646
  657MOL0     C88573  10.658   4.670   6.071 -0.9851 -0.4433 -0.4087
  657MOL0     C88574  10.646   4.641   5.919 -0.6203 -0.4624 -0.5514
  657MOL0     C88575  10.613   4.487   5.906  0.5964 -0.7199 -0.9259
  657MOL0     C88576  10.726   4.398   5.865  0.5354  0.5049  0.2632
  657MOL0     N88577  10.664   4.268   5.850 -0.0180 -0.0233 -0.1905
  657MOL0     C88578  10.653   4.166   5.947  0.5812  0.2230  0.2223
  657MOL0     C88579  10.584   4.069   5.886 -1.0939  0.2448  0.5266
  657MOL0     C88580  10.549   3.936   5.934  0.0968  0.9202 -0.1480
  657MOL0     C88581  10.670   3.833   5.908  0.0733  1.2578 -0.1431
  657MOL0     C88582  10.647   3.727   5.790  0.2101 -0.6107 -0.8674
  657MOL0     C88583  10.745   3.610   5.786 -0.4030 -0.1128 -0.3742
  657MOL0     O88584  10.732   3.551   5.661  0.4123  0.0196  0.4109
  657MOL0     C88585  10.799   3.436   5.632 -1.3609 -0.8601  0.4628
  657MOL0     C88586  10.749   3.358   5.523 -0.6668  0.2805  0.4803
  657MOL0     C88587  10.798   3.231   5.480 -0.2733 -0.1261 -0.6026
  657MOL0     C88588  10.729   3.180   5.357 -0.6359  0.0997 -0.4039
  657MOL0     C88589  10.907   3.174   5.552 -0.3361  0.3413  0.4924
  657MOL0     C88590  10.953   3.033   5.515  0.1878  0.7662 -0.6024
  657MOL0     O88591  11.008   2.959   5.631  0.0372 -0.0906 -0.3265
  657MOL0     C88592  11.033   2.822   5.607 -0.1477 -0.6414 -0.2184
  657MOL0     C88593  11.156   2.764   5.593 -0.8308 -0.0429  0.4634
  657MOL0     C88594  11.168   2.627   5.572 -0.4057  0.5494 -0.9354
  657MOL0     C88595  11.051   2.542   5.564 -0.4334  0.3088 -0.0174
  657MOL0     O88596  11.069   2.406   5.560  0.6994 -0.1734  0.0659
  657MOL0     C88597  10.973   2.319   5.498 -0.0374  0.0337 -1.5037
  657MOL0     C88598  10.945   2.210   5.598  1.1651  0.0436  0.1215
  657MOL0     C88599  10.834   2.105   5.546  0.1437 -0.1220 -0.9120
  657MOL0     C88600  10.688   2.154   5.565 -0.3948 -0.0668 -0.2239
  657MOL0     C88601  10.578   2.084   5.482  0.1290 -0.4191 -0.7462
  657MOL0     C88602  10.603   1.925   5.500 -0.0854  0.5187  0.8789
  657MOL0     C88603  10.518   1.832   5.397 -0.1474 -0.0398 -0.2246
  657MOL0     C88604  10.370   1.845   5.411  0.4990 -0.1264  0.2511
  657MOL0    Cl88605  10.309   1.840   5.574  0.1580  0.1905 -0.0978
  657MOL0     C88606  10.927   2.612   5.576 -0.3070  0.3247  0.7676
  657MOL0     C88607  10.914   2.746   5.596  0.8868  0.6455  0.4962
  657MOL0     O88608  10.950   2.997   5.399 -0.2431  0.3694 -0.5849
  657MOL0     C88609  10.954   3.242   5.666  0.6538  0.3308  0.7300
  657MOL0     C88610  10.898   3.371   5.708  0.1620 -0.9207 -0.7087
  657MOL0     N88611  10.566   4.107   5.753 -0.4316 -0.8165  0.9970
  657MOL0     N88612  10.616   4.222   5.729 -0.0045 -0.1180  0.5260
  657MOL0     C88613  10.859   5.403   6.479 -0.6335 -0.6827 -0.0130
  657MOL0     C88614  10.896   5.458   6.602  0.4066 -0.4407  0.6529
  657MOL0     C88615  10.983   5.444   7.067  0.3967 -0.2772  0.0285
  657MOL0     C88616  11.085   5.381   7.146 -0.0553  0.4894  0.3197
  657MOL0     C88617  11.097   5.397   7.284  0.8832  0.5847  0.4348
  657MOL0     C88618  11.007   5.481   7.350 -0.1734 -0.0152  0.0422
  657MOL0     O88619  11.021   5.478   7.487  0.8933  0.0554  0.0904
  657MOL0     C88620  10.934   5.555   7.571  1.2359  0.5241  0.8697
  657MOL0     C88621  10.940   5.492   7.713  0.2186  0.3984 -0.5393
  657MOL0     C88622  10.847   5.572   7.804 -0.1968 -0.8220 -0.5803
  657MOL0     C88623  10.908   5.711   7.820  0.0216  0.7314  0.5585
  657MOL0     C88624  10.844   5.782   7.936 -0.9452 -0.6639  0.2466
  657MOL0     C88625  10.782   5.843   8.021 -1.0824 -0.1809  0.3363
  657MOL0     C88626  10.906   5.551   7.277  0.5640  0.0849 -0.2747
  657MOL0     C88627  10.904   5.543   7.138  0.3986 -0.7480  0.8294
  657MOL0     H88628  10.770   5.247   6.819 -0.7419 -0.4314  0.0765
  657MOL0     H88629  10.697   5.137   6.595 -4.6629  3.7337  0.7075
  657MOL0     H88630  10.766   5.032   6.439  0.5664  1.2204  0.3729
  657MOL0     H88631  10.618   5.076   6.353  0.3346 -0.4441  1.4764
  657MOL0     H88632  10.757   5.052   6.146 -1.1629 -0.5899 -0.1103
  657MOL0     H88633  10.890   4.991   6.253  0.1737 -0.9419 -1.2446
  657MOL0     H88634  10.775   4.797   6.303 -3.2920 -2.2800 -0.0843
  657MOL0     H88635  10.619   4.866   6.274  0.5421  1.9872  0.1773
  657MOL0     H88636  10.673   4.879   6.028 -0.4930 -1.6362 -1.6171
  657MOL0     H88637  10.819   4.790   6.053 -1.1178 -2.0783 -2.0220
  657MOL0     H88638  10.723   4.598   6.122  0.6548  1.2098 -0.0541
  657MOL0     H88639  10.556   4.664   6.109 -1.8317  1.1115 -2.2490
  657MOL0     H88640  10.567   4.708   5.886  0.8702  1.3626 -0.5538
  657MOL0     H88641  10.740   4.668   5.870  0.4790 -1.6157  0.8225
  657MOL0     H88642  10.560   4.453   5.995 -1.4285 -2.6177 -2.7248
  657MOL0     H88643  10.526   4.481   5.840  0.6139 -1.2430 -0.9111
  657MOL0     H88644  10.794   4.401   5.951 -0.5484  1.6394  1.1230
  657MOL0     H88645  10.774   4.432   5.773 -2.2596 -1.5329 -2.1475
  657MOL0     H88646  10.701   4.172   6.044  0.6765 -0.7337  0.2485
  657MOL0     H88647  10.513   3.935   6.038  0.1097 -1.6175 -0.0986
  657MOL0     H88648  10.462   3.898   5.880  2.8518 -1.5516 -3.2332
  657MOL0     H88649  10.706   3.786   6.000 -0.5723  3.5279  1.3478
  657MOL0     H88650  10.759   3.889   5.878  2.3852 -0.2018  3.2984
  657MOL0     H88651  10.647   3.779   5.694 -1.4094  0.2398 -0.4470
  657MOL0     H88652  10.544   3.695   5.808  0.1976 -0.4882 -0.7115
  657MOL0     H88653  10.715   3.541   5.865  2.3507 -1.6086 -0.4919
  657MOL0     H88654  10.850   3.635   5.804 -0.1191 -1.7250  0.4774
  657MOL0     H88655  10.680   3.417   5.462 -0.7127  0.4881  0.7333
  657MOL0     H88656  10.718   3.071   5.355 -0.1022 -0.0641  2.2058
  657MOL0     H88657  10.626   3.213   5.347 -1.6402 -1.3292  3.4403
  657MOL0     H88658  10.787   3.208   5.269  0.8598  1.3337  0.9067
  657MOL0     H88659  11.248   2.821   5.602  0.3687 -2.0056  1.1834
  657MOL0     H88660  11.267   2.584   5.574 -1.0180 -0.9317 -1.3702
  657MOL0     H88661  10.882   2.374   5.473 -0.8938  0.4829  2.1099
  657MOL0     H88662  11.021   2.287   5.405  0.7370 -1.9773 -0.4814
  657MOL0     H88663  11.028   2.143   5.624  1.0604  0.7120  2.4166
  657MOL0     H88664  10.902   2.261   5.685 -0.7674  0.0494 -0.8041
  657MOL0     H88665  10.859   2.016   5.606 -2.1612 -0.3161 -0.1614
  657MOL0     H88666  10.855   2.077   5.442 -0.3051 -0.8913 -0.8076
  657MOL0     H88667  10.660   2.155   5.671  0.3492  0.7705 -0.0185
  657MOL0     H88668  10.681   2.260   5.537 -1.0358  0.4525  1.7590
  657MOL0     H88669  10.567   2.121   5.379 -2.5115 -2.8701 -1.4833
  657MOL0     H88670  10.488   2.113   5.536 -1.3879 -3.2058 -1.5860
  657MOL0     H88671  10.704   1.908   5.461 -1.3133 -1.8951 -1.5917
  657MOL0     H88672  10.592   1.899   5.606  1.3002  0.3508  1.0034
  657MOL0     H88673  10.548   1.728   5.417 -0.6561 -0.6528 -2.3336
  657MOL0     H88674  10.551   1.849   5.294 -1.2184  5.1090  0.0232
  657MOL0     H88675  10.319   1.766   5.354  0.0750  0.3811 -0.0800
  657MOL0     H88676  10.333   1.939   5.369 -0.1673 -0.7482 -0.6203
  657MOL0     H88677  10.837   2.554   5.589 -0.4816  0.2079 -0.7404
  657MOL0     H88678  10.818   2.795   5.608 -0.0849 -1.1246  0.2890
  657MOL0     H88679  11.028   3.190   5.726  0.0884  0.9772  2.0268
  657MOL0     H88680  10.929   3.424   5.797  0.4578  1.4203 -2.1238
  657MOL0     H88681  10.894   5.460   6.394 -1.3508  1.1604  0.8640
  657MOL0     H88682  10.945   5.555   6.613 -2.2954  0.9932  0.8167
  657MOL0     H88683  11.155   5.311   7.101 -0.8562  0.3456 -0.7376
  657MOL0     H88684  11.167   5.338   7.341 -2.2543 -2.2618  1.6781
  657MOL0     H88685  10.972   5.657   7.576 -0.1805  1.1042  0.1763
  657MOL0     H88686  10.831   5.557   7.534  2.3536  1.3417 -2.5975
  657MOL0     H88687  11.042   5.487   7.752  0.0310 -3.6601 -0.1467
  657MOL0     H88688  10.907   5.388   7.722  0.5025  0.4385  1.7142
  657MOL0     H88689  10.841   5.515   7.897  0.8388 -1.1859 -0.7270
  657MOL0     H88690  10.750   5.580   7.754 -0.3814  1.2175 -0.0007
  657MOL0     H88691  10.891   5.763   7.725 -1.3514 -2.0271 -0.8468
  657MOL0     H88692  11.013   5.699   7.848  0.0923  0.8120  0.3273
  657MOL0     H88693  10.739   5.895   8.104 -3.0373 -1.0377 -0.0701
  657MOL0     H88694  10.825   5.615   7.311  1.3858  0.6308  0.7234
  657MOL0     H88695  10.842   5.602   7.071 -0.7226 -1.2479  1.4028
  658MOL0     O88696   1.282   2.862  10.888 -0.3126 -0.9086 -0.4603
  658MOL0     C88697   1.277   2.960  10.963 -0.4383  0.5788  1.1786
  658MOL0     O88698   1.340   3.074  10.939 -0.0279  0.1670 -0.3026
  658MOL0     C88699   1.442   3.085  10.846 -0.3032  0.4311  0.0020
  658MOL0     C88700   1.570   3.122  10.885  0.0943  0.1219 -0.0724
  658MOL0     C88701   1.666   3.146  10.792  0.5894  0.7050  0.2730
  658MOL0     C88702   1.648   3.115  10.661  0.8436  0.2294  0.3030
  658MOL0     O88703   1.752   3.136  10.582 -0.2193  0.3959  0.4596
  658MOL0     C88704   1.781   3.037  10.479 -0.3902 -0.4711 -0.5262
  658MOL0     C88705   1.781   3.103  10.338  0.3744  0.2387  0.1321
  658MOL0     C88706   1.821   3.015  10.217  0.4164  0.1526 -0.3177
  658MOL0     C88707   1.725   2.895  10.193 -1.3698 -0.3039 -0.5672
  658MOL0     C88708   1.578   2.923  10.164 -0.5087  0.4995  0.3073
  658MOL0     C88709   1.543   3.011  10.036  0.0914  0.1910  0.2819
  658MOL0     C88710   1.405   3.049   9.988 -0.4999 -0.1428  0.6457
  658MOL0     C88711   1.311   2.930   9.971  0.3065 -0.1859 -0.2868
  658MOL0     N88712   1.331   2.870   9.836  0.6256 -0.8498  0.7896
  658MOL0     C88713   1.324   2.912   9.707  0.2142  0.2145  0.6065
  658MOL0     C88714   1.350   2.802   9.632 -0.8742  0.3402  0.3497
  658MOL0     C88715   1.348   2.785   9.487 -1.0707 -0.5705  0.3769
  658MOL0     C88716   1.206   2.777   9.426 -0.6973  0.3727 -0.3135
  658MOL0     C88717   1.130   2.913   9.444  0.7713 -0.3475  0.1067
  658MOL0     C88718   1.000   2.925   9.360 -0.0063 -0.4844  1.1829
  658MOL0     O88719   0.955   3.064   9.366 -0.1003 -0.5665  0.2180
  658MOL0     C88720   0.820   3.074   9.366 -0.7118  1.1750  0.2174
  658MOL0     C88721   0.746   3.056   9.250  0.0715  0.7460 -0.0114
  658MOL0     C88722   0.613   3.089   9.240  0.2896 -0.2664 -0.2936
  658MOL0     C88723   0.551   3.045   9.109 -0.6089 -0.5814 -0.2808
  658MOL0     C88724   0.551   3.153   9.349 -0.3461 -0.0695 -0.0014
  658MOL0     C88725   0.406   3.179   9.357  0.4318 -1.4631  0.5149
  658MOL0     O88726   0.369   3.257   9.464  0.1468  0.3313  0.7714
  658MOL0     C88727   0.239   3.304   9.468 -0.7278 -0.4567 -1.1730
  658MOL0     C88728   0.142   3.240   9.555  0.4346 -0.5557  0.2814
  658MOL0     C88729   0.009   3.272   9.556  0.5545  0.0118  0.1925
  658MOL0     C88730  -0.028   3.379   9.479 -0.9551 -0.0921  0.4814
  658MOL0     O88731  -0.161   3.396   9.474  0.3503 -0.3974  1.1389
  658MOL0     C88732  -0.218   3.486   9.374 -0.2624 -0.3678  0.0222
  658MOL0     C88733  -0.364   3.448   9.356 -0.0403 -0.1082 -0.0585
  658MOL0     C88734  -0.412   3.530   9.240  0.2325 -0.1477  0.3122
  658MOL0     C88735  -0.549   3.475   9.187 -0.8725 -0.3238  0.2815
  658MOL0     C88736  -0.601   3.560   9.069 -1.1647 -1.1508 -0.7224
  658MOL0     C88737  -0.692   3.469   8.987 -0.2859  0.7269 -0.2209
  658MOL0     C88738  -0.769   3.535   8.860 -1.4392  0.0633 -0.1604
  658MOL0     C88739  -0.883   3.453   8.806  0.1748  0.7098 -0.4746
  658MOL0    Cl88740  -0.857   3.275   8.751 -0.2443 -0.2288 -0.4404
  658MOL0     C88741   0.065   3.459   9.398  0.7535 -0.1461 -1.3295
  658MOL0     C88742   0.196   3.426   9.409 -1.0325 -0.8796 -0.8349
  658MOL0     O88743   0.330   3.126   9.282 -0.4075  0.7209  0.0651
  658MOL0     C88744   0.622   3.175   9.472  0.0146  0.3306  1.1354
  658MOL0     C88745   0.759   3.135   9.481 -0.3034  0.8640  0.9985
  658MOL0     N88746   1.377   2.696   9.718 -0.2741  0.0895 -0.5843
  658MOL0     N88747   1.359   2.726   9.836  0.7475  0.1478 -0.4403
  658MOL0     C88748   1.529   3.049  10.623  0.2915  0.1666 -0.5458
  658MOL0     C88749   1.423   3.049  10.714  1.4466 -0.3103  0.4284
  658MOL0     C88750   1.212   2.947  11.093  1.0045  0.5000  0.0206
  658MOL0     C88751   1.180   2.817  11.138 -0.5682 -0.2643 -0.1064
  658MOL0     C88752   1.116   2.800  11.250 -0.0345  0.3648  0.4432
  658MOL0     C88753   1.088   2.909  11.335 -0.5617 -0.4807 -0.8092
  658MOL0     O88754   1.044   2.878  11.459  0.0346  0.5815 -0.1903
  658MOL0     C88755   0.973   2.972  11.544 -0.2037 -0.0738 -0.2035
  658MOL0     C88756   0.817   2.947  11.518  0.6815  0.1178 -0.1113
  658MOL0     C88757   0.772   2.816  11.574  0.1368  0.5207  0.1237
  658MOL0     C88758   0.626   2.770  11.544  0.4154 -1.2631 -0.1544
  658MOL0     C88759   0.517   2.866  11.552  0.4386 -0.3720  0.7134
  658MOL0     C88760   0.420   2.938  11.556 -0.1805  0.8937 -0.4351
  658MOL0     C88761   1.115   3.039  11.288  0.2846 -0.2626 -1.2687
  658MOL0     C88762   1.170   3.058  11.164 -0.6644 -0.5312  0.0830
  658MOL0     H88763   1.579   3.143  10.991  0.1877 -4.0308  0.8941
  658MOL0     H88764   1.761   3.192  10.819  1.8674 -2.0048  0.7442
  658MOL0     H88765   1.884   3.009  10.504 -0.7265 -0.3218  1.1528
  658MOL0     H88766   1.729   2.941  10.475  1.6684 -1.7324  0.9813
  658MOL0     H88767   1.687   3.152  10.313  2.0536  2.0309 -3.4966
  658MOL0     H88768   1.854   3.184  10.338  0.5176  0.1583  2.0768
  658MOL0     H88769   1.836   3.068  10.122  1.5256 -2.5140 -1.7350
  658MOL0     H88770   1.922   2.975  10.232 -0.2117 -1.1597  0.6129
  658MOL0     H88771   1.771   2.836  10.113  0.9123  1.8939 -0.9859
  658MOL0     H88772   1.729   2.835  10.284  2.8561  1.0992  0.3812
  658MOL0     H88773   1.530   2.827  10.144 -1.3003  0.4092  2.4436
  658MOL0     H88774   1.538   2.968  10.255  0.4386 -0.7100  1.3539
  658MOL0     H88775   1.605   3.101  10.033  2.8358 -1.4398  2.6304
  658MOL0     H88776   1.587   2.951   9.956  0.2017  0.2231  0.3188
  658MOL0     H88777   1.365   3.111  10.068 -0.2390  0.5065  0.2746
  658MOL0     H88778   1.399   3.117   9.903 -0.4889 -0.1498  0.6385
  658MOL0     H88779   1.205   2.957   9.983 -0.4701 -2.8589 -0.4010
  658MOL0     H88780   1.328   2.852  10.045 -2.6007 -2.2169 -1.5326
  658MOL0     H88781   1.302   3.008   9.660 -0.3342 -2.1795 -4.7326
  658MOL0     H88782   1.384   2.870   9.428  2.2938 -1.0563  1.4964
  658MOL0     H88783   1.407   2.695   9.466 -1.5919 -0.5518 -1.3479
  658MOL0     H88784   1.159   2.698   9.485 -2.1115  2.5514  1.6968
  658MOL0     H88785   1.226   2.748   9.322  3.1190  1.6638 -0.0852
  658MOL0     H88786   1.194   2.992   9.404  0.4160  0.3424  0.8806
  658MOL0     H88787   1.101   2.929   9.548 -2.2785 -1.0213 -0.5316
  658MOL0     H88788   0.936   2.849   9.405  1.4382  0.4141  5.1714
  658MOL0     H88789   1.009   2.900   9.254 -1.8405  1.4163  0.5115
  658MOL0     H88790   0.799   3.014   9.166  2.1076 -0.6848  1.8682
  658MOL0     H88791   0.443   3.033   9.094 -0.4163  0.1592 -2.7597
  658MOL0     H88792   0.563   3.120   9.030  1.5626 -1.8949 -1.2712
  658MOL0     H88793   0.606   2.960   9.069 -3.2261 -1.6079 -2.0123
  658MOL0     H88794   0.168   3.151   9.613  1.2578 -1.6694 -1.6851
  658MOL0     H88795  -0.051   3.225   9.633 -0.7089  0.2947 -0.6036
  658MOL0     H88796  -0.220   3.590   9.406 -1.8781 -1.0284  2.3484
  658MOL0     H88797  -0.164   3.477   9.279 -0.9473  0.9304 -0.5093
  658MOL0     H88798  -0.363   3.340   9.339  1.0645  0.1716 -2.1689
  658MOL0     H88799  -0.423   3.458   9.448 -0.4605 -1.9163 -0.0952
  658MOL0     H88800  -0.342   3.526   9.156  1.0160  4.2063  0.5575
  658MOL0     H88801  -0.416   3.634   9.272 -0.2514 -0.5352  1.6021
  658MOL0     H88802  -0.531   3.374   9.149 -1.6387 -1.8871  3.7422
  658MOL0     H88803  -0.632   3.459   9.256  0.6061 -3.6999  1.5021
  658MOL0     H88804  -0.518   3.600   9.009 -2.4037  1.5743 -0.8092
  658MOL0     H88805  -0.651   3.654   9.096 -0.4467 -1.1251  0.5446
  658MOL0     H88806  -0.630   3.393   8.938  0.4612 -0.1450  1.9459
  658MOL0     H88807  -0.768   3.415   9.044 -3.5710  3.2700 -1.8702
  658MOL0     H88808  -0.690   3.534   8.785 -1.1578 -2.5293  0.0596
  658MOL0     H88809  -0.806   3.635   8.881 -1.1642 -0.3572  2.9185
  658MOL0     H88810  -0.919   3.511   8.722  1.4922  1.8034 -0.3140
  658MOL0     H88811  -0.956   3.444   8.887 -0.7355  4.2818 -0.7396
  658MOL0     H88812   0.034   3.548   9.344 -3.7269 -1.2202 -0.9098
  658MOL0     H88813   0.267   3.491   9.359 -2.0667  0.4490 -0.6263
  658MOL0     H88814   0.566   3.207   9.559  0.2596 -0.2392  1.5053
  658MOL0     H88815   0.822   3.131   9.569  0.2475  2.0995  0.6841
  658MOL0     H88816   1.502   3.017  10.522  0.2750  0.9308 -0.7909
  658MOL0     H88817   1.326   3.012  10.685  0.0087  1.2310  2.9480
  658MOL0     H88818   1.192   2.725  11.081  2.3448  1.3038 -2.3098
  658MOL0     H88819   1.090   2.702  11.286 -1.4005 -0.4880 -2.5495
  658MOL0     H88820   1.005   2.965  11.648  1.7459  2.5976 -0.5140
  658MOL0     H88821   1.000   3.074  11.514  1.1531 -0.6752 -1.1053
  658MOL0     H88822   0.798   2.958  11.411 -1.3876  0.7525  0.2615
  658MOL0     H88823   0.753   3.018  11.571 -0.3313 -1.1803  0.4851
  658MOL0     H88824   0.791   2.794  11.680  0.6046 -0.0545 -0.0701
  658MOL0     H88825   0.830   2.741  11.520 -3.7698 -0.3393 -3.3834
  658MOL0     H88826   0.601   2.702  11.625 -2.2092 -0.7918 -0.4930
  658MOL0     H88827   0.630   2.725  11.444 -1.3318  1.4884 -1.5814
  658MOL0     H88828   0.341   3.010  11.541 -0.9634  0.2404  0.4175
  658MOL0     H88829   1.086   3.126  11.345  1.4054 -1.3662  1.1354
  658MOL0     H88830   1.200   3.153  11.122 -1.5945 -0.3706 -0.2486
  659MOL0     O88831  10.198   4.981   0.706 -0.0837  0.1837  0.7879
  659MOL0     C88832  10.126   5.070   0.740 -1.1106  0.0305  0.2044
  659MOL0     O88833  10.164   5.171   0.817 -0.6920 -0.3154 -1.1282
  659MOL0     C88834  10.300   5.175   0.857  0.6301  0.2691  0.5810
  659MOL0     C88835  10.360   5.294   0.844 -1.4482 -0.0520 -0.2115
  659MOL0     C88836  10.504   5.308   0.873  0.9910 -0.2312  1.0093
  659MOL0     C88837  10.577   5.197   0.925 -0.6013  0.6654  0.0085
  659MOL0     O88838  10.712   5.216   0.952 -0.3977  0.0136 -0.4081
  659MOL0     C88839  10.754   5.152   1.083  0.6411  0.0048 -0.4075
  659MOL0     C88840  10.852   5.035   1.067  0.4534  0.0671  0.5390
  659MOL0     C88841  10.993   5.068   1.017 -0.0597 -0.2240 -0.0524
  659MOL0     C88842  11.074   4.940   1.011  0.2773  0.4865  0.7167
  659MOL0     C88843  11.130   4.911   1.150  0.2333  0.2807  0.2115
  659MOL0     C88844  11.229   4.795   1.136 -0.2340  0.2292  0.5937
  659MOL0     C88845  11.332   4.804   1.245 -0.4593 -0.4395 -0.6352
  659MOL0     C88846  11.405   4.676   1.266  0.9168  0.0627 -0.0004
  659MOL0     N88847  11.510   4.654   1.158 -0.6047 -0.3345  0.2446
  659MOL0     C88848  11.635   4.714   1.148 -0.3957 -0.6492  0.0905
  659MOL0     C88849  11.688   4.675   1.030 -1.4060  0.4369 -0.2201
  659MOL0     C88850  11.821   4.729   0.990  0.1398 -0.1863  0.9378
  659MOL0     C88851  11.832   4.757   0.839  0.8132 -0.4571  0.6293
  659MOL0     C88852  11.974   4.826   0.819 -0.3808 -0.5868 -0.2630
  659MOL0     C88853  12.006   4.856   0.670  0.2953  0.2966  0.7356
  659MOL0     O88854  12.111   4.952   0.656 -0.5981 -0.4290  0.7387
  659MOL0     C88855  12.148   4.990   0.531  0.2285  0.2262  0.2473
  659MOL0     C88856  12.142   4.916   0.415  0.6342 -0.0398 -1.0259
  659MOL0     C88857  12.181   4.963   0.290  0.1138  0.6301 -0.7520
  659MOL0     C88858  12.179   4.871   0.169 -0.0425  0.1982 -0.6260
  659MOL0     C88859  12.218   5.100   0.283 -1.0707  0.4856  0.2535
  659MOL0     C88860  12.263   5.153   0.146  0.2632  0.3266 -0.0103
  659MOL0     O88861  12.275   5.288   0.150 -0.2395 -0.6408 -0.0887
  659MOL0     C88862  12.280   5.369   0.038 -0.3867  0.0792  0.3500
  659MOL0     C88863  12.180   5.366  -0.060  0.1355 -0.1174 -0.7289
  659MOL0     C88864  12.186   5.453  -0.169 -0.2820  0.1671  0.0753
  659MOL0     C88865  12.273   5.558  -0.177 -1.0349 -1.2313 -0.1541
  659MOL0     O88866  12.268   5.659  -0.273  0.1097 -0.1745 -0.2150
  659MOL0     C88867  12.307   5.795  -0.237 -0.0266  0.3661  0.8248
  659MOL0     C88868  12.451   5.828  -0.284  0.8712 -0.2210 -0.0164
  659MOL0     C88869  12.462   5.835  -0.436 -0.2604 -0.2307 -0.0654
  659MOL0     C88870  12.609   5.846  -0.481 -0.0321  0.3743  0.1010
  659MOL0     C88871  12.681   5.974  -0.448 -0.5045  0.8819  0.1461
  659MOL0     C88872  12.817   5.978  -0.518 -0.9308 -0.1525  0.3118
  659MOL0     C88873  12.895   6.098  -0.462 -0.3642 -0.0944  0.3247
  659MOL0     C88874  13.015   6.130  -0.563 -0.0689 -0.4977 -0.5045
  659MOL0    Cl88875  13.148   6.006  -0.562  0.3879  0.0289 -0.0341
  659MOL0     C88876  12.376   5.567  -0.078  0.4096 -0.0312 -0.0309
  659MOL0     C88877  12.373   5.471   0.026  0.2449 -0.1192  0.8164
  659MOL0     O88878  12.288   5.089   0.045  0.2840 -0.2057 -0.4482
  659MOL0     C88879  12.212   5.181   0.396  0.4690  0.3604 -0.2736
  659MOL0     C88880  12.180   5.124   0.516  0.3143 -0.0462 -0.7295
  659MOL0     N88881  11.606   4.581   0.977  0.3294 -0.7183  0.0870
  659MOL0     N88882  11.503   4.566   1.058 -0.6173 -0.1741 -0.1438
  659MOL0     C88883  10.508   5.075   0.943  0.0872  0.6635 -0.5995
  659MOL0     C88884  10.374   5.063   0.910  1.1079 -0.0869  0.9283
  659MOL0     C88885   9.988   5.063   0.683 -1.2437 -0.5250 -0.2911
  659MOL0     C88886   9.953   4.959   0.603  0.4442 -0.5613  0.3604
  659MOL0     C88887   9.828   4.960   0.544  0.2091  0.2164 -0.4793
  659MOL0     C88888   9.734   5.062   0.572 -0.4941  0.1744 -0.2534
  659MOL0     O88889   9.612   5.050   0.510 -0.5687  0.4333 -0.0336
  659MOL0     C88890   9.527   5.169   0.481 -0.9604  0.2207 -0.7607
  659MOL0     C88891   9.549   5.233   0.348  0.4496  0.8800  0.1100
  659MOL0     C88892   9.522   5.133   0.234  0.2156  0.2716 -0.0801
  659MOL0     C88893   9.602   5.166   0.109  0.4499  0.2878  0.6326
  659MOL0     C88894   9.747   5.129   0.123 -0.1079 -0.2325  0.8618
  659MOL0     C88895   9.860   5.093   0.115  0.5568  0.6468  0.3245
  659MOL0     C88896   9.780   5.173   0.641  0.2299 -0.1920 -0.4564
  659MOL0     C88897   9.902   5.171   0.702 -0.0485  1.2866 -1.1594
  659MOL0     H88898  10.316   5.383   0.800  0.3497  0.5236 -0.9588
  659MOL0     H88899  10.554   5.404   0.866 -0.8053  0.7195  0.5008
  659MOL0     H88900  10.793   5.232   1.146 -0.9314 -0.2852  1.0041
  659MOL0     H88901  10.663   5.124   1.138 -0.0370  0.7962 -1.1010
  659MOL0     H88902  10.852   4.986   1.164 -1.4968 -0.0478  0.5227
  659MOL0     H88903  10.805   4.957   1.006  0.9364 -0.3354  0.6798
  659MOL0     H88904  10.993   5.116   0.918 -0.4756 -0.4727 -0.1781
  659MOL0     H88905  11.050   5.139   1.077 -2.9518  3.2594 -1.0097
  659MOL0     H88906  11.015   4.856   0.973 -1.5090  1.7644  0.5071
  659MOL0     H88907  11.149   4.958   0.933 -1.4998  4.1223 -0.3761
  659MOL0     H88908  11.171   5.001   1.196 -1.6368  0.2892  2.0109
  659MOL0     H88909  11.047   4.875   1.211 -1.5049  3.0977 -0.3041
  659MOL0     H88910  11.177   4.699   1.144  2.0099 -1.5104 -3.1016
  659MOL0     H88911  11.269   4.801   1.034 -0.7579  2.2779  0.4663
  659MOL0     H88912  11.401   4.887   1.230 -0.9963  0.4609  1.5379
  659MOL0     H88913  11.293   4.829   1.344  4.4716  2.1520  0.9631
  659MOL0     H88914  11.341   4.588   1.276 -0.3545  1.0502  1.0209
  659MOL0     H88915  11.445   4.692   1.366 -1.3176 -1.9974  1.3196
  659MOL0     H88916  11.665   4.799   1.208  2.2535 -1.3993 -0.0402
  659MOL0     H88917  11.835   4.818   1.052 -0.0245  0.5423 -0.0525
  659MOL0     H88918  11.904   4.667   1.025 -0.5749 -1.4168  0.5325
  659MOL0     H88919  11.754   4.814   0.788  1.3686 -2.2670 -2.4777
  659MOL0     H88920  11.813   4.660   0.792  0.9169 -0.9570  1.5895
  659MOL0     H88921  12.048   4.763   0.868 -1.3756  0.1396  2.3319
  659MOL0     H88922  11.978   4.923   0.869 -2.7025  0.9566 -2.7484
  659MOL0     H88923  11.915   4.895   0.623 -0.1601 -0.5981  0.8651
  659MOL0     H88924  12.046   4.764   0.629 -0.5675  1.1455 -2.2328
  659MOL0     H88925  12.112   4.812   0.421  3.5520 -0.8862  2.7682
  659MOL0     H88926  12.126   4.925   0.090  3.0582  0.6670 -2.5774
  659MOL0     H88927  12.284   4.856   0.140 -0.3740  1.6217 -2.8368
  659MOL0     H88928  12.132   4.774   0.189 -2.6529  1.4686 -0.3171
  659MOL0     H88929  12.107   5.287  -0.046  1.0293 -0.9534 -0.5988
  659MOL0     H88930  12.111   5.444  -0.247 -0.3116 -2.9424  0.3519
  659MOL0     H88931  12.240   5.874  -0.273  1.6289  1.2457 -0.4474
  659MOL0     H88932  12.299   5.805  -0.128  0.3196 -0.7788  0.9737
  659MOL0     H88933  12.474   5.924  -0.237 -0.5888  0.3391 -0.3913
  659MOL0     H88934  12.528   5.755  -0.256  2.1813 -0.8514 -4.5099
  659MOL0     H88935  12.398   5.915  -0.475 -0.8238 -0.5985  0.0903
  659MOL0     H88936  12.420   5.739  -0.467 -0.7802  0.6654 -2.2948
  659MOL0     H88937  12.672   5.769  -0.433 -2.0038 -0.5574  1.3081
  659MOL0     H88938  12.609   5.836  -0.590  2.3188 -0.8279  0.1352
  659MOL0     H88939  12.693   5.988  -0.340 -0.6592  0.2716  0.2435
  659MOL0     H88940  12.615   6.053  -0.485  0.9633  2.3004  0.4475
  659MOL0     H88941  12.871   5.884  -0.507  1.3414  0.8612 -1.3529
  659MOL0     H88942  12.796   5.985  -0.625 -1.1397  0.6659  0.4002
  659MOL0     H88943  12.933   6.081  -0.361  0.0597  1.2647  0.4162
  659MOL0     H88944  12.827   6.184  -0.457 -1.9683 -1.2347 -0.9146
  659MOL0     H88945  13.068   6.222  -0.538  2.0921 -2.1561  1.4373
  659MOL0     H88946  12.974   6.142  -0.664 -1.3669  0.5095  0.1160
  659MOL0     H88947  12.462   5.633  -0.083 -1.6886  2.9653  0.1130
  659MOL0     H88948  12.458   5.478   0.093  0.2021  0.2480  0.8354
  659MOL0     H88949  12.241   5.284   0.384  1.0454  0.1230 -0.9751
  659MOL0     H88950  12.170   5.175   0.611 -2.4116 -4.1197  1.4855
  659MOL0     H88951  10.556   4.984   0.977  1.2917  1.4687 -0.0800
  659MOL0     H88952  10.323   4.968   0.915 -3.4966  2.0570  0.0153
  659MOL0     H88953  10.019   4.876   0.580  3.2539  1.3064  1.1083
  659MOL0     H88954   9.816   4.882   0.470 -1.0426 -0.2906  0.2233
  659MOL0     H88955   9.423   5.135   0.483 -1.3915  1.4340  2.0411
  659MOL0     H88956   9.537   5.237   0.566 -1.6744  0.5483 -0.9290
  659MOL0     H88957   9.656   5.251   0.340  0.4861 -0.0788 -2.7889
  659MOL0     H88958   9.495   5.325   0.325 -2.2782 -1.1129 -2.1670
  659MOL0     H88959   9.414   5.149   0.220  0.3311  5.8008  2.4971
  659MOL0     H88960   9.533   5.030   0.268 -0.7192  0.5219  1.0714
  659MOL0     H88961   9.599   5.273   0.086 -0.2933  0.1904  0.2589
  659MOL0     H88962   9.547   5.111   0.032  0.1310  1.6904 -0.1749
  659MOL0     H88963   9.965   5.074   0.109  0.5162  0.2782  0.7548
  659MOL0     H88964   9.717   5.261   0.643 -1.1201 -1.1131 -0.6222
  659MOL0     H88965   9.914   5.263   0.759 -0.4114  2.1379 -2.4266
  660MOL0     O88966   3.464   1.903   1.619 -0.1555  0.6101 -0.5502
  660MOL0     C88967   3.501   1.984   1.535 -0.0393  0.2213  0.0683
  660MOL0     O88968   3.622   2.046   1.530  0.4016  0.2391  0.3910
  660MOL0     C88969   3.693   2.052   1.650 -0.2593  0.1694 -0.2913
  660MOL0     C88970   3.636   2.065   1.776  0.3182  0.2934 -1.1817
  660MOL0     C88971   3.710   2.105   1.886 -0.6926 -0.2638  0.2024
  660MOL0     C88972   3.852   2.112   1.879 -0.9505 -0.4110  1.0440
  660MOL0     O88973   3.937   2.153   1.981  0.7638  0.6353 -0.1176
  660MOL0     C88974   3.991   2.029   2.039 -0.6628 -0.4117 -0.1653
  660MOL0     C88975   3.898   1.976   2.154 -0.6024  0.7057 -0.3119
  660MOL0     C88976   3.844   1.831   2.139 -0.2485 -0.0743 -0.1572
  660MOL0     C88977   3.941   1.726   2.188 -0.6973  0.0999  0.2443
  660MOL0     C88978   4.079   1.704   2.104 -0.5468  0.1423 -0.1708
  660MOL0     C88979   4.195   1.627   2.176  0.4876  0.7757  0.1687
  660MOL0     C88980   4.325   1.586   2.087  0.7926 -0.1211  0.1093
  660MOL0     C88981   4.294   1.458   2.001 -0.1821 -1.3505  0.6779
  660MOL0     N88982   4.403   1.446   1.913 -0.1903  0.1491 -0.8344
  660MOL0     C88983   4.532   1.430   1.941 -0.0571 -0.3406  0.7051
  660MOL0     C88984   4.586   1.432   1.815 -1.8947  0.3979  0.0368
  660MOL0     C88985   4.729   1.412   1.773  0.6231  0.1438 -0.3705
  660MOL0     C88986   4.776   1.275   1.794 -0.0542  0.3997  0.2636
  660MOL0     C88987   4.694   1.172   1.717  1.1833  0.1238 -0.4644
  660MOL0     C88988   4.636   1.053   1.796 -0.0727 -0.3038  0.2868
  660MOL0     O88989   4.561   1.110   1.903 -0.0151  0.2624  0.5130
  660MOL0     C88990   4.437   1.055   1.931 -0.4483  0.0688  0.6582
  660MOL0     C88991   4.310   1.108   1.899  0.4151  0.2589  1.1218
  660MOL0     C88992   4.181   1.039   1.930 -1.0684 -0.3945  0.1748
  660MOL0     C88993   4.064   1.115   1.879  0.6005  0.2969  0.6371
  660MOL0     C88994   4.190   0.917   2.007 -0.1952 -0.8281  0.9368
  660MOL0     C88995   4.066   0.851   2.055  0.3114  0.9050  0.5670
  660MOL0     O88996   4.090   0.780   2.175  0.7115 -0.0485  0.5500
  660MOL0     C88997   3.978   0.741   2.241 -0.3348 -0.5849 -0.2444
  660MOL0     C88998   3.886   0.837   2.265  0.8425  0.2472  0.0888
  660MOL0     C88999   3.763   0.801   2.329  0.2048 -0.1710 -0.6668
  660MOL0     C89000   3.738   0.662   2.362 -0.7455 -0.1494  0.0116
  660MOL0     O89001   3.621   0.628   2.422  0.8674 -0.5486  0.0926
  660MOL0     C89002   3.636   0.589   2.559  1.1788  0.0279 -0.3922
  660MOL0     C89003   3.507   0.566   2.638  0.8932  0.6391  0.1437
  660MOL0     C89004   3.538   0.525   2.783  0.7829 -0.2297 -0.1635
  660MOL0     C89005   3.564   0.649   2.877 -0.0640  0.1530  0.3949
  660MOL0     C89006   3.535   0.634   3.030 -0.7086  0.0305  0.6145
  660MOL0     C89007   3.602   0.744   3.110 -0.0608  0.7906 -0.5548
  660MOL0     C89008   3.567   0.728   3.264 -1.4667  0.7900  0.3415
  660MOL0     C89009   3.668   0.817   3.338 -0.4187 -0.0602 -0.2917
  660MOL0    Cl89010   3.837   0.753   3.325  0.1626 -0.1862 -0.4470
  660MOL0     C89011   3.842   0.566   2.348 -0.3235  0.4014  0.8261
  660MOL0     C89012   3.962   0.606   2.287  1.6096 -0.4342 -0.4203
  660MOL0     O89013   3.963   0.850   1.995 -0.3587 -0.4442 -0.5577
  660MOL0     C89014   4.320   0.863   2.033  0.0112  0.4236 -0.5340
  660MOL0     C89015   4.436   0.934   1.999  0.6518 -0.2903 -1.0065
  660MOL0     N89016   4.488   1.459   1.720 -0.8624  0.4233  0.2264
  660MOL0     N89017   4.377   1.476   1.777  0.7020 -0.2254 -0.0079
  660MOL0     C89018   3.908   2.088   1.749 -0.0708  0.6876  0.1054
  660MOL0     C89019   3.832   2.059   1.635  0.6368  0.1041 -0.5709
  660MOL0     C89020   3.403   1.995   1.426  0.1515 -0.4267  0.1982
  660MOL0     C89021   3.434   2.087   1.319  0.1992 -0.0051 -0.2612
  660MOL0     C89022   3.360   2.084   1.200 -0.5762 -0.6399 -0.1117
  660MOL0     C89023   3.235   2.016   1.195  0.0931 -0.2011 -0.3237
  660MOL0     O89024   3.143   2.023   1.095  0.0927  0.4224  0.7882
  660MOL0     C89025   3.100   2.156   1.053 -0.2204 -0.6484 -1.0015
  660MOL0     C89026   3.172   2.198   0.928  1.0454  0.1304 -0.2445
  660MOL0     C89027   3.155   2.348   0.922 -0.1943  0.3334 -0.3498
  660MOL0     C89028   3.206   2.403   0.785  0.2579  0.0920  1.0950
  660MOL0     C89029   3.293   2.519   0.820  0.0893  0.7167  0.6635
  660MOL0     C89030   3.368   2.613   0.842 -0.7755  0.8753  0.1359
  660MOL0     C89031   3.195   1.942   1.305 -0.2632  0.5118 -0.0454
  660MOL0     C89032   3.283   1.922   1.415 -0.6143 -0.0698 -0.4884
  660MOL0     H89033   3.529   2.052   1.786  0.6776 -2.3360  0.0969
  660MOL0     H89034   3.672   2.112   1.988  1.9284 -1.3568  1.3543
  660MOL0     H89035   4.000   1.948   1.966 -1.3943  1.1951 -2.1250
  660MOL0     H89036   4.091   2.035   2.083 -0.3350 -0.8995 -0.8135
  660MOL0     H89037   3.942   1.984   2.254 -3.7465 -2.3204  1.5304
  660MOL0     H89038   3.804   2.032   2.155 -1.2674 -0.2944 -1.9188
  660MOL0     H89039   3.753   1.823   2.200 -1.4924 -1.6909 -2.0910
  660MOL0     H89040   3.813   1.805   2.037  0.7301  2.2334 -1.0987
  660MOL0     H89041   3.956   1.749   2.294  0.6020 -0.5432  0.2220
  660MOL0     H89042   3.894   1.628   2.197  1.8226 -1.3077 -0.7916
  660MOL0     H89043   4.049   1.658   2.010  1.1775 -0.9237 -0.2582
  660MOL0     H89044   4.117   1.800   2.068 -3.1796  0.2118 -3.2175
  660MOL0     H89045   4.228   1.689   2.260 -0.3825  0.9641  0.3754
  660MOL0     H89046   4.145   1.541   2.221  3.7473 -1.5309 -0.2607
  660MOL0     H89047   4.352   1.672   2.026  0.1670  0.5477  0.7439
  660MOL0     H89048   4.414   1.564   2.147  1.4155 -0.9755 -1.0884
  660MOL0     H89049   4.197   1.466   1.951  0.1112  1.4429  0.4087
  660MOL0     H89050   4.289   1.365   2.058  2.4466 -0.6415  2.2692
  660MOL0     H89051   4.580   1.415   2.037  2.5022  1.9227 -0.0980
  660MOL0     H89052   4.727   1.438   1.667 -3.1314  1.6834 -0.0892
  660MOL0     H89053   4.798   1.482   1.821  2.1175  0.3198 -2.6359
  660MOL0     H89054   4.779   1.259   1.903  5.0029  0.8557  0.4040
  660MOL0     H89055   4.880   1.263   1.765 -0.0192  2.4203 -0.6234
  660MOL0     H89056   4.764   1.133   1.643  0.6152  0.8702 -1.4204
  660MOL0     H89057   4.611   1.223   1.667 -1.5694  0.5161  3.9910
  660MOL0     H89058   4.715   0.992   1.842 -0.5440 -1.4601 -0.3960
  660MOL0     H89059   4.574   0.992   1.729 -1.1855  0.0658  0.9411
  660MOL0     H89060   4.308   1.196   1.835 -0.9110 -1.3469 -1.2093
  660MOL0     H89061   3.979   1.101   1.947 -0.2365 -0.0937 -0.4698
  660MOL0     H89062   4.079   1.224   1.880 -2.6645  0.8703  2.1993
  660MOL0     H89063   4.032   1.079   1.781 -3.1837  1.8940  1.1160
  660MOL0     H89064   3.896   0.944   2.256  2.5509  0.2231  1.3480
  660MOL0     H89065   3.692   0.882   2.333  1.0558  0.8512 -3.5870
  660MOL0     H89066   3.673   0.486   2.568  0.2743 -0.1103  3.1549
  660MOL0     H89067   3.707   0.656   2.607  2.9946 -1.1637 -1.2763
  660MOL0     H89068   3.428   0.639   2.620 -0.4729 -0.8469 -0.0675
  660MOL0     H89069   3.456   0.482   2.590  0.7151  0.5676  0.4571
  660MOL0     H89070   3.631   0.467   2.783  0.5049 -0.7028 -1.5720
  660MOL0     H89071   3.464   0.461   2.833  0.2677 -0.3280 -1.0376
  660MOL0     H89072   3.666   0.688   2.869  0.2365 -0.6337  0.2057
  660MOL0     H89073   3.489   0.723   2.849  2.5503  1.7985 -2.9383
  660MOL0     H89074   3.588   0.544   3.064  0.2654  0.7816  1.1424
  660MOL0     H89075   3.427   0.623   3.047 -0.2551 -1.9361  2.8774
  660MOL0     H89076   3.709   0.743   3.089  0.3052 -1.2402  1.1366
  660MOL0     H89077   3.572   0.840   3.067  0.0336  1.1163  0.0890
  660MOL0     H89078   3.570   0.625   3.301  2.4779  0.7837  0.3516
  660MOL0     H89079   3.461   0.755   3.278 -2.3431 -1.9073 -0.5004
  660MOL0     H89080   3.634   0.833   3.440  3.3031  0.9860  0.9563
  660MOL0     H89081   3.662   0.914   3.286  2.0096 -0.6613 -1.8561
  660MOL0     H89082   3.839   0.466   2.390  4.3401  0.1082  1.0293
  660MOL0     H89083   4.038   0.529   2.287  3.5498  1.3936 -1.4894
  660MOL0     H89084   4.306   0.771   2.089 -1.5068  1.7926  1.4415
  660MOL0     H89085   4.529   0.891   2.035  0.2008  0.5377  1.3597
  660MOL0     H89086   4.016   2.093   1.735  0.0770  0.4324  1.1058
  660MOL0     H89087   3.872   2.041   1.536  1.5779 -0.0541 -0.1714
  660MOL0     H89088   3.531   2.132   1.337 -0.2201  0.3628  1.1759
  660MOL0     H89089   3.401   2.123   1.107 -0.1398  0.6529  0.6009
  660MOL0     H89090   2.992   2.170   1.041 -0.1574  0.4168 -0.4903
  660MOL0     H89091   3.138   2.212   1.140  1.6272 -0.6381 -1.7646
  660MOL0     H89092   3.137   2.154   0.835  0.2503  2.5188 -1.1702
  660MOL0     H89093   3.278   2.173   0.929  1.0067 -0.2483 -2.0392
  660MOL0     H89094   3.218   2.395   0.998 -2.9652  2.7189  0.6525
  660MOL0     H89095   3.051   2.372   0.947 -0.9631 -2.2025 -0.8224
  660MOL0     H89096   3.116   2.433   0.732 -0.4946 -2.3365  0.8706
  660MOL0     H89097   3.259   2.328   0.725 -1.9249 -1.9524  1.5724
  660MOL0     H89098   3.438   2.693   0.855 -0.1663  0.5764 -1.0863
  660MOL0     H89099   3.099   1.892   1.314 -0.6037  1.4725  2.3416
  660MOL0     H89100   3.251   1.872   1.506 -0.6417 -0.1085 -0.5195
  661MOL0     O89101   8.723   3.088   6.425  0.5964 -0.2468  0.1629
  661MOL0     C89102   8.639   3.127   6.337  0.1937  0.1639 -0.1086
  661MOL0     O89103   8.547   3.061   6.270 -0.0871  0.3842 -0.1141
  661MOL0     C89104   8.543   2.922   6.283 -0.8724  0.2457  0.2157
  661MOL0     C89105   8.640   2.832   6.252 -0.6266 -0.6229 -0.2734
  661MOL0     C89106   8.624   2.697   6.277 -0.2116  0.1079 -0.1981
  661MOL0     C89107   8.513   2.649   6.343  0.5591  0.7760  0.7561
  661MOL0     O89108   8.513   2.515   6.357 -1.0776 -0.7667 -0.1094
  661MOL0     C89109   8.394   2.459   6.420  0.3341  0.3610 -0.0990
  661MOL0     C89110   8.393   2.476   6.583 -0.0251  0.0072  0.6092
  661MOL0     C89111   8.521   2.423   6.646 -0.1548 -0.5898 -0.8600
  661MOL0     C89112   8.566   2.482   6.777  0.0312  0.1653 -0.7899
  661MOL0     C89113   8.696   2.437   6.835  0.2829  0.4965 -0.7552
  661MOL0     C89114   8.740   2.543   6.944  0.6408 -0.8556 -1.0013
  661MOL0     C89115   8.868   2.508   7.008  0.5680 -0.6723  0.5093
  661MOL0     C89116   8.830   2.455   7.156 -0.8732 -0.4289 -0.4975
  661MOL0     N89117   8.822   2.557   7.256  0.0901 -0.5180 -0.6176
  661MOL0     C89118   8.760   2.538   7.374 -0.1182 -0.1548 -0.2852
  661MOL0     C89119   8.801   2.646   7.442  0.1418 -0.3172 -0.6070
  661MOL0     C89120   8.744   2.699   7.574 -0.2788  0.0693  0.2024
  661MOL0     C89121   8.821   2.638   7.691  0.6050  0.3092  0.2694
  661MOL0     C89122   8.981   2.667   7.700 -0.9000 -0.1298 -0.4665
  661MOL0     C89123   9.040   2.581   7.803  0.1335 -0.6733  0.5521
  661MOL0     O89124   9.180   2.611   7.789 -0.1983  0.0287  1.0348
  661MOL0     C89125   9.269   2.567   7.892 -0.0038 -0.0046  0.1701
  661MOL0     C89126   9.234   2.471   7.992  0.1529 -0.8726 -0.4655
  661MOL0     C89127   9.327   2.433   8.090  1.0382  0.6031 -0.2280
  661MOL0     C89128   9.283   2.333   8.200  0.2958 -0.1780 -0.3214
  661MOL0     C89129   9.458   2.487   8.085  0.2779  0.0293 -0.3235
  661MOL0     C89130   9.558   2.441   8.194 -0.4198  0.6211 -0.2473
  661MOL0     O89131   9.640   2.533   8.245  0.7367  0.6792  0.0277
  661MOL0     C89132   9.752   2.491   8.320 -0.4831  0.7468 -0.2990
  661MOL0     C89133   9.868   2.436   8.258  0.6190  0.5464 -0.5104
  661MOL0     C89134   9.980   2.388   8.331 -1.1247  1.2841 -0.0340
  661MOL0     C89135   9.988   2.404   8.469 -0.3561  1.2100 -0.1236
  661MOL0     O89136  10.099   2.362   8.535  0.6965  0.0247  0.4715
  661MOL0     C89137  10.120   2.397   8.672 -0.4499 -0.0514 -0.5004
  661MOL0     C89138  10.248   2.319   8.701  0.7056  0.1885 -0.1549
  661MOL0     C89139  10.221   2.165   8.694 -0.4302 -0.2091 -0.5928
  661MOL0     C89140  10.347   2.078   8.691  0.3753  0.8308 -0.4858
  661MOL0     C89141  10.412   2.082   8.834  0.7385  0.2847  0.4508
  661MOL0     C89142  10.547   2.017   8.837 -0.3830 -0.4376  0.7494
  661MOL0     C89143  10.542   1.865   8.823  0.6394  0.5579 -0.2824
  661MOL0     C89144  10.681   1.812   8.831  0.5176 -0.1072  0.4950
  661MOL0    Cl89145  10.749   1.782   8.651 -0.6526  0.2705 -0.3992
  661MOL0     C89146   9.883   2.472   8.532  0.3355  0.0214  0.2437
  661MOL0     C89147   9.771   2.521   8.460 -0.3978  1.1795  0.2820
  661MOL0     O89148   9.564   2.324   8.232  0.4078 -0.4638  0.0026
  661MOL0     C89149   9.489   2.587   7.988 -0.3485  0.2746  0.4478
  661MOL0     C89150   9.394   2.630   7.895  0.4905  0.2520 -0.3528
  661MOL0     N89151   8.881   2.726   7.369  0.4449  0.6562  0.0658
  661MOL0     N89152   8.894   2.669   7.256 -0.8804  0.2561 -0.5448
  661MOL0     C89153   8.413   2.737   6.384  0.2157 -0.3323  0.4965
  661MOL0     C89154   8.431   2.877   6.348  0.9436  0.7120 -0.3421
  661MOL0     C89155   8.616   3.271   6.333  0.0994 -0.0944 -0.1163
  661MOL0     C89156   8.492   3.321   6.344 -0.0929 -0.7253 -0.5161
  661MOL0     C89157   8.464   3.461   6.342  0.1850 -0.2094  0.2814
  661MOL0     C89158   8.564   3.550   6.323 -0.5983 -0.7414 -0.1022
  661MOL0     O89159   8.544   3.689   6.319 -0.0261 -0.1509 -0.3281
  661MOL0     C89160   8.475   3.738   6.443  0.0233 -0.3846  0.3296
  661MOL0     C89161   8.504   3.886   6.482 -0.3908  0.2692 -0.1540
  661MOL0     C89162   8.432   4.001   6.419 -1.1562 -0.8200  0.5848
  661MOL0     C89163   8.508   4.132   6.437  1.1198 -0.4303 -0.0878
  661MOL0     C89164   8.493   4.167   6.573  0.3673 -0.5515 -0.3950
  661MOL0     C89165   8.480   4.212   6.685  0.2272  0.5213 -0.3575
  661MOL0     C89166   8.693   3.505   6.290  0.1451  0.5018 -0.5263
  661MOL0     C89167   8.718   3.364   6.303  0.4903 -0.6582 -0.0830
  661MOL0     H89168   8.729   2.867   6.201 -1.4839  0.9094 -0.7788
  661MOL0     H89169   8.697   2.619   6.256  0.0506  0.2468  0.1646
  661MOL0     H89170   8.297   2.489   6.379  0.0861 -1.2174 -0.7211
  661MOL0     H89171   8.406   2.355   6.391 -1.4236  0.6093 -1.9330
  661MOL0     H89172   8.389   2.584   6.595 -0.7958 -0.0047  0.5206
  661MOL0     H89173   8.309   2.422   6.626 -0.3059 -3.3945 -3.5183
  661MOL0     H89174   8.508   2.319   6.676 -4.3281  0.6619  2.6594
  661MOL0     H89175   8.610   2.438   6.583  0.6632  2.6777  0.8489
  661MOL0     H89176   8.562   2.591   6.780 -1.0155  0.2603 -3.1354
  661MOL0     H89177   8.482   2.450   6.841 -0.8409 -2.2262 -2.9438
  661MOL0     H89178   8.679   2.338   6.878  1.7394  0.3209 -0.5335
  661MOL0     H89179   8.770   2.416   6.758 -0.1745 -3.9075 -0.2856
  661MOL0     H89180   8.740   2.639   6.893 -0.7938  0.7206  1.7379
  661MOL0     H89181   8.663   2.542   7.021 -1.3712 -1.5274 -2.9262
  661MOL0     H89182   8.915   2.426   6.953  0.1441 -1.3732  1.1565
  661MOL0     H89183   8.924   2.601   7.018 -0.9599  0.1054  2.5026
  661MOL0     H89184   8.910   2.387   7.188 -2.3902 -1.2190  1.9279
  661MOL0     H89185   8.740   2.393   7.164 -2.3948  1.7693  0.5789
  661MOL0     H89186   8.699   2.464   7.426  1.4593 -0.4844  1.1998
  661MOL0     H89187   8.740   2.808   7.565  1.2276  0.0675 -0.9520
  661MOL0     H89188   8.640   2.664   7.572  0.2568 -1.5818 -0.8835
  661MOL0     H89189   8.802   2.531   7.683  0.4106  0.1582  2.1944
  661MOL0     H89190   8.784   2.674   7.788  3.1040  1.6646  0.8020
  661MOL0     H89191   8.998   2.773   7.722 -0.0768 -0.1162 -1.1323
  661MOL0     H89192   9.026   2.648   7.602 -0.1514  3.4066 -0.9559
  661MOL0     H89193   9.018   2.475   7.790 -1.7989 -0.5864  2.6533
  661MOL0     H89194   9.012   2.621   7.901  1.0479  0.0481  0.5399
  661MOL0     H89195   9.135   2.426   7.989 -0.6412 -0.0593  4.4648
  661MOL0     H89196   9.175   2.320   8.210  0.5415 -2.0603  0.3061
  661MOL0     H89197   9.307   2.231   8.171 -2.2723 -1.6195  2.1284
  661MOL0     H89198   9.330   2.357   8.296  0.1141 -0.6004 -0.1254
  661MOL0     H89199   9.880   2.425   8.151  1.0580 -1.2926 -0.3116
  661MOL0     H89200  10.058   2.335   8.278 -3.6253 -3.6538  0.6073
  661MOL0     H89201  10.136   2.506   8.669  0.7152  0.0610  3.6890
  661MOL0     H89202  10.039   2.371   8.740  0.4245 -0.3985  0.4357
  661MOL0     H89203  10.315   2.349   8.620  0.6958  0.9030  0.0941
  661MOL0     H89204  10.291   2.351   8.797  1.3013  0.3700 -0.4760
  661MOL0     H89205  10.167   2.127   8.606 -0.8729 -0.4840 -0.2115
  661MOL0     H89206  10.158   2.135   8.778 -0.5642  1.1809 -0.1725
  661MOL0     H89207  10.328   1.973   8.668  2.1825  0.5026 -0.6060
  661MOL0     H89208  10.411   2.124   8.616 -1.0171  0.4282 -1.9788
  661MOL0     H89209  10.363   2.020   8.909 -1.3344 -0.6346 -1.5513
  661MOL0     H89210  10.431   2.184   8.870 -0.4259  0.1765  1.3974
  661MOL0     H89211  10.611   2.059   8.759  2.2221  2.1789  4.0406
  661MOL0     H89212  10.593   2.047   8.931  3.0558  1.2449 -1.2661
  661MOL0     H89213  10.502   1.825   8.730 -2.3804  0.3976  0.9813
  661MOL0     H89214  10.478   1.820   8.900  4.0727 -1.9611  1.3604
  661MOL0     H89215  10.670   1.716   8.882 -1.5534 -0.4813 -0.5660
  661MOL0     H89216  10.738   1.885   8.889  2.1891 -0.1751 -0.9885
  661MOL0     H89217   9.872   2.480   8.640  1.1301  4.0230  0.1666
  661MOL0     H89218   9.688   2.570   8.508 -0.6524  0.8900  0.1380
  661MOL0     H89219   9.587   2.633   7.982 -1.2877  2.2035 -2.1405
  661MOL0     H89220   9.428   2.699   7.818  2.3107 -2.3910 -2.1039
  661MOL0     H89221   8.326   2.693   6.433  0.4021 -0.4216  0.7510
  661MOL0     H89222   8.352   2.942   6.384  1.7204  0.1554  2.6169
  661MOL0     H89223   8.406   3.255   6.357  1.0821 -2.1789  0.1220
  661MOL0     H89224   8.363   3.501   6.354  2.3479  5.4693  3.5956
  661MOL0     H89225   8.368   3.729   6.419  0.1912  1.7511 -1.4445
  661MOL0     H89226   8.503   3.677   6.530  1.9544 -0.2328 -0.1481
  661MOL0     H89227   8.608   3.905   6.458 -0.7854  0.3893 -1.8560
  661MOL0     H89228   8.487   3.895   6.590  4.1668  0.6380  0.7121
  661MOL0     H89229   8.327   4.010   6.445 -1.9156  3.0040 -2.7686
  661MOL0     H89230   8.438   3.978   6.312 -3.5742 -3.1289  0.8604
  661MOL0     H89231   8.467   4.207   6.369  0.5968 -0.7766 -0.1537
  661MOL0     H89232   8.616   4.128   6.420  2.3652  5.7807  3.2054
  661MOL0     H89233   8.473   4.266   6.777  1.1941  1.8187 -1.0159
  661MOL0     H89234   8.765   3.576   6.250  3.8813 -1.4314  2.1397
  661MOL0     H89235   8.818   3.322   6.293  0.3685 -0.7104 -1.2885
  662MOL0     O89236   6.719   4.928   8.456  0.1803 -0.0317  0.7179
  662MOL0     C89237   6.659   4.821   8.431 -0.1248 -0.6295 -0.1774
  662MOL0     O89238   6.613   4.737   8.526 -0.7734  0.6097 -1.2302
  662MOL0     C89239   6.632   4.772   8.653 -1.2253 -0.1386  0.1374
  662MOL0     C89240   6.759   4.763   8.713 -0.6168  0.1007 -0.2744
  662MOL0     C89241   6.762   4.784   8.848  0.3826 -0.5102 -0.5720
  662MOL0     C89242   6.659   4.813   8.931 -0.2865 -0.2546 -0.2342
  662MOL0     O89243   6.670   4.825   9.065 -0.6076 -0.6748 -0.3393
  662MOL0     C89244   6.796   4.844   9.136  0.1238  0.5294  0.3026
  662MOL0     C89245   6.757   4.856   9.281 -0.3158 -0.0552 -0.5739
  662MOL0     C89246   6.876   4.855   9.380  0.8699 -0.6921  0.1710
  662MOL0     C89247   6.857   4.948   9.505  0.2263  1.4027 -0.1334
  662MOL0     C89248   6.984   4.945   9.587  0.1665 -0.2277 -0.2430
  662MOL0     C89249   6.969   5.041   9.709 -0.2466 -0.5034 -0.4186
  662MOL0     C89250   7.095   5.053   9.797  0.6460  0.0246  0.0588
  662MOL0     C89251   7.216   5.113   9.720 -0.1982  0.7761  0.6459
  662MOL0     N89252   7.199   5.253   9.703 -0.7385  0.4381  0.8038
  662MOL0     C89253   7.205   5.344   9.804 -0.1048  0.4453 -0.1279
  662MOL0     C89254   7.132   5.455   9.766 -0.3894 -0.1732 -0.1892
  662MOL0     C89255   7.105   5.581   9.846 -0.0320  0.0915 -0.7249
  662MOL0     C89256   6.987   5.574   9.941  0.0112  0.1073  0.3270
  662MOL0     C89257   6.993   5.531  10.076 -0.0839  0.9796 -0.2575
  662MOL0     C89258   7.103   5.605  10.162 -0.4528 -1.4344  0.1268
  662MOL0     O89259   7.110   5.550  10.297  0.0636 -0.4101  0.4823
  662MOL0     C89260   7.029   5.597  10.397 -0.4562  0.1077  0.1782
  662MOL0     C89261   7.027   5.731  10.441 -0.6975 -0.2253  0.2597
  662MOL0     C89262   6.948   5.772  10.547 -0.0213  1.1235 -0.4579
  662MOL0     C89263   6.955   5.916  10.581 -0.3397  0.5210 -0.4164
  662MOL0     C89264   6.879   5.672  10.626  0.6645 -0.4294 -0.5614
  662MOL0     C89265   6.795   5.709  10.750 -0.5191 -0.1884 -0.9932
  662MOL0     O89266   6.728   5.828  10.749 -0.1161  0.6804  0.5409
  662MOL0     C89267   6.638   5.866  10.849 -0.5238 -0.5546  0.0527
  662MOL0     C89268   6.524   5.932  10.803  0.2001  0.0283 -0.3157
  662MOL0     C89269   6.422   5.979  10.894 -0.4801 -0.0816 -0.2553
  662MOL0     C89270   6.441   5.969  11.031 -0.6846  0.3338 -0.6920
  662MOL0     O89271   6.356   5.989  11.131  0.1506  0.0327  0.1492
  662MOL0     C89272   6.216   6.016  11.110 -0.0668  0.4202  0.0636
  662MOL0     C89273   6.138   5.978  11.240 -0.5779  0.3111  0.2923
  662MOL0     C89274   5.982   5.964  11.222 -0.4098 -0.4989  0.3962
  662MOL0     C89275   5.917   6.093  11.168  1.0100 -0.0270  0.4690
  662MOL0     C89276   5.765   6.075  11.192 -0.6154 -0.1770  0.9235
  662MOL0     C89277   5.668   6.149  11.088 -1.1009  0.0311 -0.6328
  662MOL0     C89278   5.534   6.113  11.136  0.4124 -0.7818 -0.4812
  662MOL0     C89279   5.470   6.214  11.234  0.1277  0.0950  0.7230
  662MOL0    Cl89280   5.315   6.140  11.287 -0.4570 -0.0555  0.0162
  662MOL0     C89281   6.555   5.897  11.080  0.2821 -0.3430  0.1168
  662MOL0     C89282   6.652   5.851  10.994  0.1093 -0.5703 -0.0372
  662MOL0     O89283   6.776   5.625  10.840  0.1368  0.5442  0.8001
  662MOL0     C89284   6.896   5.543  10.584 -0.2660  0.4783  0.3654
  662MOL0     C89285   6.962   5.504  10.474  0.1233  0.2056  0.7301
  662MOL0     N89286   7.074   5.419   9.650  0.3095 -1.5914  0.4113
  662MOL0     N89287   7.113   5.308   9.610 -0.3503 -0.4309  0.5328
  662MOL0     C89288   6.539   4.815   8.863 -0.1505 -0.3585  0.0228
  662MOL0     C89289   6.518   4.805   8.725  0.7212 -0.7270 -0.8282
  662MOL0     C89290   6.603   4.789   8.296  0.6363  0.1840  0.0772
  662MOL0     C89291   6.620   4.888   8.186  0.2903  0.0010 -0.4260
  662MOL0     C89292   6.555   4.883   8.067 -0.6145 -0.5740 -0.3441
  662MOL0     C89293   6.468   4.779   8.039  0.0260 -0.3909  0.4559
  662MOL0     O89294   6.404   4.747   7.927  0.5622 -0.8618  0.0991
  662MOL0     C89295   6.367   4.858   7.841  0.5478 -0.1749 -0.0764
  662MOL0     C89296   6.321   4.815   7.702 -0.2675 -0.0318 -0.4867
  662MOL0     C89297   6.309   4.938   7.614  0.7332  0.3629 -0.1051
  662MOL0     C89298   6.261   5.061   7.694  0.2608 -0.0713 -0.2953
  662MOL0     C89299   6.250   5.173   7.596 -0.4834 -1.1811 -0.2583
  662MOL0     C89300   6.260   5.260   7.506  0.4553 -0.7972 -0.3925
  662MOL0     C89301   6.456   4.679   8.145  0.8972  0.9519 -0.0521
  662MOL0     C89302   6.516   4.693   8.271 -0.2119  1.4518  0.7058
  662MOL0     H89303   6.853   4.737   8.664 -0.7522  0.2268 -0.6053
  662MOL0     H89304   6.855   4.776   8.902 -0.8841 -1.4609  1.5914
  662MOL0     H89305   6.861   4.759   9.115 -1.3333 -1.5138  3.3291
  662MOL0     H89306   6.849   4.934   9.100 -1.6345  1.8652  0.9119
  662MOL0     H89307   6.701   4.948   9.300 -2.3350 -1.3953  0.2108
  662MOL0     H89308   6.696   4.767   9.296 -1.0793  0.1176 -2.3667
  662MOL0     H89309   6.885   4.753   9.416 -1.2879 -1.9209 -2.4565
  662MOL0     H89310   6.974   4.882   9.338  0.9747 -1.5457 -0.1605
  662MOL0     H89311   6.833   5.053   9.484 -2.8597  0.7909 -0.0883
  662MOL0     H89312   6.775   4.904   9.561 -0.5019 -0.7926 -2.7101
  662MOL0     H89313   6.999   4.844   9.626  3.0702  1.4610  3.7119
  662MOL0     H89314   7.067   4.964   9.518 -1.2795  1.6156 -1.5854
  662MOL0     H89315   6.926   5.139   9.686 -4.4606 -0.4364  5.5862
  662MOL0     H89316   6.893   4.986   9.765 -0.6779  1.2882  0.8137
  662MOL0     H89317   7.070   5.109   9.888 -1.3234 -1.5275  0.5608
  662MOL0     H89318   7.106   4.949   9.828  0.8680  0.3463  1.1036
  662MOL0     H89319   7.227   5.061   9.625 -0.6694 -2.6593  2.3298
  662MOL0     H89320   7.307   5.091   9.776  1.2077  0.5391 -1.6071
  662MOL0     H89321   7.242   5.336   9.906 -2.5503  3.5176  1.1587
  662MOL0     H89322   7.200   5.603   9.897 -2.2765  1.3151  3.3712
  662MOL0     H89323   7.094   5.670   9.784  0.9814  2.0438  1.7090
  662MOL0     H89324   6.914   5.521   9.880  0.9225  1.0412 -1.6731
  662MOL0     H89325   6.944   5.674   9.955  0.2367  0.0539  1.5615
  662MOL0     H89326   7.017   5.424  10.080  2.5056  1.5030  0.7496
  662MOL0     H89327   6.899   5.541  10.129 -1.2903 -1.3736 -1.7717
  662MOL0     H89328   7.080   5.711  10.159 -0.7480 -1.4724 -3.2120
  662MOL0     H89329   7.206   5.591  10.127 -0.0628 -0.4463  0.8692
  662MOL0     H89330   7.088   5.800  10.384  3.5678 -1.6997  2.5793
  662MOL0     H89331   6.944   5.939  10.688 -2.9157  1.1531 -0.7596
  662MOL0     H89332   7.035   5.978  10.538 -2.3364  3.9887  0.4301
  662MOL0     H89333   6.860   5.952  10.540  0.5725  0.8031 -2.3846
  662MOL0     H89334   6.514   5.952  10.697 -3.6722  2.1754  0.2673
  662MOL0     H89335   6.323   6.009  10.861  0.0158 -1.4711 -3.3139
  662MOL0     H89336   6.189   6.119  11.088 -1.0925  0.0104 -0.6910
  662MOL0     H89337   6.169   5.948  11.037 -2.4566 -0.8471  2.6034
  662MOL0     H89338   6.163   5.886  11.293 -3.4971 -1.6812 -1.5048
  662MOL0     H89339   6.165   6.061  11.307  0.1171 -1.3748  2.2018
  662MOL0     H89340   5.927   5.932  11.311 -2.5158  1.8516  0.0591
  662MOL0     H89341   5.967   5.879  11.154 -3.2247 -0.4158  0.7702
  662MOL0     H89342   5.951   6.184  11.220 -0.5931  0.8103  0.1039
  662MOL0     H89343   5.938   6.105  11.061 -2.1379  1.4546 -0.0948
  662MOL0     H89344   5.738   6.105  11.294  1.7166  1.9458  1.0178
  662MOL0     H89345   5.743   5.971  11.169 -0.6185 -0.2970  1.4707
  662MOL0     H89346   5.697   6.255  11.083 -0.0240 -0.2743 -1.1839
  662MOL0     H89347   5.688   6.098  10.993 -1.8132 -3.7461  1.0828
  662MOL0     H89348   5.526   6.017  11.189 -2.5080 -0.8044 -0.7564
  662MOL0     H89349   5.480   6.110  11.040  2.6081  2.6303 -2.0019
  662MOL0     H89350   5.443   6.300  11.172 -3.4860  0.0906  2.0471
  662MOL0     H89351   5.525   6.251  11.321 -0.9224  0.7605  1.1216
  662MOL0     H89352   6.565   5.874  11.185 -0.5670  0.6564  0.4345
  662MOL0     H89353   6.733   5.790  11.032 -0.5596 -1.5789 -0.1764
  662MOL0     H89354   6.833   5.468  10.632 -0.7425  1.1949  0.8706
  662MOL0     H89355   6.953   5.404  10.431  2.2214  0.2087  0.2030
  662MOL0     H89356   6.445   4.844   8.908 -0.2806  1.0840 -1.1175
  662MOL0     H89357   6.422   4.810   8.675  0.4566  3.1123 -0.2292
  662MOL0     H89358   6.680   4.976   8.206  1.3234 -0.3118 -1.9801
  662MOL0     H89359   6.569   4.970   8.003 -0.2468 -0.5980 -0.3015
  662MOL0     H89360   6.292   4.921   7.889  0.5695 -1.3276  1.5548
  662MOL0     H89361   6.457   4.920   7.838  0.6205  0.0687  3.2600
  662MOL0     H89362   6.223   4.770   7.720 -1.0743  1.1686 -1.7125
  662MOL0     H89363   6.385   4.735   7.663 -1.7321 -1.8998  0.7458
  662MOL0     H89364   6.235   4.923   7.535 -1.5424 -1.0920  2.1434
  662MOL0     H89365   6.412   4.956   7.582  1.7641 -3.8975  0.1584
  662MOL0     H89366   6.329   5.093   7.773  1.3862 -0.4554 -1.0834
  662MOL0     H89367   6.156   5.048   7.722  0.4508 -1.3639 -0.1293
  662MOL0     H89368   6.258   5.337   7.432 -0.4372 -1.5376 -1.1731
  662MOL0     H89369   6.395   4.590   8.143  3.1697 -0.6815 -0.5786
  662MOL0     H89370   6.495   4.619   8.347  1.1085  0.2939 -0.0204
  663MOL0     O89371   4.765   8.704   0.833  0.2896 -0.2774 -0.7455
  663MOL0     C89372   4.728   8.653   0.938 -1.4434 -0.5319  0.0201
  663MOL0     O89373   4.693   8.524   0.951 -0.0646  0.7244 -1.0902
  663MOL0     C89374   4.696   8.427   0.854 -0.0263  0.5287  0.4479
  663MOL0     C89375   4.603   8.323   0.856  0.9139  0.2511  0.0124
  663MOL0     C89376   4.617   8.216   0.757  0.3914 -0.3087  0.6030
  663MOL0     C89377   4.727   8.217   0.669 -0.6868  0.1557  0.3843
  663MOL0     O89378   4.738   8.131   0.560 -1.0099 -0.5184  0.4697
  663MOL0     C89379   4.655   8.024   0.534 -0.1975  0.8154 -0.0594
  663MOL0     C89380   4.722   7.964   0.404 -0.2084  0.9391 -0.4012
  663MOL0     C89381   4.678   7.812   0.389 -0.2533 -0.7976 -0.2231
  663MOL0     C89382   4.735   7.760   0.260 -0.3657 -0.5510  0.2553
  663MOL0     C89383   4.699   7.615   0.262  0.2895 -0.0110 -0.0654
  663MOL0     C89384   4.787   7.544   0.157  0.5597 -0.0556 -0.1889
  663MOL0     C89385   4.764   7.395   0.148 -0.4724  0.1347 -0.1291
  663MOL0     C89386   4.661   7.331   0.242 -0.5821  0.9729  0.4464
  663MOL0     N89387   4.632   7.191   0.215 -0.4007 -0.5054  0.4253
  663MOL0     C89388   4.554   7.148   0.114 -1.0579  0.8041 -0.1902
  663MOL0     C89389   4.580   7.010   0.119 -1.4169  0.7797 -0.1404
  663MOL0     C89390   4.509   6.936   0.020 -0.2100  0.1494 -0.0016
  663MOL0     C89391   4.408   6.829   0.067  0.6625 -0.2079  0.0428
  663MOL0     C89392   4.479   6.712   0.137 -1.0530 -0.0693 -0.1501
  663MOL0     C89393   4.381   6.602   0.193 -0.0899  0.1777  0.5366
  663MOL0     O89394   4.284   6.555   0.090 -0.1498  0.6965 -0.4883
  663MOL0     C89395   4.149   6.573   0.115  0.2362 -0.3153 -0.4685
  663MOL0     C89396   4.085   6.565   0.244  0.3084 -0.1696 -0.8256
  663MOL0     C89397   3.950   6.595   0.275  0.4757  1.2598  0.3777
  663MOL0     C89398   3.897   6.572   0.412  0.7885  1.0491  0.1718
  663MOL0     C89399   3.872   6.647   0.162 -0.3767  0.4300 -0.5736
  663MOL0     C89400   3.732   6.684   0.161  0.6370 -0.5463 -0.2689
  663MOL0     O89401   3.659   6.658   0.053 -0.0549 -0.2423 -0.7704
  663MOL0     C89402   3.523   6.680   0.070 -0.1189 -0.3870 -0.2151
  663MOL0     C89403   3.439   6.575   0.129 -0.5009 -0.5584  1.0172
  663MOL0     C89404   3.293   6.598   0.143  0.4075  0.2842 -0.7942
  663MOL0     C89405   3.240   6.719   0.092  0.4766 -0.4465  0.1583
  663MOL0     O89406   3.105   6.740   0.080  0.7154 -0.0523 -0.9147
  663MOL0     C89407   3.023   6.634   0.021 -0.3472  0.6043 -0.9317
  663MOL0     C89408   2.881   6.677  -0.010  0.2689  0.0742 -0.3052
  663MOL0     C89409   2.864   6.792  -0.108  0.1810  0.0634 -0.4616
  663MOL0     C89410   2.727   6.805  -0.148  0.3123 -0.4285  0.3253
  663MOL0     C89411   2.699   6.948  -0.198  0.0780 -0.5900  0.5756
  663MOL0     C89412   2.558   6.962  -0.247  0.8542 -0.2022 -0.4128
  663MOL0     C89413   2.532   7.113  -0.296  0.3149  0.0169 -0.2584
  663MOL0     C89414   2.428   7.121  -0.413  0.0298  1.0201 -0.6105
  663MOL0    Cl89415   2.507   7.089  -0.575  0.2448  0.1184  0.2629
  663MOL0     C89416   3.332   6.823   0.056 -0.6509  0.3926 -0.5445
  663MOL0     C89417   3.466   6.797   0.038 -0.5168  0.1426 -0.1617
  663MOL0     O89418   3.684   6.734   0.263  0.7819  0.0618 -0.1608
  663MOL0     C89419   3.939   6.661   0.037 -0.2251  0.0876  0.5583
  663MOL0     C89420   4.073   6.624   0.016 -0.0709 -0.3130 -0.1326
  663MOL0     N89421   4.678   6.977   0.215  0.3341 -0.5960 -0.4022
  663MOL0     N89422   4.701   7.091   0.275 -0.0041 -0.1321 -0.7274
  663MOL0     C89423   4.808   8.322   0.670 -0.6826 -0.5629 -0.4385
  663MOL0     C89424   4.800   8.421   0.770 -0.6384  0.1871  0.8234
  663MOL0     C89425   4.728   8.730   1.062  0.4884 -0.7714 -0.0723
  663MOL0     C89426   4.750   8.868   1.067  0.0236  0.1788  0.0707
  663MOL0     C89427   4.745   8.938   1.187 -0.3634  0.5061  0.3459
  663MOL0     C89428   4.731   8.871   1.311 -0.1230  0.5062  0.2646
  663MOL0     O89429   4.733   8.941   1.421 -0.4612 -0.2234 -0.3349
  663MOL0     C89430   4.852   9.012   1.446  0.8438 -0.4290  0.0979
  663MOL0     C89431   4.953   8.938   1.533 -0.3220  0.6947 -0.0425
  663MOL0     C89432   5.059   9.033   1.588 -0.0551 -0.2613 -1.1829
  663MOL0     C89433   5.143   8.964   1.697 -0.0116 -0.8713 -1.1930
  663MOL0     C89434   5.215   8.845   1.653  0.3833 -0.0401 -0.3009
  663MOL0     C89435   5.275   8.750   1.608  0.1049 -0.4652  1.0102
  663MOL0     C89436   4.722   8.733   1.308 -0.7999 -0.2309 -0.1291
  663MOL0     C89437   4.727   8.661   1.187  0.7072  0.0915 -0.9160
  663MOL0     H89438   4.532   8.308   0.937  1.1305  0.6791  0.2850
  663MOL0     H89439   4.548   8.132   0.757  1.9996 -1.6919  0.3004
  663MOL0     H89440   4.667   7.945   0.608 -0.4785  0.9712  0.1536
  663MOL0     H89441   4.551   8.057   0.524 -1.9100 -3.5534  0.9461
  663MOL0     H89442   4.692   8.028   0.320  0.2374  2.6704  0.6999
  663MOL0     H89443   4.830   7.980   0.409 -0.6044  5.5715 -1.7838
  663MOL0     H89444   4.710   7.755   0.476 -1.5965  2.1617  2.4300
  663MOL0     H89445   4.570   7.793   0.389 -0.7828  1.7910 -1.1376
  663MOL0     H89446   4.691   7.812   0.174  0.5821  0.6703  0.4810
  663MOL0     H89447   4.840   7.789   0.254 -0.9949  2.3006  1.4653
  663MOL0     H89448   4.717   7.582   0.365  0.1508 -3.0113 -0.9090
  663MOL0     H89449   4.593   7.610   0.236  0.2830 -0.9655  0.1306
  663MOL0     H89450   4.785   7.585   0.055 -0.0436  2.4359  0.7597
  663MOL0     H89451   4.892   7.553   0.186  0.5634 -4.0034  1.7007
  663MOL0     H89452   4.735   7.373   0.045 -0.0126 -0.6437 -0.0961
  663MOL0     H89453   4.855   7.343   0.178 -1.7288 -0.2472  3.4572
  663MOL0     H89454   4.568   7.386   0.224 -0.4472  1.3629  0.9138
  663MOL0     H89455   4.681   7.353   0.347  0.5540 -1.1292  0.7381
  663MOL0     H89456   4.490   7.207   0.050 -1.9528  1.1617  0.9878
  663MOL0     H89457   4.453   7.015  -0.030 -0.1327 -0.3582 -0.9208
  663MOL0     H89458   4.569   6.883  -0.056  0.3910  0.8254 -0.0093
  663MOL0     H89459   4.349   6.793  -0.018  0.5939 -2.4924  0.9975
  663MOL0     H89460   4.333   6.865   0.137 -1.1700 -0.7445 -1.5534
  663MOL0     H89461   4.542   6.753   0.216  0.4823 -3.9540  0.8702
  663MOL0     H89462   4.553   6.666   0.071  0.2772  0.0794  1.1764
  663MOL0     H89463   4.325   6.623   0.284 -2.7361 -0.1693 -0.9112
  663MOL0     H89464   4.441   6.517   0.228  1.4038  1.5487  1.4178
  663MOL0     H89465   4.148   6.534   0.327 -0.3616 -1.3790 -0.7446
  663MOL0     H89466   3.897   6.666   0.469  0.3810  0.9722  0.3078
  663MOL0     H89467   3.803   6.516   0.410  1.0578  0.5739  0.5259
  663MOL0     H89468   3.970   6.508   0.461 -0.1328 -0.7202 -0.6978
  663MOL0     H89469   3.483   6.478   0.154 -2.1263 -1.7104 -0.3281
  663MOL0     H89470   3.227   6.518   0.175  3.0731 -1.6761  0.1436
  663MOL0     H89471   3.071   6.592  -0.068  0.2030 -2.1085  0.5265
  663MOL0     H89472   2.995   6.548   0.084 -2.0097  0.9092 -1.1977
  663MOL0     H89473   2.826   6.586  -0.038  2.8300 -1.0194 -2.2049
  663MOL0     H89474   2.829   6.714   0.079  0.2154 -1.0367  0.1496
  663MOL0     H89475   2.910   6.762  -0.202 -0.0789 -2.0110  0.0250
  663MOL0     H89476   2.911   6.883  -0.070  0.9145 -0.7874  0.7349
  663MOL0     H89477   2.703   6.736  -0.229  2.4362 -0.5957 -0.2182
  663MOL0     H89478   2.663   6.798  -0.060  2.1230 -0.7318  1.6739
  663MOL0     H89479   2.771   6.969  -0.277 -0.0746 -2.6616 -0.1729
  663MOL0     H89480   2.712   7.026  -0.123 -0.2688  0.8373 -0.7929
  663MOL0     H89481   2.536   6.898  -0.333  5.1140 -0.4128 -1.5749
  663MOL0     H89482   2.486   6.939  -0.168 -0.1491 -0.5733 -1.3970
  663MOL0     H89483   2.623   7.149  -0.345 -0.5464  2.1332 -0.4046
  663MOL0     H89484   2.515   7.185  -0.215  1.1291 -0.2217  0.1304
  663MOL0     H89485   2.381   7.219  -0.424 -0.4058  1.0180  0.9871
  663MOL0     H89486   2.352   7.044  -0.395  0.8143 -0.3021 -2.5979
  663MOL0     H89487   3.278   6.915   0.037 -0.4951  0.9001  1.3483
  663MOL0     H89488   3.528   6.883   0.013 -1.6311  2.4740  4.0552
  663MOL0     H89489   3.890   6.708  -0.048  1.4886  0.4708 -0.2780
  663MOL0     H89490   4.124   6.636  -0.079 -1.8717  2.7510 -0.8783
  663MOL0     H89491   4.895   8.332   0.605 -0.7283  1.0717 -0.2943
  663MOL0     H89492   4.883   8.491   0.769  2.2608 -2.9339 -1.2133
  663MOL0     H89493   4.748   8.924   0.973 -2.0094 -1.0839 -0.6957
  663MOL0     H89494   4.749   9.045   1.171 -1.1144  0.4874 -0.0179
  663MOL0     H89495   4.892   9.057   1.355  1.0926 -0.2208  0.3085
  663MOL0     H89496   4.817   9.096   1.507 -0.7163 -0.6862 -0.3957
  663MOL0     H89497   5.004   8.865   1.470  0.1880  0.1233  1.0035
  663MOL0     H89498   4.910   8.897   1.625 -2.2442  0.7216 -0.8760
  663MOL0     H89499   5.005   9.122   1.622  0.1433 -0.7806  0.5517
  663MOL0     H89500   5.119   9.053   1.498 -2.1743  3.1308 -2.0259
  663MOL0     H89501   5.074   8.943   1.779  0.0112 -0.4159 -1.0566
  663MOL0     H89502   5.225   9.022   1.740  0.6241 -1.9376 -0.9225
  663MOL0     H89503   5.328   8.668   1.564 -0.5718  0.2435 -1.3170
  663MOL0     H89504   4.714   8.679   1.402 -2.1031  1.4887  0.8017
  663MOL0     H89505   4.729   8.554   1.203  1.4078  0.1867 -0.2997
  664MOL0     O89506  10.878  10.788  11.032 -1.5202  0.2808 -0.6842
  664MOL0     C89507  10.927  10.808  11.147 -0.5132  1.1824 -0.5068
  664MOL0     O89508  10.855  10.805  11.261 -0.7170  0.7120  0.7810
  664MOL0     C89509  10.718  10.841  11.246 -0.8388  0.4370  0.4117
  664MOL0     C89510  10.622  10.799  11.335  0.4669  0.0441  0.9212
  664MOL0     C89511  10.485  10.847  11.342 -0.2886 -0.2155  0.0674
  664MOL0     C89512  10.448  10.940  11.243 -0.2537  0.0334 -0.1990
  664MOL0     O89513  10.314  10.978  11.241  0.4320 -0.0326  1.1242
  664MOL0     C89514  10.274  11.094  11.157  0.0193  0.5153  0.1095
  664MOL0     C89515  10.124  11.110  11.177  0.5753 -0.3187 -0.2743
  664MOL0     C89516  10.049  11.173  11.058 -0.7214 -1.1157 -0.2825
  664MOL0     C89517   9.898  11.209  11.099 -0.2452 -0.1441 -0.2811
  664MOL0     C89518   9.826  11.260  10.975  0.1458 -0.2929  0.5601
  664MOL0     C89519   9.684  11.299  11.012 -0.5716  0.0444 -0.2296
  664MOL0     C89520   9.576  11.189  11.036 -0.6858 -0.2410 -0.2177
  664MOL0     C89521   9.528  11.128  10.908 -0.6103  0.0792 -0.1123
  664MOL0     N89522   9.391  11.082  10.924  0.2281 -0.2177 -0.0561
  664MOL0     C89523   9.339  10.956  10.944 -0.3590  0.9997 -0.2344
  664MOL0     C89524   9.207  10.964  10.957  0.3148 -0.6909 -0.1165
  664MOL0     C89525   9.126  10.844  10.962  0.2618  0.6344  0.0547
  664MOL0     C89526   9.131  10.760  10.833  0.0369 -1.0392 -0.0692
  664MOL0     C89527   9.048  10.631  10.813 -1.0023 -0.1257 -0.4739
  664MOL0     C89528   9.091  10.562  10.683 -0.2203  0.0115 -0.3037
  664MOL0     O89529   8.971  10.500  10.634  0.3894  0.2783  0.1967
  664MOL0     C89530   8.980  10.438  10.512 -0.6593  0.1041  0.9446
  664MOL0     C89531   8.862  10.369  10.464  0.8899 -0.0829 -0.2594
  664MOL0     C89532   8.856  10.287  10.349 -0.6273 -0.3651  0.1134
  664MOL0     C89533   8.735  10.203  10.317 -0.2597  0.0659 -0.4588
  664MOL0     C89534   8.967  10.292  10.262 -0.1237  0.2504  0.3710
  664MOL0     C89535   8.999  10.203  10.139  0.0397 -0.4371 -0.5362
  664MOL0     O89536   8.960  10.075  10.152  0.0036  0.4335 -0.1416
  664MOL0     C89537   8.989   9.993  10.039 -0.3226 -0.0783  0.0254
  664MOL0     C89538   9.046   9.859  10.053 -0.1482  0.5387 -0.1521
  664MOL0     C89539   9.087   9.791   9.946 -0.3172 -0.2144 -0.8386
  664MOL0     C89540   9.045   9.828   9.825  0.2705  0.7494  0.6162
  664MOL0     O89541   9.053   9.761   9.704 -0.4074 -0.4842  0.1102
  664MOL0     C89542   9.162   9.681   9.667 -0.6474 -0.1957 -0.1638
  664MOL0     C89543   9.222   9.718   9.528  0.0550  0.2677 -0.8588
  664MOL0     C89544   9.337   9.815   9.547  0.7986  0.4720  0.3111
  664MOL0     C89545   9.275   9.941   9.585  0.2630  0.1001  0.2394
  664MOL0     C89546   9.378  10.062   9.568 -0.3965  0.1188 -0.0592
  664MOL0     C89547   9.334  10.199   9.612  0.4962  0.2278  0.4196
  664MOL0     C89548   9.461  10.287   9.601  0.5662 -0.1925 -0.3542
  664MOL0     C89549   9.436  10.417   9.676  0.1777 -1.3254  0.2445
  664MOL0    Cl89550   9.449  10.401   9.855 -0.2994 -0.0863 -0.2817
  664MOL0     C89551   8.952   9.930   9.817 -0.8706 -0.0713 -0.1843
  664MOL0     C89552   8.931  10.022   9.918  0.6332 -0.6305  0.2915
  664MOL0     O89553   9.041  10.256  10.039  0.4104 -0.8372  1.1074
  664MOL0     C89554   9.076  10.378  10.298  0.4892  0.3205 -0.1519
  664MOL0     C89555   9.085  10.438  10.421  1.2643  0.1098 -0.0369
  664MOL0     N89556   9.167  11.093  10.938 -0.1858  0.3925  0.6523
  664MOL0     N89557   9.277  11.160  10.919  0.5448  0.1932 -0.2445
  664MOL0     C89558  10.549  10.998  11.156 -0.0794 -0.0246  0.7772
  664MOL0     C89559  10.679  10.947  11.155  0.3107 -0.3532 -0.9775
  664MOL0     C89560  11.067  10.820  11.164  0.2368  0.0834 -0.4504
  664MOL0     C89561  11.124  10.884  11.280 -0.0668  0.2826 -0.9753
  664MOL0     C89562  11.264  10.909  11.272 -0.6808  0.3986 -0.3458
  664MOL0     C89563  11.339  10.858  11.168 -0.4240 -0.9352  0.2868
  664MOL0     O89564  11.479  10.867  11.176  0.9268 -0.2771  0.4073
  664MOL0     C89565  11.559  10.810  11.074 -0.0932 -1.1182  0.2287
  664MOL0     C89566  11.706  10.866  11.105  0.9369 -1.2486 -0.1920
  664MOL0     C89567  11.806  10.849  10.982  0.8513  0.2101  0.3274
  664MOL0     C89568  11.799  10.709  10.922 -0.3608 -0.3562 -0.1486
  664MOL0     C89569  11.916  10.654  10.843 -0.2190  0.8655 -0.3737
  664MOL0     C89570  12.004  10.619  10.759  0.3134 -0.2903 -0.4172
  664MOL0     C89571  11.277  10.790  11.065  0.0897  0.2286  0.5638
  664MOL0     C89572  11.148  10.763  11.069  0.0829 -0.4718 -0.7378
  664MOL0     H89573  10.654  10.736  11.418 -0.3651 -0.4840  0.8444
  664MOL0     H89574  10.405  10.820  11.409 -0.3635  3.8329  1.8940
  664MOL0     H89575  10.330  11.183  11.183  0.1609  1.1830 -2.2127
  664MOL0     H89576  10.274  11.079  11.048 -3.9217  2.6923 -0.4085
  664MOL0     H89577  10.085  11.010  11.196  0.0432 -0.2752 -1.0985
  664MOL0     H89578  10.117  11.172  11.267 -0.1588 -1.2743  0.3389
  664MOL0     H89579  10.106  11.263  11.029 -2.5710  0.6062  1.1256
  664MOL0     H89580  10.050  11.114  10.966 -0.0687 -0.6238 -0.6095
  664MOL0     H89581   9.856  11.115  11.138 -1.9039  0.3275 -0.8733
  664MOL0     H89582   9.902  11.285  11.178  1.4764 -0.9885  0.5158
  664MOL0     H89583   9.869  11.352  10.936  2.2963 -1.4171  0.1355
  664MOL0     H89584   9.820  11.183  10.898 -2.7079  0.4442 -0.0454
  664MOL0     H89585   9.689  11.357  11.105  1.9752  0.0826 -0.2974
  664MOL0     H89586   9.645  11.375  10.944 -2.1350  0.5251  1.1619
  664MOL0     H89587   9.616  11.109  11.098 -0.1196  1.2816  1.4885
  664MOL0     H89588   9.490  11.239  11.082 -0.9149 -3.0523  2.8012
  664MOL0     H89589   9.602  11.053  10.879 -0.4567 -0.1967  0.9602
  664MOL0     H89590   9.522  11.217  10.844  1.0043  2.5465  2.8643
  664MOL0     H89591   9.388  10.860  10.954 -1.7831  0.3275  0.7828
  664MOL0     H89592   9.153  10.774  11.042 -0.3839 -0.7546 -0.8841
  664MOL0     H89593   9.020  10.863  10.985  0.3367  1.6944 -0.4384
  664MOL0     H89594   9.236  10.735  10.819  0.3835 -0.6620  1.6727
  664MOL0     H89595   9.092  10.832  10.761 -0.4591  0.3259  1.4964
  664MOL0     H89596   8.941  10.652  10.824 -1.0083  0.2213 -1.1370
  664MOL0     H89597   9.070  10.561  10.895 -1.2872 -0.8372 -0.9905
  664MOL0     H89598   9.177  10.499  10.704  0.3259  1.0971  0.8292
  664MOL0     H89599   9.123  10.644  10.618 -1.9552  0.2057 -0.9863
  664MOL0     H89600   8.778  10.360  10.532  1.6350 -3.6783  0.3687
  664MOL0     H89601   8.654  10.219  10.388  0.9942  1.8751  0.6376
  664MOL0     H89602   8.704  10.242  10.219  0.9326  3.0745  0.2322
  664MOL0     H89603   8.758  10.096  10.310  1.7772  0.5299 -1.8754
  664MOL0     H89604   9.064   9.827  10.155 -0.6652  0.5928 -0.0392
  664MOL0     H89605   9.147   9.700   9.945  0.9675  0.6114 -0.4708
  664MOL0     H89606   9.238   9.704   9.742 -0.8450 -0.8315  0.2446
  664MOL0     H89607   9.138   9.574   9.662  1.8991 -0.8619  0.4062
  664MOL0     H89608   9.274   9.627   9.498 -0.1201  0.4881 -1.8398
  664MOL0     H89609   9.146   9.727   9.450 -3.3481 -2.9653  1.6598
  664MOL0     H89610   9.384   9.834   9.450 -0.0404  0.1253 -0.1691
  664MOL0     H89611   9.409   9.772   9.618 -1.8894 -2.2124  1.6302
  664MOL0     H89612   9.190   9.961   9.518  1.6210  1.5103 -1.1436
  664MOL0     H89613   9.253   9.940   9.692  1.0739  0.3163  0.4145
  664MOL0     H89614   9.422  10.073   9.468  0.9463 -0.0672  0.4862
  664MOL0     H89615   9.460  10.032   9.633 -2.0347 -1.7757  1.2514
  664MOL0     H89616   9.254  10.234   9.546  3.3026  3.8962 -1.4172
  664MOL0     H89617   9.289  10.189   9.711 -0.2824 -0.4491  0.0086
  664MOL0     H89618   9.476  10.310   9.495  1.6636 -2.7435 -0.8164
  664MOL0     H89619   9.547  10.238   9.647 -0.9251 -1.1019  1.6483
  664MOL0     H89620   9.332  10.445   9.658 -0.3675 -2.5179  1.3904
  664MOL0     H89621   9.510  10.487   9.635  3.4883 -3.9152  1.3370
  664MOL0     H89622   8.891   9.947   9.728 -1.2780  1.7922  0.4075
  664MOL0     H89623   8.867  10.109   9.905  0.0817 -1.3774 -2.8960
  664MOL0     H89624   9.161  10.391  10.231  1.5506  1.4338  1.3457
  664MOL0     H89625   9.173  10.499  10.438  0.2894  1.5011  0.2342
  664MOL0     H89626  10.516  11.067  11.079 -0.7711 -1.8189 -0.5792
  664MOL0     H89627  10.739  11.001  11.083  0.3167  0.2603 -0.5202
  664MOL0     H89628  11.066  10.912  11.368  2.1701 -1.1445  1.0830
  664MOL0     H89629  11.319  10.958  11.352 -0.7746  0.1570 -0.1337
  664MOL0     H89630  11.552  10.702  11.061 -0.2287 -0.9296 -1.5277
  664MOL0     H89631  11.538  10.848  10.973 -3.3622 -0.9617  0.8623
  664MOL0     H89632  11.749  10.818  11.194  2.9957  0.0434 -0.4298
  664MOL0     H89633  11.696  10.969  11.139  0.0333 -1.6119  0.6844
  664MOL0     H89634  11.909  10.882  11.001  0.0016  4.7980 -1.6077
  664MOL0     H89635  11.775  10.913  10.899 -1.8559 -4.3772 -2.6452
  664MOL0     H89636  11.705  10.688  10.870 -2.8699  0.8096  3.5462
  664MOL0     H89637  11.805  10.644  11.009  3.0824 -0.7031 -0.5323
  664MOL0     H89638  12.064  10.602  10.672  1.8343  2.5321 -0.0419
  664MOL0     H89639  11.326  10.769  10.970 -1.5268 -0.4206 -0.1671
  664MOL0     H89640  11.100  10.705  10.991 -0.4243 -0.4609 -0.4380
  665MOL0     O89641   3.226  10.228  11.453 -0.4200  0.0657 -0.1527
  665MOL0     C89642   3.308  10.238  11.364  0.1994  0.8344  0.1123
  665MOL0     O89643   3.394  10.135  11.345 -0.0397 -0.0473 -0.0462
  665MOL0     C89644   3.422  10.039  11.438 -0.3104 -0.4353  0.8349
  665MOL0     C89645   3.502   9.932  11.397 -0.5095 -0.0091 -0.1137
  665MOL0     C89646   3.549   9.826  11.480  0.9492 -0.3097  1.4519
  665MOL0     C89647   3.510   9.838  11.615 -0.0687 -0.4483  0.2345
  665MOL0     O89648   3.544   9.755  11.714  0.4675  0.5909 -0.1956
  665MOL0     C89649   3.678   9.705  11.710  0.3208  0.1795 -0.5647
  665MOL0     C89650   3.720   9.644  11.849 -0.2027 -0.0719  0.4665
  665MOL0     C89651   3.646   9.505  11.871  0.4783 -0.4680 -0.0571
  665MOL0     C89652   3.680   9.448  12.011  0.7023 -0.2119  0.6818
  665MOL0     C89653   3.606   9.323  12.060 -0.4148  0.7003 -1.1543
  665MOL0     C89654   3.471   9.365  12.138  0.1489  0.1696  0.7841
  665MOL0     C89655   3.375   9.247  12.124 -0.5139 -1.1319  1.0065
  665MOL0     C89656   3.393   9.150  12.236  0.3675  0.2370 -0.0158
  665MOL0     N89657   3.311   9.036  12.204  0.1071 -0.6441 -0.6058
  665MOL0     C89658   3.353   8.915  12.161  0.5787  0.4489 -0.4806
  665MOL0     C89659   3.236   8.845  12.142 -0.5812  0.7733 -0.3872
  665MOL0     C89660   3.235   8.689  12.097  0.0959 -0.0845  0.6388
  665MOL0     C89661   3.097   8.637  12.079  0.0723 -0.1367 -0.2811
  665MOL0     C89662   3.093   8.488  12.051  0.1947 -1.0195  1.0374
  665MOL0     C89663   3.117   8.446  11.903 -0.3391  0.1698  0.0568
  665MOL0     O89664   3.257   8.427  11.878  0.4725  0.0015 -0.6222
  665MOL0     C89665   3.287   8.353  11.765  0.3006  0.3815 -0.8148
  665MOL0     C89666   3.203   8.337  11.658 -0.7349 -0.1353 -0.3370
  665MOL0     C89667   3.244   8.286  11.538 -0.6500 -0.1121  0.3523
  665MOL0     C89668   3.135   8.270  11.432  0.6009 -0.9473 -0.0273
  665MOL0     C89669   3.380   8.255  11.518 -0.2280  0.2960 -0.3608
  665MOL0     C89670   3.436   8.196  11.394  0.2203  0.8243  0.0245
  665MOL0     O89671   3.342   8.159  11.295  0.5632  0.2390  0.4440
  665MOL0     C89672   3.379   8.118  11.172  0.3124  0.1486 -0.3828
  665MOL0     C89673   3.324   8.002  11.116  0.2895  0.3090 -0.3419
  665MOL0     C89674   3.349   7.967  10.975 -0.0004 -0.5995  0.6353
  665MOL0     C89675   3.448   8.033  10.900  0.0280 -0.7862  0.6172
  665MOL0     O89676   3.474   8.011  10.766  0.2811  0.1992  0.5557
  665MOL0     C89677   3.598   8.058  10.704 -0.3060  0.0882 -0.1388
  665MOL0     C89678   3.610   8.001  10.561 -0.3076  0.6529  1.0429
  665MOL0     C89679   3.610   7.845  10.548 -0.1949 -0.3864 -0.6295
  665MOL0     C89680   3.750   7.781  10.581  0.1010 -0.4432 -0.4474
  665MOL0     C89681   3.758   7.642  10.532 -0.3361 -0.5719  0.5678
  665MOL0     C89682   3.902   7.598  10.543 -0.4711  0.1935  0.2028
  665MOL0     C89683   3.939   7.467  10.463 -0.4006 -0.4735  0.3493
  665MOL0     C89684   4.093   7.443  10.492 -0.3843  0.0408 -0.1174
  665MOL0    Cl89685   4.129   7.286  10.410  0.0765  0.3221 -0.0878
  665MOL0     C89686   3.503   8.151  10.968 -0.0742 -0.3154 -0.2648
  665MOL0     C89687   3.462   8.194  11.089  0.1676  0.6891 -0.4038
  665MOL0     O89688   3.562   8.193  11.381  0.1886 -0.0408  0.1302
  665MOL0     C89689   3.468   8.279  11.630 -0.2513  0.6527  0.0055
  665MOL0     C89690   3.417   8.325  11.753  0.8129  0.4795 -0.9179
  665MOL0     N89691   3.132   8.926  12.158 -0.1689 -0.4123  0.6440
  665MOL0     N89692   3.177   9.037  12.201 -0.3636 -0.5239 -0.3322
  665MOL0     C89693   3.434   9.945  11.661  0.0038  0.8161 -0.9343
  665MOL0     C89694   3.399  10.047  11.577 -0.3973 -0.2404 -0.1396
  665MOL0     C89695   3.316  10.354  11.286  1.2000 -0.6786  1.1142
  665MOL0     C89696   3.429  10.381  11.213  0.3995  0.4993  0.3793
  665MOL0     C89697   3.436  10.505  11.150  0.3459 -0.9156  0.4077
  665MOL0     C89698   3.335  10.607  11.151 -0.2859 -0.5323  0.8843
  665MOL0     O89699   3.373  10.713  11.077 -0.2330  0.1830  0.6396
  665MOL0     C89700   3.287  10.832  11.094 -0.1429  0.1240  0.5289
  665MOL0     C89701   3.165  10.828  11.000 -0.2982 -0.0249 -0.3915
  665MOL0     C89702   3.145  10.959  10.919  0.0237 -0.2991 -0.5127
  665MOL0     C89703   3.126  11.090  11.002  0.2983 -0.4937  0.5015
  665MOL0     C89704   3.013  11.072  11.096 -0.9891 -0.4035 -0.6032
  665MOL0     C89705   2.931  11.049  11.187  0.3714  0.8708  0.4373
  665MOL0     C89706   3.217  10.578  11.220  0.2392  0.4868 -0.8705
  665MOL0     C89707   3.209  10.454  11.286 -0.5399  0.3629 -0.9415
  665MOL0     H89708   3.532   9.927  11.293 -0.8580 -2.0002 -0.1468
  665MOL0     H89709   3.599   9.736  11.444 -0.1379 -0.4958  0.3292
  665MOL0     H89710   3.679   9.616  11.647 -1.7349 -1.1738  1.1539
  665MOL0     H89711   3.750   9.778  11.673  0.1558  0.3263 -0.5986
  665MOL0     H89712   3.826   9.617  11.855  1.6692  5.6833 -0.7014
  665MOL0     H89713   3.698   9.713  11.931  0.2120  0.3357  0.2374
  665MOL0     H89714   3.538   9.516  11.864  0.6518  1.7338  0.0516
  665MOL0     H89715   3.682   9.441  11.790  1.8265 -0.3769  0.4490
  665MOL0     H89716   3.784   9.416  12.021  1.1075  0.1081 -1.8627
  665MOL0     H89717   3.656   9.534  12.073  0.3012  0.1142  0.0866
  665MOL0     H89718   3.590   9.270  11.965  0.8358  1.8504 -2.0330
  665MOL0     H89719   3.672   9.264  12.124  0.2279  1.1039 -1.4320
  665MOL0     H89720   3.491   9.393  12.242  1.0769 -1.7526  1.1598
  665MOL0     H89721   3.422   9.451  12.092 -1.3781 -0.2302  1.6171
  665MOL0     H89722   3.277   9.296  12.120 -0.4114 -0.8171 -4.0022
  665MOL0     H89723   3.385   9.209  12.022 -1.6088  0.8779  0.0920
  665MOL0     H89724   3.371   9.179  12.339  2.4224  0.9478  0.2730
  665MOL0     H89725   3.499   9.125  12.241  0.3276 -0.2816 -1.4814
  665MOL0     H89726   3.452   8.870  12.167  1.0821  1.6782  3.0029
  665MOL0     H89727   3.287   8.687  12.001  0.8204 -2.2443  1.0079
  665MOL0     H89728   3.299   8.627  12.161  2.1452 -1.6511 -2.6363
  665MOL0     H89729   3.054   8.696  11.997 -1.4223 -0.8335 -0.0437
  665MOL0     H89730   3.054   8.655  12.178 -0.2691  0.8624 -0.5926
  665MOL0     H89731   2.996   8.444  12.078  1.2776 -2.1272  3.4315
  665MOL0     H89732   3.161   8.432  12.116  0.0789 -0.8033  1.3451
  665MOL0     H89733   3.098   8.529  11.834  1.1136  0.6972  0.2396
  665MOL0     H89734   3.058   8.356  11.887  0.1994  0.1629 -2.2083
  665MOL0     H89735   3.102   8.374  11.656  0.2866  2.8554 -1.1038
  665MOL0     H89736   3.128   8.163  11.409  0.5427 -1.0704  0.5681
  665MOL0     H89737   3.033   8.281  11.469  0.0366 -1.2446 -1.4150
  665MOL0     H89738   3.159   8.338  11.349  3.7055 -1.4783  0.2957
  665MOL0     H89739   3.256   7.954  11.187  1.7066 -0.5024  0.5160
  665MOL0     H89740   3.299   7.879  10.935  0.7855 -1.1939  0.9319
  665MOL0     H89741   3.604   8.167  10.694 -1.6391  0.2056  0.2157
  665MOL0     H89742   3.681   8.019  10.763 -1.4760 -2.8187 -0.2489
  665MOL0     H89743   3.519   8.036  10.512  0.2749  0.5969 -0.1080
  665MOL0     H89744   3.687   8.036  10.492 -2.2900 -3.9809 -4.2010
  665MOL0     H89745   3.575   7.817  10.448 -0.0486 -2.6982 -0.0842
  665MOL0     H89746   3.537   7.801  10.616  1.9459 -4.4427 -0.6797
  665MOL0     H89747   3.826   7.846  10.536  1.0731 -0.9424  0.4381
  665MOL0     H89748   3.761   7.794  10.689 -0.2194  0.6890 -0.5361
  665MOL0     H89749   3.725   7.627  10.429 -1.1754 -1.2943  0.9357
  665MOL0     H89750   3.719   7.562  10.596 -3.2572  0.5248  0.3155
  665MOL0     H89751   3.958   7.684  10.506 -1.2477  0.9621  0.7648
  665MOL0     H89752   3.941   7.596  10.644 -0.6754 -0.0271  0.2799
  665MOL0     H89753   3.928   7.489  10.357 -0.2116  3.9364  1.0511
  665MOL0     H89754   3.885   7.377  10.493 -0.3974 -0.7006 -0.3119
  665MOL0     H89755   4.116   7.445  10.599  1.5619  0.3099 -0.5013
  665MOL0     H89756   4.152   7.518  10.438 -0.1579 -1.7732 -2.5603
  665MOL0     H89757   3.586   8.201  10.920  1.4300 -3.7526 -1.5517
  665MOL0     H89758   3.505   8.286  11.127 -1.6596  1.7865 -0.8280
  665MOL0     H89759   3.576   8.271  11.618 -0.0423  1.7788  0.9022
  665MOL0     H89760   3.482   8.343  11.838 -2.8245 -0.4504  2.3284
  665MOL0     H89761   3.409   9.952  11.767  0.3189  1.9240 -0.9179
  665MOL0     H89762   3.357  10.131  11.632  1.7680  0.2097  0.9478
  665MOL0     H89763   3.516  10.318  11.203 -0.2997 -0.2520 -1.4323
  665MOL0     H89764   3.526  10.528  11.094 -2.1701  0.9033 -3.2813
  665MOL0     H89765   3.249  10.839  11.196 -3.5253  0.5597 -0.6574
  665MOL0     H89766   3.337  10.929  11.084  1.4921 -0.2245  3.8516
  665MOL0     H89767   3.081  10.806  11.066 -2.4896  3.3568 -1.7654
  665MOL0     H89768   3.169  10.749  10.925  0.3963  2.4758 -3.1904
  665MOL0     H89769   3.062  10.940  10.851  1.1092 -1.6030 -1.5125
  665MOL0     H89770   3.233  10.984  10.859 -0.0281  1.8871  0.2399
  665MOL0     H89771   3.088  11.175  10.944 -1.8560 -0.0789  2.3739
  665MOL0     H89772   3.217  11.127  11.050  0.9826  0.5651 -1.4875
  665MOL0     H89773   2.862  11.021  11.264  0.4829 -1.2913 -0.1785
  665MOL0     H89774   3.133  10.646  11.218 -0.9887 -0.9146  0.1736
  665MOL0     H89775   3.130  10.424  11.355  0.1482  0.4750 -0.0836
  666MOL0     O89776   9.590  10.317   3.447  0.8942  0.7101  0.7822
  666MOL0     C89777   9.678  10.243   3.494  0.2099  0.0754 -0.0523
  666MOL0     O89778   9.678  10.105   3.483 -0.9169  0.0095  0.0413
  666MOL0     C89779   9.623  10.056   3.366 -0.8878  0.3652  0.7212
  666MOL0     C89780   9.519   9.961   3.374  0.4965  0.2608  0.0667
  666MOL0     C89781   9.461   9.915   3.257 -0.0172 -0.0414 -0.0090
  666MOL0     C89782   9.513   9.961   3.133 -0.3848  0.4117 -0.2211
  666MOL0     O89783   9.461   9.930   3.007  0.4729  0.0412  0.3574
  666MOL0     C89784   9.321   9.952   3.000 -0.0427  0.4630 -0.1228
  666MOL0     C89785   9.284   9.942   2.856  0.7477 -0.3211 -0.0446
  666MOL0     C89786   9.343  10.045   2.764 -0.2139 -0.1300 -0.3333
  666MOL0     C89787   9.252  10.169   2.752 -0.0350  0.2927 -0.2004
  666MOL0     C89788   9.123  10.154   2.681 -0.4972 -0.2348  0.3629
  666MOL0     C89789   9.115  10.254   2.560  0.7445 -0.0498 -0.7763
  666MOL0     C89790   8.995  10.242   2.482 -0.1930 -0.1460  0.0242
  666MOL0     C89791   8.976  10.105   2.412  0.7302 -0.3796 -0.3286
  666MOL0     N89792   9.063  10.103   2.293  0.8151 -0.2043  0.8604
  666MOL0     C89793   9.020  10.085   2.159  0.5663 -0.3654  0.4279
  666MOL0     C89794   9.136  10.056   2.097 -0.7038 -0.0125  0.9305
  666MOL0     C89795   9.160  10.041   1.947  0.2465  0.1872  0.5045
  666MOL0     C89796   9.155   9.897   1.897  0.1965 -0.4311 -0.2343
  666MOL0     C89797   9.017   9.833   1.925  0.5031 -0.5759 -0.0583
  666MOL0     C89798   8.899   9.888   1.843 -0.4034  0.6411 -0.0565
  666MOL0     O89799   8.849  10.003   1.903 -0.1793  0.3608  0.8811
  666MOL0     C89800   8.729  10.046   1.846 -0.4947  1.0536  0.4290
  666MOL0     C89801   8.663  10.153   1.902 -0.8547 -0.0512 -1.1967
  666MOL0     C89802   8.539  10.197   1.855  0.6122  0.0306  1.5598
  666MOL0     C89803   8.456  10.291   1.939  0.0342  1.5751 -0.3870
  666MOL0     C89804   8.480  10.147   1.736  0.6332 -0.1856 -0.6283
  666MOL0     C89805   8.352  10.196   1.677 -0.2427 -0.7475 -0.2352
  666MOL0     O89806   8.297  10.104   1.582  0.0497 -0.5222  0.4104
  666MOL0     C89807   8.159  10.098   1.566  0.1006  0.1973  0.9406
  666MOL0     C89808   8.116  10.036   1.446  0.2926  0.1018  0.3516
  666MOL0     C89809   7.979  10.038   1.412 -0.2930  0.3381  0.4366
  666MOL0     C89810   7.880  10.094   1.493  1.1056 -0.4304  0.0725
  666MOL0     O89811   7.744  10.106   1.480 -0.9530 -0.3694 -0.1377
  666MOL0     C89812   7.661   9.993   1.437  0.3376 -0.1881  0.2560
  666MOL0     C89813   7.517  10.032   1.465  1.5566  0.1360 -0.5693
  666MOL0     C89814   7.493  10.058   1.609  0.4809 -0.7225 -0.2257
  666MOL0     C89815   7.529   9.929   1.698  0.6871 -1.1162  0.4384
  666MOL0     C89816   7.465   9.915   1.839 -0.3461 -0.2900  0.9368
  666MOL0     C89817   7.555   9.965   1.953  0.5943  0.7666 -0.3537
  666MOL0     C89818   7.557  10.117   1.953 -0.3401  0.3264 -0.6004
  666MOL0     C89819   7.669  10.163   2.042  0.4098 -0.1614 -0.5601
  666MOL0    Cl89820   7.769  10.306   1.984 -0.5504  0.1596  0.2446
  666MOL0     C89821   7.922  10.147   1.615 -0.5836  0.0385 -0.6855
  666MOL0     C89822   8.059  10.155   1.650  0.5424 -0.3107 -0.0399
  666MOL0     O89823   8.314  10.313   1.701 -0.0390 -0.1644  0.2977
  666MOL0     C89824   8.552  10.043   1.677  1.2917  0.0592  0.3269
  666MOL0     C89825   8.674   9.986   1.732  1.1958 -0.2172 -1.0770
  666MOL0     N89826   9.241  10.070   2.184 -0.5461 -0.2601 -0.0991
  666MOL0     N89827   9.199  10.094   2.306  0.3322 -1.0878 -0.1772
  666MOL0     C89828   9.635  10.029   3.129  0.2699  0.2154  0.2156
  666MOL0     C89829   9.693  10.079   3.243 -0.2569 -0.3983  0.5781
  666MOL0     C89830   9.775  10.307   3.582 -0.3427  0.0349  0.5609
  666MOL0     C89831   9.773  10.450   3.585 -0.4609  0.5232  0.7718
  666MOL0     C89832   9.851  10.514   3.672 -0.1711 -0.3348  0.1707
  666MOL0     C89833   9.938  10.451   3.763  0.1669  0.4645  0.6986
  666MOL0     O89834  10.016  10.541   3.837  0.4730  0.5347 -0.3062
  666MOL0     C89835  10.113  10.484   3.930  1.1725  0.4964 -0.3788
  666MOL0     C89836  10.240  10.428   3.871 -0.9258 -0.9761  0.0998
  666MOL0     C89837  10.322  10.332   3.969 -0.4464  0.9187  0.8857
  666MOL0     C89838  10.456  10.265   3.943 -0.1849 -0.0689  0.2310
  666MOL0     C89839  10.460  10.192   3.818 -0.4249  0.3976  0.2244
  666MOL0     C89840  10.456  10.115   3.724  0.1062  0.2180  0.0542
  666MOL0     C89841   9.941  10.312   3.758  0.2007  0.5183 -0.1702
  666MOL0     C89842   9.859  10.238   3.673  0.4048  0.2359  0.0902
  666MOL0     H89843   9.474   9.933   3.469 -2.6603  2.4577 -0.6328
  666MOL0     H89844   9.374   9.849   3.258 -0.2580  0.1967 -1.9556
  666MOL0     H89845   9.267   9.867   3.044  3.2760 -1.6891  0.1848
  666MOL0     H89846   9.286  10.048   3.038  1.6408  1.5430 -1.1779
  666MOL0     H89847   9.336   9.852   2.821  1.0565 -0.4706  0.7648
  666MOL0     H89848   9.174   9.944   2.851  0.7965  1.6944 -2.0398
  666MOL0     H89849   9.441  10.075   2.804  0.4545 -3.3700  0.8007
  666MOL0     H89850   9.353   9.996   2.667 -0.5992 -2.6729  0.8104
  666MOL0     H89851   9.234  10.205   2.854  4.1101 -0.5360  1.0174
  666MOL0     H89852   9.312  10.245   2.700 -0.4121  2.5466  2.4257
  666MOL0     H89853   9.119  10.051   2.643  3.0125 -0.4231  0.1719
  666MOL0     H89854   9.042  10.164   2.754  0.3918 -3.1398  1.9173
  666MOL0     H89855   9.113  10.357   2.595  1.0420 -0.3971  0.3043
  666MOL0     H89856   9.205  10.249   2.499 -1.1427  1.8259 -3.9820
  666MOL0     H89857   8.907  10.252   2.546  0.0732 -2.2636  0.8055
  666MOL0     H89858   9.002  10.319   2.405  3.9548 -1.6147 -1.3751
  666MOL0     H89859   8.872  10.104   2.380  1.1580  5.5943 -3.5398
  666MOL0     H89860   8.989  10.026   2.485  0.2837 -1.4833 -1.4113
  666MOL0     H89861   8.925  10.072   2.110  0.1527 -2.2061  1.6099
  666MOL0     H89862   9.082  10.105   1.905 -0.9967 -1.4459  0.2207
  666MOL0     H89863   9.253  10.095   1.928 -0.6813  2.6770  2.5994
  666MOL0     H89864   9.228   9.841   1.955  1.2922  1.1077 -0.0634
  666MOL0     H89865   9.180   9.902   1.790  1.9916 -1.2694  0.1187
  666MOL0     H89866   8.992   9.829   2.032  0.1518  4.3679  0.2971
  666MOL0     H89867   9.026   9.727   1.902  0.4315 -0.6850  0.4077
  666MOL0     H89868   8.823   9.810   1.845  0.4094 -0.1575  0.6649
  666MOL0     H89869   8.937   9.910   1.743 -1.5079 -0.0399 -0.6506
  666MOL0     H89870   8.716  10.200   1.984 -0.7432  0.5770 -1.6222
  666MOL0     H89871   8.501  10.318   2.035 -3.1401  1.0934  1.3681
  666MOL0     H89872   8.437  10.387   1.890  3.5644  2.1212 -0.9397
  666MOL0     H89873   8.369  10.235   1.977 -0.9900  2.1790 -1.7638
  666MOL0     H89874   8.188   9.982   1.386 -1.0932  0.1407 -1.4241
  666MOL0     H89875   7.944   9.998   1.318  0.3184 -2.6794  1.3895
  666MOL0     H89876   7.677   9.970   1.331  1.5494 -2.0837  0.8058
  666MOL0     H89877   7.676   9.895   1.482  1.4564  0.1248  0.5942
  666MOL0     H89878   7.489  10.119   1.406 -1.7751  0.2382  0.9413
  666MOL0     H89879   7.449   9.950   1.437  0.9896  0.1836  0.6107
  666MOL0     H89880   7.389  10.084   1.627  0.8671  1.3324 -0.6894
  666MOL0     H89881   7.551  10.144   1.643  1.3215 -1.4753  0.2891
  666MOL0     H89882   7.504   9.837   1.643  1.9200 -1.4316  0.3891
  666MOL0     H89883   7.637   9.922   1.712  1.0208  0.9165 -0.6854
  666MOL0     H89884   7.447   9.807   1.842 -4.2830  0.0796 -2.0224
  666MOL0     H89885   7.367   9.961   1.847 -1.3365 -2.2750  0.7106
  666MOL0     H89886   7.509   9.921   2.042 -0.5717 -3.4315 -2.7581
  666MOL0     H89887   7.657   9.926   1.951  0.2312 -0.2633  0.2652
  666MOL0     H89888   7.456  10.152   1.978 -0.1309  0.2888  0.3261
  666MOL0     H89889   7.589  10.150   1.854 -1.8012  2.1137 -0.5342
  666MOL0     H89890   7.745  10.085   2.042  1.2917  0.6875 -0.8348
  666MOL0     H89891   7.635  10.167   2.146  2.4275 -6.3207  0.6970
  666MOL0     H89892   7.849  10.178   1.689 -2.2464 -2.4806 -1.1723
  666MOL0     H89893   8.104  10.204   1.735  1.0443  0.8656 -0.9566
  666MOL0     H89894   8.517   9.996   1.585  3.5258 -1.9762  0.4217
  666MOL0     H89895   8.701   9.894   1.683  0.5317 -1.0226  0.0122
  666MOL0     H89896   9.685  10.052   3.035  1.3058 -3.0687 -0.1589
  666MOL0     H89897   9.787  10.133   3.241 -0.0424 -0.7459  1.1103
  666MOL0     H89898   9.703  10.500   3.519  0.0329 -1.3842 -1.3134
  666MOL0     H89899   9.839  10.622   3.668  1.5451 -0.1317 -0.0972
  666MOL0     H89900  10.135  10.560   4.005 -0.9115 -1.4934  2.5139
  666MOL0     H89901  10.056  10.411   3.989  2.1368  0.9513  1.1793
  666MOL0     H89902  10.303  10.517   3.864  0.7970 -1.8915  2.5979
  666MOL0     H89903  10.225  10.384   3.772  0.9161  0.2352 -0.7663
  666MOL0     H89904  10.245  10.256   3.986 -0.4755 -0.0912 -2.8956
  666MOL0     H89905  10.340  10.396   4.056  2.7500  2.1541 -0.5472
  666MOL0     H89906  10.478  10.198   4.026  1.0514 -1.1713 -0.9363
  666MOL0     H89907  10.529  10.346   3.937 -0.1410 -0.2163 -2.5353
  666MOL0     H89908  10.465  10.051   3.639 -1.3873  0.4250 -0.2882
  666MOL0     H89909   9.998  10.265   3.838 -2.9299  0.3498  2.1254
  666MOL0     H89910   9.857  10.130   3.681  0.2983  0.3582  2.0278
  667MOL0     O89911   0.752   6.169   2.039 -0.6405  0.1948 -0.8340
  667MOL0     C89912   0.641   6.175   2.099 -0.4822  0.5565  0.2929
  667MOL0     O89913   0.605   6.096   2.203 -0.4540  0.0861 -0.5421
  667MOL0     C89914   0.669   5.985   2.253 -0.1563 -1.2359 -0.1820
  667MOL0     C89915   0.719   5.880   2.179 -0.2119 -0.3280  0.3738
  667MOL0     C89916   0.764   5.766   2.237  0.8080 -0.4402  0.2607
  667MOL0     C89917   0.779   5.768   2.373 -0.5517 -0.7191  0.0135
  667MOL0     O89918   0.813   5.655   2.442  0.7264  0.4459 -0.4383
  667MOL0     C89919   0.877   5.543   2.385 -0.6304 -0.1625  1.0795
  667MOL0     C89920   0.947   5.456   2.494 -0.4318 -0.2796  0.5990
  667MOL0     C89921   0.837   5.447   2.609  0.0316 -0.3582  0.2657
  667MOL0     C89922   0.896   5.345   2.705 -0.2884  1.0899 -0.4815
  667MOL0     C89923   0.807   5.309   2.824  0.5923 -0.7746 -0.2089
  667MOL0     C89924   0.704   5.207   2.778 -0.4315  0.6101 -0.3170
  667MOL0     C89925   0.606   5.137   2.878  0.6765 -0.8977 -0.5316
  667MOL0     C89926   0.524   5.024   2.811  0.4766  0.0276  0.1443
  667MOL0     N89927   0.566   4.886   2.838  0.1890 -0.3725 -0.6339
  667MOL0     C89928   0.515   4.806   2.938  0.6060  0.3173 -0.2703
  667MOL0     C89929   0.597   4.704   2.961  0.1029  1.9065  0.0911
  667MOL0     C89930   0.570   4.578   3.043 -0.6626  0.5050 -0.4858
  667MOL0     C89931   0.454   4.504   2.985  0.0517 -0.3630 -0.1837
  667MOL0     C89932   0.477   4.475   2.835 -0.1464 -0.7626 -0.8314
  667MOL0     C89933   0.385   4.358   2.790  0.4379 -0.0825  0.0762
  667MOL0     O89934   0.350   4.370   2.649 -0.1468 -0.1627  0.1883
  667MOL0     C89935   0.433   4.345   2.544  0.2804 -0.1637  0.1332
  667MOL0     C89936   0.411   4.394   2.420  0.0936  0.3740 -0.1948
  667MOL0     C89937   0.495   4.359   2.306 -0.3172 -0.0282 -0.5505
  667MOL0     C89938   0.466   4.427   2.182  0.8242 -0.1189  0.6558
  667MOL0     C89939   0.609   4.270   2.337  0.2572  0.4620  0.0530
  667MOL0     C89940   0.710   4.235   2.229  0.2995  0.2196 -1.2557
  667MOL0     O89941   0.774   4.121   2.256 -0.1596  0.1131 -0.2130
  667MOL0     C89942   0.893   4.080   2.199 -1.0753  0.4693 -0.3008
  667MOL0     C89943   0.945   3.945   2.238 -0.1885 -0.9881  0.1491
  667MOL0     C89944   1.072   3.910   2.198 -0.5799  0.1980  0.4419
  667MOL0     C89945   1.159   3.987   2.120  0.0729 -0.8973 -0.0553
  667MOL0     O89946   1.289   3.955   2.098 -0.0343  0.2050 -0.2864
  667MOL0     C89947   1.374   4.043   2.012  0.4649  0.1169 -0.7645
  667MOL0     C89948   1.520   3.989   1.999 -1.4903  0.8474  0.4370
  667MOL0     C89949   1.597   4.020   2.130 -0.2321  0.2054  0.5906
  667MOL0     C89950   1.744   3.978   2.132 -0.5915 -0.0174  0.5916
  667MOL0     C89951   1.778   3.824   2.149  0.8040 -0.6983 -0.7291
  667MOL0     C89952   1.867   3.771   2.045  0.4768 -0.4799  0.6549
  667MOL0     C89953   1.917   3.626   2.066  0.8311 -0.4298  0.0436
  667MOL0     C89954   2.054   3.607   2.032 -1.1981  0.9101  0.1904
  667MOL0    Cl89955   2.156   3.645   2.167  0.2807 -0.7073  0.3162
  667MOL0     C89956   1.112   4.118   2.085 -0.2777 -0.3131 -0.8356
  667MOL0     C89957   0.983   4.163   2.122  0.7330  0.0728  0.5690
  667MOL0     O89958   0.733   4.312   2.139 -0.8624 -0.8037 -0.4098
  667MOL0     C89959   0.626   4.225   2.466 -0.1521 -0.6530 -0.7264
  667MOL0     C89960   0.551   4.262   2.577 -0.1848  0.5032  0.4417
  667MOL0     N89961   0.699   4.717   2.875 -0.4701  0.3837  0.3536
  667MOL0     N89962   0.681   4.823   2.803  1.0407  0.1748 -0.1719
  667MOL0     C89963   0.738   5.877   2.455 -0.1207  0.1448  0.5195
  667MOL0     C89964   0.693   5.992   2.392  0.3983  0.2968 -0.4759
  667MOL0     C89965   0.550   6.278   2.045 -0.3913  0.5130  0.4332
  667MOL0     C89966   0.413   6.262   2.043 -0.1147  0.1903 -0.2026
  667MOL0     C89967   0.331   6.360   1.986  0.1226  0.6233 -0.2361
  667MOL0     C89968   0.374   6.487   1.953  0.0781 -0.2424 -0.2208
  667MOL0     O89969   0.290   6.594   1.927 -0.1301  0.4214 -0.0162
  667MOL0     C89970   0.281   6.615   1.788  0.1477  1.1891 -0.1828
  667MOL0     C89971   0.317   6.753   1.744 -0.1863 -0.1339 -0.0057
  667MOL0     C89972   0.461   6.804   1.779  0.1156  0.1695 -0.0733
  667MOL0     C89973   0.490   6.947   1.733 -0.4841 -0.0821  0.6925
  667MOL0     C89974   0.409   7.044   1.806  0.2225  0.2036 -0.3700
  667MOL0     C89975   0.353   7.141   1.844 -0.2414  1.0091 -0.0278
  667MOL0     C89976   0.514   6.517   1.964 -0.4881  0.4213  0.0346
  667MOL0     C89977   0.599   6.403   2.003  0.2691  0.9334 -0.2823
  667MOL0     H89978   0.713   5.888   2.071 -0.1257 -0.1837  0.3787
  667MOL0     H89979   0.776   5.680   2.172 -4.6082 -2.6476  1.6331
  667MOL0     H89980   0.801   5.492   2.325 -0.4096  0.4451  0.2587
  667MOL0     H89981   0.958   5.580   2.321 -1.5861 -1.0336 -0.6881
  667MOL0     H89982   0.978   5.357   2.459 -3.0268 -2.2432  3.2624
  667MOL0     H89983   1.034   5.508   2.535  0.3472  1.1585 -2.6107
  667MOL0     H89984   0.824   5.547   2.650 -1.7508 -1.2162  1.9421
  667MOL0     H89985   0.748   5.409   2.558  1.4856  0.1045 -2.8609
  667MOL0     H89986   0.921   5.255   2.648  3.9611  0.2105  2.3438
  667MOL0     H89987   0.992   5.372   2.749  1.0326  1.5757 -3.4127
  667MOL0     H89988   0.857   5.273   2.914  0.3719 -2.4374 -0.7236
  667MOL0     H89989   0.745   5.395   2.852 -1.3353 -1.4587 -2.0253
  667MOL0     H89990   0.650   5.242   2.690 -0.3441 -0.5516 -0.8463
  667MOL0     H89991   0.773   5.126   2.751  2.0295  1.1839  3.4435
  667MOL0     H89992   0.670   5.096   2.956 -0.1888 -0.2782  0.5247
  667MOL0     H89993   0.540   5.205   2.933 -2.2454 -1.7756 -2.6467
  667MOL0     H89994   0.497   5.047   2.708 -1.0735  0.1588  0.5615
  667MOL0     H89995   0.426   5.040   2.857  1.8735  4.2490  2.1943
  667MOL0     H89996   0.417   4.806   2.986  1.3308  2.4157  1.3478
  667MOL0     H89997   0.664   4.521   3.047  0.2861  2.1000  1.0719
  667MOL0     H89998   0.553   4.613   3.145  0.0083  1.3443 -0.6482
  667MOL0     H89999   0.362   4.562   2.992 -1.7092 -2.8673 -1.2347
  667MOL0     H90000   0.432   4.415   3.045 -1.9208  0.8395  0.9778
  667MOL0     H90001   0.583   4.453   2.819  0.0185 -0.4587 -0.1800
  667MOL0     H90002   0.450   4.561   2.772 -0.1249 -1.0531 -1.2440
  667MOL0     H90003   0.288   4.371   2.839  1.6313  2.0896  2.0334
  667MOL0     H90004   0.414   4.256   2.818 -0.6311 -0.2169  0.7806
  667MOL0     H90005   0.325   4.461   2.412 -0.8010 -0.7760 -0.4737
  667MOL0     H90006   0.549   4.483   2.138  0.6058 -2.3192 -2.9660
  667MOL0     H90007   0.425   4.362   2.104  0.2380  2.2038 -1.0552
  667MOL0     H90008   0.378   4.490   2.197 -0.6099 -2.1688  1.3377
  667MOL0     H90009   0.873   3.877   2.283 -1.2550  0.3019  0.4584
  667MOL0     H90010   1.118   3.817   2.231 -1.6785 -0.0095  1.4549
  667MOL0     H90011   1.328   4.065   1.915  0.8681  4.3085 -0.2057
  667MOL0     H90012   1.377   4.138   2.066  0.6501 -1.5633  2.4271
  667MOL0     H90013   1.535   3.882   1.981  2.7878  1.4904 -1.2359
  667MOL0     H90014   1.570   4.040   1.916 -2.3819  3.2660  1.3023
  667MOL0     H90015   1.541   3.977   2.213 -2.1031 -2.7964 -2.0085
  667MOL0     H90016   1.585   4.128   2.143  2.4391  0.7061 -0.4080
  667MOL0     H90017   1.792   4.009   2.039 -1.3114 -0.5954  0.0167
  667MOL0     H90018   1.787   4.046   2.207 -4.3540  3.5905 -0.1387
  667MOL0     H90019   1.684   3.770   2.161 -0.3735  1.0003 -1.8726
  667MOL0     H90020   1.826   3.822   2.248 -0.0524  2.3896 -0.1256
  667MOL0     H90021   1.812   3.769   1.950  1.2413  0.5684  0.1743
  667MOL0     H90022   1.957   3.832   2.033  0.8313 -1.3305 -1.4381
  667MOL0     H90023   1.858   3.566   1.995  0.7888  1.7553 -1.8875
  667MOL0     H90024   1.887   3.599   2.167 -0.6822 -2.5388 -0.8936
  667MOL0     H90025   2.079   3.659   1.939 -0.4905  3.0907  1.5217
  667MOL0     H90026   2.072   3.500   2.017  0.4294  1.3442 -1.3802
  667MOL0     H90027   1.165   4.186   2.018 -0.5089  0.7331  0.0112
  667MOL0     H90028   0.956   4.264   2.094 -3.7435  0.2101  4.2107
  667MOL0     H90029   0.703   4.151   2.487  0.3460 -0.9677 -3.3148
  667MOL0     H90030   0.574   4.221   2.675 -0.4840  3.1083  1.6930
  667MOL0     H90031   0.721   5.881   2.562  0.2852  0.9669  0.5567
  667MOL0     H90032   0.661   6.080   2.449  0.3508 -0.8121  1.3004
  667MOL0     H90033   0.364   6.174   2.083 -0.6841  0.2999 -0.6425
  667MOL0     H90034   0.226   6.348   1.962 -0.1804 -1.5184  1.6792
  667MOL0     H90035   0.350   6.549   1.734 -1.2994  1.0622 -1.9557
  667MOL0     H90036   0.181   6.587   1.756  0.8839 -1.9300 -0.0433
  667MOL0     H90037   0.247   6.825   1.786 -0.2099 -1.0193  1.5601
  667MOL0     H90038   0.295   6.733   1.639  0.1545 -0.0182 -0.1000
  667MOL0     H90039   0.537   6.733   1.743 -1.0191 -0.5969 -1.0475
  667MOL0     H90040   0.484   6.791   1.885  0.2302 -2.8880 -0.3931
  667MOL0     H90041   0.487   6.945   1.624  2.8252  1.2078  0.4779
  667MOL0     H90042   0.594   6.966   1.758 -0.5206 -2.0681  2.6348
  667MOL0     H90043   0.313   7.228   1.892 -0.7947  1.3922 -1.1426
  667MOL0     H90044   0.566   6.609   1.939 -2.4160  0.9331 -2.4795
  667MOL0     H90045   0.707   6.411   2.009  0.3928 -1.1630  1.0374
  668MOL0     O90046   9.039   5.756  11.105 -1.0998  0.2668 -0.2018
  668MOL0     C90047   9.015   5.741  10.988 -0.6927  0.0157 -0.0996
  668MOL0     O90048   8.900   5.780  10.926  0.0386 -0.5397 -0.6449
  668MOL0     C90049   8.819   5.859  10.995  0.5174 -0.4687  0.5267
  668MOL0     C90050   8.848   5.994  11.002  0.4774  0.2301  0.6638
  668MOL0     C90051   8.751   6.079  11.062  0.6640  0.6392 -0.0673
  668MOL0     C90052   8.637   6.036  11.115  0.2664 -1.8408  0.2741
  668MOL0     O90053   8.560   6.134  11.174 -0.6999 -0.2096 -0.5286
  668MOL0     C90054   8.491   6.079  11.283 -0.2360 -0.9246  0.3404
  668MOL0     C90055   8.442   6.185  11.383  1.5745  0.5519  0.4687
  668MOL0     C90056   8.343   6.118  11.483  1.0881 -0.2496  1.0093
  668MOL0     C90057   8.327   6.205  11.611 -0.7888  0.9962 -0.3040
  668MOL0     C90058   8.276   6.125  11.729 -0.2238  0.2828  0.3610
  668MOL0     C90059   8.122   6.128  11.725 -1.5981 -0.2752  0.0031
  668MOL0     C90060   8.047   6.037  11.831 -0.1915 -0.8823  0.1042
  668MOL0     C90061   8.037   6.111  11.960  0.7293 -0.6528  0.4786
  668MOL0     N90062   7.960   6.234  11.968  0.3641  0.3819 -0.0594
  668MOL0     C90063   8.018   6.354  11.989  0.3451 -0.4937  0.1023
  668MOL0     C90064   7.922   6.442  11.962  0.4652 -0.5722  0.4567
  668MOL0     C90065   7.956   6.580  11.926 -0.1750 -0.5026 -0.2657
  668MOL0     C90066   7.834   6.674  11.897 -0.4135  0.3491 -0.9483
  668MOL0     C90067   7.760   6.715  12.023 -0.1995  0.5335 -0.5445
  668MOL0     C90068   7.814   6.821  12.119 -0.0295  0.1967 -0.6031
  668MOL0     O90069   7.853   6.942  12.054 -0.2811  0.0612 -0.5274
  668MOL0     C90070   7.924   7.046  12.112 -0.2516 -0.5510  0.0226
  668MOL0     C90071   7.961   7.058  12.245  0.1875 -0.0583 -0.3143
  668MOL0     C90072   8.036   7.159  12.300  0.1692  0.2652 -0.2521
  668MOL0     C90073   8.056   7.168  12.446  1.1230 -0.0835  0.1624
  668MOL0     C90074   8.076   7.266  12.214  0.0254  0.0665 -0.4250
  668MOL0     C90075   8.178   7.375  12.251  0.4468  0.3839  0.4494
  668MOL0     O90076   8.244   7.423  12.139 -0.2546  0.0297  0.2825
  668MOL0     C90077   8.340   7.514  12.149 -0.9161  0.1055 -0.4949
  668MOL0     C90078   8.345   7.630  12.076  0.6864  0.5310 -0.1089
  668MOL0     C90079   8.449   7.727  12.074  1.2361  0.2795  0.1186
  668MOL0     C90080   8.569   7.706  12.148 -0.6183 -0.2041  0.1517
  668MOL0     O90081   8.658   7.814  12.167 -0.6314  0.1682  0.6171
  668MOL0     C90082   8.713   7.871  12.053  1.4524  0.1420  0.6468
  668MOL0     C90083   8.860   7.848  12.052 -0.0162 -0.3131  0.0396
  668MOL0     C90084   8.891   7.713  11.986 -0.4410 -0.6226  0.4813
  668MOL0     C90085   9.029   7.707  11.941 -0.3296 -0.4235 -0.5591
  668MOL0     C90086   9.047   7.576  11.852 -0.4353  0.3428  0.9469
  668MOL0     C90087   9.198   7.564  11.802  0.6230  0.2280 -0.4336
  668MOL0     C90088   9.293   7.560  11.915 -0.1691 -0.8779  0.7410
  668MOL0     C90089   9.425   7.512  11.864 -0.7215  0.3142  0.0588
  668MOL0    Cl90090   9.531   7.487  12.010  0.2044  0.2271 -0.4275
  668MOL0     C90091   8.573   7.592  12.219  0.2346  0.5850  0.3618
  668MOL0     C90092   8.461   7.497  12.228 -0.5614  0.0870  1.1248
  668MOL0     O90093   8.205   7.404  12.362 -0.8674  0.6380 -0.4335
  668MOL0     C90094   8.037   7.266  12.073  1.1476  1.0919 -0.7916
  668MOL0     C90095   7.965   7.151  12.024 -1.1102  0.6523 -0.2029
  668MOL0     N90096   7.811   6.372  11.936 -0.2924 -1.4221 -0.5720
  668MOL0     N90097   7.829   6.242  11.941  0.3953  0.3723  0.1793
  668MOL0     C90098   8.607   5.899  11.121  0.0280  0.6840  0.0305
  668MOL0     C90099   8.698   5.808  11.056  0.1705  0.6938  0.1457
  668MOL0     C90100   9.127   5.687  10.905 -0.1163 -0.4316  0.7509
  668MOL0     C90101   9.239   5.619  10.956  0.2982  0.8933 -0.5604
  668MOL0     C90102   9.342   5.567  10.873  0.0979 -0.2447 -0.0022
  668MOL0     C90103   9.339   5.585  10.733  0.2394 -0.1035  0.7646
  668MOL0     O90104   9.449   5.548  10.662 -0.0759  0.0309 -0.1079
  668MOL0     C90105   9.480   5.414  10.684 -0.4112  1.1349  0.3248
  668MOL0     C90106   9.565   5.357  10.555  0.3173 -0.4831  1.0090
  668MOL0     C90107   9.536   5.408  10.410  0.0488 -0.6788 -0.0621
  668MOL0     C90108   9.634   5.349  10.305  0.4740  1.0545 -0.1003
  668MOL0     C90109   9.618   5.421  10.171 -0.3706  0.6775 -1.5075
  668MOL0     C90110   9.609   5.481  10.061  0.0392 -0.2230  0.1585
  668MOL0     C90111   9.223   5.651  10.677 -1.2721  0.5386  0.4524
  668MOL0     C90112   9.125   5.696  10.769 -0.7523 -0.7751  0.8361
  668MOL0     H90113   8.946   6.035  10.982  1.1995 -0.6007  2.2876
  668MOL0     H90114   8.773   6.184  11.073 -1.1721  0.9406  1.2616
  668MOL0     H90115   8.402   6.027  11.247 -2.3342  2.0772  0.7357
  668MOL0     H90116   8.558   6.015  11.341  0.0266 -1.0255 -0.0747
  668MOL0     H90117   8.530   6.229  11.430  3.7139 -3.1090  0.2313
  668MOL0     H90118   8.388   6.268  11.336  0.1452  0.5481  2.0259
  668MOL0     H90119   8.247   6.125  11.431  1.4229  2.6894  0.6176
  668MOL0     H90120   8.379   6.017  11.505  2.0063  0.3362  2.2886
  668MOL0     H90121   8.414   6.262  11.644 -0.8406  1.4578 -0.9470
  668MOL0     H90122   8.252   6.283  11.595 -1.6134  0.0682 -1.0941
  668MOL0     H90123   8.314   6.022  11.722 -2.7401 -0.6762 -0.2252
  668MOL0     H90124   8.313   6.171  11.821 -1.3137  0.2374  0.8339
  668MOL0     H90125   8.088   6.232  11.725  0.6145  0.5277 -2.2372
  668MOL0     H90126   8.089   6.101  11.624 -2.7924  1.6448 -0.1875
  668MOL0     H90127   7.954   5.995  11.792 -0.0584  0.6412 -2.0859
  668MOL0     H90128   8.125   5.961  11.839 -0.2030 -0.8045  1.0324
  668MOL0     H90129   8.137   6.129  12.001  0.7451  0.9193 -0.1763
  668MOL0     H90130   7.976   6.043  12.020  0.0515 -0.6878 -0.2384
  668MOL0     H90131   8.121   6.371  12.018  0.4468 -1.6313  0.4594
  668MOL0     H90132   7.998   6.609  12.023  0.7903 -2.1257 -0.1573
  668MOL0     H90133   8.026   6.593  11.844  0.3706  0.6716  0.3571
  668MOL0     H90134   7.770   6.612  11.834  1.4987 -2.9101  0.0406
  668MOL0     H90135   7.863   6.764  11.843 -1.5312  0.8988 -0.6445
  668MOL0     H90136   7.761   6.620  12.077 -2.3839  1.4043  1.1807
  668MOL0     H90137   7.657   6.745  12.000 -1.5441 -3.9055 -1.2554
  668MOL0     H90138   7.904   6.787  12.170  0.1388 -0.1995 -1.1594
  668MOL0     H90139   7.738   6.824  12.198  0.8578 -3.3402  0.5515
  668MOL0     H90140   7.908   6.986  12.306  2.2371  0.0489  1.7608
  668MOL0     H90141   8.160   7.150  12.472  1.9393 -0.7868 -3.1342
  668MOL0     H90142   8.018   7.260  12.491  0.8102  0.3615 -0.9802
  668MOL0     H90143   7.994   7.088  12.489  0.7378 -0.5330 -1.1847
  668MOL0     H90144   8.270   7.646  11.999 -1.7160  0.9248  2.1825
  668MOL0     H90145   8.429   7.820  12.022  0.4515  0.2149  0.3002
  668MOL0     H90146   8.664   7.841  11.960 -1.5170 -0.7153  2.3824
  668MOL0     H90147   8.694   7.979  12.054 -3.8842 -0.5241 -0.6836
  668MOL0     H90148   8.908   7.931  11.999 -1.2388  0.4381  0.0567
  668MOL0     H90149   8.892   7.843  12.156 -0.4511  2.9470  0.4568
  668MOL0     H90150   8.827   7.696  11.899  0.7188  1.2793 -0.8099
  668MOL0     H90151   8.866   7.635  12.058 -0.5060  0.0670  1.2184
  668MOL0     H90152   9.056   7.792  11.878 -0.8825  0.2753  0.1134
  668MOL0     H90153   9.095   7.713  12.029 -2.3695  1.5130  0.9707
  668MOL0     H90154   8.977   7.575  11.768  2.7031 -4.7792 -2.1976
  668MOL0     H90155   9.014   7.496  11.919 -0.9471 -1.3527 -1.2335
  668MOL0     H90156   9.209   7.478  11.736  0.7472 -1.5951  1.8377
  668MOL0     H90157   9.217   7.645  11.731  1.3049  1.0754  0.6799
  668MOL0     H90158   9.250   7.490  11.987  1.5620 -1.5132  1.1994
  668MOL0     H90159   9.310   7.658  11.959 -1.3404 -0.5229  0.4475
  668MOL0     H90160   9.470   7.572  11.785 -0.1661 -1.1392 -0.7733
  668MOL0     H90161   9.408   7.412  11.821 -1.9251  0.8230 -0.7183
  668MOL0     H90162   8.662   7.565  12.274 -0.0829 -1.6422 -0.1376
  668MOL0     H90163   8.475   7.405  12.285 -1.0701 -0.1370  0.8956
  668MOL0     H90164   8.061   7.347  12.006 -0.0159  1.2569 -1.0291
  668MOL0     H90165   7.936   7.145  11.920  1.3053 -2.9490 -0.8346
  668MOL0     H90166   8.523   5.860  11.178 -0.8382  1.6513 -0.5533
  668MOL0     H90167   8.680   5.702  11.037  0.4632  0.1465  2.5874
  668MOL0     H90168   9.249   5.603  11.063 -2.7183 -0.5947 -0.3941
  668MOL0     H90169   9.427   5.514  10.914 -0.1791  0.1987  1.1994
  668MOL0     H90170   9.543   5.394  10.772 -2.0891 -2.1808  0.9123
  668MOL0     H90171   9.387   5.357  10.680 -0.5831  1.1165  2.8775
  668MOL0     H90172   9.547   5.249  10.553 -2.3962 -0.1234 -1.5351
  668MOL0     H90173   9.673   5.371  10.559  0.4472 -0.6245 -1.0832
  668MOL0     H90174   9.548   5.516  10.418  0.6673 -0.4697 -2.9059
  668MOL0     H90175   9.432   5.378  10.393 -0.4184 -1.8036  3.7495
  668MOL0     H90176   9.616   5.241  10.299  0.5550  0.9804  0.8026
  668MOL0     H90177   9.737   5.361  10.341  1.1873  1.1904 -2.0846
  668MOL0     H90178   9.632   5.515   9.962  0.5757 -4.0691 -1.1836
  668MOL0     H90179   9.205   5.665  10.571 -2.5651  0.0783  0.5931
  668MOL0     H90180   9.035   5.744  10.730 -0.3933 -0.5050  0.3332
  669MOL0     O90181   9.817   5.126   7.141  0.0048 -0.2421  0.0658
  669MOL0     C90182   9.889   5.050   7.066  0.9061 -0.6538 -0.0067
  669MOL0     O90183   9.958   4.941   7.097  0.5532  0.7541  0.1414
  669MOL0     C90184   9.955   4.889   7.225 -0.0228 -1.6455 -0.4168
  669MOL0     C90185  10.005   4.760   7.236 -0.1602 -0.0651  1.1683
  669MOL0     C90186  10.004   4.680   7.344 -0.0231 -0.3508  0.3498
  669MOL0     C90187   9.950   4.732   7.461  0.7125  0.5798 -0.7851
  669MOL0     O90188   9.946   4.642   7.569  0.3124  0.5603  1.3325
  669MOL0     C90189  10.074   4.612   7.627  0.6194 -0.0391  0.1425
  669MOL0     C90190  10.065   4.590   7.782 -0.3703  0.4019  0.7619
  669MOL0     C90191   9.961   4.493   7.832 -0.4828 -0.8729  0.5525
  669MOL0     C90192   9.982   4.469   7.988  0.5570 -0.2617 -0.1219
  669MOL0     C90193   9.872   4.385   8.062  0.2368 -0.8729  0.3413
  669MOL0     C90194   9.868   4.412   8.216  0.2357 -1.2472 -0.7564
  669MOL0     C90195   9.739   4.355   8.277 -0.7070 -0.4823  0.3224
  669MOL0     C90196   9.708   4.385   8.419  0.2532  0.0653  0.0139
  669MOL0     N90197   9.554   4.379   8.436  0.0683  0.1111 -0.1396
  669MOL0     C90198   9.487   4.468   8.520 -0.0366  0.9563  0.1671
  669MOL0     C90199   9.359   4.418   8.515 -0.2020  0.5211  0.2242
  669MOL0     C90200   9.263   4.443   8.622 -0.3346  0.5720 -0.4660
  669MOL0     C90201   9.212   4.583   8.624 -0.0738 -0.3386 -0.2640
  669MOL0     C90202   9.147   4.646   8.494  0.0432 -1.0498  0.4807
  669MOL0     C90203   9.058   4.560   8.418  0.9861 -1.2064  0.1798
  669MOL0     O90204   9.021   4.615   8.288  0.9671 -0.6362 -0.2485
  669MOL0     C90205   9.087   4.582   8.169  0.3606 -0.0431  0.8078
  669MOL0     C90206   9.212   4.522   8.162  0.8687 -1.5396  0.2599
  669MOL0     C90207   9.278   4.494   8.048 -0.0685  0.7452  1.4262
  669MOL0     C90208   9.415   4.448   8.062 -0.4534  0.5449 -0.3476
  669MOL0     C90209   9.207   4.511   7.928 -0.4998 -0.4017  0.4856
  669MOL0     C90210   9.270   4.507   7.793  0.4927  0.2478  0.1848
  669MOL0     O90211   9.326   4.391   7.758  0.2838  0.6361 -1.3403
  669MOL0     C90212   9.416   4.392   7.647  0.7402  0.2145  0.1314
  669MOL0     C90213   9.550   4.419   7.664  0.1725 -1.0583 -0.2135
  669MOL0     C90214   9.637   4.439   7.551  0.6516 -0.0731  0.0064
  669MOL0     C90215   9.584   4.447   7.418 -0.1730  0.2197  0.5541
  669MOL0     O90216   9.670   4.475   7.315  0.8697  0.1364  0.3011
  669MOL0     C90217   9.640   4.432   7.182 -0.6903  0.3522 -0.3130
  669MOL0     C90218   9.773   4.425   7.097  0.9612 -0.3248 -0.2877
  669MOL0     C90219   9.889   4.362   7.167  0.6820 -0.6743  0.6437
  669MOL0     C90220   9.862   4.217   7.200  0.2530  0.3493  0.4841
  669MOL0     C90221   9.992   4.124   7.189  0.5369  1.6114 -0.9921
  669MOL0     C90222   9.960   3.970   7.216  0.3949  1.0651 -0.0018
  669MOL0     C90223  10.084   3.880   7.225  0.6760  0.9293 -0.6091
  669MOL0     C90224  10.041   3.744   7.275  0.0663  0.5781  0.6283
  669MOL0    Cl90225   9.954   3.655   7.135  0.4187  0.0793  0.1739
  669MOL0     C90226   9.444   4.408   7.400  0.7549 -0.2647 -0.3985
  669MOL0     C90227   9.366   4.381   7.516 -0.6174 -0.9851  0.9504
  669MOL0     O90228   9.274   4.614   7.735 -0.8964 -0.3412 -0.7579
  669MOL0     C90229   9.079   4.580   7.933  0.1048  0.8375  0.3857
  669MOL0     C90230   9.022   4.616   8.049  0.1006 -0.8021 -0.3265
  669MOL0     N90231   9.347   4.321   8.417  0.1952  0.2347  0.1257
  669MOL0     N90232   9.462   4.301   8.375  0.7934 -0.5066 -0.3814
  669MOL0     C90233   9.899   4.857   7.468  0.3254 -0.1749 -0.3524
  669MOL0     C90234   9.894   4.934   7.347  0.7269  0.8579 -0.0470
  669MOL0     C90235   9.892   5.084   6.924 -1.4983 -0.4169  0.0627
  669MOL0     C90236   9.963   5.001   6.832  0.8836 -0.4491 -0.3047
  669MOL0     C90237   9.972   5.043   6.698 -0.0382  0.4648  0.1211
  669MOL0     C90238   9.944   5.169   6.662  0.3352 -0.8443 -0.3694
  669MOL0     O90239   9.942   5.215   6.535  0.0465  0.3258 -0.7130
  669MOL0     C90240   9.986   5.148   6.417 -0.5981 -0.2078  0.0746
  669MOL0     C90241   9.869   5.128   6.308  0.5109 -0.9646 -0.1321
  669MOL0     C90242   9.921   5.089   6.171  0.4560 -0.7065 -0.3077
  669MOL0     C90243   9.893   4.937   6.138  0.5497  0.8847  0.0462
  669MOL0     C90244   9.943   4.859   6.254 -0.0159  0.4858 -0.5633
  669MOL0     C90245  10.003   4.800   6.347  0.2682 -0.8288  0.0352
  669MOL0     C90246   9.901   5.258   6.755 -0.3189  0.4826  0.0331
  669MOL0     C90247   9.868   5.215   6.884  0.2036 -0.3932  0.3257
  669MOL0     H90248  10.040   4.717   7.143 -1.0359  0.5745  0.5272
  669MOL0     H90249  10.042   4.578   7.342  0.3577 -0.2618 -2.7145
  669MOL0     H90250  10.105   4.514   7.588 -3.8883 -3.3984  3.9410
  669MOL0     H90251  10.149   4.689   7.606 -0.9100  1.2096 -0.8998
  669MOL0     H90252  10.165   4.549   7.803 -1.3111 -0.6312  3.6574
  669MOL0     H90253  10.037   4.688   7.819 -0.9762  0.2961  0.5863
  669MOL0     H90254   9.863   4.530   7.802  1.2687  0.5697 -4.2005
  669MOL0     H90255   9.964   4.393   7.788 -0.8832 -0.5301 -0.2576
  669MOL0     H90256  10.079   4.419   7.995  0.1388 -0.8754  3.5584
  669MOL0     H90257   9.989   4.559   8.050  1.0511 -0.6101  0.3443
  669MOL0     H90258   9.782   4.376   8.002  0.6423  0.2240 -0.4840
  669MOL0     H90259   9.908   4.283   8.078 -0.8824 -1.3529 -0.1286
  669MOL0     H90260   9.961   4.374   8.259  0.1795 -1.4511 -0.8134
  669MOL0     H90261   9.883   4.518   8.237  1.7376 -1.1672 -2.0689
  669MOL0     H90262   9.668   4.406   8.211  0.3618  1.8020  0.8130
  669MOL0     H90263   9.741   4.249   8.253  1.5661 -0.5098  0.3784
  669MOL0     H90264   9.755   4.479   8.447  2.3909 -1.2730  1.1829
  669MOL0     H90265   9.749   4.308   8.486  2.0113 -0.3411 -1.4627
  669MOL0     H90266   9.523   4.539   8.594 -0.3731  0.4999  0.7902
  669MOL0     H90267   9.175   4.379   8.612  0.7318 -0.7971 -1.4242
  669MOL0     H90268   9.300   4.423   8.723 -2.8749 -0.2083  0.3730
  669MOL0     H90269   9.298   4.643   8.657  0.9599 -0.0310 -3.2265
  669MOL0     H90270   9.146   4.603   8.709  1.2515  2.3107  0.2761
  669MOL0     H90271   9.221   4.676   8.419 -0.7846 -2.0753 -0.7741
  669MOL0     H90272   9.109   4.744   8.525  3.1998  1.3715 -2.5148
  669MOL0     H90273   8.966   4.536   8.473  0.6025 -2.1659 -0.8433
  669MOL0     H90274   9.107   4.462   8.413 -2.7161 -3.3926  2.1964
  669MOL0     H90275   9.272   4.519   8.253  3.2017 -2.7108 -1.2439
  669MOL0     H90276   9.482   4.520   8.111  2.3617 -2.4830  0.6035
  669MOL0     H90277   9.409   4.362   8.130 -1.3657  0.2360 -0.8082
  669MOL0     H90278   9.474   4.414   7.976 -2.2211  0.1763 -1.4588
  669MOL0     H90279   9.591   4.433   7.764  1.1499 -0.4884 -0.6770
  669MOL0     H90280   9.742   4.454   7.575  1.4268 -5.3591  1.1041
  669MOL0     H90281   9.590   4.337   7.198 -1.0072  0.4109 -0.9473
  669MOL0     H90282   9.581   4.495   7.115 -0.5326 -2.5247 -3.3478
  669MOL0     H90283   9.752   4.386   6.997 -1.0905 -0.7247  0.2413
  669MOL0     H90284   9.801   4.528   7.072 -0.8683  0.0606 -0.9443
  669MOL0     H90285   9.917   4.417   7.257  1.0536 -2.1438  1.4543
  669MOL0     H90286   9.974   4.382   7.101  0.2016  1.4159  0.5857
  669MOL0     H90287   9.826   4.201   7.302  2.3042 -2.0940  0.9287
  669MOL0     H90288   9.790   4.173   7.131  1.9323 -4.3727  1.3856
  669MOL0     H90289  10.073   4.161   7.253  3.0506 -2.8666 -1.1661
  669MOL0     H90290  10.036   4.139   7.090  1.2200  5.2948 -0.2509
  669MOL0     H90291   9.918   3.976   7.317  1.9808  2.7050  0.6134
  669MOL0     H90292   9.889   3.925   7.146  0.5227 -1.5195  1.4251
  669MOL0     H90293  10.160   3.927   7.288 -0.1397 -0.2473  1.3205
  669MOL0     H90294  10.122   3.876   7.122  0.9389  3.2533 -0.6540
  669MOL0     H90295   9.974   3.751   7.362 -3.0562 -0.7409 -1.4733
  669MOL0     H90296  10.125   3.680   7.302  1.0692  2.1224  1.3102
  669MOL0     H90297   9.397   4.385   7.305  0.5566 -0.8558 -0.1621
  669MOL0     H90298   9.257   4.374   7.509 -1.1054  1.2780  4.0452
  669MOL0     H90299   9.021   4.603   7.844  1.9740  1.2724 -0.7846
  669MOL0     H90300   8.927   4.668   8.044  0.3152 -0.3957 -0.1670
  669MOL0     H90301   9.859   4.903   7.557  0.4676 -1.5513  0.4477
  669MOL0     H90302   9.841   5.028   7.360  0.1050  0.2648  2.0889
  669MOL0     H90303   9.994   4.901   6.860 -1.2023 -1.2325 -0.6173
  669MOL0     H90304   9.991   4.965   6.625 -1.2768  2.4402 -2.4343
  669MOL0     H90305  10.053   5.214   6.362 -2.2463  2.0473  0.6614
  669MOL0     H90306  10.035   5.054   6.443 -2.0418 -0.2697  3.0251
  669MOL0     H90307   9.811   5.218   6.286 -0.4565 -1.4089  0.5644
  669MOL0     H90308   9.798   5.054   6.345 -0.5138  0.5721  1.0849
  669MOL0     H90309  10.029   5.103   6.180 -0.1142  4.4696  3.0515
  669MOL0     H90310   9.871   5.148   6.093 -0.2768 -0.4988  0.3046
  669MOL0     H90311   9.939   4.906   6.044  0.1654 -2.4960  0.8250
  669MOL0     H90312   9.789   4.913   6.116  1.3351 -2.3174 -0.7109
  669MOL0     H90313  10.052   4.750   6.428  3.6621  1.2435 -0.5503
  669MOL0     H90314   9.870   5.359   6.731 -0.3177  0.4656 -0.0408
  669MOL0     H90315   9.823   5.289   6.950  0.5054 -1.2579  1.5487
  670MOL0     O90316  11.352   3.673   7.755  0.5134  1.0207 -0.2768
  670MOL0     C90317  11.464   3.719   7.773 -0.8040 -0.2568 -0.5797
  670MOL0     O90318  11.577   3.643   7.810  0.0027 -0.0306 -0.1855
  670MOL0     C90319  11.560   3.502   7.828 -0.0643  0.2590  0.0390
  670MOL0     C90320  11.633   3.434   7.928  0.0895 -0.5786  0.8463
  670MOL0     C90321  11.657   3.301   7.932  0.4033  0.2047 -0.1155
  670MOL0     C90322  11.617   3.226   7.822 -0.9550  0.0842  0.3736
  670MOL0     O90323  11.647   3.099   7.805 -0.1746  0.4076  0.5058
  670MOL0     C90324  11.731   3.035   7.901 -0.3529  0.4637 -0.3444
  670MOL0     C90325  11.874   3.071   7.878 -1.0681  1.0037 -1.0567
  670MOL0     C90326  11.972   2.956   7.910  0.4626  0.3164  0.9616
  670MOL0     C90327  12.116   3.011   7.898  0.2352  0.7992 -0.3232
  670MOL0     C90328  12.218   2.903   7.960  0.2360  0.7343 -0.3526
  670MOL0     C90329  12.358   2.939   7.945  0.3921 -0.0954  0.3852
  670MOL0     C90330  12.462   2.880   8.045  0.3725  0.4840  0.0745
  670MOL0     C90331  12.605   2.937   8.039 -0.1915  0.7636  1.2301
  670MOL0     N90332  12.612   3.071   8.097 -0.5872  0.0114  0.1545
  670MOL0     C90333  12.637   3.121   8.215 -0.0686  1.1188  0.6230
  670MOL0     C90334  12.631   3.257   8.203  0.1644 -0.0665  0.3868
  670MOL0     C90335  12.623   3.351   8.321 -0.1275  0.0601 -0.4930
  670MOL0     C90336  12.755   3.358   8.400 -0.3956 -0.3433 -1.2609
  670MOL0     C90337  12.876   3.396   8.314 -0.6286  0.1905 -0.1900
  670MOL0     C90338  12.902   3.541   8.321  0.8737 -0.1496 -0.3419
  670MOL0     O90339  12.947   3.567   8.456 -0.3860  0.1363  0.1322
  670MOL0     C90340  13.086   3.565   8.486  0.2830  0.4892  0.7415
  670MOL0     C90341  13.136   3.521   8.607 -1.0480 -1.4532 -0.2530
  670MOL0     C90342  13.275   3.504   8.652  0.3005  0.2911 -0.2818
  670MOL0     C90343  13.306   3.460   8.789 -0.2446  0.7308 -0.4219
  670MOL0     C90344  13.365   3.555   8.562  1.3278  0.1684  1.0617
  670MOL0     C90345  13.512   3.561   8.583  0.5723  0.4339 -0.3336
  670MOL0     O90346  13.584   3.668   8.545  0.4489  0.1612 -0.2733
  670MOL0     C90347  13.724   3.651   8.562 -0.4898  0.3461  0.1337
  670MOL0     C90348  13.801   3.671   8.682  0.3347 -0.2582 -0.0361
  670MOL0     C90349  13.948   3.672   8.682  0.1888 -0.7199  0.0361
  670MOL0     C90350  14.020   3.669   8.564  0.7983  0.5375  0.2970
  670MOL0     O90351  14.155   3.681   8.555 -0.1839 -0.6028 -0.2701
  670MOL0     C90352  14.229   3.626   8.666 -0.0527 -0.1732  1.2617
  670MOL0     C90353  14.379   3.626   8.634  0.1074 -0.2276  0.2518
  670MOL0     C90354  14.466   3.581   8.753 -0.1034  0.3008 -0.5672
  670MOL0     C90355  14.611   3.567   8.724 -0.7637 -0.0153  0.2610
  670MOL0     C90356  14.680   3.525   8.843 -1.0397 -0.3128  0.2392
  670MOL0     C90357  14.824   3.482   8.810  0.2626  0.8014  0.0736
  670MOL0     C90358  14.887   3.405   8.931  0.7878 -0.5396 -0.0883
  670MOL0     C90359  15.032   3.450   8.933 -0.4182  0.1563 -0.0168
  670MOL0    Cl90360  15.076   3.441   9.101  0.2662 -0.3236 -0.0336
  670MOL0     C90361  13.949   3.656   8.444  0.4534 -0.3173 -0.0099
  670MOL0     C90362  13.807   3.654   8.448 -0.4237  0.4369  0.3720
  670MOL0     O90363  13.562   3.456   8.630 -0.6668 -0.0295 -0.0129
  670MOL0     C90364  13.322   3.602   8.435  0.1003  0.7247  1.3052
  670MOL0     C90365  13.184   3.596   8.395 -0.8403  0.5287 -0.5074
  670MOL0     N90366  12.621   3.290   8.074  0.2162 -0.0031 -0.0748
  670MOL0     N90367  12.605   3.179   8.008  0.2359  0.0069  0.4072
  670MOL0     C90368  11.546   3.287   7.717  1.0416  0.2355  0.4404
  670MOL0     C90369  11.515   3.420   7.718 -0.2779  0.2931 -0.2237
  670MOL0     C90370  11.482   3.867   7.778  0.5029  0.1161  0.2829
  670MOL0     C90371  11.375   3.954   7.726  0.0021 -0.1262  0.4630
  670MOL0     C90372  11.385   4.092   7.707  0.0665  0.2870  0.3230
  670MOL0     C90373  11.498   4.150   7.767 -0.4794  0.3293  0.4458
  670MOL0     O90374  11.535   4.281   7.766 -0.3679  0.0791 -0.4726
  670MOL0     C90375  11.457   4.387   7.715  1.0708 -0.5420 -0.8800
  670MOL0     C90376  11.436   4.390   7.566  0.4583  0.9786  0.7317
  670MOL0     C90377  11.558   4.436   7.484 -0.0180  1.0103 -0.9018
  670MOL0     C90378  11.527   4.434   7.337  0.3622 -0.1754 -0.9230
  670MOL0     C90379  11.626   4.497   7.240  0.5705  0.3256 -0.8361
  670MOL0     C90380  11.691   4.548   7.154 -0.4898 -0.0382  0.1705
  670MOL0     C90381  11.600   4.066   7.822  0.1235  0.6302  0.2543
  670MOL0     C90382  11.598   3.927   7.823 -0.2483 -0.1181 -0.1581
  670MOL0     H90383  11.678   3.490   8.009  2.7904 -1.8568  0.3398
  670MOL0     H90384  11.717   3.260   8.012 -1.0992  0.4833  1.2269
  670MOL0     H90385  11.705   3.056   8.005 -0.6176 -3.6344  0.5808
  670MOL0     H90386  11.718   2.928   7.880 -2.6858  1.0791 -2.5196
  670MOL0     H90387  11.876   3.097   7.772 -0.2119  1.2872 -0.9858
  670MOL0     H90388  11.901   3.158   7.939 -3.2184  4.0616 -4.1251
  670MOL0     H90389  11.962   2.911   8.009  1.2423  1.9381  1.8201
  670MOL0     H90390  11.977   2.880   7.832 -0.1298 -1.1885  2.3372
  670MOL0     H90391  12.136   3.019   7.791  2.6072  0.1061  0.0034
  670MOL0     H90392  12.135   3.107   7.945  5.0716 -1.5464  3.4746
  670MOL0     H90393  12.201   2.893   8.068 -2.2935 -3.3202 -0.9532
  670MOL0     H90394  12.202   2.800   7.928  2.9971  0.4894 -1.1763
  670MOL0     H90395  12.382   2.898   7.846 -1.9788 -3.7299  1.1229
  670MOL0     H90396  12.359   3.048   7.935 -3.9277  0.3300  2.4281
  670MOL0     H90397  12.423   2.874   8.147 -1.7089 -2.0683 -0.7707
  670MOL0     H90398  12.470   2.780   8.001  0.4022  0.4516  0.1557
  670MOL0     H90399  12.654   2.929   7.942  0.8077 -0.7965  1.8191
  670MOL0     H90400  12.670   2.870   8.097 -0.4669  1.0560  1.8865
  670MOL0     H90401  12.633   3.072   8.311  0.4757  0.7160  0.4507
  670MOL0     H90402  12.605   3.455   8.291 -0.2060  0.4029  0.7034
  670MOL0     H90403  12.539   3.328   8.387  0.2793  0.2300  0.0882
  670MOL0     H90404  12.765   3.251   8.421 -2.9519 -1.3230 -4.2716
  670MOL0     H90405  12.752   3.415   8.493  2.7548 -0.7506 -0.8067
  670MOL0     H90406  12.865   3.362   8.210 -2.3647 -2.0794  0.6363
  670MOL0     H90407  12.957   3.336   8.357 -1.0585  1.4436  2.5930
  670MOL0     H90408  12.803   3.587   8.311  0.1443 -1.0622  1.9720
  670MOL0     H90409  12.972   3.574   8.243 -0.9314  1.1473 -1.5032
  670MOL0     H90410  13.054   3.496   8.674 -3.3494 -2.0786 -3.0942
  670MOL0     H90411  13.349   3.534   8.857  3.1882 -2.3293  1.0746
  670MOL0     H90412  13.224   3.411   8.843  2.7909 -1.1973  2.8467
  670MOL0     H90413  13.382   3.382   8.794 -0.5830  0.3139 -1.5196
  670MOL0     H90414  13.732   3.678   8.765 -1.4367  1.3823 -1.5440
  670MOL0     H90415  13.998   3.686   8.778  1.3681  3.2763 -0.9694
  670MOL0     H90416  14.217   3.675   8.764 -0.2374  0.3584  0.9743
  670MOL0     H90417  14.184   3.527   8.675 -2.8585  0.9988  1.1388
  670MOL0     H90418  14.401   3.547   8.560 -0.8597 -2.1271  1.9009
  670MOL0     H90419  14.425   3.721   8.605  2.7733 -1.9716 -1.8259
  670MOL0     H90420  14.429   3.479   8.771 -0.4702 -0.4328 -4.4836
  670MOL0     H90421  14.452   3.647   8.838 -0.5040 -0.0636 -0.3445
  670MOL0     H90422  14.626   3.498   8.640  1.4467 -1.7508  1.9355
  670MOL0     H90423  14.665   3.659   8.701 -2.4451  1.2581  1.2148
  670MOL0     H90424  14.627   3.444   8.895  0.1707 -0.2216  1.6717
  670MOL0     H90425  14.689   3.604   8.917  3.9049  2.8827 -3.2194
  670MOL0     H90426  14.825   3.421   8.718  0.8410  0.6273  0.1886
  670MOL0     H90427  14.880   3.570   8.778  0.8577 -0.1587 -1.7205
  670MOL0     H90428  14.876   3.297   8.916 -0.2862 -0.4226 -0.1971
  670MOL0     H90429  14.831   3.426   9.022  1.0932 -1.3585  0.2994
  670MOL0     H90430  15.062   3.553   8.913  0.5678  0.0984  1.0418
  670MOL0     H90431  15.096   3.385   8.873 -0.4508 -0.7921  0.9436
  670MOL0     H90432  13.995   3.645   8.347 -0.7466 -3.5608 -0.3460
  670MOL0     H90433  13.752   3.647   8.354  3.5249 -0.2872 -2.0932
  670MOL0     H90434  13.384   3.650   8.360 -0.8105  0.8236  0.5967
  670MOL0     H90435  13.159   3.642   8.299  0.6954  0.8805 -0.7669
  670MOL0     H90436  11.529   3.218   7.635 -2.1522  0.9149  0.4014
  670MOL0     H90437  11.462   3.456   7.630 -1.6686 -0.0091  0.4691
  670MOL0     H90438  11.281   3.917   7.687 -0.4261  1.8076 -0.4551
  670MOL0     H90439  11.304   4.151   7.666 -0.4116 -0.0151  0.8273
  670MOL0     H90440  11.363   4.392   7.770  0.6290  1.7834 -1.7560
  670MOL0     H90441  11.510   4.481   7.732  1.8038 -0.4422 -3.3370
  670MOL0     H90442  11.362   4.469   7.548  0.8194  1.8383  2.7957
  670MOL0     H90443  11.399   4.298   7.520  2.1157  2.0618 -3.1299
  670MOL0     H90444  11.644   4.375   7.512 -1.2385  0.6875  2.7023
  670MOL0     H90445  11.586   4.539   7.510  3.1316  0.1664 -0.5386
  670MOL0     H90446  11.428   4.477   7.316 -0.8854  0.2354  4.3997
  670MOL0     H90447  11.533   4.327   7.313  1.6502 -0.7432  1.6671
  670MOL0     H90448  11.761   4.582   7.081 -2.1744  1.0244 -1.0454
  670MOL0     H90449  11.691   4.121   7.844  0.4132  0.4094 -0.3547
  670MOL0     H90450  11.686   3.877   7.861 -0.4270  0.5400  1.1702
  671MOL0     O90451   9.692   7.870   7.496 -0.2509 -0.3037 -0.5317
  671MOL0     C90452   9.747   7.767   7.478 -0.2861 -0.1498  0.4218
  671MOL0     O90453   9.690   7.656   7.422 -0.6956 -0.2258 -0.4192
  671MOL0     C90454   9.554   7.641   7.434 -0.3817  1.3738 -0.2444
  671MOL0     C90455   9.475   7.685   7.543  0.1394  0.1097 -0.1142
  671MOL0     C90456   9.341   7.638   7.559 -1.1493 -0.2492 -0.3588
  671MOL0     C90457   9.278   7.565   7.463  0.5072 -0.0087 -0.2687
  671MOL0     O90458   9.152   7.527   7.472 -0.2371  0.7645 -0.2562
  671MOL0     C90459   9.056   7.538   7.357  0.1151  0.6882 -0.6988
  671MOL0     C90460   8.909   7.524   7.401 -0.9987 -0.5829  0.1922
  671MOL0     C90461   8.829   7.517   7.270  0.4442  0.3845 -0.6184
  671MOL0     C90462   8.695   7.459   7.293 -0.4821  0.3390 -0.4507
  671MOL0     C90463   8.585   7.475   7.188  0.1759  0.7878 -0.6052
  671MOL0     C90464   8.494   7.345   7.197 -0.7289  0.0931  0.2449
  671MOL0     C90465   8.381   7.380   7.103  1.0269  0.6849 -0.0978
  671MOL0     C90466   8.280   7.264   7.087 -0.4498 -0.1999 -1.0609
  671MOL0     N90467   8.341   7.136   7.030  0.2975 -0.2487 -0.9802
  671MOL0     C90468   8.356   7.108   6.898  0.9277 -0.1390 -0.1978
  671MOL0     C90469   8.401   6.985   6.892 -0.3760  0.3054  1.3255
  671MOL0     C90470   8.417   6.917   6.757 -0.2430  0.2326 -0.6202
  671MOL0     C90471   8.284   6.859   6.691 -0.3464 -0.4863  0.8694
  671MOL0     C90472   8.315   6.784   6.553 -0.4848 -0.3782 -0.5746
  671MOL0     C90473   8.195   6.730   6.476  0.5258  0.0587  0.5109
  671MOL0     O90474   8.244   6.643   6.377 -0.0222 -1.0332 -0.5117
  671MOL0     C90475   8.150   6.576   6.296 -0.5060 -0.2083 -0.1049
  671MOL0     C90476   8.024   6.632   6.273  1.0851 -0.3701 -0.5588
  671MOL0     C90477   7.918   6.566   6.210 -1.0288  0.6531 -0.0033
  671MOL0     C90478   7.791   6.636   6.209  0.1608 -0.1478  0.2519
  671MOL0     C90479   7.947   6.438   6.155  0.7396 -0.5032 -1.0467
  671MOL0     C90480   7.838   6.348   6.107 -0.5199  0.0024  0.7013
  671MOL0     O90481   7.721   6.406   6.057 -0.0601  0.7788 -0.1462
  671MOL0     C90482   7.605   6.330   6.031  0.1394  1.0575  0.8154
  671MOL0     C90483   7.583   6.202   6.092  0.1706 -0.1100  1.0202
  671MOL0     C90484   7.456   6.138   6.076 -0.8586 -0.1459  0.1406
  671MOL0     C90485   7.360   6.194   5.992 -0.7410  1.0124  1.2755
  671MOL0     O90486   7.242   6.125   5.988  0.8066 -0.7316  0.2812
  671MOL0     C90487   7.126   6.206   5.957  0.4845 -0.6103 -0.2092
  671MOL0     C90488   7.039   6.123   5.861 -0.3668 -0.1521  0.4465
  671MOL0     C90489   7.114   6.069   5.736  0.3132  0.5344 -0.2319
  671MOL0     C90490   7.117   6.158   5.608  0.8103 -0.3486  1.0297
  671MOL0     C90491   6.982   6.129   5.538  0.2085 -0.0572  0.0554
  671MOL0     C90492   6.986   6.208   5.405 -0.7247  0.6371  0.4918
  671MOL0     C90493   6.857   6.192   5.325 -0.8548 -0.8071  0.0415
  671MOL0     C90494   6.834   6.301   5.213 -0.0245  1.0017  0.0872
  671MOL0    Cl90495   6.865   6.470   5.263 -0.0618  0.3876 -0.1213
  671MOL0     C90496   7.394   6.311   5.916  0.3541  0.4944  0.4184
  671MOL0     C90497   7.515   6.371   5.931 -0.2085  0.1441 -0.5024
  671MOL0     O90498   7.866   6.231   6.111  0.8508  0.6303 -0.1711
  671MOL0     C90499   8.073   6.386   6.177 -0.3134 -0.7496  0.8492
  671MOL0     C90500   8.183   6.456   6.234  0.8043  0.3469  0.7050
  671MOL0     N90501   8.417   6.924   7.012 -0.4325 -0.5524 -0.3212
  671MOL0     N90502   8.375   7.017   7.104 -0.1445  0.1826 -0.4029
  671MOL0     C90503   9.350   7.519   7.358  0.2712 -0.4742  0.7374
  671MOL0     C90504   9.482   7.560   7.336  0.6825  0.0843  0.1074
  671MOL0     C90505   9.892   7.766   7.500  0.4313 -0.5476  0.1674
  671MOL0     C90506   9.964   7.882   7.545 -0.0448 -0.4095 -1.5216
  671MOL0     C90507  10.105   7.880   7.550 -0.4916  0.1811  0.1159
  671MOL0     C90508  10.179   7.766   7.525 -0.0489 -0.5865  0.4143
  671MOL0     O90509  10.318   7.787   7.529  0.7772  0.7661  0.5878
  671MOL0     C90510  10.415   7.718   7.452  0.4769  0.4486  0.5181
  671MOL0     C90511  10.557   7.724   7.498  0.5422 -0.8644 -0.0025
  671MOL0     C90512  10.583   7.722   7.642  0.1543  0.0633 -0.2898
  671MOL0     C90513  10.731   7.698   7.675 -0.6747  0.7099 -0.3640
  671MOL0     C90514  10.757   7.721   7.821 -0.6683 -0.2310  0.4514
  671MOL0     C90515  10.782   7.732   7.941 -0.1869 -0.7463 -0.3605
  671MOL0     C90516  10.112   7.651   7.481 -1.3389 -0.4837  0.5132
  671MOL0     C90517   9.973   7.655   7.479 -0.3726 -0.3750  0.0114
  671MOL0     H90518   9.532   7.744   7.615  1.7803  0.2293 -1.4439
  671MOL0     H90519   9.296   7.673   7.652 -0.0860 -3.8618  1.7443
  671MOL0     H90520   9.076   7.631   7.303 -0.2172 -0.2116 -2.4563
  671MOL0     H90521   9.088   7.458   7.290  3.0155  0.6763  0.5519
  671MOL0     H90522   8.894   7.430   7.455 -2.0138 -0.4675  0.1298
  671MOL0     H90523   8.880   7.608   7.465 -0.1487 -2.3517  3.1289
  671MOL0     H90524   8.813   7.611   7.216 -5.6382 -0.9998 -1.9199
  671MOL0     H90525   8.889   7.451   7.206  1.4227 -0.4598  1.0918
  671MOL0     H90526   8.703   7.351   7.310  0.8213  0.0804 -2.3847
  671MOL0     H90527   8.655   7.506   7.383 -0.0107  1.4286 -0.8012
  671MOL0     H90528   8.532   7.570   7.196 -2.8676 -0.7986 -0.7932
  671MOL0     H90529   8.634   7.476   7.090  1.1293  0.1464 -0.1527
  671MOL0     H90530   8.557   7.262   7.165  1.8583  1.9866  0.0447
  671MOL0     H90531   8.458   7.324   7.298  1.6393 -2.4814  0.6569
  671MOL0     H90532   8.318   7.466   7.125  0.4852  0.3212 -0.2238
  671MOL0     H90533   8.415   7.407   7.003 -2.4278 -2.6515 -2.4512
  671MOL0     H90534   8.189   7.305   7.043 -0.4824  1.9181  0.7946
  671MOL0     H90535   8.238   7.236   7.184 -1.0930  1.8241 -0.7167
  671MOL0     H90536   8.330   7.177   6.818 -1.7586  0.9948  1.5070
  671MOL0     H90537   8.469   6.976   6.682 -0.0639 -0.9996 -1.4991
  671MOL0     H90538   8.486   6.833   6.770 -0.4678 -0.0045 -0.9422
  671MOL0     H90539   8.219   6.946   6.680 -1.7308 -1.2940  2.1640
  671MOL0     H90540   8.226   6.799   6.762  0.8186  0.8584  3.0629
  671MOL0     H90541   8.387   6.702   6.562 -1.2923 -0.9598  0.8701
  671MOL0     H90542   8.368   6.857   6.491 -0.5293 -0.7715 -1.0904
  671MOL0     H90543   8.150   6.817   6.428  1.1340 -1.4220 -3.0552
  671MOL0     H90544   8.123   6.678   6.541 -1.2427  1.0008 -0.6044
  671MOL0     H90545   8.010   6.737   6.295 -0.5473 -0.7332  0.2713
  671MOL0     H90546   7.750   6.669   6.114  1.7398  0.7267 -0.1466
  671MOL0     H90547   7.717   6.569   6.255  0.5111 -1.5220 -1.1270
  671MOL0     H90548   7.807   6.728   6.266  0.1657  1.8548 -2.7532
  671MOL0     H90549   7.658   6.173   6.164  3.6810 -1.5419 -2.7965
  671MOL0     H90550   7.435   6.039   6.114  0.9722 -0.4955  0.3194
  671MOL0     H90551   7.079   6.219   6.055  1.4886 -0.1187  0.2123
  671MOL0     H90552   7.138   6.307   5.915  0.4734  0.6401  2.6126
  671MOL0     H90553   6.997   6.037   5.913  1.3346  0.2189  2.5658
  671MOL0     H90554   6.950   6.176   5.826 -0.3840 -0.2815  0.2945
  671MOL0     H90555   7.061   5.977   5.711 -0.6163  1.6415 -2.7016
  671MOL0     H90556   7.219   6.052   5.760  0.2299  1.0237  0.5387
  671MOL0     H90557   7.127   6.265   5.628 -0.4603  0.5020 -2.1429
  671MOL0     H90558   7.188   6.128   5.531 -0.1421  3.5019 -1.6746
  671MOL0     H90559   6.893   6.169   5.588  0.1429 -0.2216  0.0703
  671MOL0     H90560   6.967   6.022   5.520  1.9639 -0.9364  3.1590
  671MOL0     H90561   7.006   6.312   5.431 -2.2652  0.6152  1.9072
  671MOL0     H90562   7.072   6.170   5.350  0.0689  0.6319  1.7146
  671MOL0     H90563   6.776   6.202   5.398 -0.9530 -0.7378 -0.0759
  671MOL0     H90564   6.846   6.090   5.285 -0.8432 -2.3186  3.5146
  671MOL0     H90565   6.728   6.279   5.200  0.5044 -6.4243  3.3011
  671MOL0     H90566   6.886   6.269   5.123  0.3619 -0.9843  0.9561
  671MOL0     H90567   7.322   6.348   5.844  0.9565 -1.3776 -1.2392
  671MOL0     H90568   7.528   6.456   5.864  1.7759 -0.0441 -0.4268
  671MOL0     H90569   8.097   6.286   6.142 -0.8712 -0.0850 -1.6470
  671MOL0     H90570   8.283   6.414   6.238  0.5370 -0.6298 -1.4459
  671MOL0     H90571   9.293   7.449   7.298 -2.1402  1.7896  0.1605
  671MOL0     H90572   9.543   7.526   7.253 -1.1810  1.5071 -1.9504
  671MOL0     H90573   9.906   7.968   7.577 -0.3155 -1.4665  1.0322
  671MOL0     H90574  10.154   7.970   7.588 -1.7986  0.5128  1.1017
  671MOL0     H90575  10.390   7.612   7.441  1.1729  0.4474 -1.5408
  671MOL0     H90576  10.409   7.753   7.349 -5.1152 -0.9349  0.0279
  671MOL0     H90577  10.591   7.812   7.442 -4.5933  2.1717  0.9110
  671MOL0     H90578  10.600   7.630   7.463 -2.0174 -2.0743 -0.1752
  671MOL0     H90579  10.521   7.640   7.679  1.5817 -0.0129  2.1444
  671MOL0     H90580  10.543   7.816   7.682  1.6797  0.2590  0.8946
  671MOL0     H90581  10.785   7.763   7.606 -1.5764  0.5280 -1.2633
  671MOL0     H90582  10.759   7.593   7.662  2.6637  0.4144  5.5524
  671MOL0     H90583  10.789   7.744   8.047  2.7938 -0.2836 -0.5032
  671MOL0     H90584  10.179   7.568   7.463  0.9228  0.6420  3.0191
  671MOL0     H90585   9.922   7.568   7.440  1.1655 -0.5851 -1.6407
  672MOL0     O90586   9.927   2.929   2.629 -0.0392  1.3225  0.3473
  672MOL0     C90587   9.958   3.027   2.566  0.4363 -0.2171  0.1336
  672MOL0     O90588   9.889   3.083   2.458 -0.3728  0.0224  0.7357
  672MOL0     C90589   9.775   3.032   2.406 -0.5089  0.1130 -0.1024
  672MOL0     C90590   9.711   3.104   2.300 -0.4261 -0.6672  0.2510
  672MOL0     C90591   9.584   3.068   2.251  0.0713  0.0886 -0.3476
  672MOL0     C90592   9.510   2.960   2.298  0.2252 -0.9370  0.5336
  672MOL0     O90593   9.390   2.919   2.257  0.8994 -0.6195 -0.2348
  672MOL0     C90594   9.333   2.964   2.133  0.8741  0.5603  0.6200
  672MOL0     C90595   9.406   2.954   1.997  0.7103 -0.1970  0.0484
  672MOL0     C90596   9.430   2.814   1.949 -0.3127  0.4331  0.5184
  672MOL0     C90597   9.521   2.791   1.823  0.2691 -0.7078 -0.0992
  672MOL0     C90598   9.446   2.745   1.701 -0.3276  0.8184  0.3335
  672MOL0     C90599   9.516   2.780   1.569 -0.2354  0.3062 -0.4112
  672MOL0     C90600   9.431   2.790   1.443  0.3089 -0.7124 -1.0498
  672MOL0     C90601   9.460   2.680   1.342 -0.1707 -0.1973 -0.0595
  672MOL0     N90602   9.379   2.666   1.216  0.4969  0.1864  0.4079
  672MOL0     C90603   9.242   2.635   1.201  0.4714  0.3443  0.8651
  672MOL0     C90604   9.224   2.623   1.063 -0.4537 -0.1688 -0.8659
  672MOL0     C90605   9.091   2.571   1.004  0.1359 -0.1592 -0.1807
  672MOL0     C90606   9.110   2.417   0.981 -0.0735  0.8380 -0.6422
  672MOL0     C90607   8.986   2.341   0.933  0.7731  0.3950  0.8875
  672MOL0     C90608   9.030   2.192   0.948 -0.4936 -0.3429 -0.5554
  672MOL0     O90609   8.920   2.112   0.911 -0.4921 -0.6761  0.0902
  672MOL0     C90610   8.916   2.075   0.778 -0.1573 -0.9975 -0.4717
  672MOL0     C90611   8.788   2.080   0.731 -0.0969 -0.1666  0.7474
  672MOL0     C90612   8.756   2.089   0.588 -0.8619  0.5120  0.6164
  672MOL0     C90613   8.612   2.134   0.552  0.1975  0.1850  0.3457
  672MOL0     C90614   8.861   2.066   0.495 -0.5749 -0.7974 -0.6370
  672MOL0     C90615   8.844   2.067   0.349  0.3764 -0.2270  0.2281
  672MOL0     O90616   8.944   1.999   0.281  0.0762  0.9027 -0.5313
  672MOL0     C90617   8.916   1.983   0.145 -0.0461  1.2119  0.1787
  672MOL0     C90618   8.898   1.843   0.104 -1.2609 -0.2263 -0.2326
  672MOL0     C90619   8.868   1.823  -0.031 -0.2787  0.2981 -0.6087
  672MOL0     C90620   8.854   1.932  -0.121  0.0408  0.3885  1.1707
  672MOL0     O90621   8.802   1.894  -0.244  0.1464  0.0309  0.9905
  672MOL0     C90622   8.881   1.946  -0.359  0.6356 -0.6463 -0.2359
  672MOL0     C90623   9.024   1.901  -0.371 -0.4809  0.1433  0.2948
  672MOL0     C90624   9.032   1.750  -0.379  0.5990 -0.4706 -0.2711
  672MOL0     C90625   9.180   1.709  -0.358 -0.2854 -0.0188  0.0792
  672MOL0     C90626   9.174   1.559  -0.351 -0.3176 -0.6497 -1.0502
  672MOL0     C90627   9.146   1.478  -0.477  0.9498 -0.1741  0.3157
  672MOL0     C90628   9.258   1.505  -0.573  0.1525  0.7237  0.3031
  672MOL0     C90629   9.246   1.405  -0.689 -0.1239 -0.2112 -0.5006
  672MOL0    Cl90630   9.365   1.439  -0.816  0.0619  0.0226  0.0355
  672MOL0     C90631   8.882   2.061  -0.073 -0.3177 -0.0563 -0.6128
  672MOL0     C90632   8.917   2.085   0.059 -0.2078  0.4335  0.8972
  672MOL0     O90633   8.734   2.092   0.300  0.3345  0.0839  0.4158
  672MOL0     C90634   8.992   2.048   0.551  0.3335 -0.2045 -0.2233
  672MOL0     C90635   9.018   2.061   0.692 -0.8665  1.0184  0.3061
  672MOL0     N90636   9.350   2.638   1.002  0.1805 -0.5514  0.0105
  672MOL0     N90637   9.439   2.664   1.090 -0.1314 -0.3016 -0.5404
  672MOL0     C90638   9.568   2.884   2.400 -0.0619 -0.6987  0.1014
  672MOL0     C90639   9.692   2.924   2.449  0.5076  0.7721 -0.0307
  672MOL0     C90640  10.083   3.095   2.614 -0.9230 -0.1342  0.4071
  672MOL0     C90641  10.166   3.039   2.712 -0.5276 -0.0624  0.3575
  672MOL0     C90642  10.290   3.089   2.748  0.4441 -0.0508  0.5858
  672MOL0     C90643  10.336   3.197   2.675  0.4885 -0.2988 -0.1301
  672MOL0     O90644  10.467   3.232   2.687 -0.0555 -1.2287  0.1127
  672MOL0     C90645  10.548   3.221   2.573  0.3370 -0.1887  0.7078
  672MOL0     C90646  10.680   3.292   2.603 -0.5517 -0.3993  0.0785
  672MOL0     C90647  10.668   3.444   2.592  0.6536 -0.4431 -0.4016
  672MOL0     C90648  10.776   3.533   2.661 -0.8321  0.7094 -0.0084
  672MOL0     C90649  10.774   3.517   2.804 -0.7600  0.3356 -0.0451
  672MOL0     C90650  10.776   3.501   2.924 -0.0669 -0.2060  0.5211
  672MOL0     C90651  10.250   3.265   2.589  0.2586 -0.2959  0.0256
  672MOL0     C90652  10.124   3.217   2.556 -0.2434 -0.1460  0.1940
  672MOL0     H90653   9.742   3.200   2.259 -3.4013 -0.4245 -1.7377
  672MOL0     H90654   9.531   3.141   2.191 -0.4778  0.0542  0.0861
  672MOL0     H90655   9.245   2.899   2.128  1.8513 -0.7125 -1.5228
  672MOL0     H90656   9.298   3.068   2.138 -1.7981 -0.2488  0.1096
  672MOL0     H90657   9.347   3.008   1.922 -2.5565 -4.2930 -0.6652
  672MOL0     H90658   9.505   3.000   2.009  0.8354 -0.8703  2.0656
  672MOL0     H90659   9.479   2.763   2.032 -1.7012 -1.5858  0.1605
  672MOL0     H90660   9.333   2.768   1.926 -0.2735  1.1938 -1.3703
  672MOL0     H90661   9.565   2.890   1.809 -3.5597  0.8553 -3.0842
  672MOL0     H90662   9.597   2.717   1.847  2.8542  1.5110 -0.9390
  672MOL0     H90663   9.420   2.639   1.715 -1.3763  1.2435  1.8134
  672MOL0     H90664   9.353   2.800   1.713  1.3573  4.0109 -0.1319
  672MOL0     H90665   9.552   2.881   1.592  0.3863  0.0897 -0.4084
  672MOL0     H90666   9.604   2.719   1.548  0.1150  0.8611 -0.5871
  672MOL0     H90667   9.328   2.791   1.477  0.7666  0.2478  0.3888
  672MOL0     H90668   9.451   2.890   1.405 -0.7104  0.6034  1.6343
  672MOL0     H90669   9.447   2.581   1.388  2.0906 -1.0883 -1.1786
  672MOL0     H90670   9.564   2.688   1.308 -1.0637 -1.1463 -3.3396
  672MOL0     H90671   9.161   2.616   1.271 -2.0126  0.9843 -1.6271
  672MOL0     H90672   9.004   2.592   1.066 -0.3274  2.2774 -1.5100
  672MOL0     H90673   9.078   2.625   0.909  3.2999  0.9909 -0.1008
  672MOL0     H90674   9.151   2.373   1.073 -1.6815 -2.1002 -1.2099
  672MOL0     H90675   9.199   2.404   0.919  0.9060 -0.9839  1.0192
  672MOL0     H90676   8.963   2.360   0.828 -2.6986  0.3194  1.5116
  672MOL0     H90677   8.897   2.362   0.994 -1.9596  1.9286 -3.1898
  672MOL0     H90678   9.059   2.173   1.051  0.0317 -0.2291 -0.6800
  672MOL0     H90679   9.123   2.171   0.895  0.7653 -0.7726  1.7446
  672MOL0     H90680   8.712   2.098   0.807  0.1445  2.1090  0.5230
  672MOL0     H90681   8.558   2.062   0.491 -1.9970  2.2804 -0.3241
  672MOL0     H90682   8.548   2.123   0.640 -2.7693  0.0543 -1.6747
  672MOL0     H90683   8.611   2.236   0.512 -0.9846 -0.9052 -2.6319
  672MOL0     H90684   8.901   1.760   0.173  1.1753 -0.4723 -0.5218
  672MOL0     H90685   8.848   1.724  -0.070  0.5537  0.7189 -2.2168
  672MOL0     H90686   8.811   1.933  -0.443  1.2283  1.8458 -1.2298
  672MOL0     H90687   8.881   2.055  -0.365 -1.7284 -0.5958 -0.3061
  672MOL0     H90688   9.064   1.922  -0.471 -0.0455 -0.2569  0.3793
  672MOL0     H90689   9.088   1.949  -0.297  2.0330  0.6642 -2.0324
  672MOL0     H90690   8.999   1.701  -0.471  1.5415  0.5925 -1.1878
  672MOL0     H90691   8.976   1.717  -0.291  2.1276 -1.5494  0.3447
  672MOL0     H90692   9.244   1.742  -0.440 -2.7194  1.1704 -1.4620
  672MOL0     H90693   9.215   1.746  -0.262 -2.3541  0.7384  0.5958
  672MOL0     H90694   9.098   1.529  -0.279  0.5155 -3.9894 -1.3826
  672MOL0     H90695   9.273   1.524  -0.320 -0.5201  0.0549  0.4812
  672MOL0     H90696   9.153   1.371  -0.454 -0.2622 -0.6413 -1.3094
  672MOL0     H90697   9.046   1.499  -0.515  0.5879  0.1360  1.3922
  672MOL0     H90698   9.358   1.492  -0.531  0.5752  3.7661  0.4609
  672MOL0     H90699   9.251   1.608  -0.607  1.0206  1.3006  1.8079
  672MOL0     H90700   9.145   1.411  -0.732 -0.2344  0.0268 -0.2147
  672MOL0     H90701   9.265   1.303  -0.652  0.3375 -0.2016 -0.7155
  672MOL0     H90702   8.865   2.155  -0.124  1.3981  1.3118  1.1806
  672MOL0     H90703   8.945   2.187   0.082 -0.3987  1.7576 -3.6383
  672MOL0     H90704   9.074   2.018   0.486  2.4904  0.8069  1.8900
  672MOL0     H90705   9.124   2.056   0.713 -0.4936  2.2984 -1.0355
  672MOL0     H90706   9.512   2.809   2.455 -0.3390 -0.0141  0.7771
  672MOL0     H90707   9.723   2.862   2.533  0.3021  0.2858 -0.3087
  672MOL0     H90708  10.126   2.955   2.767  0.9015 -1.2083 -0.2842
  672MOL0     H90709  10.358   3.053   2.824  1.9438  1.4786  0.0281
  672MOL0     H90710  10.575   3.116   2.555 -0.3047 -0.4956  1.4878
  672MOL0     H90711  10.499   3.263   2.484 -2.0203  2.4183  3.0265
  672MOL0     H90712  10.757   3.244   2.543  0.9035  3.1757 -1.1454
  672MOL0     H90713  10.703   3.265   2.707  0.4228 -0.3422 -0.1212
  672MOL0     H90714  10.574   3.471   2.640  0.4569 -1.1537 -0.3689
  672MOL0     H90715  10.663   3.462   2.484  1.3217  0.2798 -0.3166
  672MOL0     H90716  10.755   3.637   2.637 -1.1283  0.5330 -0.5454
  672MOL0     H90717  10.878   3.510   2.630 -1.3839  0.3140 -1.6424
  672MOL0     H90718  10.787   3.491   3.030 -0.0271 -0.2492  0.5128
  672MOL0     H90719  10.285   3.356   2.541 -0.7108  1.2830  2.1418
  672MOL0     H90720  10.067   3.266   2.478 -2.1001  0.2576  1.7470
  673MOL0     O90721   0.546   2.401   1.080 -0.4069  0.4068 -0.2175
  673MOL0     C90722   0.622   2.429   1.171  0.5987 -1.2170  0.7124
  673MOL0     O90723   0.609   2.377   1.301  0.6912 -0.1310  0.1002
  673MOL0     C90724   0.529   2.267   1.342 -0.2476  0.0103 -0.7955
  673MOL0     C90725   0.462   2.185   1.250  0.2785 -0.5439 -0.2795
  673MOL0     C90726   0.383   2.087   1.315  0.0840 -0.2407  0.1577
  673MOL0     C90727   0.379   2.048   1.450  0.3868  0.1827  0.4537
  673MOL0     O90728   0.296   1.948   1.488  0.3032 -0.0335  0.4306
  673MOL0     C90729   0.321   1.873   1.601 -0.1806 -0.0437 -0.1289
  673MOL0     C90730   0.198   1.792   1.630  0.3611 -0.8646 -1.2160
  673MOL0     C90731   0.179   1.695   1.522  1.0746 -0.1182  0.1870
  673MOL0     C90732   0.090   1.584   1.567  0.5621 -0.2827 -0.5806
  673MOL0     C90733   0.044   1.483   1.464 -0.4120 -0.3033  0.4663
  673MOL0     C90734   0.163   1.409   1.407 -0.3693 -0.5403 -0.2794
  673MOL0     C90735   0.113   1.322   1.294 -0.9522 -0.0765  0.4989
  673MOL0     C90736   0.089   1.175   1.318  0.1724  0.4774  1.1194
  673MOL0     N90737   0.034   1.121   1.186 -0.5278  0.3574 -0.6195
  673MOL0     C90738  -0.100   1.097   1.165  0.1295  0.0219 -0.8581
  673MOL0     C90739  -0.096   1.030   1.052  0.0384  1.4872 -0.8290
  673MOL0     C90740  -0.211   0.961   0.993  0.5401 -0.0071  0.2359
  673MOL0     C90741  -0.304   1.077   0.933  0.2174  0.5349 -1.1608
  673MOL0     C90742  -0.229   1.143   0.817 -0.2768 -0.2735  0.1829
  673MOL0     C90743  -0.295   1.263   0.745 -0.3954 -0.8684  0.4348
  673MOL0     O90744  -0.400   1.205   0.677  0.1053  0.1634 -0.0067
  673MOL0     C90745  -0.496   1.291   0.634  0.0490  0.0631  0.0637
  673MOL0     C90746  -0.483   1.418   0.578 -0.2910  0.6124 -0.3437
  673MOL0     C90747  -0.597   1.495   0.536  0.3217 -0.2803 -0.2153
  673MOL0     C90748  -0.565   1.625   0.476 -0.1813 -0.3855 -0.4155
  673MOL0     C90749  -0.726   1.445   0.547  0.7238 -0.2180 -0.0063
  673MOL0     C90750  -0.852   1.514   0.497 -0.9996  0.3905  0.7690
  673MOL0     O90751  -0.965   1.491   0.564  0.5551  0.0840 -0.6615
  673MOL0     C90752  -1.077   1.496   0.474  0.2108  1.0865  0.0430
  673MOL0     C90753  -1.085   1.409   0.368 -0.8065 -0.0009 -0.1776
  673MOL0     C90754  -1.209   1.364   0.320  0.2751 -0.2221 -0.4495
  673MOL0     C90755  -1.320   1.433   0.359  0.8896  0.1488  0.4489
  673MOL0     O90756  -1.439   1.388   0.303 -0.2072  0.2416  0.4956
  673MOL0     C90757  -1.559   1.464   0.326 -1.6337 -0.1102  0.0604
  673MOL0     C90758  -1.671   1.394   0.246  0.3647  0.2618  0.4063
  673MOL0     C90759  -1.796   1.474   0.234 -0.1343 -0.7300  0.3755
  673MOL0     C90760  -1.782   1.583   0.128 -0.5382 -0.4370 -0.7362
  673MOL0     C90761  -1.829   1.718   0.188 -0.5165  0.3286 -0.1183
  673MOL0     C90762  -1.778   1.830   0.093  0.4005  0.8315 -0.5273
  673MOL0     C90763  -1.685   1.928   0.162 -0.1189  0.2803 -0.3697
  673MOL0     C90764  -1.621   2.034   0.072 -0.0163  0.0095 -0.1439
  673MOL0    Cl90765  -1.753   2.146   0.016 -0.0645  0.0312 -0.2103
  673MOL0     C90766  -1.311   1.547   0.449 -0.3204  0.5819  0.4823
  673MOL0     C90767  -1.187   1.571   0.517  0.8370  0.5943 -0.2874
  673MOL0     O90768  -0.843   1.604   0.415 -0.4336 -0.0761  0.0851
  673MOL0     C90769  -0.740   1.324   0.621 -0.4288  0.2655 -0.5625
  673MOL0     C90770  -0.622   1.249   0.659  0.2205 -0.1764 -0.1776
  673MOL0     N90771   0.030   1.004   1.012 -0.8174 -0.0629 -0.8344
  673MOL0     N90772   0.108   1.071   1.087 -0.0527 -0.7186  0.6524
  673MOL0     C90773   0.445   2.139   1.541  0.9699 -0.1963  0.3172
  673MOL0     C90774   0.520   2.246   1.485 -0.3943 -0.9764 -0.1303
  673MOL0     C90775   0.730   2.527   1.157 -0.2590  0.1335  0.8822
  673MOL0     C90776   0.728   2.597   1.039 -0.8122 -0.7333 -0.2820
  673MOL0     C90777   0.833   2.690   1.006  1.0108  0.3177 -0.8507
  673MOL0     C90778   0.945   2.696   1.091 -0.3351 -0.0137  0.6813
  673MOL0     O90779   1.054   2.776   1.055  0.0979 -0.1217  0.1336
  673MOL0     C90780   1.067   2.840   0.922  0.4134  0.6205 -0.7400
  673MOL0     C90781   1.207   2.903   0.926  0.3370  0.3033  0.3381
  673MOL0     C90782   1.228   2.964   0.785  0.3013  0.4841  0.0532
  673MOL0     C90783   1.366   3.016   0.738 -0.2177  0.3161 -0.2896
  673MOL0     C90784   1.381   3.066   0.601  0.4196  0.0658  0.6778
  673MOL0     C90785   1.416   3.110   0.496 -0.1703  0.8721  0.0589
  673MOL0     C90786   0.938   2.630   1.221  0.2703 -0.4826  0.0862
  673MOL0     C90787   0.840   2.536   1.246  0.0385  0.3382  0.2634
  673MOL0     H90788   0.450   2.213   1.146 -2.5126 -1.5910 -0.3243
  673MOL0     H90789   0.330   2.020   1.248 -2.7433 -0.0734  2.0526
  673MOL0     H90790   0.405   1.807   1.578 -0.9605 -0.8967 -0.5759
  673MOL0     H90791   0.348   1.933   1.688  1.3250 -2.3442  1.0959
  673MOL0     H90792   0.204   1.726   1.717 -1.3278 -1.5647 -1.5988
  673MOL0     H90793   0.107   1.852   1.644 -0.6376 -2.4896 -0.3754
  673MOL0     H90794   0.135   1.747   1.436  0.0095 -1.9997 -0.4503
  673MOL0     H90795   0.274   1.656   1.486  0.4932 -1.5453  0.1456
  673MOL0     H90796   0.134   1.534   1.654  2.0990  3.2028  0.8296
  673MOL0     H90797  -0.001   1.633   1.604  1.7745  1.4489  0.2641
  673MOL0     H90798  -0.019   1.404   1.506 -1.2692 -0.1701 -0.5263
  673MOL0     H90799  -0.013   1.533   1.385 -1.6424 -2.0511  0.2022
  673MOL0     H90800   0.229   1.489   1.370 -0.7054  0.5225  1.3241
  673MOL0     H90801   0.225   1.358   1.482 -0.8742 -1.4960 -0.4984
  673MOL0     H90802   0.021   1.365   1.252 -0.4370 -0.7096 -1.3872
  673MOL0     H90803   0.199   1.327   1.227 -1.1042  0.3814  0.3336
  673MOL0     H90804   0.005   1.168   1.388 -4.2553  1.6243 -3.5006
  673MOL0     H90805   0.177   1.118   1.350  0.5204  2.4201  4.0795
  673MOL0     H90806  -0.180   1.124   1.233 -1.9002 -0.3496 -2.9622
  673MOL0     H90807  -0.202   0.876   0.925 -0.3451  0.2794 -0.2537
  673MOL0     H90808  -0.277   0.919   1.069 -0.1029  0.9962  0.2548
  673MOL0     H90809  -0.336   1.159   0.998 -1.0304 -0.4226 -0.5335
  673MOL0     H90810  -0.398   1.033   0.898  0.1201 -1.1809  1.0611
  673MOL0     H90811  -0.202   1.074   0.736  0.5632  1.5728 -1.1776
  673MOL0     H90812  -0.138   1.182   0.863 -0.8407 -0.0650  1.1508
  673MOL0     H90813  -0.233   1.303   0.664 -1.7941  0.3997 -0.0370
  673MOL0     H90814  -0.315   1.344   0.815 -0.2355  0.1809 -0.6897
  673MOL0     H90815  -0.381   1.454   0.579 -0.2108  0.6153  3.0672
  673MOL0     H90816  -0.623   1.702   0.527  1.1048  0.3008  0.0554
  673MOL0     H90817  -0.457   1.637   0.486 -0.4020  1.3891  0.1606
  673MOL0     H90818  -0.585   1.634   0.369 -1.7508  0.3852 -0.0871
  673MOL0     H90819  -0.990   1.362   0.342 -0.6510 -0.4149  1.0989
  673MOL0     H90820  -1.215   1.282   0.250 -2.3118  0.8529 -1.6366
  673MOL0     H90821  -1.581   1.476   0.432 -2.2170 -0.7328  0.0130
  673MOL0     H90822  -1.543   1.565   0.287  0.1000 -0.2269  0.4102
  673MOL0     H90823  -1.635   1.374   0.145  0.8277 -0.8010  0.7701
  673MOL0     H90824  -1.683   1.292   0.283 -0.6395 -0.1272 -0.9285
  673MOL0     H90825  -1.833   1.513   0.329 -2.7501  0.0788 -0.8772
  673MOL0     H90826  -1.875   1.409   0.197  1.4274 -2.0540 -0.7752
  673MOL0     H90827  -1.674   1.591   0.108  0.1892  1.7143  3.0229
  673MOL0     H90828  -1.837   1.576   0.034  3.1226 -1.2010 -3.0404
  673MOL0     H90829  -1.782   1.724   0.286 -1.2068 -1.9900  0.3914
  673MOL0     H90830  -1.936   1.707   0.204 -0.1329 -1.5431  1.4186
  673MOL0     H90831  -1.724   1.792   0.006  2.7391 -0.2021  1.2614
  673MOL0     H90832  -1.867   1.881   0.054 -0.1073  0.1612 -0.2710
  673MOL0     H90833  -1.606   1.877   0.218 -0.5222  0.5311  0.4505
  673MOL0     H90834  -1.736   1.972   0.248 -1.1440 -2.0963  0.3477
  673MOL0     H90835  -1.554   1.999  -0.008  0.5519  3.1305 -1.2181
  673MOL0     H90836  -1.551   2.096   0.129  1.2505 -0.2911 -1.2941
  673MOL0     H90837  -1.394   1.613   0.474 -1.7321 -0.2111 -1.7761
  673MOL0     H90838  -1.168   1.657   0.581  2.2225  0.1040  0.0077
  673MOL0     H90839  -0.842   1.290   0.633 -0.3472 -0.8033 -2.4576
  673MOL0     H90840  -0.624   1.145   0.693 -3.5076  0.1897  1.2817
  673MOL0     H90841   0.422   2.124   1.646  2.9082  1.8950  1.1213
  673MOL0     H90842   0.571   2.316   1.550  0.5144  0.2125 -2.0379
  673MOL0     H90843   0.657   2.582   0.959 -1.5548 -1.6238  0.5176
  673MOL0     H90844   0.828   2.736   0.908  1.9506 -1.8189 -1.9910
  673MOL0     H90845   1.069   2.759   0.849  2.2483  0.0684 -0.1351
  673MOL0     H90846   0.994   2.918   0.900  0.4138  1.2987  1.4423
  673MOL0     H90847   1.272   2.827   0.969 -0.8537 -1.4345 -0.7947
  673MOL0     H90848   1.210   2.985   0.999  1.0231  1.0958 -0.5498
  673MOL0     H90849   1.150   3.037   0.764 -1.4427 -1.4303 -0.4733
  673MOL0     H90850   1.194   2.884   0.718  0.2902  1.3115 -0.9538
  673MOL0     H90851   1.440   2.938   0.755 -0.4639  0.1808  0.1549
  673MOL0     H90852   1.399   3.094   0.807 -3.6961  3.0613 -1.4020
  673MOL0     H90853   1.462   3.143   0.405  0.5745  1.1662  0.5310
  673MOL0     H90854   1.018   2.650   1.293  1.1262  0.2384 -1.0171
  673MOL0     H90855   0.837   2.474   1.335 -1.1126  1.5559  1.1128
  674MOL0     O90856   2.482   5.188   1.037  0.0373 -0.4037  0.8278
  674MOL0     C90857   2.411   5.151   0.943 -0.0512 -0.2538 -0.1271
  674MOL0     O90858   2.292   5.218   0.908 -0.1602  0.3285 -0.5432
  674MOL0     C90859   2.253   5.329   0.981 -0.8542  0.3285  0.0217
  674MOL0     C90860   2.113   5.347   0.979 -1.2689  0.3928  0.2692
  674MOL0     C90861   2.059   5.448   1.057  0.3063  0.2540 -0.8000
  674MOL0     C90862   2.135   5.532   1.136 -0.6900  0.2262  0.2471
  674MOL0     O90863   2.103   5.635   1.220  0.0618 -0.6945  0.1221
  674MOL0     C90864   1.986   5.705   1.176 -0.2426  0.3357  0.3290
  674MOL0     C90865   1.971   5.814   1.284  0.2591  0.6409 -0.2277
  674MOL0     C90866   1.861   5.910   1.243  0.0897  0.5051  0.5637
  674MOL0     C90867   1.824   5.994   1.367 -0.1590  0.0691 -0.5015
  674MOL0     C90868   1.676   6.034   1.365  0.1994 -1.1595 -0.3955
  674MOL0     C90869   1.640   6.133   1.256  0.7136 -0.0053  0.1915
  674MOL0     C90870   1.497   6.180   1.258  0.8258 -0.6460 -0.1495
  674MOL0     C90871   1.388   6.072   1.244 -0.7292  0.0736  0.4264
  674MOL0     N90872   1.259   6.139   1.228 -0.3431 -0.4719  0.3308
  674MOL0     C90873   1.215   6.193   1.106 -0.8664  0.5630 -0.5415
  674MOL0     C90874   1.076   6.206   1.128 -0.4450 -0.6392  0.2113
  674MOL0     C90875   0.981   6.270   1.034 -0.4013 -1.0297  0.6492
  674MOL0     C90876   1.023   6.425   0.992  0.2617  0.2908  0.3371
  674MOL0     C90877   1.061   6.511   1.121 -0.3769 -0.2986  0.1661
  674MOL0     C90878   1.097   6.661   1.100  0.2757  0.6525 -0.1968
  674MOL0     O90879   1.141   6.702   1.224  0.2421  0.8830  0.3648
  674MOL0     C90880   1.177   6.834   1.226 -0.9888 -0.2041  0.3454
  674MOL0     C90881   1.159   6.930   1.122 -0.7170  0.4561 -1.0418
  674MOL0     C90882   1.202   7.062   1.143  0.6735  0.2066 -0.7649
  674MOL0     C90883   1.154   7.158   1.038 -0.5088 -1.6390  1.1722
  674MOL0     C90884   1.271   7.107   1.258  0.6509 -0.0613 -0.8779
  674MOL0     C90885   1.322   7.245   1.290  1.1579 -0.6466 -0.6959
  674MOL0     O90886   1.380   7.267   1.418 -0.5007 -1.3863 -0.9668
  674MOL0     C90887   1.411   7.393   1.467  0.1471 -0.2464  0.3473
  674MOL0     C90888   1.530   7.412   1.530 -1.0156 -1.6616  0.4345
  674MOL0     C90889   1.561   7.538   1.583 -1.2750  0.9065  0.0796
  674MOL0     C90890   1.476   7.640   1.572  0.3058  0.2249  0.3606
  674MOL0     O90891   1.526   7.756   1.626  0.5935  0.1907 -0.5764
  674MOL0     C90892   1.464   7.880   1.591  0.3194 -0.3608  0.7780
  674MOL0     C90893   1.546   8.013   1.645 -0.0974  0.1127  0.1832
  674MOL0     C90894   1.446   8.129   1.662 -0.3852  0.7629  0.3038
  674MOL0     C90895   1.517   8.248   1.722  0.3596 -0.1978 -0.1520
  674MOL0     C90896   1.428   8.355   1.778  0.9576 -0.6435  0.0284
  674MOL0     C90897   1.498   8.491   1.802 -0.3313  0.3793 -0.3579
  674MOL0     C90898   1.395   8.601   1.859  0.6876  0.4609  0.2215
  674MOL0     C90899   1.420   8.745   1.853  0.0040 -1.7477  0.1554
  674MOL0    Cl90900   1.517   8.800   1.986  0.0380 -0.0229 -0.4881
  674MOL0     C90901   1.347   7.626   1.507 -0.4937 -0.0227  0.8334
  674MOL0     C90902   1.310   7.494   1.456 -0.0946  0.0400 -1.4369
  674MOL0     O90903   1.301   7.334   1.209  0.2351  0.5844  1.0942
  674MOL0     C90904   1.292   7.009   1.358  1.0558 -0.0193 -0.4046
  674MOL0     C90905   1.246   6.879   1.339  0.5553  0.9038 -0.7050
  674MOL0     N90906   1.048   6.155   1.255 -0.9797  1.0655  0.4008
  674MOL0     N90907   1.154   6.122   1.312 -0.4958 -0.9803  0.8376
  674MOL0     C90908   2.276   5.520   1.129 -0.0887  0.5741  0.2582
  674MOL0     C90909   2.338   5.425   1.049  0.7277  0.7209 -0.6065
  674MOL0     C90910   2.458   5.040   0.870 -0.3761 -0.1770 -1.0378
  674MOL0     C90911   2.589   4.977   0.897  0.4549  0.2480  0.2226
  674MOL0     C90912   2.604   4.849   0.842 -0.1930 -0.8938 -0.5813
  674MOL0     C90913   2.518   4.793   0.754  0.4075  0.7110 -0.4790
  674MOL0     O90914   2.551   4.662   0.711 -0.4143 -0.4829 -0.1901
  674MOL0     C90915   2.452   4.560   0.676 -0.1355 -0.6001  0.3563
  674MOL0     C90916   2.427   4.558   0.527  0.1279 -0.1509 -0.8503
  674MOL0     C90917   2.365   4.431   0.494 -0.2922  0.7704  0.2485
  674MOL0     C90918   2.336   4.437   0.340 -0.2542 -0.0786  0.2010
  674MOL0     C90919   2.273   4.310   0.289  0.2151 -0.0772  0.5064
  674MOL0     C90920   2.242   4.211   0.230  1.1421  0.6209 -0.0433
  674MOL0     C90921   2.404   4.862   0.707 -0.1318  0.1325 -0.1624
  674MOL0     C90922   2.374   4.985   0.774 -0.0297  0.5476  0.2152
  674MOL0     H90923   2.055   5.271   0.927 -1.7427  2.7141 -2.9367
  674MOL0     H90924   1.953   5.471   1.046  0.5292  1.3700 -0.7266
  674MOL0     H90925   2.008   5.739   1.074  1.1641  1.9010  1.1116
  674MOL0     H90926   1.897   5.641   1.176  0.0618 -0.5921 -5.0917
  674MOL0     H90927   1.942   5.750   1.368  1.1527  1.1706  0.5109
  674MOL0     H90928   2.067   5.862   1.308  1.4851 -0.6728 -2.2048
  674MOL0     H90929   1.892   5.972   1.159 -3.6894  2.1829  0.2205
  674MOL0     H90930   1.768   5.858   1.219  1.2247 -0.3855 -2.2517
  674MOL0     H90931   1.843   5.937   1.459 -0.6462  0.0754 -0.3965
  674MOL0     H90932   1.878   6.088   1.384  1.3010 -0.9773  1.0663
  674MOL0     H90933   1.619   5.941   1.361 -0.7333 -0.6870  1.0449
  674MOL0     H90934   1.642   6.084   1.456 -0.6487  1.3921 -1.9981
  674MOL0     H90935   1.704   6.221   1.266  3.8733 -1.8452 -1.9390
  674MOL0     H90936   1.668   6.086   1.161  0.4698  1.2420 -0.5134
  674MOL0     H90937   1.465   6.229   1.351 -4.0030 -1.6858 -0.9950
  674MOL0     H90938   1.493   6.259   1.183 -0.4593 -1.5039 -1.0021
  674MOL0     H90939   1.383   6.007   1.332 -1.1496  2.5668  2.3473
  674MOL0     H90940   1.405   6.019   1.150 -3.3755  0.5721 -0.4061
  674MOL0     H90941   1.269   6.221   1.016 -0.7939 -0.1689 -0.7307
  674MOL0     H90942   0.970   6.211   0.942  3.0563 -0.3337 -0.3646
  674MOL0     H90943   0.888   6.266   1.092 -0.2904  2.1867  1.2487
  674MOL0     H90944   0.937   6.467   0.938 -0.9923 -0.5089  1.6338
  674MOL0     H90945   1.111   6.424   0.928 -1.4906  1.9346 -2.2945
  674MOL0     H90946   1.145   6.467   1.175  0.0863 -0.0959 -0.3685
  674MOL0     H90947   0.969   6.514   1.180 -0.8881  1.3781 -0.6336
  674MOL0     H90948   1.010   6.722   1.073 -0.2833 -0.1108 -0.1529
  674MOL0     H90949   1.171   6.663   1.020  2.5269 -2.0588  1.6327
  674MOL0     H90950   1.122   6.901   1.023  0.7415  1.3460 -1.8800
  674MOL0     H90951   1.241   7.181   0.976 -2.1659  0.3153 -0.5739
  674MOL0     H90952   1.067   7.118   0.986 -0.9721  1.4461 -0.7107
  674MOL0     H90953   1.123   7.252   1.086  0.8191  0.1547 -1.2452
  674MOL0     H90954   1.595   7.328   1.551  2.1802  0.9506  1.7700
  674MOL0     H90955   1.657   7.550   1.633 -0.2454 -0.9105 -1.3203
  674MOL0     H90956   1.465   7.893   1.482  1.7173  0.6944  0.8737
  674MOL0     H90957   1.358   7.887   1.618  0.2429  0.2816  0.3397
  674MOL0     H90958   1.577   7.980   1.745  1.2589 -2.5197 -1.0084
  674MOL0     H90959   1.638   8.049   1.600 -0.6768  0.7218 -0.5350
  674MOL0     H90960   1.360   8.105   1.725 -0.9620  3.1429  0.5271
  674MOL0     H90961   1.418   8.169   1.564 -0.1929 -1.8060 -0.8781
  674MOL0     H90962   1.590   8.211   1.795  0.4115 -2.0107 -1.0616
  674MOL0     H90963   1.567   8.293   1.635 -2.8421 -0.6807 -2.4225
  674MOL0     H90964   1.383   8.325   1.872 -4.0469  1.9606 -1.1882
  674MOL0     H90965   1.342   8.369   1.712  1.1069 -0.2793 -0.0953
  674MOL0     H90966   1.566   8.465   1.883  0.5428 -0.7129 -1.4164
  674MOL0     H90967   1.555   8.533   1.718  0.7730  1.6858  0.9855
  674MOL0     H90968   1.361   8.585   1.962 -0.1454 -3.5151 -0.4896
  674MOL0     H90969   1.308   8.581   1.796  1.2704  1.0246 -0.7840
  674MOL0     H90970   1.323   8.795   1.860  0.2730 -1.1872 -0.0854
  674MOL0     H90971   1.466   8.793   1.767  0.8506  1.0885  2.0417
  674MOL0     H90972   1.276   7.707   1.490 -0.0311  0.2887  0.3442
  674MOL0     H90973   1.213   7.466   1.416 -2.2318  1.0282  2.5931
  674MOL0     H90974   1.352   7.042   1.442  2.2437 -0.6507 -0.9827
  674MOL0     H90975   1.278   6.811   1.417  4.2120  0.5061 -2.3297
  674MOL0     H90976   2.339   5.590   1.184 -0.0476 -0.1782  1.1941
  674MOL0     H90977   2.447   5.423   1.048  0.7358  0.2373 -3.0067
  674MOL0     H90978   2.671   5.007   0.962  1.7437  2.3234 -2.2073
  674MOL0     H90979   2.691   4.789   0.864  0.1077  0.5263  2.5805
  674MOL0     H90980   2.485   4.466   0.720  3.5983  0.9288  1.1777
  674MOL0     H90981   2.357   4.588   0.722  0.5172  2.8202 -0.1155
  674MOL0     H90982   2.518   4.581   0.470  0.3901  0.9075 -0.0209
  674MOL0     H90983   2.363   4.644   0.505 -0.2916 -0.2552 -0.0724
  674MOL0     H90984   2.279   4.425   0.561  1.1025 -0.8960  2.0263
  674MOL0     H90985   2.427   4.344   0.519 -1.1777 -0.2041 -0.7796
  674MOL0     H90986   2.429   4.450   0.284 -0.7464 -0.4012 -0.6930
  674MOL0     H90987   2.267   4.516   0.311  0.0422  0.5855  1.2331
  674MOL0     H90988   2.204   4.141   0.159 -1.5665  0.4747  1.3955
  674MOL0     H90989   2.340   4.813   0.634 -1.7535 -1.5974  2.2595
  674MOL0     H90990   2.279   5.034   0.756 -0.9547 -1.3166 -0.2110
  675MOL0     O90991  11.015   2.456   6.642 -0.6898 -0.5868 -0.0002
  675MOL0     C90992  10.904   2.507   6.611 -0.0521 -0.8873 -0.2622
  675MOL0     O90993  10.797   2.437   6.569 -0.4222  0.3300  0.5847
  675MOL0     C90994  10.789   2.298   6.581 -0.1663 -0.6297 -0.7929
  675MOL0     C90995  10.821   2.246   6.710  0.9810  0.4307 -0.6168
  675MOL0     C90996  10.810   2.098   6.722 -0.6923 -0.0579 -0.7536
  675MOL0     C90997  10.776   2.020   6.606  0.6540  0.2340 -0.3212
  675MOL0     O90998  10.755   1.889   6.614  0.8573 -0.7634 -0.0818
  675MOL0     C90999  10.860   1.802   6.657 -0.5839  0.3295 -0.6614
  675MOL0     C91000  10.809   1.661   6.612 -0.1822 -1.5499 -0.1439
  675MOL0     C91001  10.804   1.646   6.467 -0.2728 -0.3256 -0.2221
  675MOL0     C91002  10.837   1.503   6.427 -0.3497  0.0392 -0.4084
  675MOL0     C91003  10.848   1.475   6.269  0.6741  0.2543 -0.4308
  675MOL0     C91004  10.867   1.324   6.249  0.2156  0.1316  0.2784
  675MOL0     C91005  10.866   1.284   6.098 -0.2045 -0.5207 -0.0615
  675MOL0     C91006  10.880   1.135   6.068  0.2617 -0.1166 -0.4336
  675MOL0     N91007  11.005   1.121   6.002 -0.2656  0.2714 -0.0495
  675MOL0     C91008  11.126   1.087   6.062 -0.8620 -1.3930 -0.8876
  675MOL0     C91009  11.206   1.046   5.964 -0.4425 -0.0317  0.7033
  675MOL0     C91010  11.352   1.004   5.979  0.9129  0.0272 -0.8091
  675MOL0     C91011  11.435   1.130   6.004 -1.0063  0.5067 -0.0947
  675MOL0     C91012  11.471   1.212   5.881  0.0682  0.6436 -0.1617
  675MOL0     C91013  11.596   1.301   5.915 -0.0385  1.3068  0.0700
  675MOL0     O91014  11.562   1.412   6.003 -0.7135  0.3198  0.5923
  675MOL0     C91015  11.669   1.484   6.055  0.4923 -0.1107  0.4143
  675MOL0     C91016  11.636   1.543   6.179 -0.2033  0.0551 -0.4983
  675MOL0     C91017  11.713   1.646   6.239  1.0774 -0.2851 -1.5741
  675MOL0     C91018  11.686   1.681   6.379  0.2167 -0.7269 -0.7861
  675MOL0     C91019  11.827   1.693   6.173 -0.2811 -0.5945 -0.8451
  675MOL0     C91020  11.935   1.781   6.244  0.3171  1.0023 -0.4691
  675MOL0     O91021  11.997   1.874   6.150 -0.2308  0.2773 -0.1702
  675MOL0     C91022  12.061   1.979   6.203  0.8796  0.2847  0.2030
  675MOL0     C91023  12.152   2.044   6.126 -0.1387 -0.3926 -0.2931
  675MOL0     C91024  12.208   2.172   6.160  1.3930  0.7088  0.2593
  675MOL0     C91025  12.167   2.232   6.284 -0.3878  0.5529  0.5087
  675MOL0     O91026  12.224   2.352   6.319  0.1854  0.1043  0.1579
  675MOL0     C91027  12.289   2.364   6.446  0.2017  0.5003  0.2285
  675MOL0     C91028  12.244   2.503   6.507 -0.3256 -0.2084 -0.2899
  675MOL0     C91029  12.103   2.506   6.574 -0.8709 -0.4757 -0.0691
  675MOL0     C91030  12.099   2.423   6.696 -0.5770  0.0700  0.0198
  675MOL0     C91031  11.993   2.461   6.799  0.9272 -0.5831 -0.4248
  675MOL0     C91032  11.836   2.452   6.765  0.2024 -0.1714  0.8763
  675MOL0     C91033  11.803   2.323   6.700 -0.3084  0.0326  0.6997
  675MOL0     C91034  11.657   2.321   6.647  0.2648  0.6159  0.5255
  675MOL0    Cl91035  11.646   2.433   6.513  0.1772 -0.0242  0.2303
  675MOL0     C91036  12.076   2.168   6.367  0.4454  0.7152  0.5736
  675MOL0     C91037  12.019   2.046   6.318  0.2727 -0.2669  0.1259
  675MOL0     O91038  11.965   1.762   6.366  0.3538 -1.6613 -0.2210
  675MOL0     C91039  11.857   1.640   6.043 -0.3577  0.8206  0.4203
  675MOL0     C91040  11.778   1.542   5.985  0.2583 -1.2268  0.0601
  675MOL0     N91041  11.140   1.053   5.841 -0.7864 -0.5565  0.4911
  675MOL0     N91042  11.027   1.099   5.867 -0.6688 -0.1009  0.2570
  675MOL0     C91043  10.733   2.081   6.491 -0.3584 -0.7323  0.2191
  675MOL0     C91044  10.742   2.221   6.483  1.0217 -0.0657 -0.2335
  675MOL0     C91045  10.893   2.656   6.635  0.2754 -0.8041  0.9922
  675MOL0     C91046  11.003   2.728   6.682 -0.3544 -0.2105  0.8777
  675MOL0     C91047  11.003   2.862   6.701 -0.1767  0.6114 -0.4067
  675MOL0     C91048  10.875   2.933   6.712  0.4352  1.4144  0.3485
  675MOL0     O91049  10.851   3.064   6.744  0.2145 -0.1950 -1.0341
  675MOL0     C91050  10.942   3.108   6.839  0.2026  0.1653 -0.9773
  675MOL0     C91051  10.875   3.213   6.928 -0.2173 -0.2758  0.7433
  675MOL0     C91052  10.984   3.305   6.997  0.3427  0.8395  0.4098
  675MOL0     C91053  10.922   3.397   7.109  0.2170  0.1194 -0.1026
  675MOL0     C91054  10.872   3.325   7.219  0.0455 -0.3384  0.2176
  675MOL0     C91055  10.827   3.284   7.322 -0.1876 -0.0487 -0.4452
  675MOL0     C91056  10.767   2.858   6.660  0.8627  0.3864  0.6285
  675MOL0     C91057  10.773   2.723   6.620  0.2679  0.7644 -0.4380
  675MOL0     H91058  10.860   2.307   6.791  0.7321  1.3285 -1.1594
  675MOL0     H91059  10.834   2.061   6.821 -0.6257  1.7864 -0.0512
  675MOL0     H91060  10.957   1.827   6.614  0.2725 -0.8574  0.5077
  675MOL0     H91061  10.860   1.790   6.765 -1.3287 -0.4571 -0.7337
  675MOL0     H91062  10.884   1.590   6.647  0.3723 -0.0016  2.0218
  675MOL0     H91063  10.712   1.641   6.657 -1.4567  1.2164 -1.3860
  675MOL0     H91064  10.713   1.685   6.422 -1.1121 -3.7820 -1.8832
  675MOL0     H91065  10.889   1.709   6.441  0.3643 -0.7554  0.7786
  675MOL0     H91066  10.938   1.481   6.464  0.8691 -0.0068 -3.4926
  675MOL0     H91067  10.758   1.440   6.468 -1.9038  2.9645  1.4513
  675MOL0     H91068  10.751   1.510   6.235  0.5115 -0.2075 -0.4458
  675MOL0     H91069  10.917   1.543   6.218  1.7778 -1.9398 -2.0766
  675MOL0     H91070  10.963   1.295   6.292  1.0708  2.0148 -0.2741
  675MOL0     H91071  10.806   1.250   6.303  4.3990 -2.0943  2.4754
  675MOL0     H91072  10.775   1.327   6.055  1.2007  2.4579 -0.3005
  675MOL0     H91073  10.945   1.339   6.045  1.6625  0.3561  3.3342
  675MOL0     H91074  10.798   1.111   6.000  2.4563 -0.8970 -2.9798
  675MOL0     H91075  10.872   1.078   6.160  1.1866 -0.1720 -0.3772
  675MOL0     H91076  11.151   1.088   6.168 -2.6338  0.1897 -0.4340
  675MOL0     H91077  11.362   0.933   6.062 -2.0336 -0.2612 -0.6061
  675MOL0     H91078  11.391   0.954   5.891  0.9716 -2.1593  0.3835
  675MOL0     H91079  11.532   1.098   6.045 -0.2458  2.2874 -0.4010
  675MOL0     H91080  11.402   1.183   6.094 -1.0360  0.4893 -0.0947
  675MOL0     H91081  11.381   1.275   5.868 -0.8759 -0.1441  2.0131
  675MOL0     H91082  11.497   1.152   5.794  0.2528 -1.6122  1.3772
  675MOL0     H91083  11.638   1.341   5.823  0.9961  1.0497  0.4229
  675MOL0     H91084  11.680   1.243   5.954  0.3637  1.1109 -1.0800
  675MOL0     H91085  11.552   1.502   6.235 -5.0787  7.0586 -1.3533
  675MOL0     H91086  11.687   1.788   6.402  0.4371 -1.3267  2.4108
  675MOL0     H91087  11.586   1.649   6.410 -0.8108  3.4914  0.9710
  675MOL0     H91088  11.758   1.633   6.446 -1.6037 -2.2792  0.1654
  675MOL0     H91089  12.188   1.999   6.034 -0.5481 -0.1464 -0.5739
  675MOL0     H91090  12.282   2.218   6.096  0.7282  0.9497 -0.3493
  675MOL0     H91091  12.272   2.277   6.511 -1.8787  0.8636  0.2267
  675MOL0     H91092  12.398   2.370   6.442  0.2043  2.4168  1.6725
  675MOL0     H91093  12.319   2.543   6.576 -0.2824  2.7887 -1.8997
  675MOL0     H91094  12.249   2.580   6.430 -0.5623  1.6843  1.4801
  675MOL0     H91095  12.022   2.490   6.503  0.8279  0.8902 -2.4856
  675MOL0     H91096  12.089   2.610   6.606  0.6800 -0.4729  0.6804
  675MOL0     H91097  12.075   2.321   6.665 -1.4625 -0.3692  1.9761
  675MOL0     H91098  12.201   2.414   6.734 -0.7603 -1.8369  0.1603
  675MOL0     H91099  12.003   2.563   6.837  0.6403 -1.1771  1.3805
  675MOL0     H91100  12.014   2.401   6.888  1.4699 -3.0838 -2.1638
  675MOL0     H91101  11.774   2.476   6.851  1.2260  5.5282  0.4264
  675MOL0     H91102  11.812   2.535   6.698  2.0230 -0.3918 -0.1302
  675MOL0     H91103  11.837   2.232   6.750 -0.0843 -0.2147  0.1057
  675MOL0     H91104  11.866   2.320   6.610 -2.4646  0.0909 -0.8967
  675MOL0     H91105  11.597   2.374   6.721  1.6507 -0.6754  2.6977
  675MOL0     H91106  11.627   2.216   6.635 -2.2796  0.6730  4.6647
  675MOL0     H91107  12.030   2.229   6.445  2.1553  0.3208  1.9531
  675MOL0     H91108  11.937   2.013   6.380  0.8921 -0.2192  0.9848
  675MOL0     H91109  11.944   1.666   5.983 -0.4114  0.5172  0.2054
  675MOL0     H91110  11.815   1.500   5.892  0.3801 -2.4324  0.6371
  675MOL0     H91111  10.719   2.018   6.403  0.7964 -3.9244  2.1210
  675MOL0     H91112  10.721   2.272   6.390 -2.6303  1.6331  1.2839
  675MOL0     H91113  11.101   2.680   6.680 -0.5474 -0.5835 -0.5291
  675MOL0     H91114  11.097   2.901   6.738  1.0896 -2.3181 -0.3340
  675MOL0     H91115  10.976   3.028   6.905  3.2294  1.3119 -0.9971
  675MOL0     H91116  11.033   3.144   6.790  0.3441  3.8139  1.5257
  675MOL0     H91117  10.813   3.168   7.007  2.0133 -1.7258  1.7815
  675MOL0     H91118  10.804   3.269   6.867 -0.3454 -0.9045  0.3086
  675MOL0     H91119  11.020   3.370   6.916 -0.6252  2.0269  0.9150
  675MOL0     H91120  11.071   3.252   7.037 -1.4200 -1.3571  1.5424
  675MOL0     H91121  10.840   3.456   7.065 -0.2387  1.3010  2.2031
  675MOL0     H91122  10.997   3.473   7.133 -1.6948  2.4268 -1.0299
  675MOL0     H91123  10.785   3.271   7.420 -2.7586 -1.2902 -1.6046
  675MOL0     H91124  10.666   2.897   6.664  1.1570  1.2277  0.1544
  675MOL0     H91125  10.689   2.661   6.590  1.2642 -0.5179 -0.6508
  676MOL0     O91126  10.821   2.248   3.850 -0.8366  0.9372  0.6424
  676MOL0     C91127  10.791   2.184   3.949 -0.4074  0.2847 -0.6500
  676MOL0     O91128  10.779   2.045   3.955  0.2128  0.3886 -0.1771
  676MOL0     C91129  10.826   1.973   3.858  0.3079 -0.0840  0.3511
  676MOL0     C91130  10.904   1.862   3.887  0.3060 -0.1184 -0.4004
  676MOL0     C91131  10.949   1.773   3.790 -0.7655 -1.1026  0.2570
  676MOL0     C91132  10.899   1.786   3.662  0.0701  0.5460  0.0208
  676MOL0     O91133  10.921   1.690   3.566  0.0869  0.2694 -0.3817
  676MOL0     C91134  10.816   1.631   3.484 -0.7986 -0.0854 -0.4279
  676MOL0     C91135  10.829   1.486   3.440 -0.0937  0.1376  0.0934
  676MOL0     C91136  10.842   1.395   3.562  0.0131 -1.0394  0.7470
  676MOL0     C91137  10.720   1.406   3.650  0.2354 -0.1205  0.2199
  676MOL0     C91138  10.732   1.341   3.785 -0.1833  0.6626  0.6514
  676MOL0     C91139  10.586   1.331   3.856 -0.8805  0.0975  0.1111
  676MOL0     C91140  10.594   1.278   3.996  0.7457  0.1192  0.6458
  676MOL0     C91141  10.449   1.272   4.057 -0.2698 -0.0440  0.3908
  676MOL0     N91142  10.452   1.279   4.202 -0.3072 -0.1546 -0.3977
  676MOL0     C91143  10.475   1.395   4.273 -0.2456 -0.3551 -0.6400
  676MOL0     C91144  10.477   1.356   4.407  0.1519 -0.4609  0.7290
  676MOL0     C91145  10.486   1.433   4.538  0.1570  0.8820  0.4316
  676MOL0     C91146  10.424   1.572   4.529  0.7785  0.0023  0.5240
  676MOL0     C91147  10.278   1.578   4.575  0.0995  0.1586  0.5701
  676MOL0     C91148  10.178   1.545   4.460  0.6264 -0.1695 -0.9188
  676MOL0     O91149  10.186   1.413   4.403  0.5648 -0.0971 -0.1076
  676MOL0     C91150  10.093   1.325   4.438 -0.5667  0.7182  0.8935
  676MOL0     C91151   9.995   1.327   4.534  0.2920  0.3103 -0.1674
  676MOL0     C91152   9.905   1.224   4.546 -0.3758 -0.8000 -0.0527
  676MOL0     C91153   9.798   1.232   4.653  0.0763 -0.6009  0.0022
  676MOL0     C91154   9.905   1.113   4.462 -0.1138 -0.0526 -0.7766
  676MOL0     C91155   9.821   0.999   4.478 -0.4538 -0.3015 -1.0382
  676MOL0     O91156   9.683   0.986   4.433 -0.0495 -0.0282 -0.0972
  676MOL0     C91157   9.662   1.050   4.314  0.9075 -0.4125 -1.1420
  676MOL0     C91158   9.701   0.991   4.199  0.1938  1.0641 -0.2649
  676MOL0     C91159   9.656   1.045   4.074 -0.3937  0.5136 -0.2328
  676MOL0     C91160   9.574   1.162   4.067  0.3023 -0.2312 -1.0526
  676MOL0     O91161   9.518   1.214   3.954 -0.1660  0.1037  0.0492
  676MOL0     C91162   9.553   1.159   3.820  0.3092 -1.1567 -0.4443
  676MOL0     C91163   9.669   1.233   3.759 -0.8260 -0.3056 -0.1478
  676MOL0     C91164   9.614   1.368   3.702 -0.1296  1.4667 -1.1740
  676MOL0     C91165   9.722   1.475   3.648  0.4854 -0.5406 -0.4446
  676MOL0     C91166   9.673   1.623   3.678  0.7404  0.4026  0.7501
  676MOL0     C91167   9.762   1.718   3.608  0.3411 -1.0176 -0.2467
  676MOL0     C91168   9.703   1.858   3.640  0.9118  0.2928  0.0576
  676MOL0     C91169   9.796   1.965   3.604 -0.1663 -0.0863  0.6727
  676MOL0    Cl91170   9.862   1.933   3.441 -0.1000  0.4408 -0.0176
  676MOL0     C91171   9.535   1.222   4.192  0.8286 -0.0613 -0.8719
  676MOL0     C91172   9.574   1.169   4.312 -0.6935  0.5034  0.2935
  676MOL0     O91173   9.885   0.897   4.518 -0.5013 -0.4539  0.1643
  676MOL0     C91174  10.004   1.114   4.366 -0.4307 -0.1617 -0.2511
  676MOL0     C91175  10.095   1.224   4.345 -0.3890  0.5074 -0.5959
  676MOL0     N91176  10.456   1.214   4.402  0.0471 -0.5096 -0.8332
  676MOL0     N91177  10.440   1.175   4.277 -0.5570 -0.4239 -0.6611
  676MOL0     C91178  10.820   1.902   3.627  0.4039  0.1932 -0.2002
  676MOL0     C91179  10.790   1.994   3.723 -0.4596  0.4545 -0.4929
  676MOL0     C91180  10.750   2.262   4.062  0.3074  0.2632 -0.6730
  676MOL0     C91181  10.715   2.404   4.042 -1.0649  0.7944 -0.4260
  676MOL0     C91182  10.678   2.470   4.167 -0.8031  1.0085 -0.0572
  676MOL0     C91183  10.672   2.406   4.296  0.2270  0.0806  1.4805
  676MOL0     O91184  10.627   2.490   4.401 -0.1326  0.2246  1.4311
  676MOL0     C91185  10.664   2.461   4.529  0.1894  0.3233 -0.4403
  676MOL0     C91186  10.810   2.468   4.543 -0.1538  0.7269 -0.0889
  676MOL0     C91187  10.864   2.610   4.524  0.3669  0.4884  0.0073
  676MOL0     C91188  11.013   2.611   4.531  0.2077 -0.3073 -0.4940
  676MOL0     C91189  11.073   2.529   4.425 -0.0872 -0.2042 -0.4267
  676MOL0     C91190  11.128   2.465   4.340 -0.2622 -0.6038 -0.3243
  676MOL0     C91191  10.695   2.269   4.306 -0.1329  0.4933  0.1130
  676MOL0     C91192  10.735   2.199   4.186 -0.4185 -0.1804 -0.0808
  676MOL0     H91193  10.927   1.866   3.993 -2.8540 -1.1898  0.4235
  676MOL0     H91194  11.011   1.688   3.817 -1.5750 -2.0112 -0.6439
  676MOL0     H91195  10.719   1.655   3.529  0.5947  0.7592  2.3471
  676MOL0     H91196  10.810   1.693   3.394  1.4364  0.2208 -0.4084
  676MOL0     H91197  10.748   1.462   3.371  0.2758  0.4518 -0.4625
  676MOL0     H91198  10.911   1.454   3.375 -1.2643 -0.0228 -1.3625
  676MOL0     H91199  10.874   1.293   3.538  0.9846 -0.2701 -1.4277
  676MOL0     H91200  10.918   1.440   3.628  0.6457 -2.0720  0.7478
  676MOL0     H91201  10.694   1.511   3.668  0.1580  0.1532 -1.3462
  676MOL0     H91202  10.640   1.356   3.595  1.7702 -1.8327 -0.5366
  676MOL0     H91203  10.773   1.242   3.766 -1.6112  0.4948 -2.1990
  676MOL0     H91204  10.801   1.401   3.844  0.2200  1.3098 -0.4570
  676MOL0     H91205  10.546   1.433   3.851  1.3862  1.2565  2.8916
  676MOL0     H91206  10.525   1.266   3.793 -2.1257  3.2194 -2.2049
  676MOL0     H91207  10.627   1.174   3.991 -1.5888 -0.7345  1.7226
  676MOL0     H91208  10.666   1.337   4.053  2.2246 -1.3055  0.3285
  676MOL0     H91209  10.388   1.191   4.017  0.2653  0.3450 -1.3096
  676MOL0     H91210  10.403   1.370   4.047 -0.6689 -0.0065  2.2018
  676MOL0     H91211  10.480   1.500   4.246 -0.7306  0.9249  3.5437
  676MOL0     H91212  10.441   1.368   4.613  0.0386 -0.7621 -0.9991
  676MOL0     H91213  10.591   1.441   4.567 -0.1936 -1.7389  2.9155
  676MOL0     H91214  10.431   1.620   4.431 -0.9849 -3.3741 -1.4669
  676MOL0     H91215  10.478   1.636   4.599 -1.1227  0.7433  1.3937
  676MOL0     H91216  10.255   1.677   4.615  2.0156  1.0161 -0.3457
  676MOL0     H91217  10.266   1.509   4.659  1.7444  1.5302  1.9971
  676MOL0     H91218  10.200   1.618   4.382  3.2802  1.5958  1.2962
  676MOL0     H91219  10.082   1.562   4.510  2.2540 -1.1773  2.9196
  676MOL0     H91220  10.001   1.394   4.619 -3.5654 -0.8259  1.2093
  676MOL0     H91221   9.841   1.197   4.747 -1.4166  0.4091  1.1044
  676MOL0     H91222   9.764   1.335   4.669  0.9843 -0.1164 -1.0262
  676MOL0     H91223   9.707   1.178   4.627 -1.2937  0.8435  1.5475
  676MOL0     H91224   9.754   0.897   4.206 -1.1743  0.3732  1.2116
  676MOL0     H91225   9.681   0.995   3.980 -0.0874 -0.8047  0.5240
  676MOL0     H91226   9.582   1.055   3.832  2.6666 -0.2719  2.9435
  676MOL0     H91227   9.466   1.169   3.754  0.1763  0.2562 -0.0893
  676MOL0     H91228   9.748   1.257   3.830 -3.2839  1.8804  2.0639
  676MOL0     H91229   9.714   1.171   3.680  1.3146  0.1607  0.6510
  676MOL0     H91230   9.584   1.423   3.792  1.5445 -2.6084  2.1844
  676MOL0     H91231   9.532   1.339   3.634 -3.1678  0.2600  2.6380
  676MOL0     H91232   9.820   1.467   3.696  1.2247  1.2854 -1.5409
  676MOL0     H91233   9.728   1.453   3.541  1.9707 -1.3038 -0.2260
  676MOL0     H91234   9.672   1.651   3.784 -2.1077  1.5663  0.5215
  676MOL0     H91235   9.571   1.644   3.643  1.7009  3.0735 -0.7218
  676MOL0     H91236   9.865   1.704   3.645 -0.2864  2.0880  3.2850
  676MOL0     H91237   9.769   1.710   3.499  1.1055 -2.3050 -0.1224
  676MOL0     H91238   9.668   1.864   3.743 -3.9625  0.2735 -1.3356
  676MOL0     H91239   9.616   1.886   3.580  1.8316 -0.2596 -1.5884
  676MOL0     H91240   9.881   1.976   3.672  0.2645  0.2392  0.1032
  676MOL0     H91241   9.736   2.055   3.594  1.3687  1.0836  1.5442
  676MOL0     H91242   9.478   1.314   4.179  2.4744  0.6752 -3.7016
  676MOL0     H91243   9.559   1.217   4.408 -0.4133  0.3356  0.4250
  676MOL0     H91244  10.021   1.029   4.300 -0.3359  0.0700 -0.5228
  676MOL0     H91245  10.180   1.219   4.278  0.2765 -1.3886  0.2974
  676MOL0     H91246  10.791   1.912   3.523  0.3167  2.0746 -0.0420
  676MOL0     H91247  10.735   2.080   3.687 -1.3906  0.1182  0.0765
  676MOL0     H91248  10.695   2.458   3.951  0.3584  1.6515 -0.2575
  676MOL0     H91249  10.642   2.572   4.156 -0.8369  1.2936  2.1417
  676MOL0     H91250  10.611   2.523   4.603  1.7733 -0.9540  1.8783
  676MOL0     H91251  10.625   2.364   4.561 -0.1678  0.3950 -0.6465
  676MOL0     H91252  10.851   2.396   4.471 -0.7239 -0.1080  0.3907
  676MOL0     H91253  10.834   2.422   4.640 -2.1702  0.5817  0.3927
  676MOL0     H91254  10.817   2.665   4.606 -0.5221 -1.2477  0.7283
  676MOL0     H91255  10.832   2.660   4.433 -1.7715 -1.6005 -0.4899
  676MOL0     H91256  11.033   2.572   4.631 -0.0960 -2.4005 -1.2096
  676MOL0     H91257  11.049   2.714   4.517 -0.8802 -0.1839 -2.9725
  676MOL0     H91258  11.181   2.412   4.263  4.4353  0.6577  1.6633
  676MOL0     H91259  10.688   2.212   4.398  2.1284  1.2082  0.7931
  676MOL0     H91260  10.758   2.094   4.201  4.1818  0.7028  0.4572
  677MOL0     O91261  11.179   2.445   9.335 -0.6130  0.0915 -0.3126
  677MOL0     C91262  11.189   2.570   9.358 -0.6762  0.6576  0.0642
  677MOL0     O91263  11.102   2.665   9.310  0.3268 -0.0817 -0.1084
  677MOL0     C91264  11.008   2.614   9.217 -0.4494  0.9728 -0.8996
  677MOL0     C91265  10.871   2.633   9.244  0.0185 -1.0756  1.0392
  677MOL0     C91266  10.770   2.609   9.150 -0.3481  0.6382 -0.3160
  677MOL0     C91267  10.804   2.547   9.026 -0.9957 -0.1763 -1.1074
  677MOL0     O91268  10.704   2.521   8.944  0.2984 -0.0532  0.2056
  677MOL0     C91269  10.730   2.450   8.816  1.0725  0.1637 -0.6899
  677MOL0     C91270  10.605   2.447   8.729  0.4761  1.0013 -0.0242
  677MOL0     C91271  10.624   2.398   8.589 -0.0878 -0.6620 -0.2206
  677MOL0     C91272  10.549   2.484   8.485  0.6641 -0.0947 -1.0522
  677MOL0     C91273  10.583   2.458   8.342  0.2067 -0.1919  0.4102
  677MOL0     C91274  10.475   2.499   8.242 -0.0601  0.3969 -0.1982
  677MOL0     C91275  10.533   2.500   8.098  0.6302  0.2268 -0.5384
  677MOL0     C91276  10.422   2.542   7.996  0.4538  0.2196 -0.1327
  677MOL0     N91277  10.329   2.414   7.983 -0.2558  0.4064  0.6396
  677MOL0     C91278  10.361   2.300   7.913  0.1616  0.0889  0.3149
  677MOL0     C91279  10.258   2.217   7.937 -0.0036 -0.4087  0.0042
  677MOL0     C91280  10.252   2.078   7.900 -0.8260 -0.5230 -0.3142
  677MOL0     C91281  10.288   2.055   7.745  0.1753  0.3931 -0.3652
  677MOL0     C91282  10.305   1.898   7.710  0.3894 -0.4711 -0.9438
  677MOL0     C91283  10.322   1.878   7.561  0.2246 -0.3121 -0.4229
  677MOL0     O91284  10.414   1.780   7.530 -0.6466 -0.0974 -0.4225
  677MOL0     C91285  10.366   1.654   7.534 -0.4020  0.5221  0.5434
  677MOL0     C91286  10.416   1.561   7.625  0.5054 -0.0178 -0.5019
  677MOL0     C91287  10.371   1.431   7.627 -0.3431  0.2359 -0.7368
  677MOL0     C91288  10.430   1.353   7.743  0.1346  0.1821  0.1117
  677MOL0     C91289  10.280   1.394   7.531  0.8825 -0.1244  0.2570
  677MOL0     C91290  10.229   1.252   7.523  0.5494 -0.3271  0.5356
  677MOL0     O91291  10.263   1.157   7.606  0.0138 -0.6056  0.2394
  677MOL0     C91292  10.236   1.032   7.579  0.3043  0.0176  0.9154
  677MOL0     C91293  10.153   0.965   7.677 -1.0516 -1.1500 -0.1725
  677MOL0     C91294  10.119   0.831   7.658  1.0776  0.4250 -0.2293
  677MOL0     C91295  10.156   0.764   7.542  0.6822  0.0989  0.1024
  677MOL0     O91296  10.132   0.628   7.518 -0.2053  0.8211 -0.7935
  677MOL0     C91297  10.078   0.540   7.622 -0.2741 -0.1241 -0.0555
  677MOL0     C91298  10.080   0.397   7.580 -0.4797 -0.9568 -0.2368
  677MOL0     C91299  10.045   0.312   7.699 -0.1164  0.0087  0.1313
  677MOL0     C91300  10.059   0.166   7.658  0.1176 -0.4786 -0.5267
  677MOL0     C91301  10.007   0.088   7.779  0.8734  0.3191 -0.2878
  677MOL0     C91302  10.099   0.093   7.901  0.7627 -0.4426 -0.3604
  677MOL0     C91303  10.249   0.061   7.879  0.4465  0.2324 -0.0695
  677MOL0     C91304  10.306  -0.003   8.008 -0.7369  0.0174 -0.2387
  677MOL0    Cl91305  10.266   0.094   8.153 -0.2646  0.2882 -0.3421
  677MOL0     C91306  10.245   0.831   7.440 -0.1790  0.4236  0.3517
  677MOL0     C91307  10.280   0.961   7.463  0.6405  0.4874 -0.0972
  677MOL0     O91308  10.156   1.233   7.427 -0.7835 -0.0659 -0.5588
  677MOL0     C91309  10.238   1.485   7.434  0.4067 -0.2919 -0.2596
  677MOL0     C91310  10.276   1.619   7.435 -0.1751  0.5034  0.1706
  677MOL0     N91311  10.156   2.289   7.994  0.1792 -0.1180 -0.4851
  677MOL0     N91312  10.203   2.407   8.028  0.0419 -0.1346  0.2856
  677MOL0     C91313  10.944   2.518   9.003  0.5565 -0.5951 -0.4614
  677MOL0     C91314  11.046   2.554   9.094 -0.2990  0.4999  0.1011
  677MOL0     C91315  11.292   2.613   9.454 -0.3607 -0.4608 -0.1836
  677MOL0     C91316  11.292   2.740   9.527 -0.1322 -0.8507  0.2091
  677MOL0     C91317  11.400   2.772   9.615  0.2702  0.4923 -0.4713
  677MOL0     C91318  11.512   2.687   9.633  0.4319  0.9365  0.7165
  677MOL0     O91319  11.610   2.706   9.727 -0.3536 -0.0641 -0.1289
  677MOL0     C91320  11.667   2.837   9.746  0.2402 -0.4532  0.4358
  677MOL0     C91321  11.823   2.823   9.782  0.0502 -0.5749 -0.1209
  677MOL0     C91322  11.894   2.799   9.655 -0.2186 -0.8952  0.2567
  677MOL0     C91323  12.047   2.784   9.674  0.2735 -0.3301  0.5845
  677MOL0     C91324  12.109   2.780   9.542 -0.3765  0.2794  0.1762
  677MOL0     C91325  12.163   2.774   9.442 -0.2961  0.4436  0.2123
  677MOL0     C91326  11.502   2.560   9.574  0.9531 -0.3594  0.3784
  677MOL0     C91327  11.404   2.532   9.477 -0.2618  0.3712 -1.0199
  677MOL0     H91328  10.844   2.664   9.344  1.6914 -0.2467  1.2575
  677MOL0     H91329  10.667   2.624   9.180 -0.0768  0.0830  0.9483
  677MOL0     H91330  10.808   2.507   8.765  0.2663  0.5612 -1.5095
  677MOL0     H91331  10.769   2.349   8.834 -0.9503 -0.8927 -1.7721
  677MOL0     H91332  10.532   2.380   8.775  0.8447 -0.1753 -1.1159
  677MOL0     H91333  10.560   2.547   8.733  0.9058  1.2251 -0.7796
  677MOL0     H91334  10.726   2.395   8.550 -0.1793  0.9173 -0.6433
  677MOL0     H91335  10.584   2.297   8.581 -2.3891  0.1277  0.4972
  677MOL0     H91336  10.443   2.470   8.508  0.7700 -0.2142 -0.6430
  677MOL0     H91337  10.577   2.588   8.501  1.1770  0.0992 -2.8826
  677MOL0     H91338  10.679   2.507   8.323  1.7900 -3.6368 -1.4619
  677MOL0     H91339  10.613   2.353   8.347  3.6691  0.6519  0.1907
  677MOL0     H91340  10.383   2.440   8.255 -0.0798  0.5798  0.5468
  677MOL0     H91341  10.442   2.601   8.266 -4.3217 -1.1135  1.3083
  677MOL0     H91342  10.600   2.586   8.091  0.8766  0.2641  1.6209
  677MOL0     H91343  10.577   2.404   8.072 -0.8825 -0.6971  0.1268
  677MOL0     H91344  10.475   2.572   7.906  0.6783 -0.0912 -0.1071
  677MOL0     H91345  10.368   2.626   8.039 -0.6488 -0.4034 -0.2481
  677MOL0     H91346  10.457   2.278   7.867  0.9126  0.5997  1.6023
  677MOL0     H91347  10.320   2.026   7.968  3.1032 -1.4748 -4.5400
  677MOL0     H91348  10.151   2.038   7.916 -1.0036  0.0490  0.0525
  677MOL0     H91349  10.377   2.108   7.711  0.3138 -0.7446 -1.8925
  677MOL0     H91350  10.211   2.110   7.691  0.5923  1.8473  0.4831
  677MOL0     H91351  10.224   1.832   7.743  0.1324  1.5550  3.1987
  677MOL0     H91352  10.395   1.862   7.761 -0.1972  0.4382  0.8295
  677MOL0     H91353  10.358   1.971   7.516 -1.3010 -0.2197 -1.5019
  677MOL0     H91354  10.225   1.859   7.515  0.8062 -1.5835 -1.1824
  677MOL0     H91355  10.492   1.602   7.690  1.0462 -0.4859 -0.8334
  677MOL0     H91356  10.472   1.263   7.699 -2.7038 -0.7654 -0.8818
  677MOL0     H91357  10.511   1.401   7.799 -0.2338  0.8801  0.0641
  677MOL0     H91358  10.344   1.325   7.805 -0.6509  2.7397  0.3171
  677MOL0     H91359  10.145   1.006   7.777  0.9618 -0.9960 -0.0462
  677MOL0     H91360  10.071   0.772   7.736 -0.9797  0.2885 -1.5358
  677MOL0     H91361  10.144   0.549   7.708  1.3459 -1.2436 -1.1240
  677MOL0     H91362   9.973   0.558   7.645  0.0111  3.2195 -0.8261
  677MOL0     H91363  10.006   0.382   7.502  0.1391 -1.6023 -0.7179
  677MOL0     H91364  10.180   0.378   7.538  0.0858  3.7779 -1.6608
  677MOL0     H91365   9.948   0.348   7.736 -1.0937 -0.9955 -1.3372
  677MOL0     H91366  10.129   0.317   7.768  0.5547 -0.9505 -0.5892
  677MOL0     H91367  10.009   0.148   7.562 -1.4818  1.4184 -0.1359
  677MOL0     H91368  10.163   0.142   7.635  0.3968 -0.6722  0.8722
  677MOL0     H91369  10.014  -0.016   7.744 -0.8664  0.3349 -0.7625
  677MOL0     H91370   9.901   0.110   7.795  0.7373 -1.0173  0.9225
  677MOL0     H91371  10.072   0.186   7.952 -0.0986  0.1355 -1.8106
  677MOL0     H91372  10.064   0.011   7.964 -3.3325  0.4920 -1.1916
  677MOL0     H91373  10.306   0.153   7.863 -2.5271  2.0159 -1.2068
  677MOL0     H91374  10.265  -0.008   7.796  0.6644 -3.1358  2.5697
  677MOL0     H91375  10.415  -0.007   7.999 -0.7463 -2.8089 -0.0211
  677MOL0     H91376  10.273  -0.107   8.012  0.5111 -0.4290 -1.0717
  677MOL0     H91377  10.277   0.773   7.354 -0.0628 -1.1300  1.3973
  677MOL0     H91378  10.334   1.023   7.391 -0.2109  1.6825  0.2683
  677MOL0     H91379  10.171   1.454   7.354  1.4974 -3.7162  0.0319
  677MOL0     H91380  10.259   1.693   7.357  0.8229  1.9023  1.2335
  677MOL0     H91381  10.973   2.471   8.910  0.3409 -2.8766  0.5634
  677MOL0     H91382  11.146   2.545   9.053 -1.2258 -1.7672 -1.9084
  677MOL0     H91383  11.212   2.813   9.515 -0.1856 -0.0151  4.4094
  677MOL0     H91384  11.400   2.870   9.661  1.9383  0.7389 -0.9200
  677MOL0     H91385  11.654   2.898   9.656  4.4854 -1.7625 -1.3251
  677MOL0     H91386  11.616   2.884   9.830 -0.5526 -0.2626 -0.1424
  677MOL0     H91387  11.837   2.738   9.849 -1.4306  0.5845  1.7615
  677MOL0     H91388  11.856   2.914   9.831 -1.8678 -1.8201  3.8852
  677MOL0     H91389  11.864   2.868   9.575  1.3993 -0.4623 -0.0137
  677MOL0     H91390  11.867   2.700   9.619 -0.9889 -1.0534  1.2534
  677MOL0     H91391  12.078   2.698   9.735 -3.4585 -1.4724  1.1396
  677MOL0     H91392  12.095   2.874   9.711  1.9883 -0.3083 -1.5183
  677MOL0     H91393  12.209   2.782   9.345 -2.9680  1.1039 -1.0899
  677MOL0     H91394  11.577   2.487   9.600  1.0600 -0.3787  0.0191
  677MOL0     H91395  11.405   2.426   9.454  2.6365  0.5599 -2.1997
  678MOL0     O91396   9.713   6.005   8.862  0.8490  0.7467  0.2842
  678MOL0     C91397   9.594   6.017   8.841 -0.7418  0.4298 -0.0515
  678MOL0     O91398   9.490   6.002   8.928  0.7681  0.1797 -0.6821
  678MOL0     C91399   9.513   5.933   9.047  0.1870 -0.3752  0.1856
  678MOL0     C91400   9.492   6.001   9.166  0.1948 -0.5822  0.4349
  678MOL0     C91401   9.522   5.944   9.290  0.2251  0.1489  0.5092
  678MOL0     C91402   9.570   5.814   9.296  0.4172 -1.2639 -0.2715
  678MOL0     O91403   9.618   5.742   9.405  1.0932 -0.2763  0.3667
  678MOL0     C91404   9.630   5.807   9.539  0.6020 -0.0058 -0.1724
  678MOL0     C91405   9.636   5.710   9.652 -0.0014  0.6196 -0.0783
  678MOL0     C91406   9.778   5.656   9.667 -0.0390  0.4611 -0.2757
  678MOL0     C91407   9.839   5.685   9.800 -0.7315  0.7556  0.5030
  678MOL0     C91408   9.892   5.833   9.797  0.8161  1.4009  0.4255
  678MOL0     C91409   9.958   5.867   9.931 -1.6792  0.2630 -0.8994
  678MOL0     C91410  10.019   6.006   9.933  0.3706 -0.9819 -0.8237
  678MOL0     C91411   9.923   6.113   9.872 -0.1320 -0.9503 -0.1940
  678MOL0     N91412   9.977   6.248   9.894  0.2329  0.1796 -0.0692
  678MOL0     C91413  10.006   6.300  10.014 -0.1441 -0.1597  0.0153
  678MOL0     C91414  10.016   6.430  10.002 -0.1967  0.2431 -0.4182
  678MOL0     C91415  10.046   6.536  10.117 -0.0204  1.3533  0.5852
  678MOL0     C91416   9.938   6.641  10.104 -0.0369 -0.5247  0.7914
  678MOL0     C91417   9.948   6.749  10.206 -0.0952  0.4072 -0.2744
  678MOL0     C91418   9.817   6.824  10.200 -0.5208 -0.0018  0.6585
  678MOL0     O91419   9.812   6.962  10.239  0.0868  0.8009  0.4682
  678MOL0     C91420   9.843   7.058  10.144 -0.6762  0.8537 -0.9765
  678MOL0     C91421   9.876   7.029  10.013 -1.0468  0.0843  0.2119
  678MOL0     C91422   9.897   7.137   9.920  0.5262  0.3835  0.4742
  678MOL0     C91423   9.912   7.084   9.770 -0.1405  0.1089  0.8538
  678MOL0     C91424   9.904   7.272   9.967  0.4434  0.2048  0.6732
  678MOL0     C91425   9.936   7.385   9.876  0.4210  0.8462 -0.8050
  678MOL0     O91426   9.942   7.508   9.924  0.1153  0.0290 -0.0527
  678MOL0     C91427   9.933   7.623   9.843 -0.3475 -0.4714 -0.2790
  678MOL0     C91428   9.850   7.635   9.732  0.7181 -0.0046  0.3898
  678MOL0     C91429   9.831   7.758   9.668 -0.7164  0.0774  0.2515
  678MOL0     C91430   9.898   7.869   9.713  1.0488  0.3317  0.8073
  678MOL0     O91431   9.887   7.992   9.643 -0.8209  0.0536 -0.3549
  678MOL0     C91432   9.838   7.999   9.507 -1.2313 -0.3760 -0.4427
  678MOL0     C91433   9.848   8.148   9.469  0.9320 -0.3970  0.2473
  678MOL0     C91434   9.975   8.221   9.429  0.5471 -0.4951  0.2207
  678MOL0     C91435   9.977   8.233   9.273  0.4096  0.1252  0.0275
  678MOL0     C91436  10.120   8.253   9.210 -0.1239 -0.4143  0.4950
  678MOL0     C91437  10.203   8.363   9.277 -0.8057 -0.7480  0.2218
  678MOL0     C91438  10.128   8.502   9.274 -0.5985 -0.0229  0.1134
  678MOL0     C91439  10.228   8.628   9.239  0.6868 -1.6987 -0.0839
  678MOL0    Cl91440  10.329   8.593   9.099  0.3039 -0.4381 -0.0061
  678MOL0     C91441   9.993   7.846   9.818  0.4358 -0.3367  0.1784
  678MOL0     C91442  10.006   7.731   9.889 -0.1377  0.9186 -0.6476
  678MOL0     O91443   9.941   7.365   9.758 -0.3764  0.3639 -0.1900
  678MOL0     C91444   9.889   7.295  10.106 -0.6297  0.9508  0.4781
  678MOL0     C91445   9.845   7.188  10.188  0.4576  0.3776  0.6247
  678MOL0     N91446   9.991   6.456   9.869  0.1198 -0.6426 -0.2239
  678MOL0     N91447   9.968   6.344   9.804  0.4355 -0.4930  0.8066
  678MOL0     C91448   9.588   5.740   9.174 -0.6413  0.2769 -0.0274
  678MOL0     C91449   9.560   5.796   9.054  0.3063  0.3421  0.6137
  678MOL0     C91450   9.546   6.079   8.717 -0.3752 -0.0318  0.1191
  678MOL0     C91451   9.630   6.162   8.632  0.4242 -0.6266  0.5619
  678MOL0     C91452   9.573   6.238   8.529  0.7216  0.1957  0.1083
  678MOL0     C91453   9.438   6.240   8.501 -0.5912 -0.0716 -0.9168
  678MOL0     O91454   9.406   6.314   8.394  0.5103  0.2163  0.3536
  678MOL0     C91455   9.253   6.327   8.381 -0.2998  0.3070  0.7838
  678MOL0     C91456   9.210   6.402   8.255  0.5862  0.1418 -0.1678
  678MOL0     C91457   9.276   6.331   8.126 -0.0682  0.1032  0.2291
  678MOL0     C91458   9.221   6.391   7.999  0.8022 -0.0917 -0.3771
  678MOL0     C91459   9.244   6.313   7.871 -0.1495 -0.3450  0.8674
  678MOL0     C91460   9.274   6.251   7.770  0.1608  1.3290 -0.2429
  678MOL0     C91461   9.352   6.160   8.583 -0.4412 -0.3170 -0.8669
  678MOL0     C91462   9.405   6.076   8.686  0.4600  0.0509  0.7525
  678MOL0     H91463   9.469   6.106   9.152 -0.4232 -0.6685  0.7873
  678MOL0     H91464   9.504   6.003   9.379 -0.7347  0.5403  0.0646
  678MOL0     H91465   9.716   5.874   9.537  1.3967 -0.8653  2.0744
  678MOL0     H91466   9.547   5.878   9.550  1.4368  0.8580  0.7642
  678MOL0     H91467   9.596   5.755   9.743 -0.5332  2.6556 -1.2531
  678MOL0     H91468   9.568   5.627   9.631 -1.1165  1.4891  0.0391
  678MOL0     H91469   9.769   5.547   9.670 -1.1427  0.5571  0.6820
  678MOL0     H91470   9.835   5.684   9.578 -1.9897 -1.5563 -2.3045
  678MOL0     H91471   9.757   5.666   9.870 -0.3842  1.1026  1.0183
  678MOL0     H91472   9.908   5.603   9.825 -0.5598  0.4424 -0.9201
  678MOL0     H91473   9.951   5.858   9.708 -3.7039  1.2981 -2.9792
  678MOL0     H91474   9.801   5.892   9.790  0.6256  1.1469  0.7345
  678MOL0     H91475   9.888   5.862  10.015  3.6573  3.5950  4.6118
  678MOL0     H91476  10.036   5.792   9.951 -1.7815  0.0414 -1.3144
  678MOL0     H91477  10.044   6.026  10.038 -2.7457 -2.1968  0.2782
  678MOL0     H91478  10.109   5.998   9.872  0.7347 -1.3435 -0.2518
  678MOL0     H91479   9.820   6.109   9.909 -0.8693 -3.5384 -2.1915
  678MOL0     H91480   9.917   6.090   9.765 -1.0749 -1.8450  0.0291
  678MOL0     H91481  10.031   6.263  10.113  5.1774  1.3227 -0.4502
  678MOL0     H91482  10.036   6.484  10.213 -0.4368  1.3397  0.5344
  678MOL0     H91483  10.144   6.584  10.104  0.6493 -0.4213 -1.4156
  678MOL0     H91484   9.840   6.597  10.126 -1.0548 -0.0580 -2.3752
  678MOL0     H91485   9.945   6.684  10.004 -3.1136  1.0473  1.1251
  678MOL0     H91486  10.037   6.808  10.182 -1.1019  0.3133 -5.3212
  678MOL0     H91487   9.952   6.711  10.308  0.7164 -0.3268 -0.5751
  678MOL0     H91488   9.745   6.775  10.267 -1.0419  1.7878  1.4587
  678MOL0     H91489   9.772   6.813  10.100  0.6758  0.0194  0.1008
  678MOL0     H91490   9.887   6.924   9.988  1.8914 -0.3125  2.6192
  678MOL0     H91491   9.884   6.978   9.764  1.5309 -0.6740  4.2764
  678MOL0     H91492   9.840   7.142   9.712  0.1735  0.5476  0.8972
  678MOL0     H91493  10.015   7.091   9.732  0.3675  1.9379  2.4086
  678MOL0     H91494   9.808   7.541   9.696  3.7887 -1.0506 -0.7667
  678MOL0     H91495   9.771   7.765   9.578 -2.4662  3.3155  1.4950
  678MOL0     H91496   9.903   7.935   9.448 -0.9014 -0.7694  0.3390
  678MOL0     H91497   9.732   7.975   9.495 -0.7746 -2.6034 -0.3351
  678MOL0     H91498   9.773   8.162   9.390 -0.5044  2.0484  1.9200
  678MOL0     H91499   9.798   8.203   9.549 -1.8361 -1.3486 -0.7184
  678MOL0     H91500  10.058   8.163   9.470  3.4143  1.9026 -1.7452
  678MOL0     H91501   9.981   8.325   9.463 -0.1573 -0.1993 -0.5180
  678MOL0     H91502   9.941   8.136   9.237  0.1033  1.1335 -2.5604
  678MOL0     H91503   9.905   8.303   9.230 -1.1814 -1.1282  0.5566
  678MOL0     H91504  10.110   8.283   9.105  0.4140 -2.7350 -0.2641
  678MOL0     H91505  10.168   8.157   9.189 -3.0912 -1.7661 -0.6996
  678MOL0     H91506  10.220   8.333   9.381  2.3318  1.2802  0.4321
  678MOL0     H91507  10.301   8.372   9.229 -1.4889 -0.7715 -1.2174
  678MOL0     H91508  10.084   8.512   9.373  3.4833  0.6636  2.0738
  678MOL0     H91509  10.040   8.507   9.208 -0.6846  2.4745  0.3056
  678MOL0     H91510  10.280   8.641   9.334 -1.0005  2.9525  0.4317
  678MOL0     H91511  10.173   8.722   9.233 -0.7541 -2.0788  4.0144
  678MOL0     H91512  10.059   7.925   9.854  2.1179 -2.7591  2.8754
  678MOL0     H91513  10.063   7.722   9.981  0.3477  2.2734 -0.7901
  678MOL0     H91514   9.908   7.393  10.147  1.4080  1.8598 -2.3796
  678MOL0     H91515   9.830   7.220  10.291 -3.3881  2.3208 -0.3191
  678MOL0     H91516   9.636   5.643   9.183 -3.2424 -1.0547  0.5056
  678MOL0     H91517   9.579   5.747   8.960 -0.1464  1.8260 -0.2847
  678MOL0     H91518   9.738   6.171   8.636  0.3350  0.2016  1.6205
  678MOL0     H91519   9.632   6.303   8.466 -1.1802  1.1457 -0.7391
  678MOL0     H91520   9.206   6.228   8.376 -2.7891  1.5076 -2.6976
  678MOL0     H91521   9.211   6.384   8.465 -2.2643 -0.3296  0.2875
  678MOL0     H91522   9.240   6.507   8.253 -1.2194  0.7071  0.2103
  678MOL0     H91523   9.101   6.401   8.253  0.4958  2.4863  0.4494
  678MOL0     H91524   9.248   6.226   8.136 -0.8692  0.3235  0.3692
  678MOL0     H91525   9.383   6.348   8.141  0.0482 -0.6962  0.3435
  678MOL0     H91526   9.254   6.493   7.979 -1.6309  1.1604  1.3852
  678MOL0     H91527   9.113   6.410   8.008  1.0785  3.1043 -2.3817
  678MOL0     H91528   9.311   6.199   7.685  1.7697  2.1836 -0.0983
  678MOL0     H91529   9.248   6.138   8.562 -1.2219 -0.9116  2.8891
  678MOL0     H91530   9.332   6.024   8.747 -1.7679  2.4146  0.2773
  679MOL0     O91531   1.801   4.254   7.700 -0.0230 -0.5185 -0.2726
  679MOL0     C91532   1.847   4.166   7.626  1.0306 -0.0800 -0.6111
  679MOL0     O91533   1.967   4.161   7.580  0.0342 -0.3003 -0.5673
  679MOL0     C91534   2.052   4.262   7.618 -0.3319  0.0583  1.2273
  679MOL0     C91535   2.144   4.244   7.714 -1.4484 -0.6366 -0.8809
  679MOL0     C91536   2.224   4.350   7.748  0.3187 -1.1306  0.2248
  679MOL0     C91537   2.229   4.463   7.659  0.5596 -0.9380  0.0474
  679MOL0     O91538   2.312   4.576   7.664 -0.6355  0.1077 -0.5486
  679MOL0     C91539   2.450   4.557   7.708  0.3575 -0.2642 -0.2458
  679MOL0     C91540   2.512   4.700   7.707  1.0865 -0.2530 -0.2287
  679MOL0     C91541   2.470   4.794   7.589  0.2235  0.1668 -0.0766
  679MOL0     C91542   2.527   4.938   7.616  0.7360 -0.5494 -0.8484
  679MOL0     C91543   2.428   5.052   7.570 -0.1980  0.0126 -0.0004
  679MOL0     C91544   2.388   5.055   7.429  0.5874 -1.0061  0.1271
  679MOL0     C91545   2.328   5.193   7.367  0.6322  0.3931 -0.4513
  679MOL0     C91546   2.204   5.244   7.449  0.3894 -0.6422 -0.1580
  679MOL0     N91547   2.150   5.377   7.405 -0.8325  0.6911  0.9503
  679MOL0     C91548   2.029   5.403   7.333 -1.1001 -0.0175 -0.3430
  679MOL0     C91549   2.054   5.524   7.288 -0.8011 -0.5341  1.3445
  679MOL0     C91550   1.949   5.591   7.207  0.9319  0.2529  1.2010
  679MOL0     C91551   2.008   5.646   7.087 -0.1864  0.2367  0.1153
  679MOL0     C91552   2.071   5.534   6.992  0.0544 -1.0128 -0.3838
  679MOL0     C91553   1.966   5.439   6.928 -0.1188 -0.4542 -0.2727
  679MOL0     O91554   2.034   5.355   6.838  0.0992 -0.5820  0.0613
  679MOL0     C91555   2.094   5.245   6.898  1.2558  0.7876  0.0515
  679MOL0     C91556   2.231   5.248   6.936  0.3572  0.3163  0.3309
  679MOL0     C91557   2.297   5.129   6.979 -0.7489 -0.5622 -0.2873
  679MOL0     C91558   2.444   5.127   6.977 -0.5337 -0.0893  0.0991
  679MOL0     C91559   2.226   5.011   6.996 -0.4272 -1.2743 -0.9320
  679MOL0     C91560   2.301   4.890   7.051 -0.0545 -0.8928  0.7022
  679MOL0     O91561   2.384   4.832   6.957 -0.1987 -0.6136  0.2767
  679MOL0     C91562   2.474   4.728   6.997 -0.6043 -0.7849  0.1311
  679MOL0     C91563   2.535   4.644   6.901 -0.5758 -0.2032 -0.3193
  679MOL0     C91564   2.609   4.535   6.934  1.1096  0.0774 -0.3966
  679MOL0     C91565   2.650   4.516   7.064  0.8659  0.8408 -0.4735
  679MOL0     O91566   2.738   4.407   7.078  0.1097 -0.1280  0.2920
  679MOL0     C91567   2.822   4.391   7.195 -0.1769 -0.0506 -0.2405
  679MOL0     C91568   2.902   4.269   7.196  0.3870  0.7734  0.0228
  679MOL0     C91569   2.991   4.247   7.320  1.1578  0.2383 -0.1328
  679MOL0     C91570   3.042   4.103   7.329 -0.6830  0.0262  0.1395
  679MOL0     C91571   3.144   4.081   7.435  0.7096 -0.1929 -1.0146
  679MOL0     C91572   3.073   4.095   7.580 -0.1356 -0.1335  0.0405
  679MOL0     C91573   3.148   4.100   7.716 -0.1350 -0.1602  1.0414
  679MOL0     C91574   3.269   4.195   7.723  0.7840 -0.1966  0.1856
  679MOL0    Cl91575   3.209   4.364   7.697  0.5492 -0.0897 -0.1398
  679MOL0     C91576   2.591   4.594   7.171 -0.0459 -0.0595  0.4709
  679MOL0     C91577   2.507   4.698   7.134 -0.2342  0.2146 -0.3741
  679MOL0     O91578   2.277   4.855   7.164  0.4672 -0.2762  0.3291
  679MOL0     C91579   2.091   5.006   6.960  0.5872  0.1802 -0.4090
  679MOL0     C91580   2.022   5.122   6.913  0.2703 -0.7174 -0.3265
  679MOL0     N91581   2.169   5.581   7.338  0.9376  1.2057 -0.1533
  679MOL0     N91582   2.237   5.486   7.405  0.6490  0.3131 -0.1343
  679MOL0     C91583   2.148   4.471   7.549 -0.3940 -0.5712 -0.8799
  679MOL0     C91584   2.055   4.376   7.536  0.5072  0.0229  0.5988
  679MOL0     C91585   1.781   4.036   7.607  0.1671  0.6837  0.2110
  679MOL0     C91586   1.665   4.012   7.680  0.3582  0.5199  0.3195
  679MOL0     C91587   1.600   3.894   7.672 -0.3016  0.7588  0.2925
  679MOL0     C91588   1.633   3.800   7.571  1.1081  1.1042  0.7843
  679MOL0     O91589   1.564   3.681   7.555 -0.4849  0.3069  0.7819
  679MOL0     C91590   1.435   3.694   7.483 -0.1171  0.4941  0.3642
  679MOL0     C91591   1.309   3.699   7.564 -0.1855 -0.6933  0.1203
  679MOL0     C91592   1.262   3.570   7.636  0.6496  0.1686  0.1220
  679MOL0     C91593   1.239   3.460   7.524 -0.0402  0.5064 -0.7153
  679MOL0     C91594   1.143   3.355   7.570  0.5046 -0.0491 -0.3532
  679MOL0     C91595   1.073   3.271   7.612 -0.4179  0.1366 -0.0442
  679MOL0     C91596   1.748   3.828   7.494  0.0622  1.0301  0.6541
  679MOL0     C91597   1.819   3.942   7.513  0.1669 -0.4902  0.9637
  679MOL0     H91598   2.154   4.152   7.771 -0.7987  0.5726  1.0651
  679MOL0     H91599   2.292   4.343   7.832 -0.5778 -0.5220  1.0192
  679MOL0     H91600   2.455   4.523   7.811  1.1994  2.2598  0.6195
  679MOL0     H91601   2.508   4.480   7.655  1.6623 -0.3617  1.2448
  679MOL0     H91602   2.485   4.751   7.800  1.6623 -0.2337 -0.0723
  679MOL0     H91603   2.621   4.699   7.714  1.6358 -1.4035 -5.2295
  679MOL0     H91604   2.506   4.758   7.492 -0.7519  2.0026 -1.1657
  679MOL0     H91605   2.363   4.810   7.603 -0.3954 -1.7784 -1.9795
  679MOL0     H91606   2.544   4.957   7.722  0.3899 -1.0519 -0.6987
  679MOL0     H91607   2.629   4.955   7.579  1.1301 -0.4801  0.2424
  679MOL0     H91608   2.343   5.038   7.637  0.4185 -1.7973  0.4438
  679MOL0     H91609   2.483   5.145   7.587  1.9420 -0.1539 -4.5341
  679MOL0     H91610   2.476   5.026   7.371  0.3731  0.7729 -1.1516
  679MOL0     H91611   2.305   4.984   7.418  0.1577 -0.5775  0.5335
  679MOL0     H91612   2.413   5.262   7.374  1.1212 -0.2056 -0.3439
  679MOL0     H91613   2.291   5.177   7.265  0.1994 -0.9763 -0.0974
  679MOL0     H91614   2.233   5.248   7.555 -0.4921 -0.3776  0.0816
  679MOL0     H91615   2.125   5.168   7.454 -0.9313  0.6752 -0.4728
  679MOL0     H91616   1.947   5.334   7.311  0.0247 -1.1716 -1.0257
  679MOL0     H91617   1.870   5.521   7.179  2.0155 -0.0571 -1.3497
  679MOL0     H91618   1.907   5.669   7.270 -3.0219 -0.5782 -0.1209
  679MOL0     H91619   2.082   5.723   7.114 -0.3960  1.3496 -2.2672
  679MOL0     H91620   1.928   5.699   7.035 -0.6746  1.2479  1.8196
  679MOL0     H91621   2.150   5.481   7.046  1.6400  0.4654 -1.1600
  679MOL0     H91622   2.120   5.585   6.909  0.6252 -2.2713 -0.8389
  679MOL0     H91623   1.890   5.501   6.878 -0.8092  1.9507  3.3952
  679MOL0     H91624   1.925   5.389   7.016 -0.8917  3.5917  1.9148
  679MOL0     H91625   2.293   5.332   6.904  0.8845 -1.1898 -2.9713
  679MOL0     H91626   2.484   5.062   6.899 -0.3412 -0.8924  0.8528
  679MOL0     H91627   2.492   5.224   6.956  0.2528 -0.2162  1.2404
  679MOL0     H91628   2.470   5.105   7.081 -0.4444  4.0422  1.1206
  679MOL0     H91629   2.522   4.668   6.796 -1.4356  2.0662  0.2361
  679MOL0     H91630   2.656   4.492   6.846  1.8579  1.1190 -0.5310
  679MOL0     H91631   2.880   4.481   7.215  2.6803 -1.9305  0.5746
  679MOL0     H91632   2.743   4.392   7.271 -0.4373 -0.2856 -0.5041
  679MOL0     H91633   2.833   4.185   7.178  1.0869  0.4644 -1.3059
  679MOL0     H91634   2.974   4.265   7.115  2.5382  0.4826  1.8545
  679MOL0     H91635   2.932   4.267   7.409 -1.7313 -1.5747 -1.5076
  679MOL0     H91636   3.077   4.315   7.318  0.8378  0.6362 -1.5736
  679MOL0     H91637   2.961   4.029   7.330 -2.1839  1.5205 -1.8804
  679MOL0     H91638   3.089   4.076   7.234 -0.2806  1.6079 -0.1440
  679MOL0     H91639   3.215   4.165   7.434  0.3012  0.1525 -1.3548
  679MOL0     H91640   3.193   3.984   7.422  0.4558 -0.2905 -1.2370
  679MOL0     H91641   3.029   4.195   7.583  0.4598  0.1040  1.5900
  679MOL0     H91642   2.991   4.023   7.590  0.4600 -0.6613  1.3513
  679MOL0     H91643   3.173   3.999   7.751  0.8516  0.5624  2.4800
  679MOL0     H91644   3.080   4.145   7.788 -0.5737 -0.6434  0.9397
  679MOL0     H91645   3.341   4.179   7.642  0.7223  0.7363 -0.0628
  679MOL0     H91646   3.308   4.182   7.825 -1.2188 -0.9082  0.8979
  679MOL0     H91647   2.613   4.593   7.277 -3.2331 -0.7999  1.2474
  679MOL0     H91648   2.468   4.751   7.221 -0.2361 -1.8217  0.9499
  679MOL0     H91649   2.035   4.914   6.970 -0.1334  0.7583  1.2881
  679MOL0     H91650   1.916   5.105   6.903  0.0543 -0.7169  1.6527
  679MOL0     H91651   2.148   4.555   7.480 -0.4716 -1.9513 -2.6369
  679MOL0     H91652   1.982   4.384   7.456  0.4938  2.8872  0.7840
  679MOL0     H91653   1.652   4.072   7.769 -0.7400 -3.2815  2.9973
  679MOL0     H91654   1.517   3.883   7.740  1.7816 -2.2718  2.6411
  679MOL0     H91655   1.432   3.776   7.410 -3.4364  2.8731  2.9025
  679MOL0     H91656   1.431   3.606   7.417 -0.6753  1.7479 -1.3596
  679MOL0     H91657   1.225   3.733   7.503 -0.5015 -0.4827  0.6707
  679MOL0     H91658   1.322   3.774   7.642 -0.3525 -1.2126  0.6530
  679MOL0     H91659   1.169   3.607   7.681  3.0225  2.9031  3.2016
  679MOL0     H91660   1.322   3.539   7.722 -3.7499 -0.9387  3.1945
  679MOL0     H91661   1.336   3.416   7.502  0.5450  0.9628  0.8052
  679MOL0     H91662   1.202   3.501   7.430 -0.8072  1.6095  0.0446
  679MOL0     H91663   0.995   3.210   7.652 -0.7022 -0.2701 -1.1824
  679MOL0     H91664   1.767   3.759   7.412  0.4728  2.1841 -0.2551
  679MOL0     H91665   1.907   3.962   7.454  0.7171 -3.4057  0.6176
  680MOL0     O91666   2.821   0.259  11.098 -0.4458  0.0122 -0.0650
  680MOL0     C91667   2.754   0.240  10.999 -0.0710  0.3577 -0.5395
  680MOL0     O91668   2.798   0.198  10.883  0.0737 -1.0663  0.8445
  680MOL0     C91669   2.922   0.161  10.840  0.2698  0.4457  0.0958
  680MOL0     C91670   3.025   0.111  10.925 -0.0064 -0.6556  0.3695
  680MOL0     C91671   3.144   0.073  10.876 -1.0011 -0.4888  0.6915
  680MOL0     C91672   3.171   0.082  10.743 -0.3722 -0.7991 -0.3012
  680MOL0     O91673   3.285   0.030  10.680  0.3246  1.0054  0.1980
  680MOL0     C91674   3.386  -0.034  10.758 -0.1561  0.8839 -0.0406
  680MOL0     C91675   3.503  -0.090  10.668  0.4230  0.8918  0.0392
  680MOL0     C91676   3.563   0.015  10.584 -0.5983 -0.0959 -0.4589
  680MOL0     C91677   3.678  -0.022  10.494  0.4709  0.4668  0.7953
  680MOL0     C91678   3.697   0.061  10.362  0.6324  0.5276  0.4624
  680MOL0     C91679   3.755   0.208  10.398  0.6559  0.3214  0.2696
  680MOL0     C91680   3.736   0.307  10.280 -0.1377 -0.4868  0.4740
  680MOL0     C91681   3.852   0.282  10.180 -0.4587 -0.3552 -0.5584
  680MOL0     N91682   3.853   0.397  10.087 -0.0306  0.0367 -0.2236
  680MOL0     C91683   3.751   0.432  10.007  0.9841 -0.3291 -0.8637
  680MOL0     C91684   3.771   0.555   9.975 -0.0887 -1.2802  0.1040
  680MOL0     C91685   3.680   0.645   9.895 -0.0458  0.2636 -0.0651
  680MOL0     C91686   3.592   0.546   9.802 -0.6022 -0.3384  0.2152
  680MOL0     C91687   3.516   0.637   9.701 -0.2559 -0.1173  0.4852
  680MOL0     C91688   3.420   0.553   9.622  0.9760  0.9607 -0.1137
  680MOL0     O91689   3.471   0.472   9.515  0.3228  0.2299  0.2472
  680MOL0     C91690   3.381   0.403   9.446  0.7675 -0.4968 -0.5125
  680MOL0     C91691   3.441   0.324   9.354  0.0317 -0.3926  0.0417
  680MOL0     C91692   3.363   0.240   9.280 -0.2065 -0.2546  0.1890
  680MOL0     C91693   3.441   0.151   9.181  0.7291  0.0725  0.7467
  680MOL0     C91694   3.219   0.230   9.290 -0.5437  0.4919 -0.9092
  680MOL0     C91695   3.133   0.147   9.215 -0.5620 -0.0952 -0.5102
  680MOL0     O91696   3.000   0.150   9.246  0.2590 -0.0008 -0.3338
  680MOL0     C91697   2.908   0.041   9.240 -0.5545 -0.8021  0.3060
  680MOL0     C91698   2.957  -0.088   9.224 -0.4389  0.0601 -0.5056
  680MOL0     C91699   2.869  -0.185   9.194 -0.3152 -0.1815  0.0639
  680MOL0     C91700   2.728  -0.161   9.185  0.0526  0.3041 -0.2862
  680MOL0     O91701   2.636  -0.263   9.154  0.4417  0.1623 -0.4118
  680MOL0     C91702   2.548  -0.287   9.267  0.2280  1.2896  0.2758
  680MOL0     C91703   2.617  -0.378   9.380 -0.5028 -0.3865 -0.1161
  680MOL0     C91704   2.512  -0.434   9.476 -0.5790  0.2304  1.1461
  680MOL0     C91705   2.460  -0.341   9.576  0.3511  0.9171  0.2934
  680MOL0     C91706   2.372  -0.408   9.687 -0.4159 -0.4104  0.2092
  680MOL0     C91707   2.348  -0.309   9.802 -0.5093 -0.2613 -0.3023
  680MOL0     C91708   2.455  -0.296   9.913  0.1777  1.0058 -0.7806
  680MOL0     C91709   2.486  -0.431   9.979  0.3329 -0.4697 -0.5428
  680MOL0    Cl91710   2.558  -0.406  10.142 -0.0066 -0.1028 -0.3301
  680MOL0     C91711   2.678  -0.032   9.209 -0.9103  0.5117  1.1545
  680MOL0     C91712   2.772   0.066   9.236 -0.3934  0.1833 -1.0920
  680MOL0     O91713   3.181   0.074   9.126 -1.1629 -0.5991 -0.2316
  680MOL0     C91714   3.164   0.318   9.380 -0.3451  0.2988  0.4929
  680MOL0     C91715   3.239   0.394   9.469  0.2915  0.3812 -0.6965
  680MOL0     N91716   3.897   0.595  10.017 -0.4119  0.4062  1.2392
  680MOL0     N91717   3.946   0.495  10.080  0.0056 -1.3593  0.0168
  680MOL0     C91718   3.079   0.135  10.656  0.3995 -0.3270  0.4965
  680MOL0     C91719   2.956   0.171  10.696  0.0692 -0.5773 -0.5842
  680MOL0     C91720   2.604   0.246  11.016 -0.7622 -0.1254 -0.2280
  680MOL0     C91721   2.517   0.200  10.904 -0.7509 -0.7306  0.6343
  680MOL0     C91722   2.378   0.207  10.906 -0.3345  0.1676 -0.4652
  680MOL0     C91723   2.311   0.251  11.021 -0.9700  0.3363  0.0439
  680MOL0     O91724   2.179   0.245  11.028  0.0211  0.2315  0.8350
  680MOL0     C91725   2.110   0.336  11.121  0.5633  0.5821 -0.0178
  680MOL0     C91726   2.074   0.257  11.247 -0.2021  0.2040 -0.6284
  680MOL0     C91727   2.008   0.345  11.353 -0.2256 -0.6985  0.3784
  680MOL0     C91728   1.875   0.404  11.307 -0.3151  0.4562 -0.4142
  680MOL0     C91729   1.772   0.306  11.284  0.1645  0.5043 -0.2683
  680MOL0     C91730   1.703   0.210  11.272  0.1263  0.5828 -0.3138
  680MOL0     C91731   2.394   0.286  11.129 -0.0009  0.1274  0.5053
  680MOL0     C91732   2.527   0.291  11.121  0.9473  0.5724 -2.0767
  680MOL0     H91733   3.011   0.080  11.028 -0.3478  1.2572  0.9503
  680MOL0     H91734   3.223   0.031  10.937 -0.9871  1.8969  2.4561
  680MOL0     H91735   3.428   0.049  10.815 -0.1679 -0.0915  1.4333
  680MOL0     H91736   3.365  -0.115  10.829  2.4262  0.5766  0.4738
  680MOL0     H91737   3.584  -0.136  10.726 -1.3605  0.1655  2.0692
  680MOL0     H91738   3.470  -0.173  10.604  1.8936  1.4999 -1.5729
  680MOL0     H91739   3.480   0.053  10.524  1.0676 -0.6806 -3.2956
  680MOL0     H91740   3.606   0.093  10.648  2.6152 -1.4818 -0.7592
  680MOL0     H91741   3.768  -0.017  10.555  1.2826 -2.1226 -0.0586
  680MOL0     H91742   3.667  -0.126  10.462  0.1676  0.5810  0.5195
  680MOL0     H91743   3.760   0.005  10.292  0.3273  0.3213  0.3517
  680MOL0     H91744   3.601   0.053  10.311  0.2849 -4.2124  1.4560
  680MOL0     H91745   3.705   0.252  10.485  1.5044 -1.6902  1.8522
  680MOL0     H91746   3.860   0.194  10.427  0.3286 -2.4818  0.3184
  680MOL0     H91747   3.637   0.304  10.235  1.9087 -0.3402 -4.6459
  680MOL0     H91748   3.748   0.408  10.321 -1.2906  0.7329 -2.0149
  680MOL0     H91749   3.836   0.194  10.115  0.7315 -0.9421 -0.0830
  680MOL0     H91750   3.945   0.277  10.237 -1.4874 -0.1047  1.2063
  680MOL0     H91751   3.662   0.373   9.985  1.0311 -0.9446  0.4572
  680MOL0     H91752   3.611   0.695   9.963 -0.8192 -1.0403  0.1473
  680MOL0     H91753   3.737   0.726   9.848 -0.0967  0.9437  1.0082
  680MOL0     H91754   3.520   0.487   9.859  1.1992  0.5971  3.7419
  680MOL0     H91755   3.670   0.480   9.762  2.7000  1.1530  3.5421
  680MOL0     H91756   3.586   0.679   9.628 -3.0980  1.3656 -1.6472
  680MOL0     H91757   3.457   0.711   9.757  1.0048 -0.5112  2.4202
  680MOL0     H91758   3.350   0.624   9.578  0.4523 -0.6616 -2.0209
  680MOL0     H91759   3.377   0.480   9.692  1.2212  1.3446  0.4514
  680MOL0     H91760   3.549   0.325   9.344  0.0010 -2.8126 -1.1848
  680MOL0     H91761   3.426   0.044   9.199 -0.5235  0.2711  0.9561
  680MOL0     H91762   3.411   0.185   9.082  1.0345  0.2444  0.7136
  680MOL0     H91763   3.547   0.171   9.200  0.4939  1.2084  0.9537
  680MOL0     H91764   3.059  -0.123   9.230 -0.0683  0.3761 -3.4044
  680MOL0     H91765   2.924  -0.278   9.189  0.1943  0.1307 -0.3033
  680MOL0     H91766   2.503  -0.199   9.314 -0.5427  0.9524  0.1864
  680MOL0     H91767   2.463  -0.347   9.232  2.3510 -1.9390  0.2695
  680MOL0     H91768   2.661  -0.466   9.334  3.7230  0.3789  1.9761
  680MOL0     H91769   2.693  -0.321   9.435 -2.1526  0.3395  1.5002
  680MOL0     H91770   2.543  -0.530   9.520  0.2755 -0.3618 -0.6607
  680MOL0     H91771   2.428  -0.464   9.412 -0.7887  1.1230  0.9956
  680MOL0     H91772   2.547  -0.290   9.619 -0.5262  2.1720  0.6367
  680MOL0     H91773   2.404  -0.260   9.527 -0.6512 -1.4367 -2.7851
  680MOL0     H91774   2.432  -0.496   9.712  1.0182 -0.4447 -2.9999
  680MOL0     H91775   2.282  -0.431   9.630  0.8487 -1.1397 -1.5549
  680MOL0     H91776   2.334  -0.208   9.762  3.1026 -0.0446 -1.3111
  680MOL0     H91777   2.256  -0.343   9.851  1.4831 -1.2836  3.0185
  680MOL0     H91778   2.419  -0.228   9.991  2.8210 -0.2615  1.7286
  680MOL0     H91779   2.541  -0.248   9.867 -0.5067  2.9455 -0.1506
  680MOL0     H91780   2.550  -0.480   9.905 -0.3607 -0.6517 -1.0370
  680MOL0     H91781   2.401  -0.498   9.990 -1.5154  1.5471 -1.6972
  680MOL0     H91782   2.574  -0.006   9.190 -0.9053 -1.2802 -2.0918
  680MOL0     H91783   2.748   0.172   9.248 -0.3587  0.2621 -1.6711
  680MOL0     H91784   3.056   0.324   9.391 -0.7385 -2.7194 -0.7601
  680MOL0     H91785   3.191   0.463   9.539  0.7876 -0.3143  0.3531
  680MOL0     H91786   3.090   0.130  10.548 -0.9750 -0.0048  0.3149
  680MOL0     H91787   2.870   0.201  10.636 -0.2683 -2.7533 -1.2702
  680MOL0     H91788   2.555   0.146  10.818  2.1957  2.7553 -0.5527
  680MOL0     H91789   2.324   0.183  10.815 -0.7429 -4.5368  0.7459
  680MOL0     H91790   2.160   0.430  11.146 -3.7037  3.6364 -1.7217
  680MOL0     H91791   2.015   0.365  11.074 -0.0227  0.9963  1.3851
  680MOL0     H91792   2.157   0.206  11.296 -1.5281  1.1138  2.8732
  680MOL0     H91793   1.999   0.183  11.220  0.8054 -1.4375  0.8958
  680MOL0     H91794   2.073   0.429  11.377 -0.2963 -0.7626  0.8165
  680MOL0     H91795   2.001   0.286  11.445  2.8883  0.5015  1.5059
  680MOL0     H91796   1.891   0.450  11.209 -3.1632  1.0393 -0.6777
  680MOL0     H91797   1.838   0.466  11.389  1.3827 -1.1372  1.6731
  680MOL0     H91798   1.645   0.125  11.242 -0.1456  0.6807 -0.0743
  680MOL0     H91799   2.345   0.310  11.223  2.2679  0.2220  1.7413
  680MOL0     H91800   2.581   0.326  11.208  1.4713 -3.1342 -0.7267
  681MOL0     O91801   0.190   1.225   1.767  0.3703  0.1689 -0.1872
  681MOL0     C91802   0.164   1.115   1.714  0.7188 -0.0975 -0.1657
  681MOL0     O91803   0.256   1.029   1.668  0.6735 -0.4561  0.2189
  681MOL0     C91804   0.388   1.061   1.690 -0.6007 -0.2442 -0.0019
  681MOL0     C91805   0.462   0.978   1.770  0.0884  0.2664 -0.9053
  681MOL0     C91806   0.595   1.006   1.802  0.1226  0.1324 -0.4832
  681MOL0     C91807   0.665   1.102   1.723 -0.0144  0.1648 -0.3831
  681MOL0     O91808   0.794   1.126   1.753  0.1452  1.1446 -0.6715
  681MOL0     C91809   0.882   1.181   1.647  1.4044 -0.5552 -0.3289
  681MOL0     C91810   1.021   1.159   1.688  0.6582 -0.8935 -0.6573
  681MOL0     C91811   1.110   1.113   1.572 -0.0129  0.6904  1.1878
  681MOL0     C91812   1.255   1.177   1.587 -1.0250 -0.2410  0.1835
  681MOL0     C91813   1.343   1.125   1.477  0.4865  0.1141  0.8151
  681MOL0     C91814   1.434   1.231   1.426  0.1246  0.2626 -0.3154
  681MOL0     C91815   1.520   1.298   1.541 -0.6381  0.1397  0.4996
  681MOL0     C91816   1.580   1.206   1.640  0.5499 -0.0678 -0.1738
  681MOL0     N91817   1.692   1.120   1.605 -0.3909  0.2346  0.7292
  681MOL0     C91818   1.688   1.017   1.515 -0.1358 -0.2424 -0.1881
  681MOL0     C91819   1.814   0.965   1.514 -0.1824  0.8826  0.2981
  681MOL0     C91820   1.838   0.834   1.437 -0.7552  1.0732 -0.0090
  681MOL0     C91821   1.769   0.710   1.487  0.0006  0.1131 -0.5704
  681MOL0     C91822   1.772   0.696   1.642 -0.5516  0.1593 -0.3603
  681MOL0     C91823   1.728   0.558   1.682 -0.5036  0.4718  0.7087
  681MOL0     O91824   1.616   0.511   1.608 -0.1606  0.2374  1.0870
  681MOL0     C91825   1.489   0.576   1.621 -1.2289 -1.2401 -0.6303
  681MOL0     C91826   1.468   0.689   1.701 -0.2686  0.6428 -1.0340
  681MOL0     C91827   1.337   0.754   1.712 -0.5714 -0.2428 -0.2133
  681MOL0     C91828   1.342   0.862   1.830  0.1301  0.4460  0.8165
  681MOL0     C91829   1.227   0.702   1.641 -0.4268 -0.2144  0.0399
  681MOL0     C91830   1.090   0.746   1.655 -0.6427 -0.4345  0.3306
  681MOL0     O91831   1.007   0.727   1.547 -0.1926  0.8972 -0.7580
  681MOL0     C91832   0.876   0.755   1.543  0.2704 -0.5941 -0.0620
  681MOL0     C91833   0.850   0.874   1.469 -1.0427  0.9687  0.3760
  681MOL0     C91834   0.720   0.905   1.443  1.2680 -1.2619 -0.8044
  681MOL0     C91835   0.613   0.831   1.485  0.1496  0.1804  0.7292
  681MOL0     O91836   0.482   0.852   1.473  0.0055 -0.3354  0.9343
  681MOL0     C91837   0.447   0.915   1.352 -0.5342  0.2794  0.2287
  681MOL0     C91838   0.302   0.880   1.317 -0.7915  1.6776  0.2413
  681MOL0     C91839   0.295   0.725   1.311  0.8544  0.5756  0.5260
  681MOL0     C91840   0.159   0.668   1.256  0.2868 -0.9546 -0.6644
  681MOL0     C91841   0.142   0.684   1.110 -0.8670  0.2191  0.1597
  681MOL0     C91842   0.011   0.658   1.040 -0.6632  0.0862  0.0544
  681MOL0     C91843  -0.012   0.514   1.001  0.2387  0.5103  0.1489
  681MOL0     C91844   0.071   0.464   0.878  0.2927  0.2557 -0.5036
  681MOL0    Cl91845   0.231   0.391   0.949  0.0457  0.3262 -0.0688
  681MOL0     C91846   0.646   0.711   1.554 -0.4747  0.0483  0.2818
  681MOL0     C91847   0.777   0.668   1.593 -0.2415  0.6178  0.7372
  681MOL0     O91848   1.066   0.808   1.755 -0.5180  0.0274  0.3819
  681MOL0     C91849   1.253   0.600   1.554  0.5028  0.1658 -0.7177
  681MOL0     C91850   1.381   0.534   1.546  0.8949 -0.9514  0.1781
  681MOL0     N91851   1.908   1.046   1.576 -0.0373  0.5394  0.1850
  681MOL0     N91852   1.828   1.136   1.635 -1.0031 -0.0680 -0.7150
  681MOL0     C91853   0.593   1.175   1.626  0.1898 -1.8407 -0.3387
  681MOL0     C91854   0.450   1.162   1.611  0.0672 -0.5532 -0.5824
  681MOL0     C91855   0.023   1.078   1.691  0.9177 -0.1011 -0.7417
  681MOL0     C91856  -0.076   1.162   1.736  0.1756  0.2408 -0.7367
  681MOL0     C91857  -0.210   1.127   1.728  0.7822  0.4752 -0.2620
  681MOL0     C91858  -0.250   1.002   1.674 -0.6970  0.3625  0.4882
  681MOL0     O91859  -0.377   0.952   1.678  0.3661  0.0690  0.7423
  681MOL0     C91860  -0.490   1.018   1.731  0.5176  0.1070  0.7685
  681MOL0     C91861  -0.499   1.003   1.885 -0.0845 -0.1448 -0.1222
  681MOL0     C91862  -0.517   0.848   1.912  0.7241 -0.3851 -0.0313
  681MOL0     C91863  -0.572   0.823   2.051 -0.2465 -0.4424 -0.1320
  681MOL0     C91864  -0.466   0.844   2.158 -0.5352  0.4185  0.2192
  681MOL0     C91865  -0.394   0.832   2.254  1.0083  0.1463  0.8249
  681MOL0     C91866  -0.146   0.913   1.628  0.3616 -0.7719 -0.0932
  681MOL0     C91867  -0.006   0.949   1.639  0.5040 -0.1517 -0.7092
  681MOL0     H91868   0.410   0.900   1.824  0.6859 -2.0377 -3.4188
  681MOL0     H91869   0.642   0.946   1.879 -0.9170 -1.5182 -1.0814
  681MOL0     H91870   0.858   1.140   1.548  2.2488  0.8193 -1.1416
  681MOL0     H91871   0.857   1.287   1.634  1.6750 -0.5973 -1.2910
  681MOL0     H91872   1.048   1.259   1.724 -1.5234 -0.5623  0.2143
  681MOL0     H91873   1.032   1.078   1.761  2.6580 -1.7605 -1.8582
  681MOL0     H91874   1.114   1.004   1.581 -1.3057  0.6473  1.4456
  681MOL0     H91875   1.066   1.143   1.477 -0.3339 -0.7504  0.8712
  681MOL0     H91876   1.228   1.282   1.573  1.7977  0.5469  0.0489
  681MOL0     H91877   1.301   1.173   1.686  2.2439  0.9955 -1.1272
  681MOL0     H91878   1.400   1.042   1.520  1.8662  1.2413  1.2306
  681MOL0     H91879   1.289   1.078   1.395 -2.3087  1.6294  1.6769
  681MOL0     H91880   1.500   1.181   1.355  0.2431  0.8756 -0.6449
  681MOL0     H91881   1.387   1.316   1.376  0.7097  0.8869  0.1739
  681MOL0     H91882   1.590   1.355   1.479 -1.3328  1.6385  1.0716
  681MOL0     H91883   1.446   1.355   1.596 -0.6989 -1.3267  2.0280
  681MOL0     H91884   1.510   1.127   1.671  1.9998 -1.3492 -0.0646
  681MOL0     H91885   1.612   1.264   1.727  0.1954  0.2883 -0.2775
  681MOL0     H91886   1.601   0.975   1.465  0.0023  0.9244 -1.4694
  681MOL0     H91887   1.821   0.858   1.332 -4.2685 -2.4768 -0.4795
  681MOL0     H91888   1.940   0.804   1.462 -1.4833 -1.0535  0.6449
  681MOL0     H91889   1.834   0.627   1.460 -2.6436 -2.7453  1.1502
  681MOL0     H91890   1.673   0.705   1.434  0.3427 -1.4449 -1.0823
  681MOL0     H91891   1.716   0.780   1.683  1.4153  1.9894 -1.2400
  681MOL0     H91892   1.876   0.703   1.674 -1.1842 -1.3945  2.3062
  681MOL0     H91893   1.707   0.553   1.789 -1.6964 -2.9839  0.4416
  681MOL0     H91894   1.813   0.489   1.678  0.0526  1.1931 -0.6726
  681MOL0     H91895   1.537   0.726   1.776  2.3675  0.4696 -3.2568
  681MOL0     H91896   1.443   0.886   1.864  0.3008  1.2289 -0.2258
  681MOL0     H91897   1.280   0.945   1.795 -1.7213 -1.3892 -0.4789
  681MOL0     H91898   1.292   0.808   1.912 -0.4401  0.8626  0.7503
  681MOL0     H91899   0.929   0.926   1.417  0.6113 -3.3022 -1.8722
  681MOL0     H91900   0.706   0.997   1.387 -0.3696 -0.1245  1.3181
  681MOL0     H91901   0.459   1.023   1.366 -1.0359  0.4975 -0.8950
  681MOL0     H91902   0.502   0.888   1.261 -0.4191 -1.6734  0.8336
  681MOL0     H91903   0.245   0.920   1.401  0.5245  2.0244  0.9850
  681MOL0     H91904   0.262   0.938   1.233 -0.9839  1.9606  0.5277
  681MOL0     H91905   0.296   0.683   1.412  1.4733 -1.4571 -0.2636
  681MOL0     H91906   0.374   0.685   1.247 -0.8335 -2.3892  0.1330
  681MOL0     H91907   0.163   0.560   1.275  2.0501 -1.0310 -1.3292
  681MOL0     H91908   0.077   0.708   1.316  2.1064  1.3654  0.4482
  681MOL0     H91909   0.217   0.614   1.072 -2.0492 -0.8501 -0.2918
  681MOL0     H91910   0.165   0.789   1.090  1.3958 -0.3517 -0.4660
  681MOL0     H91911  -0.075   0.684   1.103 -1.5850 -1.9950 -0.2525
  681MOL0     H91912   0.007   0.713   0.946  0.4112  1.2317  0.6406
  681MOL0     H91913  -0.111   0.525   0.955  0.5957 -2.3944 -1.5728
  681MOL0     H91914  -0.023   0.440   1.080 -2.0813 -1.0718 -1.5012
  681MOL0     H91915   0.093   0.551   0.815 -2.7064  1.7824  0.3722
  681MOL0     H91916   0.018   0.386   0.823  0.7110  1.9335 -3.4358
  681MOL0     H91917   0.559   0.660   1.593 -1.9453 -0.0139 -2.7700
  681MOL0     H91918   0.798   0.580   1.654 -2.1961  0.4722  1.2687
  681MOL0     H91919   1.166   0.569   1.499 -1.5519  1.0686  1.8310
  681MOL0     H91920   1.383   0.453   1.473  1.7547 -1.9042  1.2274
  681MOL0     H91921   0.624   1.252   1.556 -2.9667 -0.7948 -0.7447
  681MOL0     H91922   0.401   1.210   1.527  2.7733 -0.0566 -1.9810
  681MOL0     H91923  -0.049   1.259   1.778  0.9352  0.2216 -1.1687
  681MOL0     H91924  -0.286   1.195   1.766 -0.0801 -1.4121  1.6198
  681MOL0     H91925  -0.496   1.126   1.717  0.6494  0.1602  1.0993
  681MOL0     H91926  -0.582   0.985   1.681 -0.5191  3.1788  0.4439
  681MOL0     H91927  -0.594   1.049   1.913  0.6033  1.8873 -0.9049
  681MOL0     H91928  -0.422   1.050   1.947 -1.8562  0.1086  2.0098
  681MOL0     H91929  -0.421   0.796   1.905  0.7417 -0.4211  0.4263
  681MOL0     H91930  -0.576   0.809   1.829  1.2369 -2.1765  0.3968
  681MOL0     H91931  -0.622   0.726   2.064 -1.3759  0.2803  1.2103
  681MOL0     H91932  -0.649   0.901   2.058  3.3636  3.3002  4.0061
  681MOL0     H91933  -0.336   0.823   2.344  1.8287  0.3972  0.3315
  681MOL0     H91934  -0.177   0.824   1.574  0.4140  0.6058 -2.5174
  681MOL0     H91935   0.074   0.891   1.594  1.3967  0.9796 -0.6490
  682MOL0     O91936   2.545   6.676  10.892 -0.0595 -0.0559  0.2504
  682MOL0     C91937   2.661   6.635  10.887  0.4832  0.4491  0.3363
  682MOL0     O91938   2.742   6.640  10.783 -0.1156 -0.5501  0.5792
  682MOL0     C91939   2.719   6.720  10.678  0.2249  0.3475  0.1684
  682MOL0     C91940   2.638   6.842  10.680 -0.3489  0.2271  0.3460
  682MOL0     C91941   2.625   6.927  10.563 -0.7686  0.2218 -0.7144
  682MOL0     C91942   2.694   6.888  10.451 -0.6111 -0.2781  0.0654
  682MOL0     O91943   2.704   6.967  10.335  0.4602 -0.8273 -0.3797
  682MOL0     C91944   2.666   7.102  10.327 -0.2456  0.0559 -0.4342
  682MOL0     C91945   2.586   7.105  10.187 -0.2363 -0.1908 -0.1863
  682MOL0     C91946   2.522   7.244  10.163  0.0114  0.1999  0.0222
  682MOL0     C91947   2.619   7.348  10.128 -0.4661  0.0344 -0.2892
  682MOL0     C91948   2.553   7.488  10.119 -0.1105  0.9755 -0.1150
  682MOL0     C91949   2.655   7.603  10.089 -0.2032  0.7093 -0.8352
  682MOL0     C91950   2.574   7.734  10.059 -0.6573  0.4324 -0.1758
  682MOL0     C91951   2.665   7.854  10.033 -0.6987  0.5941 -0.3491
  682MOL0     N91952   2.590   7.980  10.066  0.1575 -0.0325 -0.4306
  682MOL0     C91953   2.571   8.027  10.200  0.4529  1.7074  0.8833
  682MOL0     C91954   2.485   8.132  10.175 -0.8230 -0.3114 -0.1238
  682MOL0     C91955   2.430   8.218  10.281  0.3139  0.0532 -0.7394
  682MOL0     C91956   2.528   8.314  10.342 -0.3483  0.5656  0.2475
  682MOL0     C91957   2.605   8.401  10.246  0.4310  0.2226 -0.2012
  682MOL0     C91958   2.719   8.482  10.315  0.8124 -0.0444 -0.2351
  682MOL0     O91959   2.764   8.588  10.231 -0.0706  0.3331  0.0956
  682MOL0     C91960   2.839   8.687  10.281  0.7982  0.4815  0.5977
  682MOL0     C91961   2.887   8.691  10.413  0.1868 -0.2820 -0.1944
  682MOL0     C91962   2.967   8.797  10.457  0.2661 -0.2551 -0.0121
  682MOL0     C91963   3.015   8.806  10.596  0.3071 -0.3637 -0.4109
  682MOL0     C91964   2.998   8.908  10.370 -0.6213 -0.0748 -0.9834
  682MOL0     C91965   3.081   9.027  10.404  0.0675 -0.8626  0.3885
  682MOL0     O91966   3.112   9.104  10.300 -0.1911 -0.5689  0.9267
  682MOL0     C91967   3.165   9.229  10.316 -0.3383  0.6139 -0.0112
  682MOL0     C91968   3.302   9.276  10.313 -0.9804 -0.1592 -0.1007
  682MOL0     C91969   3.333   9.412  10.329  0.0096  0.6151 -0.1115
  682MOL0     C91970   3.235   9.498  10.377  0.3605 -0.2269 -0.4162
  682MOL0     O91971   3.271   9.633  10.395 -0.3481 -0.1641  0.4782
  682MOL0     C91972   3.164   9.722  10.434  0.8492  0.5707  0.1075
  682MOL0     C91973   3.214   9.856  10.469 -0.7263  0.2299 -0.5762
  682MOL0     C91974   3.100   9.944  10.524 -0.2681  0.1724  0.0860
  682MOL0     C91975   3.149  10.088  10.535 -1.6121  0.0515  0.6809
  682MOL0     C91976   3.041  10.185  10.585 -0.0486 -0.1116  0.1183
  682MOL0     C91977   3.074  10.334  10.551 -0.7755 -0.1388  0.7144
  682MOL0     C91978   2.966  10.424  10.597  0.5959  0.1429  0.3658
  682MOL0     C91979   3.030  10.562  10.623  0.1061  0.2404  0.4569
  682MOL0    Cl91980   2.937  10.688  10.689  0.4165 -0.3188 -0.0230
  682MOL0     C91981   3.105   9.454  10.394  0.6659  0.6440  0.0802
  682MOL0     C91982   3.074   9.322  10.358  1.2233 -0.2214 -0.0461
  682MOL0     O91983   3.121   9.052  10.514 -0.9913 -0.9359  0.1125
  682MOL0     C91984   2.940   8.906  10.242  0.6676  0.0828  0.3061
  682MOL0     C91985   2.864   8.797  10.199 -0.1471  0.6074  0.5227
  682MOL0     N91986   2.451   8.137  10.038 -0.7079  0.3140  0.5095
  682MOL0     N91987   2.513   8.051   9.977  0.5056 -0.2576  0.5804
  682MOL0     C91988   2.753   6.759  10.446 -0.1719 -0.1666 -0.4299
  682MOL0     C91989   2.760   6.673  10.555 -0.6800  0.2849 -0.2035
  682MOL0     C91990   2.705   6.560  11.004  0.0168 -0.3899 -0.5833
  682MOL0     C91991   2.619   6.528  11.111 -1.2173 -0.9957  0.2682
  682MOL0     C91992   2.672   6.455  11.220  0.8459 -0.0058 -0.2576
  682MOL0     C91993   2.804   6.400  11.229  0.9925 -0.9837 -0.3057
  682MOL0     O91994   2.839   6.314  11.333 -0.0060 -0.0863 -0.1823
  682MOL0     C91995   2.967   6.253  11.333 -0.1137  0.0548  0.3878
  682MOL0     C91996   2.985   6.166  11.452  0.6998 -0.4265  0.7493
  682MOL0     C91997   3.062   6.231  11.571 -0.5529 -0.5447  0.3263
  682MOL0     C91998   3.107   6.135  11.680  0.4316  0.0481 -0.5330
  682MOL0     C91999   3.211   6.039  11.635 -0.4291 -0.0569  0.1650
  682MOL0     C92000   3.290   5.952  11.601  0.6880  0.6736 -0.0585
  682MOL0     C92001   2.889   6.451  11.123  1.0771  0.2558  0.0026
  682MOL0     C92002   2.836   6.519  11.011  0.6762 -0.1542  1.2585
  682MOL0     H92003   2.590   6.880  10.769  0.1731  0.5921  0.4772
  682MOL0     H92004   2.564   7.016  10.579 -3.1735 -1.5426  0.6751
  682MOL0     H92005   2.611   7.143  10.411  0.4016  1.5231 -0.6878
  682MOL0     H92006   2.747   7.174  10.308 -0.2017 -0.3892 -2.1841
  682MOL0     H92007   2.658   7.080  10.109 -1.3547 -1.2639 -0.9030
  682MOL0     H92008   2.511   7.026  10.190  1.6427 -2.0488  1.3010
  682MOL0     H92009   2.447   7.248  10.083  0.4263 -1.2191 -0.4704
  682MOL0     H92010   2.455   7.262  10.247  0.3622  1.5076  0.0524
  682MOL0     H92011   2.688   7.355  10.213  0.2885  1.3564 -0.9910
  682MOL0     H92012   2.680   7.333  10.038  0.7277  1.5060  0.2230
  682MOL0     H92013   2.487   7.483  10.032 -2.3668 -0.0087  1.5477
  682MOL0     H92014   2.497   7.500  10.212  0.9022 -2.0874  1.0215
  682MOL0     H92015   2.704   7.623  10.184 -1.5556 -2.7528  0.7642
  682MOL0     H92016   2.729   7.573  10.015 -0.0982 -3.3875  0.6666
  682MOL0     H92017   2.512   7.715   9.970 -0.4257  0.2648 -0.3055
  682MOL0     H92018   2.514   7.766  10.144  0.2594  2.4143 -0.2151
  682MOL0     H92019   2.716   7.859   9.936  0.4044 -0.1411  0.1612
  682MOL0     H92020   2.745   7.843  10.108 -0.2846  0.7693 -0.7580
  682MOL0     H92021   2.620   7.986  10.287 -2.0707 -1.7995  0.8896
  682MOL0     H92022   2.350   8.264  10.222  0.5816  0.2069 -0.9877
  682MOL0     H92023   2.390   8.156  10.362  1.9218  1.5945  1.3209
  682MOL0     H92024   2.595   8.269  10.416  0.1865 -0.0184 -0.5680
  682MOL0     H92025   2.453   8.380  10.386 -2.0588 -0.1695 -1.4112
  682MOL0     H92026   2.527   8.472  10.219 -1.2039 -1.6251 -0.6191
  682MOL0     H92027   2.649   8.338  10.168 -0.5366 -1.6461  0.6850
  682MOL0     H92028   2.801   8.418  10.348  0.3339 -1.2424 -1.2819
  682MOL0     H92029   2.681   8.524  10.408  3.1191 -0.1794  0.8229
  682MOL0     H92030   2.862   8.609  10.479 -0.4207  0.4111  0.4426
  682MOL0     H92031   2.990   8.725  10.665 -1.6136  0.7551  0.3006
  682MOL0     H92032   3.124   8.813  10.602  0.1480  1.5828  2.7123
  682MOL0     H92033   2.977   8.894  10.649  1.4965 -0.1562  0.1312
  682MOL0     H92034   3.384   9.209  10.287  0.5110  0.8980  1.5564
  682MOL0     H92035   3.429   9.454  10.304 -0.7259  1.5765 -1.4358
  682MOL0     H92036   3.097   9.727  10.348  0.6204  0.1172  0.2568
  682MOL0     H92037   3.112   9.687  10.523  1.2760  1.2698  0.6426
  682MOL0     H92038   3.296   9.866  10.541 -0.3099  3.5515 -1.3290
  682MOL0     H92039   3.259   9.905  10.382 -0.7514 -1.3502 -1.5180
  682MOL0     H92040   3.067   9.905  10.620  0.3580  1.3180  0.7861
  682MOL0     H92041   3.009   9.946  10.464 -0.0155  0.0047 -0.3118
  682MOL0     H92042   3.231  10.087  10.607 -0.5780 -0.0162 -0.4652
  682MOL0     H92043   3.178  10.121  10.435 -0.9171 -1.0522  0.4949
  682MOL0     H92044   3.016  10.177  10.692  1.5669 -1.3774  0.4399
  682MOL0     H92045   2.952  10.159  10.528  1.9128  0.6752 -3.6177
  682MOL0     H92046   3.167  10.372  10.595  0.4547 -0.1966 -1.6468
  682MOL0     H92047   3.103  10.348  10.447  0.7821  0.0392  1.1463
  682MOL0     H92048   2.929  10.393  10.695 -1.6941 -2.1167 -1.0895
  682MOL0     H92049   2.880  10.426  10.529  0.3897 -1.8688  0.4920
  682MOL0     H92050   3.065  10.593  10.524 -1.2642 -1.5708 -0.6709
  682MOL0     H92051   3.118  10.557  10.688 -0.2995 -2.6783  0.9422
  682MOL0     H92052   3.014   9.505  10.423  1.9757  1.2198  3.8359
  682MOL0     H92053   2.970   9.295  10.373  0.5551  1.3756 -1.4391
  682MOL0     H92054   2.944   8.997  10.183  0.7351 -1.8480 -2.9193
  682MOL0     H92055   2.806   8.786  10.108 -0.0517  4.0264 -0.0827
  682MOL0     H92056   2.785   6.724  10.348 -0.7754 -0.3013 -0.5851
  682MOL0     H92057   2.804   6.576  10.538 -2.3242 -0.7175  0.9743
  682MOL0     H92058   2.515   6.557  11.101 -0.4806  1.7932 -0.1444
  682MOL0     H92059   2.609   6.426  11.304  1.5188 -1.2641 -0.1690
  682MOL0     H92060   2.973   6.195  11.241 -0.7780  0.9569 -0.2410
  682MOL0     H92061   3.048   6.325  11.347  0.3175 -0.5288  0.9550
  682MOL0     H92062   3.031   6.070  11.429  0.3038 -0.3655 -0.3213
  682MOL0     H92063   2.891   6.138  11.500  0.5573  1.1787  1.4905
  682MOL0     H92064   2.998   6.303  11.622  2.0072  1.0932  1.3962
  682MOL0     H92065   3.147   6.293  11.542 -1.4338  1.2710  1.4696
  682MOL0     H92066   3.016   6.085  11.714 -1.5176  1.8245 -2.8000
  682MOL0     H92067   3.150   6.183  11.769 -1.8465 -3.8984  3.0863
  682MOL0     H92068   3.341   5.864  11.570  3.3002  1.8956  0.5034
  682MOL0     H92069   2.995   6.428  11.121  1.3365  1.3752 -1.8618
  682MOL0     H92070   2.897   6.545  10.925  0.5357  2.8659  1.9482
  683MOL0     O92071   4.692   0.278   1.814  0.9648 -0.5562 -0.3640
  683MOL0     C92072   4.798   0.273   1.766 -0.8030 -1.3360 -0.4306
  683MOL0     O92073   4.832   0.315   1.638 -0.1247  0.8567  0.3489
  683MOL0     C92074   4.741   0.286   1.531 -0.7055  0.0674 -0.5413
  683MOL0     C92075   4.763   0.361   1.413 -0.2485  0.6493 -0.5107
  683MOL0     C92076   4.703   0.316   1.294 -0.4523  0.9001 -0.4250
  683MOL0     C92077   4.632   0.201   1.291  0.1746  0.4668  0.4726
  683MOL0     O92078   4.575   0.171   1.174 -0.0583  0.4749 -0.0933
  683MOL0     C92079   4.605   0.040   1.119  0.5676  0.6745 -0.1430
  683MOL0     C92080   4.493  -0.016   1.027  0.5756 -0.4361  0.0332
  683MOL0     C92081   4.357  -0.046   1.106  1.0703  0.9016  0.3996
  683MOL0     C92082   4.250  -0.095   0.996  0.1174  0.7076  0.1989
  683MOL0     C92083   4.124  -0.161   1.053 -0.2836  0.0313 -0.3055
  683MOL0     C92084   4.003  -0.180   0.963 -0.6255 -1.1219 -0.7627
  683MOL0     C92085   3.903  -0.056   0.977 -0.8169  0.5701 -0.0429
  683MOL0     C92086   3.936   0.057   0.881 -0.4875 -0.3313 -0.0601
  683MOL0     N92087   3.820   0.155   0.872 -1.0901  0.8392  0.0378
  683MOL0     C92088   3.698   0.135   0.809  0.1213 -0.7085 -0.7398
  683MOL0     C92089   3.627   0.248   0.848 -0.8258 -0.3464  0.5086
  683MOL0     C92090   3.486   0.283   0.827 -0.3377  0.0469 -0.4696
  683MOL0     C92091   3.465   0.372   0.704 -0.0638  1.1014  0.2104
  683MOL0     C92092   3.454   0.514   0.751  0.8261 -0.4941  0.2431
  683MOL0     C92093   3.425   0.604   0.630  0.0738 -0.3442  0.4932
  683MOL0     O92094   3.302   0.580   0.555 -0.7568 -1.3343 -0.3047
  683MOL0     C92095   3.186   0.639   0.599  0.8426 -0.4727 -0.9040
  683MOL0     C92096   3.178   0.738   0.694 -0.3542  0.6553  0.0959
  683MOL0     C92097   3.060   0.806   0.727 -0.2126 -0.3473 -0.1242
  683MOL0     C92098   3.067   0.927   0.813 -0.5512 -0.1854  0.5834
  683MOL0     C92099   2.942   0.760   0.663 -0.4004 -1.2273  0.3167
  683MOL0     C92100   2.805   0.821   0.678  0.3983  0.8592  0.8081
  683MOL0     O92101   2.701   0.731   0.703 -0.5447 -0.1052 -0.0866
  683MOL0     C92102   2.572   0.785   0.700 -0.8957  0.1168  1.0257
  683MOL0     C92103   2.522   0.792   0.571 -0.0172 -0.9084  0.4918
  683MOL0     C92104   2.392   0.848   0.544 -0.3123  0.1827 -0.4270
  683MOL0     C92105   2.314   0.887   0.660 -0.1915  0.6041 -0.2512
  683MOL0     O92106   2.190   0.942   0.659 -0.3426 -0.3272  0.1805
  683MOL0     C92107   2.101   0.901   0.556 -0.1193 -0.8925  0.0210
  683MOL0     C92108   2.037   1.025   0.501  0.3489 -0.7417 -0.2539
  683MOL0     C92109   1.905   0.996   0.436  0.3430 -0.0923  1.0010
  683MOL0     C92110   1.776   0.993   0.521 -0.1299 -0.4537  0.0748
  683MOL0     C92111   1.663   0.931   0.445  0.8399  0.1663  0.6003
  683MOL0     C92112   1.600   1.029   0.338  0.2426 -0.0791 -0.4650
  683MOL0     C92113   1.462   0.986   0.277 -0.6203  0.4472 -0.7320
  683MOL0     C92114   1.341   0.977   0.382 -0.3596 -0.3599  0.1422
  683MOL0    Cl92115   1.341   0.822   0.462  0.0755 -0.2178 -0.3183
  683MOL0     C92116   2.370   0.866   0.790 -0.6495  0.1247 -0.3667
  683MOL0     C92117   2.499   0.829   0.807 -0.2320 -0.5149  0.1434
  683MOL0     O92118   2.804   0.944   0.686 -0.1612 -0.5015  0.2255
  683MOL0     C92119   2.944   0.648   0.573  1.0096 -1.4280 -0.0126
  683MOL0     C92120   3.065   0.592   0.547 -0.5997  0.0343 -0.2170
  683MOL0     N92121   3.704   0.328   0.922 -0.0885  0.6130 -0.4371
  683MOL0     N92122   3.817   0.271   0.941 -0.7145 -1.9135 -0.8077
  683MOL0     C92123   4.608   0.123   1.406  0.3933 -0.0770  0.2386
  683MOL0     C92124   4.658   0.167   1.531  0.3625  0.6396 -0.2988
  683MOL0     C92125   4.916   0.251   1.863 -0.1221  0.2418  0.8005
  683MOL0     C92126   5.049   0.276   1.825 -0.6408  0.0638  0.3730
  683MOL0     C92127   5.163   0.259   1.902  0.2633 -0.6558  0.4599
  683MOL0     C92128   5.139   0.214   2.031  0.3157 -1.1767 -0.5321
  683MOL0     O92129   5.227   0.172   2.122  0.6451 -0.3907  0.2218
  683MOL0     C92130   5.360   0.164   2.083 -0.5279  0.0640 -0.2137
  683MOL0     C92131   5.424   0.073   2.194  0.4651 -0.5507 -0.2050
  683MOL0     C92132   5.426   0.137   2.333 -0.1348 -0.2743 -0.2491
  683MOL0     C92133   5.517   0.080   2.435  0.5173 -0.5835  0.1440
  683MOL0     C92134   5.495   0.126   2.568  0.3361 -0.6725  0.1113
  683MOL0     C92135   5.489   0.164   2.685 -0.7078  0.8818 -0.0849
  683MOL0     C92136   5.002   0.196   2.074  0.1450  0.8688 -0.2563
  683MOL0     C92137   4.895   0.209   1.986 -0.6934 -0.0896 -0.6905
  683MOL0     H92138   4.816   0.456   1.405  0.3596  0.5718  1.9729
  683MOL0     H92139   4.695   0.375   1.203 -0.6105 -0.3024 -1.2198
  683MOL0     H92140   4.690   0.053   1.052  0.8515 -1.2290 -0.1836
  683MOL0     H92141   4.626  -0.045   1.184  1.5378 -0.6077 -2.0439
  683MOL0     H92142   4.471   0.044   0.938  0.2837  1.2009  1.1467
  683MOL0     H92143   4.534  -0.107   0.984  1.6112 -0.2002  0.4896
  683MOL0     H92144   4.376  -0.118   1.186  3.8021 -0.5069 -1.3558
  683MOL0     H92145   4.318   0.049   1.142  1.9053  1.4035  0.0076
  683MOL0     H92146   4.215  -0.010   0.936 -2.8461 -0.8700 -0.4927
  683MOL0     H92147   4.306  -0.174   0.944  2.5546  2.4231 -0.0101
  683MOL0     H92148   4.156  -0.253   1.103 -0.2517 -0.0748 -0.5222
  683MOL0     H92149   4.096  -0.098   1.139  1.6489  0.0403  0.3579
  683MOL0     H92150   4.036  -0.204   0.862 -2.1800  0.6926 -1.7706
  683MOL0     H92151   3.957  -0.272   1.002  0.7793 -0.5412  2.5631
  683MOL0     H92152   3.807  -0.100   0.948 -0.6712  0.5634 -0.5190
  683MOL0     H92153   3.891  -0.013   1.077 -1.5931 -0.2183  0.2202
  683MOL0     H92154   3.941   0.031   0.775  0.4080  2.4995 -0.7927
  683MOL0     H92155   4.026   0.108   0.917 -0.6932  0.3538 -0.4940
  683MOL0     H92156   3.662   0.048   0.754 -1.8833 -0.4442  0.0688
  683MOL0     H92157   3.436   0.187   0.815  1.5633 -1.1033  0.3840
  683MOL0     H92158   3.446   0.333   0.916  4.4722 -1.3026  2.8265
  683MOL0     H92159   3.368   0.353   0.657 -0.7803  0.7468  1.7684
  683MOL0     H92160   3.539   0.344   0.629 -1.3517  0.7268 -0.9752
  683MOL0     H92161   3.545   0.536   0.807 -0.3111 -0.7658  2.2924
  683MOL0     H92162   3.369   0.524   0.819  0.3422 -0.8820 -0.2899
  683MOL0     H92163   3.514   0.589   0.567  2.4068  2.2603  2.8655
  683MOL0     H92164   3.428   0.710   0.658 -1.1101 -0.4368  1.0140
  683MOL0     H92165   3.267   0.768   0.748  1.0730 -1.7212 -0.7655
  683MOL0     H92166   3.040   1.021   0.765 -0.7931 -2.2803 -3.8550
  683MOL0     H92167   3.005   0.909   0.902 -0.9576  2.1202  0.8155
  683MOL0     H92168   3.163   0.949   0.860 -0.9473  0.6140  1.0541
  683MOL0     H92169   2.583   0.765   0.485  0.4750 -0.5659  0.7269
  683MOL0     H92170   2.372   0.873   0.440  3.4893 -0.1639 -1.4153
  683MOL0     H92171   2.149   0.845   0.474  1.3956  1.6831 -0.9769
  683MOL0     H92172   2.025   0.841   0.606 -2.3343  1.7229 -0.0029
  683MOL0     H92173   2.026   1.087   0.590  5.2338  0.2682 -0.0711
  683MOL0     H92174   2.114   1.066   0.436  0.6509 -2.3826 -0.9869
  683MOL0     H92175   1.913   0.906   0.373  2.4504  0.5458  0.2800
  683MOL0     H92176   1.893   1.079   0.366 -0.7199 -2.0067 -1.2383
  683MOL0     H92177   1.805   0.926   0.602  0.2486 -0.9548 -0.4622
  683MOL0     H92178   1.761   1.092   0.564 -0.3607 -0.0280 -0.9489
  683MOL0     H92179   1.587   0.908   0.521 -0.2445  0.5878 -0.3228
  683MOL0     H92180   1.693   0.856   0.372  0.8460  1.5721 -0.9064
  683MOL0     H92181   1.587   1.132   0.374  0.9430 -0.5734  1.3124
  683MOL0     H92182   1.671   1.031   0.255 -0.3781  2.2256 -1.0026
  683MOL0     H92183   1.462   0.883   0.240  0.4422  0.9848 -2.3202
  683MOL0     H92184   1.435   1.046   0.189 -0.1812  2.4522  0.4472
  683MOL0     H92185   1.253   0.976   0.317  0.5217  0.7366 -1.1200
  683MOL0     H92186   1.331   1.057   0.457 -2.7546 -1.1082  0.7159
  683MOL0     H92187   2.301   0.901   0.866 -0.2490 -0.2928  0.1891
  683MOL0     H92188   2.539   0.819   0.907  0.9777  1.4339 -0.0920
  683MOL0     H92189   2.847   0.612   0.543 -0.2583  0.4146  1.6151
  683MOL0     H92190   3.064   0.509   0.476  1.1927  1.1889 -1.6937
  683MOL0     H92191   4.544   0.035   1.415 -1.1991  0.9656 -0.4602
  683MOL0     H92192   4.610   0.113   1.612  0.9301 -0.5214 -0.7162
  683MOL0     H92193   5.074   0.310   1.725 -0.5581 -0.9071  0.0486
  683MOL0     H92194   5.265   0.265   1.867  0.1842  0.9981  0.4363
  683MOL0     H92195   5.358   0.106   1.989  0.4754  4.8388 -3.5474
  683MOL0     H92196   5.409   0.261   2.071  1.2858 -0.8792 -0.8700
  683MOL0     H92197   5.525   0.055   2.156  0.5243 -0.7737  0.0558
  683MOL0     H92198   5.379  -0.027   2.198 -1.6322  0.3655  0.7776
  683MOL0     H92199   5.326   0.151   2.374 -0.9507  0.6955 -2.4081
  683MOL0     H92200   5.466   0.237   2.315  0.1002 -0.4116 -0.5110
  683MOL0     H92201   5.624   0.089   2.413  0.4233  0.5908  0.1327
  683MOL0     H92202   5.498  -0.028   2.436 -0.9463 -0.4089 -2.1230
  683MOL0     H92203   5.476   0.162   2.791 -1.6573 -1.7512 -0.1878
  683MOL0     H92204   4.972   0.154   2.169  2.2021 -0.4288 -0.1114
  683MOL0     H92205   4.800   0.170   2.020  0.3417 -1.0788  1.2868
  684MOL0     O92206   4.763   2.931   5.039  0.1276  0.2053  0.6761
  684MOL0     C92207   4.670   2.856   5.041  0.4627 -0.2930 -0.2995
  684MOL0     O92208   4.551   2.884   5.118 -0.0006  0.6553  1.3065
  684MOL0     C92209   4.554   2.986   5.205  0.7498 -0.4965  0.0806
  684MOL0     C92210   4.627   2.979   5.322 -0.4795  0.6773  0.5504
  684MOL0     C92211   4.618   3.088   5.405  0.7317 -0.1795 -0.2385
  684MOL0     C92212   4.537   3.205   5.378  0.5865 -0.2970 -1.0193
  684MOL0     O92213   4.537   3.321   5.462 -0.0063 -1.1202 -0.1725
  684MOL0     C92214   4.536   3.298   5.604 -0.7479 -0.6333  0.5287
  684MOL0     C92215   4.476   3.419   5.675 -0.1077 -0.1881 -0.6290
  684MOL0     C92216   4.485   3.392   5.829 -0.2612  0.0572 -0.2728
  684MOL0     C92217   4.401   3.499   5.907  0.1359 -0.4979  0.3852
  684MOL0     C92218   4.419   3.506   6.051  0.3606  0.9249  0.3877
  684MOL0     C92219   4.386   3.370   6.122 -0.3904 -0.3731  0.1888
  684MOL0     C92220   4.241   3.327   6.118  0.7654 -0.4697  0.2201
  684MOL0     C92221   4.212   3.241   6.236  0.3515 -0.5418 -0.2202
  684MOL0     N92222   4.291   3.111   6.231 -0.7817 -0.8897 -0.7845
  684MOL0     C92223   4.273   2.995   6.164 -0.3992  0.2406  0.1264
  684MOL0     C92224   4.388   2.921   6.200  0.5633 -0.2786  0.0196
  684MOL0     C92225   4.413   2.777   6.160 -0.7076  0.4050  0.1126
  684MOL0     C92226   4.422   2.758   6.004  0.1962  0.5978  0.0700
  684MOL0     C92227   4.542   2.833   5.927 -0.4606  0.0283 -0.2529
  684MOL0     C92228   4.546   2.796   5.779 -0.2569  0.7010  0.1178
  684MOL0     O92229   4.433   2.864   5.714  0.4115  0.1284  0.2019
  684MOL0     C92230   4.388   2.823   5.587 -0.3780 -0.9985  0.0457
  684MOL0     C92231   4.273   2.886   5.526 -0.2768  0.2320 -0.5228
  684MOL0     C92232   4.228   2.859   5.400  0.9980 -0.4340 -0.2675
  684MOL0     C92233   4.112   2.938   5.347  0.0629  0.5986  0.2150
  684MOL0     C92234   4.295   2.762   5.322 -0.5307 -0.0589  0.2942
  684MOL0     C92235   4.247   2.712   5.189 -0.3262  0.4034 -0.2355
  684MOL0     O92236   4.159   2.771   5.104  0.0188 -0.8602 -0.0282
  684MOL0     C92237   4.089   2.699   5.015 -0.3165 -0.5257 -0.1479
  684MOL0     C92238   4.159   2.683   4.887 -0.0641  0.7734 -0.4672
  684MOL0     C92239   4.097   2.612   4.789 -0.4963  0.8243  0.1379
  684MOL0     C92240   3.970   2.555   4.815  0.2158  0.0203  0.6282
  684MOL0     O92241   3.909   2.494   4.711 -0.4656  0.5656  1.1936
  684MOL0     C92242   3.762   2.477   4.719 -0.3432  0.2075  1.1301
  684MOL0     C92243   3.712   2.385   4.604  0.2317 -0.4274  0.4598
  684MOL0     C92244   3.744   2.243   4.649 -0.4667  1.1228  0.3649
  684MOL0     C92245   3.810   2.177   4.530  0.7781 -1.3442 -0.3911
  684MOL0     C92246   3.837   2.032   4.545 -0.2680  0.3615  0.1903
  684MOL0     C92247   3.719   1.933   4.570 -0.2271 -0.3822 -0.7450
  684MOL0     C92248   3.638   1.912   4.439  0.9741  1.1324 -0.3792
  684MOL0     C92249   3.707   1.901   4.307 -0.4203 -0.1465 -0.5455
  684MOL0    Cl92250   3.828   1.779   4.315  0.5681  0.1244  0.2427
  684MOL0     C92251   3.910   2.560   4.944  0.0494  0.9183 -0.3554
  684MOL0     C92252   3.974   2.640   5.036  0.7013  0.4649 -0.2413
  684MOL0     O92253   4.294   2.600   5.163 -0.1423  0.2037  0.1526
  684MOL0     C92254   4.403   2.696   5.385 -0.3775 -0.3168  0.8094
  684MOL0     C92255   4.454   2.731   5.512  0.2633  0.5095  0.0490
  684MOL0     N92256   4.460   2.992   6.296 -0.4429  0.3328  0.3848
  684MOL0     N92257   4.402   3.105   6.311 -0.0910  0.1870 -0.2690
  684MOL0     C92258   4.468   3.202   5.262 -0.1272  0.2237  0.3279
  684MOL0     C92259   4.474   3.093   5.179  0.2292  0.6506  0.6473
  684MOL0     C92260   4.677   2.740   4.954 -1.1406  0.2528 -0.3845
  684MOL0     C92261   4.571   2.651   4.949 -0.4784 -0.0358 -0.0716
  684MOL0     C92262   4.578   2.534   4.877 -0.0509 -0.8762 -0.1620
  684MOL0     C92263   4.689   2.518   4.793  0.5974  0.3047  0.0480
  684MOL0     O92264   4.694   2.416   4.699 -0.3058 -0.1157 -0.5066
  684MOL0     C92265   4.619   2.292   4.726 -1.1362  0.2203 -0.5060
  684MOL0     C92266   4.679   2.183   4.640  0.0082 -0.0763 -0.5780
  684MOL0     C92267   4.826   2.157   4.673 -0.2814 -0.9315  0.7562
  684MOL0     C92268   4.901   2.045   4.596 -0.0508  0.4880 -0.2555
  684MOL0     C92269   5.045   2.044   4.622  0.6075  0.0408  0.6111
  684MOL0     C92270   5.166   2.043   4.625  0.1257 -0.5363  0.2814
  684MOL0     C92271   4.792   2.613   4.791  0.6683 -0.4995  0.0077
  684MOL0     C92272   4.790   2.728   4.871  0.4130  0.2276 -0.1092
  684MOL0     H92273   4.694   2.897   5.342  0.3143  1.9607  3.7070
  684MOL0     H92274   4.692   3.089   5.485 -1.0438 -0.4001  1.4755
  684MOL0     H92275   4.490   3.204   5.633  0.2638 -1.4571 -0.4487
  684MOL0     H92276   4.641   3.280   5.628  0.0498  3.3235  0.7026
  684MOL0     H92277   4.530   3.508   5.644 -2.3150 -0.2004 -5.5486
  684MOL0     H92278   4.368   3.424   5.659 -0.4226 -1.4913  0.8195
  684MOL0     H92279   4.445   3.295   5.859  3.4687 -1.7736 -0.6193
  684MOL0     H92280   4.590   3.397   5.861 -0.2585  2.2061 -0.4872
  684MOL0     H92281   4.451   3.587   5.866 -2.3996 -0.5602 -3.2872
  684MOL0     H92282   4.295   3.501   5.880 -0.0734 -1.9125  1.0227
  684MOL0     H92283   4.523   3.532   6.069  1.0576 -1.4330  0.1085
  684MOL0     H92284   4.360   3.584   6.102 -0.6993 -0.1502  0.8574
  684MOL0     H92285   4.453   3.291   6.088 -0.6910  0.3942 -2.4598
  684MOL0     H92286   4.413   3.397   6.224  2.6106  0.1738 -0.6362
  684MOL0     H92287   4.183   3.420   6.116  1.2295 -0.1707 -2.1422
  684MOL0     H92288   4.220   3.276   6.023  0.5712  0.1672 -0.0898
  684MOL0     H92289   4.105   3.219   6.235  1.0017 -4.2580 -0.6596
  684MOL0     H92290   4.229   3.300   6.327 -1.8084 -0.2916  0.0744
  684MOL0     H92291   4.193   2.975   6.093 -1.2822  0.2912  1.0947
  684MOL0     H92292   4.493   2.727   6.215 -0.3128 -1.5053 -2.0117
  684MOL0     H92293   4.325   2.724   6.200 -1.0811  1.2464  0.4379
  684MOL0     H92294   4.335   2.799   5.953  0.2216  2.2895  1.2829
  684MOL0     H92295   4.426   2.652   5.979 -0.9711  0.5424  0.0849
  684MOL0     H92296   4.640   2.794   5.956  0.6252 -1.0204 -4.6573
  684MOL0     H92297   4.538   2.942   5.934  1.8168  0.0821  1.4057
  684MOL0     H92298   4.537   2.687   5.777  3.5349  0.2799 -2.0017
  684MOL0     H92299   4.642   2.817   5.732 -0.1503 -2.1077 -1.0685
  684MOL0     H92300   4.233   2.967   5.585 -0.4401 -1.7868  2.3175
  684MOL0     H92301   4.142   3.041   5.323 -0.0928 -0.2099 -4.1689
  684MOL0     H92302   4.059   2.900   5.260 -0.4761 -0.2631  0.9041
  684MOL0     H92303   4.041   2.946   5.430 -0.4609  1.2424 -0.2825
  684MOL0     H92304   4.261   2.714   4.865  2.3816 -4.7873  1.3487
  684MOL0     H92305   4.145   2.604   4.692 -0.5316  1.0402  0.1005
  684MOL0     H92306   3.718   2.437   4.811 -3.1363  1.1156  0.3026
  684MOL0     H92307   3.705   2.570   4.710 -0.0074  0.2747 -0.5977
  684MOL0     H92308   3.606   2.389   4.576 -0.2574  2.4287  2.2811
  684MOL0     H92309   3.766   2.420   4.515  1.4056  2.6875  2.2453
  684MOL0     H92310   3.650   2.189   4.665  0.5376 -1.0554 -0.5296
  684MOL0     H92311   3.806   2.235   4.739 -0.5822  0.6514  0.4089
  684MOL0     H92312   3.739   2.176   4.446 -0.0412 -3.3991  0.2705
  684MOL0     H92313   3.889   2.244   4.497 -0.3683  1.0943  1.5048
  684MOL0     H92314   3.904   2.031   4.632 -0.0648 -1.8757  0.0680
  684MOL0     H92315   3.903   1.995   4.466  0.1863  1.4136  0.0625
  684MOL0     H92316   3.767   1.839   4.600 -1.7533 -1.0037 -0.1458
  684MOL0     H92317   3.662   1.967   4.657  2.4618  0.0543  0.9791
  684MOL0     H92318   3.564   1.991   4.423  1.1139  0.9027 -2.4485
  684MOL0     H92319   3.577   1.823   4.457 -0.3642  1.8255 -1.2859
  684MOL0     H92320   3.756   1.995   4.281  0.1363 -0.0819  0.6538
  684MOL0     H92321   3.639   1.884   4.223  1.4933 -0.9480 -2.0106
  684MOL0     H92322   3.814   2.513   4.963  0.6610 -0.7742 -1.2822
  684MOL0     H92323   3.933   2.652   5.136 -2.1180 -3.7355 -0.6692
  684MOL0     H92324   4.460   2.622   5.329  1.3150  0.8282  0.9574
  684MOL0     H92325   4.547   2.682   5.539  1.1477  0.3689 -2.8896
  684MOL0     H92326   4.396   3.276   5.231  0.2366  1.1013  1.4848
  684MOL0     H92327   4.418   3.091   5.086  1.3397  0.9296 -0.0439
  684MOL0     H92328   4.482   2.673   5.008 -0.7045 -0.1180 -0.3805
  684MOL0     H92329   4.489   2.472   4.888  0.9764 -2.3450  0.0620
  684MOL0     H92330   4.636   2.251   4.826 -1.0155 -0.8808 -0.9656
  684MOL0     H92331   4.511   2.301   4.713 -1.4555 -1.7765  0.4957
  684MOL0     H92332   4.663   2.211   4.535  0.9113  1.8645 -0.2506
  684MOL0     H92333   4.631   2.089   4.668 -0.4087  0.4471  0.4805
  684MOL0     H92334   4.843   2.134   4.778  0.2351 -2.4342  0.3793
  684MOL0     H92335   4.878   2.249   4.647 -0.7432 -0.7667  0.4094
  684MOL0     H92336   4.895   2.073   4.490  0.4316 -0.7821 -0.6449
  684MOL0     H92337   4.861   1.945   4.613  0.8529  0.0997 -0.3839
  684MOL0     H92338   5.273   2.045   4.618  0.1901 -1.7637  0.8190
  684MOL0     H92339   4.881   2.594   4.732  1.8046 -0.9579  1.7885
  684MOL0     H92340   4.884   2.782   4.878  0.9887 -0.6470 -0.7560
  685MOL0     O92341   4.433   8.689  11.288 -0.4686  0.5474 -0.3598
  685MOL0     C92342   4.496   8.588  11.257 -0.3069 -0.0397  0.8786
  685MOL0     O92343   4.585   8.528  11.331  0.5865  0.3956  0.7318
  685MOL0     C92344   4.629   8.576  11.449  0.4123  0.2054  0.6551
  685MOL0     C92345   4.657   8.710  11.475  0.2335 -0.2341 -0.1970
  685MOL0     C92346   4.713   8.746  11.590  0.0950 -0.3722  0.0471
  685MOL0     C92347   4.745   8.656  11.684 -0.8460  0.7254 -0.1754
  685MOL0     O92348   4.796   8.709  11.805  0.7606 -0.1178 -0.0604
  685MOL0     C92349   4.725   8.667  11.923  0.2974  0.8546  0.0197
  685MOL0     C92350   4.686   8.782  12.012  0.4516 -0.9507 -0.1659
  685MOL0     C92351   4.581   8.872  11.942 -0.2737  0.5903  0.5438
  685MOL0     C92352   4.567   9.006  12.016 -0.2636  0.3015  0.8912
  685MOL0     C92353   4.458   9.085  11.954 -0.3430  0.2505  0.1578
  685MOL0     C92354   4.445   9.209  12.037 -0.2178  0.4488 -0.0473
  685MOL0     C92355   4.323   9.292  11.979  1.0128  0.0390  1.2874
  685MOL0     C92356   4.179   9.231  11.993 -0.9542 -1.0121  0.1159
  685MOL0     N92357   4.128   9.193  12.128  0.4021  0.4290  0.1793
  685MOL0     C92358   4.154   9.262  12.239  0.6737 -0.3054  0.3918
  685MOL0     C92359   4.113   9.180  12.337  0.6914 -0.0138  0.0452
  685MOL0     C92360   4.155   9.198  12.476 -0.3700  0.2797  0.3512
  685MOL0     C92361   4.071   9.278  12.577  0.0792  0.2180  0.5050
  685MOL0     C92362   4.109   9.429  12.592 -0.4228 -0.1675 -0.2197
  685MOL0     C92363   4.219   9.457  12.699  0.6851  0.8914  0.1144
  685MOL0     O92364   4.199   9.590  12.733  0.0507  0.6011  0.1009
  685MOL0     C92365   4.304   9.655  12.786 -0.2539 -0.1636  0.2169
  685MOL0     C92366   4.272   9.792  12.805  0.3761 -0.4129 -0.4678
  685MOL0     C92367   4.367   9.871  12.882 -0.6286 -0.1838 -0.5493
  685MOL0     C92368   4.325  10.002  12.938 -1.0924  0.8985 -0.5549
  685MOL0     C92369   4.491   9.811  12.921  0.5697 -0.3684  0.1259
  685MOL0     C92370   4.596   9.881  13.002  0.2991  0.5979 -0.3911
  685MOL0     O92371   4.678   9.964  12.934 -0.2538 -0.1104 -0.1656
  685MOL0     C92372   4.813   9.970  12.971  0.2447 -0.9158 -0.0490
  685MOL0     C92373   4.889   9.858  12.971 -1.0618  0.2680  0.6271
  685MOL0     C92374   5.024   9.877  13.022  0.4036  0.1718 -0.4901
  685MOL0     C92375   5.067  10.007  13.055 -0.2353  0.0427  0.1822
  685MOL0     O92376   5.192  10.003  13.115 -0.3706  0.6171  0.6515
  685MOL0     C92377   5.288  10.103  13.067  0.3864  1.1082  0.2503
  685MOL0     C92378   5.417  10.095  13.154  0.7196 -0.0310  0.2579
  685MOL0     C92379   5.457   9.951  13.162  0.8347 -0.0894  0.8674
  685MOL0     C92380   5.597   9.940  13.194  0.0837 -0.0606 -0.4657
  685MOL0     C92381   5.636   9.794  13.214  0.1308  0.7014 -0.9961
  685MOL0     C92382   5.569   9.736  13.338  0.0792 -0.1375 -0.5436
  685MOL0     C92383   5.628   9.610  13.401  0.2230  0.2675 -0.4280
  685MOL0     C92384   5.572   9.578  13.542 -1.2577  0.8213  0.0074
  685MOL0    Cl92385   5.395   9.579  13.541  0.2295  0.1348 -0.1007
  685MOL0     C92386   4.988  10.117  13.030  0.5385 -1.0003 -1.3882
  685MOL0     C92387   4.854  10.099  12.992 -0.2900 -0.1325 -0.1493
  685MOL0     O92388   4.612   9.852  13.121 -0.0267  1.2283 -0.0988
  685MOL0     C92389   4.522   9.679  12.885 -0.3777 -0.5383  0.6866
  685MOL0     C92390   4.422   9.603  12.825 -0.5829 -0.2821 -0.4600
  685MOL0     N92391   4.070   9.056  12.275 -0.6775 -0.4102  0.0680
  685MOL0     N92392   4.075   9.076  12.153 -1.0215  0.1830  0.3130
  685MOL0     C92393   4.710   8.519  11.666 -0.4364  1.0847  0.3441
  685MOL0     C92394   4.654   8.481  11.542  0.1697  0.1248 -0.4091
  685MOL0     C92395   4.472   8.525  11.127 -0.1700 -1.0460  0.3692
  685MOL0     C92396   4.446   8.611  11.020  0.6901  0.2809 -0.0075
  685MOL0     C92397   4.384   8.560  10.905 -0.1877 -0.3714 -0.7638
  685MOL0     C92398   4.350   8.431  10.888  0.7240 -0.3606 -0.1183
  685MOL0     O92399   4.265   8.396  10.783  0.3108 -0.5836  0.4429
  685MOL0     C92400   4.215   8.261  10.777  0.5300  0.4655  0.2319
  685MOL0     C92401   4.062   8.271  10.761 -0.6456  0.3789 -0.0860
  685MOL0     C92402   3.990   8.304  10.893  0.1974 -0.8387  0.8961
  685MOL0     C92403   3.838   8.327  10.900 -0.0464 -0.1781 -0.1379
  685MOL0     C92404   3.801   8.437  10.818  0.6560 -0.8300  1.2079
  685MOL0     C92405   3.787   8.515  10.727 -0.3419 -0.7528 -0.0758
  685MOL0     C92406   4.405   8.343  10.991 -0.0137  0.2537  0.1309
  685MOL0     C92407   4.462   8.387  11.112 -0.6423 -0.5239  0.3001
  685MOL0     H92408   4.653   8.774  11.387  0.9631  0.4208  0.2352
  685MOL0     H92409   4.737   8.851  11.605  1.2894 -0.9289  2.6663
  685MOL0     H92410   4.632   8.611  11.905 -2.1048  4.3451  0.5869
  685MOL0     H92411   4.799   8.617  11.985  1.2122  2.1814  0.0331
  685MOL0     H92412   4.646   8.744  12.107 -2.5277 -1.1326 -1.3854
  685MOL0     H92413   4.783   8.832  12.021 -0.0306  0.1428 -0.8226
  685MOL0     H92414   4.613   8.895  11.840  2.1469 -1.3069  0.8048
  685MOL0     H92415   4.482   8.825  11.937  0.7543 -1.5982 -1.3171
  685MOL0     H92416   4.543   8.992  12.121 -1.7809  3.3180  1.0605
  685MOL0     H92417   4.659   9.065  12.010 -1.4907  2.1868 -1.0315
  685MOL0     H92418   4.472   9.113  11.850 -0.4673 -0.9799 -0.2008
  685MOL0     H92419   4.370   9.020  11.961  0.4843 -0.8434  0.5717
  685MOL0     H92420   4.429   9.167  12.137  0.2467 -0.8343 -0.4927
  685MOL0     H92421   4.538   9.266  12.025  1.1854 -2.0385 -2.0202
  685MOL0     H92422   4.325   9.390  12.028  0.2198  0.2785  0.8612
  685MOL0     H92423   4.338   9.312  11.873 -1.7075 -0.3540  0.7532
  685MOL0     H92424   4.164   9.159  11.912  2.4331  0.1539 -1.7382
  685MOL0     H92425   4.109   9.307  11.957 -2.2649 -2.9938 -1.8049
  685MOL0     H92426   4.198   9.361  12.240  0.7702 -0.3262 -0.4843
  685MOL0     H92427   4.162   9.094  12.508  2.9579  0.4477  0.4777
  685MOL0     H92428   4.255   9.243  12.471 -0.2504 -0.1012 -1.0108
  685MOL0     H92429   4.077   9.226  12.673  0.2055 -1.6839 -0.5015
  685MOL0     H92430   3.963   9.269  12.563  0.0425  0.7342  0.4443
  685MOL0     H92431   4.020   9.487  12.620 -0.2054  1.6574 -2.9632
  685MOL0     H92432   4.149   9.478  12.504  2.0285 -0.8572  0.4329
  685MOL0     H92433   4.309   9.420  12.650 -0.1521 -1.5621  0.2828
  685MOL0     H92434   4.210   9.405  12.796  3.5114 -1.4792 -0.7695
  685MOL0     H92435   4.181   9.848  12.784  0.5180  1.1380  2.5016
  685MOL0     H92436   4.382  10.067  12.871  0.8078 -0.2488 -0.1327
  685MOL0     H92437   4.216  10.016  12.933 -1.3662 -0.9034 -0.2449
  685MOL0     H92438   4.351  10.017  13.043  0.2351  1.1406 -0.9051
  685MOL0     H92439   4.849   9.760  12.944 -1.5276  1.3128 -3.0886
  685MOL0     H92440   5.086   9.789  13.030 -0.5631 -0.4614  0.3746
  685MOL0     H92441   5.307  10.085  12.960  1.1389 -1.9105  0.8090
  685MOL0     H92442   5.244  10.203  13.078 -0.0203  0.8645  0.8530
  685MOL0     H92443   5.498  10.155  13.113  2.0111 -0.1555  2.4702
  685MOL0     H92444   5.391  10.131  13.254  1.3872 -0.1833  0.4873
  685MOL0     H92445   5.440   9.897  13.069 -2.4384  3.4293 -0.8393
  685MOL0     H92446   5.387   9.897  13.227 -2.0060  1.1080 -0.9851
  685MOL0     H92447   5.655   9.973  13.107  2.0492 -1.0870  0.3830
  685MOL0     H92448   5.634  10.003  13.275  1.5697  0.3465 -1.4073
  685MOL0     H92449   5.746   9.788  13.216  0.0484 -1.6978  0.8263
  685MOL0     H92450   5.603   9.722  13.139  1.1486  0.2448 -1.0324
  685MOL0     H92451   5.566   9.816  13.413 -0.8977  1.3607 -2.0963
  685MOL0     H92452   5.466   9.711  13.309  0.3294 -0.0228 -1.5745
  685MOL0     H92453   5.737   9.603  13.410 -0.0122 -2.2343  1.7716
  685MOL0     H92454   5.597   9.530  13.333 -1.2281  2.1541 -2.1246
  685MOL0     H92455   5.613   9.660  13.602 -1.1069  0.4568  0.4091
  685MOL0     H92456   5.615   9.480  13.564 -1.5771  0.5590 -0.5110
  685MOL0     H92457   5.030  10.211  13.065 -0.1813 -1.2558  0.2512
  685MOL0     H92458   4.789  10.184  12.974 -1.7682 -0.5185  2.7731
  685MOL0     H92459   4.617   9.638  12.917  0.6509 -0.8046 -2.4418
  685MOL0     H92460   4.460   9.503  12.805  1.1928 -0.0878  1.5967
  685MOL0     H92461   4.728   8.440  11.738 -0.2709  0.8582  0.0585
  685MOL0     H92462   4.629   8.378  11.519 -3.9182  0.9873 -0.5799
  685MOL0     H92463   4.456   8.720  11.021 -4.1205  1.0091 -2.4790
  685MOL0     H92464   4.328   8.623  10.836  0.6026  2.3701  0.9177
  685MOL0     H92465   4.254   8.223  10.682  1.2582  1.0532  0.2859
  685MOL0     H92466   4.232   8.195  10.862 -1.8952 -1.8198 -0.9365
  685MOL0     H92467   4.025   8.177  10.717  2.6051  0.2943 -3.0992
  685MOL0     H92468   4.046   8.340  10.677 -1.1514 -0.4276 -0.6769
  685MOL0     H92469   4.039   8.395  10.930 -1.0864 -1.0235  3.3065
  685MOL0     H92470   4.020   8.235  10.972  2.1936  1.5929  2.4392
  685MOL0     H92471   3.811   8.353  11.003 -1.6566 -1.6203 -0.1504
  685MOL0     H92472   3.789   8.231  10.880  1.3355 -1.0574  0.5244
  685MOL0     H92473   3.770   8.558  10.630 -3.4361 -0.6789  0.4003
  685MOL0     H92474   4.418   8.236  10.976  2.2216  0.4828 -0.0161
  685MOL0     H92475   4.502   8.320  11.187  0.6284 -1.9274 -1.5606
  686MOL0     O92476   3.629   8.060   3.626 -0.0423 -0.6561 -0.0757
  686MOL0     C92477   3.638   8.170   3.567 -0.8929 -0.6417 -0.2572
  686MOL0     O92478   3.707   8.284   3.614 -0.0607  0.1803  0.2279
  686MOL0     C92479   3.773   8.297   3.727 -1.8592  0.1130  0.1310
  686MOL0     C92480   3.859   8.193   3.772 -0.5912 -0.1050  0.5384
  686MOL0     C92481   3.925   8.205   3.891 -0.1893  1.1878  0.1890
  686MOL0     C92482   3.925   8.324   3.961 -0.5639  0.1153  0.6443
  686MOL0     O92483   3.976   8.324   4.080 -0.4888  0.1136 -0.0305
  686MOL0     C92484   3.880   8.291   4.185 -0.1913  0.0105  0.5140
  686MOL0     C92485   3.921   8.165   4.259  0.1761 -0.1848 -0.4632
  686MOL0     C92486   3.821   8.131   4.385  0.5150  0.1290 -1.2595
  686MOL0     C92487   3.866   8.010   4.473  0.7031 -1.3717  0.0715
  686MOL0     C92488   3.777   7.992   4.602 -0.0832  0.4167 -0.1014
  686MOL0     C92489   3.836   7.908   4.711  0.3870 -0.0807 -0.0702
  686MOL0     C92490   3.719   7.857   4.804 -0.6770  0.7465  0.5867
  686MOL0     C92491   3.792   7.820   4.935 -0.2296  0.2410 -0.5343
  686MOL0     N92492   3.704   7.811   5.056 -1.0644  0.5495  0.1865
  686MOL0     C92493   3.568   7.789   5.051  0.6115  0.9185 -0.1031
  686MOL0     C92494   3.537   7.785   5.185  0.6993 -0.2588 -0.0131
  686MOL0     C92495   3.398   7.783   5.241 -0.4995  0.0710  0.8330
  686MOL0     C92496   3.351   7.644   5.284 -0.3487  0.0188 -0.3343
  686MOL0     C92497   3.438   7.585   5.402  0.8997  0.1937  0.1439
  686MOL0     C92498   3.454   7.676   5.523  0.1075 -0.5488  0.1366
  686MOL0     O92499   3.520   7.600   5.621 -0.3966 -0.3110 -0.4250
  686MOL0     C92500   3.658   7.599   5.637 -0.0832 -0.1577 -0.5552
  686MOL0     C92501   3.753   7.649   5.545 -0.6991 -0.4466 -0.7303
  686MOL0     C92502   3.893   7.638   5.565 -0.1946  0.0623 -0.8379
  686MOL0     C92503   3.979   7.705   5.455  0.1717 -0.5132  0.1709
  686MOL0     C92504   3.945   7.571   5.688  0.4518  0.4746  0.1069
  686MOL0     C92505   4.089   7.559   5.721 -1.2784  0.5105  0.7207
  686MOL0     O92506   4.120   7.455   5.814  0.8546  0.4653  0.7770
  686MOL0     C92507   4.240   7.430   5.854  0.4289  0.0740  0.5760
  686MOL0     C92508   4.324   7.534   5.889 -0.8777  0.3886 -0.4928
  686MOL0     C92509   4.456   7.507   5.935  0.3798 -0.6046  0.9508
  686MOL0     C92510   4.508   7.377   5.946  0.5933  0.8251  1.2302
  686MOL0     O92511   4.639   7.355   5.972  0.2584  0.7675  0.2123
  686MOL0     C92512   4.663   7.255   6.078  0.9741 -0.0017 -0.2461
  686MOL0     C92513   4.801   7.276   6.131  0.2758  0.6072 -0.0745
  686MOL0     C92514   4.825   7.435   6.176  0.1602  0.6600  0.0991
  686MOL0     C92515   4.968   7.476   6.137 -0.2918  0.3761 -0.0811
  686MOL0     C92516   5.074   7.389   6.209 -0.5244 -1.0668  0.7483
  686MOL0     C92517   5.089   7.449   6.350 -0.0980 -0.8457 -0.0585
  686MOL0     C92518   5.182   7.363   6.448 -0.3039  0.3059  1.0381
  686MOL0     C92519   5.207   7.421   6.590 -0.3995 -0.6169  0.4071
  686MOL0    Cl92520   5.065   7.494   6.677 -0.0233 -0.0496 -0.1444
  686MOL0     C92521   4.416   7.272   5.909 -0.6389 -0.3444 -0.8592
  686MOL0     C92522   4.279   7.302   5.874  0.1787 -0.2915 -0.2200
  686MOL0     O92523   4.168   7.629   5.656  0.0280 -0.2519 -0.1127
  686MOL0     C92524   3.843   7.542   5.788  0.0002 -0.3917  0.0344
  686MOL0     C92525   3.703   7.545   5.756  0.5555  0.0252 -0.1156
  686MOL0     N92526   3.648   7.803   5.261 -0.7464 -0.4249 -0.4597
  686MOL0     N92527   3.747   7.793   5.183 -0.2168 -0.5322 -0.0533
  686MOL0     C92528   3.845   8.428   3.902 -1.1834 -0.5160 -1.1701
  686MOL0     C92529   3.774   8.419   3.787  0.1397 -0.4412  1.0058
  686MOL0     C92530   3.594   8.166   3.430  0.8047 -0.5678 -0.0691
  686MOL0     C92531   3.580   8.282   3.344 -0.4976  0.6334 -0.0829
  686MOL0     C92532   3.544   8.283   3.208  0.0833  0.2945 -0.0189
  686MOL0     C92533   3.511   8.156   3.142 -1.4644 -0.3674 -0.0100
  686MOL0     O92534   3.454   8.143   3.024 -0.2785  0.3601  0.7364
  686MOL0     C92535   3.526   8.215   2.920  0.6061 -0.6042  0.4564
  686MOL0     C92536   3.450   8.197   2.784 -0.1624  0.8426 -0.6624
  686MOL0     C92537   3.512   8.085   2.696 -0.4781 -0.6729 -0.3533
  686MOL0     C92538   3.444   8.089   2.556 -0.1137  0.2500  0.3587
  686MOL0     C92539   3.502   7.983   2.470  0.2682 -0.0309 -0.4327
  686MOL0     C92540   3.558   7.902   2.393  0.2862  0.8992  0.0708
  686MOL0     C92541   3.522   8.048   3.228 -0.3977  0.2179  0.8134
  686MOL0     C92542   3.556   8.047   3.360 -0.4565  0.1095  0.6438
  686MOL0     H92543   3.856   8.099   3.718  2.3112  0.5437 -1.0334
  686MOL0     H92544   3.977   8.117   3.928 -1.0056  0.7230  0.2485
  686MOL0     H92545   3.891   8.368   4.263  1.0738  2.9390 -2.3029
  686MOL0     H92546   3.775   8.295   4.158 -0.2505 -2.7218  0.0665
  686MOL0     H92547   3.920   8.076   4.195  0.8956 -2.1305  2.0298
  686MOL0     H92548   4.019   8.175   4.305  0.4418  1.5513 -1.3466
  686MOL0     H92549   3.817   8.222   4.445 -0.0907 -2.0589  2.2928
  686MOL0     H92550   3.716   8.108   4.361  0.1730 -0.4649  0.6112
  686MOL0     H92551   3.851   7.917   4.418 -1.6890 -0.1748 -1.4892
  686MOL0     H92552   3.970   8.029   4.501  0.1471  0.8648  0.8778
  686MOL0     H92553   3.754   8.092   4.638  0.8705  1.3569 -1.9875
  686MOL0     H92554   3.675   7.961   4.576 -2.1129  5.1508  1.1168
  686MOL0     H92555   3.892   7.822   4.674  2.5471  1.2962 -0.1607
  686MOL0     H92556   3.906   7.974   4.763 -1.2773 -0.1734  2.4655
  686MOL0     H92557   3.646   7.936   4.825  0.4866  2.2326 -0.7022
  686MOL0     H92558   3.661   7.775   4.763 -2.9124  1.9380  1.2160
  686MOL0     H92559   3.865   7.899   4.957  0.0010 -0.0562 -0.2229
  686MOL0     H92560   3.847   7.729   4.909 -1.4381 -0.5337 -0.4270
  686MOL0     H92561   3.505   7.782   4.964 -3.1935 -1.2884  2.5410
  686MOL0     H92562   3.394   7.837   5.336  0.2370 -1.4033  1.7445
  686MOL0     H92563   3.336   7.833   5.166  0.3362  1.2390  0.8933
  686MOL0     H92564   3.349   7.575   5.199  0.2073  0.0404 -0.3669
  686MOL0     H92565   3.251   7.675   5.318  0.7321  2.4323  0.9057
  686MOL0     H92566   3.536   7.571   5.354 -0.2991 -0.0226 -2.4457
  686MOL0     H92567   3.392   7.500   5.452 -1.4723  2.4238  2.0259
  686MOL0     H92568   3.349   7.699   5.545 -1.3147 -2.9507 -3.1863
  686MOL0     H92569   3.506   7.771   5.516 -1.4033  0.3854  1.1458
  686MOL0     H92570   3.709   7.692   5.455  1.5381  1.5646 -0.9866
  686MOL0     H92571   4.080   7.663   5.443  1.4797  3.0576 -3.9050
  686MOL0     H92572   3.939   7.697   5.354  0.5735  1.7053 -0.2183
  686MOL0     H92573   3.992   7.813   5.469 -0.9179  0.1261 -2.9099
  686MOL0     H92574   4.294   7.638   5.881  1.1288  0.9089 -2.4064
  686MOL0     H92575   4.524   7.591   5.951  0.5308  0.3349 -3.4389
  686MOL0     H92576   4.583   7.268   6.151 -1.0916 -1.6761 -2.1208
  686MOL0     H92577   4.650   7.157   6.033 -1.6963 -0.2297  0.8657
  686MOL0     H92578   4.825   7.207   6.212  0.1860  1.7000  0.9082
  686MOL0     H92579   4.867   7.246   6.050 -0.4157  0.4059 -0.5714
  686MOL0     H92580   4.803   7.454   6.282  0.8115  1.5922  0.0819
  686MOL0     H92581   4.754   7.498   6.121 -0.8948  2.9975  3.7581
  686MOL0     H92582   4.970   7.454   6.030 -0.2187  0.2926 -0.0628
  686MOL0     H92583   4.982   7.584   6.147 -0.0719  0.2804  0.7903
  686MOL0     H92584   5.168   7.412   6.157 -1.2790  1.4118  0.3490
  686MOL0     H92585   5.052   7.282   6.210  2.3179 -1.7387  2.6426
  686MOL0     H92586   5.137   7.546   6.338  0.7722 -1.4956 -2.3564
  686MOL0     H92587   4.990   7.469   6.391 -0.0452 -0.9857  0.1380
  686MOL0     H92588   5.277   7.348   6.396 -0.6621  0.6918  0.2472
  686MOL0     H92589   5.126   7.270   6.466 -1.1678  0.7790  0.8571
  686MOL0     H92590   5.280   7.503   6.587 -2.4214  1.3634  1.8414
  686MOL0     H92591   5.241   7.336   6.650  0.9993 -0.6020 -0.3051
  686MOL0     H92592   4.454   7.170   5.915  2.9089  0.8662 -0.5640
  686MOL0     H92593   4.221   7.212   5.855  2.5931 -1.7566 -1.1009
  686MOL0     H92594   3.882   7.516   5.886  0.1994  0.0443  0.0716
  686MOL0     H92595   3.640   7.520   5.841  0.3761  1.1836  0.1142
  686MOL0     H92596   3.850   8.521   3.959 -0.8951  0.4141 -2.6414
  686MOL0     H92597   3.712   8.498   3.747  0.2646 -1.3273 -1.0595
  686MOL0     H92598   3.619   8.375   3.384  1.9345 -1.3254  2.4175
  686MOL0     H92599   3.545   8.376   3.152 -0.1779 -0.0641 -0.6377
  686MOL0     H92600   3.541   8.321   2.944 -0.0770 -0.4103  0.0397
  686MOL0     H92601   3.624   8.166   2.911 -0.3986 -4.0201  4.7013
  686MOL0     H92602   3.447   8.294   2.733 -2.4085  2.4959  2.2695
  686MOL0     H92603   3.346   8.165   2.801 -0.8555  1.4507 -3.2011
  686MOL0     H92604   3.504   7.987   2.745  3.4583 -1.1994 -0.4330
  686MOL0     H92605   3.617   8.103   2.671 -0.7655 -0.9881 -1.9387
  686MOL0     H92606   3.458   8.185   2.506 -1.7837  0.4329  0.2057
  686MOL0     H92607   3.337   8.070   2.561 -0.0283 -2.7682 -3.7642
  686MOL0     H92608   3.584   7.825   2.323  0.3812  3.1179 -2.4870
  686MOL0     H92609   3.498   7.960   3.169  0.5117  0.3998  0.1301
  686MOL0     H92610   3.556   7.949   3.406 -1.4440  0.6757  1.9334
  687MOL0     O92611   5.970   5.666   8.026  0.2990 -0.3584  0.6186
  687MOL0     C92612   6.006   5.684   8.140  0.2124  0.4437  0.3013
  687MOL0     O92613   6.135   5.663   8.184  0.6602  0.0631  0.8575
  687MOL0     C92614   6.221   5.600   8.102 -0.4206 -1.1052  0.2778
  687MOL0     C92615   6.208   5.489   8.017  0.3761  0.2192  0.0092
  687MOL0     C92616   6.309   5.435   7.937  0.0094 -0.1997 -0.4715
  687MOL0     C92617   6.443   5.471   7.956 -0.3114 -0.0932 -0.5483
  687MOL0     O92618   6.550   5.428   7.886 -0.2852 -0.7678  0.1033
  687MOL0     C92619   6.546   5.393   7.748 -0.0895  0.0797  0.0983
  687MOL0     C92620   6.641   5.480   7.665 -0.2223  0.0870  0.0994
  687MOL0     C92621   6.679   5.424   7.515  0.5728 -0.7677 -0.4203
  687MOL0     C92622   6.563   5.370   7.432  0.1569 -0.6027 -1.6976
  687MOL0     C92623   6.610   5.359   7.293  0.5700 -0.4056 -0.1931
  687MOL0     C92624   6.506   5.308   7.196  0.3612  0.1017 -0.7425
  687MOL0     C92625   6.561   5.298   7.050 -0.0500 -0.1470  0.1086
  687MOL0     C92626   6.463   5.236   6.954  0.3518 -0.4165 -0.5799
  687MOL0     N92627   6.507   5.237   6.809 -0.4632  0.1014  0.0628
  687MOL0     C92628   6.532   5.353   6.736  0.1150 -0.1043 -0.4568
  687MOL0     C92629   6.557   5.304   6.608  0.0458 -0.0161  0.2371
  687MOL0     C92630   6.571   5.382   6.478 -0.6413  0.8070  0.1913
  687MOL0     C92631   6.707   5.450   6.463 -0.6418 -0.6128 -0.0118
  687MOL0     C92632   6.702   5.534   6.337 -0.0681  0.6078  0.4474
  687MOL0     C92633   6.848   5.586   6.308 -0.2850  0.9007 -0.1711
  687MOL0     O92634   6.845   5.728   6.316 -0.0716 -0.6807 -0.7577
  687MOL0     C92635   6.788   5.809   6.209 -0.4906  0.0461  0.5985
  687MOL0     C92636   6.727   5.753   6.096 -0.8712 -0.7361  0.1251
  687MOL0     C92637   6.689   5.833   5.985 -0.2141  0.4269  0.0603
  687MOL0     C92638   6.618   5.755   5.872 -0.1431 -0.5058  0.2883
  687MOL0     C92639   6.695   5.968   5.992 -0.0683 -0.5737 -1.2375
  687MOL0     C92640   6.667   6.065   5.887 -0.2256 -0.2053  0.1379
  687MOL0     O92641   6.620   6.187   5.936 -0.6485  0.2174 -0.0478
  687MOL0     C92642   6.599   6.301   5.857  0.4223  1.3468 -0.0430
  687MOL0     C92643   6.473   6.323   5.803 -1.6224  0.8393  1.0685
  687MOL0     C92644   6.455   6.425   5.713 -0.2876 -0.2429 -0.3064
  687MOL0     C92645   6.560   6.503   5.656  0.2100 -0.4564 -0.2294
  687MOL0     O92646   6.495   6.593   5.560 -0.0615 -0.3745  1.2928
  687MOL0     C92647   6.572   6.671   5.468  0.0676  0.7061  0.6209
  687MOL0     C92648   6.487   6.782   5.425 -0.6957 -0.6389  0.6403
  687MOL0     C92649   6.561   6.912   5.376  0.6344 -0.3285  0.5650
  687MOL0     C92650   6.632   6.891   5.236 -0.0685  0.8330 -0.5846
  687MOL0     C92651   6.740   7.004   5.205  1.6530  0.0012  0.7607
  687MOL0     C92652   6.685   7.148   5.192 -0.8090 -0.2030 -0.6810
  687MOL0     C92653   6.583   7.151   5.075 -0.2042  0.4056  0.2167
  687MOL0     C92654   6.556   7.295   5.024 -0.6105  0.0176  0.3620
  687MOL0    Cl92655   6.705   7.351   4.931  0.1806  0.0389 -0.5104
  687MOL0     C92656   6.690   6.476   5.707 -0.0504 -0.5814 -0.2598
  687MOL0     C92657   6.700   6.374   5.803 -0.0102  0.0381  0.5985
  687MOL0     O92658   6.695   6.034   5.769  1.0064 -0.7151  0.4140
  687MOL0     C92659   6.754   6.026   6.118 -0.1287  0.1376 -0.5417
  687MOL0     C92660   6.791   5.942   6.221 -0.2882  0.8955 -0.3849
  687MOL0     N92661   6.558   5.163   6.610  0.0609 -0.1389  0.2897
  687MOL0     N92662   6.523   5.127   6.727 -0.0776  0.7777 -0.3561
  687MOL0     C92663   6.459   5.586   8.042 -0.2271  0.4892 -0.3001
  687MOL0     C92664   6.353   5.651   8.110  0.1619 -0.2620 -0.2900
  687MOL0     C92665   5.917   5.754   8.228  0.5896  0.0659  0.9194
  687MOL0     C92666   5.804   5.812   8.181 -0.0672  0.0332 -0.4655
  687MOL0     C92667   5.742   5.907   8.264 -0.4157  0.1414 -0.3109
  687MOL0     C92668   5.789   5.938   8.392 -0.7075  1.1554  1.2685
  687MOL0     O92669   5.709   6.025   8.462  0.2920 -0.2387  0.9415
  687MOL0     C92670   5.775   6.147   8.517 -0.2695  0.5874  0.2071
  687MOL0     C92671   5.680   6.240   8.587 -0.8679  0.1447 -0.0602
  687MOL0     C92672   5.615   6.188   8.713 -0.6143  0.7850 -0.1352
  687MOL0     C92673   5.702   6.112   8.813 -0.0584  0.3969  0.1907
  687MOL0     C92674   5.643   6.122   8.947  0.5054  0.6324  1.0256
  687MOL0     C92675   5.587   6.108   9.056  0.2099 -0.3481 -0.2170
  687MOL0     C92676   5.902   5.872   8.447  0.3227  0.4717 -0.1704
  687MOL0     C92677   5.969   5.779   8.362  0.8873  0.3875 -0.2685
  687MOL0     H92678   6.107   5.450   8.003  0.2048  1.1249 -1.5570
  687MOL0     H92679   6.287   5.348   7.877 -0.0313 -0.4323 -0.1261
  687MOL0     H92680   6.580   5.290   7.733 -2.1190 -0.3856 -1.8834
  687MOL0     H92681   6.444   5.399   7.708  0.4653  0.7776 -1.2697
  687MOL0     H92682   6.591   5.577   7.655 -0.9592 -0.2980 -0.0442
  687MOL0     H92683   6.734   5.482   7.723  0.7662 -3.3788 -1.0749
  687MOL0     H92684   6.717   5.515   7.467  0.8515  0.5112  2.0293
  687MOL0     H92685   6.764   5.355   7.525  0.7276 -0.3842  1.1652
  687MOL0     H92686   6.537   5.276   7.481  2.2413  1.4996  4.4321
  687MOL0     H92687   6.485   5.446   7.443  3.5459  3.3255 -2.1036
  687MOL0     H92688   6.646   5.455   7.254 -1.5111  1.0261  1.2198
  687MOL0     H92689   6.698   5.293   7.290  0.7642 -0.3790  2.5200
  687MOL0     H92690   6.474   5.212   7.236  2.9007 -0.6021 -0.2012
  687MOL0     H92691   6.422   5.379   7.199  0.4403  0.3101 -2.4559
  687MOL0     H92692   6.595   5.398   7.020 -3.0033  0.6602 -0.9064
  687MOL0     H92693   6.646   5.231   7.034  0.1349  0.1498 -0.1522
  687MOL0     H92694   6.371   5.292   6.971  0.9868  0.4497  0.0767
  687MOL0     H92695   6.449   5.134   6.992  1.1145  0.3141  1.9122
  687MOL0     H92696   6.514   5.456   6.764  2.1965  0.2681 -0.3307
  687MOL0     H92697   6.531   5.331   6.389 -1.4980  5.0792 -2.1623
  687MOL0     H92698   6.502   5.466   6.493  1.1984  2.2847  0.6484
  687MOL0     H92699   6.787   5.376   6.455  0.7452  0.8038  0.2818
  687MOL0     H92700   6.716   5.521   6.546  0.2396  1.0904 -1.5013
  687MOL0     H92701   6.636   5.616   6.366  0.2698  1.2919 -0.6670
  687MOL0     H92702   6.666   5.469   6.256  1.2228 -0.8331  0.9558
  687MOL0     H92703   6.881   5.554   6.209 -0.6955 -1.5859  0.4214
  687MOL0     H92704   6.924   5.542   6.374  0.4579  2.8108  0.3093
  687MOL0     H92705   6.714   5.646   6.081 -2.0629 -0.1636 -4.6556
  687MOL0     H92706   6.614   5.646   5.882 -2.2064 -0.8617 -2.9353
  687MOL0     H92707   6.517   5.797   5.866  0.4612  1.1696  1.3155
  687MOL0     H92708   6.665   5.775   5.775 -0.2676  0.0061  0.3314
  687MOL0     H92709   6.387   6.263   5.832 -1.5832 -0.5688 -1.4579
  687MOL0     H92710   6.353   6.443   5.681 -0.5803  0.0971  0.7653
  687MOL0     H92711   6.657   6.713   5.523  0.1343  0.2996  0.8387
  687MOL0     H92712   6.611   6.608   5.387  3.0337  4.1300 -0.8953
  687MOL0     H92713   6.433   6.751   5.335  0.2784  0.9279 -0.5295
  687MOL0     H92714   6.416   6.798   5.506 -0.8042 -1.2975  0.6784
  687MOL0     H92715   6.629   6.938   5.457  0.5847  0.0846  0.4749
  687MOL0     H92716   6.490   6.994   5.362  1.1484  0.0951  0.4061
  687MOL0     H92717   6.696   6.803   5.245 -0.4481  0.7212  1.7207
  687MOL0     H92718   6.557   6.881   5.157  0.1528 -1.6800 -0.5477
  687MOL0     H92719   6.789   6.981   5.110  1.2590 -2.9241  1.1628
  687MOL0     H92720   6.824   6.995   5.274  2.7106  0.6346 -0.3919
  687MOL0     H92721   6.636   7.176   5.286 -0.5443  2.4997 -1.2767
  687MOL0     H92722   6.766   7.221   5.186 -1.4678  0.4884 -1.1986
  687MOL0     H92723   6.492   7.101   5.108 -0.1323  1.9532  3.0411
  687MOL0     H92724   6.607   7.088   4.989 -1.0145  2.0578 -1.2771
  687MOL0     H92725   6.515   7.365   5.097 -4.4809 -2.9494  1.4482
  687MOL0     H92726   6.480   7.287   4.945 -0.0969  2.4168 -0.4442
  687MOL0     H92727   6.776   6.528   5.667 -1.5489  2.5971  0.3717
  687MOL0     H92728   6.798   6.337   5.832  0.0410 -0.2066  0.1315
  687MOL0     H92729   6.776   6.130   6.140 -2.3134  0.7524 -0.9950
  687MOL0     H92730   6.856   5.972   6.302 -1.7238  1.5314  0.5605
  687MOL0     H92731   6.562   5.616   8.049  1.4458 -3.8712 -2.2932
  687MOL0     H92732   6.377   5.739   8.169 -1.5127 -0.5360  0.8389
  687MOL0     H92733   5.779   5.800   8.076  4.8500  1.5036 -2.0389
  687MOL0     H92734   5.649   5.953   8.232  0.6185  3.3534  0.8875
  687MOL0     H92735   5.854   6.113   8.585 -0.8601  1.0212  1.1341
  687MOL0     H92736   5.825   6.205   8.439  0.5774  3.3379  2.6289
  687MOL0     H92737   5.605   6.244   8.508 -1.7484 -0.4019  0.7199
  687MOL0     H92738   5.724   6.339   8.601  0.4876 -0.3101 -0.9803
  687MOL0     H92739   5.528   6.130   8.683 -0.9497  0.4671  1.3700
  687MOL0     H92740   5.557   6.263   8.769 -4.3682 -0.9376 -1.4088
  687MOL0     H92741   5.799   6.163   8.816 -0.4072  1.0441  0.6232
  687MOL0     H92742   5.716   6.007   8.786  2.3790  0.2910  1.5439
  687MOL0     H92743   5.547   6.095   9.155  0.8182 -0.7084 -0.0096
  687MOL0     H92744   5.929   5.889   8.551 -2.6881 -3.5522  1.5504
  687MOL0     H92745   6.058   5.726   8.395  1.5310 -1.1194 -3.9227
  688MOL0     O92746   3.029   0.184   8.227 -0.3169  0.0783 -0.5966
  688MOL0     C92747   3.117   0.177   8.145  1.6286 -0.1758  0.4690
  688MOL0     O92748   3.250   0.212   8.163  0.2142  0.2279 -0.5171
  688MOL0     C92749   3.294   0.270   8.279  0.4192 -0.8120 -0.6600
  688MOL0     C92750   3.421   0.346   8.268  0.3214  0.5904 -1.3221
  688MOL0     C92751   3.460   0.431   8.372  0.2517  0.6258  1.4280
  688MOL0     C92752   3.381   0.444   8.489 -0.3687 -0.0273 -0.4633
  688MOL0     O92753   3.422   0.532   8.583  0.1018 -0.5772 -0.0643
  688MOL0     C92754   3.370   0.532   8.716  0.7593  0.3507  0.2896
  688MOL0     C92755   3.269   0.646   8.729  0.3083 -0.5107  0.0740
  688MOL0     C92756   3.144   0.650   8.642 -0.1133  0.1491 -0.2604
  688MOL0     C92757   3.070   0.784   8.653 -0.4187 -0.5751 -0.6588
  688MOL0     C92758   2.929   0.776   8.598  0.1351 -0.7648  0.9721
  688MOL0     C92759   2.914   0.725   8.453  0.5091  0.2915 -0.4121
  688MOL0     C92760   2.779   0.767   8.395 -0.1456 -0.0622  0.6081
  688MOL0     C92761   2.732   0.678   8.280  0.5867 -0.8035 -0.4429
  688MOL0     N92762   2.717   0.533   8.322  0.2926 -0.6535  0.4632
  688MOL0     C92763   2.732   0.418   8.243 -0.7419  1.2405 -0.7027
  688MOL0     C92764   2.668   0.319   8.312 -0.4419  0.4208  0.6336
  688MOL0     C92765   2.670   0.174   8.283  0.6569  0.8624  0.3114
  688MOL0     C92766   2.547   0.093   8.335 -0.1533 -0.2874  0.2229
  688MOL0     C92767   2.550  -0.044   8.286  1.2289  1.0637  1.0325
  688MOL0     C92768   2.670  -0.127   8.349 -1.0329 -0.2635  0.3008
  688MOL0     O92769   2.662  -0.271   8.335 -0.3145 -0.0837 -0.4854
  688MOL0     C92770   2.744  -0.347   8.411  0.1800  0.0755 -0.2643
  688MOL0     C92771   2.843  -0.308   8.496  1.5096  0.1597 -0.4791
  688MOL0     C92772   2.919  -0.400   8.570  0.7814 -0.6537 -0.8143
  688MOL0     C92773   3.006  -0.336   8.676 -0.0828 -0.5945  0.0287
  688MOL0     C92774   2.896  -0.539   8.554  0.9593  0.4108  0.2527
  688MOL0     C92775   2.984  -0.646   8.621 -0.2369  0.8183 -0.1350
  688MOL0     O92776   2.973  -0.775   8.579 -0.9953 -0.0975  0.3167
  688MOL0     C92777   3.021  -0.881   8.653  0.4538  0.7490  0.7124
  688MOL0     C92778   3.107  -0.982   8.606 -0.1146 -0.3413  0.5560
  688MOL0     C92779   3.135  -1.089   8.687 -0.3826  0.0688 -0.4067
  688MOL0     C92780   3.079  -1.108   8.811  0.3196 -0.5975 -1.5838
  688MOL0     O92781   3.112  -1.224   8.882 -0.7578  0.2966  0.2965
  688MOL0     C92782   3.110  -1.221   9.020 -0.3512  0.1891  0.1911
  688MOL0     C92783   3.097  -1.355   9.081 -0.4703 -0.0788  0.5539
  688MOL0     C92784   3.075  -1.347   9.235  0.0039 -0.0632 -0.0238
  688MOL0     C92785   3.002  -1.469   9.290  1.2660 -1.3267 -0.2240
  688MOL0     C92786   2.845  -1.464   9.262  0.3686 -0.1480  0.4581
  688MOL0     C92787   2.760  -1.550   9.358  0.6064  0.5193 -0.9232
  688MOL0     C92788   2.616  -1.506   9.358 -1.0858 -0.5139 -1.1597
  688MOL0     C92789   2.518  -1.623   9.393 -0.3269  0.2327 -0.4633
  688MOL0    Cl92790   2.546  -1.679   9.560  0.1235  0.1297 -0.7405
  688MOL0     C92791   3.008  -0.998   8.865  0.2693 -0.0091 -0.2805
  688MOL0     C92792   2.976  -0.897   8.782  0.4698  0.6270 -0.1451
  688MOL0     O92793   3.044  -0.607   8.721 -0.2455  0.0443 -0.0526
  688MOL0     C92794   2.789  -0.584   8.462 -0.1469 -0.4884  0.4302
  688MOL0     C92795   2.721  -0.483   8.395  0.3215  0.3505  1.1399
  688MOL0     N92796   2.614   0.379   8.423  0.2258  0.6695  0.7520
  688MOL0     N92797   2.641   0.504   8.434 -0.3523 -0.3512  0.4764
  688MOL0     C92798   3.267   0.367   8.498 -0.3764  0.4696 -0.8179
  688MOL0     C92799   3.228   0.276   8.403 -1.0380 -0.0374  0.0213
  688MOL0     C92800   3.078   0.136   8.008  0.7374 -0.0601  0.5432
  688MOL0     C92801   2.948   0.084   7.983 -0.2576  0.4458 -0.5504
  688MOL0     C92802   2.920   0.034   7.856  0.0245 -0.0795  0.5254
  688MOL0     C92803   3.004   0.035   7.749 -0.5696 -0.5729  0.2653
  688MOL0     O92804   2.963  -0.017   7.634  0.0712  0.1180  0.0213
  688MOL0     C92805   3.069  -0.055   7.535 -0.1505  0.2228  0.7453
  688MOL0     C92806   3.075   0.044   7.420  0.1878  0.4457 -0.4999
  688MOL0     C92807   3.150  -0.026   7.306 -0.5910 -0.1358 -0.0828
  688MOL0     C92808   3.067  -0.111   7.213 -0.0141 -0.2557 -0.8722
  688MOL0     C92809   3.130  -0.224   7.141  0.4327 -1.2119 -0.6342
  688MOL0     C92810   3.198  -0.316   7.110  0.0000 -0.8074  0.1871
  688MOL0     C92811   3.133   0.103   7.774  0.8046  0.7044  0.8146
  688MOL0     C92812   3.159   0.151   7.898  0.1678 -0.2605  0.8033
  688MOL0     H92813   3.481   0.346   8.177  2.7731 -2.7538  0.0921
  688MOL0     H92814   3.541   0.503   8.359 -0.8991  1.5980 -0.9607
  688MOL0     H92815   3.329   0.437   8.753 -1.0742  0.2114 -1.8388
  688MOL0     H92816   3.455   0.541   8.784 -1.4570  0.4515  3.2561
  688MOL0     H92817   3.247   0.645   8.837  1.1711 -0.0015  0.2665
  688MOL0     H92818   3.318   0.741   8.707 -0.1432 -0.1821  0.4465
  688MOL0     H92819   3.173   0.632   8.538 -3.0342 -0.2955 -1.0806
  688MOL0     H92820   3.082   0.561   8.655  1.1914 -2.6858 -7.9488
  688MOL0     H92821   3.054   0.826   8.752 -3.0884  0.5182 -1.4526
  688MOL0     H92822   3.127   0.860   8.599 -0.2359  0.7494  1.3108
  688MOL0     H92823   2.864   0.722   8.667  0.3077 -0.2774  1.5216
  688MOL0     H92824   2.892   0.878   8.593 -0.1085 -0.8748  0.4307
  688MOL0     H92825   2.999   0.769   8.401  0.0765  3.5577  1.4224
  688MOL0     H92826   2.933   0.617   8.462 -0.7537  0.0451 -0.5382
  688MOL0     H92827   2.696   0.762   8.466 -2.2667  0.6141 -1.6635
  688MOL0     H92828   2.793   0.870   8.361 -0.6147 -0.6112 -1.3684
  688MOL0     H92829   2.802   0.691   8.197 -1.4621  2.2285 -1.8848
  688MOL0     H92830   2.636   0.716   8.242 -0.3477 -2.4101  0.1922
  688MOL0     H92831   2.792   0.416   8.152  2.1362  1.1749  1.0765
  688MOL0     H92832   2.665   0.150   8.176  0.3324 -0.9826  0.6906
  688MOL0     H92833   2.761   0.126   8.322  2.2337  2.8992 -0.7044
  688MOL0     H92834   2.463   0.144   8.286  0.7822 -0.3501 -1.5205
  688MOL0     H92835   2.527   0.101   8.442  0.7414 -1.0891  0.4568
  688MOL0     H92836   2.558  -0.045   8.177 -1.2449  1.3093  0.7781
  688MOL0     H92837   2.459  -0.102   8.304  1.4940  0.1853 -0.3237
  688MOL0     H92838   2.681  -0.087   8.450  0.1875  4.4340 -1.4441
  688MOL0     H92839   2.764  -0.096   8.303  0.1440 -2.1303  1.3035
  688MOL0     H92840   2.854  -0.201   8.507 -1.0782  0.3638  1.0131
  688MOL0     H92841   2.966  -0.368   8.773 -0.9960  0.4493  0.0212
  688MOL0     H92842   3.109  -0.371   8.676 -0.0527 -0.5568 -1.6107
  688MOL0     H92843   3.001  -0.227   8.663 -0.0581 -0.3016  2.1610
  688MOL0     H92844   3.140  -0.957   8.506 -0.2704  2.6228  1.1573
  688MOL0     H92845   3.193  -1.172   8.647 -0.8224 -0.0509 -0.8039
  688MOL0     H92846   3.202  -1.173   9.055 -0.9066  1.6126 -0.1867
  688MOL0     H92847   3.032  -1.162   9.069  0.0428  0.4985  0.4555
  688MOL0     H92848   3.012  -1.396   9.027  0.8848 -0.9856 -0.9710
  688MOL0     H92849   3.178  -1.426   9.063  1.0962  1.4164  1.4521
  688MOL0     H92850   3.022  -1.257   9.267 -0.6179 -1.9241  4.9696
  688MOL0     H92851   3.174  -1.346   9.282 -0.4091  0.9135  0.8751
  688MOL0     H92852   3.046  -1.558   9.245  2.4111 -1.8425  1.7743
  688MOL0     H92853   3.014  -1.469   9.399  3.4077  1.4501 -0.3344
  688MOL0     H92854   2.824  -1.505   9.163 -1.6246 -0.7986  1.1126
  688MOL0     H92855   2.813  -1.360   9.265 -3.3467 -1.1093 -0.7191
  688MOL0     H92856   2.781  -1.656   9.341  3.0671  0.9323 -0.7546
  688MOL0     H92857   2.793  -1.529   9.460  2.0566  1.4021 -1.5464
  688MOL0     H92858   2.592  -1.451   9.266 -0.2812  0.3673 -0.8698
  688MOL0     H92859   2.611  -1.430   9.437 -1.6053 -2.5997  0.9034
  688MOL0     H92860   2.517  -1.705   9.321 -2.0845  1.1249 -1.5358
  688MOL0     H92861   2.414  -1.589   9.396 -0.2769  0.3116  1.8352
  688MOL0     H92862   2.980  -1.002   8.969  2.8803 -0.2761  0.4710
  688MOL0     H92863   2.912  -0.824   8.832  0.7869 -1.0784  2.9952
  688MOL0     H92864   2.765  -0.688   8.445  0.7582 -0.2800 -2.6759
  688MOL0     H92865   2.640  -0.504   8.326  0.4222 -0.9103  1.3790
  688MOL0     H92866   3.196   0.378   8.579  1.0779  0.2795  0.5382
  688MOL0     H92867   3.134   0.231   8.434 -0.4580  1.1216  4.0886
  688MOL0     H92868   2.869   0.079   8.056  0.5946 -1.8664  0.2951
  688MOL0     H92869   2.819   0.001   7.836  0.7673 -2.5489  0.5918
  688MOL0     H92870   3.170  -0.052   7.576  0.2199 -0.3501 -0.0905
  688MOL0     H92871   3.048  -0.157   7.501 -2.4275  0.5724  0.9433
  688MOL0     H92872   3.137   0.124   7.460 -0.7395  0.0279  1.9583
  688MOL0     H92873   2.974   0.081   7.399 -0.1623  0.3666  0.9322
  688MOL0     H92874   3.234  -0.083   7.345  0.4582  1.6048  0.3154
  688MOL0     H92875   3.188   0.050   7.237  1.5922 -0.5327  0.6134
  688MOL0     H92876   3.020  -0.037   7.148  0.7384  3.9538  2.8471
  688MOL0     H92877   2.988  -0.161   7.270  1.6647 -0.5048  1.4026
  688MOL0     H92878   3.268  -0.391   7.078 -0.2701  0.2409 -3.3143
  688MOL0     H92879   3.207   0.114   7.696 -2.5876  2.5883 -2.4664
  688MOL0     H92880   3.244   0.218   7.909  1.1400 -1.0032 -1.5841
  689MOL0     O92881   5.159   2.034   9.905  0.2602  0.2123 -0.2373
  689MOL0     C92882   5.188   2.125   9.826 -0.1660 -0.0917 -0.4941
  689MOL0     O92883   5.198   2.115   9.696  0.1257  0.0867 -0.1859
  689MOL0     C92884   5.190   1.983   9.642  0.6235 -0.1929 -1.3163
  689MOL0     C92885   5.097   1.955   9.542  0.5088 -0.1993  0.5532
  689MOL0     C92886   5.076   1.825   9.507  0.2259 -0.0701 -0.4826
  689MOL0     C92887   5.152   1.722   9.561  0.0301  0.1259 -0.0892
  689MOL0     O92888   5.141   1.592   9.523  0.3066  0.0992  0.1839
  689MOL0     C92889   5.179   1.582   9.394 -0.5363 -0.3694  0.2173
  689MOL0     C92890   5.191   1.425   9.366 -0.1285 -0.3052 -0.4995
  689MOL0     C92891   5.350   1.396   9.361  0.4335 -0.9727 -0.2957
  689MOL0     C92892   5.374   1.246   9.346  0.5907  0.1003 -0.0868
  689MOL0     C92893   5.513   1.214   9.365 -0.4200  0.5246 -0.5446
  689MOL0     C92894   5.599   1.272   9.255 -0.4119  0.3810 -0.3381
  689MOL0     C92895   5.741   1.214   9.244  0.0170  0.2122 -0.4398
  689MOL0     C92896   5.819   1.222   9.373  0.8150 -0.1926 -0.1708
  689MOL0     N92897   5.963   1.195   9.377  0.2357  0.0619  0.2222
  689MOL0     C92898   6.020   1.078   9.416 -0.0576  0.4035 -0.3589
  689MOL0     C92899   6.148   1.087   9.372  0.2160  0.0960 -0.1656
  689MOL0     C92900   6.249   0.992   9.385 -0.5645  0.8283  0.1075
  689MOL0     C92901   6.253   0.912   9.265  0.9857  0.7606  0.9997
  689MOL0     C92902   6.397   0.867   9.229  0.9286  0.0629 -0.0594
  689MOL0     C92903   6.411   0.769   9.110  0.0350 -0.3330 -0.6924
  689MOL0     O92904   6.343   0.644   9.141 -0.8727  0.6347  0.5166
  689MOL0     C92905   6.403   0.546   9.216 -0.1297  0.7784 -1.1360
  689MOL0     C92906   6.341   0.421   9.228  0.0522 -0.1995 -0.1787
  689MOL0     C92907   6.394   0.303   9.287  0.2119 -0.1016 -0.2636
  689MOL0     C92908   6.305   0.181   9.294 -0.7785  0.1614  0.2320
  689MOL0     C92909   6.520   0.314   9.347  0.3204  1.3599 -0.3224
  689MOL0     C92910   6.588   0.205   9.417  0.0453  0.4383  0.8637
  689MOL0     O92911   6.685   0.248   9.496  0.3227 -0.0661  0.1287
  689MOL0     C92912   6.736   0.159   9.594  0.3076 -0.7735  0.3075
  689MOL0     C92913   6.686   0.166   9.728  0.5005 -0.2417  0.1534
  689MOL0     C92914   6.746   0.084   9.825  1.0076 -0.2443 -0.1208
  689MOL0     C92915   6.839  -0.009   9.802  0.4914 -0.4749 -0.1172
  689MOL0     O92916   6.877  -0.103   9.893  0.2549 -0.2067 -0.3901
  689MOL0     C92917   7.027  -0.137   9.911 -0.4587 -0.0507  0.2338
  689MOL0     C92918   7.030  -0.225  10.033  0.0266 -0.1777  0.2584
  689MOL0     C92919   7.168  -0.291  10.058 -0.6205 -0.0503  0.0308
  689MOL0     C92920   7.163  -0.395  10.176 -0.4793 -1.0583 -0.3345
  689MOL0     C92921   7.047  -0.496  10.148  0.6375  0.8875 -0.4004
  689MOL0     C92922   7.061  -0.622  10.238 -0.2963  0.2151 -0.4443
  689MOL0     C92923   6.976  -0.725  10.176  0.8048  0.1392  0.3225
  689MOL0     C92924   7.038  -0.789  10.046 -0.5601 -0.3175  0.1684
  689MOL0    Cl92925   7.173  -0.909  10.081  0.4144 -0.1035 -0.2151
  689MOL0     C92926   6.868  -0.033   9.664 -0.6023  0.3598 -0.7110
  689MOL0     C92927   6.817   0.051   9.558 -0.8152  0.0397 -0.4551
  689MOL0     O92928   6.556   0.085   9.409  0.0781 -0.6748  0.1366
  689MOL0     C92929   6.594   0.431   9.334  0.3469  0.1531 -0.3715
  689MOL0     C92930   6.532   0.549   9.279 -0.0045  0.3127 -0.2264
  689MOL0     N92931   6.175   1.219   9.325 -0.2648  0.0208 -1.1128
  689MOL0     N92932   6.059   1.282   9.333 -1.3279 -0.1368  0.1859
  689MOL0     C92933   5.245   1.754   9.659 -0.0004 -0.0823 -0.1087
  689MOL0     C92934   5.280   1.883   9.696  0.3511  0.0673  0.6460
  689MOL0     C92935   5.217   2.254   9.882 -0.6129  0.1990 -0.1961
  689MOL0     C92936   5.205   2.283  10.019 -0.0352  0.5909 -0.4745
  689MOL0     C92937   5.240   2.407  10.075  0.4462 -0.4394  0.4141
  689MOL0     C92938   5.300   2.505   9.997  0.7224  0.2108  0.0216
  689MOL0     O92939   5.326   2.625  10.061  0.3848  1.2575  0.1376
  689MOL0     C92940   5.405   2.718   9.990  1.2924  0.1256  0.2355
  689MOL0     C92941   5.427   2.845  10.072 -0.0927 -0.9441 -0.6125
  689MOL0     C92942   5.533   2.939  10.029  0.2704 -0.8926 -0.0937
  689MOL0     C92943   5.677   2.881  10.050 -0.3790  0.2010  0.2649
  689MOL0     C92944   5.708   2.864  10.197 -0.7121 -0.3597  0.5983
  689MOL0     C92945   5.716   2.845  10.314 -0.4338  0.6771 -0.9168
  689MOL0     C92946   5.322   2.475   9.858  0.1953 -0.1288 -0.7550
  689MOL0     C92947   5.277   2.357   9.801 -0.1572 -0.1937 -0.2831
  689MOL0     H92948   5.029   2.033   9.511 -0.8663 -1.3189  0.6572
  689MOL0     H92949   4.995   1.818   9.436 -2.3738  2.9541  1.9228
  689MOL0     H92950   5.105   1.621   9.323  0.5700 -1.8727 -1.8970
  689MOL0     H92951   5.278   1.626   9.376  0.7741 -1.3856  4.0820
  689MOL0     H92952   5.154   1.365   9.450  0.3442 -1.1448 -0.8721
  689MOL0     H92953   5.130   1.386   9.284 -0.8621 -0.2166 -0.0062
  689MOL0     H92954   5.399   1.440   9.274 -0.6113  0.8822 -0.0073
  689MOL0     H92955   5.395   1.419   9.458 -2.5645 -0.4036  1.0920
  689MOL0     H92956   5.303   1.191   9.409  1.5997 -2.3488 -0.9651
  689MOL0     H92957   5.336   1.218   9.247  1.5685 -0.5143 -0.3015
  689MOL0     H92958   5.539   1.241   9.467 -1.0101  0.7579 -0.4525
  689MOL0     H92959   5.520   1.105   9.365 -0.6091  0.2507  4.8626
  689MOL0     H92960   5.558   1.238   9.160 -1.7389  1.7941 -0.3170
  689MOL0     H92961   5.616   1.380   9.255  0.7911  0.3705  3.6868
  689MOL0     H92962   5.726   1.109   9.217 -1.1939  0.0782  0.6358
  689MOL0     H92963   5.788   1.269   9.162  0.1859  3.5576  1.6974
  689MOL0     H92964   5.769   1.151   9.439  1.5316 -1.1668 -0.6624
  689MOL0     H92965   5.809   1.325   9.409  1.2568 -1.1984  3.0657
  689MOL0     H92966   5.971   0.994   9.465 -0.6873  0.4770 -0.8505
  689MOL0     H92967   6.343   1.046   9.395  0.4810 -0.9082 -0.0286
  689MOL0     H92968   6.221   0.932   9.472 -0.4040 -0.7127 -0.8697
  689MOL0     H92969   6.216   0.967   9.178  0.8148  0.3349  0.8006
  689MOL0     H92970   6.196   0.819   9.269  3.0577 -0.7670 -1.3739
  689MOL0     H92971   6.445   0.818   9.314  0.8581 -1.2091 -0.7246
  689MOL0     H92972   6.454   0.953   9.191  1.4902 -0.9588 -1.6495
  689MOL0     H92973   6.515   0.750   9.085  0.6290  3.0993 -1.3024
  689MOL0     H92974   6.351   0.821   9.035  0.1713  0.8120 -0.0371
  689MOL0     H92975   6.253   0.409   9.165 -0.7268  3.2550  0.0640
  689MOL0     H92976   6.198   0.198   9.279 -0.1841  1.4287 -4.0777
  689MOL0     H92977   6.335   0.114   9.213  1.4119 -1.4008  2.2288
  689MOL0     H92978   6.327   0.114   9.377 -0.5879 -3.1639 -2.2807
  689MOL0     H92979   6.602   0.229   9.757  0.8064 -0.7790  2.4243
  689MOL0     H92980   6.697   0.104   9.920  0.6897  3.2376 -0.8660
  689MOL0     H92981   7.066  -0.184   9.821  0.6445 -0.9881  1.1695
  689MOL0     H92982   7.095  -0.056   9.940  0.8402 -0.9481 -0.2395
  689MOL0     H92983   7.010  -0.165  10.123  2.3631  0.2759  0.5431
  689MOL0     H92984   6.947  -0.292  10.010 -1.7786  1.1186  2.5028
  689MOL0     H92985   7.251  -0.226  10.085  0.8619 -1.9772  0.3794
  689MOL0     H92986   7.188  -0.342   9.963 -0.8628  2.1163 -1.2356
  689MOL0     H92987   7.258  -0.447  10.189  1.3703  2.2715  0.6231
  689MOL0     H92988   7.152  -0.335  10.267  2.0562 -0.4305 -0.3819
  689MOL0     H92989   7.044  -0.517  10.041  2.0323 -0.2256 -0.2426
  689MOL0     H92990   6.951  -0.447  10.167 -0.2633  0.2543 -2.9381
  689MOL0     H92991   7.167  -0.647  10.231 -0.3380  0.2877 -1.5726
  689MOL0     H92992   7.046  -0.596  10.343  0.9865  2.2621 -0.7138
  689MOL0     H92993   6.890  -0.667  10.142 -0.5858 -2.1577 -0.2868
  689MOL0     H92994   6.940  -0.800  10.247  1.3046  0.6379  1.1198
  689MOL0     H92995   7.078  -0.717   9.975 -2.9713 -0.0672 -1.0413
  689MOL0     H92996   6.958  -0.840   9.992 -1.4443  1.8963 -0.7079
  689MOL0     H92997   6.918  -0.128   9.645 -1.3930 -0.5046  1.2237
  689MOL0     H92998   6.836   0.028   9.454  1.4624  0.5797 -0.2047
  689MOL0     H92999   6.693   0.448   9.375  0.1866  0.0009  0.0858
  689MOL0     H93000   6.593   0.639   9.276  0.5918  0.0546 -5.5210
  689MOL0     H93001   5.306   1.675   9.703  4.0359  2.1905 -1.0956
  689MOL0     H93002   5.355   1.909   9.770  0.4367  0.6970  0.3425
  689MOL0     H93003   5.176   2.211  10.094  3.1799  1.6156  1.9378
  689MOL0     H93004   5.211   2.427  10.178 -0.1103 -0.6878  0.3063
  689MOL0     H93005   5.503   2.672   9.977  1.5147 -0.2330  2.6742
  689MOL0     H93006   5.358   2.745   9.895  1.4911 -1.3850 -0.3204
  689MOL0     H93007   5.441   2.818  10.177  0.7283 -0.5279 -0.6092
  689MOL0     H93008   5.332   2.898  10.064 -0.0917 -0.7722  0.3853
  689MOL0     H93009   5.541   3.029  10.090 -0.9585  0.1074 -1.3711
  689MOL0     H93010   5.514   2.978   9.929 -3.0739  1.8667  1.4236
  689MOL0     H93011   5.746   2.953  10.004  1.8726 -1.9202  0.1548
  689MOL0     H93012   5.701   2.793   9.991  2.1987 -0.8491  2.6615
  689MOL0     H93013   5.741   2.843  10.418 -0.6252  0.4634 -0.8751
  689MOL0     H93014   5.355   2.548   9.784 -1.3214 -0.3221 -1.6652
  689MOL0     H93015   5.289   2.336   9.695  0.9881  0.7630 -0.3583
  690MOL0     O93016  10.307   2.388   6.760 -0.2821 -0.5587  0.0931
  690MOL0     C93017  10.380   2.348   6.853  0.1297 -0.3162  0.0050
  690MOL0     O93018  10.380   2.220   6.903 -0.0984  0.1148 -0.0259
  690MOL0     C93019  10.295   2.128   6.843 -0.4555  0.3929 -0.7679
  690MOL0     C93020  10.174   2.101   6.899 -0.1470  0.2249  0.8155
  690MOL0     C93021  10.090   2.000   6.847 -0.3211 -0.6705 -0.0952
  690MOL0     C93022  10.126   1.920   6.738 -0.4857 -0.8967 -0.2693
  690MOL0     O93023  10.049   1.829   6.672 -0.3687 -0.0406 -0.2068
  690MOL0     C93024   9.977   1.739   6.757 -1.1159 -0.3907  1.2200
  690MOL0     C93025   9.828   1.789   6.774 -0.6342  0.5250 -0.6157
  690MOL0     C93026   9.739   1.665   6.794  0.9131 -0.4934  0.0490
  690MOL0     C93027   9.591   1.732   6.811 -0.1937 -0.3362  0.2208
  690MOL0     C93028   9.486   1.633   6.836  0.7437 -0.2142  0.2100
  690MOL0     C93029   9.498   1.515   6.929  0.2592  0.8216 -0.4168
  690MOL0     C93030   9.503   1.555   7.074 -0.5354  0.1430 -0.5656
  690MOL0     C93031   9.527   1.438   7.175 -0.6787 -0.3339 -0.0684
  690MOL0     N93032   9.406   1.416   7.262  0.2392  0.2489  0.9069
  690MOL0     C93033   9.327   1.302   7.260  0.0899 -0.4305  0.1737
  690MOL0     C93034   9.234   1.333   7.355  1.0203  1.0400  0.6494
  690MOL0     C93035   9.134   1.238   7.412 -0.4310  0.6685 -0.2361
  690MOL0     C93036   9.116   1.105   7.329  0.1764  0.1807 -0.4069
  690MOL0     C93037   8.973   1.098   7.285 -0.2939 -0.0707 -0.7309
  690MOL0     C93038   8.954   0.989   7.189 -0.1399  0.0290 -0.3133
  690MOL0     O93039   8.819   0.993   7.124  0.0817  0.2139  0.4992
  690MOL0     C93040   8.743   0.877   7.096  0.2606 -0.8154 -0.5921
  690MOL0     C93041   8.790   0.747   7.080  0.7549 -1.2023 -1.2070
  690MOL0     C93042   8.705   0.635   7.065  0.6266  0.4706  0.2305
  690MOL0     C93043   8.773   0.498   7.048  0.7301 -1.1705 -0.0246
  690MOL0     C93044   8.564   0.654   7.063 -0.1937 -0.5440 -0.5787
  690MOL0     C93045   8.458   0.547   7.044 -0.9163 -1.1538  0.3779
  690MOL0     O93046   8.331   0.598   7.049  0.5485 -0.4854  0.3995
  690MOL0     C93047   8.213   0.535   7.066  0.3869 -0.4875 -0.4811
  690MOL0     C93048   8.173   0.404   7.043  0.3085  0.3525 -0.2213
  690MOL0     C93049   8.042   0.354   7.089  0.9492 -0.5643 -0.1098
  690MOL0     C93050   7.961   0.443   7.161  0.2830  0.3658  0.4839
  690MOL0     O93051   7.852   0.398   7.235 -0.3227 -0.1465  0.3432
  690MOL0     C93052   7.726   0.432   7.173 -0.6705 -1.2358 -0.4736
  690MOL0     C93053   7.628   0.446   7.297 -0.8062  1.3117 -0.3101
  690MOL0     C93054   7.507   0.530   7.254  0.6455 -0.6107  0.4299
  690MOL0     C93055   7.459   0.624   7.366 -0.9334 -0.0137  0.4898
  690MOL0     C93056   7.345   0.710   7.324  0.6096  0.6048  0.0194
  690MOL0     C93057   7.284   0.812   7.426 -0.1341 -1.1731 -1.2679
  690MOL0     C93058   7.195   0.913   7.357  0.7579  0.3724 -0.9219
  690MOL0     C93059   7.091   0.856   7.268 -0.7938 -0.4909 -0.2522
  690MOL0    Cl93060   6.961   0.771   7.348 -0.3009 -0.1685 -0.4728
  690MOL0     C93061   8.000   0.570   7.192 -0.2732 -0.5184  0.0643
  690MOL0     C93062   8.115   0.620   7.123 -0.0329 -0.0983 -0.7463
  690MOL0     O93063   8.485   0.431   7.020 -0.4645  0.4507 -0.3734
  690MOL0     C93064   8.516   0.785   7.071  0.1714 -0.1454  0.2927
  690MOL0     C93065   8.606   0.890   7.088 -0.7120 -0.2481  1.0214
  690MOL0     N93066   9.254   1.456   7.400 -0.3442  0.1008 -0.1466
  690MOL0     N93067   9.355   1.505   7.348  0.1449  0.1376  0.4919
  690MOL0     C93068  10.255   1.952   6.676 -0.4311 -1.1913 -0.7543
  690MOL0     C93069  10.341   2.044   6.740 -1.2013 -0.9582 -0.2476
  690MOL0     C93070  10.458   2.447   6.924  0.4905 -0.1532  0.3828
  690MOL0     C93071  10.443   2.584   6.899 -0.6163 -0.4208  0.0767
  690MOL0     C93072  10.532   2.681   6.946 -0.6459  0.9298  0.9801
  690MOL0     C93073  10.640   2.645   7.038 -0.4011  0.1300  1.0067
  690MOL0     O93074  10.716   2.746   7.093 -0.6165 -0.2172 -0.3675
  690MOL0     C93075  10.793   2.731   7.212  0.6841 -0.4562  0.2550
  690MOL0     C93076  10.884   2.854   7.227 -0.3180 -1.0925  0.3309
  690MOL0     C93077  10.932   2.889   7.372  0.0918  0.8964 -0.0742
  690MOL0     C93078  11.011   2.777   7.432 -0.0330  0.5271  0.5333
  690MOL0     C93079  11.126   2.745   7.338  0.6726 -0.0530 -1.2903
  690MOL0     C93080  11.217   2.736   7.256 -0.0921 -0.0329 -0.4140
  690MOL0     C93081  10.653   2.509   7.066 -0.3757 -0.2554  0.4852
  690MOL0     C93082  10.559   2.411   7.017 -0.0481 -1.0621  0.2829
  690MOL0     H93083  10.138   2.159   6.983  0.5488 -0.4435  1.5935
  690MOL0     H93084   9.989   1.995   6.886  0.7901 -0.9776  3.0026
  690MOL0     H93085   9.985   1.635   6.723 -0.3449 -0.6531  2.1584
  690MOL0     H93086  10.025   1.736   6.855  0.2930 -1.0390  0.5362
  690MOL0     H93087   9.817   1.855   6.861 -0.0881 -2.3886  1.8451
  690MOL0     H93088   9.806   1.852   6.687  1.5249  1.4586 -0.5522
  690MOL0     H93089   9.731   1.614   6.698  0.7673 -1.0746  0.3692
  690MOL0     H93090   9.749   1.599   6.880 -3.4859  0.2390  1.3744
  690MOL0     H93091   9.600   1.797   6.899 -7.3503  1.0270  0.4965
  690MOL0     H93092   9.563   1.798   6.728 -2.5312  1.9774  2.6496
  690MOL0     H93093   9.403   1.688   6.881  2.5288  1.2121  1.9399
  690MOL0     H93094   9.459   1.598   6.736 -1.6944 -2.9768  1.7045
  690MOL0     H93095   9.409   1.455   6.908  1.3546  0.0656 -3.3395
  690MOL0     H93096   9.584   1.450   6.912 -0.2481 -0.8051  2.5015
  690MOL0     H93097   9.591   1.619   7.086 -1.1110  0.5217  3.0394
  690MOL0     H93098   9.414   1.611   7.105 -0.6132  0.3154 -1.0899
  690MOL0     H93099   9.617   1.465   7.231  0.1230 -0.3290 -1.3077
  690MOL0     H93100   9.546   1.345   7.121 -3.1808 -0.3853 -1.0193
  690MOL0     H93101   9.347   1.207   7.212  1.0283 -0.5808  0.8553
  690MOL0     H93102   9.158   1.223   7.517  2.6720 -0.2038 -0.9806
  690MOL0     H93103   9.043   1.298   7.404 -0.3365  1.0964  1.4874
  690MOL0     H93104   9.128   1.017   7.393 -2.2699  0.8501  1.0920
  690MOL0     H93105   9.183   1.101   7.243 -0.9606 -1.2222 -1.2825
  690MOL0     H93106   8.951   1.193   7.235 -3.5850  0.2300  0.9886
  690MOL0     H93107   8.906   1.086   7.371  0.8167  2.8764  0.6814
  690MOL0     H93108   8.975   0.890   7.231  1.0080  0.1590 -0.5526
  690MOL0     H93109   9.026   1.008   7.110 -0.8540  1.7465 -0.6038
  690MOL0     H93110   8.895   0.735   7.104  1.1272 -2.0191 -3.0401
  690MOL0     H93111   8.868   0.501   7.101  0.5042  2.1559  0.3816
  690MOL0     H93112   8.702   0.422   7.082 -2.5995 -0.1880 -3.8903
  690MOL0     H93113   8.798   0.489   6.942  0.5462  3.0184 -0.6060
  690MOL0     H93114   8.255   0.345   7.003 -2.1850 -2.6088 -1.4843
  690MOL0     H93115   8.000   0.257   7.065  0.1501  0.5582 -3.9857
  690MOL0     H93116   7.733   0.525   7.115  1.2210 -1.8149 -1.2540
  690MOL0     H93117   7.706   0.344   7.111 -0.0918 -1.8794  0.2375
  690MOL0     H93118   7.604   0.349   7.340  5.0127 -0.3642  0.0676
  690MOL0     H93119   7.674   0.500   7.380  2.8602 -2.5448  0.5117
  690MOL0     H93120   7.420   0.467   7.232 -1.2577  1.8187  0.5424
  690MOL0     H93121   7.531   0.589   7.165 -0.1970 -3.2593 -1.7115
  690MOL0     H93122   7.441   0.574   7.461  0.5187 -0.6136  0.4640
  690MOL0     H93123   7.537   0.699   7.384 -1.4395  0.2299  1.7858
  690MOL0     H93124   7.264   0.648   7.285  0.6733  2.0261 -2.5524
  690MOL0     H93125   7.375   0.764   7.234  0.2894  1.6903  0.5397
  690MOL0     H93126   7.224   0.751   7.495  1.8342 -2.7523 -0.8516
  690MOL0     H93127   7.359   0.867   7.484 -2.0138 -1.6407  1.8197
  690MOL0     H93128   7.250   0.994   7.308  0.6364  0.7331 -0.4704
  690MOL0     H93129   7.157   0.962   7.447  2.2514  0.7687 -0.4693
  690MOL0     H93130   7.127   0.800   7.181 -0.4162  0.2733 -0.5933
  690MOL0     H93131   7.049   0.947   7.225  0.6055  0.3415  0.0995
  690MOL0     H93132   7.937   0.641   7.245  0.0857 -0.3738  0.3008
  690MOL0     H93133   8.143   0.724   7.139 -0.5260 -0.2539  1.4094
  690MOL0     H93134   8.408   0.799   7.070  0.3914  2.0865  1.3617
  690MOL0     H93135   8.558   0.987   7.095  0.8649  0.5923  0.6943
  690MOL0     H93136  10.288   1.903   6.585  1.0625  0.1121 -0.9584
  690MOL0     H93137  10.442   2.060   6.705 -0.1492  1.4880  3.3673
  690MOL0     H93138  10.364   2.616   6.831 -0.2793  0.2673  0.0012
  690MOL0     H93139  10.520   2.788   6.929  0.5981  0.9620  0.1653
  690MOL0     H93140  10.734   2.727   7.304  4.1561 -1.4850  2.6028
  690MOL0     H93141  10.851   2.639   7.213 -2.7394 -2.8073 -0.2905
  690MOL0     H93142  10.828   2.938   7.186 -0.0992 -0.2904  1.6186
  690MOL0     H93143  10.969   2.832   7.163  0.3779 -0.1078  0.8995
  690MOL0     H93144  10.846   2.911   7.435  1.5555  1.3950  1.8561
  690MOL0     H93145  10.991   2.981   7.370  0.3144  0.8832  2.7842
  690MOL0     H93146  10.947   2.689   7.448 -0.5613  0.7878 -0.1023
  690MOL0     H93147  11.055   2.808   7.527  0.8949 -1.6095  0.8838
  690MOL0     H93148  11.275   2.709   7.171 -0.7373 -3.3034  0.0208
  690MOL0     H93149  10.729   2.477   7.136 -0.7732 -1.0267  0.5760
  690MOL0     H93150  10.588   2.310   7.044  0.8109 -0.7995  0.3644
  691MOL0     O93151   5.593   2.772  10.851  0.1340  0.6845  0.3945
  691MOL0     C93152   5.530   2.668  10.829  0.4232 -0.0358  0.6098
  691MOL0     O93153   5.394   2.652  10.840 -0.3252  0.2325  0.4490
  691MOL0     C93154   5.320   2.767  10.855  0.0258  0.6145  0.2388
  691MOL0     C93155   5.247   2.820  10.752  0.3198  0.6393  0.6125
  691MOL0     C93156   5.170   2.942  10.767  0.1903 -0.0847 -0.5418
  691MOL0     C93157   5.179   3.014  10.894  1.4662 -0.4833  1.9739
  691MOL0     O93158   5.116   3.144  10.914  0.0555  0.4236 -0.7828
  691MOL0     C93159   4.978   3.163  10.867  0.1050  0.4613  1.0748
  691MOL0     C93160   4.925   3.303  10.920  0.4616 -0.4954  0.2777
  691MOL0     C93161   4.790   3.340  10.861 -0.2362 -0.3602 -0.0079
  691MOL0     C93162   4.752   3.486  10.889 -0.2244 -0.1407  0.8126
  691MOL0     C93163   4.622   3.521  10.811  0.1504 -0.7239  0.3700
  691MOL0     C93164   4.494   3.430  10.832  0.1159  0.7109 -0.1401
  691MOL0     C93165   4.381   3.496  10.757  0.3057  1.3049 -0.0209
  691MOL0     C93166   4.260   3.535  10.853 -0.6425 -0.5097  0.8481
  691MOL0     N93167   4.185   3.425  10.899  0.0658 -0.4399  0.5067
  691MOL0     C93168   4.230   3.324  10.987  0.1004 -0.3683  0.6927
  691MOL0     C93169   4.131   3.249  11.023  0.3143 -0.5701 -0.4800
  691MOL0     C93170   4.131   3.130  11.124  0.3144  0.4888 -0.6345
  691MOL0     C93171   4.195   3.184  11.254  0.0649 -0.0313 -0.2356
  691MOL0     C93172   4.191   3.089  11.376 -0.0261  0.2056 -0.1892
  691MOL0     C93173   4.291   3.117  11.482 -0.0167  0.1735  0.0098
  691MOL0     O93174   4.424   3.086  11.448 -0.4691  0.3352 -0.0332
  691MOL0     C93175   4.521   3.104  11.541 -0.7839 -0.3479  0.1408
  691MOL0     C93176   4.509   3.134  11.680 -0.3812  0.3073 -0.2957
  691MOL0     C93177   4.623   3.141  11.766  0.1516 -0.6768 -0.1071
  691MOL0     C93178   4.598   3.192  11.908 -0.5591  0.7236 -0.7266
  691MOL0     C93179   4.755   3.126  11.712  0.7544  0.1436 -0.0689
  691MOL0     C93180   4.884   3.160  11.775 -0.5112  0.0603  0.6064
  691MOL0     O93181   4.999   3.132  11.703  0.7347 -0.2964  0.1660
  691MOL0     C93182   5.114   3.108  11.771  0.3053  0.1744 -0.4126
  691MOL0     C93183   5.154   2.980  11.807  1.4213  0.2200 -0.0603
  691MOL0     C93184   5.283   2.963  11.859 -0.5703  0.6473 -0.1662
  691MOL0     C93185   5.360   3.069  11.907  0.1650 -1.6754  1.2582
  691MOL0     O93186   5.480   3.049  11.968  0.6100 -0.0353  0.5455
  691MOL0     C93187   5.594   3.096  11.912 -0.0376 -0.0071  0.5129
  691MOL0     C93188   5.701   3.089  12.025 -0.7125  0.5191 -0.1127
  691MOL0     C93189   5.648   3.175  12.145 -0.1128 -0.5138  0.2014
  691MOL0     C93190   5.737   3.295  12.173  0.8711  0.5258 -0.5793
  691MOL0     C93191   5.706   3.320  12.321 -0.6009  0.7393  0.2622
  691MOL0     C93192   5.778   3.444  12.366  0.6993  0.1192  0.5456
  691MOL0     C93193   5.930   3.454  12.342 -1.0763 -0.9145 -0.0828
  691MOL0     C93194   5.980   3.563  12.431  0.8751  0.4992  0.4196
  691MOL0    Cl93195   6.149   3.604  12.416  0.1056  0.2904 -0.3779
  691MOL0     C93196   5.310   3.198  11.890  0.2383 -0.7309  0.4359
  691MOL0     C93197   5.189   3.218  11.816  0.2942 -0.5538 -0.3619
  691MOL0     O93198   4.885   3.223  11.881  0.5961 -0.1767 -0.1914
  691MOL0     C93199   4.766   3.086  11.579  0.1494 -0.5194 -0.7472
  691MOL0     C93200   4.652   3.076  11.496 -0.6366 -1.7792 -0.5675
  691MOL0     N93201   4.014   3.312  10.969 -0.1179  0.0362 -0.1368
  691MOL0     N93202   4.050   3.404  10.888 -0.3356  0.0090 -0.0048
  691MOL0     C93203   5.266   2.962  10.984  0.7625 -0.1981  0.0268
  691MOL0     C93204   5.331   2.838  10.974  0.8349  0.2631  0.6994
  691MOL0     C93205   5.608   2.550  10.791 -0.0830 -0.0471  0.4293
  691MOL0     C93206   5.719   2.567  10.708  0.2264  0.6038  0.1601
  691MOL0     C93207   5.785   2.448  10.679 -0.7230 -0.0876  0.4547
  691MOL0     C93208   5.742   2.323  10.716  0.4491  0.2585 -0.0624
  691MOL0     O93209   5.830   2.221  10.681  0.1452  0.9777 -0.4291
  691MOL0     C93210   5.783   2.087  10.704 -1.0451  0.6011 -0.1114
  691MOL0     C93211   5.872   1.992  10.622  0.3964  0.2169 -0.2671
  691MOL0     C93212   6.016   1.992  10.652  0.5467 -0.2323  0.5132
  691MOL0     C93213   6.076   1.906  10.767 -0.2170 -0.0050 -0.8401
  691MOL0     C93214   6.027   1.770  10.762 -0.6799 -0.4792  0.3255
  691MOL0     C93215   6.006   1.657  10.748  0.5468 -0.0701  0.3735
  691MOL0     C93216   5.640   2.304  10.807  0.8055  0.3671  0.2196
  691MOL0     C93217   5.578   2.425  10.845  1.5101  0.6164 -0.1737
  691MOL0     H93218   5.237   2.766  10.658  0.7241  1.6163 -0.0138
  691MOL0     H93219   5.099   2.983  10.696 -1.2262 -0.1987  0.7593
  691MOL0     H93220   4.970   3.167  10.758  0.6084  2.5317  1.0730
  691MOL0     H93221   4.916   3.078  10.895  1.1660  0.3050  3.1159
  691MOL0     H93222   4.912   3.287  11.028  0.0178 -0.2128  0.2664
  691MOL0     H93223   4.998   3.382  10.898 -1.3969  0.4357 -3.2290
  691MOL0     H93224   4.789   3.339  10.751 -1.8838  1.4788 -0.0747
  691MOL0     H93225   4.724   3.260  10.891 -1.9142 -0.1605 -2.7862
  691MOL0     H93226   4.725   3.496  10.994 -1.2570 -3.9785  1.0761
  691MOL0     H93227   4.832   3.554  10.860 -0.3159 -0.8153 -1.1809
  691MOL0     H93228   4.597   3.624  10.838 -3.1032 -1.2104 -0.2837
  691MOL0     H93229   4.629   3.528  10.702 -1.2692 -1.0053  0.2366
  691MOL0     H93230   4.522   3.328  10.801 -2.2595 -0.9911  2.8112
  691MOL0     H93231   4.469   3.415  10.937 -0.4367 -2.0821 -0.5799
  691MOL0     H93232   4.418   3.585  10.705 -0.3981  1.0993 -0.8853
  691MOL0     H93233   4.330   3.424  10.693 -1.7079  1.7637  0.9984
  691MOL0     H93234   4.207   3.614  10.798  1.6811  1.7416  1.6463
  691MOL0     H93235   4.300   3.591  10.938 -1.0771  2.2431 -0.6022
  691MOL0     H93236   4.334   3.316  11.015 -0.2554  1.2688  2.7272
  691MOL0     H93237   4.029   3.096  11.146  0.9085 -0.7108  0.4008
  691MOL0     H93238   4.179   3.037  11.091 -1.0168 -1.0109  1.3932
  691MOL0     H93239   4.130   3.268  11.278 -0.4561 -0.1198 -1.2540
  691MOL0     H93240   4.295   3.220  11.226 -0.6273  0.5892 -2.1054
  691MOL0     H93241   4.194   2.982  11.352 -1.8276 -0.0206  0.4795
  691MOL0     H93242   4.098   3.107  11.430 -0.1159  1.6369 -0.7607
  691MOL0     H93243   4.263   3.056  11.568 -1.2360 -1.8551 -1.7218
  691MOL0     H93244   4.284   3.219  11.520  2.6810 -0.4121  2.3370
  691MOL0     H93245   4.407   3.135  11.717 -0.1764 -0.1890  0.2967
  691MOL0     H93246   4.501   3.243  11.906  1.0213  4.1369  0.9563
  691MOL0     H93247   4.609   3.103  11.970  2.1733  1.9906  0.8056
  691MOL0     H93248   4.676   3.261  11.943  0.6300 -1.3063  0.8654
  691MOL0     H93249   5.080   2.905  11.784  1.3836  0.3046 -0.2164
  691MOL0     H93250   5.297   2.857  11.878 -5.1770  0.1411  1.9921
  691MOL0     H93251   5.637   3.023  11.843  0.0284  0.1554  0.3805
  691MOL0     H93252   5.588   3.192  11.860 -2.6641 -0.4230 -0.1008
  691MOL0     H93253   5.712   2.984  12.053  2.2546  0.2383 -1.9243
  691MOL0     H93254   5.800   3.127  11.998  0.5392 -1.3218  1.6540
  691MOL0     H93255   5.634   3.099  12.223 -1.5642 -0.9200 -0.4209
  691MOL0     H93256   5.552   3.223  12.122  0.8948  1.0535 -0.8720
  691MOL0     H93257   5.841   3.265  12.160  0.4446 -0.5007 -1.9362
  691MOL0     H93258   5.712   3.380  12.108 -1.7724  1.0928  1.0176
  691MOL0     H93259   5.743   3.231  12.371  2.2773  0.7535 -1.5661
  691MOL0     H93260   5.598   3.334  12.336 -0.3669  0.9025  1.9934
  691MOL0     H93261   5.722   3.524  12.317 -2.8325 -2.0122  0.6853
  691MOL0     H93262   5.765   3.450  12.475  1.1431 -0.9078  0.6728
  691MOL0     H93263   5.965   3.477  12.241  1.7910  2.4334  1.4580
  691MOL0     H93264   5.970   3.360  12.382  0.6331  0.7913  2.4721
  691MOL0     H93265   5.960   3.541  12.536  3.0528  1.2839  1.0683
  691MOL0     H93266   5.924   3.655  12.412 -0.8356 -0.4875  0.5704
  691MOL0     H93267   5.363   3.287  11.920 -1.8036  0.9687 -0.7277
  691MOL0     H93268   5.151   3.318  11.796 -0.1085 -0.6262  0.0146
  691MOL0     H93269   4.851   3.068  11.514 -0.3526  2.9886 -2.6658
  691MOL0     H93270   4.659   3.046  11.392 -2.5740 -2.6759 -0.4797
  691MOL0     H93271   5.279   3.022  11.073  1.1087 -0.1283 -0.0703
  691MOL0     H93272   5.399   2.802  11.051 -2.0178 -2.7860  2.0214
  691MOL0     H93273   5.750   2.665  10.672 -0.9492  1.5947  1.7303
  691MOL0     H93274   5.875   2.459  10.621 -1.7553  0.8571 -1.0338
  691MOL0     H93275   5.784   2.055  10.809 -2.5890 -0.3193 -0.3395
  691MOL0     H93276   5.685   2.065  10.659 -0.3359 -0.1031 -1.3631
  691MOL0     H93277   5.868   2.016  10.516  1.1289  1.5093 -0.0226
  691MOL0     H93278   5.839   1.889  10.642 -1.3534  0.7066 -0.4960
  691MOL0     H93279   6.042   2.095  10.676  2.8343 -1.6050  4.9845
  691MOL0     H93280   6.069   1.957  10.562  0.1168  2.0629 -0.7121
  691MOL0     H93281   6.057   1.956  10.863 -0.5383  0.7476 -1.2868
  691MOL0     H93282   6.185   1.903  10.759 -0.2194 -0.9153 -0.5750
  691MOL0     H93283   5.986   1.554  10.731 -0.7820  0.4896 -1.7800
  691MOL0     H93284   5.604   2.210  10.847  0.6702 -0.5205 -1.8937
  691MOL0     H93285   5.496   2.417  10.915  2.4193 -0.0398  0.8628
  692MOL0     O93286  11.354   7.182  10.056 -0.6961 -0.0502 -0.1103
  692MOL0     C93287  11.382   7.199  10.177  0.4201 -0.0970  0.2170
  692MOL0     O93288  11.381   7.099  10.276 -0.1867  0.8091  0.5648
  692MOL0     C93289  11.315   6.982  10.237  0.1545 -1.1513  0.2988
  692MOL0     C93290  11.380   6.860  10.243  0.0514  0.1774  0.1700
  692MOL0     C93291  11.309   6.734  10.199 -0.4044 -1.1880 -0.5426
  692MOL0     C93292  11.179   6.741  10.148 -0.0217  0.4503  0.0957
  692MOL0     O93293  11.131   6.623  10.102  0.3359 -0.1601 -0.5545
  692MOL0     C93294  10.993   6.627  10.061 -0.4724  0.2944  0.7416
  692MOL0     C93295  10.944   6.494  10.019 -1.2210  0.3038  0.3300
  692MOL0     C93296  10.940   6.398  10.125  0.1361  0.0383 -0.1336
  692MOL0     C93297  10.863   6.275  10.083 -0.1000 -0.1976  0.3641
  692MOL0     C93298  10.889   6.160  10.187  0.3632  0.4452 -0.1873
  692MOL0     C93299  10.760   6.089  10.243  0.4619  0.3652  0.2387
  692MOL0     C93300  10.800   5.990  10.352 -0.2793  0.2392 -0.5119
  692MOL0     C93301  10.688   5.969  10.451  0.2574 -0.4814 -0.0813
  692MOL0     N93302  10.696   6.085  10.548  0.7348  0.7109  1.1371
  692MOL0     C93303  10.607   6.196  10.544  0.5044  0.0038  0.4587
  692MOL0     C93304  10.666   6.273  10.649  0.6559  0.6170  0.7543
  692MOL0     C93305  10.630   6.419  10.676 -0.4775 -0.0830  0.3200
  692MOL0     C93306  10.630   6.487  10.550  0.6999  0.5010  0.0764
  692MOL0     C93307  10.598   6.631  10.578  0.2407 -0.0005  0.9397
  692MOL0     C93308  10.609   6.724  10.447 -0.4066  0.3862  0.3582
  692MOL0     O93309  10.749   6.734  10.414  0.3239 -0.0246 -0.1054
  692MOL0     C93310  10.826   6.830  10.462 -0.4699  0.6135 -0.1350
  692MOL0     C93311  10.781   6.934  10.550 -0.8466 -0.6038  0.6034
  692MOL0     C93312  10.877   7.018  10.606 -0.4706 -0.7797  0.6249
  692MOL0     C93313  10.827   7.130  10.708  1.4976  0.5493  0.4558
  692MOL0     C93314  11.012   7.007  10.587 -0.4169 -0.3295  0.4360
  692MOL0     C93315  11.114   7.086  10.653  0.5223 -0.1623 -0.6634
  692MOL0     O93316  11.219   7.109  10.572 -0.7090  0.3193  0.1975
  692MOL0     C93317  11.327   7.177  10.622  0.8886 -0.2888  0.0623
  692MOL0     C93318  11.298   7.305  10.666 -0.4148 -0.9127 -0.6125
  692MOL0     C93319  11.401   7.389  10.721 -0.1157 -0.5090  0.2323
  692MOL0     C93320  11.529   7.345  10.700  0.2032  0.4016  0.0402
  692MOL0     O93321  11.634   7.415  10.759 -0.0580 -0.0930 -0.2334
  692MOL0     C93322  11.615   7.410  10.903 -0.5201 -0.5022  0.3603
  692MOL0     C93323  11.722   7.500  10.975 -0.4630  0.0421  1.7023
  692MOL0     C93324  11.700   7.644  10.923 -0.5546 -0.0991 -0.7958
  692MOL0     C93325  11.807   7.737  10.986  0.8399  0.4904  0.1718
  692MOL0     C93326  11.803   7.884  10.934  0.0278 -0.4226  0.0748
  692MOL0     C93327  11.846   7.997  11.025 -0.7185 -0.2626 -0.1499
  692MOL0     C93328  12.002   7.989  11.020  0.2923 -0.1072 -0.2413
  692MOL0     C93329  12.064   8.103  11.093 -0.6306 -0.3777 -1.2671
  692MOL0    Cl93330  12.239   8.057  11.136 -0.5195 -0.0557  0.2028
  692MOL0     C93331  11.554   7.216  10.654 -1.0073 -0.9040  0.2405
  692MOL0     C93332  11.454   7.124  10.623 -0.1655 -0.3399  0.1991
  692MOL0     O93333  11.095   7.130  10.766  0.5300  0.1945 -0.3882
  692MOL0     C93334  11.049   6.905  10.499 -0.0085 -0.2725  0.4826
  692MOL0     C93335  10.962   6.819  10.432  0.7481  0.6309  0.4059
  692MOL0     N93336  10.769   6.200  10.705 -0.7062 -0.0391 -0.1502
  692MOL0     N93337  10.779   6.090  10.649 -0.4509  0.9041 -0.5914
  692MOL0     C93338  11.114   6.864  10.141  0.2519 -0.2419 -0.5935
  692MOL0     C93339  11.182   6.985  10.184  0.4150  0.1697  0.6371
  692MOL0     C93340  11.438   7.335  10.210  0.1025  0.0220 -0.6587
  692MOL0     C93341  11.459   7.366  10.340 -0.0454  1.1379 -0.0984
  692MOL0     C93342  11.534   7.482  10.380 -0.6954 -0.6270  0.7321
  692MOL0     C93343  11.552   7.575  10.282  0.8104  0.3067 -0.9572
  692MOL0     O93344  11.604   7.694  10.329 -0.2907  0.6112 -0.2166
  692MOL0     C93345  11.736   7.727  10.301 -0.5871 -1.1434 -0.4410
  692MOL0     C93346  11.798   7.824  10.399  0.3622 -0.0645  0.3990
  692MOL0     C93347  11.785   7.789  10.550 -0.0891 -0.3519 -0.0212
  692MOL0     C93348  11.899   7.697  10.599 -0.8865  0.1580 -0.1242
  692MOL0     C93349  12.031   7.765  10.620  0.0207  0.2528 -0.1279
  692MOL0     C93350  12.129   7.842  10.625 -0.2788  0.1343  0.9975
  692MOL0     C93351  11.527   7.558  10.151  0.1319 -0.5209  0.4758
  692MOL0     C93352  11.477   7.430  10.119 -0.1716  0.0896  0.2319
  692MOL0     H93353  11.481   6.871  10.281  0.4525 -1.4567 -0.3443
  692MOL0     H93354  11.358   6.637  10.197 -0.6648 -1.4463  2.1663
  692MOL0     H93355  10.920   6.661  10.135 -1.3359  1.6670 -0.6974
  692MOL0     H93356  10.981   6.705   9.987  1.3260  0.7511  0.8708
  692MOL0     H93357  10.839   6.510   9.991 -1.2362 -0.9962 -0.4170
  692MOL0     H93358  10.997   6.444   9.938 -0.2294 -3.7299  3.1949
  692MOL0     H93359  11.047   6.378  10.141  1.0008  3.6363 -0.4023
  692MOL0     H93360  10.898   6.442  10.216 -2.3300 -1.4181 -0.4913
  692MOL0     H93361  10.756   6.294  10.094 -0.1844 -0.5077  0.0834
  692MOL0     H93362  10.894   6.248   9.982 -0.5567 -1.6176  0.5652
  692MOL0     H93363  10.960   6.088  10.144  0.9245  1.5870 -1.2630
  692MOL0     H93364  10.929   6.205  10.279  3.3118 -3.4911  0.7365
  692MOL0     H93365  10.689   6.161  10.283 -0.5325 -1.0957  1.2096
  692MOL0     H93366  10.707   6.036  10.163 -0.4198 -1.8730  2.2116
  692MOL0     H93367  10.822   5.892  10.310  0.6331 -0.2165  0.9549
  692MOL0     H93368  10.892   6.020  10.402 -1.2397  0.6590  1.0904
  692MOL0     H93369  10.713   5.874  10.500  0.5009  0.0837  0.9303
  692MOL0     H93370  10.591   5.973  10.401  2.2131  2.5117 -4.1963
  692MOL0     H93371  10.540   6.234  10.468 -0.0090 -2.1033 -0.2163
  692MOL0     H93372  10.537   6.423  10.732 -0.9205  4.8981 -0.3564
  692MOL0     H93373  10.716   6.449  10.736 -2.6843  0.1211  3.6062
  692MOL0     H93374  10.550   6.449  10.485 -1.1273  0.2543  2.3148
  692MOL0     H93375  10.726   6.489  10.498 -0.1084  0.7290 -1.4919
  692MOL0     H93376  10.676   6.659  10.649  0.7749 -1.4048  0.9311
  692MOL0     H93377  10.496   6.652  10.612  1.2342  2.3042  2.7791
  692MOL0     H93378  10.559   6.813  10.485  1.6436  0.4722  3.0859
  692MOL0     H93379  10.558   6.680  10.361 -0.0908  3.2941 -1.4519
  692MOL0     H93380  10.680   6.964  10.576 -0.2949  0.9680  1.0767
  692MOL0     H93381  10.877   7.223  10.680  0.3916  0.9383 -0.3052
  692MOL0     H93382  10.718   7.126  10.693  1.9436 -1.2397 -3.8444
  692MOL0     H93383  10.858   7.087  10.804 -0.1011 -0.7323  0.4611
  692MOL0     H93384  11.199   7.349  10.663  0.3201  0.9946  1.1088
  692MOL0     H93385  11.388   7.486  10.767 -1.3568 -2.3582  4.3017
  692MOL0     H93386  11.515   7.439  10.934  0.2219  2.8252 -0.0122
  692MOL0     H93387  11.633   7.311  10.947 -0.2607 -1.2399 -1.3297
  692MOL0     H93388  11.699   7.502  11.081 -6.0744 -0.5813  0.7850
  692MOL0     H93389  11.822   7.459  10.956 -0.2071  2.1178 -3.0808
  692MOL0     H93390  11.600   7.675  10.954 -0.6717 -1.3461  0.1366
  692MOL0     H93391  11.718   7.656  10.816 -0.1781 -1.8612 -0.9591
  692MOL0     H93392  11.782   7.743  11.093 -3.3854  0.1096 -0.6389
  692MOL0     H93393  11.901   7.685  10.965 -0.2911 -1.8597  0.6016
  692MOL0     H93394  11.699   7.898  10.902  0.2121 -1.9263 -1.3224
  692MOL0     H93395  11.851   7.897  10.836 -0.7798  0.9607 -0.1623
  692MOL0     H93396  11.827   8.091  10.971  1.7626  0.7422  0.5834
  692MOL0     H93397  11.799   7.969  11.119  1.9408 -1.1457  1.0059
  692MOL0     H93398  12.052   7.985  10.923 -0.4396 -3.8699 -0.6208
  692MOL0     H93399  12.024   7.894  11.069 -3.3477 -0.0523  1.8759
  692MOL0     H93400  12.015   8.133  11.186  1.9465 -0.4444  0.2094
  692MOL0     H93401  12.066   8.197  11.038 -0.8733  0.2177 -0.2661
  692MOL0     H93402  11.654   7.178  10.671 -1.1803 -1.7431 -0.5314
  692MOL0     H93403  11.465   7.020  10.593 -2.2235 -0.4701 -0.2508
  692MOL0     H93404  11.152   6.873  10.483 -0.3511 -0.4641 -1.6610
  692MOL0     H93405  10.987   6.726  10.382  2.1625  0.4391  1.3983
  692MOL0     H93406  11.010   6.876  10.109 -0.4401 -1.6886  0.9813
  692MOL0     H93407  11.123   7.075  10.180  0.5236  0.3375  2.1342
  692MOL0     H93408  11.441   7.292  10.417  1.9911  2.0116  1.3107
  692MOL0     H93409  11.547   7.511  10.484  1.3814  2.3014 -0.2236
  692MOL0     H93410  11.789   7.632  10.299 -0.6813 -1.1968 -0.4261
  692MOL0     H93411  11.728   7.782  10.207  0.9323  0.7370  0.4751
  692MOL0     H93412  11.751   7.922  10.390  0.4933  0.0031  0.4583
  692MOL0     H93413  11.906   7.834  10.384  0.3780  1.5672  1.4716
  692MOL0     H93414  11.689   7.742  10.571 -0.5187  0.2321 -0.6511
  692MOL0     H93415  11.798   7.884  10.604  1.5595 -1.1985  1.1852
  692MOL0     H93416  11.911   7.627  10.516  0.2404 -1.2287  1.1443
  692MOL0     H93417  11.871   7.645  10.691  3.2597  1.3414  2.0877
  692MOL0     H93418  12.209   7.912  10.616 -2.0289  2.0207 -1.1474
  692MOL0     H93419  11.519   7.639  10.079 -3.4172 -0.6787  0.4927
  692MOL0     H93420  11.440   7.421  10.017  1.7580  1.8893 -0.7131
  693MOL0     O93421   8.752   7.710  10.113  0.0319  0.2366 -0.2799
  693MOL0     C93422   8.872   7.716  10.095 -0.6278 -0.6733 -0.0354
  693MOL0     O93423   8.967   7.624  10.149 -0.2213  0.3833 -0.2067
  693MOL0     C93424   8.927   7.518  10.228 -1.1199  0.3809  0.1388
  693MOL0     C93425   9.012   7.482  10.336  0.0252  0.5389 -0.6165
  693MOL0     C93426   8.989   7.367  10.408  0.9003 -0.7442 -0.2272
  693MOL0     C93427   8.881   7.285  10.374  0.1087  1.0316 -0.1412
  693MOL0     O93428   8.858   7.160  10.428 -0.3233 -0.6230  0.0910
  693MOL0     C93429   8.906   7.148  10.571  0.6690 -0.9527 -0.0701
  693MOL0     C93430   8.805   7.064  10.658  0.5898 -0.4513  1.2880
  693MOL0     C93431   8.828   6.911  10.653  0.7632  0.4179  0.4890
  693MOL0     C93432   8.725   6.847  10.740 -0.2674 -0.0079  1.4665
  693MOL0     C93433   8.746   6.695  10.773  0.2536  0.3578 -1.0021
  693MOL0     C93434   8.660   6.661  10.888  0.2375  0.1945 -0.4815
  693MOL0     C93435   8.695   6.519  10.939  0.2842  0.1487 -0.5560
  693MOL0     C93436   8.599   6.476  11.045  0.6900  0.1671 -0.6736
  693MOL0     N93437   8.610   6.567  11.166  0.6679  0.0948 -0.2965
  693MOL0     C93438   8.668   6.542  11.287  0.2985 -0.6431 -0.0461
  693MOL0     C93439   8.647   6.647  11.366  0.4560 -0.3329 -0.6260
  693MOL0     C93440   8.713   6.662  11.500 -0.0323  0.0347  0.8806
  693MOL0     C93441   8.600   6.634  11.595  0.4548  0.3709  0.2235
  693MOL0     C93442   8.651   6.624  11.743 -0.0567  0.2364  0.9914
  693MOL0     C93443   8.636   6.484  11.789 -0.6678  1.0814  0.6811
  693MOL0     O93444   8.505   6.437  11.804  0.7303 -0.4444  0.2146
  693MOL0     C93445   8.446   6.483  11.916  1.1380  0.1665  0.2595
  693MOL0     C93446   8.458   6.408  12.034  0.4550 -0.7760 -0.3445
  693MOL0     C93447   8.390   6.445  12.151  0.2571  0.1797 -0.0447
  693MOL0     C93448   8.437   6.365  12.264 -0.1687 -0.3635 -0.0348
  693MOL0     C93449   8.308   6.573  12.143 -0.0556  1.3814 -0.1834
  693MOL0     C93450   8.251   6.643  12.263 -0.2588  0.2167  0.7202
  693MOL0     O93451   8.301   6.610  12.391 -0.2853  0.1898  0.0450
  693MOL0     C93452   8.232   6.672  12.499 -0.4518  1.4105 -0.0286
  693MOL0     C93453   8.160   6.593  12.590  0.9701 -0.5230 -0.2495
  693MOL0     C93454   8.092   6.658  12.706 -0.1226  0.3592  0.5761
  693MOL0     C93455   8.087   6.795  12.725  0.5363 -0.3339 -0.0715
  693MOL0     O93456   8.031   6.861  12.834 -0.0913  0.3403  0.2896
  693MOL0     C93457   7.975   6.989  12.797  0.5318 -0.2346  0.2407
  693MOL0     C93458   7.893   7.034  12.911 -0.0133 -0.8082  0.3822
  693MOL0     C93459   7.856   7.180  12.892 -0.2000 -0.4926  1.2453
  693MOL0     C93460   7.812   7.222  12.750 -0.0100  0.2767  0.7734
  693MOL0     C93461   7.764   7.373  12.752 -0.5206  0.2942  0.5567
  693MOL0     C93462   7.870   7.487  12.768 -0.0439  0.0465  0.0980
  693MOL0     C93463   7.982   7.469  12.677  0.0712 -0.0245 -0.6878
  693MOL0     C93464   8.090   7.567  12.697 -0.8190 -0.2002  0.1324
  693MOL0    Cl93465   8.163   7.548  12.860 -0.1044  0.0806 -0.1120
  693MOL0     C93466   8.161   6.862  12.621  0.3307  0.1579 -1.2236
  693MOL0     C93467   8.229   6.807  12.519 -0.1042  0.3984  0.1844
  693MOL0     O93468   8.173   6.735  12.249  0.4205 -0.4805  0.3784
  693MOL0     C93469   8.282   6.636  12.019 -0.0265 -0.4349 -0.0839
  693MOL0     C93470   8.363   6.596  11.912  0.7600 -0.7953  1.1958
  693MOL0     N93471   8.559   6.731  11.302  0.1691 -1.2011 -0.5477
  693MOL0     N93472   8.533   6.683  11.181 -0.7452  0.4046  0.3389
  693MOL0     C93473   8.799   7.311  10.268  0.2896  0.4709  0.2336
  693MOL0     C93474   8.824   7.426  10.192  0.0399  0.6701  1.8687
  693MOL0     C93475   8.923   7.829  10.021 -0.1010  0.4142  0.2006
  693MOL0     C93476   8.828   7.924   9.972  0.4284  0.2605  0.0951
  693MOL0     C93477   8.884   8.046   9.917  0.5225 -0.4585  0.3310
  693MOL0     C93478   9.022   8.071   9.886 -1.1844 -0.5891 -0.0601
  693MOL0     O93479   9.061   8.174   9.803  0.0613 -0.7295  0.1729
  693MOL0     C93480   9.190   8.223   9.796 -1.1316 -0.6840 -0.9889
  693MOL0     C93481   9.254   8.266   9.939  0.5929 -1.2613  0.1210
  693MOL0     C93482   9.183   8.392   9.995 -0.6701 -0.0009 -0.1861
  693MOL0     C93483   9.267   8.451  10.102  0.7215 -0.2127 -0.1615
  693MOL0     C93484   9.400   8.500  10.051  0.7714  0.4976 -0.6897
  693MOL0     C93485   9.503   8.541  10.013 -1.1788  0.2016 -0.0150
  693MOL0     C93486   9.103   7.964   9.922 -0.5346  0.1606  0.0537
  693MOL0     C93487   9.061   7.860  10.006  0.2191  0.6873  0.6017
  693MOL0     H93488   9.103   7.535  10.363  0.4744 -0.6105  0.1754
  693MOL0     H93489   9.060   7.333  10.482  0.5983  0.6633  0.7470
  693MOL0     H93490   9.008   7.110  10.578 -0.1709 -3.9576 -2.2378
  693MOL0     H93491   8.888   7.250  10.607 -3.5730 -0.9189 -1.7544
  693MOL0     H93492   8.820   7.071  10.766  0.7478 -2.8964  1.5007
  693MOL0     H93493   8.702   7.088  10.630  0.5781 -0.2377  1.5193
  693MOL0     H93494   8.825   6.880  10.548 -0.8286 -0.7375  0.8361
  693MOL0     H93495   8.928   6.897  10.694  1.4532  3.4904  0.0981
  693MOL0     H93496   8.721   6.906  10.832  0.0010  1.2659  0.6837
  693MOL0     H93497   8.632   6.863  10.685  1.3732  0.8734 -1.2290
  693MOL0     H93498   8.722   6.626  10.691  1.0748 -0.7926 -0.3111
  693MOL0     H93499   8.849   6.683  10.807 -0.6352 -1.1078  1.4629
  693MOL0     H93500   8.667   6.728  10.974 -2.3632 -1.1961  0.9334
  693MOL0     H93501   8.560   6.654  10.845 -0.5383 -3.7377  1.5359
  693MOL0     H93502   8.694   6.443  10.860 -1.2211  0.1443 -0.5461
  693MOL0     H93503   8.799   6.518  10.976  1.0839 -0.0131 -2.6739
  693MOL0     H93504   8.625   6.371  11.061 -0.3162  0.0505  0.3667
  693MOL0     H93505   8.499   6.478  11.002 -0.0400 -0.1230  0.9391
  693MOL0     H93506   8.740   6.465  11.312  0.4322 -1.1885 -1.9341
  693MOL0     H93507   8.792   6.586  11.508 -0.3842 -0.3660  0.5241
  693MOL0     H93508   8.772   6.755  11.506  2.2735 -1.3240  0.5446
  693MOL0     H93509   8.534   6.555  11.559  1.7909 -0.7983  0.2847
  693MOL0     H93510   8.527   6.715  11.600 -2.5557 -2.1413 -0.3466
  693MOL0     H93511   8.594   6.696  11.802 -1.3098 -1.9913  2.6421
  693MOL0     H93512   8.755   6.658  11.739  0.3228 -0.9813 -1.4106
  693MOL0     H93513   8.692   6.460  11.880 -2.3438 -0.6723  1.3183
  693MOL0     H93514   8.684   6.425  11.711 -0.7811  1.7328  0.1082
  693MOL0     H93515   8.527   6.325  12.038  0.9383 -0.3467  3.2254
  693MOL0     H93516   8.369   6.391  12.345  0.6942  0.3217  0.4914
  693MOL0     H93517   8.432   6.257  12.251 -0.1978 -1.0468  4.3804
  693MOL0     H93518   8.540   6.393  12.287  0.5832 -3.0316  0.1247
  693MOL0     H93519   8.138   6.487  12.579  1.7044 -0.8742  1.4277
  693MOL0     H93520   8.048   6.605  12.790  0.9771  0.5918  1.3206
  693MOL0     H93521   8.053   7.058  12.765  1.4458 -0.0302  2.6753
  693MOL0     H93522   7.917   6.961  12.709  3.6806 -3.0757 -1.0964
  693MOL0     H93523   7.803   6.973  12.917 -1.3390  1.1803  3.8532
  693MOL0     H93524   7.956   7.016  12.998 -0.0570 -1.6725  0.2446
  693MOL0     H93525   7.943   7.242  12.914 -1.0925  2.4600 -2.5958
  693MOL0     H93526   7.777   7.205  12.964  0.8342 -2.9433  3.4395
  693MOL0     H93527   7.900   7.206  12.687  1.9941  1.7422  3.0468
  693MOL0     H93528   7.738   7.158  12.699  1.8711  0.3576 -2.3588
  693MOL0     H93529   7.691   7.392  12.831 -0.7238 -1.0463  0.7123
  693MOL0     H93530   7.719   7.402  12.656  1.2506  1.1726 -0.0572
  693MOL0     H93531   7.832   7.590  12.766 -0.2591 -0.0375 -0.1460
  693MOL0     H93532   7.911   7.478  12.869  0.2174  3.6626  0.4476
  693MOL0     H93533   7.946   7.477  12.574 -0.6884 -1.3325 -0.5408
  693MOL0     H93534   8.021   7.367  12.684 -1.2786 -0.4304  1.6329
  693MOL0     H93535   8.063   7.673  12.686 -2.4019 -0.2908  2.3990
  693MOL0     H93536   8.161   7.533  12.622 -0.1688 -0.1790  0.7260
  693MOL0     H93537   8.182   6.968  12.633  3.6082 -0.5786  0.7484
  693MOL0     H93538   8.303   6.849  12.451  0.3018 -2.6194 -1.3928
  693MOL0     H93539   8.202   6.709  12.015 -1.5945 -1.8568  2.4394
  693MOL0     H93540   8.373   6.656  11.822  3.8950 -0.7877  1.4269
  693MOL0     H93541   8.726   7.235  10.242 -0.8281  0.8118  2.1923
  693MOL0     H93542   8.762   7.441  10.105 -0.8493 -1.5552  2.0360
  693MOL0     H93543   8.721   7.912   9.968  0.5293 -0.3785 -1.5287
  693MOL0     H93544   8.814   8.117   9.874  1.7123 -0.3337 -1.5101
  693MOL0     H93545   9.255   8.147   9.754 -1.1415 -1.4308  0.3027
  693MOL0     H93546   9.195   8.304   9.722  0.9062 -1.0390 -1.2935
  693MOL0     H93547   9.360   8.285   9.923  0.0840  0.5841 -1.4947
  693MOL0     H93548   9.244   8.184  10.010 -1.1637 -1.8062 -0.6779
  693MOL0     H93549   9.098   8.353  10.051 -0.3872  1.0607  1.0323
  693MOL0     H93550   9.153   8.460   9.914  1.2584  0.8014 -0.2626
  693MOL0     H93551   9.283   8.374  10.178  1.8098 -0.0946 -0.2480
  693MOL0     H93552   9.210   8.533  10.148 -1.1922 -2.7900  2.3941
  693MOL0     H93553   9.600   8.576   9.984 -1.7871 -1.2553 -4.7824
  693MOL0     H93554   9.209   7.969   9.900 -1.1947  0.6221 -3.5986
  693MOL0     H93555   9.137   7.802  10.057 -2.1188 -1.5591  1.7729
  694MOL0     O93556   0.077   8.818   2.493  0.2206 -0.4101  0.4300
  694MOL0     C93557   0.153   8.882   2.565  0.4415  0.4910  0.0813
  694MOL0     O93558   0.248   8.968   2.518  0.0799 -1.0516  0.1761
  694MOL0     C93559   0.251   9.006   2.386  0.5588  0.4538 -0.8269
  694MOL0     C93560   0.219   9.139   2.352  0.0601  0.1914 -0.2594
  694MOL0     C93561   0.223   9.184   2.214  0.5743 -0.0811  0.3838
  694MOL0     C93562   0.244   9.098   2.116 -0.7174  0.0753  0.7383
  694MOL0     O93563   0.253   9.137   1.982  0.2851 -0.6097  0.1742
  694MOL0     C93564   0.152   9.234   1.942  0.0354 -0.3732 -0.5389
  694MOL0     C93565   0.121   9.221   1.790 -0.1796  0.0159  0.5613
  694MOL0     C93566   0.058   9.085   1.767 -0.1207  0.5879 -0.1821
  694MOL0     C93567   0.017   9.057   1.620 -0.7244  0.5869 -0.3799
  694MOL0     C93568  -0.027   8.910   1.624  0.2120 -0.2628 -0.1175
  694MOL0     C93569  -0.046   8.844   1.488 -0.0465  0.0114  0.9659
  694MOL0     C93570   0.084   8.796   1.431  0.3709  0.5714 -0.2490
  694MOL0     C93571   0.048   8.717   1.301  0.6649 -0.3396 -0.3451
  694MOL0     N93572   0.013   8.806   1.185 -0.2705  0.3331  0.0387
  694MOL0     C93573  -0.106   8.797   1.115 -1.7144  0.0770 -0.4147
  694MOL0     C93574  -0.081   8.870   1.003  0.6109  0.3201 -0.2897
  694MOL0     C93575  -0.174   8.884   0.884  0.4596 -1.4565  0.1886
  694MOL0     C93576  -0.180   8.756   0.805 -0.6250 -0.5592  0.3265
  694MOL0     C93577  -0.273   8.788   0.690 -0.2229  0.7941  0.3981
  694MOL0     C93578  -0.289   8.670   0.602 -0.1185 -0.0210  0.8925
  694MOL0     O93579  -0.347   8.567   0.688 -0.3241  0.0544 -0.3612
  694MOL0     C93580  -0.444   8.485   0.639  0.3989 -1.0109  0.2737
  694MOL0     C93581  -0.470   8.455   0.501 -0.1473 -0.5909  0.3616
  694MOL0     C93582  -0.565   8.368   0.455  0.0319 -0.3269  0.2293
  694MOL0     C93583  -0.584   8.329   0.305  0.5045 -0.5596 -0.3258
  694MOL0     C93584  -0.651   8.307   0.557 -0.2247 -0.9723 -0.7353
  694MOL0     C93585  -0.765   8.234   0.526  0.0962 -0.5945  0.9283
  694MOL0     O93586  -0.783   8.129   0.618 -0.4658  0.2003  1.0880
  694MOL0     C93587  -0.890   8.052   0.628  0.2550  0.3399 -0.5185
  694MOL0     C93588  -1.016   8.100   0.608  0.4981 -0.9631 -0.1099
  694MOL0     C93589  -1.127   8.020   0.598 -0.0765 -0.5163 -0.5053
  694MOL0     C93590  -1.124   7.888   0.628 -0.1460  0.1834 -0.1933
  694MOL0     O93591  -1.240   7.823   0.624 -0.0216  0.2725  0.7019
  694MOL0     C93592  -1.245   7.680   0.638 -0.2794 -0.2816  0.3904
  694MOL0     C93593  -1.396   7.651   0.648 -0.3322 -0.4030 -0.1337
  694MOL0     C93594  -1.459   7.643   0.511 -0.8964 -0.1341 -1.3962
  694MOL0     C93595  -1.603   7.631   0.530 -0.2457 -0.4361  0.2219
  694MOL0     C93596  -1.689   7.668   0.408  0.9785 -0.8305 -0.6918
  694MOL0     C93597  -1.762   7.797   0.427 -0.5342  0.1084 -0.1432
  694MOL0     C93598  -1.825   7.842   0.290 -0.3035 -0.8788 -0.2691
  694MOL0     C93599  -1.920   7.956   0.302  0.0188 -0.4986 -0.8120
  694MOL0    Cl93600  -2.067   7.908   0.387 -0.5479 -0.3153 -1.0006
  694MOL0     C93601  -0.999   7.828   0.655 -0.3293 -0.2142  0.1847
  694MOL0     C93602  -0.881   7.911   0.665  0.2378  0.2641 -0.2377
  694MOL0     O93603  -0.844   8.276   0.438 -0.5544 -0.1695 -0.2773
  694MOL0     C93604  -0.633   8.345   0.691 -1.5335 -0.3638  0.2669
  694MOL0     C93605  -0.534   8.427   0.730  0.4902  0.2087  0.7998
  694MOL0     N93606   0.043   8.927   1.014 -0.3619  0.6791  0.3827
  694MOL0     N93607   0.094   8.900   1.133  0.1603 -0.6714 -0.3262
  694MOL0     C93608   0.287   8.967   2.150  0.4321 -0.0301  0.6439
  694MOL0     C93609   0.277   8.918   2.281 -0.2854 -0.1298 -0.4516
  694MOL0     C93610   0.141   8.867   2.721 -0.9348  0.3580 -0.2483
  694MOL0     C93611   0.205   8.950   2.813  0.0956  0.5705 -1.0952
  694MOL0     C93612   0.170   8.945   2.949  0.6508  0.9772  0.1731
  694MOL0     C93613   0.089   8.841   3.001 -0.2416  0.7239  0.5822
  694MOL0     O93614   0.056   8.829   3.136  0.2104 -0.0259  0.3828
  694MOL0     C93615   0.134   8.905   3.239 -0.4195  0.0589  0.7581
  694MOL0     C93616   0.253   8.816   3.279  0.0827  0.3947 -1.0345
  694MOL0     C93617   0.325   8.889   3.392  0.5256  0.0386 -0.1114
  694MOL0     C93618   0.471   8.839   3.417  0.5764  0.3249  0.4938
  694MOL0     C93619   0.478   8.700   3.451  0.7069  0.9313 -0.5218
  694MOL0     C93620   0.516   8.580   3.483 -0.1540 -0.2370  0.8655
  694MOL0     C93621   0.029   8.750   2.911  0.4091 -1.0040  0.4654
  694MOL0     C93622   0.067   8.762   2.773  0.5715  0.4846 -0.5358
  694MOL0     H93623   0.177   9.210   2.423 -0.5492 -0.8137  0.4083
  694MOL0     H93624   0.195   9.287   2.197 -1.0904 -0.8717 -2.4092
  694MOL0     H93625   0.068   9.217   2.010  0.6212 -1.1444  0.0038
  694MOL0     H93626   0.191   9.333   1.965  0.0274  0.0386 -2.1790
  694MOL0     H93627   0.049   9.302   1.771  0.6387  1.0885  1.7902
  694MOL0     H93628   0.212   9.239   1.733 -0.0057 -0.4576  0.6917
  694MOL0     H93629   0.133   9.012   1.800  0.0049  0.0847 -1.5435
  694MOL0     H93630  -0.034   9.086   1.827  0.7129  3.9705  1.2713
  694MOL0     H93631  -0.059   9.125   1.581 -0.1936  1.8230  0.6862
  694MOL0     H93632   0.100   9.073   1.551  0.8490 -0.1472  1.2518
  694MOL0     H93633   0.041   8.851   1.686  0.2280  0.1640  0.2763
  694MOL0     H93634  -0.127   8.912   1.668 -1.1099  0.5743 -2.8698
  694MOL0     H93635  -0.111   8.761   1.517  0.4658 -0.3750  1.0177
  694MOL0     H93636  -0.106   8.909   1.424 -0.2379 -1.3029 -0.2258
  694MOL0     H93637   0.156   8.876   1.410  2.4473 -1.3173 -0.6888
  694MOL0     H93638   0.139   8.740   1.507  0.3907 -2.3363 -2.2611
  694MOL0     H93639  -0.037   8.650   1.318 -1.2874  2.0990  0.1480
  694MOL0     H93640   0.140   8.662   1.282  1.6356  1.5439 -1.2975
  694MOL0     H93641  -0.194   8.736   1.128 -1.1882 -0.9088 -1.2945
  694MOL0     H93642  -0.271   8.925   0.911  1.2467 -1.7409  3.9461
  694MOL0     H93643  -0.117   8.957   0.826 -1.4757  2.2516  2.5896
  694MOL0     H93644  -0.205   8.672   0.870  0.1322 -1.8570 -0.9924
  694MOL0     H93645  -0.081   8.739   0.761 -1.7988  1.2722 -3.4537
  694MOL0     H93646  -0.230   8.878   0.644  0.1603  0.5254  0.2206
  694MOL0     H93647  -0.369   8.803   0.740 -1.5930  1.3887 -2.2363
  694MOL0     H93648  -0.191   8.639   0.563 -1.6782 -0.6112 -3.0425
  694MOL0     H93649  -0.347   8.695   0.513  0.2455 -1.0548  0.3367
  694MOL0     H93650  -0.410   8.498   0.421 -0.7019  0.6948  0.6262
  694MOL0     H93651  -0.610   8.223   0.304  2.7968 -1.2307  1.4872
  694MOL0     H93652  -0.662   8.393   0.264 -0.9024 -0.2557  2.5847
  694MOL0     H93653  -0.488   8.327   0.252  0.0420 -1.8322 -1.1756
  694MOL0     H93654  -1.032   8.202   0.575  0.3426 -0.5711  1.1228
  694MOL0     H93655  -1.216   8.075   0.568  0.3783  1.5253  1.6297
  694MOL0     H93656  -1.190   7.640   0.552 -0.8315 -1.2392  0.4697
  694MOL0     H93657  -1.206   7.644   0.734 -2.5387 -1.4833  0.9307
  694MOL0     H93658  -1.410   7.558   0.703  2.4009  0.2862  1.9385
  694MOL0     H93659  -1.439   7.733   0.707  2.2845 -0.3785  1.9289
  694MOL0     H93660  -1.422   7.557   0.454  1.5835  1.1449 -1.8678
  694MOL0     H93661  -1.433   7.732   0.454  3.9293 -0.5661 -0.3842
  694MOL0     H93662  -1.631   7.529   0.557 -1.9426 -0.0361  0.1367
  694MOL0     H93663  -1.633   7.685   0.620  2.4944  1.8341 -0.0984
  694MOL0     H93664  -1.765   7.592   0.388 -0.8506 -0.4699  3.7320
  694MOL0     H93665  -1.625   7.673   0.320 -0.9723  1.0659 -2.1243
  694MOL0     H93666  -1.827   7.790   0.515  1.5470 -2.2319  1.3451
  694MOL0     H93667  -1.695   7.880   0.453 -0.4687 -0.4894  1.7798
  694MOL0     H93668  -1.882   7.761   0.244 -2.0772  0.4226 -0.4497
  694MOL0     H93669  -1.744   7.869   0.222 -2.2663  0.9747 -2.0376
  694MOL0     H93670  -1.943   8.001   0.204 -0.5796  0.3922 -0.2764
  694MOL0     H93671  -1.888   8.038   0.367 -1.2026  1.0306 -2.0591
  694MOL0     H93672  -0.996   7.725   0.691 -2.7566 -0.8430 -1.2411
  694MOL0     H93673  -0.783   7.872   0.690  1.1384  1.8375 -1.1741
  694MOL0     H93674  -0.699   8.312   0.770 -2.2460  3.7470  1.6244
  694MOL0     H93675  -0.543   8.452   0.836 -2.8585 -3.2073  1.5299
  694MOL0     H93676   0.317   8.901   2.069  0.2396  0.5804  0.0668
  694MOL0     H93677   0.302   8.814   2.301  1.4989  0.2816 -0.4276
  694MOL0     H93678   0.257   9.038   2.776 -1.4154  1.1667 -1.8481
  694MOL0     H93679   0.211   9.013   3.023 -1.0383  0.5503  1.5830
  694MOL0     H93680   0.173   9.005   3.218  2.8202 -1.1018  0.6678
  694MOL0     H93681   0.058   8.918   3.316  1.2985  3.7772  2.0928
  694MOL0     H93682   0.325   8.810   3.197  0.9775 -0.4418 -0.2171
  694MOL0     H93683   0.228   8.712   3.303  0.1013  0.4367 -0.8293
  694MOL0     H93684   0.268   8.875   3.484 -0.7073  2.7710 -0.3786
  694MOL0     H93685   0.331   8.996   3.369 -1.1714  0.2543  0.3271
  694MOL0     H93686   0.512   8.908   3.492  4.5878 -1.2146  0.0132
  694MOL0     H93687   0.540   8.857   3.334  4.2021 -0.8577  2.9667
  694MOL0     H93688   0.565   8.486   3.496  1.4741  0.5367  0.5072
  694MOL0     H93689  -0.045   8.676   2.939 -0.0565 -0.3128  1.0951
  694MOL0     H93690   0.007   8.699   2.707  0.6753  0.5164 -0.6602
  695MOL0     O93691   0.845   4.718   0.971 -0.3699 -0.1422 -0.0730
  695MOL0     C93692   0.905   4.819   1.008 -0.2559 -0.5056  0.4196
  695MOL0     O93693   0.886   4.881   1.130 -0.0457  0.4700 -0.4934
  695MOL0     C93694   0.771   4.853   1.201 -0.5162 -0.0513  0.7577
  695MOL0     C93695   0.763   4.782   1.323  0.6574  0.7343 -0.7384
  695MOL0     C93696   0.643   4.774   1.385  0.5993 -0.8898 -0.6565
  695MOL0     C93697   0.521   4.837   1.347  0.0157 -0.4890  0.3840
  695MOL0     O93698   0.399   4.807   1.399 -0.1858  0.2380  0.4104
  695MOL0     C93699   0.298   4.907   1.394  0.4931  0.4197 -0.0257
  695MOL0     C93700   0.315   5.002   1.509 -0.3577 -0.0089 -0.7374
  695MOL0     C93701   0.215   5.122   1.486 -0.1572 -0.1316 -0.4840
  695MOL0     C93702   0.066   5.078   1.482  0.8947 -0.1165  0.4354
  695MOL0     C93703  -0.040   5.195   1.471 -0.5505 -0.0916  0.7963
  695MOL0     C93704  -0.182   5.130   1.458 -0.0871  0.3495 -0.0295
  695MOL0     C93705  -0.295   5.240   1.447  0.3347 -0.2846 -0.5003
  695MOL0     C93706  -0.427   5.200   1.378 -0.9047 -0.1695 -0.2376
  695MOL0     N93707  -0.534   5.289   1.431 -0.7194 -0.1832 -0.1497
  695MOL0     C93708  -0.558   5.418   1.381  0.3954 -1.0011 -0.4089
  695MOL0     C93709  -0.625   5.483   1.483  0.6727  0.0609 -0.5405
  695MOL0     C93710  -0.671   5.625   1.485 -0.2064  0.5114 -0.0019
  695MOL0     C93711  -0.815   5.659   1.446  0.7293  0.4954 -0.5786
  695MOL0     C93712  -0.843   5.809   1.480 -0.3813 -0.6332  0.4430
  695MOL0     C93713  -0.856   5.856   1.622  0.3576  0.8991  0.0183
  695MOL0     O93714  -0.978   5.805   1.683 -0.1672 -0.2492  0.1923
  695MOL0     C93715  -0.991   5.680   1.746 -0.5452 -0.3330 -0.6361
  695MOL0     C93716  -0.893   5.600   1.809 -0.5664 -0.1784 -0.5408
  695MOL0     C93717  -0.928   5.484   1.872 -0.7084  0.0790 -0.0428
  695MOL0     C93718  -0.827   5.395   1.947 -0.4304  0.1363  0.1978
  695MOL0     C93719  -1.063   5.445   1.879  0.4900  0.5293 -0.7627
  695MOL0     C93720  -1.117   5.332   1.956  0.5614  0.4631 -0.0973
  695MOL0     O93721  -1.227   5.277   1.899 -0.7429  0.7204  0.8502
  695MOL0     C93722  -1.259   5.155   1.934 -0.2235  0.4233  1.0371
  695MOL0     C93723  -1.392   5.138   1.955  0.8156  0.9866  1.0284
  695MOL0     C93724  -1.443   5.011   1.973  0.8003 -0.2787  0.2541
  695MOL0     C93725  -1.367   4.904   1.985  0.7747  0.8902  0.1445
  695MOL0     O93726  -1.411   4.780   2.023 -0.1981 -0.3430 -0.4998
  695MOL0     C93727  -1.527   4.771   2.099 -0.7891  0.3098  0.0741
  695MOL0     C93728  -1.640   4.744   1.997  0.2816  0.5599 -0.0326
  695MOL0     C93729  -1.619   4.612   1.930  0.1611 -0.1377  0.0108
  695MOL0     C93730  -1.706   4.578   1.804 -1.3370 -0.4993  0.7570
  695MOL0     C93731  -1.643   4.646   1.680  0.2096  0.0792  0.2178
  695MOL0     C93732  -1.693   4.592   1.552 -0.1360 -0.5204  0.0790
  695MOL0     C93733  -1.673   4.694   1.432  0.4971  0.5680 -0.5522
  695MOL0     C93734  -1.711   4.630   1.298  0.5616 -0.1404 -0.1008
  695MOL0    Cl93735  -1.601   4.506   1.223 -0.2871 -0.3475 -0.4842
  695MOL0     C93736  -1.231   4.917   1.958  0.7484  1.1533 -0.6327
  695MOL0     C93737  -1.176   5.046   1.929  0.6449 -0.8581 -0.6246
  695MOL0     O93738  -1.054   5.283   2.045  0.6355  0.2628  0.6990
  695MOL0     C93739  -1.155   5.532   1.816 -0.4369  0.8747 -0.6879
  695MOL0     C93740  -1.122   5.651   1.747  0.3036 -0.7454  0.6555
  695MOL0     N93741  -0.648   5.392   1.586  0.2372  0.4966 -0.0345
  695MOL0     N93742  -0.589   5.286   1.556 -0.5714  0.0211 -0.6163
  695MOL0     C93743   0.530   4.916   1.226 -0.8340 -0.5699 -0.3377
  695MOL0     C93744   0.658   4.923   1.158  0.7782 -0.6916 -0.2982
  695MOL0     C93745   1.005   4.867   0.916  0.1476 -0.2749  0.0737
  695MOL0     C93746   1.012   4.820   0.784  0.6936 -0.8029  0.2213
  695MOL0     C93747   1.105   4.865   0.695 -0.2995  0.3627 -0.2136
  695MOL0     C93748   1.196   4.963   0.738 -0.6210  0.6469  0.6676
  695MOL0     O93749   1.291   5.022   0.656 -0.2167 -0.0426  0.6801
  695MOL0     C93750   1.407   4.935   0.625 -1.4110 -0.0354  0.2487
  695MOL0     C93751   1.488   4.991   0.500 -0.7165  0.7274  0.5998
  695MOL0     C93752   1.640   4.961   0.488  0.5176  0.7054 -0.3289
  695MOL0     C93753   1.687   5.030   0.351 -0.0607  0.0531 -0.4735
  695MOL0     C93754   1.829   5.013   0.319  0.6932  0.3568  0.2659
  695MOL0     C93755   1.949   5.005   0.304  0.9790  0.3108 -0.2016
  695MOL0     C93756   1.211   4.999   0.868  0.1549  0.5906  0.0678
  695MOL0     C93757   1.112   4.946   0.956  0.1639 -0.5256  0.1079
  695MOL0     H93758   0.851   4.722   1.346 -0.4965 -0.4409  0.8012
  695MOL0     H93759   0.627   4.724   1.480  3.3938  0.8252  0.8560
  695MOL0     H93760   0.300   4.958   1.297  3.6724  0.3946 -0.0829
  695MOL0     H93761   0.201   4.856   1.389  0.3906  0.7219 -1.4468
  695MOL0     H93762   0.296   4.955   1.606  2.0870 -0.5968 -0.4904
  695MOL0     H93763   0.416   5.042   1.505 -0.5315  0.6194  0.5814
  695MOL0     H93764   0.232   5.190   1.570 -2.5972 -1.3886  1.1491
  695MOL0     H93765   0.240   5.177   1.395  0.0835  0.7312  0.0818
  695MOL0     H93766   0.049   5.010   1.398 -1.1888 -0.0059  0.7209
  695MOL0     H93767   0.047   5.012   1.567 -0.9867  0.5661  0.5908
  695MOL0     H93768  -0.030   5.260   1.558  1.0974 -0.7388  1.1079
  695MOL0     H93769  -0.021   5.264   1.388 -4.2115  2.6704  1.9487
  695MOL0     H93770  -0.192   5.073   1.366 -1.1309 -2.4289  1.6881
  695MOL0     H93771  -0.207   5.061   1.539 -4.3509 -3.4443 -3.9562
  695MOL0     H93772  -0.316   5.261   1.552 -0.4919  4.0712 -1.3247
  695MOL0     H93773  -0.261   5.333   1.401 -1.4604  0.0951 -1.1529
  695MOL0     H93774  -0.455   5.095   1.394 -1.2256 -0.0208  0.2067
  695MOL0     H93775  -0.419   5.212   1.269  2.9094  0.7955  0.0055
  695MOL0     H93776  -0.526   5.464   1.288  0.4915 -1.1534 -0.4523
  695MOL0     H93777  -0.649   5.657   1.587 -1.1608 -0.4047  0.5112
  695MOL0     H93778  -0.605   5.686   1.422 -1.0421  1.5509  0.0983
  695MOL0     H93779  -0.886   5.595   1.499  3.8385 -2.1091  0.7480
  695MOL0     H93780  -0.832   5.636   1.341  0.2968 -0.5487 -0.2865
  695MOL0     H93781  -0.930   5.836   1.419  1.6438  4.8762 -0.5182
  695MOL0     H93782  -0.752   5.860   1.450  0.8466 -1.8750  1.8699
  695MOL0     H93783  -0.864   5.965   1.626  0.2983  0.9130 -0.4638
  695MOL0     H93784  -0.772   5.824   1.684  0.3922  0.3967 -0.2798
  695MOL0     H93785  -0.788   5.627   1.812  0.0310 -2.3538  2.2347
  695MOL0     H93786  -0.846   5.288   1.929 -0.6314  0.3120 -0.7007
  695MOL0     H93787  -0.722   5.409   1.922  0.2402 -0.0350  2.6500
  695MOL0     H93788  -0.839   5.406   2.055 -1.6604  0.3089  0.0571
  695MOL0     H93789  -1.461   5.220   1.942  1.3849  1.5780  1.6756
  695MOL0     H93790  -1.551   5.004   1.976  0.6117 -0.8870 -3.2165
  695MOL0     H93791  -1.519   4.688   2.171 -1.5375  1.7356  1.8822
  695MOL0     H93792  -1.532   4.865   2.154  2.0636 -0.3028  1.6184
  695MOL0     H93793  -1.741   4.756   2.035 -1.0055 -1.9146 -2.3023
  695MOL0     H93794  -1.636   4.816   1.915 -0.3876 -2.1145 -2.6211
  695MOL0     H93795  -1.662   4.538   1.999 -1.5346  0.3346 -0.4956
  695MOL0     H93796  -1.513   4.594   1.908  0.8851  2.8764  0.5928
  695MOL0     H93797  -1.710   4.471   1.784 -1.2324 -0.7498  2.0082
  695MOL0     H93798  -1.811   4.607   1.820 -1.4154  0.3480 -1.0015
  695MOL0     H93799  -1.538   4.617   1.694 -0.3454 -1.6161  1.1669
  695MOL0     H93800  -1.664   4.753   1.688  1.9596  0.5083 -0.3326
  695MOL0     H93801  -1.646   4.498   1.521  0.7968  0.1096 -0.4665
  695MOL0     H93802  -1.800   4.574   1.565 -0.5607  0.5386 -1.6784
  695MOL0     H93803  -1.573   4.736   1.427  0.8992 -0.1463  0.8591
  695MOL0     H93804  -1.746   4.773   1.456 -1.6141 -1.3422 -0.2897
  695MOL0     H93805  -1.726   4.714   1.229 -3.7951  0.1460  0.9249
  695MOL0     H93806  -1.806   4.581   1.318  1.2271 -1.2561  0.3852
  695MOL0     H93807  -1.167   4.829   1.951  0.8415  1.2047 -0.4421
  695MOL0     H93808  -1.075   5.061   1.892  0.8213 -2.8809 -1.0820
  695MOL0     H93809  -1.262   5.515   1.821 -0.1575 -0.7447  3.1024
  695MOL0     H93810  -1.185   5.717   1.689 -1.2575 -1.5177  1.4208
  695MOL0     H93811   0.455   4.974   1.174 -2.8151 -0.2310  2.6588
  695MOL0     H93812   0.658   4.969   1.059 -0.4737  1.1421  0.4919
  695MOL0     H93813   0.947   4.740   0.750 -1.0190  0.7627 -0.3716
  695MOL0     H93814   1.092   4.831   0.593  2.4862 -2.1459  0.1136
  695MOL0     H93815   1.476   4.928   0.710 -0.5331  1.7279 -0.2550
  695MOL0     H93816   1.381   4.832   0.601 -1.4367 -0.6020  2.5008
  695MOL0     H93817   1.481   5.100   0.505 -1.6499  0.6897  0.2953
  695MOL0     H93818   1.435   4.968   0.407 -0.5550 -1.8530  1.0484
  695MOL0     H93819   1.651   4.853   0.488 -3.0017 -0.0941 -6.4153
  695MOL0     H93820   1.687   5.009   0.575  1.4499  1.0542 -1.0028
  695MOL0     H93821   1.658   5.134   0.366 -0.9428 -0.4879  2.2456
  695MOL0     H93822   1.627   4.984   0.272 -0.2848  0.2724 -0.4332
  695MOL0     H93823   2.050   4.993   0.269  0.5212 -2.2397 -0.9008
  695MOL0     H93824   1.286   5.064   0.913 -1.9137  4.2908 -1.3842
  695MOL0     H93825   1.118   4.965   1.063 -0.3710 -2.9209  0.6132
  696MOL0     O93826   2.350   4.615   2.813  0.3586 -0.2745 -0.1809
  696MOL0     C93827   2.239   4.559   2.798  0.0312  0.0806 -0.4394
  696MOL0     O93828   2.130   4.610   2.740  0.3552  0.1394 -0.1636
  696MOL0     C93829   2.116   4.741   2.711  0.0665 -1.0319 -0.1429
  696MOL0     C93830   2.036   4.781   2.601 -0.6588 -0.6189  0.1048
  696MOL0     C93831   2.029   4.909   2.560  0.0747  0.1606  0.5831
  696MOL0     C93832   2.085   5.006   2.636  0.2742  0.3423  0.3546
  696MOL0     O93833   2.072   5.133   2.588  0.1713  0.4462 -0.4711
  696MOL0     C93834   2.192   5.209   2.553  0.1352  0.3647 -0.5372
  696MOL0     C93835   2.190   5.264   2.414 -0.0107 -0.3092 -0.1037
  696MOL0     C93836   2.091   5.378   2.396  0.0654 -0.9481 -1.0387
  696MOL0     C93837   2.043   5.390   2.252 -0.5602  0.3183  0.3310
  696MOL0     C93838   2.029   5.535   2.204  0.4018 -0.0991  0.5238
  696MOL0     C93839   1.936   5.625   2.291  0.3666 -0.5806 -0.1638
  696MOL0     C93840   1.800   5.554   2.326  0.6623 -0.2558 -0.6634
  696MOL0     C93841   1.696   5.639   2.402  0.3545  0.6563 -0.6543
  696MOL0     N93842   1.742   5.693   2.536 -0.1403  0.1596  0.3259
  696MOL0     C93843   1.712   5.639   2.654 -0.2591 -1.0718  0.0807
  696MOL0     C93844   1.769   5.727   2.743  0.1696 -0.0787  0.1122
  696MOL0     C93845   1.738   5.720   2.890 -1.1245  0.1711 -0.9166
  696MOL0     C93846   1.839   5.638   2.965  0.2652  0.5420 -0.1338
  696MOL0     C93847   1.787   5.604   3.106  0.8099  0.1134  0.2404
  696MOL0     C93848   1.867   5.490   3.170 -0.3300  0.1495 -1.4350
  696MOL0     O93849   1.805   5.450   3.298  0.2546 -0.3925 -0.7557
  696MOL0     C93850   1.853   5.340   3.354 -0.3314 -1.3276 -0.2377
  696MOL0     C93851   1.770   5.268   3.431 -0.3477 -0.0687  0.6627
  696MOL0     C93852   1.808   5.159   3.512 -0.5598  0.5644 -0.1178
  696MOL0     C93853   1.699   5.080   3.583 -0.0282  1.1479  0.3396
  696MOL0     C93854   1.940   5.110   3.495  0.3601  0.4127  0.0679
  696MOL0     C93855   2.002   5.001   3.569  0.0937  1.0682 -1.0290
  696MOL0     O93856   2.099   4.914   3.523 -0.2418  0.2409  0.5802
  696MOL0     C93857   2.149   4.818   3.604 -0.5682  0.6402  1.1028
  696MOL0     C93858   2.086   4.696   3.620  1.4829  0.1295 -0.7275
  696MOL0     C93859   2.149   4.596   3.696  0.3636 -0.1164 -0.5646
  696MOL0     C93860   2.267   4.624   3.761  0.9083  0.5642 -0.1900
  696MOL0     O93861   2.345   4.534   3.829 -0.2572 -0.3659  0.6348
  696MOL0     C93862   2.296   4.397   3.848 -0.0804 -0.2207  0.3753
  696MOL0     C93863   2.405   4.299   3.896  0.1726  0.7062 -0.3374
  696MOL0     C93864   2.514   4.265   3.787 -0.3308 -0.1733 -0.1793
  696MOL0     C93865   2.604   4.145   3.819  0.0539  0.6099 -0.3249
  696MOL0     C93866   2.735   4.143   3.740  0.5802 -0.0933  0.2363
  696MOL0     C93867   2.824   4.271   3.748  1.0166  0.2379  0.5874
  696MOL0     C93868   2.959   4.259   3.675  0.2624  0.1647  0.0349
  696MOL0     C93869   2.955   4.242   3.520 -0.2094 -1.2954  0.1038
  696MOL0    Cl93870   3.025   4.391   3.444 -0.2604 -0.2002 -0.5381
  696MOL0     C93871   2.333   4.741   3.732  0.4138 -0.0964 -0.0496
  696MOL0     C93872   2.275   4.845   3.660  0.4852 -1.3082  0.4676
  696MOL0     O93873   1.959   4.991   3.690 -0.4455 -0.4288  0.9542
  696MOL0     C93874   2.032   5.174   3.407  0.5518  0.4589  0.6255
  696MOL0     C93875   1.982   5.289   3.334  0.3304  0.6619 -0.0525
  696MOL0     N93876   1.835   5.823   2.670 -0.8206 -0.0600  0.2803
  696MOL0     N93877   1.820   5.801   2.552  0.2671 -0.2403  1.0907
  696MOL0     C93878   2.172   4.972   2.739  0.3852 -0.9165 -0.0896
  696MOL0     C93879   2.181   4.842   2.785 -0.8990 -0.1552  0.1512
  696MOL0     C93880   2.244   4.416   2.831 -0.3295  0.0974 -0.1351
  696MOL0     C93881   2.353   4.361   2.900  0.1545  0.7367  0.4209
  696MOL0     C93882   2.348   4.228   2.951  0.2455  0.0811  0.4556
  696MOL0     C93883   2.239   4.138   2.932 -0.0819 -1.9509  0.0467
  696MOL0     O93884   2.231   4.015   2.990  0.6075 -0.2821  0.8119
  696MOL0     C93885   2.347   3.934   2.991 -0.6368  1.2412  0.2483
  696MOL0     C93886   2.347   3.821   2.881  0.0867  0.2565 -0.0727
  696MOL0     C93887   2.479   3.745   2.908 -0.1635  0.6017  0.5553
  696MOL0     C93888   2.503   3.613   2.828  0.2334 -0.1986  0.6945
  696MOL0     C93889   2.564   3.650   2.696 -0.3812 -0.2078 -0.6461
  696MOL0     C93890   2.623   3.680   2.592  0.3436 -0.3132  0.7864
  696MOL0     C93891   2.130   4.194   2.852  0.0618 -0.2838  0.1631
  696MOL0     C93892   2.133   4.332   2.808  0.3061 -0.0362 -0.1256
  696MOL0     H93893   1.987   4.717   2.529 -1.7504  1.2162 -0.8424
  696MOL0     H93894   1.963   4.933   2.478 -2.2859 -3.0899  1.2902
  696MOL0     H93895   2.189   5.299   2.616  1.0081 -1.1146  1.7778
  696MOL0     H93896   2.285   5.153   2.569 -0.0663  0.3236  0.6149
  696MOL0     H93897   2.285   5.305   2.378 -0.5605 -0.4967 -1.8830
  696MOL0     H93898   2.164   5.176   2.354 -1.5511 -1.6469  2.3477
  696MOL0     H93899   1.995   5.350   2.439 -1.0104 -2.3270 -4.0353
  696MOL0     H93900   2.126   5.477   2.427  0.5910 -2.0098  2.1321
  696MOL0     H93901   2.113   5.340   2.185 -1.2402  0.6003 -0.6119
  696MOL0     H93902   1.943   5.344   2.246 -2.0893  3.3310  0.7324
  696MOL0     H93903   2.131   5.573   2.202  1.1371 -1.9424  0.5829
  696MOL0     H93904   1.993   5.552   2.102  0.0506 -0.8108  0.5205
  696MOL0     H93905   1.990   5.653   2.381  0.0637 -0.1084 -0.1245
  696MOL0     H93906   1.920   5.717   2.234 -0.3521 -0.2994  0.4788
  696MOL0     H93907   1.763   5.500   2.238  2.8114 -0.2208 -1.6594
  696MOL0     H93908   1.819   5.465   2.386 -1.2776 -1.1650 -1.3293
  696MOL0     H93909   1.621   5.565   2.431  2.4968 -0.1653  3.7016
  696MOL0     H93910   1.659   5.714   2.331  2.1753  1.5235 -0.7629
  696MOL0     H93911   1.657   5.546   2.668 -1.6927 -0.1504  0.8535
  696MOL0     H93912   1.732   5.821   2.933  2.1778  0.6418 -1.3027
  696MOL0     H93913   1.645   5.665   2.899  0.4951 -2.9032 -1.6382
  696MOL0     H93914   1.931   5.696   2.976  0.9510 -0.0890 -2.0926
  696MOL0     H93915   1.868   5.545   2.915  0.7664 -0.6849  2.2952
  696MOL0     H93916   1.680   5.580   3.108  1.3835 -2.7427  1.5231
  696MOL0     H93917   1.802   5.692   3.169 -1.7119  0.5827  0.2835
  696MOL0     H93918   1.972   5.515   3.187 -0.2106 -1.8891  1.7037
  696MOL0     H93919   1.862   5.400   3.107 -2.9421 -0.6265 -0.2730
  696MOL0     H93920   1.667   5.300   3.444 -0.5757  0.2474 -1.5343
  696MOL0     H93921   1.682   5.096   3.690 -5.0125 -0.3874  0.0443
  696MOL0     H93922   1.606   5.109   3.533 -0.1928  3.7115  1.8896
  696MOL0     H93923   1.711   4.974   3.561  1.3585  1.2485  0.5103
  696MOL0     H93924   2.000   4.675   3.557  1.1134 -2.8421  0.6139
  696MOL0     H93925   2.114   4.494   3.687  2.2867 -0.8764 -0.0829
  696MOL0     H93926   2.207   4.382   3.910 -0.2664 -1.2374 -0.1201
  696MOL0     H93927   2.268   4.357   3.750 -1.0508  2.4957 -0.5254
  696MOL0     H93928   2.446   4.344   3.986 -1.8761  1.6306  0.1862
  696MOL0     H93929   2.366   4.198   3.910  1.1057  0.2554 -0.8735
  696MOL0     H93930   2.580   4.352   3.796 -0.3098 -0.0457 -1.4274
  696MOL0     H93931   2.471   4.264   3.686  0.9085 -1.5229 -0.7209
  696MOL0     H93932   2.633   4.151   3.925  0.1766  0.0926 -0.3306
  696MOL0     H93933   2.540   4.060   3.799 -0.4817  0.9420 -0.0631
  696MOL0     H93934   2.712   4.127   3.634  0.1311 -1.3172  0.5026
  696MOL0     H93935   2.795   4.059   3.776  0.0862 -0.6362 -0.1898
  696MOL0     H93936   2.777   4.347   3.686  1.4883 -0.0647 -0.1484
  696MOL0     H93937   2.835   4.303   3.852  0.8625 -1.7944  1.2917
  696MOL0     H93938   3.004   4.168   3.718  1.2009 -0.3915 -1.9788
  696MOL0     H93939   3.024   4.344   3.699 -0.5972  0.6046  0.8859
  696MOL0     H93940   2.851   4.225   3.492 -1.0141  2.1858  0.5106
  696MOL0     H93941   3.013   4.155   3.488  1.8100 -0.4080  1.1813
  696MOL0     H93942   2.423   4.767   3.786 -1.6153  3.1519  2.0994
  696MOL0     H93943   2.332   4.936   3.644 -0.8965 -0.4808  0.0222
  696MOL0     H93944   2.132   5.140   3.381  0.7012 -0.6953  2.5578
  696MOL0     H93945   2.054   5.318   3.258  1.6794  0.2406  1.0242
  696MOL0     H93946   2.227   5.059   2.774  1.5104 -1.6438  0.0108
  696MOL0     H93947   2.260   4.833   2.860  1.8139 -0.4649 -2.5488
  696MOL0     H93948   2.451   4.404   2.916  0.8370 -0.9735  1.0037
  696MOL0     H93949   2.431   4.201   3.016  2.0468  1.3730 -1.1767
  696MOL0     H93950   2.444   3.984   2.979  0.5988 -0.2874  2.9925
  696MOL0     H93951   2.351   3.886   3.090  2.1203  0.6353 -0.0734
  696MOL0     H93952   2.338   3.865   2.782 -2.2094 -0.0978 -0.0612
  696MOL0     H93953   2.259   3.759   2.897 -0.2736  0.1867 -2.1252
  696MOL0     H93954   2.480   3.715   3.013  1.3249  2.5621  1.1571
  696MOL0     H93955   2.564   3.810   2.888  1.1896  0.2352  4.3266
  696MOL0     H93956   2.408   3.561   2.812  0.0194  0.2439  0.5149
  696MOL0     H93957   2.575   3.549   2.880 -0.4003 -0.5324  1.1767
  696MOL0     H93958   2.683   3.720   2.513 -0.2076  1.7232  1.3506
  696MOL0     H93959   2.047   4.131   2.822  0.6363 -0.3520 -1.3439
  696MOL0     H93960   2.042   4.363   2.759  1.8362  1.2940 -2.3120
  697MOL0     O93961   7.309   8.462   8.307  0.3074  0.2973  0.3463
  697MOL0     C93962   7.404   8.386   8.286 -0.6714  0.0698 -0.1094
  697MOL0     O93963   7.450   8.289   8.371 -0.8481 -0.2134 -0.5957
  697MOL0     C93964   7.390   8.245   8.488  0.0025  0.6194 -0.3012
  697MOL0     C93965   7.472   8.146   8.554  0.4245  0.1708 -0.0410
  697MOL0     C93966   7.446   8.101   8.679 -0.3521  0.4298  0.1331
  697MOL0     C93967   7.330   8.151   8.746 -0.2949 -0.1110  0.5005
  697MOL0     O93968   7.298   8.127   8.880 -0.4051  0.0598  0.6587
  697MOL0     C93969   7.375   8.030   8.951  0.6435 -0.2787  0.2906
  697MOL0     C93970   7.298   8.032   9.082 -0.4653 -0.0734 -0.4602
  697MOL0     C93971   7.371   7.968   9.203 -0.2298  0.6349  0.4968
  697MOL0     C93972   7.309   7.982   9.341  0.1154 -0.3580  0.5465
  697MOL0     C93973   7.415   7.963   9.453  0.1225 -0.7989 -0.6965
  697MOL0     C93974   7.349   7.965   9.589  0.7224  0.2360  0.1297
  697MOL0     C93975   7.443   7.998   9.699  1.2645  0.4546  0.2929
  697MOL0     C93976   7.367   7.989   9.833 -0.3375 -0.0130  0.1233
  697MOL0     N93977   7.445   8.056   9.935 -0.3412 -0.1694 -0.5599
  697MOL0     C93978   7.522   7.997  10.030  0.4042 -0.2095 -0.2393
  697MOL0     C93979   7.557   8.101  10.108 -0.0590  0.1330 -0.5591
  697MOL0     C93980   7.668   8.069  10.210  0.2562 -0.1064  0.0877
  697MOL0     C93981   7.610   8.012  10.342 -0.0991  0.0732  0.3546
  697MOL0     C93982   7.552   8.110  10.443 -0.3223 -0.8655 -0.1796
  697MOL0     C93983   7.657   8.160  10.548 -0.1400  0.2227 -0.3500
  697MOL0     O93984   7.735   8.049  10.597 -0.0521 -0.5633 -0.2102
  697MOL0     C93985   7.821   8.053  10.710  0.4565 -0.4675 -0.0429
  697MOL0     C93986   7.850   8.175  10.769  0.4719 -0.1357 -0.4012
  697MOL0     C93987   7.946   8.177  10.878  0.4099 -0.3300 -0.2494
  697MOL0     C93988   7.971   8.315  10.946 -0.1307  0.0313  0.0744
  697MOL0     C93989   8.012   8.059  10.919 -0.0349  0.2147  0.3621
  697MOL0     C93990   8.105   8.045  11.036 -0.1328 -0.7433  0.4199
  697MOL0     O93991   8.089   7.930  11.118 -0.5451  0.2046 -0.2560
  697MOL0     C93992   8.211   7.888  11.167  0.1620 -1.3618 -0.4875
  697MOL0     C93993   8.257   7.772  11.111  1.2253 -0.1999 -0.1879
  697MOL0     C93994   8.370   7.698  11.162  0.9224 -0.4345 -0.2784
  697MOL0     C93995   8.429   7.747  11.283 -1.2111 -0.7519  0.0245
  697MOL0     O93996   8.522   7.677  11.351 -0.4246  0.1550 -0.1476
  697MOL0     C93997   8.596   7.582  11.272  0.4484 -0.0765 -0.7077
  697MOL0     C93998   8.677   7.483  11.357  0.3756 -0.9348  0.6423
  697MOL0     C93999   8.798   7.554  11.411  0.0568 -0.0092 -0.4612
  697MOL0     C94000   8.909   7.577  11.309 -0.8522  0.1095 -0.5359
  697MOL0     C94001   9.038   7.638  11.369  0.6250  0.7436 -0.9074
  697MOL0     C94002   9.149   7.669  11.273 -1.0131 -0.3831  0.7347
  697MOL0     C94003   9.107   7.747  11.145  1.0105  0.5343 -0.7273
  697MOL0     C94004   9.228   7.802  11.073  0.5182 -0.7350  0.4104
  697MOL0    Cl94005   9.341   7.685  10.992 -0.2936  0.2754  0.1389
  697MOL0     C94006   8.380   7.869  11.341  0.6559  0.3479  1.1639
  697MOL0     C94007   8.278   7.935  11.283 -0.2255 -0.6744 -0.1662
  697MOL0     O94008   8.185   8.138  11.054 -0.1938  0.2714  1.1320
  697MOL0     C94009   7.976   7.942  10.858 -0.2225 -0.2373  0.1116
  697MOL0     C94010   7.885   7.935  10.749  0.2594  0.8451 -0.3118
  697MOL0     N94011   7.492   8.219  10.066 -0.9652  0.6303  0.5463
  697MOL0     N94012   7.423   8.184   9.968 -0.2374  0.0457 -0.1901
  697MOL0     C94013   7.243   8.243   8.686 -0.1247 -1.1021 -0.8099
  697MOL0     C94014   7.275   8.288   8.558 -0.1514 -0.5365 -0.0423
  697MOL0     C94015   7.475   8.393   8.160 -0.5160  0.3676 -0.1239
  697MOL0     C94016   7.409   8.440   8.043 -0.2288  0.4329  0.0380
  697MOL0     C94017   7.475   8.451   7.915  1.1955 -0.5496  0.7149
  697MOL0     C94018   7.611   8.412   7.915  0.7015 -1.1368  0.3821
  697MOL0     O94019   7.666   8.439   7.787  0.4904 -0.0142 -0.6640
  697MOL0     C94020   7.801   8.389   7.763 -0.2767 -0.1628  0.1109
  697MOL0     C94021   7.902   8.509   7.806 -0.1699  0.4010  0.1275
  697MOL0     C94022   8.043   8.500   7.754 -0.9030 -0.1119 -0.1376
  697MOL0     C94023   8.105   8.647   7.744 -0.0764 -0.1976  0.6799
  697MOL0     C94024   8.252   8.630   7.735 -0.0124  0.9574 -0.4363
  697MOL0     C94025   8.372   8.602   7.732  0.4024 -0.3852 -1.1154
  697MOL0     C94026   7.679   8.372   8.024 -0.4526 -0.8201 -0.5625
  697MOL0     C94027   7.612   8.349   8.142 -0.5528 -0.3915 -0.2974
  697MOL0     H94028   7.556   8.110   8.496  0.9079  1.2457 -0.0185
  697MOL0     H94029   7.522   8.039   8.724 -1.1495 -0.7963 -0.1616
  697MOL0     H94030   7.359   7.931   8.908 -1.5459 -2.2978  5.0433
  697MOL0     H94031   7.481   8.057   8.963  0.6385 -0.8837  1.8816
  697MOL0     H94032   7.291   8.138   9.109  0.4256  0.7980 -3.3195
  697MOL0     H94033   7.196   7.994   9.072 -0.6123  0.1234  0.2074
  697MOL0     H94034   7.374   7.859   9.187  0.1188  0.4732  1.6009
  697MOL0     H94035   7.468   8.017   9.211 -0.7353  2.1590 -1.6790
  697MOL0     H94036   7.258   8.076   9.359 -1.0642 -0.6710 -0.9616
  697MOL0     H94037   7.230   7.908   9.353 -0.6076  0.5866  1.8333
  697MOL0     H94038   7.474   7.872   9.439  4.2028  1.7423 -1.8426
  697MOL0     H94039   7.489   8.043   9.442  0.9883 -1.6126 -0.9762
  697MOL0     H94040   7.274   8.044   9.587  1.6199  1.1428 -2.4459
  697MOL0     H94041   7.315   7.863   9.607 -1.6531  0.7293 -1.1865
  697MOL0     H94042   7.527   7.927   9.701  1.6250  0.8926  1.2682
  697MOL0     H94043   7.487   8.097   9.687  2.3230 -0.1230 -0.8042
  697MOL0     H94044   7.346   7.887   9.867  2.3249 -1.3080 -1.7181
  697MOL0     H94045   7.271   8.038   9.818 -2.5079 -3.8427  0.2535
  697MOL0     H94046   7.553   7.893  10.033  0.3066 -0.3590 -2.5667
  697MOL0     H94047   7.745   8.004  10.166  1.8019  2.5756 -1.4223
  697MOL0     H94048   7.710   8.165  10.240 -0.4914  0.4793 -0.7147
  697MOL0     H94049   7.692   7.966  10.397 -2.1893 -0.2793  3.4374
  697MOL0     H94050   7.541   7.930  10.319  2.8189 -1.9820 -1.7631
  697MOL0     H94051   7.475   8.060  10.503  0.1063  0.7152  1.8328
  697MOL0     H94052   7.505   8.190  10.384 -1.6407 -0.0893  1.8057
  697MOL0     H94053   7.609   8.219  10.626 -2.1788 -2.7800  0.8094
  697MOL0     H94054   7.721   8.225  10.487 -3.6262  1.4905 -2.9777
  697MOL0     H94055   7.809   8.264  10.723  0.3826 -0.9088 -1.8585
  697MOL0     H94056   7.960   8.301  11.054 -2.9338 -0.3741 -0.2037
  697MOL0     H94057   8.070   8.357  10.927  0.4019 -0.5429  1.4301
  697MOL0     H94058   7.891   8.388  10.929  1.2599  1.0770 -2.5111
  697MOL0     H94059   8.191   7.738  11.033 -1.7864 -0.5589  2.3060
  697MOL0     H94060   8.395   7.607  11.109  1.7354 -0.5528  0.2847
  697MOL0     H94061   8.521   7.513  11.232  0.2694 -0.3503  0.0794
  697MOL0     H94062   8.646   7.620  11.183 -1.6320  1.4963 -1.2729
  697MOL0     H94063   8.616   7.446  11.440  1.0973  4.1007  3.8180
  697MOL0     H94064   8.700   7.391  11.301  1.7375 -0.1020 -0.2188
  697MOL0     H94065   8.846   7.495  11.490 -1.1128 -0.3927 -0.0131
  697MOL0     H94066   8.758   7.639  11.467 -1.3282 -0.8961 -0.0542
  697MOL0     H94067   8.929   7.477  11.268  0.1185  1.0017 -2.3350
  697MOL0     H94068   8.869   7.642  11.231 -2.0115 -0.5162 -0.4940
  697MOL0     H94069   9.078   7.560  11.435  0.6942  0.8503 -0.8224
  697MOL0     H94070   9.010   7.727  11.425  0.0372  0.3730 -0.5992
  697MOL0     H94071   9.226   7.725  11.327  3.3278 -3.3950 -1.7571
  697MOL0     H94072   9.206   7.580  11.247  0.6195 -0.1007  3.0295
  697MOL0     H94073   9.053   7.837  11.175  0.5332 -0.5138  1.7957
  697MOL0     H94074   9.043   7.689  11.077  0.3807  1.9568 -1.3879
  697MOL0     H94075   9.299   7.843  11.146 -0.0439 -0.4070  0.7854
  697MOL0     H94076   9.197   7.873  10.996  1.9706 -0.2206  0.2746
  697MOL0     H94077   8.418   7.906  11.436  0.4494  0.5722  1.1588
  697MOL0     H94078   8.243   8.023  11.335  2.9858  0.4878  0.2386
  697MOL0     H94079   8.032   7.849  10.860 -0.2566 -0.2629 -0.1140
  697MOL0     H94080   7.851   7.840  10.708 -2.8383  2.3809 -1.6803
  697MOL0     H94081   7.160   8.286   8.741 -0.2720  0.7956 -2.3936
  697MOL0     H94082   7.210   8.370   8.528 -1.5785 -1.5625  0.1158
  697MOL0     H94083   7.304   8.467   8.044  0.0829  1.8047  1.0847
  697MOL0     H94084   7.426   8.475   7.821  2.4011 -2.2036 -0.3995
  697MOL0     H94085   7.829   8.294   7.810 -0.7387 -0.2753  0.1711
  697MOL0     H94086   7.806   8.369   7.655 -1.1971 -0.8931  0.1800
  697MOL0     H94087   7.913   8.536   7.911  0.1770  3.2149 -0.5573
  697MOL0     H94088   7.859   8.599   7.762  1.4543  1.9141  1.5014
  697MOL0     H94089   8.049   8.449   7.658 -0.5578 -1.1646  0.4303
  697MOL0     H94090   8.107   8.440   7.819 -2.1435 -1.1809  0.1337
  697MOL0     H94091   8.078   8.706   7.832 -0.9452 -0.3926  0.5505
  697MOL0     H94092   8.042   8.685   7.663  1.3811 -0.4276 -0.5953
  697MOL0     H94093   8.475   8.629   7.732  0.4682 -0.3010  2.1141
  697MOL0     H94094   7.786   8.354   8.023  0.0258  1.6690 -0.4481
  697MOL0     H94095   7.659   8.297   8.225 -3.1686 -2.6923 -0.1294
  698MOL0     O94096   0.412  10.944   4.448 -0.2399  0.2531  0.1466
  698MOL0     C94097   0.458  10.852   4.508  1.1515 -0.0331  0.2422
  698MOL0     O94098   0.410  10.724   4.501 -0.6053 -0.0867 -0.6131
  698MOL0     C94099   0.320  10.698   4.402 -0.0490  0.2961 -0.2674
  698MOL0     C94100   0.361  10.706   4.271 -1.2860 -0.2750 -0.3594
  698MOL0     C94101   0.275  10.685   4.162  1.0408  1.2101 -0.1986
  698MOL0     C94102   0.142  10.648   4.183 -0.1736  0.7932 -0.7740
  698MOL0     O94103   0.056  10.644   4.079  0.3363 -0.4435  0.1202
  698MOL0     C94104   0.046  10.751   3.982  0.1600 -0.6059  0.1787
  698MOL0     C94105  -0.100  10.773   3.928 -0.1668  0.2556  0.6138
  698MOL0     C94106  -0.096  10.874   3.817  0.2435  0.0924 -0.2968
  698MOL0     C94107  -0.224  10.932   3.785  0.3120 -0.4213  0.3853
  698MOL0     C94108  -0.220  11.018   3.659 -0.6947 -0.1577  0.6610
  698MOL0     C94109  -0.294  11.147   3.675 -0.0322  0.0421  0.0841
  698MOL0     C94110  -0.436  11.140   3.724  0.5055  0.6789  0.2352
  698MOL0     C94111  -0.524  11.262   3.694  0.3603  0.4628  1.2357
  698MOL0     N94112  -0.494  11.368   3.783 -0.2560  0.9048 -0.4489
  698MOL0     C94113  -0.401  11.463   3.753  0.9469 -1.0576 -0.1194
  698MOL0     C94114  -0.427  11.561   3.845 -0.5433  0.0650 -0.0666
  698MOL0     C94115  -0.369  11.701   3.847  0.3463 -0.0750  0.3107
  698MOL0     C94116  -0.347  11.748   3.995 -0.7896 -0.7677 -0.1096
  698MOL0     C94117  -0.233  11.680   4.067 -0.7955  1.1218 -0.7455
  698MOL0     C94118  -0.222  11.713   4.220  0.3249 -0.0853  0.1719
  698MOL0     O94119  -0.123  11.626   4.276 -0.8412 -0.3574  1.0437
  698MOL0     C94120  -0.051  11.669   4.384  0.1053  0.0362 -0.0341
  698MOL0     C94121  -0.085  11.770   4.476 -0.5679 -0.3951 -0.1073
  698MOL0     C94122   0.013  11.824   4.566  0.0178  0.0392 -0.0636
  698MOL0     C94123  -0.031  11.935   4.651  0.0239 -0.1250 -0.6311
  698MOL0     C94124   0.145  11.767   4.566 -0.1707 -0.2113 -0.0822
  698MOL0     C94125   0.260  11.810   4.646 -0.0431  0.5630  1.4708
  698MOL0     O94126   0.374  11.728   4.646  0.6995  0.7259 -0.7502
  698MOL0     C94127   0.491  11.770   4.594 -0.7143  0.2532 -0.2013
  698MOL0     C94128   0.542  11.723   4.469  0.2933  0.1780  0.8638
  698MOL0     C94129   0.649  11.781   4.406 -0.1896 -0.0877  0.2438
  698MOL0     C94130   0.724  11.888   4.468 -0.3482  0.7219 -0.3733
  698MOL0     O94131   0.835  11.925   4.397 -0.1003  0.6385 -0.3542
  698MOL0     C94132   0.905  12.045   4.454  0.4458 -0.0123  0.6949
  698MOL0     C94133   1.016  12.076   4.360  0.6357  0.4133 -0.7866
  698MOL0     C94134   1.119  12.178   4.403 -0.0279  0.4503  0.7733
  698MOL0     C94135   1.063  12.316   4.363  0.7736 -0.8685 -0.4060
  698MOL0     C94136   1.164  12.430   4.378 -0.6173 -1.0942  0.9117
  698MOL0     C94137   1.115  12.574   4.362 -0.0253 -0.2505  0.2825
  698MOL0     C94138   1.227  12.668   4.377  0.3161 -1.0639 -0.8785
  698MOL0     C94139   1.178  12.808   4.359  0.0468  0.0026  0.2283
  698MOL0    Cl94140   1.313  12.921   4.360  0.2643  0.0147  0.3678
  698MOL0     C94141   0.682  11.922   4.601 -0.3420  0.3910  0.6502
  698MOL0     C94142   0.570  11.869   4.656  0.0373  0.0441 -0.3773
  698MOL0     O94143   0.257  11.917   4.696 -0.0023 -0.3951  0.0592
  698MOL0     C94144   0.177  11.665   4.476  0.1763  0.1666 -0.2146
  698MOL0     C94145   0.080  11.620   4.387  0.1929 -0.0027  0.0626
  698MOL0     N94146  -0.512  11.505   3.943 -0.4428 -0.1734  0.1015
  698MOL0     N94147  -0.563  11.392   3.901 -0.7556 -0.4386  0.4698
  698MOL0     C94148   0.110  10.611   4.315  0.3649  0.0952 -0.4144
  698MOL0     C94149   0.201  10.632   4.427 -0.3632 -0.5939  0.1273
  698MOL0     C94150   0.585  10.879   4.573 -0.3363 -0.1943  0.1842
  698MOL0     C94151   0.663  10.991   4.539 -0.2052  1.4389  0.2028
  698MOL0     C94152   0.786  11.016   4.602  0.1473  0.7007  0.7751
  698MOL0     C94153   0.846  10.925   4.693 -0.4815 -1.0580 -0.5295
  698MOL0     O94154   0.967  10.939   4.760  0.5777  0.0238 -0.3269
  698MOL0     C94155   1.021  11.076   4.779  0.3036  0.1430 -0.4757
  698MOL0     C94156   1.115  11.083   4.904  0.8553 -0.4587 -0.1914
  698MOL0     C94157   1.153  11.226   4.939 -1.0170 -0.3055  0.7685
  698MOL0     C94158   1.276  11.230   5.022  0.3915  0.1248 -0.2283
  698MOL0     C94159   1.266  11.152   5.151  0.3931  0.8445  0.2775
  698MOL0     C94160   1.259  11.104   5.266 -0.8973  0.3166  0.1321
  698MOL0     C94161   0.768  10.817   4.723 -0.0483  0.1698  0.8055
  698MOL0     C94162   0.643  10.789   4.660  0.2618 -0.1821  0.1111
  698MOL0     H94163   0.460  10.744   4.246 -2.2748  1.3008 -2.2126
  698MOL0     H94164   0.304  10.704   4.060  0.5178  1.2440 -0.3429
  698MOL0     H94165   0.095  10.844   4.011 -2.2079 -0.4230  4.3023
  698MOL0     H94166   0.101  10.707   3.898  0.8365  1.5608 -0.5799
  698MOL0     H94167  -0.143  10.683   3.885 -0.9965  0.4578  1.0047
  698MOL0     H94168  -0.162  10.813   4.009 -1.1274 -0.4582  0.2375
  698MOL0     H94169  -0.029  10.957   3.842  0.4859 -0.6489  1.6867
  698MOL0     H94170  -0.048  10.822   3.734  1.4628 -0.8754  0.9580
  698MOL0     H94171  -0.293  10.849   3.765 -2.1140  1.5263  0.2450
  698MOL0     H94172  -0.267  10.987   3.869 -1.1857  1.4866 -1.5129
  698MOL0     H94173  -0.117  11.045   3.635 -1.4365  1.2994 -1.1358
  698MOL0     H94174  -0.252  10.962   3.571 -1.4173  0.4859  0.5031
  698MOL0     H94175  -0.236  11.204   3.748  2.2050  1.3371 -2.5366
  698MOL0     H94176  -0.303  11.194   3.576 -2.7901 -1.4280 -0.4751
  698MOL0     H94177  -0.479  11.060   3.664  1.9404  0.0194  0.0492
  698MOL0     H94178  -0.443  11.121   3.832  1.3658  1.5371  0.4552
  698MOL0     H94179  -0.623  11.216   3.698  1.1470 -1.2309  2.2990
  698MOL0     H94180  -0.518  11.296   3.590  1.6320 -2.8354  0.0694
  698MOL0     H94181  -0.335  11.479   3.668  1.9696  0.3489  0.9028
  698MOL0     H94182  -0.278  11.711   3.787 -0.3031 -0.0582 -0.7094
  698MOL0     H94183  -0.442  11.769   3.801  0.6860 -0.5960 -1.0474
  698MOL0     H94184  -0.431  11.745   4.065  1.5074  3.0097  3.2404
  698MOL0     H94185  -0.332  11.856   3.984 -0.4279 -0.8551 -0.4817
  698MOL0     H94186  -0.136  11.696   4.020  0.1572 -1.3493  0.2553
  698MOL0     H94187  -0.240  11.573   4.050  2.7706  0.9149 -1.6558
  698MOL0     H94188  -0.317  11.678   4.263  1.4073  0.2346  3.0683
  698MOL0     H94189  -0.199  11.814   4.253 -0.8405 -0.1623  1.3142
  698MOL0     H94190  -0.177  11.827   4.473 -0.3417 -0.0546 -1.0102
  698MOL0     H94191  -0.137  11.961   4.657  0.7689  3.3546 -0.4256
  698MOL0     H94192   0.001  11.902   4.750  3.4955  0.6788 -1.3431
  698MOL0     H94193   0.022  12.026   4.621  0.5510 -0.7351 -1.5886
  698MOL0     H94194   0.486  11.653   4.409  0.8449  0.7756 -0.3917
  698MOL0     H94195   0.685  11.738   4.313  0.2257  2.0141 -0.6272
  698MOL0     H94196   0.841  12.131   4.474 -0.3387 -0.2508 -0.6389
  698MOL0     H94197   0.942  12.024   4.555 -0.1923 -0.8007  0.7745
  698MOL0     H94198   1.075  11.989   4.329  0.6744  1.0963 -2.7949
  698MOL0     H94199   0.970  12.101   4.264 -0.7624  3.0780  0.4759
  698MOL0     H94200   1.213  12.161   4.349 -0.5088 -0.6319  0.2460
  698MOL0     H94201   1.134  12.181   4.511 -0.2415 -1.1320  0.8678
  698MOL0     H94202   1.023  12.315   4.261 -0.8790  0.9520  0.1602
  698MOL0     H94203   0.972  12.342   4.416 -0.7599 -3.9159 -1.3008
  698MOL0     H94204   1.255  12.420   4.318 -1.2565  1.5314 -0.7101
  698MOL0     H94205   1.194  12.420   4.483  1.5073 -4.0236  0.1358
  698MOL0     H94206   1.064  12.593   4.267 -2.3754 -1.2669  1.2670
  698MOL0     H94207   1.040  12.591   4.441 -1.0298  0.6114 -0.8206
  698MOL0     H94208   1.310  12.638   4.312 -2.2185 -2.1324 -3.8908
  698MOL0     H94209   1.256  12.670   4.482 -0.5822  0.1941 -0.6330
  698MOL0     H94210   1.105  12.838   4.436  0.9004  0.2648  0.9547
  698MOL0     H94211   1.122  12.820   4.266  2.4959  4.4828 -0.9805
  698MOL0     H94212   0.745  12.001   4.639  3.2872 -0.0765 -3.5496
  698MOL0     H94213   0.543  11.905   4.755 -0.4101  0.9571 -0.8135
  698MOL0     H94214   0.274  11.615   4.477  1.8749  3.2447  0.8040
  698MOL0     H94215   0.112  11.543   4.317  0.8240 -2.2862  2.6571
  698MOL0     H94216   0.008  10.582   4.338  1.9842 -5.8189  0.7017
  698MOL0     H94217   0.187  10.612   4.533  2.5239 -3.4585  0.1432
  698MOL0     H94218   0.629  11.055   4.458 -0.8036  1.4374  0.4489
  698MOL0     H94219   0.828  11.114   4.581 -2.2943  1.9344  1.2807
  698MOL0     H94220   1.072  11.107   4.687 -0.2313  5.4703  0.7056
  698MOL0     H94221   0.939  11.146   4.791  0.1427 -0.2004  0.5915
  698MOL0     H94222   1.200  11.015   4.894 -0.1599 -2.4708  3.1948
  698MOL0     H94223   1.074  11.034   4.992 -1.3897 -0.0902 -0.9571
  698MOL0     H94224   1.068  11.272   4.991  0.5664  0.7144  2.5525
  698MOL0     H94225   1.182  11.286   4.852 -1.1237  0.5340  1.3079
  698MOL0     H94226   1.298  11.335   5.043 -0.4133  0.0468  1.1099
  698MOL0     H94227   1.361  11.200   4.960  0.4195 -1.7538  0.6458
  698MOL0     H94228   1.258  11.070   5.368  1.8307  2.0123  0.8299
  698MOL0     H94229   0.816  10.756   4.799 -0.3119 -1.6660 -0.4351
  698MOL0     H94230   0.588  10.700   4.689  1.5758 -0.5237  1.7308
  699MOL0     O94231   4.139   4.830   6.215  0.3667 -0.5704 -1.2194
  699MOL0     C94232   4.086   4.900   6.129 -0.6742  0.8589 -0.3374
  699MOL0     O94233   4.157   5.008   6.070 -0.0290 -0.2144  0.6944
  699MOL0     C94234   4.288   4.984   6.057 -0.4880 -0.1916 -0.0590
  699MOL0     C94235   4.327   4.937   5.932  0.3190  0.3493  0.7237
  699MOL0     C94236   4.453   4.888   5.915  0.2888 -0.3275 -0.5205
  699MOL0     C94237   4.540   4.891   6.020  0.5590 -0.0842 -1.1467
  699MOL0     O94238   4.656   4.829   6.007  0.1426  0.0461  0.1351
  699MOL0     C94239   4.742   4.846   5.894  0.0573 -0.9484  0.6789
  699MOL0     C94240   4.853   4.737   5.902  0.4652 -0.2470  0.1490
  699MOL0     C94241   4.894   4.681   6.030  0.6868  0.5667 -0.1116
  699MOL0     C94242   5.043   4.632   6.025 -0.6627  0.0415  0.2110
  699MOL0     C94243   5.077   4.573   6.164  0.1498 -1.1404  1.3416
  699MOL0     C94244   5.223   4.540   6.177 -0.4687 -0.2030 -0.7973
  699MOL0     C94245   5.261   4.416   6.095  0.3947 -2.2105  0.7753
  699MOL0     C94246   5.382   4.344   6.146 -0.4760 -0.0610 -0.1481
  699MOL0     N94247   5.450   4.278   6.034 -0.1697 -1.4598  0.1954
  699MOL0     C94248   5.410   4.169   5.951 -0.5638  0.4160 -0.8492
  699MOL0     C94249   5.512   4.148   5.860  1.0743  0.5560  0.2177
  699MOL0     C94250   5.515   4.040   5.754 -0.3030 -0.3419 -0.0467
  699MOL0     C94251   5.567   3.910   5.818 -0.5699  0.8465 -0.0516
  699MOL0     C94252   5.600   3.798   5.715  0.0616  0.3288  0.6728
  699MOL0     C94253   5.663   3.680   5.789 -0.4334  0.4913  1.0052
  699MOL0     O94254   5.696   3.601   5.671 -0.9862  0.4675  0.3380
  699MOL0     C94255   5.647   3.477   5.676 -0.9238 -0.3490  0.0940
  699MOL0     C94256   5.586   3.435   5.553  0.8305  0.0556 -0.3098
  699MOL0     C94257   5.546   3.296   5.542  0.4023  0.0442  1.4922
  699MOL0     C94258   5.485   3.266   5.410  0.7780  0.4822  0.7386
  699MOL0     C94259   5.556   3.209   5.650  0.3018 -0.2627  0.1265
  699MOL0     C94260   5.524   3.064   5.636 -0.2658 -0.1600  0.0187
  699MOL0     O94261   5.600   2.974   5.708 -0.8013  0.1867  0.6753
  699MOL0     C94262   5.554   2.844   5.740  0.0400 -0.7207 -0.4462
  699MOL0     C94263   5.641   2.734   5.741  0.8927 -0.0191 -0.4640
  699MOL0     C94264   5.603   2.603   5.775 -0.7132 -0.6155 -0.2907
  699MOL0     C94265   5.477   2.568   5.798  0.4866  0.3720 -0.3808
  699MOL0     O94266   5.447   2.433   5.818 -0.0322 -0.8807 -0.2771
  699MOL0     C94267   5.496   2.376   5.944 -0.7326 -0.0002 -0.8128
  699MOL0     C94268   5.416   2.239   5.979  0.4693 -0.5395  0.6544
  699MOL0     C94269   5.487   2.141   6.070 -0.3276  0.7191 -0.4841
  699MOL0     C94270   5.386   2.039   6.130  0.1389 -0.9446 -0.1489
  699MOL0     C94271   5.288   1.982   6.035  0.6188 -1.1708 -0.3323
  699MOL0     C94272   5.186   1.907   6.120  0.4141 -0.6695 -0.2139
  699MOL0     C94273   5.121   1.804   6.023 -0.0173 -0.0729 -0.8986
  699MOL0     C94274   5.007   1.741   6.111 -1.1716  0.2606 -0.2253
  699MOL0    Cl94275   5.083   1.655   6.260  0.2402 -0.1716 -0.4263
  699MOL0     C94276   5.384   2.671   5.781  0.0231 -0.8300  0.0402
  699MOL0     C94277   5.417   2.808   5.748 -0.6169  0.1729 -0.8230
  699MOL0     O94278   5.424   3.036   5.569  0.9037  0.2714  0.1652
  699MOL0     C94279   5.621   3.251   5.766  0.1466  0.6018  0.4403
  699MOL0     C94280   5.669   3.384   5.783  0.0089 -0.1692  0.7267
  699MOL0     N94281   5.613   4.236   5.894 -0.0021 -0.6432 -0.3229
  699MOL0     N94282   5.575   4.311   5.994  0.3961 -0.2468 -0.0038
  699MOL0     C94283   4.512   4.943   6.140 -0.4077  0.2486  0.0661
  699MOL0     C94284   4.380   4.982   6.159  0.6021 -0.2440  0.9795
  699MOL0     C94285   3.935   4.899   6.093 -0.3085  0.6694 -0.1888
  699MOL0     C94286   3.850   4.811   6.155  0.2718  0.0771 -0.0769
  699MOL0     C94287   3.710   4.832   6.128 -1.2750 -0.5195 -0.8987
  699MOL0     C94288   3.666   4.928   6.031 -0.2471  0.2651  0.2590
  699MOL0     O94289   3.541   4.966   6.004 -0.1194  0.3677 -0.3147
  699MOL0     C94290   3.415   4.899   6.033 -0.4187  0.1029 -0.2842
  699MOL0     C94291   3.359   4.974   6.155 -0.4635  0.3365  0.7547
  699MOL0     C94292   3.249   4.902   6.234 -0.2120 -0.7588 -0.0037
  699MOL0     C94293   3.137   4.845   6.150 -0.3261 -0.5357 -0.8557
  699MOL0     C94294   3.017   4.929   6.147  0.4989  0.5193 -0.8322
  699MOL0     C94295   2.918   4.994   6.148  0.4942  0.1923 -0.3616
  699MOL0     C94296   3.753   5.008   5.969  0.0097 -0.8110 -0.4215
  699MOL0     C94297   3.888   5.004   6.011  0.9490  0.4018  0.3707
  699MOL0     H94298   4.260   4.937   5.847  1.5676  0.7671 -0.2937
  699MOL0     H94299   4.491   4.852   5.820  2.7099  5.7539 -2.3661
  699MOL0     H94300   4.684   4.830   5.802 -1.6178  2.3117  1.0031
  699MOL0     H94301   4.779   4.948   5.882 -2.2807 -0.2804 -2.3637
  699MOL0     H94302   4.828   4.653   5.838  0.9935 -4.1489  4.5584
  699MOL0     H94303   4.935   4.790   5.852  2.3528 -0.8105  2.4664
  699MOL0     H94304   4.882   4.768   6.095  2.2279  3.4344 -3.3444
  699MOL0     H94305   4.829   4.596   6.053  2.4613 -0.5376  1.0987
  699MOL0     H94306   5.054   4.552   5.952 -2.2121 -2.1847  2.2475
  699MOL0     H94307   5.097   4.725   6.009 -3.0128  1.6035  0.7635
  699MOL0     H94308   5.044   4.654   6.230 -0.0589  0.6846 -0.8546
  699MOL0     H94309   5.025   4.482   6.193 -0.4980 -0.4629  2.3628
  699MOL0     H94310   5.283   4.628   6.156  1.2127 -0.8660  0.9342
  699MOL0     H94311   5.246   4.518   6.281 -2.4040  2.2897  0.2692
  699MOL0     H94312   5.176   4.347   6.087 -3.6275  2.2189  0.9467
  699MOL0     H94313   5.277   4.453   5.993 -0.6493 -0.8684  1.0704
  699MOL0     H94314   5.356   4.264   6.216 -1.0159 -0.2985 -0.6094
  699MOL0     H94315   5.459   4.410   6.186 -1.9188  1.1568  0.7301
  699MOL0     H94316   5.319   4.112   5.968  0.6726 -1.3820  0.0136
  699MOL0     H94317   5.418   4.021   5.707  0.9345 -2.8430 -1.8386
  699MOL0     H94318   5.582   4.075   5.675  2.7522  1.0093  2.9003
  699MOL0     H94319   5.485   3.866   5.875  0.3320 -0.5797  0.1960
  699MOL0     H94320   5.653   3.937   5.880 -1.5852  2.6164  0.6563
  699MOL0     H94321   5.666   3.826   5.633  1.2905 -0.3480  1.3996
  699MOL0     H94322   5.508   3.756   5.673  0.7542 -0.5599  0.0143
  699MOL0     H94323   5.592   3.627   5.853 -0.1758 -0.9796  0.1068
  699MOL0     H94324   5.753   3.701   5.847  1.4183 -0.0773 -1.5099
  699MOL0     H94325   5.580   3.499   5.466 -4.3992  0.4077  0.0052
  699MOL0     H94326   5.516   3.346   5.342 -2.0228  0.8147 -0.2441
  699MOL0     H94327   5.528   3.170   5.380  0.7955  0.6012  0.3829
  699MOL0     H94328   5.376   3.266   5.407  0.6999 -1.1619  2.1628
  699MOL0     H94329   5.746   2.745   5.717  2.1354 -1.1101  3.5633
  699MOL0     H94330   5.678   2.524   5.774 -0.4678 -0.3725 -0.9840
  699MOL0     H94331   5.603   2.351   5.947 -0.9743 -1.2249 -1.8922
  699MOL0     H94332   5.472   2.446   6.025 -1.2301  2.1384 -2.7100
  699MOL0     H94333   5.320   2.266   6.024  1.7669 -1.2211  4.1413
  699MOL0     H94334   5.400   2.190   5.883  2.3487  1.5430 -0.8539
  699MOL0     H94335   5.536   2.207   6.142  0.0177 -1.2126  1.1329
  699MOL0     H94336   5.561   2.087   6.010  1.3888  0.8550  1.3936
  699MOL0     H94337   5.431   1.953   6.181 -0.2560 -0.3130  1.3342
  699MOL0     H94338   5.335   2.090   6.212  0.2812 -0.0993 -0.5751
  699MOL0     H94339   5.333   1.902   5.974  0.0827 -0.3154 -1.9117
  699MOL0     H94340   5.235   2.060   5.979 -2.5183 -2.6256  0.3638
  699MOL0     H94341   5.239   1.850   6.197  1.3355 -1.0367 -1.0971
  699MOL0     H94342   5.120   1.981   6.168  1.3238  0.1097 -0.1343
  699MOL0     H94343   5.197   1.726   6.014 -0.1157 -0.6443  2.2190
  699MOL0     H94344   5.090   1.849   5.929  5.0392  3.0337 -1.4774
  699MOL0     H94345   4.939   1.677   6.053 -0.4743 -0.5901 -0.1353
  699MOL0     H94346   4.946   1.824   6.147 -0.1538  1.7509 -1.8142
  699MOL0     H94347   5.277   2.656   5.787  0.2149 -1.7552  1.8881
  699MOL0     H94348   5.339   2.883   5.739  2.1897  3.2792 -1.4374
  699MOL0     H94349   5.639   3.178   5.845  1.1359  2.0237  1.5941
  699MOL0     H94350   5.722   3.412   5.873 -1.4749 -0.6776  1.7992
  699MOL0     H94351   4.578   4.944   6.227  0.0379  3.6951 -0.1807
  699MOL0     H94352   4.364   5.029   6.255  0.2170  1.5417  0.0908
  699MOL0     H94353   3.885   4.740   6.228  0.8484  0.7094  0.2696
  699MOL0     H94354   3.650   4.754   6.173 -2.2602  0.7736  0.0930
  699MOL0     H94355   3.345   4.917   5.950  0.5784  1.0054 -0.9608
  699MOL0     H94356   3.423   4.791   6.046  0.9180 -0.1351 -2.5396
  699MOL0     H94357   3.328   5.073   6.119 -0.9222 -0.6694 -1.8572
  699MOL0     H94358   3.443   4.992   6.223  2.2388 -0.0843 -2.2181
  699MOL0     H94359   3.199   4.969   6.305 -0.5542  0.2467 -1.1523
  699MOL0     H94360   3.307   4.826   6.286  0.7934 -1.5819 -2.2151
  699MOL0     H94361   3.122   4.746   6.194 -2.8594 -2.0309 -4.6245
  699MOL0     H94362   3.152   4.827   6.043 -4.5142  1.3397 -1.9443
  699MOL0     H94363   2.836   5.061   6.131  3.1499  3.9380  0.4199
  699MOL0     H94364   3.713   5.085   5.904  0.9687  0.1398  0.0783
  699MOL0     H94365   3.961   5.069   5.963 -1.8988  3.7970  0.2440
  700MOL0     O94366   5.728   3.426   9.392  0.2157 -0.1616 -0.0433
  700MOL0     C94367   5.782   3.333   9.327  0.7506 -1.4448 -1.3892
  700MOL0     O94368   5.716   3.221   9.281  0.4604 -0.4055  0.1977
  700MOL0     C94369   5.580   3.227   9.259 -0.5141 -0.1871  0.4073
  700MOL0     C94370   5.476   3.314   9.310 -0.8373 -1.3090  0.1271
  700MOL0     C94371   5.344   3.326   9.270 -0.2577 -0.1716  0.5853
  700MOL0     C94372   5.311   3.242   9.158  0.5923 -0.1657  0.3329
  700MOL0     O94373   5.177   3.251   9.137  0.2906 -0.2454 -0.2090
  700MOL0     C94374   5.135   3.255   8.997  0.8988  0.3556 -0.7280
  700MOL0     C94375   4.989   3.278   9.007 -0.5135  0.0316  0.1761
  700MOL0     C94376   4.909   3.157   9.052  0.0911  0.0260  0.5453
  700MOL0     C94377   4.761   3.179   9.010  0.1789 -0.0479 -0.3149
  700MOL0     C94378   4.662   3.102   9.107 -0.4998  0.4620  0.0570
  700MOL0     C94379   4.508   3.118   9.068 -0.4453 -0.7065 -0.8564
  700MOL0     C94380   4.410   3.041   9.167  0.5470  0.0192  0.1387
  700MOL0     C94381   4.269   3.067   9.123  0.3838  0.2061 -0.2663
  700MOL0     N94382   4.184   3.000   9.222  0.5556  0.0890 -0.1476
  700MOL0     C94383   4.090   2.898   9.185 -0.0121 -0.5160 -0.5557
  700MOL0     C94384   4.014   2.883   9.287 -0.6765 -0.1661 -0.6317
  700MOL0     C94385   3.909   2.772   9.303 -0.0798  0.9948 -0.1097
  700MOL0     C94386   3.956   2.626   9.274 -0.2193 -0.4586  0.5384
  700MOL0     C94387   3.849   2.545   9.237  0.2462 -0.3665 -0.3126
  700MOL0     C94388   3.738   2.546   9.343 -0.3425  0.0566 -0.3159
  700MOL0     O94389   3.777   2.478   9.464 -0.4148 -0.8293 -0.2895
  700MOL0     C94390   3.793   2.554   9.581  0.1144 -0.2212  0.3383
  700MOL0     C94391   3.684   2.620   9.649  0.3158  0.0331 -1.2949
  700MOL0     C94392   3.706   2.699   9.761  0.5980  0.9523  0.7644
  700MOL0     C94393   3.578   2.748   9.830 -0.2457 -0.4950 -0.3975
  700MOL0     C94394   3.839   2.714   9.814 -0.5281  1.3750  0.6010
  700MOL0     C94395   3.886   2.802   9.920  0.4024 -0.2598 -0.4200
  700MOL0     O94396   4.017   2.800   9.951  0.3122  0.2632 -0.6185
  700MOL0     C94397   4.040   2.817  10.085 -0.5872  1.1217  0.4314
  700MOL0     C94398   4.028   2.695  10.167  0.4417 -0.4035 -0.0820
  700MOL0     C94399   4.067   2.701  10.300  0.3664 -0.5723  0.3668
  700MOL0     C94400   4.105   2.827  10.361 -0.7509  0.1377 -0.2501
  700MOL0     O94401   4.134   2.837  10.491  0.6751 -0.2995  0.4713
  700MOL0     C94402   4.266   2.789  10.518  0.8100  0.7310  0.3976
  700MOL0     C94403   4.309   2.823  10.659 -0.2560 -0.4345 -0.1240
  700MOL0     C94404   4.457   2.843  10.686 -0.5533 -0.0574  0.4578
  700MOL0     C94405   4.476   2.887  10.831 -1.3350 -0.3082 -0.1848
  700MOL0     C94406   4.616   2.931  10.845  0.3498 -0.5806  0.1192
  700MOL0     C94407   4.626   2.977  10.996 -0.0251 -0.2686 -1.3012
  700MOL0     C94408   4.605   2.867  11.106  0.2175 -0.4376  1.6247
  700MOL0     C94409   4.664   2.733  11.057  0.2651  0.5203 -0.2207
  700MOL0    Cl94410   4.839   2.734  11.047 -0.1421 -0.0862 -0.2916
  700MOL0     C94411   4.107   2.944  10.292 -0.2361 -0.1782 -0.2601
  700MOL0     C94412   4.089   2.937  10.151  1.1583  0.2820 -0.2838
  700MOL0     O94413   3.812   2.886   9.971  0.1926  0.2661  0.0123
  700MOL0     C94414   3.939   2.632   9.752  0.6916  0.4806  0.3781
  700MOL0     C94415   3.916   2.550   9.643  0.5729  0.7355 -0.2112
  700MOL0     N94416   4.060   2.976   9.392 -0.2208 -0.0408 -0.1635
  700MOL0     N94417   4.170   3.038   9.353  1.0508 -0.8107 -0.4173
  700MOL0     C94418   5.408   3.159   9.100  0.4590  0.7673 -1.1155
  700MOL0     C94419   5.536   3.145   9.155  0.1492 -0.2877  0.2259
  700MOL0     C94420   5.921   3.338   9.299 -0.1668  0.9576 -1.4945
  700MOL0     C94421   5.986   3.234   9.227  0.6834  0.1831 -0.7684
  700MOL0     C94422   6.120   3.240   9.185 -0.4092 -0.4831  0.4187
  700MOL0     C94423   6.193   3.360   9.212  0.1396 -0.0095  0.2184
  700MOL0     O94424   6.323   3.378   9.169  0.2888 -0.3508 -0.0427
  700MOL0     C94425   6.330   3.443   9.040  1.3283 -0.2552  1.3943
  700MOL0     C94426   6.475   3.431   8.986  0.0640 -0.2604  0.1444
  700MOL0     C94427   6.547   3.289   9.003  0.0975 -0.1932 -0.5540
  700MOL0     C94428   6.671   3.285   8.917 -0.0218 -0.3271  0.5882
  700MOL0     C94429   6.760   3.186   8.961 -0.0895  0.6559  0.1327
  700MOL0     C94430   6.844   3.107   9.001  0.2905  0.7629  0.3173
  700MOL0     C94431   6.135   3.468   9.282  0.0294 -0.3443  0.3026
  700MOL0     C94432   5.997   3.448   9.334 -0.8859 -0.5118  0.3717
  700MOL0     H94433   5.507   3.392   9.378  0.6741  0.0133 -1.9304
  700MOL0     H94434   5.276   3.403   9.305  0.2411  0.7113 -0.3326
  700MOL0     H94435   5.177   3.342   8.945  0.0625 -0.4527 -2.8769
  700MOL0     H94436   5.171   3.170   8.938  1.6675 -1.5877  2.3338
  700MOL0     H94437   4.950   3.353   9.075 -1.1307 -0.9740  0.9580
  700MOL0     H94438   4.959   3.319   8.910  1.0310 -0.2506 -0.4625
  700MOL0     H94439   4.935   3.063   9.002 -1.1422 -1.2988  2.2870
  700MOL0     H94440   4.915   3.151   9.161  1.2835  0.4133  0.5203
  700MOL0     H94441   4.730   3.283   9.017  1.5750  0.3565  0.1523
  700MOL0     H94442   4.734   3.156   8.906 -2.4402  1.6488 -0.1060
  700MOL0     H94443   4.683   2.995   9.118 -2.3760 -0.2482 -2.3402
  700MOL0     H94444   4.675   3.146   9.206 -0.0040 -0.1669  0.2787
  700MOL0     H94445   4.482   3.222   9.048 -1.1876 -1.0155 -1.5321
  700MOL0     H94446   4.499   3.071   8.969 -2.2546  1.7852 -1.9690
  700MOL0     H94447   4.432   2.934   9.163 -1.5490 -0.4546  0.1120
  700MOL0     H94448   4.431   3.083   9.266  1.4220  0.9878 -0.4299
  700MOL0     H94449   4.265   3.027   9.021  3.8410  0.1304 -0.4757
  700MOL0     H94450   4.257   3.175   9.128 -1.0695  0.0603 -0.1046
  700MOL0     H94451   4.098   2.829   9.101 -1.3417  0.0411 -1.1660
  700MOL0     H94452   3.866   2.788   9.402 -1.4128  0.5758 -0.5985
  700MOL0     H94453   3.829   2.784   9.229 -0.0917 -0.0219 -0.2835
  700MOL0     H94454   4.007   2.580   9.359  3.2380  0.0878 -1.1012
  700MOL0     H94455   4.025   2.627   9.190  0.2735  2.2630  0.9046
  700MOL0     H94456   3.884   2.444   9.212  1.0244 -0.1427 -0.1333
  700MOL0     H94457   3.795   2.588   9.152  0.8192  1.6493  0.2966
  700MOL0     H94458   3.641   2.518   9.300 -0.6176  0.2486  0.1679
  700MOL0     H94459   3.709   2.648   9.368 -1.5774 -0.1421 -0.8699
  700MOL0     H94460   3.587   2.603   9.603  0.4104 -2.6860 -0.7087
  700MOL0     H94461   3.506   2.665   9.821 -2.7179  1.5497 -0.6996
  700MOL0     H94462   3.586   2.744   9.938  1.2520 -3.6647 -0.5173
  700MOL0     H94463   3.527   2.836   9.791  2.9992  3.4757  3.3674
  700MOL0     H94464   3.981   2.615  10.110  1.3670  0.0286 -1.4912
  700MOL0     H94465   4.074   2.612  10.362  2.7798 -1.7975 -1.4587
  700MOL0     H94466   4.270   2.681  10.500 -1.4165  0.5088  0.9919
  700MOL0     H94467   4.341   2.838  10.455  1.0663  0.1495  0.2500
  700MOL0     H94468   4.272   2.924  10.682  2.0015  0.8020 -1.5700
  700MOL0     H94469   4.268   2.749  10.729  0.2018  1.2372  2.0359
  700MOL0     H94470   4.505   2.916  10.620  0.9669 -0.2533  1.3003
  700MOL0     H94471   4.509   2.748  10.668 -0.5754 -0.4389  2.2036
  700MOL0     H94472   4.419   2.979  10.849 -1.5694 -0.7543  1.5829
  700MOL0     H94473   4.445   2.805  10.896  0.5897  0.4256  1.7632
  700MOL0     H94474   4.620   3.018  10.779 -0.9846 -0.5979 -0.0108
  700MOL0     H94475   4.690   2.856  10.816 -0.1916 -0.7848 -0.7608
  700MOL0     H94476   4.732   3.003  11.007  1.0522 -3.9155 -1.4907
  700MOL0     H94477   4.556   3.059  11.009  1.1574  0.7081 -0.8728
  700MOL0     H94478   4.499   2.857  11.130 -0.8511  3.2458 -0.7802
  700MOL0     H94479   4.652   2.901  11.198 -2.7509  4.1062  1.7761
  700MOL0     H94480   4.616   2.694  10.967 -0.5334 -1.9249  1.1618
  700MOL0     H94481   4.642   2.662  11.137  4.0892  1.7180  2.1796
  700MOL0     H94482   4.140   3.039  10.334 -2.1337 -0.4281  2.0255
  700MOL0     H94483   4.093   3.036  10.108 -4.2638  1.7056  1.7097
  700MOL0     H94484   4.039   2.620   9.791  1.5793 -3.4573 -2.4612
  700MOL0     H94485   4.002   2.489   9.616 -0.4106 -0.2571 -1.2292
  700MOL0     H94486   5.378   3.111   9.007  3.6959  1.1684 -2.4855
  700MOL0     H94487   5.603   3.083   9.096 -1.5697  0.9850 -3.3829
  700MOL0     H94488   5.924   3.146   9.212 -0.9523  1.0208  0.6019
  700MOL0     H94489   6.172   3.163   9.130  1.9692  0.2785  1.4682
  700MOL0     H94490   6.261   3.399   8.968  2.3892 -0.7295  0.6427
  700MOL0     H94491   6.304   3.550   9.039 -0.0227 -0.5484 -0.8625
  700MOL0     H94492   6.538   3.508   9.031  1.0431  0.3723 -2.1748
  700MOL0     H94493   6.485   3.463   8.882  3.5015  0.2539  0.5331
  700MOL0     H94494   6.475   3.211   8.978  0.0677 -0.2355 -0.3364
  700MOL0     H94495   6.591   3.286   9.103  3.2755 -0.7636 -1.8453
  700MOL0     H94496   6.721   3.382   8.919  0.5170 -0.6091  1.2025
  700MOL0     H94497   6.630   3.264   8.818 -0.8552 -0.5717  0.9817
  700MOL0     H94498   6.918   3.041   9.040 -0.4337  0.7108  1.6554
  700MOL0     H94499   6.202   3.552   9.295 -0.5558  0.3377 -0.8566
  700MOL0     H94500   5.953   3.532   9.386  0.3859 -0.1968  0.9776
  701MOL0     O94501   1.482   7.974   4.528  0.2134 -0.0023  0.0674
  701MOL0     C94502   1.362   7.975   4.553 -0.3080  0.1888  0.4020
  701MOL0     O94503   1.271   8.055   4.504  0.4125  0.6009  0.7725
  701MOL0     C94504   1.313   8.150   4.419 -0.2146  0.7953 -0.8410
  701MOL0     C94505   1.325   8.276   4.470 -0.5346  0.5055  0.2906
  701MOL0     C94506   1.353   8.382   4.387 -0.7165  0.0526 -0.4670
  701MOL0     C94507   1.379   8.357   4.257 -0.2262 -0.5458  0.1162
  701MOL0     O94508   1.398   8.466   4.176  0.1570  0.0206  0.3244
  701MOL0     C94509   1.532   8.510   4.143  0.0978 -0.2906 -0.5623
  701MOL0     C94510   1.553   8.539   3.984  0.7433 -0.5634  0.9171
  701MOL0     C94511   1.703   8.581   3.956  0.2629 -0.8830  0.4538
  701MOL0     C94512   1.732   8.723   4.004 -0.1487 -1.1357  0.2418
  701MOL0     C94513   1.865   8.764   3.969 -0.7151  0.1519  0.1128
  701MOL0     C94514   1.895   8.819   3.828 -0.0786  0.6017 -0.1899
  701MOL0     C94515   2.029   8.894   3.826 -0.1953 -0.2791 -0.0964
  701MOL0     C94516   2.054   8.938   3.676 -0.5622  0.3589  0.2920
  701MOL0     N94517   2.199   8.962   3.662  0.6052 -0.7203  0.6336
  701MOL0     C94518   2.311   8.881   3.674  0.0859  0.9714 -0.0004
  701MOL0     C94519   2.418   8.961   3.674 -0.0453 -1.2897 -0.2986
  701MOL0     C94520   2.562   8.927   3.708  0.3339 -0.0940  0.4936
  701MOL0     C94521   2.635   8.877   3.579 -0.1477  0.3596  0.4398
  701MOL0     C94522   2.561   8.773   3.498  0.2234 -0.1076 -0.1854
  701MOL0     C94523   2.637   8.722   3.373 -0.4475 -0.1177 -0.0041
  701MOL0     O94524   2.773   8.685   3.413  0.2850  1.2625  0.0295
  701MOL0     C94525   2.791   8.548   3.431 -0.1014 -0.1594 -0.3460
  701MOL0     C94526   2.700   8.437   3.421 -0.5517 -0.5632  0.4327
  701MOL0     C94527   2.738   8.298   3.442 -0.2658 -0.2745 -0.0306
  701MOL0     C94528   2.634   8.203   3.466  1.1911 -0.5890 -1.0737
  701MOL0     C94529   2.873   8.266   3.478  0.8253 -1.0754 -0.1317
  701MOL0     C94530   2.925   8.128   3.513  0.0263 -0.5234  0.5419
  701MOL0     O94531   3.057   8.138   3.555 -0.0657  0.5914  0.7651
  701MOL0     C94532   3.124   8.047   3.633 -0.2411 -0.5170 -0.0329
  701MOL0     C94533   3.262   8.039   3.617 -0.0130  1.0736  0.4889
  701MOL0     C94534   3.333   7.967   3.711 -0.5090 -0.6220  0.1682
  701MOL0     C94535   3.277   7.868   3.802  0.2148 -0.6271  0.0390
  701MOL0     O94536   3.364   7.783   3.863  0.3109  0.0218  0.4946
  701MOL0     C94537   3.307   7.663   3.912  0.3129 -0.6699  0.9165
  701MOL0     C94538   3.424   7.569   3.944  0.4356  0.4358  0.2070
  701MOL0     C94539   3.373   7.432   4.010 -0.6505 -0.4820  0.2620
  701MOL0     C94540   3.372   7.453   4.165  0.0368 -0.2981 -0.5612
  701MOL0     C94541   3.322   7.335   4.245  0.4898 -0.4639  0.5063
  701MOL0     C94542   3.357   7.361   4.399  0.3140  0.2387 -0.2953
  701MOL0     C94543   3.362   7.237   4.491 -0.1285 -1.0697  0.5265
  701MOL0     C94544   3.427   7.261   4.621  0.4743  0.0566 -0.5919
  701MOL0    Cl94545   3.602   7.253   4.589 -0.1172 -0.1853  0.2692
  701MOL0     C94546   3.140   7.893   3.829 -0.0584 -0.0712 -0.2920
  701MOL0     C94547   3.071   7.986   3.744  0.6336  0.0381  0.0646
  701MOL0     O94548   2.856   8.026   3.511  0.4976  0.2288  0.0342
  701MOL0     C94549   2.960   8.382   3.481 -0.1253  0.3913  0.5751
  701MOL0     C94550   2.916   8.511   3.468 -0.2738  0.0412  0.5635
  701MOL0     N94551   2.368   9.097   3.660  0.5945 -0.1585  1.2073
  701MOL0     N94552   2.239   9.086   3.642  0.3040 -0.5296 -0.2070
  701MOL0     C94553   1.374   8.225   4.200 -0.3037 -0.7062 -0.2346
  701MOL0     C94554   1.329   8.121   4.285  0.3615 -0.6949 -0.2877
  701MOL0     C94555   1.335   7.893   4.667 -0.4991 -0.5251 -0.5051
  701MOL0     C94556   1.220   7.922   4.748  0.6423  0.4247  0.0649
  701MOL0     C94557   1.193   7.847   4.867 -0.0707 -0.6027  0.5171
  701MOL0     C94558   1.291   7.746   4.913  0.8066 -0.2909  0.1269
  701MOL0     O94559   1.273   7.680   5.033  0.2736  0.1146 -0.5030
  701MOL0     C94560   1.366   7.584   5.081 -0.3748  0.1587 -0.2056
  701MOL0     C94561   1.340   7.524   5.225 -0.8734 -0.7730 -0.2192
  701MOL0     C94562   1.453   7.447   5.288  0.2346  0.7424 -0.2944
  701MOL0     C94563   1.398   7.368   5.407 -0.3919 -0.3626  0.5768
  701MOL0     C94564   1.498   7.296   5.489  1.0159  0.6869 -0.3619
  701MOL0     C94565   1.574   7.225   5.551 -0.8169 -0.7548  0.5854
  701MOL0     C94566   1.404   7.723   4.835 -0.2487  1.3293  0.3204
  701MOL0     C94567   1.430   7.791   4.717  0.4929  0.1018  0.4150
  701MOL0     H94568   1.309   8.292   4.576 -0.7822 -3.3014  0.9491
  701MOL0     H94569   1.363   8.485   4.420 -1.1948 -0.1347  0.2920
  701MOL0     H94570   1.554   8.604   4.196  0.4953 -2.2654  3.1134
  701MOL0     H94571   1.607   8.440   4.180  1.9374 -0.0991 -3.5981
  701MOL0     H94572   1.527   8.444   3.935  0.7264  0.0485 -0.3103
  701MOL0     H94573   1.483   8.617   3.950 -2.3215 -2.9036  1.3757
  701MOL0     H94574   1.765   8.516   4.019 -1.6190 -2.8811  0.3681
  701MOL0     H94575   1.734   8.573   3.852  0.5324 -2.6082  0.6295
  701MOL0     H94576   1.656   8.793   3.969 -1.0054 -1.3340  1.6151
  701MOL0     H94577   1.725   8.724   4.113  0.0436 -1.2357  0.2547
  701MOL0     H94578   1.886   8.844   4.042  1.2180  0.1000 -0.3337
  701MOL0     H94579   1.922   8.673   3.989 -0.2603  0.4818  0.3328
  701MOL0     H94580   1.899   8.733   3.760 -0.2724  0.4903 -0.0635
  701MOL0     H94581   1.817   8.885   3.789 -3.7947 -3.3836 -0.3230
  701MOL0     H94582   2.025   8.990   3.877  0.2960 -0.5405  0.4326
  701MOL0     H94583   2.114   8.838   3.865  0.8927  2.0086  0.9703
  701MOL0     H94584   1.999   9.031   3.659  2.1412  1.7511 -1.6018
  701MOL0     H94585   2.027   8.861   3.602 -4.7065 -0.2324  2.1264
  701MOL0     H94586   2.315   8.774   3.692 -0.8952  0.7621 -0.8999
  701MOL0     H94587   2.616   9.014   3.746  2.5445 -2.0079  2.0189
  701MOL0     H94588   2.562   8.855   3.791  0.6753 -1.0724 -0.3428
  701MOL0     H94589   2.734   8.849   3.616  0.8570  3.4531  0.4085
  701MOL0     H94590   2.647   8.960   3.509  1.9424  0.1748  0.4955
  701MOL0     H94591   2.476   8.821   3.449  0.4171 -1.0647 -1.4944
  701MOL0     H94592   2.513   8.696   3.560 -0.9636  2.2104  1.9829
  701MOL0     H94593   2.645   8.812   3.311 -0.4040  0.9026  1.4341
  701MOL0     H94594   2.584   8.650   3.310 -1.7999  0.6199  0.2267
  701MOL0     H94595   2.597   8.465   3.398 -0.9390 -0.8964  1.7074
  701MOL0     H94596   2.626   8.131   3.383 -2.4238  0.4915 -1.8407
  701MOL0     H94597   2.647   8.144   3.557 -2.0081  0.9740  0.5558
  701MOL0     H94598   2.537   8.253   3.467  1.7160  0.4666  0.3969
  701MOL0     H94599   3.312   8.098   3.541  3.8283  1.6967  3.1685
  701MOL0     H94600   3.442   7.962   3.707 -0.2479  0.2321  3.2108
  701MOL0     H94601   3.262   7.681   4.010  0.1586  0.6657  0.6198
  701MOL0     H94602   3.235   7.628   3.838 -0.0505  0.5067  0.6838
  701MOL0     H94603   3.464   7.543   3.846 -2.0692 -2.0034 -0.2958
  701MOL0     H94604   3.490   7.626   4.011  1.0654 -0.0926  0.0467
  701MOL0     H94605   3.445   7.353   3.988 -1.5592 -0.8721 -1.4350
  701MOL0     H94606   3.271   7.405   3.983  0.0454 -0.6306 -2.5093
  701MOL0     H94607   3.472   7.493   4.185 -0.6777  1.1205  0.3737
  701MOL0     H94608   3.299   7.533   4.180  0.0754  0.0230 -1.9041
  701MOL0     H94609   3.371   7.243   4.211 -1.3310 -1.3039  0.0490
  701MOL0     H94610   3.219   7.310   4.219  1.2037 -1.0127 -2.0502
  701MOL0     H94611   3.460   7.397   4.410  1.3242 -2.3134 -0.5202
  701MOL0     H94612   3.278   7.427   4.433 -1.2553 -1.2283 -0.9473
  701MOL0     H94613   3.413   7.153   4.444 -0.4057 -1.3622  0.7451
  701MOL0     H94614   3.261   7.202   4.511  0.8867 -3.0745  2.6592
  701MOL0     H94615   3.404   7.176   4.686  1.1823  0.3538  0.0610
  701MOL0     H94616   3.396   7.352   4.671 -2.2367  0.0552 -2.0615
  701MOL0     H94617   3.083   7.852   3.912  2.5992  0.5156  1.9792
  701MOL0     H94618   2.963   7.993   3.756  0.7970  0.3979  1.5136
  701MOL0     H94619   3.066   8.374   3.502  0.4382  2.9793 -0.8665
  701MOL0     H94620   2.984   8.594   3.483  0.3575 -0.4617  0.4926
  701MOL0     H94621   1.396   8.203   4.096  0.3989  2.9366 -0.9866
  701MOL0     H94622   1.312   8.021   4.246  1.8051 -1.6153  1.3164
  701MOL0     H94623   1.156   8.003   4.716  1.2235  0.3499 -1.3833
  701MOL0     H94624   1.108   7.870   4.932 -1.5402 -0.1751 -1.4580
  701MOL0     H94625   1.373   7.501   5.010 -0.2949  1.6198 -1.9801
  701MOL0     H94626   1.465   7.632   5.081 -0.1728 -0.2150 -1.5354
  701MOL0     H94627   1.247   7.467   5.223 -0.8393 -0.9283  1.6978
  701MOL0     H94628   1.319   7.607   5.293 -0.0621  0.6713 -1.6395
  701MOL0     H94629   1.526   7.515   5.333 -0.5941 -0.0354  2.4893
  701MOL0     H94630   1.492   7.369   5.222  0.2169 -0.8502  1.4665
  701MOL0     H94631   1.312   7.307   5.379 -1.6619  0.9243  1.5324
  701MOL0     H94632   1.356   7.445   5.472 -2.6377 -0.8376 -0.2314
  701MOL0     H94633   1.625   7.163   5.623 -0.7804 -1.6274 -0.1763
  701MOL0     H94634   1.479   7.654   4.872 -1.3832  0.7501  1.6183
  701MOL0     H94635   1.524   7.771   4.667  1.7699 -0.3749  2.8389
  702MOL0     O94636   5.386   6.753   0.530 -0.6732 -0.4491  0.3332
  702MOL0     C94637   5.437   6.641   0.526  0.8205 -0.0491 -0.4234
  702MOL0     O94638   5.363   6.527   0.545  0.0012 -0.2842 -0.8334
  702MOL0     C94639   5.226   6.532   0.535  0.8736 -0.8815  0.2378
  702MOL0     C94640   5.166   6.474   0.639 -0.2419 -0.4323 -0.6866
  702MOL0     C94641   5.022   6.466   0.634 -0.1635 -0.5090 -0.3248
  702MOL0     C94642   4.948   6.492   0.513  0.8253 -0.4101 -0.2441
  702MOL0     O94643   4.820   6.475   0.493  0.0822  1.1540  0.4586
  702MOL0     C94644   4.722   6.434   0.589 -0.5015 -0.2361 -0.0455
  702MOL0     C94645   4.583   6.413   0.518  0.3066  0.5732  0.2200
  702MOL0     C94646   4.579   6.280   0.444 -1.0089  0.1960 -0.0878
  702MOL0     C94647   4.448   6.264   0.365 -0.7714 -0.2274 -0.1107
  702MOL0     C94648   4.424   6.113   0.331 -0.3866  0.6942  0.0788
  702MOL0     C94649   4.305   6.115   0.241 -0.1166  0.6233  0.3146
  702MOL0     C94650   4.239   5.976   0.216 -0.2314 -0.6506 -0.2027
  702MOL0     C94651   4.125   5.989   0.121  0.2551  0.4514  0.5327
  702MOL0     N94652   4.095   5.849   0.094  0.0660  0.0146  0.3055
  702MOL0     C94653   4.177   5.764   0.015 -0.1348  0.2066  0.0829
  702MOL0     C94654   4.136   5.637   0.035  0.2567 -1.0339  0.8192
  702MOL0     C94655   4.203   5.521  -0.039  1.2137 -0.2811  0.3176
  702MOL0     C94656   4.214   5.391   0.050  0.2090 -0.0263 -0.4949
  702MOL0     C94657   4.298   5.414   0.172 -0.3602  0.4588 -0.3299
  702MOL0     C94658   4.377   5.299   0.223  0.0777  0.3473 -0.4290
  702MOL0     O94659   4.486   5.282   0.131  0.1371 -0.3701  0.4112
  702MOL0     C94660   4.616   5.321   0.156 -0.4994 -0.3999 -0.1120
  702MOL0     C94661   4.642   5.399   0.263 -0.2686 -0.1692  0.6601
  702MOL0     C94662   4.774   5.442   0.296  0.1661 -0.8870 -0.2773
  702MOL0     C94663   4.805   5.561   0.400 -0.1029  0.3029 -0.5335
  702MOL0     C94664   4.884   5.393   0.220 -0.4610 -0.6999  0.1036
  702MOL0     C94665   5.026   5.440   0.239 -1.1184 -0.2973 -0.2650
  702MOL0     O94666   5.073   5.432   0.372  0.0697  1.0671 -1.1197
  702MOL0     C94667   5.207   5.417   0.408  0.4366 -0.0275  0.1259
  702MOL0     C94668   5.232   5.425   0.546  0.9197  0.0623 -0.5604
  702MOL0     C94669   5.356   5.397   0.589 -0.7844  0.0061  0.1344
  702MOL0     C94670   5.460   5.353   0.503 -0.0018  0.5374 -0.2233
  702MOL0     O94671   5.588   5.316   0.550  0.4122  0.1174  0.5136
  702MOL0     C94672   5.645   5.349   0.673  0.1415 -0.2414  0.5327
  702MOL0     C94673   5.681   5.495   0.664 -0.0405 -0.3414 -0.4328
  702MOL0     C94674   5.760   5.547   0.785 -0.6724 -0.1324  0.0583
  702MOL0     C94675   5.812   5.689   0.746 -0.0720 -0.4883  0.0246
  702MOL0     C94676   5.850   5.788   0.868  0.4174 -0.0795  0.3208
  702MOL0     C94677   5.988   5.762   0.938 -0.1071 -0.2766 -0.5072
  702MOL0     C94678   6.053   5.879   1.022 -1.5494  0.4926  0.6798
  702MOL0     C94679   6.169   5.831   1.111  0.1029  0.5591 -0.1504
  702MOL0    Cl94680   6.115   5.736   1.250  0.1177 -0.0128 -0.0268
  702MOL0     C94681   5.431   5.342   0.368  0.1184  0.0324 -0.1327
  702MOL0     C94682   5.310   5.388   0.326  0.7944  1.2588  0.1370
  702MOL0     O94683   5.095   5.459   0.139 -1.6227 -0.1113 -0.3791
  702MOL0     C94684   4.848   5.343   0.101 -0.1803  0.4991 -0.7286
  702MOL0     C94685   4.723   5.289   0.067  1.2083  0.1878 -1.0538
  702MOL0     N94686   4.035   5.638   0.129 -1.0635  0.0767  0.4767
  702MOL0     N94687   4.008   5.763   0.164 -0.0610 -0.1143  0.2293
  702MOL0     C94688   5.015   6.563   0.420  0.4147  0.6608 -0.1000
  702MOL0     C94689   5.156   6.591   0.428  0.6507  0.7990  0.5749
  702MOL0     C94690   5.582   6.635   0.539 -1.4133 -0.2280 -0.6657
  702MOL0     C94691   5.646   6.509   0.542 -0.3259 -0.4957 -0.1243
  702MOL0     C94692   5.778   6.497   0.580 -0.3093  0.3813 -0.1178
  702MOL0     C94693   5.854   6.612   0.605 -0.6041  0.5128 -0.0924
  702MOL0     O94694   5.994   6.590   0.622 -0.2403 -0.8702  0.5098
  702MOL0     C94695   6.076   6.685   0.680  0.3925  0.6771 -0.0943
  702MOL0     C94696   6.068   6.689   0.838 -1.3629 -1.0163 -0.0128
  702MOL0     C94697   6.141   6.824   0.886 -1.2113 -0.0684 -0.2050
  702MOL0     C94698   6.149   6.821   1.038 -0.7035  0.0030  0.6071
  702MOL0     C94699   6.021   6.801   1.111  0.0397  0.1210 -0.2659
  702MOL0     C94700   5.913   6.782   1.165 -0.6003  0.1518 -0.3854
  702MOL0     C94701   5.788   6.739   0.606  0.1500  0.7885  0.2685
  702MOL0     C94702   5.654   6.749   0.571  0.4910 -0.1413 -0.2639
  702MOL0     H94703   5.224   6.446   0.726 -0.2718 -1.2289 -0.9110
  702MOL0     H94704   4.979   6.425   0.724  1.1991  2.2416  1.7377
  702MOL0     H94705   4.763   6.341   0.629  2.7483  1.0458 -0.0527
  702MOL0     H94706   4.711   6.510   0.666  0.1619  0.8142 -0.9583
  702MOL0     H94707   4.505   6.413   0.595 -1.1790 -1.3982 -1.1619
  702MOL0     H94708   4.571   6.498   0.450 -0.3846 -0.6933 -1.3305
  702MOL0     H94709   4.673   6.264   0.390 -2.2370 -1.5166 -1.8678
  702MOL0     H94710   4.564   6.200   0.517 -2.5733  1.4201  1.0143
  702MOL0     H94711   4.370   6.301   0.432  0.4603  1.2264  0.5952
  702MOL0     H94712   4.455   6.326   0.275  0.5362  0.4776  0.4356
  702MOL0     H94713   4.512   6.074   0.279 -0.7213 -0.1662  0.1563
  702MOL0     H94714   4.414   6.060   0.426 -2.1502 -1.4053 -1.1714
  702MOL0     H94715   4.224   6.180   0.276 -3.2099 -1.7521 -1.9297
  702MOL0     H94716   4.328   6.153   0.141 -3.0192 -1.3646 -1.2349
  702MOL0     H94717   4.309   5.911   0.163  0.8015  0.2350  0.0358
  702MOL0     H94718   4.204   5.934   0.310  0.6739  1.0917  0.9654
  702MOL0     H94719   4.151   6.049   0.032 -2.2774 -0.8358 -1.2022
  702MOL0     H94720   4.034   6.035   0.159  0.0160  2.1095 -1.8200
  702MOL0     H94721   4.268   5.790  -0.038  1.2622 -0.5378  2.0183
  702MOL0     H94722   4.139   5.492  -0.122 -0.0081 -0.7712  1.4015
  702MOL0     H94723   4.302   5.549  -0.077  1.2534 -1.0532 -0.1620
  702MOL0     H94724   4.261   5.308  -0.003  1.7689  0.0041  0.7650
  702MOL0     H94725   4.111   5.359   0.069 -0.5350  1.9462 -1.0221
  702MOL0     H94726   4.215   5.435   0.240  0.5864 -0.0595  1.0240
  702MOL0     H94727   4.364   5.500   0.162 -0.0367  0.5100  1.7538
  702MOL0     H94728   4.322   5.205   0.221 -1.8753  1.4477 -0.8477
  702MOL0     H94729   4.405   5.313   0.328  0.7647 -0.2175 -0.5353
  702MOL0     H94730   4.555   5.445   0.309  0.1000  3.1086 -1.5404
  702MOL0     H94731   4.809   5.514   0.499  1.7420  2.2342  0.3939
  702MOL0     H94732   4.897   5.613   0.373 -0.8162  0.4643 -2.8898
  702MOL0     H94733   4.724   5.634   0.393 -2.6086 -2.2850 -0.4381
  702MOL0     H94734   5.146   5.441   0.610  1.3316 -0.2444  0.0781
  702MOL0     H94735   5.368   5.408   0.696 -1.3280  0.3771  0.1561
  702MOL0     H94736   5.565   5.331   0.746 -2.9783  2.1301 -1.9900
  702MOL0     H94737   5.738   5.293   0.685 -0.0184 -0.3915  1.1088
  702MOL0     H94738   5.728   5.513   0.567 -2.4864 -0.9336 -1.7963
  702MOL0     H94739   5.584   5.544   0.671 -0.7523 -1.8610  1.3107
  702MOL0     H94740   5.853   5.492   0.804  0.5745  1.3823 -1.3162
  702MOL0     H94741   5.698   5.558   0.874 -0.7920  1.0079 -0.1548
  702MOL0     H94742   5.899   5.678   0.681 -0.1965  0.2784 -0.2825
  702MOL0     H94743   5.742   5.748   0.686  4.3676  3.1116 -2.2700
  702MOL0     H94744   5.767   5.790   0.939 -0.8155 -0.4834 -1.0629
  702MOL0     H94745   5.856   5.886   0.820  2.4991 -0.7637 -0.9087
  702MOL0     H94746   5.970   5.673   0.998 -0.5006 -0.3043 -0.6647
  702MOL0     H94747   6.062   5.747   0.859 -2.7032  0.1614 -3.1972
  702MOL0     H94748   5.977   5.935   1.078 -2.7880  0.0189 -0.4502
  702MOL0     H94749   6.090   5.953   0.950 -3.0731 -0.5887 -1.3014
  702MOL0     H94750   6.214   5.926   1.143  0.3749 -0.1201  1.5896
  702MOL0     H94751   6.237   5.772   1.049 -0.1672  0.2815 -0.1798
  702MOL0     H94752   5.513   5.328   0.299  1.7164  3.3846  0.8724
  702MOL0     H94753   5.307   5.396   0.218 -1.7489 -1.1936 -0.0868
  702MOL0     H94754   4.920   5.318   0.024 -0.7454 -0.0307 -1.0970
  702MOL0     H94755   4.693   5.223  -0.014  0.2992  0.5828 -1.0543
  702MOL0     H94756   4.972   6.607   0.330 -0.7018  2.6149  1.3295
  702MOL0     H94757   5.211   6.636   0.345 -1.4800  0.6784 -0.9763
  702MOL0     H94758   5.592   6.416   0.525 -2.7689  0.0328  3.4290
  702MOL0     H94759   5.831   6.403   0.578 -0.9426  0.0218 -0.2233
  702MOL0     H94760   6.177   6.662   0.646 -0.1718  3.7059 -4.7958
  702MOL0     H94761   6.059   6.786   0.643  1.5992 -0.0832 -3.0743
  702MOL0     H94762   6.117   6.611   0.897  1.0974  0.1575 -0.3826
  702MOL0     H94763   5.963   6.700   0.866 -1.1436 -1.2045  0.9439
  702MOL0     H94764   6.091   6.914   0.848 -1.7296  0.8063  2.3300
  702MOL0     H94765   6.244   6.827   0.849 -0.7069 -0.1457  1.1238
  702MOL0     H94766   6.190   6.915   1.077 -2.6375  0.3089  2.0936
  702MOL0     H94767   6.226   6.749   1.066  1.9144  2.5218  0.3543
  702MOL0     H94768   5.825   6.753   1.219 -0.0038 -1.2385 -0.1015
  702MOL0     H94769   5.852   6.816   0.647 -0.6750  1.1998  0.8069
  702MOL0     H94770   5.607   6.847   0.569  2.9685  1.1069 -0.7637
  703MOL0     O94771   6.248   6.321   5.434 -0.3270  0.5196 -0.1370
  703MOL0     C94772   6.280   6.386   5.337 -0.0246  0.0486 -0.3347
  703MOL0     O94773   6.381   6.349   5.245  0.1355  0.2241 -0.1742
  703MOL0     C94774   6.448   6.228   5.268  0.5320 -1.1196  0.1089
  703MOL0     C94775   6.494   6.175   5.390 -0.4255  0.3584 -0.6384
  703MOL0     C94776   6.561   6.051   5.389  0.5371  0.2561 -0.0069
  703MOL0     C94777   6.587   5.970   5.278  0.6915 -0.0851 -0.0411
  703MOL0     O94778   6.665   5.860   5.277  0.6692  0.7282  0.6898
  703MOL0     C94779   6.745   5.825   5.387 -0.2433  0.0965  0.7872
  703MOL0     C94780   6.854   5.736   5.347 -0.4680  0.3555 -0.3461
  703MOL0     C94781   6.950   5.802   5.240 -0.3803  0.4885 -0.1492
  703MOL0     C94782   7.091   5.749   5.270  0.9317 -0.0201 -0.4436
  703MOL0     C94783   7.177   5.758   5.141  1.0330  1.6750 -0.3612
  703MOL0     C94784   7.323   5.709   5.166  1.1254  0.0473 -0.2560
  703MOL0     C94785   7.399   5.671   5.043 -0.1681 -0.3940  0.5674
  703MOL0     C94786   7.506   5.566   5.074 -0.4578  0.9930 -0.0853
  703MOL0     N94787   7.458   5.439   5.132 -0.2921 -0.9404  0.6228
  703MOL0     C94788   7.483   5.378   5.257 -0.2060 -0.2033 -0.0690
  703MOL0     C94789   7.415   5.257   5.238  0.5183 -0.3810  0.6651
  703MOL0     C94790   7.385   5.161   5.351 -1.2147 -0.2541  0.1693
  703MOL0     C94791   7.513   5.116   5.424  0.3303 -0.7277  0.0195
  703MOL0     C94792   7.626   5.060   5.337 -0.5650 -0.5843 -0.0540
  703MOL0     C94793   7.750   5.038   5.414 -0.1710  0.0023 -0.3046
  703MOL0     O94794   7.838   4.979   5.325 -0.2918  0.9646 -0.0063
  703MOL0     C94795   7.957   4.938   5.377  0.1039  0.4019  0.7419
  703MOL0     C94796   7.968   4.845   5.482  0.5127 -0.4969 -1.1909
  703MOL0     C94797   8.091   4.801   5.532  0.5781 -0.2775  0.5202
  703MOL0     C94798   8.096   4.696   5.644  1.0387 -0.1550  0.4102
  703MOL0     C94799   8.210   4.858   5.478  0.2114  0.5564 -1.2073
  703MOL0     C94800   8.340   4.842   5.540 -0.7181 -0.3300  0.2396
  703MOL0     O94801   8.452   4.825   5.462  0.0159 -1.0473  0.3704
  703MOL0     C94802   8.545   4.735   5.517  1.1240 -0.5397 -0.4757
  703MOL0     C94803   8.681   4.754   5.484  0.5215  0.0806 -0.1167
  703MOL0     C94804   8.779   4.669   5.524  0.1533 -0.8791  0.0358
  703MOL0     C94805   8.747   4.551   5.599  0.3672 -0.4196 -0.8723
  703MOL0     O94806   8.839   4.454   5.632 -0.1402 -0.1264 -0.0475
  703MOL0     C94807   8.916   4.395   5.525 -0.3278 -0.5162  0.3560
  703MOL0     C94808   9.010   4.284   5.579 -0.3802  0.6629  0.2590
  703MOL0     C94809   9.051   4.185   5.471 -0.2263  0.7843  0.1387
  703MOL0     C94810   9.166   4.094   5.507  0.0267 -0.5292 -0.4157
  703MOL0     C94811   9.109   3.980   5.590 -0.2056  0.7305  0.2155
  703MOL0     C94812   9.231   3.899   5.648 -0.3580 -0.1229 -0.5267
  703MOL0     C94813   9.185   3.777   5.741 -0.4165  0.0562  0.1844
  703MOL0     C94814   9.111   3.666   5.657  0.5557 -0.7873 -0.0375
  703MOL0    Cl94815   9.182   3.649   5.496 -0.2122 -0.3592  0.2219
  703MOL0     C94816   8.610   4.533   5.628  0.5015 -0.2533 -0.2702
  703MOL0     C94817   8.501   4.620   5.588 -0.3620  1.2511  0.4182
  703MOL0     O94818   8.348   4.874   5.655  0.0417  0.3655  1.0079
  703MOL0     C94819   8.201   4.932   5.358 -0.0745 -0.1337 -0.1973
  703MOL0     C94820   8.077   4.962   5.304  0.5121 -0.0929 -0.1274
  703MOL0     N94821   7.349   5.253   5.115  0.6392  0.2843  0.1422
  703MOL0     N94822   7.383   5.362   5.051  0.0454 -0.7965 -0.1149
  703MOL0     C94823   6.543   6.026   5.154 -0.8784 -0.7454  0.0806
  703MOL0     C94824   6.486   6.157   5.153  0.4847  0.0151 -0.0664
  703MOL0     C94825   6.188   6.497   5.315 -0.3787 -0.1608 -0.8531
  703MOL0     C94826   6.212   6.590   5.217 -0.0706 -0.5945  0.4081
  703MOL0     C94827   6.132   6.694   5.185 -1.1685 -0.7796  0.0730
  703MOL0     C94828   6.015   6.711   5.249 -0.3121 -0.4934 -0.6540
  703MOL0     O94829   5.919   6.804   5.211  0.0338  0.3217  0.3237
  703MOL0     C94830   5.924   6.858   5.079 -0.5523 -0.4823  0.6561
  703MOL0     C94831   5.821   6.973   5.059  0.3363 -0.9130 -0.8660
  703MOL0     C94832   5.856   7.102   5.128 -0.3525 -0.2166 -0.0969
  703MOL0     C94833   5.739   7.201   5.110  0.4178  0.9735 -0.3289
  703MOL0     C94834   5.626   7.181   5.210 -0.1679 -0.7941  0.4099
  703MOL0     C94835   5.540   7.175   5.295  0.1958  0.0166 -0.7847
  703MOL0     C94836   5.986   6.632   5.365 -0.0879  0.5025  0.9502
  703MOL0     C94837   6.067   6.522   5.388 -0.0012 -0.3404 -0.2562
  703MOL0     H94838   6.484   6.235   5.480 -0.3898 -0.8450  0.1960
  703MOL0     H94839   6.592   6.013   5.486 -0.8497 -0.0386  0.3436
  703MOL0     H94840   6.800   5.909   5.431 -0.5025 -0.2312  1.7580
  703MOL0     H94841   6.686   5.769   5.460 -1.6830  1.2604  0.5575
  703MOL0     H94842   6.907   5.715   5.441 -1.4979 -2.5937 -0.3250
  703MOL0     H94843   6.817   5.643   5.303 -0.5800  0.2259  0.0222
  703MOL0     H94844   6.919   5.776   5.138  0.5183 -0.8453 -0.1060
  703MOL0     H94845   6.955   5.911   5.229 -0.6335  0.3582 -1.8798
  703MOL0     H94846   7.137   5.796   5.357 -0.3885  0.6111 -0.0634
  703MOL0     H94847   7.079   5.643   5.294 -0.9832  0.5803  1.5851
  703MOL0     H94848   7.132   5.698   5.061  1.3589  2.1484 -0.9080
  703MOL0     H94849   7.165   5.861   5.105 -2.7543  1.1303 -1.0457
  703MOL0     H94850   7.371   5.783   5.231  1.9021  1.1774 -2.0595
  703MOL0     H94851   7.308   5.615   5.220 -0.5828 -2.3481 -4.4099
  703MOL0     H94852   7.336   5.638   4.960  0.3863  0.5770 -0.2633
  703MOL0     H94853   7.452   5.760   5.007 -0.2177 -0.4957  0.2456
  703MOL0     H94854   7.588   5.592   5.141 -0.9498 -0.0785  0.9498
  703MOL0     H94855   7.552   5.535   4.979  0.8973 -4.5161  1.9939
  703MOL0     H94856   7.529   5.427   5.342  1.4565  1.2312 -1.7013
  703MOL0     H94857   7.303   5.206   5.409 -0.4953  1.1769  0.1343
  703MOL0     H94858   7.343   5.066   5.316  2.4094 -2.2386  0.7457
  703MOL0     H94859   7.497   5.034   5.495  3.4433 -1.3176  0.1496
  703MOL0     H94860   7.531   5.210   5.477  2.5101 -0.3695 -1.2726
  703MOL0     H94861   7.650   5.126   5.254  0.5680  0.9490  1.4209
  703MOL0     H94862   7.594   4.966   5.291 -0.7071 -0.4220 -0.2867
  703MOL0     H94863   7.739   4.980   5.506  0.2185 -1.2084 -0.9913
  703MOL0     H94864   7.793   5.135   5.439 -0.0830 -0.4347  1.3391
  703MOL0     H94865   7.874   4.802   5.515  1.6998 -3.6681 -1.6595
  703MOL0     H94866   8.186   4.633   5.639  1.1100  0.0320 -2.3015
  703MOL0     H94867   8.108   4.753   5.736  3.5549  1.7034 -0.9119
  703MOL0     H94868   8.010   4.629   5.655  1.6592 -0.7241  2.1610
  703MOL0     H94869   8.700   4.852   5.440 -0.3491  0.6397  0.6942
  703MOL0     H94870   8.882   4.694   5.500 -0.9872  1.4786 -3.0114
  703MOL0     H94871   8.850   4.367   5.442  1.1993 -0.4481 -0.9391
  703MOL0     H94872   8.975   4.479   5.489 -1.9199  1.4969  2.2053
  703MOL0     H94873   9.097   4.340   5.617 -0.9169  1.1306  0.8150
  703MOL0     H94874   8.960   4.231   5.660 -0.5902 -0.6589 -0.7078
  703MOL0     H94875   9.090   4.238   5.383 -1.4722  0.8896 -0.3648
  703MOL0     H94876   8.969   4.127   5.429  0.1393  0.3589 -0.0039
  703MOL0     H94877   9.213   4.050   5.418 -2.5853 -2.2869 -1.0305
  703MOL0     H94878   9.238   4.143   5.574 -1.2578 -2.5948  2.6890
  703MOL0     H94879   9.043   3.924   5.522 -0.2038  0.7835  0.1701
  703MOL0     H94880   9.049   4.021   5.672 -0.1275  5.0655 -1.6255
  703MOL0     H94881   9.294   3.863   5.567 -1.8711  0.4153 -1.9836
  703MOL0     H94882   9.294   3.959   5.716 -1.9264 -0.1697  1.0443
  703MOL0     H94883   9.115   3.813   5.817  0.3494  4.7600 -1.0533
  703MOL0     H94884   9.268   3.724   5.789 -2.0287 -2.1912  0.6457
  703MOL0     H94885   9.004   3.687   5.648  0.9915  0.5737 -3.1513
  703MOL0     H94886   9.118   3.570   5.709 -1.6501 -0.4127  1.0686
  703MOL0     H94887   8.592   4.436   5.674  2.5828 -0.8341 -0.5605
  703MOL0     H94888   8.398   4.587   5.600 -0.0318  0.8734  2.7387
  703MOL0     H94889   8.288   4.963   5.301  1.7417  3.0912  3.8480
  703MOL0     H94890   8.063   5.007   5.206  1.0808  0.8696  0.2210
  703MOL0     H94891   6.570   5.979   5.060  0.2308  2.8856 -1.5651
  703MOL0     H94892   6.447   6.187   5.056 -2.5292  2.6568  1.7896
  703MOL0     H94893   6.301   6.587   5.155 -0.1248 -0.3864  0.3175
  703MOL0     H94894   6.153   6.755   5.098 -0.6699 -0.6147  0.3036
  703MOL0     H94895   6.021   6.901   5.052 -1.0803  0.9497  0.9675
  703MOL0     H94896   5.904   6.772   5.014 -3.2967  0.2874  0.3470
  703MOL0     H94897   5.727   6.939   5.104  0.1190  1.8990  1.0207
  703MOL0     H94898   5.814   6.999   4.954  4.0638  3.6483 -0.2897
  703MOL0     H94899   5.946   7.155   5.095 -0.2220 -0.6576 -0.4542
  703MOL0     H94900   5.876   7.095   5.235  2.0910  1.4213 -0.3538
  703MOL0     H94901   5.698   7.200   5.009  1.2069 -0.4780 -0.6558
  703MOL0     H94902   5.781   7.301   5.121 -0.8634  1.2248  5.3595
  703MOL0     H94903   5.468   7.158   5.372  0.9224 -1.2916 -0.3659
  703MOL0     H94904   5.893   6.642   5.419 -0.1230 -3.4611  1.9178
  703MOL0     H94905   6.043   6.442   5.456  3.5791  0.6338  2.5060
  704MOL0     O94906   4.477  10.648   5.098 -0.0527 -0.5241  0.1034
  704MOL0     C94907   4.473  10.655   4.973 -0.6110 -0.7174  0.1742
  704MOL0     O94908   4.553  10.600   4.877 -0.6294  0.3722  0.0747
  704MOL0     C94909   4.666  10.520   4.904 -0.8399 -1.1534 -0.7816
  704MOL0     C94910   4.703  10.416   4.820 -0.6040  0.1814  0.5953
  704MOL0     C94911   4.822  10.333   4.838  0.5481 -0.7988  0.1930
  704MOL0     C94912   4.904  10.361   4.947  0.0128 -0.8413  0.5311
  704MOL0     O94913   5.012  10.282   4.963  0.2248 -0.6089  1.1044
  704MOL0     C94914   5.114  10.310   5.055  0.3777  0.6245 -0.4570
  704MOL0     C94915   5.239  10.234   5.023 -0.6306 -0.0131 -0.1848
  704MOL0     C94916   5.346  10.232   5.131 -0.2598 -0.2606  1.0041
  704MOL0     C94917   5.425  10.363   5.152 -0.0410 -0.3855  0.4280
  704MOL0     C94918   5.511  10.356   5.280  0.1168  0.0332 -0.8339
  704MOL0     C94919   5.648  10.293   5.262 -0.6649  0.4392  0.2774
  704MOL0     C94920   5.731  10.298   5.396 -0.2680  0.6692  0.2736
  704MOL0     C94921   5.671  10.199   5.501 -1.0343  0.1279  0.1002
  704MOL0     N94922   5.742  10.232   5.623 -0.1043  0.6877  0.5818
  704MOL0     C94923   5.878  10.219   5.649 -0.1976 -0.1892 -0.0141
  704MOL0     C94924   5.899  10.272   5.768 -0.3664 -0.6725 -1.5196
  704MOL0     C94925   6.019  10.268   5.857  0.5437  0.1795 -0.4010
  704MOL0     C94926   6.002  10.309   6.012 -0.5978 -0.4521  0.1877
  704MOL0     C94927   5.921  10.209   6.092  0.7336  0.9835  0.4352
  704MOL0     C94928   6.011  10.158   6.208  0.2341 -1.2591  0.2006
  704MOL0     O94929   5.938  10.056   6.278 -0.4919  0.3432 -1.0445
  704MOL0     C94930   5.838  10.103   6.345  0.1851  0.8928 -0.6700
  704MOL0     C94931   5.813  10.241   6.392  0.1875 -1.0983  0.8690
  704MOL0     C94932   5.715  10.276   6.485  0.5262 -0.9284  0.2360
  704MOL0     C94933   5.706  10.418   6.532 -0.0028  0.1149 -0.0540
  704MOL0     C94934   5.628  10.177   6.532 -0.5440  1.2528  0.1771
  704MOL0     C94935   5.539  10.190   6.650  0.3302 -0.3287  0.2577
  704MOL0     O94936   5.485  10.072   6.702  0.2144 -0.0199 -0.7515
  704MOL0     C94937   5.407  10.086   6.814  0.8758 -0.2318 -0.2143
  704MOL0     C94938   5.277  10.129   6.801  0.7269  0.1002 -0.2462
  704MOL0     C94939   5.189  10.145   6.910 -0.1224  0.4642  0.5842
  704MOL0     C94940   5.225  10.108   7.038  0.7388  0.1335 -0.0852
  704MOL0     O94941   5.139  10.125   7.150 -0.5201 -0.2655  0.3374
  704MOL0     C94942   4.998  10.140   7.133  0.6741  0.1119  0.4618
  704MOL0     C94943   4.931  10.001   7.123  0.7230 -0.6537  0.1661
  704MOL0     C94944   4.898   9.951   6.986 -0.5102 -0.1234 -0.0129
  704MOL0     C94945   4.824  10.055   6.887  0.1552  0.4918  0.8858
  704MOL0     C94946   4.765   9.967   6.776 -0.4427  0.0549 -0.5607
  704MOL0     C94947   4.622   9.923   6.806  1.0436 -0.1427 -0.8600
  704MOL0     C94948   4.517  10.037   6.813  0.4630 -0.1195 -0.0859
  704MOL0     C94949   4.393  10.010   6.895  0.3220 -0.7488  0.4645
  704MOL0    Cl94950   4.299   9.869   6.849  0.4174 -0.5711 -0.1575
  704MOL0     C94951   5.359  10.058   7.059  1.0001 -0.0844 -0.0675
  704MOL0     C94952   5.442  10.048   6.946 -0.3141  0.5422  0.7197
  704MOL0     O94953   5.508  10.301   6.691 -0.3360  0.1907  0.0106
  704MOL0     C94954   5.653  10.040   6.490 -0.0803  0.4648 -0.4111
  704MOL0     C94955   5.753  10.005   6.401 -0.0737 -0.4278  0.3259
  704MOL0     N94956   5.777  10.323   5.814 -0.3360  0.9260 -0.4423
  704MOL0     N94957   5.683  10.298   5.726  0.1234  0.3373  0.6500
  704MOL0     C94958   4.875  10.465   5.029 -0.4843  0.2103 -0.7307
  704MOL0     C94959   4.758  10.547   5.018  0.1316 -0.6132 -0.0036
  704MOL0     C94960   4.366  10.739   4.914 -0.3816  0.0333  0.5682
  704MOL0     C94961   4.312  10.845   4.991 -0.4654 -0.8504 -0.7942
  704MOL0     C94962   4.211  10.922   4.935 -0.2579 -0.5428 -0.3192
  704MOL0     C94963   4.159  10.903   4.810 -0.3357 -0.0685 -0.6704
  704MOL0     O94964   4.066  10.993   4.769  0.2300 -0.3353 -0.0983
  704MOL0     C94965   4.026  11.013   4.620 -0.5200  0.7487 -0.4045
  704MOL0     C94966   3.967  11.149   4.594 -0.1139  0.0928 -0.2440
  704MOL0     C94967   3.818  11.154   4.618 -0.2582  0.6355  0.6008
  704MOL0     C94968   3.762  11.089   4.752 -0.5100  0.2094 -0.4084
  704MOL0     C94969   3.789  11.177   4.867  1.4418  0.1824  0.2795
  704MOL0     C94970   3.817  11.251   4.954 -0.5724  0.1178  0.2536
  704MOL0     C94971   4.215  10.800   4.735  0.3152  1.1530 -0.1079
  704MOL0     C94972   4.326  10.722   4.778 -0.1370 -0.4930  0.2379
  704MOL0     H94973   4.643  10.412   4.730  0.9062  3.2467 -0.6931
  704MOL0     H94974   4.836  10.242   4.781 -0.9023 -2.2553  2.0575
  704MOL0     H94975   5.145  10.415   5.058 -1.0807  1.0660  0.0864
  704MOL0     H94976   5.076  10.281   5.154 -2.0255 -4.2413 -2.4339
  704MOL0     H94977   5.220  10.129   5.000 -0.8007  0.5384 -2.9259
  704MOL0     H94978   5.278  10.279   4.931 -2.7505  2.6947  0.0843
  704MOL0     H94979   5.288  10.199   5.218 -3.6346 -3.1228 -1.9983
  704MOL0     H94980   5.431  10.172   5.098  1.0359  3.3838 -3.2866
  704MOL0     H94981   5.481  10.381   5.060 -3.2220  0.7396 -1.4140
  704MOL0     H94982   5.351  10.443   5.161  0.4234  0.2796 -1.3165
  704MOL0     H94983   5.528  10.459   5.310 -0.7658  0.0291 -0.2831
  704MOL0     H94984   5.449  10.308   5.357 -0.5521 -1.8169 -2.4243
  704MOL0     H94985   5.646  10.187   5.233 -1.4334 -0.1662  2.3991
  704MOL0     H94986   5.705  10.341   5.181  0.0904 -0.6056  0.1592
  704MOL0     H94987   5.839  10.281   5.389 -0.3284  0.2606  0.3436
  704MOL0     H94988   5.732  10.403   5.428 -0.5606  0.8598 -0.3339
  704MOL0     H94989   5.678  10.094   5.473  0.2290  1.1240 -4.1287
  704MOL0     H94990   5.565  10.214   5.522 -1.1922  1.3896 -1.4138
  704MOL0     H94991   5.946  10.160   5.589  1.2627 -1.3388  2.6268
  704MOL0     H94992   6.067  10.170   5.844  0.0116 -0.8404  3.7558
  704MOL0     H94993   6.093  10.334   5.810 -0.3622  1.0342 -0.6520
  704MOL0     H94994   5.971  10.414   6.013  1.0019  0.0968  2.5498
  704MOL0     H94995   6.103  10.311   6.054 -0.7254 -0.3135  0.4918
  704MOL0     H94996   5.911  10.123   6.026  0.1573  1.3459  0.0309
  704MOL0     H94997   5.827  10.252   6.128  1.2584  2.2727  0.3288
  704MOL0     H94998   6.025  10.241   6.277 -1.6070  0.5337 -1.4537
  704MOL0     H94999   6.110  10.128   6.172  0.8089 -1.2692  1.7301
  704MOL0     H95000   5.873  10.327   6.364 -1.4754 -0.1396  0.1261
  704MOL0     H95001   5.789  10.480   6.495  1.4772 -1.9380 -0.3999
  704MOL0     H95002   5.608  10.459   6.509  0.8673  2.5376  0.2947
  704MOL0     H95003   5.724  10.417   6.640 -0.5622  1.5641  0.0660
  704MOL0     H95004   5.237  10.158   6.704  1.0597 -0.6339 -0.6134
  704MOL0     H95005   5.096  10.200   6.898  0.0820  0.8036  0.5309
  704MOL0     H95006   4.957  10.188   7.222 -3.6704 -2.8592  0.3739
  704MOL0     H95007   4.973  10.204   7.048  1.1128 -0.0008  0.2449
  704MOL0     H95008   4.991   9.930   7.179  1.0611 -0.8394 -0.4260
  704MOL0     H95009   4.838  10.009   7.180  0.2404  0.9184 -0.7799
  704MOL0     H95010   4.848   9.854   6.997 -0.4876  0.0226  1.6767
  704MOL0     H95011   4.992   9.927   6.935  0.5473  2.0518  0.7969
  704MOL0     H95012   4.748  10.119   6.934 -0.9390 -2.8625  4.1884
  704MOL0     H95013   4.904  10.117   6.846  2.4579 -1.1042  2.7282
  704MOL0     H95014   4.827   9.877   6.792 -1.2131  0.0382  3.3412
  704MOL0     H95015   4.772  10.005   6.674  2.2674  0.4951 -0.3086
  704MOL0     H95016   4.580   9.846   6.741  1.1780 -3.8375  2.9913
  704MOL0     H95017   4.622   9.862   6.897 -1.9348  0.8542 -0.0816
  704MOL0     H95018   4.495  10.061   6.709  2.4798  1.9253 -0.1088
  704MOL0     H95019   4.559  10.126   6.859  1.0606 -0.0397 -0.7703
  704MOL0     H95020   4.326  10.096   6.884  0.8138 -0.5360 -1.0335
  704MOL0     H95021   4.414   9.999   7.002  1.6814 -4.0444 -0.0282
  704MOL0     H95022   5.393  10.049   7.162 -0.2962  3.6026  0.8564
  704MOL0     H95023   5.543  10.019   6.975 -0.0192  0.4553 -0.3200
  704MOL0     H95024   5.612   9.953   6.541  0.7304  1.6920  2.5301
  704MOL0     H95025   5.774   9.900   6.383  1.4440  0.1492 -1.5994
  704MOL0     H95026   4.932  10.482   5.120 -3.0201  4.9482  0.3263
  704MOL0     H95027   4.740  10.632   5.084 -0.2876  0.9711 -2.0755
  704MOL0     H95028   4.341  10.870   5.093  0.4145  2.1432 -1.6727
  704MOL0     H95029   4.170  11.007   4.990 -1.0498  0.9553 -3.0538
  704MOL0     H95030   4.108  11.000   4.548  1.1153  0.6923  1.3615
  704MOL0     H95031   3.952  10.938   4.592 -0.2639 -0.6100  2.2123
  704MOL0     H95032   3.994  11.187   4.495 -0.3435 -1.1188 -0.7976
  704MOL0     H95033   4.015  11.217   4.665  0.1998  0.8682 -1.1702
  704MOL0     H95034   3.782  11.104   4.527  0.8497 -1.4777  1.2635
  704MOL0     H95035   3.802  11.262   4.622  0.8488  0.8160  5.3565
  704MOL0     H95036   3.816  10.995   4.765 -0.3469 -0.1013 -2.8204
  704MOL0     H95037   3.653  11.077   4.748 -0.8304  1.8505  1.7151
  704MOL0     H95038   3.856  11.315   5.030 -0.3444 -1.5080  1.5795
  704MOL0     H95039   4.178  10.780   4.635  0.6437  4.4936 -0.9844
  704MOL0     H95040   4.368  10.650   4.710 -0.2560  0.3611 -0.7773
  705MOL0     O95041   2.150   1.787   3.239 -1.0767  0.9341 -0.6112
  705MOL0     C95042   2.093   1.818   3.344 -0.6031  0.7567 -0.0606
  705MOL0     O95043   1.967   1.869   3.357 -0.3345 -0.2534  0.0743
  705MOL0     C95044   1.877   1.880   3.255  0.5888  0.0793  0.3866
  705MOL0     C95045   1.792   1.996   3.258 -0.2705  0.2665  0.4909
  705MOL0     C95046   1.708   2.027   3.147 -0.1092  0.2948  0.3299
  705MOL0     C95047   1.698   1.937   3.041  0.3398 -0.3354  0.5261
  705MOL0     O95048   1.606   1.962   2.944 -0.2950 -0.0655 -0.3751
  705MOL0     C95049   1.633   2.074   2.849 -0.0057  0.9664  0.0799
  705MOL0     C95050   1.698   2.019   2.726 -0.5026 -0.2452 -0.5485
  705MOL0     C95051   1.744   2.119   2.617  0.1832 -0.2184 -0.3847
  705MOL0     C95052   1.863   2.207   2.651  0.4744  0.1132  0.6813
  705MOL0     C95053   1.907   2.269   2.519  0.0764  0.3251 -0.7369
  705MOL0     C95054   2.036   2.346   2.557 -0.1074  0.5717  0.1243
  705MOL0     C95055   2.064   2.448   2.450 -0.5478 -0.2944  0.5541
  705MOL0     C95056   2.147   2.566   2.487  1.1073  0.4851  0.6083
  705MOL0     N95057   2.288   2.537   2.509 -0.3067 -0.6274 -0.6019
  705MOL0     C95058   2.349   2.448   2.596  0.6174  0.0839 -0.4614
  705MOL0     C95059   2.484   2.464   2.578 -0.7405  0.2012  0.2090
  705MOL0     C95060   2.595   2.409   2.663  0.6296  0.8751  0.6156
  705MOL0     C95061   2.727   2.383   2.596 -0.0543 -0.7223 -0.4915
  705MOL0     C95062   2.849   2.370   2.697  0.2925 -0.3602  0.2880
  705MOL0     C95063   2.942   2.492   2.684 -0.5046 -0.1169  0.1512
  705MOL0     O95064   2.867   2.613   2.719  0.1805  0.5642  0.1948
  705MOL0     C95065   2.916   2.735   2.686  0.6439 -0.0575 -0.2714
  705MOL0     C95066   3.053   2.772   2.699  0.2499 -0.0078 -1.2358
  705MOL0     C95067   3.103   2.889   2.639  1.2105  0.2470  0.4973
  705MOL0     C95068   3.248   2.908   2.650 -0.1478 -0.6311 -0.9479
  705MOL0     C95069   3.008   2.975   2.573  0.2015 -0.1903  0.1713
  705MOL0     C95070   3.047   3.104   2.500  0.2439  0.6435 -0.6304
  705MOL0     O95071   2.945   3.194   2.515 -0.3994 -0.1646  0.2588
  705MOL0     C95072   2.970   3.328   2.467  0.1537 -0.0499 -0.2786
  705MOL0     C95073   2.867   3.390   2.401 -1.0584  0.4637  0.2812
  705MOL0     C95074   2.881   3.525   2.360 -0.1198 -1.0396 -0.3825
  705MOL0     C95075   2.994   3.594   2.394  0.4344 -0.1771 -0.0184
  705MOL0     O95076   2.988   3.726   2.365 -0.2141 -0.0392  0.2942
  705MOL0     C95077   3.109   3.812   2.380 -0.4857 -0.1357 -0.4976
  705MOL0     C95078   3.216   3.789   2.267  0.2998  0.5360 -0.1335
  705MOL0     C95079   3.295   3.926   2.254 -0.1379  1.2084  0.7678
  705MOL0     C95080   3.411   3.909   2.150 -0.7807 -0.4375 -0.2326
  705MOL0     C95081   3.469   4.042   2.112  0.2829 -0.4709 -0.7025
  705MOL0     C95082   3.559   4.099   2.222 -1.1661  0.5699  0.7865
  705MOL0     C95083   3.579   4.247   2.194  0.2256 -0.5238  0.9189
  705MOL0     C95084   3.675   4.304   2.300 -0.1513 -0.6251 -0.2199
  705MOL0    Cl95085   3.623   4.272   2.473  0.6034 -0.1783  0.1460
  705MOL0     C95086   3.095   3.529   2.457 -0.7786 -0.4199 -0.3159
  705MOL0     C95087   3.086   3.398   2.493  0.5199  0.3046  0.3772
  705MOL0     O95088   3.153   3.113   2.442  0.0557  1.1048 -0.8993
  705MOL0     C95089   2.871   2.948   2.587  0.3537  0.3990  1.7716
  705MOL0     C95090   2.825   2.827   2.632  0.4993 -0.3838  0.6859
  705MOL0     N95091   2.500   2.551   2.477  0.5479 -0.1135  0.8076
  705MOL0     N95092   2.384   2.602   2.440 -0.6671  0.1326  0.8095
  705MOL0     C95093   1.769   1.814   3.041 -0.3646 -0.6400  0.2144
  705MOL0     C95094   1.861   1.791   3.141 -0.1225  0.8071 -0.1840
  705MOL0     C95095   2.181   1.806   3.458  0.2839 -0.6507 -0.1511
  705MOL0     C95096   2.319   1.789   3.453 -0.4438 -0.3089  0.2241
  705MOL0     C95097   2.401   1.799   3.562  0.1543 -0.7041  0.0591
  705MOL0     C95098   2.349   1.803   3.683  0.3046 -0.3014  0.5107
  705MOL0     O95099   2.425   1.820   3.800  0.6607 -0.7541 -0.5080
  705MOL0     C95100   2.568   1.834   3.808 -0.1017 -0.7835  0.0535
  705MOL0     C95101   2.628   1.886   3.941 -0.2866 -0.3237  0.4672
  705MOL0     C95102   2.596   1.787   4.054  0.8232  0.2488 -0.0220
  705MOL0     C95103   2.678   1.815   4.173  0.3028 -0.8705 -0.1673
  705MOL0     C95104   2.603   1.905   4.269 -1.1485  0.6945  0.6367
  705MOL0     C95105   2.556   1.989   4.344  1.3285 -0.0115  0.2494
  705MOL0     C95106   2.214   1.803   3.696  0.1590 -0.6472  1.0757
  705MOL0     C95107   2.119   1.804   3.584  0.3898  0.7919 -0.2417
  705MOL0     H95108   1.817   2.071   3.332 -2.4680  0.4563  1.0985
  705MOL0     H95109   1.649   2.117   3.137  0.3078  0.5103 -0.2910
  705MOL0     H95110   1.526   2.089   2.831 -0.7338 -2.1459  1.1324
  705MOL0     H95111   1.683   2.163   2.889 -1.7485  2.2611 -0.4964
  705MOL0     H95112   1.788   1.978   2.771  0.7950  3.5161  0.6044
  705MOL0     H95113   1.639   1.940   2.678 -0.4254 -1.4711  1.2864
  705MOL0     H95114   1.777   2.062   2.530  1.8619  0.8697 -0.5024
  705MOL0     H95115   1.655   2.171   2.580  0.9673  0.3874 -1.4730
  705MOL0     H95116   1.835   2.275   2.732  0.0466  0.3011  0.3756
  705MOL0     H95117   1.942   2.145   2.695 -1.1207 -3.1021 -0.6799
  705MOL0     H95118   1.930   2.197   2.440 -0.3474  0.5581 -1.0749
  705MOL0     H95119   1.819   2.327   2.492 -0.2399 -0.0371 -0.5017
  705MOL0     H95120   2.012   2.397   2.651 -1.4215 -0.5429  0.4230
  705MOL0     H95121   2.123   2.280   2.570 -0.3883 -0.2287 -1.7800
  705MOL0     H95122   2.110   2.405   2.361  0.1213  0.6315  0.4420
  705MOL0     H95123   1.971   2.492   2.411  0.4499  1.3551 -0.0770
  705MOL0     H95124   2.105   2.609   2.579 -4.4729 -0.4177 -1.1656
  705MOL0     H95125   2.141   2.635   2.403  1.3726 -2.9433 -2.4791
  705MOL0     H95126   2.306   2.375   2.663 -1.0819  0.4707 -1.0732
  705MOL0     H95127   2.611   2.482   2.743 -0.2484  2.0774 -0.2846
  705MOL0     H95128   2.551   2.317   2.703 -0.4725  0.2688 -1.7882
  705MOL0     H95129   2.735   2.471   2.531 -2.9880 -0.9430 -1.2726
  705MOL0     H95130   2.720   2.291   2.537  0.0071 -1.6155  0.8469
  705MOL0     H95131   2.904   2.277   2.679  0.9371 -0.9152  4.2511
  705MOL0     H95132   2.821   2.355   2.801  1.2747 -1.8284  0.3761
  705MOL0     H95133   2.978   2.489   2.580 -1.5427 -0.6433 -0.2063
  705MOL0     H95134   3.032   2.475   2.743 -0.8870 -2.6482  0.1094
  705MOL0     H95135   3.119   2.694   2.736 -0.2894  0.6557  1.3147
  705MOL0     H95136   3.294   2.869   2.559 -0.0911  0.8477 -1.5769
  705MOL0     H95137   3.278   3.012   2.665  1.8684 -1.3651  0.4863
  705MOL0     H95138   3.295   2.849   2.730  0.4294  4.2264  2.7836
  705MOL0     H95139   2.771   3.339   2.391 -0.6289 -0.0788 -1.2940
  705MOL0     H95140   2.801   3.583   2.315 -0.1400  2.0463  3.1320
  705MOL0     H95141   3.075   3.915   2.364 -0.7264 -0.5464 -3.0919
  705MOL0     H95142   3.137   3.784   2.482  0.6996 -2.3971 -1.3899
  705MOL0     H95143   3.278   3.699   2.281 -0.3693  0.0582 -0.1779
  705MOL0     H95144   3.165   3.779   2.171  0.2395 -0.2159 -0.0318
  705MOL0     H95145   3.360   3.937   2.341  2.9450 -0.6070 -1.0991
  705MOL0     H95146   3.228   4.011   2.235 -2.9097 -0.9798  0.1472
  705MOL0     H95147   3.497   3.854   2.190 -1.2506  0.2209  1.7757
  705MOL0     H95148   3.380   3.862   2.056  1.3889 -1.4579 -0.5037
  705MOL0     H95149   3.379   4.103   2.100 -0.0448 -1.0907 -1.4453
  705MOL0     H95150   3.513   4.013   2.016  0.7604 -4.9479  0.6278
  705MOL0     H95151   3.513   4.092   2.321  1.8812  0.8237  2.3200
  705MOL0     H95152   3.657   4.051   2.222 -0.6927  1.5091 -0.4499
  705MOL0     H95153   3.482   4.293   2.213 -0.1789 -0.3196 -1.4506
  705MOL0     H95154   3.615   4.265   2.093  0.2303 -3.5954  0.2786
  705MOL0     H95155   3.690   4.411   2.289 -2.3924  0.1945  2.9742
  705MOL0     H95156   3.776   4.265   2.280  0.7554  1.7519 -0.5572
  705MOL0     H95157   3.185   3.584   2.485 -1.8597 -0.2685  3.3689
  705MOL0     H95158   3.165   3.356   2.554 -0.1334 -2.3429 -0.4804
  705MOL0     H95159   2.797   3.014   2.543  0.4573 -0.7125 -0.1743
  705MOL0     H95160   2.731   2.776   2.611  1.1732 -0.3489 -2.9804
  705MOL0     H95161   1.754   1.755   2.951 -1.9208 -0.3074  0.2332
  705MOL0     H95162   1.919   1.699   3.144 -1.4085 -0.1397 -2.1534
  705MOL0     H95163   2.372   1.781   3.359 -0.4696  0.1653  0.1676
  705MOL0     H95164   2.508   1.797   3.541  0.2108 -1.4756  0.3677
  705MOL0     H95165   2.607   1.732   3.797 -1.5807 -1.5020  1.1480
  705MOL0     H95166   2.601   1.889   3.720 -0.3565 -1.2765 -0.3549
  705MOL0     H95167   2.590   1.987   3.957  2.1673  0.5224  1.4091
  705MOL0     H95168   2.736   1.903   3.945 -0.1638 -0.7980  4.9718
  705MOL0     H95169   2.617   1.685   4.021 -2.9587 -0.8604  0.4907
  705MOL0     H95170   2.488   1.795   4.070  0.9750 -1.0123  1.9635
  705MOL0     H95171   2.766   1.876   4.151 -0.3448  0.4098  0.6743
  705MOL0     H95172   2.691   1.729   4.239 -0.5370 -0.2065  0.8970
  705MOL0     H95173   2.510   2.060   4.410  1.4052  2.5276 -2.1959
  705MOL0     H95174   2.179   1.802   3.799  2.6471  2.6927  2.1238
  705MOL0     H95175   2.011   1.808   3.586  0.3241  0.7561 -2.0633
  706MOL0     O95176   9.296   1.879   3.722  0.5037  0.2945  0.6423
  706MOL0     C95177   9.279   1.841   3.837  0.5171  0.1721 -0.2672
  706MOL0     O95178   9.195   1.740   3.872  0.5234 -0.3827  0.8567
  706MOL0     C95179   9.134   1.672   3.763  0.6874 -1.2295 -0.9044
  706MOL0     C95180   9.007   1.717   3.717  1.1454  1.1900 -0.2947
  706MOL0     C95181   8.938   1.642   3.617 -0.1956 -0.2702  0.1376
  706MOL0     C95182   8.994   1.535   3.557  0.5901 -0.0805  0.7917
  706MOL0     O95183   8.915   1.493   3.458  0.3646 -0.1116  0.5908
  706MOL0     C95184   8.981   1.489   3.335  0.4891 -0.3339  0.9836
  706MOL0     C95185   8.882   1.444   3.230  0.3118 -0.6941  0.2242
  706MOL0     C95186   8.799   1.568   3.185 -0.0118 -0.4715 -0.6903
  706MOL0     C95187   8.697   1.556   3.085 -0.1795 -0.0768  1.3588
  706MOL0     C95188   8.593   1.662   3.095  0.3535  0.1493  0.4976
  706MOL0     C95189   8.495   1.657   2.980 -0.0984 -0.1856  0.2037
  706MOL0     C95190   8.395   1.534   3.004  1.1212 -0.7660 -0.2790
  706MOL0     C95191   8.412   1.406   2.927  0.0096  0.7502 -0.3380
  706MOL0     N95192   8.326   1.418   2.802 -0.6034  0.2465 -0.1808
  706MOL0     C95193   8.187   1.374   2.798 -1.2602  0.7129 -0.4791
  706MOL0     C95194   8.166   1.358   2.664 -0.1583 -0.6597 -0.4190
  706MOL0     C95195   8.045   1.299   2.613 -0.0042 -0.2355  0.4334
  706MOL0     C95196   7.942   1.405   2.564  0.5391  0.0968 -0.0620
  706MOL0     C95197   7.825   1.343   2.490 -0.2390 -0.6450 -0.4034
  706MOL0     C95198   7.760   1.226   2.562  0.3651 -0.4609  0.3723
  706MOL0     O95199   7.723   1.252   2.701  0.3793 -0.0559  0.1276
  706MOL0     C95200   7.675   1.145   2.769  1.3262  0.0491  0.2030
  706MOL0     C95201   7.653   1.017   2.703 -0.4863 -0.5923  0.6142
  706MOL0     C95202   7.601   0.909   2.775  0.7774  0.4920 -0.2919
  706MOL0     C95203   7.598   0.777   2.705  0.1987  0.6104  0.8011
  706MOL0     C95204   7.545   0.934   2.906 -1.0420 -0.1693 -0.4093
  706MOL0     C95205   7.485   0.825   2.984  1.2222 -0.1586  0.1200
  706MOL0     O95206   7.573   0.735   3.027  0.2113 -1.0869  0.7983
  706MOL0     C95207   7.547   0.628   3.105 -0.7061  0.3700 -0.2681
  706MOL0     C95208   7.647   0.528   3.118  0.0448  0.0085  0.5556
  706MOL0     C95209   7.630   0.419   3.198  0.2388 -0.3300 -0.3105
  706MOL0     C95210   7.517   0.408   3.289  0.0863  0.3603  0.1882
  706MOL0     O95211   7.510   0.320   3.391  0.2455 -0.3627 -0.4325
  706MOL0     C95212   7.600   0.205   3.395  0.0861  0.5988  0.3990
  706MOL0     C95213   7.573   0.123   3.520 -0.1245  1.1370 -0.7449
  706MOL0     C95214   7.424   0.068   3.514 -0.2250  0.4168  0.2827
  706MOL0     C95215   7.385  -0.036   3.625  0.0005 -0.1864  0.3034
  706MOL0     C95216   7.231  -0.045   3.623  0.4019  0.0638  0.0871
  706MOL0     C95217   7.182  -0.196   3.657  0.5677 -0.2204 -0.9943
  706MOL0     C95218   7.271  -0.279   3.761  0.9312  0.2915 -0.7823
  706MOL0     C95219   7.199  -0.395   3.829 -0.6822 -0.0965  0.2865
  706MOL0    Cl95220   7.058  -0.354   3.909  0.0866  0.5051  0.6376
  706MOL0     C95221   7.418   0.510   3.276 -0.3298 -0.8559 -0.8117
  706MOL0     C95222   7.427   0.610   3.192 -0.2458 -0.6415  0.3007
  706MOL0     O95223   7.364   0.809   2.972 -0.0269 -0.2110 -0.7392
  706MOL0     C95224   7.566   1.055   2.969  0.6248 -0.7344 -0.0421
  706MOL0     C95225   7.625   1.161   2.901  0.0166  0.7785  0.7529
  706MOL0     N95226   8.281   1.417   2.596  0.0001 -0.1010 -0.7614
  706MOL0     N95227   8.371   1.456   2.681 -0.4202 -0.2744 -0.2931
  706MOL0     C95228   9.129   1.510   3.590 -0.5337  0.2467  0.1756
  706MOL0     C95229   9.193   1.567   3.701 -0.4315  0.3062 -0.3015
  706MOL0     C95230   9.375   1.901   3.937  0.0539  0.3064  0.7195
  706MOL0     C95231   9.384   1.856   4.073  0.8266 -0.8106  0.3734
  706MOL0     C95232   9.464   1.923   4.166 -0.1188  0.0712 -0.0094
  706MOL0     C95233   9.545   2.019   4.124  0.0634  0.3183  0.5464
  706MOL0     O95234   9.618   2.079   4.220  0.2044 -0.2204 -0.0469
  706MOL0     C95235   9.605   2.219   4.235 -0.6122  0.2442  0.4788
  706MOL0     C95236   9.514   2.257   4.345  0.8510  0.5597  0.0515
  706MOL0     C95237   9.560   2.211   4.488 -0.4299  0.5991  0.0498
  706MOL0     C95238   9.458   2.171   4.589 -0.6642 -1.4122 -0.1898
  706MOL0     C95239   9.393   2.289   4.644 -0.6232  0.2264  0.0529
  706MOL0     C95240   9.341   2.373   4.714 -0.0768  0.5525 -0.1861
  706MOL0     C95241   9.544   2.066   3.988 -1.1691  0.4004  0.2452
  706MOL0     C95242   9.462   2.002   3.895  0.4577  0.7382 -0.2566
  706MOL0     H95243   8.951   1.801   3.754 -0.3160  0.8740 -1.6848
  706MOL0     H95244   8.843   1.690   3.595 -0.6576  0.0578  2.4767
  706MOL0     H95245   9.023   1.589   3.323 -3.9375  1.8504  1.3260
  706MOL0     H95246   9.065   1.420   3.330  1.5756  1.0195 -3.3270
  706MOL0     H95247   8.942   1.415   3.143 -0.2405 -2.0830  0.2880
  706MOL0     H95248   8.823   1.358   3.263 -2.0343 -0.6040 -3.2041
  706MOL0     H95249   8.761   1.605   3.281 -1.1587 -0.6848 -1.0443
  706MOL0     H95250   8.873   1.638   3.144 -1.9343  3.4251  1.8667
  706MOL0     H95251   8.743   1.560   2.985 -0.2714 -0.7652  1.2851
  706MOL0     H95252   8.644   1.461   3.083  0.1184 -0.2607  2.0398
  706MOL0     H95253   8.549   1.660   3.195  0.5074  2.7589  0.7004
  706MOL0     H95254   8.643   1.759   3.092 -2.0817  1.5144  0.8298
  706MOL0     H95255   8.438   1.750   2.970 -3.0650 -1.8485  0.3385
  706MOL0     H95256   8.545   1.649   2.884 -1.2997  0.5274 -0.5069
  706MOL0     H95257   8.395   1.512   3.111 -2.1997  1.4180  0.2922
  706MOL0     H95258   8.294   1.574   3.000  1.0616 -0.8858  0.0491
  706MOL0     H95259   8.393   1.319   2.991  2.1539  0.8229  0.5054
  706MOL0     H95260   8.513   1.393   2.886 -0.3007  0.3880 -1.0080
  706MOL0     H95261   8.117   1.349   2.877  0.4449 -1.1702  0.5381
  706MOL0     H95262   8.077   1.243   2.524  0.7317 -0.4860  0.8509
  706MOL0     H95263   7.995   1.227   2.679 -0.3941 -0.1785  0.2065
  706MOL0     H95264   7.999   1.479   2.507  2.0381 -0.4648  0.6420
  706MOL0     H95265   7.908   1.462   2.651 -1.3252 -1.0816  0.0282
  706MOL0     H95266   7.863   1.318   2.391 -1.3892  0.2974 -1.1213
  706MOL0     H95267   7.746   1.416   2.466 -0.7656 -1.8268 -2.5234
  706MOL0     H95268   7.831   1.142   2.558  1.2075  0.1560  1.7322
  706MOL0     H95269   7.668   1.208   2.505  0.6998  3.4691 -1.7214
  706MOL0     H95270   7.705   0.989   2.612  2.5905 -2.8578  2.8358
  706MOL0     H95271   7.677   0.783   2.629 -0.9429 -0.4172 -0.5131
  706MOL0     H95272   7.630   0.694   2.770  2.8548  1.3169  0.5199
  706MOL0     H95273   7.508   0.762   2.645  0.5880 -1.8533  0.7190
  706MOL0     H95274   7.740   0.536   3.063 -0.2963 -3.8699 -0.8508
  706MOL0     H95275   7.694   0.333   3.178 -1.2460 -1.4044 -0.5827
  706MOL0     H95276   7.598   0.139   3.308  1.6652 -0.6290  1.2323
  706MOL0     H95277   7.697   0.253   3.413 -0.8277  2.0449  1.6632
  706MOL0     H95278   7.655   0.051   3.530  0.1761  1.5876  0.1433
  706MOL0     H95279   7.582   0.175   3.616 -0.8422 -0.3867  0.1758
  706MOL0     H95280   7.407   0.025   3.415 -0.0645 -0.2536  0.5426
  706MOL0     H95281   7.361   0.158   3.522  0.9623  1.4422 -1.1938
  706MOL0     H95282   7.434  -0.130   3.596  0.0346 -0.1950  0.3869
  706MOL0     H95283   7.424  -0.019   3.726  1.5816 -2.8049  0.2241
  706MOL0     H95284   7.186  -0.018   3.527 -0.6871 -1.1863  0.2150
  706MOL0     H95285   7.183   0.018   3.698 -0.4049 -2.7818  2.1243
  706MOL0     H95286   7.077  -0.199   3.687  0.1375 -1.7058 -2.5028
  706MOL0     H95287   7.184  -0.260   3.568  0.1994 -1.4457 -0.1387
  706MOL0     H95288   7.285  -0.225   3.855 -1.9440 -0.6820  0.3063
  706MOL0     H95289   7.370  -0.310   3.725  1.4298  0.6362  0.2340
  706MOL0     H95290   7.260  -0.442   3.906 -1.5603 -1.6085  0.1068
  706MOL0     H95291   7.163  -0.470   3.757  0.3207 -0.5511  0.2452
  706MOL0     H95292   7.330   0.505   3.339 -0.6445  3.8301 -0.5836
  706MOL0     H95293   7.353   0.690   3.195 -0.8356 -1.0554 -1.7435
  706MOL0     H95294   7.531   1.070   3.070 -2.0218 -0.9274 -0.8603
  706MOL0     H95295   7.625   1.256   2.953  0.8620  1.1906  0.0127
  706MOL0     H95296   9.178   1.423   3.548  1.6350 -0.5648  3.8865
  706MOL0     H95297   9.289   1.523   3.727 -0.5884 -1.0608 -1.8523
  706MOL0     H95298   9.327   1.766   4.095  0.6865 -0.2619  2.3853
  706MOL0     H95299   9.451   1.905   4.272  2.5126 -1.2283  0.1691
  706MOL0     H95300   9.706   2.261   4.236 -0.2555 -0.5231 -0.3900
  706MOL0     H95301   9.563   2.266   4.146  0.2753  3.0682  1.4540
  706MOL0     H95302   9.415   2.219   4.320  0.4317 -1.4908  4.0725
  706MOL0     H95303   9.510   2.366   4.355 -1.1488  0.3377  4.6255
  706MOL0     H95304   9.616   2.296   4.529 -1.5131  2.1136 -1.4877
  706MOL0     H95305   9.618   2.120   4.473 -1.6613  0.4095 -5.5750
  706MOL0     H95306   9.501   2.106   4.666 -0.6373 -0.0496  0.9954
  706MOL0     H95307   9.381   2.110   4.542 -0.2195 -3.4155  1.5284
  706MOL0     H95308   9.289   2.445   4.773  1.8667  0.0490  2.3420
  706MOL0     H95309   9.613   2.146   3.963  0.4115  0.1862  3.4372
  706MOL0     H95310   9.455   2.027   3.789 -2.6958  1.0060 -0.0619
  707MOL0     O95311   8.731   8.171   4.613  0.4674 -0.0871  0.2818
  707MOL0     C95312   8.657   8.256   4.665  0.5265 -0.3837  1.3331
  707MOL0     O95313   8.670   8.389   4.638  0.7354  0.5915 -0.8454
  707MOL0     C95314   8.776   8.460   4.585  0.3214  0.5206 -0.2326
  707MOL0     C95315   8.757   8.600   4.570 -0.4504 -0.4991  0.3114
  707MOL0     C95316   8.859   8.675   4.506  0.6419 -0.3506  0.6822
  707MOL0     C95317   8.987   8.619   4.464  0.5779  0.6862  0.5662
  707MOL0     O95318   9.069   8.709   4.395 -0.0101  0.1005  0.5752
  707MOL0     C95319   9.144   8.661   4.292  0.0363  0.1914 -0.9341
  707MOL0     C95320   9.251   8.751   4.244  1.4325  0.4474 -0.1038
  707MOL0     C95321   9.344   8.793   4.358  0.4894  0.5145 -0.2465
  707MOL0     C95322   9.420   8.678   4.412  0.3224  0.4443 -0.5881
  707MOL0     C95323   9.522   8.633   4.309 -0.2193  0.0276 -0.8981
  707MOL0     C95324   9.556   8.477   4.319 -0.1331  0.8441 -0.2603
  707MOL0     C95325   9.586   8.417   4.462  0.0070 -0.4280  0.3750
  707MOL0     C95326   9.576   8.267   4.451  0.7111 -0.2606  0.0741
  707MOL0     N95327   9.576   8.216   4.588  0.1775 -0.1481  0.9289
  707MOL0     C95328   9.499   8.111   4.630  0.3564  0.3012 -0.6503
  707MOL0     C95329   9.556   8.071   4.744  1.0483 -0.3182  0.5687
  707MOL0     C95330   9.494   7.975   4.832  0.3002  0.7310 -0.4978
  707MOL0     C95331   9.544   7.834   4.795 -0.3065  0.0593 -0.3831
  707MOL0     C95332   9.499   7.727   4.889 -1.1242 -0.0852  0.4723
  707MOL0     C95333   9.543   7.588   4.834 -0.2373 -0.5921 -0.7218
  707MOL0     O95334   9.454   7.574   4.722 -0.0284 -0.2819 -0.6198
  707MOL0     C95335   9.366   7.474   4.725 -0.9074 -0.2066 -0.0151
  707MOL0     C95336   9.406   7.344   4.745  0.9498  0.6440 -0.1193
  707MOL0     C95337   9.320   7.235   4.764 -1.0141 -0.9012  0.3713
  707MOL0     C95338   9.386   7.102   4.813 -0.3765 -0.3898  0.0720
  707MOL0     C95339   9.180   7.265   4.762  0.3459 -1.1616  0.0007
  707MOL0     C95340   9.074   7.163   4.769  0.8819  0.1793 -0.5595
  707MOL0     O95341   8.943   7.207   4.798 -0.7206 -0.6585 -0.0062
  707MOL0     C95342   8.847   7.112   4.823 -0.2681 -0.5459  0.1961
  707MOL0     C95343   8.767   7.053   4.725  0.0500  0.9258  0.7121
  707MOL0     C95344   8.660   6.961   4.753 -1.0269 -0.1450  1.3649
  707MOL0     C95345   8.650   6.916   4.885  0.2545  0.4542 -1.2805
  707MOL0     O95346   8.552   6.827   4.908  0.4225  0.6543 -0.3393
  707MOL0     C95347   8.499   6.800   5.042  0.1269  0.1673 -0.6583
  707MOL0     C95348   8.474   6.929   5.123  0.1337  0.2262 -0.4689
  707MOL0     C95349   8.335   6.917   5.180  0.4979 -1.8504  0.1642
  707MOL0     C95350   8.312   7.025   5.288 -0.1565 -0.3175 -0.0530
  707MOL0     C95351   8.185   7.016   5.368 -0.1259  1.0426 -0.3627
  707MOL0     C95352   8.164   7.144   5.461 -1.1125 -0.9078 -0.0495
  707MOL0     C95353   8.291   7.175   5.541 -0.4655 -0.2557  0.9369
  707MOL0     C95354   8.252   7.275   5.655 -0.9760  0.3152  0.2075
  707MOL0    Cl95355   8.391   7.378   5.707  0.0945 -0.3607 -0.2861
  707MOL0     C95356   8.736   6.976   4.981 -0.8549  0.1137 -0.0997
  707MOL0     C95357   8.828   7.077   4.954 -0.1350  0.0984 -0.8771
  707MOL0     O95358   9.104   7.045   4.758 -0.7737  0.2689  0.5020
  707MOL0     C95359   9.139   7.397   4.725  0.3721 -1.1037  1.3453
  707MOL0     C95360   9.233   7.497   4.704 -0.0644 -0.2509  0.1309
  707MOL0     N95361   9.675   8.134   4.766  0.0718  0.6559  0.0037
  707MOL0     N95362   9.691   8.216   4.662  0.2177 -1.0442  1.0965
  707MOL0     C95363   9.005   8.486   4.490  0.7736  0.2930  0.2503
  707MOL0     C95364   8.898   8.401   4.538  1.7453  0.3188  0.9543
  707MOL0     C95365   8.534   8.212   4.732 -0.1921 -0.2189  0.4852
  707MOL0     C95366   8.473   8.086   4.694  0.1949 -0.6171 -0.5559
  707MOL0     C95367   8.359   8.045   4.766  0.2076 -0.7370 -0.2590
  707MOL0     C95368   8.305   8.123   4.873  0.3816 -0.2232 -0.0316
  707MOL0     O95369   8.191   8.087   4.930 -0.0186 -0.1487 -0.2150
  707MOL0     C95370   8.181   7.982   5.030  0.0309  0.9975 -0.0794
  707MOL0     C95371   8.140   7.851   4.978 -0.9063  1.2264  0.0152
  707MOL0     C95372   8.156   7.737   5.076  0.2398  0.1631 -0.8459
  707MOL0     C95373   8.138   7.596   5.012  0.4288  0.6993  0.0877
  707MOL0     C95374   8.213   7.488   5.086  0.5448 -0.5141  0.5857
  707MOL0     C95375   8.287   7.407   5.142 -0.0474  0.1730 -0.6087
  707MOL0     C95376   8.366   8.241   4.906 -0.5351  0.1032 -0.1018
  707MOL0     C95377   8.480   8.294   4.838 -0.3846 -0.1030 -0.1081
  707MOL0     H95378   8.664   8.650   4.596  0.1019 -0.3982  2.2268
  707MOL0     H95379   8.845   8.781   4.491 -2.7393 -0.6236  1.0254
  707MOL0     H95380   9.196   8.568   4.317  2.4477  1.8881  0.9872
  707MOL0     H95381   9.079   8.642   4.207 -2.4440 -1.8151  1.2373
  707MOL0     H95382   9.300   8.709   4.156 -0.6877 -0.7828 -0.7505
  707MOL0     H95383   9.205   8.844   4.210 -0.3282  0.0474  1.0246
  707MOL0     H95384   9.394   8.884   4.323  0.7850  1.6278  2.7857
  707MOL0     H95385   9.274   8.832   4.432  0.5606  1.6499 -0.7502
  707MOL0     H95386   9.469   8.695   4.509  0.7654 -1.0109 -0.5428
  707MOL0     H95387   9.359   8.589   4.427  0.2185  0.4763 -0.8159
  707MOL0     H95388   9.491   8.661   4.208 -1.4595  1.0512 -0.2627
  707MOL0     H95389   9.615   8.685   4.335  0.9741 -2.2308 -0.3422
  707MOL0     H95390   9.470   8.422   4.280  2.0736 -0.8032 -3.2835
  707MOL0     H95391   9.642   8.459   4.253  1.0080  5.2941 -0.3092
  707MOL0     H95392   9.684   8.453   4.494 -0.1552  0.9412 -0.6096
  707MOL0     H95393   9.506   8.442   4.533  0.8537 -1.7793  1.8694
  707MOL0     H95394   9.660   8.222   4.397 -0.2782 -1.0361 -0.8696
  707MOL0     H95395   9.484   8.222   4.412  0.0776 -1.5127  2.7488
  707MOL0     H95396   9.408   8.069   4.588 -1.0792  0.9199  1.6579
  707MOL0     H95397   9.518   8.000   4.936  0.6674 -0.5871 -0.2523
  707MOL0     H95398   9.385   7.979   4.825  0.0917  2.2616  2.0945
  707MOL0     H95399   9.652   7.844   4.811 -0.1553 -1.5305 -0.2468
  707MOL0     H95400   9.539   7.801   4.691  2.5712 -1.4060 -0.1669
  707MOL0     H95401   9.390   7.735   4.899 -1.1099  0.8207 -0.0933
  707MOL0     H95402   9.538   7.743   4.991 -1.2443 -0.8620  0.6472
  707MOL0     H95403   9.530   7.516   4.916  0.3578  0.9643  0.8113
  707MOL0     H95404   9.647   7.572   4.802 -0.0131 -0.6127 -0.0038
  707MOL0     H95405   9.509   7.314   4.763  0.1391 -1.2616  1.8592
  707MOL0     H95406   9.322   7.039   4.875  0.2277 -0.7074  0.3866
  707MOL0     H95407   9.431   7.046   4.730  2.7393 -3.1354  3.2451
  707MOL0     H95408   9.476   7.132   4.868  1.2682 -0.9680 -2.1814
  707MOL0     H95409   8.766   7.088   4.623  0.8897  0.5533  0.5613
  707MOL0     H95410   8.600   6.932   4.667  0.6448  0.8017 -0.1965
  707MOL0     H95411   8.398   6.767   5.017 -1.0648  2.5766  0.6528
  707MOL0     H95412   8.554   6.722   5.094  1.3288  1.2399 -0.2544
  707MOL0     H95413   8.547   6.929   5.204 -0.0089  0.6386 -0.3406
  707MOL0     H95414   8.480   7.017   5.058 -0.7350 -0.8948 -2.1544
  707MOL0     H95415   8.302   6.818   5.210 -2.4865 -1.2712 -0.8759
  707MOL0     H95416   8.278   6.953   5.094  0.9822  1.5156  1.0989
  707MOL0     H95417   8.392   6.999   5.358  1.1231 -2.5095 -2.1800
  707MOL0     H95418   8.333   7.116   5.231 -1.9046 -0.3259 -0.7780
  707MOL0     H95419   8.180   6.920   5.420 -4.3713  1.0168 -0.4678
  707MOL0     H95420   8.098   7.017   5.302 -2.2512 -0.8967  2.1784
  707MOL0     H95421   8.136   7.222   5.390 -1.1416 -0.5242  0.3745
  707MOL0     H95422   8.078   7.147   5.528 -1.9459  1.2441 -1.1109
  707MOL0     H95423   8.362   7.215   5.468 -1.1596  2.0152  1.4270
  707MOL0     H95424   8.340   7.087   5.582  3.3729  1.8531  1.3548
  707MOL0     H95425   8.214   7.210   5.735  1.6757 -1.2955  0.2836
  707MOL0     H95426   8.178   7.349   5.623 -1.2622  0.1122  0.3882
  707MOL0     H95427   8.728   6.936   5.081  0.3829  2.7796  1.1741
  707MOL0     H95428   8.899   7.119   5.025 -0.2493 -0.5492 -0.3748
  707MOL0     H95429   9.033   7.418   4.713  0.9822  1.1541 -0.9798
  707MOL0     H95430   9.212   7.594   4.660 -0.3068 -1.3562 -2.4000
  707MOL0     H95431   9.089   8.426   4.454 -0.3953 -1.8088  0.8675
  707MOL0     H95432   8.923   8.295   4.547  2.0319 -0.0123 -2.4304
  707MOL0     H95433   8.513   8.028   4.612 -0.5387 -0.4013 -1.0800
  707MOL0     H95434   8.320   7.955   4.719 -1.1656  0.1250 -0.8334
  707MOL0     H95435   8.276   7.973   5.084  2.1518  1.6690 -3.4390
  707MOL0     H95436   8.115   8.010   5.113 -0.0328 -0.4351  0.3692
  707MOL0     H95437   8.204   7.832   4.892  0.5132 -2.4113  1.6558
  707MOL0     H95438   8.040   7.861   4.936 -1.4837 -0.0452  1.0315
  707MOL0     H95439   8.085   7.741   5.159 -0.3305 -1.0700 -1.2497
  707MOL0     H95440   8.260   7.747   5.110  0.2813  2.2299 -1.4407
  707MOL0     H95441   8.167   7.594   4.906 -1.8252 -2.6097 -0.6320
  707MOL0     H95442   8.031   7.574   5.017  0.6025  0.0952  1.4336
  707MOL0     H95443   8.359   7.341   5.186 -0.4173  0.4218  0.3868
  707MOL0     H95444   8.333   8.305   4.987  1.5876  0.4271  0.5883
  707MOL0     H95445   8.527   8.389   4.862  1.8595 -1.7392  2.5437
  708MOL0     O95446   7.266   2.963   1.199 -0.1510  0.7593  0.0381
  708MOL0     C95447   7.315   2.904   1.099 -0.1196  0.1077  0.5603
  708MOL0     O95448   7.418   2.945   1.024  0.4208  0.1801  0.4349
  708MOL0     C95449   7.479   3.060   1.065 -0.1947 -0.9304 -0.1732
  708MOL0     C95450   7.463   3.188   1.006  0.0897 -0.5280 -0.8898
  708MOL0     C95451   7.528   3.301   1.048 -0.2701 -0.6645  0.3171
  708MOL0     C95452   7.603   3.295   1.158  0.2973 -0.9991 -0.5360
  708MOL0     O95453   7.651   3.412   1.220  0.3958  0.4826  0.0155
  708MOL0     C95454   7.750   3.487   1.142 -0.1599  0.6532  0.6165
  708MOL0     C95455   7.818   3.605   1.227  0.4453  1.2241 -0.5249
  708MOL0     C95456   7.732   3.730   1.253 -0.7916 -0.9774  0.4262
  708MOL0     C95457   7.762   3.849   1.162  0.4486  1.0535  0.0894
  708MOL0     C95458   7.733   3.803   1.019 -0.3396 -0.0287  0.5725
  708MOL0     C95459   7.715   3.919   0.922  0.2370  0.3328 -0.1897
  708MOL0     C95460   7.758   3.890   0.781 -0.1592 -0.1092  0.7177
  708MOL0     C95461   7.644   3.808   0.697  0.7565 -0.0578  0.5466
  708MOL0     N95462   7.684   3.675   0.647 -0.4888 -0.8956  0.5268
  708MOL0     C95463   7.672   3.563   0.727 -0.3211  0.6917 -0.4459
  708MOL0     C95464   7.742   3.467   0.666 -0.6528 -0.1828  0.9149
  708MOL0     C95465   7.752   3.331   0.715  0.4254 -0.3021 -0.8462
  708MOL0     C95466   7.731   3.230   0.608 -0.9100 -0.9594  0.3597
  708MOL0     C95467   7.600   3.243   0.543 -0.6599  1.2021 -0.0701
  708MOL0     C95468   7.478   3.215   0.633  0.8062 -0.3528  0.4768
  708MOL0     O95469   7.365   3.221   0.543 -0.0360  0.1923 -0.5422
  708MOL0     C95470   7.295   3.107   0.537 -0.4030 -0.3259  0.6148
  708MOL0     C95471   7.296   3.062   0.398 -0.1734  0.0102 -0.4140
  708MOL0     C95472   7.216   2.946   0.352 -0.8054  0.0751 -0.0065
  708MOL0     C95473   7.218   2.908   0.205  0.8438  0.1370  0.3629
  708MOL0     C95474   7.141   2.881   0.451 -0.6499  0.9187  0.2010
  708MOL0     C95475   7.051   2.761   0.426 -0.4775  0.1701  0.6336
  708MOL0     O95476   6.953   2.765   0.326  0.9213  0.4953 -0.7463
  708MOL0     C95477   6.850   2.676   0.350  0.5312 -0.9216  0.5795
  708MOL0     C95478   6.727   2.729   0.399  0.5731  0.2048 -0.5929
  708MOL0     C95479   6.622   2.640   0.426 -0.9636 -0.3720  0.1160
  708MOL0     C95480   6.627   2.506   0.411  0.3798 -0.8079  0.6979
  708MOL0     O95481   6.511   2.436   0.444  0.4049  0.5622 -0.1600
  708MOL0     C95482   6.531   2.298   0.458  0.1453 -0.0924  0.3559
  708MOL0     C95483   6.399   2.236   0.495 -0.4614  0.3486  0.6678
  708MOL0     C95484   6.432   2.111   0.574  1.0481 -0.5531  0.3675
  708MOL0     C95485   6.489   1.999   0.481  0.6783 -0.2587 -0.3453
  708MOL0     C95486   6.520   1.875   0.568 -0.5019  1.0056 -0.2081
  708MOL0     C95487   6.572   1.755   0.486 -0.4378 -0.1702 -0.6249
  708MOL0     C95488   6.617   1.628   0.558 -0.4106 -0.4952 -0.8784
  708MOL0     C95489   6.592   1.509   0.473 -0.7924  0.1761 -0.1757
  708MOL0    Cl95490   6.631   1.360   0.560  0.0189 -0.5296 -0.3632
  708MOL0     C95491   6.753   2.453   0.379 -1.2623  0.6856  0.4590
  708MOL0     C95492   6.863   2.539   0.348  0.1398  0.0869 -0.0637
  708MOL0     O95493   7.062   2.668   0.505 -0.0146  0.0211  0.5629
  708MOL0     C95494   7.143   2.926   0.584  0.4841  0.0964  0.1256
  708MOL0     C95495   7.215   3.039   0.623 -0.6470 -0.0199 -0.0164
  708MOL0     N95496   7.806   3.520   0.555  0.0902 -0.0779 -0.9600
  708MOL0     N95497   7.774   3.647   0.545  0.8625 -0.5435  0.4618
  708MOL0     C95498   7.628   3.172   1.222  0.7845 -0.2847 -0.2444
  708MOL0     C95499   7.569   3.057   1.173  0.4638  0.7162 -0.5278
  708MOL0     C95500   7.232   2.793   1.050  0.9775 -0.0065  0.2094
  708MOL0     C95501   7.256   2.746   0.928 -0.1026  0.0189 -1.0884
  708MOL0     C95502   7.185   2.639   0.879  1.0464  0.6528  0.0545
  708MOL0     C95503   7.063   2.594   0.946 -0.5268  0.1367  1.0316
  708MOL0     O95504   6.993   2.486   0.900 -0.0425  0.2724 -0.6411
  708MOL0     C95505   7.028   2.419   0.780  1.2140  0.4278 -0.4878
  708MOL0     C95506   6.947   2.288   0.787  0.5112 -0.5192 -0.3101
  708MOL0     C95507   6.959   2.183   0.676 -0.9997 -0.5764 -0.6508
  708MOL0     C95508   6.826   2.091   0.675  0.0596  0.0994 -0.6148
  708MOL0     C95509   6.849   1.963   0.590 -0.1545 -0.9599 -0.5352
  708MOL0     C95510   6.881   1.865   0.534 -0.3558 -1.3985 -0.0936
  708MOL0     C95511   7.027   2.648   1.064  0.2061 -0.1707  0.1559
  708MOL0     C95512   7.115   2.745   1.116  0.3801  0.2428  0.4995
  708MOL0     H95513   7.393   3.216   0.929  0.5074  5.5372  0.4371
  708MOL0     H95514   7.488   3.395   1.010 -2.7893 -2.2584 -1.2186
  708MOL0     H95515   7.825   3.415   1.108 -2.1757 -0.7122 -1.2141
  708MOL0     H95516   7.704   3.535   1.054 -1.3426 -1.3211  0.1006
  708MOL0     H95517   7.840   3.553   1.321  0.5433  2.9677  0.4521
  708MOL0     H95518   7.908   3.638   1.175  0.2096 -1.2828 -2.7563
  708MOL0     H95519   7.626   3.706   1.238 -0.6930 -0.2391 -1.9326
  708MOL0     H95520   7.746   3.757   1.358 -0.4402 -0.2837  0.2078
  708MOL0     H95521   7.699   3.934   1.191  0.6533  0.7696  1.4507
  708MOL0     H95522   7.863   3.885   1.183  0.6129  0.7856 -0.2335
  708MOL0     H95523   7.796   3.724   0.979 -5.1711 -3.7039 -0.7592
  708MOL0     H95524   7.638   3.748   1.024  0.0647 -0.7269  0.6487
  708MOL0     H95525   7.609   3.943   0.914  0.0664  0.4180  1.8540
  708MOL0     H95526   7.773   4.005   0.956  1.9461 -0.3523 -1.2564
  708MOL0     H95527   7.778   3.979   0.720  1.7115 -2.5680 -2.5543
  708MOL0     H95528   7.856   3.842   0.784  1.1639  2.4130  0.9029
  708MOL0     H95529   7.617   3.858   0.603  0.0404  1.3162  1.4419
  708MOL0     H95530   7.547   3.808   0.748  1.1246  0.8649  1.2658
  708MOL0     H95531   7.620   3.556   0.822  2.0403  1.3041  0.9622
  708MOL0     H95532   7.851   3.316   0.759  0.1346  1.3608  0.4660
  708MOL0     H95533   7.683   3.314   0.798  0.7648  3.5734  0.4175
  708MOL0     H95534   7.752   3.123   0.619 -1.3252 -1.4433 -2.6206
  708MOL0     H95535   7.806   3.259   0.533 -3.3602  1.1533 -1.4605
  708MOL0     H95536   7.608   3.163   0.468 -0.0131  0.9052  0.3140
  708MOL0     H95537   7.601   3.343   0.499 -0.2490  0.3565 -2.1065
  708MOL0     H95538   7.459   3.298   0.702 -0.4597  0.0097 -0.2840
  708MOL0     H95539   7.486   3.126   0.696  1.8203  0.1716  1.1150
  708MOL0     H95540   7.364   3.125   0.342  0.8828 -0.7580 -0.0302
  708MOL0     H95541   7.117   2.920   0.166 -0.1928 -0.1750  2.7872
  708MOL0     H95542   7.290   2.970   0.151  1.4399  0.1435  1.1386
  708MOL0     H95543   7.252   2.805   0.190  0.9564  0.4310 -1.6695
  708MOL0     H95544   6.724   2.836   0.417  1.3770  0.7383 -3.2061
  708MOL0     H95545   6.527   2.682   0.455 -1.5361  0.5499 -2.8260
  708MOL0     H95546   6.576   2.250   0.371 -1.1619  3.1067 -2.2947
  708MOL0     H95547   6.601   2.293   0.542  1.7743  1.3244 -0.8359
  708MOL0     H95548   6.358   2.301   0.573  0.3143  0.6880  0.8083
  708MOL0     H95549   6.325   2.232   0.415  0.9279 -1.1390 -0.6126
  708MOL0     H95550   6.331   2.090   0.608  0.0255  2.1452 -0.7296
  708MOL0     H95551   6.498   2.137   0.658  0.2705 -2.1651  1.5157
  708MOL0     H95552   6.411   1.979   0.406  2.7596 -3.3803 -1.8966
  708MOL0     H95553   6.581   2.026   0.428  0.2222  1.9742 -0.0880
  708MOL0     H95554   6.428   1.838   0.615 -0.1864  1.3949  0.7343
  708MOL0     H95555   6.588   1.898   0.650 -4.9277  2.6255  3.4482
  708MOL0     H95556   6.495   1.732   0.411 -1.0484  3.1920 -1.1964
  708MOL0     H95557   6.652   1.800   0.427 -0.8379  1.8802  0.3093
  708MOL0     H95558   6.561   1.611   0.650 -2.3661  4.4492 -0.8623
  708MOL0     H95559   6.721   1.627   0.590 -0.9324  2.0780  1.1645
  708MOL0     H95560   6.646   1.519   0.378 -1.4035  0.7111 -0.4745
  708MOL0     H95561   6.488   1.508   0.439 -1.1087  2.2277  0.6379
  708MOL0     H95562   6.771   2.347   0.370 -2.7858  0.5148 -1.1200
  708MOL0     H95563   6.958   2.491   0.326 -0.2342 -0.7109  0.0357
  708MOL0     H95564   7.064   2.876   0.640 -3.4869  2.1342 -3.0462
  708MOL0     H95565   7.211   3.075   0.726 -0.0880  0.6454 -0.2238
  708MOL0     H95566   7.691   3.167   1.310  0.1832  1.5534  0.3181
  708MOL0     H95567   7.596   2.957   1.206 -2.1068 -0.2871 -1.2132
  708MOL0     H95568   7.343   2.788   0.877  1.2306  1.2637  1.9520
  708MOL0     H95569   7.218   2.591   0.787  3.7273  2.4192 -0.0288
  708MOL0     H95570   6.983   2.478   0.699  2.3487 -0.2225 -1.6265
  708MOL0     H95571   7.132   2.396   0.757  1.3828 -2.2619  2.2997
  708MOL0     H95572   6.843   2.316   0.808  0.7072 -1.6512  2.6179
  708MOL0     H95573   6.975   2.226   0.873 -2.6840  0.4013  1.5560
  708MOL0     H95574   7.046   2.121   0.696 -1.0931 -0.9521 -1.3618
  708MOL0     H95575   6.967   2.235   0.580  0.5145  4.0424  1.7083
  708MOL0     H95576   6.735   2.142   0.642 -2.2727  0.1937  4.8859
  708MOL0     H95577   6.798   2.060   0.777 -0.9969  1.3291 -0.5149
  708MOL0     H95578   6.924   1.775   0.495 -1.1979 -1.0793 -1.8544
  708MOL0     H95579   6.929   2.628   1.104 -2.2937 -0.0413 -5.0896
  708MOL0     H95580   7.083   2.795   1.207  1.0178  1.0517  0.2997
  709MOL0     O95581   2.259   9.498   1.795 -0.0133 -0.6799 -0.6227
  709MOL0     C95582   2.274   9.585   1.890  0.2798 -0.0938  0.5263
  709MOL0     O95583   2.238   9.563   2.020 -0.1554  0.0768  0.4048
  709MOL0     C95584   2.197   9.440   2.069 -0.0447  0.3279  0.0479
  709MOL0     C95585   2.241   9.401   2.195  0.0076  0.6133 -0.6071
  709MOL0     C95586   2.197   9.281   2.251  0.6411 -0.9209 -0.2258
  709MOL0     C95587   2.117   9.196   2.179 -0.4396 -0.8108  0.4431
  709MOL0     O95588   2.088   9.073   2.226  0.8947 -0.0833 -0.6813
  709MOL0     C95589   2.201   8.978   2.241  1.0964 -0.2306  0.4534
  709MOL0     C95590   2.132   8.848   2.278  0.0703 -0.3286 -0.3973
  709MOL0     C95591   2.243   8.743   2.299  0.0677  0.8535 -0.4781
  709MOL0     C95592   2.185   8.609   2.359  0.6615  0.6220  0.6960
  709MOL0     C95593   2.260   8.542   2.482  0.5590 -0.5891 -0.4423
  709MOL0     C95594   2.188   8.419   2.526 -0.3108  0.6067 -0.2082
  709MOL0     C95595   2.234   8.382   2.670 -0.0191 -0.1287 -0.1595
  709MOL0     C95596   2.157   8.265   2.734  0.0626 -0.9552 -1.0121
  709MOL0     N95597   2.219   8.223   2.857  0.6728 -0.1825 -0.8805
  709MOL0     C95598   2.357   8.205   2.876  0.3075  0.5780  0.0956
  709MOL0     C95599   2.371   8.182   3.009 -0.4230  0.1170 -1.0489
  709MOL0     C95600   2.503   8.182   3.092 -0.9405 -0.3195 -0.4263
  709MOL0     C95601   2.578   8.323   3.104 -0.1472 -0.0171  1.1692
  709MOL0     C95602   2.675   8.347   2.999 -0.2706  0.3688 -0.2818
  709MOL0     C95603   2.761   8.468   3.033  0.7297 -0.3885  0.0659
  709MOL0     O95604   2.685   8.585   3.054  0.1307  0.1359 -1.0749
  709MOL0     C95605   2.687   8.669   2.943  1.4994  0.4151  0.6133
  709MOL0     C95606   2.655   8.631   2.813 -0.3419  0.0085 -0.5797
  709MOL0     C95607   2.638   8.733   2.715 -1.0490  0.1383  0.2332
  709MOL0     C95608   2.575   8.672   2.586  0.3985 -0.3195 -1.0065
  709MOL0     C95609   2.675   8.872   2.733  0.2307  0.8216 -0.3553
  709MOL0     C95610   2.658   8.987   2.639  0.0361 -0.1293  0.1794
  709MOL0     O95611   2.710   9.111   2.670  0.2496 -0.0051 -0.4008
  709MOL0     C95612   2.697   9.209   2.572 -0.6736  0.1102  0.3159
  709MOL0     C95613   2.790   9.228   2.466  0.4251 -0.4119 -0.6774
  709MOL0     C95614   2.759   9.307   2.358 -0.4455  0.5183 -0.3569
  709MOL0     C95615   2.641   9.372   2.350  0.2865  0.7961 -1.0650
  709MOL0     O95616   2.597   9.449   2.246 -0.1026  0.2129  0.6408
  709MOL0     C95617   2.686   9.525   2.166 -0.5166  0.7934 -0.1088
  709MOL0     C95618   2.778   9.633   2.229 -0.5516 -0.3059  0.8894
  709MOL0     C95619   2.878   9.678   2.118  0.0630  0.7798  0.4244
  709MOL0     C95620   2.928   9.826   2.122 -0.3894  0.4140  0.6021
  709MOL0     C95621   3.046   9.868   2.022 -0.1580  0.1236 -0.3919
  709MOL0     C95622   3.116  10.002   2.052  0.6033  0.0254  0.0058
  709MOL0     C95623   3.252  10.005   1.979 -0.2945  0.3142  0.1107
  709MOL0     C95624   3.314  10.136   1.992 -0.6364  0.7121  0.2507
  709MOL0    Cl95625   3.419  10.168   1.852  0.2487 -0.1143  0.3680
  709MOL0     C95626   2.554   9.365   2.459 -0.2112 -0.1208  0.3297
  709MOL0     C95627   2.580   9.276   2.572 -0.3953 -0.2389  0.2710
  709MOL0     O95628   2.628   8.952   2.526  1.1663  0.4792 -0.1298
  709MOL0     C95629   2.715   8.900   2.864  0.8954 -0.4327 -0.8136
  709MOL0     C95630   2.699   8.806   2.970 -0.4471  0.4175  0.4579
  709MOL0     N95631   2.248   8.193   3.070 -0.3219  0.6480  0.2418
  709MOL0     N95632   2.156   8.214   2.977 -0.3327  1.0231  0.0454
  709MOL0     C95633   2.066   9.236   2.052  0.0803  0.3879  0.5383
  709MOL0     C95634   2.100   9.361   1.998 -0.6516 -0.6560 -0.9024
  709MOL0     C95635   2.344   9.707   1.855 -1.2417 -0.3840  0.4013
  709MOL0     C95636   2.411   9.773   1.957 -0.0958 -0.3789  0.3170
  709MOL0     C95637   2.472   9.897   1.926 -0.2981  0.0740  0.3794
  709MOL0     C95638   2.468   9.954   1.804 -0.2454 -0.0619  0.6571
  709MOL0     O95639   2.537  10.064   1.760  0.1836  0.8049 -0.6736
  709MOL0     C95640   2.638  10.099   1.857  0.0165 -0.6587 -0.2392
  709MOL0     C95641   2.761  10.012   1.836 -0.3220 -0.5680  0.1519
  709MOL0     C95642   2.806  10.004   1.685  0.9217  1.1232  0.1291
  709MOL0     C95643   2.861  10.131   1.619  1.0859 -1.2885  0.6807
  709MOL0     C95644   2.985  10.187   1.681 -0.0502  1.3053  0.2733
  709MOL0     C95645   3.078  10.218   1.751  0.0079 -0.3285 -0.4136
  709MOL0     C95646   2.400   9.891   1.704 -0.3659  0.2626 -0.1384
  709MOL0     C95647   2.344   9.765   1.731 -0.3627 -0.1782  0.8892
  709MOL0     H95648   2.309   9.464   2.253 -0.2470  0.8418 -0.5560
  709MOL0     H95649   2.232   9.257   2.351  1.0157  1.9919  0.4280
  709MOL0     H95650   2.252   8.959   2.146 -1.5601 -1.4076 -0.8350
  709MOL0     H95651   2.274   9.007   2.318  1.1889 -1.0344  0.6754
  709MOL0     H95652   2.095   8.855   2.381  1.4494  0.0963  0.0949
  709MOL0     H95653   2.059   8.816   2.203  0.0192 -2.0035  0.3118
  709MOL0     H95654   2.284   8.709   2.203 -1.9401  0.0034 -1.0862
  709MOL0     H95655   2.316   8.784   2.369 -2.1651 -0.4851  2.8517
  709MOL0     H95656   2.080   8.631   2.381  0.5198 -0.0721  0.7192
  709MOL0     H95657   2.184   8.532   2.282 -1.4789  1.4640 -0.2054
  709MOL0     H95658   2.363   8.523   2.452  0.4643 -2.6950  0.4109
  709MOL0     H95659   2.257   8.611   2.566  0.4749 -0.9920 -0.1134
  709MOL0     H95660   2.081   8.441   2.523 -0.2361  0.8735 -1.8128
  709MOL0     H95661   2.203   8.335   2.459  0.1610  1.3203 -1.0119
  709MOL0     H95662   2.342   8.365   2.668 -0.2252 -1.8409  1.1412
  709MOL0     H95663   2.203   8.462   2.737 -1.6429 -1.0356  0.2366
  709MOL0     H95664   2.139   8.182   2.664 -0.9913 -1.5262 -0.0972
  709MOL0     H95665   2.054   8.301   2.743  1.2266  3.0478 -1.5497
  709MOL0     H95666   2.426   8.213   2.793 -0.9315 -0.2714 -1.0381
  709MOL0     H95667   2.498   8.144   3.195  0.1589  0.8337  0.0775
  709MOL0     H95668   2.572   8.113   3.041 -2.1927 -1.5822 -0.4821
  709MOL0     H95669   2.636   8.341   3.195  1.2282  2.0312 -0.0281
  709MOL0     H95670   2.496   8.393   3.084 -0.7139 -1.4879 -2.3838
  709MOL0     H95671   2.629   8.359   2.900  2.1993 -0.8841 -1.6974
  709MOL0     H95672   2.741   8.260   2.996 -2.8123 -1.7071  0.2222
  709MOL0     H95673   2.834   8.475   2.951  1.9103 -3.7721  0.6960
  709MOL0     H95674   2.815   8.439   3.123 -3.4547 -1.1480  2.6157
  709MOL0     H95675   2.636   8.528   2.785  2.6260 -0.2586 -2.0752
  709MOL0     H95676   2.639   8.694   2.500 -0.8358  0.2367 -1.8059
  709MOL0     H95677   2.559   8.564   2.594 -1.8697 -0.2686 -3.5228
  709MOL0     H95678   2.474   8.708   2.569  0.5816 -0.0458 -1.5383
  709MOL0     H95679   2.879   9.168   2.485 -1.7940 -3.4421  0.9469
  709MOL0     H95680   2.820   9.304   2.268 -2.6219  1.1643 -1.9255
  709MOL0     H95681   2.740   9.445   2.115  0.4399  2.2055 -1.3914
  709MOL0     H95682   2.617   9.572   2.097 -1.7877  1.8695  1.7927
  709MOL0     H95683   2.722   9.722   2.259  2.5328  1.7646  0.9768
  709MOL0     H95684   2.829   9.590   2.316 -0.7987 -1.2369  0.5791
  709MOL0     H95685   2.837   9.647   2.021 -1.9062 -2.8138  2.1959
  709MOL0     H95686   2.961   9.608   2.124  0.3602  1.1129  0.2457
  709MOL0     H95687   2.837   9.885   2.114 -1.8693 -1.7183  0.8957
  709MOL0     H95688   2.958   9.837   2.227 -1.7331 -0.9198  1.1653
  709MOL0     H95689   3.016   9.860   1.917 -0.1338 -2.1348 -0.2616
  709MOL0     H95690   3.120   9.789   2.033  0.0918  0.4751  0.5290
  709MOL0     H95691   3.040  10.074   2.022  2.0281  1.4332 -0.3270
  709MOL0     H95692   3.134  10.027   2.156 -0.8175  1.7771 -0.1361
  709MOL0     H95693   3.235   9.980   1.874 -1.0951 -3.5584  0.9927
  709MOL0     H95694   3.319   9.926   2.015 -1.3003 -0.8303 -0.4481
  709MOL0     H95695   3.383  10.144   2.076 -1.2114  2.1995  0.6002
  709MOL0     H95696   3.236  10.212   2.005 -1.5986  0.2340 -2.1327
  709MOL0     H95697   2.461   9.421   2.464  0.6850  1.6932 -1.4515
  709MOL0     H95698   2.514   9.277   2.658 -2.5121  0.1621 -1.2645
  709MOL0     H95699   2.747   8.998   2.896 -1.2534  0.3931 -1.0264
  709MOL0     H95700   2.714   8.835   3.073  1.0112  1.0590  0.0865
  709MOL0     H95701   2.014   9.155   2.003 -0.5918  2.0558 -1.6567
  709MOL0     H95702   2.085   9.388   1.894  1.3289  2.3918 -0.5546
  709MOL0     H95703   2.425   9.725   2.054  4.9737 -3.5453 -1.5588
  709MOL0     H95704   2.530   9.919   2.014 -1.3600  0.3348  1.0305
  709MOL0     H95705   2.671  10.200   1.835  2.3626 -0.4860  3.1915
  709MOL0     H95706   2.596  10.100   1.958 -2.2770 -1.6741 -1.1196
  709MOL0     H95707   2.742   9.909   1.866 -0.6823 -0.5758 -0.0922
  709MOL0     H95708   2.843  10.051   1.897 -0.9416 -1.0544  1.3192
  709MOL0     H95709   2.719   9.987   1.621  1.5965  2.4665 -1.1945
  709MOL0     H95710   2.873   9.919   1.676  0.4095  0.9524 -3.0166
  709MOL0     H95711   2.783  10.207   1.612  2.7604  0.3830 -1.4009
  709MOL0     H95712   2.889  10.103   1.517  2.0504  0.6652  0.3579
  709MOL0     H95713   3.174  10.228   1.797  0.6870 -0.2490 -1.8216
  709MOL0     H95714   2.408   9.938   1.606  1.6550  3.8300  1.4997
  709MOL0     H95715   2.288   9.715   1.653 -0.8051 -1.6819  2.1226
  710MOL0     O95716   3.822   0.556   7.392 -0.1448 -0.2660 -0.4895
  710MOL0     C95717   3.782   0.541   7.509 -0.6013 -0.1972  0.3068
  710MOL0     O95718   3.861   0.501   7.622 -0.0729 -0.3990 -0.1727
  710MOL0     C95719   3.993   0.497   7.603 -0.4101 -0.8258 -0.0566
  710MOL0     C95720   4.052   0.396   7.524  0.1962 -1.3754 -0.3212
  710MOL0     C95721   4.187   0.388   7.526  0.0541 -0.1388  0.4679
  710MOL0     C95722   4.263   0.476   7.603 -0.6239  0.4319  0.0739
  710MOL0     O95723   4.400   0.475   7.600  0.1481  0.0358 -0.1172
  710MOL0     C95724   4.470   0.364   7.540 -0.6055 -0.6274 -0.5004
  710MOL0     C95725   4.612   0.392   7.570  0.4474 -0.6679  0.3149
  710MOL0     C95726   4.643   0.366   7.716 -0.9512 -0.0598 -1.0886
  710MOL0     C95727   4.636   0.492   7.806  1.1201 -0.2124 -0.7470
  710MOL0     C95728   4.734   0.476   7.926 -0.2379 -0.6961  0.2721
  710MOL0     C95729   4.733   0.606   8.012  0.7329 -0.0046  0.1591
  710MOL0     C95730   4.795   0.580   8.147 -0.8006 -0.4772  0.0821
  710MOL0     C95731   4.942   0.633   8.150 -0.5372 -0.7802  1.5364
  710MOL0     N95732   4.947   0.776   8.191 -0.1817  1.3049 -0.4592
  710MOL0     C95733   4.892   0.884   8.129 -0.7470 -0.8374 -0.4361
  710MOL0     C95734   4.915   0.991   8.213 -0.6551 -0.4754 -0.0750
  710MOL0     C95735   4.889   1.136   8.203 -0.2613  0.9186  0.1222
  710MOL0     C95736   4.999   1.223   8.144  0.2981  0.0336 -0.6325
  710MOL0     C95737   5.119   1.237   8.242 -0.9150 -0.5486 -0.4774
  710MOL0     C95738   5.229   1.337   8.199  0.0919 -0.3012  0.2797
  710MOL0     O95739   5.284   1.303   8.071 -0.1134  0.3977  0.4526
  710MOL0     C95740   5.354   1.395   8.000  0.5185  0.2912  0.6912
  710MOL0     C95741   5.415   1.503   8.059  0.1889  0.3873 -0.0583
  710MOL0     C95742   5.505   1.590   7.995  0.4171 -0.2219 -0.1906
  710MOL0     C95743   5.575   1.685   8.091  0.5137 -0.2173  0.5391
  710MOL0     C95744   5.537   1.562   7.857  0.2960  0.0898 -0.3147
  710MOL0     C95745   5.654   1.631   7.784  0.7527 -0.2273  0.3223
  710MOL0     O95746   5.677   1.583   7.662 -0.1615  0.2615  0.2497
  710MOL0     C95747   5.809   1.581   7.620  0.0687  0.4675  0.2568
  710MOL0     C95748   5.884   1.695   7.600 -0.2437 -0.4581  0.0512
  710MOL0     C95749   6.019   1.683   7.556  0.6344 -0.3586  0.1923
  710MOL0     C95750   6.086   1.565   7.545  0.5149 -0.1258  0.2649
  710MOL0     O95751   6.219   1.579   7.511 -1.2664  0.2076 -1.1642
  710MOL0     C95752   6.297   1.468   7.479  0.1533 -0.0217 -0.4788
  710MOL0     C95753   6.435   1.515   7.439  0.1969  0.3485 -0.3272
  710MOL0     C95754   6.440   1.583   7.303  0.2789 -0.7329  0.3817
  710MOL0     C95755   6.590   1.622   7.273  0.4747 -0.0391  0.7188
  710MOL0     C95756   6.608   1.687   7.137 -0.4027 -0.4103  0.3871
  710MOL0     C95757   6.567   1.831   7.156  0.1280 -0.3850 -0.0393
  710MOL0     C95758   6.515   1.876   7.012 -0.4635  0.0732 -1.1551
  710MOL0     C95759   6.488   2.027   7.015  0.0074  0.2995 -0.0823
  710MOL0    Cl95760   6.649   2.125   7.018  0.3352 -0.3189  0.6994
  710MOL0     C95761   6.013   1.446   7.561 -0.9110 -0.3642  0.6162
  710MOL0     C95762   5.876   1.454   7.593  0.3649 -0.5512 -0.7543
  710MOL0     O95763   5.700   1.738   7.824  0.5710  0.0222  1.0037
  710MOL0     C95764   5.478   1.452   7.802  1.4637  0.2683  0.3051
  710MOL0     C95765   5.382   1.371   7.864  0.5411 -0.1547 -0.9743
  710MOL0     N95766   4.983   0.946   8.321 -0.1865  0.3777 -0.3054
  710MOL0     N95767   5.008   0.817   8.300 -0.8143  0.1634  0.4410
  710MOL0     C95768   4.202   0.579   7.675  0.0410  0.0170 -0.1519
  710MOL0     C95769   4.067   0.586   7.684  0.4737 -1.4795 -0.1916
  710MOL0     C95770   3.634   0.540   7.534 -0.1220  0.1547  0.3210
  710MOL0     C95771   3.582   0.487   7.650  0.9558 -0.0169 -0.2889
  710MOL0     C95772   3.440   0.499   7.672  0.2748  0.2365 -0.9268
  710MOL0     C95773   3.360   0.573   7.587 -0.0196 -0.7247  0.1659
  710MOL0     O95774   3.223   0.597   7.594 -0.1306 -0.0562 -0.5018
  710MOL0     C95775   3.168   0.679   7.694 -0.3451  0.5903  0.2412
  710MOL0     C95776   3.159   0.821   7.642  0.0817  0.7679 -1.1057
  710MOL0     C95777   3.097   0.846   7.506 -0.0291  0.1192 -0.1716
  710MOL0     C95778   3.003   0.731   7.449 -0.5758  0.4407 -0.3039
  710MOL0     C95779   2.963   0.746   7.312  0.1875 -0.0416 -0.1020
  710MOL0     C95780   2.912   0.782   7.202 -0.0568  0.4995 -0.5124
  710MOL0     C95781   3.422   0.633   7.477 -0.3035 -0.2369  0.2778
  710MOL0     C95782   3.554   0.604   7.448  1.0302  0.4797 -0.4007
  710MOL0     H95783   3.984   0.322   7.482  1.1983 -1.4536 -1.8898
  710MOL0     H95784   4.230   0.307   7.467 -0.1972  2.3985 -3.5948
  710MOL0     H95785   4.443   0.268   7.584 -1.8362 -0.5923 -1.1370
  710MOL0     H95786   4.454   0.374   7.432  2.0583  3.5558 -0.7089
  710MOL0     H95787   4.675   0.326   7.510  0.8686  0.3265 -0.3563
  710MOL0     H95788   4.645   0.485   7.522 -0.4051  0.3650  1.6523
  710MOL0     H95789   4.587   0.281   7.755 -0.2241 -1.6218 -3.2471
  710MOL0     H95790   4.746   0.330   7.721 -0.8670  0.2250 -0.6581
  710MOL0     H95791   4.670   0.574   7.742 -1.0645  3.0596  1.9463
  710MOL0     H95792   4.530   0.504   7.832  1.3379 -1.2172  0.6628
  710MOL0     H95793   4.703   0.390   7.986 -0.5606 -0.2815  0.7021
  710MOL0     H95794   4.833   0.460   7.884 -0.4748 -0.3944 -0.4229
  710MOL0     H95795   4.775   0.697   7.968  1.4738 -1.5408 -2.4994
  710MOL0     H95796   4.633   0.642   8.041  0.9029 -0.4440  1.3493
  710MOL0     H95797   4.744   0.629   8.231  0.1216  1.2809 -0.3545
  710MOL0     H95798   4.793   0.472   8.166 -1.7587 -0.9675 -2.4064
  710MOL0     H95799   4.986   0.618   8.051  0.4076  0.5264  1.7366
  710MOL0     H95800   5.005   0.575   8.218 -2.0419 -0.2445  3.4714
  710MOL0     H95801   4.844   0.898   8.032  0.2300  0.9380 -0.7126
  710MOL0     H95802   4.800   1.146   8.139 -1.1231 -0.1665  1.1018
  710MOL0     H95803   4.868   1.178   8.302  1.2304 -0.3898  1.0382
  710MOL0     H95804   4.972   1.326   8.121  0.9306 -0.1342 -2.3416
  710MOL0     H95805   5.024   1.183   8.044  0.5795 -0.1212 -0.5038
  710MOL0     H95806   5.178   1.145   8.252  3.0414  1.9464  1.5784
  710MOL0     H95807   5.089   1.259   8.345  0.0966 -3.1742  0.4914
  710MOL0     H95808   5.306   1.325   8.276  0.0508  0.0989  0.3820
  710MOL0     H95809   5.189   1.439   8.200  1.9357  0.4863  2.0357
  710MOL0     H95810   5.397   1.516   8.165  0.2016 -0.7600  0.1023
  710MOL0     H95811   5.681   1.696   8.069  0.3960 -0.9693 -0.4764
  710MOL0     H95812   5.519   1.777   8.071  1.9241  0.3934 -0.7972
  710MOL0     H95813   5.562   1.653   8.195  0.6117 -0.0702  0.5959
  710MOL0     H95814   5.828   1.787   7.608 -1.7740 -1.3425  0.0403
  710MOL0     H95815   6.075   1.774   7.534 -0.2999 -0.2987 -2.2586
  710MOL0     H95816   6.292   1.400   7.565 -0.2890  0.0888 -0.4165
  710MOL0     H95817   6.254   1.420   7.391  1.7711 -0.2570 -1.1786
  710MOL0     H95818   6.460   1.586   7.518 -2.6880 -0.1441  1.1609
  710MOL0     H95819   6.513   1.440   7.449  0.2409  0.4425  0.0580
  710MOL0     H95820   6.359   1.657   7.296 -1.5004 -2.5210  0.9706
  710MOL0     H95821   6.414   1.513   7.223 -1.4673  2.2244 -1.8500
  710MOL0     H95822   6.633   1.684   7.353  1.0979  2.6207 -1.5450
  710MOL0     H95823   6.650   1.531   7.264  2.4185  1.3808 -2.1898
  710MOL0     H95824   6.541   1.631   7.070 -1.5046 -2.0745  2.7522
  710MOL0     H95825   6.712   1.681   7.103 -0.5462 -0.3001 -0.0799
  710MOL0     H95826   6.486   1.835   7.229  1.5486 -1.1286  1.6689
  710MOL0     H95827   6.656   1.890   7.182  0.5469 -1.4939  1.1556
  710MOL0     H95828   6.423   1.827   6.978 -0.6102 -0.3914 -0.1266
  710MOL0     H95829   6.601   1.861   6.946  1.4935  5.7951 -0.4530
  710MOL0     H95830   6.437   2.036   7.111 -1.0297  1.5190 -0.7303
  710MOL0     H95831   6.418   2.056   6.937 -0.7941 -2.9813 -0.7645
  710MOL0     H95832   6.058   1.350   7.538 -0.6779 -0.6399  2.0928
  710MOL0     H95833   5.815   1.366   7.609  1.0962 -0.8736  0.4859
  710MOL0     H95834   5.508   1.413   7.705 -0.3690  0.1958 -0.2739
  710MOL0     H95835   5.325   1.290   7.819 -1.5371 -0.0987  1.3427
  710MOL0     H95836   4.274   0.641   7.727 -1.1267  0.7393  0.6481
  710MOL0     H95837   4.023   0.673   7.732  0.8657  0.1140 -2.5635
  710MOL0     H95838   3.649   0.445   7.723 -0.6102  0.1696  1.3308
  710MOL0     H95839   3.376   0.459   7.749  0.2182  1.2198 -0.4517
  710MOL0     H95840   3.081   0.627   7.735  0.9514 -3.4022 -1.5064
  710MOL0     H95841   3.235   0.678   7.781  1.0453 -1.4504 -0.7598
  710MOL0     H95842   3.259   0.865   7.633 -0.6558  2.4885 -1.2079
  710MOL0     H95843   3.096   0.870   7.717 -1.6690  0.5887 -2.3918
  710MOL0     H95844   3.178   0.872   7.437  2.1649 -1.0489  1.8382
  710MOL0     H95845   3.034   0.936   7.506 -0.3891 -0.1207  1.0655
  710MOL0     H95846   2.923   0.722   7.523  0.3309 -0.0629  0.6522
  710MOL0     H95847   3.053   0.634   7.451 -1.5382 -0.0457  0.8169
  710MOL0     H95848   2.867   0.799   7.107  1.4706  0.6310 -1.2365
  710MOL0     H95849   3.368   0.687   7.400 -0.8497  1.0209  1.5084
  710MOL0     H95850   3.599   0.647   7.359  1.5594  3.8078  1.3207
  711MOL0     O95851   7.801   6.770   7.522 -0.1403 -0.5829 -0.2734
  711MOL0     C95852   7.862   6.788   7.628  0.2142  0.5373  0.0115
  711MOL0     O95853   7.820   6.749   7.752  0.1557 -0.2835 -0.3801
  711MOL0     C95854   7.704   6.680   7.772  0.8169  0.4930  0.3863
  711MOL0     C95855   7.583   6.736   7.729 -0.6642  0.3230  0.5158
  711MOL0     C95856   7.458   6.674   7.755 -0.2014 -0.0614 -0.6337
  711MOL0     C95857   7.445   6.558   7.827 -0.4675  0.1687  0.3838
  711MOL0     O95858   7.321   6.503   7.834 -0.6896  0.6686 -1.0847
  711MOL0     C95859   7.293   6.366   7.823  0.4582 -0.5930  0.0471
  711MOL0     C95860   7.146   6.336   7.843 -0.6430  0.0204 -0.0539
  711MOL0     C95861   7.098   6.351   7.982 -0.3821 -0.2106  0.1000
  711MOL0     C95862   7.105   6.498   8.047  0.2056 -0.0414 -0.3584
  711MOL0     C95863   7.072   6.486   8.197  0.5140  0.1635  0.8324
  711MOL0     C95864   7.100   6.616   8.281 -0.7949  0.0442 -0.2634
  711MOL0     C95865   7.031   6.608   8.414 -0.4516  0.0405 -0.2791
  711MOL0     C95866   7.010   6.738   8.483 -0.6686 -0.5457 -0.2839
  711MOL0     N95867   7.133   6.777   8.559 -0.1684  0.1539  0.3352
  711MOL0     C95868   7.231   6.865   8.517 -0.7388 -0.0765  0.5167
  711MOL0     C95869   7.305   6.881   8.633 -0.6282  0.4503 -0.5723
  711MOL0     C95870   7.426   6.959   8.636  0.2060 -0.2645 -0.1758
  711MOL0     C95871   7.486   6.978   8.779  0.6854 -0.0587  0.7036
  711MOL0     C95872   7.406   7.094   8.855  0.1709 -0.0220  0.7557
  711MOL0     C95873   7.476   7.143   8.982  0.1400 -0.9275 -0.5009
  711MOL0     O95874   7.376   7.194   9.074  0.5707  0.6982  0.2133
  711MOL0     C95875   7.401   7.276   9.185  0.6392  0.8947  0.5014
  711MOL0     C95876   7.526   7.312   9.231  0.1380  0.7033 -0.0849
  711MOL0     C95877   7.534   7.399   9.345 -0.0213  0.2627  0.3498
  711MOL0     C95878   7.679   7.451   9.377  0.8845 -0.1571 -0.0680
  711MOL0     C95879   7.408   7.427   9.423 -0.3885  0.6914 -0.0651
  711MOL0     C95880   7.402   7.516   9.543 -0.7173 -0.0501  0.3565
  711MOL0     O95881   7.349   7.459   9.656  0.2492 -0.1506 -0.1820
  711MOL0     C95882   7.289   7.533   9.746 -0.6296  0.0827  0.4540
  711MOL0     C95883   7.205   7.634   9.715  0.5681 -0.5282  0.6508
  711MOL0     C95884   7.132   7.703   9.813 -0.1708 -0.3195 -0.2460
  711MOL0     C95885   7.172   7.687   9.942  0.4304 -0.7075  0.5207
  711MOL0     O95886   7.117   7.766  10.044 -0.5800 -0.3459  0.4948
  711MOL0     C95887   7.213   7.816  10.147  0.7093  0.3986  1.2365
  711MOL0     C95888   7.137   7.802  10.282 -0.2507  0.0846  0.1091
  711MOL0     C95889   7.107   7.648  10.317 -0.3413 -0.6079 -0.0816
  711MOL0     C95890   7.032   7.621  10.449 -1.0398  0.7379 -0.3009
  711MOL0     C95891   7.056   7.476  10.503  0.4171  0.6001 -0.5256
  711MOL0     C95892   7.017   7.377  10.393 -0.7339  0.0838 -0.4147
  711MOL0     C95893   7.001   7.226  10.426  1.2227  0.8195 -0.3584
  711MOL0     C95894   7.133   7.162  10.476  0.1412 -0.0932 -0.1841
  711MOL0    Cl95895   7.244   7.127  10.344  0.1534  0.2052  0.1726
  711MOL0     C95896   7.258   7.580   9.970 -0.2043  0.4885 -0.1873
  711MOL0     C95897   7.305   7.495   9.877 -0.3791  0.2679  0.5530
  711MOL0     O95898   7.451   7.632   9.540 -0.2518 -0.4437 -0.6032
  711MOL0     C95899   7.286   7.369   9.370 -1.1749  0.1167 -0.5095
  711MOL0     C95900   7.286   7.295   9.257 -0.3203 -0.0971  0.2617
  711MOL0     N95901   7.243   6.810   8.733 -0.0268 -0.1343 -0.3442
  711MOL0     N95902   7.146   6.736   8.689  0.1068 -0.9915  0.1764
  711MOL0     C95903   7.572   6.492   7.867 -0.2431  0.8221 -0.1939
  711MOL0     C95904   7.702   6.557   7.843  0.9505 -0.3203 -0.2458
  711MOL0     C95905   8.003   6.834   7.609  0.5901  0.7954 -0.5486
  711MOL0     C95906   8.097   6.829   7.712 -0.4458  0.3434 -0.8410
  711MOL0     C95907   8.229   6.875   7.700 -0.7201 -0.5620 -1.1980
  711MOL0     C95908   8.274   6.909   7.576 -0.5505 -0.4496  0.8720
  711MOL0     O95909   8.405   6.943   7.561 -0.4067 -0.6187 -0.5309
  711MOL0     C95910   8.444   6.917   7.422 -0.5819 -0.0007  0.4485
  711MOL0     C95911   8.596   6.893   7.419  0.2466 -0.9444 -0.2075
  711MOL0     C95912   8.634   6.769   7.497  0.2899  0.2931 -0.7414
  711MOL0     C95913   8.783   6.763   7.503 -0.2915 -0.2786  0.2090
  711MOL0     C95914   8.819   6.633   7.573 -0.0702 -1.5142  0.2961
  711MOL0     C95915   8.865   6.537   7.626  0.1935  1.2295 -0.8631
  711MOL0     C95916   8.174   6.937   7.478 -0.1736 -0.6156  0.1970
  711MOL0     C95917   8.043   6.895   7.493  0.3582 -0.9017 -0.4643
  711MOL0     H95918   7.580   6.822   7.662 -2.5987 -1.0450 -1.2679
  711MOL0     H95919   7.361   6.716   7.728 -0.6319  1.9172  3.2843
  711MOL0     H95920   7.317   6.332   7.722  2.8356 -1.3846  0.8266
  711MOL0     H95921   7.357   6.308   7.890  1.0111 -0.5211 -0.4143
  711MOL0     H95922   7.088   6.391   7.769  1.6730  1.1671 -1.1213
  711MOL0     H95923   7.148   6.232   7.810  4.3951  1.0939 -4.3877
  711MOL0     H95924   6.996   6.315   7.969  0.1777 -1.5847 -0.7216
  711MOL0     H95925   7.148   6.278   8.048 -1.3092 -0.9406  0.0173
  711MOL0     H95926   7.198   6.554   8.036  0.9952 -1.0514  0.7744
  711MOL0     H95927   7.031   6.567   8.007  0.1213  1.0535  1.5726
  711MOL0     H95928   6.972   6.443   8.198  0.6850 -0.3143  3.3847
  711MOL0     H95929   7.142   6.410   8.232  1.9576  0.6847 -0.7482
  711MOL0     H95930   7.206   6.640   8.290 -1.0188  1.5796 -1.4082
  711MOL0     H95931   7.049   6.698   8.230  0.1052 -1.1657 -3.3375
  711MOL0     H95932   6.936   6.558   8.394 -0.3262  0.3623 -1.8044
  711MOL0     H95933   7.074   6.541   8.489 -1.1500 -0.7937 -0.6090
  711MOL0     H95934   6.929   6.717   8.554 -2.0935  2.2803 -0.9255
  711MOL0     H95935   6.965   6.817   8.423 -0.2889 -1.0296 -1.2325
  711MOL0     H95936   7.248   6.914   8.422  0.3966 -0.0763  0.7026
  711MOL0     H95937   7.495   6.914   8.565 -0.7700 -1.6995 -0.2704
  711MOL0     H95938   7.397   7.060   8.606 -3.8145 -0.5760  1.9060
  711MOL0     H95939   7.588   7.012   8.761  0.5675 -1.4200 -4.0048
  711MOL0     H95940   7.491   6.888   8.840 -0.1860  0.1123  1.0372
  711MOL0     H95941   7.307   7.051   8.874  1.1935 -2.2290  1.3354
  711MOL0     H95942   7.387   7.181   8.792 -2.1729 -0.6033  0.5676
  711MOL0     H95943   7.544   7.225   8.960  1.3426 -1.3620  1.3238
  711MOL0     H95944   7.531   7.065   9.037  2.4765  2.9881  3.3470
  711MOL0     H95945   7.616   7.296   9.171  0.7342  0.1248  0.9423
  711MOL0     H95946   7.712   7.397   9.467  0.2104 -1.6647 -0.6872
  711MOL0     H95947   7.745   7.441   9.290  2.7060 -1.3207  1.3818
  711MOL0     H95948   7.667   7.557   9.401  0.2528 -0.4034  0.7545
  711MOL0     H95949   7.181   7.650   9.610 -0.3480 -1.7550  0.6449
  711MOL0     H95950   7.064   7.784   9.790  3.4306  3.0642 -0.1747
  711MOL0     H95951   7.304   7.759  10.163 -0.4821 -1.6066  1.2363
  711MOL0     H95952   7.231   7.923  10.128  2.3309 -0.1038 -0.3235
  711MOL0     H95953   7.210   7.842  10.353  2.2500 -2.0064 -1.0991
  711MOL0     H95954   7.046   7.860  10.300  0.9752  2.6656 -1.4209
  711MOL0     H95955   7.207   7.604  10.326 -0.3410 -0.6087 -0.0880
  711MOL0     H95956   7.046   7.606  10.237 -1.5544 -0.9528  0.9885
  711MOL0     H95957   7.075   7.694  10.518 -1.2631  0.1646  0.4576
  711MOL0     H95958   6.924   7.635  10.449 -0.8216  2.7339  0.1449
  711MOL0     H95959   7.000   7.473  10.597 -1.8544 -0.8323 -1.8154
  711MOL0     H95960   7.161   7.454  10.521 -0.4077 -3.1576  0.4019
  711MOL0     H95961   6.924   7.404  10.342 -0.8687 -0.6333 -0.5695
  711MOL0     H95962   7.078   7.387  10.303 -2.0906 -2.3705 -1.7063
  711MOL0     H95963   6.973   7.175  10.334  0.0258 -0.2524  0.5520
  711MOL0     H95964   6.930   7.205  10.507 -0.0388 -0.5339 -1.7455
  711MOL0     H95965   7.116   7.071  10.533 -4.5919 -0.4361 -1.7012
  711MOL0     H95966   7.183   7.233  10.542  0.6215 -0.2332 -0.3938
  711MOL0     H95967   7.284   7.559  10.073 -2.8817 -0.0226  0.4433
  711MOL0     H95968   7.357   7.401   9.895 -0.6264 -0.4523 -2.0959
  711MOL0     H95969   7.198   7.379   9.432  0.2605  0.4648  1.5652
  711MOL0     H95970   7.193   7.246   9.231 -0.5443  1.4359 -2.0420
  711MOL0     H95971   7.571   6.387   7.897  1.0265  1.2792  1.5730
  711MOL0     H95972   7.795   6.518   7.883 -1.1391 -2.9712  2.5646
  711MOL0     H95973   8.085   6.785   7.810  3.8410  0.7032  0.0734
  711MOL0     H95974   8.300   6.885   7.781  3.4382  1.7589 -4.7258
  711MOL0     H95975   8.396   6.828   7.381 -1.7603  0.9645 -0.3229
  711MOL0     H95976   8.414   7.009   7.370 -0.3705  0.9611  1.9529
  711MOL0     H95977   8.650   6.982   7.455  1.4215 -1.2898 -1.0774
  711MOL0     H95978   8.629   6.876   7.316  2.5979 -2.5752  0.7254
  711MOL0     H95979   8.597   6.673   7.460 -1.9586  1.3318 -1.3714
  711MOL0     H95980   8.589   6.768   7.597 -0.8512  3.4039 -1.1006
  711MOL0     H95981   8.824   6.852   7.551 -1.9875  1.3674 -1.2166
  711MOL0     H95982   8.815   6.761   7.399 -1.0565 -2.0996 -0.0201
  711MOL0     H95983   8.918   6.465   7.686  2.5002  3.2555 -0.2993
  711MOL0     H95984   8.191   6.997   7.389  1.5369  2.0831  2.1601
  711MOL0     H95985   7.968   6.917   7.418 -0.4899  2.7139  1.2202
  712MOL0     O95986   7.817   4.729  11.302  0.4108 -0.8239  0.2248
  712MOL0     C95987   7.834   4.823  11.384 -0.7347  0.1595  0.0504
  712MOL0     O95988   7.909   4.939  11.352  0.5185 -0.4081 -0.0919
  712MOL0     C95989   7.948   4.949  11.220  0.0818 -0.1097 -0.3281
  712MOL0     C95990   7.870   5.020  11.118  0.0092 -0.1892  0.1589
  712MOL0     C95991   7.928   5.007  10.990 -0.1085 -1.0600 -0.3655
  712MOL0     C95992   8.054   4.947  10.956 -0.1107 -0.3532 -0.4116
  712MOL0     O95993   8.090   4.947  10.825 -0.6486 -0.0818 -0.3030
  712MOL0     C95994   8.195   4.862  10.790  0.5073 -1.0821  0.2136
  712MOL0     C95995   8.228   4.871  10.641  0.7829 -0.3429  0.2330
  712MOL0     C95996   8.121   4.903  10.540  0.1585 -0.4189  0.2844
  712MOL0     C95997   8.176   4.920  10.400 -0.3880 -0.7510 -0.1863
  712MOL0     C95998   8.069   4.952  10.299  0.5856  0.8343 -0.2857
  712MOL0     C95999   8.086   5.091  10.228 -0.0111  0.9130 -0.0600
  712MOL0     C96000   8.204   5.126  10.140 -0.4950  0.3248 -0.2501
  712MOL0     C96001   8.261   5.006  10.053 -0.2676  0.2155  0.5729
  712MOL0     N96002   8.353   4.911  10.125  0.9508  0.3238  0.4266
  712MOL0     C96003   8.467   4.959  10.189 -0.0455  0.0800  0.4362
  712MOL0     C96004   8.512   4.849  10.249 -0.1561 -0.5841  0.5230
  712MOL0     C96005   8.627   4.840  10.341  0.0475  0.0651 -1.1119
  712MOL0     C96006   8.585   4.871  10.490  0.5948 -0.1032 -0.4066
  712MOL0     C96007   8.702   4.856  10.587 -0.1728 -0.0423 -0.6875
  712MOL0     C96008   8.794   4.733  10.577  1.1764  0.7298  0.6081
  712MOL0     O96009   8.915   4.768  10.653 -0.6649  0.9792  0.1170
  712MOL0     C96010   8.945   4.711  10.775 -0.5278  0.3422 -0.1927
  712MOL0     C96011   9.075   4.713  10.823  0.5020  0.2912 -0.5332
  712MOL0     C96012   9.102   4.654  10.951  0.8065  0.4391 -0.4168
  712MOL0     C96013   9.242   4.617  10.985 -0.0942 -0.0480  0.7475
  712MOL0     C96014   8.992   4.631  11.039 -0.2095 -0.3053  0.5195
  712MOL0     C96015   9.006   4.575  11.178 -0.9397  0.0648 -1.1655
  712MOL0     O96016   9.118   4.607  11.246  0.2908  0.0030  0.3619
  712MOL0     C96017   9.138   4.543  11.361 -0.4474  0.4239 -0.4196
  712MOL0     C96018   9.082   4.592  11.480  0.2897 -0.3554  1.1787
  712MOL0     C96019   9.084   4.523  11.601  0.0174  0.6828  0.0189
  712MOL0     C96020   9.157   4.409  11.610 -0.9448  0.0161  1.1828
  712MOL0     O96021   9.155   4.343  11.735  0.0125 -0.0970  0.1084
  712MOL0     C96022   9.238   4.233  11.754 -0.6754 -0.1002 -0.0454
  712MOL0     C96023   9.227   4.187  11.897 -0.0940 -0.4719  0.3330
  712MOL0     C96024   9.345   4.089  11.921  0.4638 -0.5501 -0.7132
  712MOL0     C96025   9.357   4.080  12.078  0.2258  0.3661  1.1552
  712MOL0     C96026   9.443   3.974  12.133  0.0786 -0.4888  0.4191
  712MOL0     C96027   9.566   3.953  12.043 -0.7798  0.5751 -0.4221
  712MOL0     C96028   9.672   3.869  12.125 -0.2005 -1.0899 -0.4070
  712MOL0     C96029   9.630   3.739  12.176 -0.3136 -0.3238 -0.5563
  712MOL0    Cl96030   9.767   3.617  12.184 -0.5053 -0.1583  0.3956
  712MOL0     C96031   9.233   4.367  11.491  0.8065  0.9702 -0.8690
  712MOL0     C96032   9.215   4.428  11.370  0.0200 -0.6537  0.7901
  712MOL0     O96033   8.912   4.526  11.238  0.0900 -0.2120  0.0786
  712MOL0     C96034   8.868   4.637  10.988  0.6505  0.2175  1.0558
  712MOL0     C96035   8.841   4.675  10.863  0.2186  0.7089 -0.2196
  712MOL0     N96036   8.432   4.739  10.218 -0.8899  0.4498 -0.8582
  712MOL0     N96037   8.338   4.771  10.134 -0.3031  0.4635 -0.1912
  712MOL0     C96038   8.118   4.888  11.059 -0.0105  0.5181  0.0384
  712MOL0     C96039   8.074   4.898  11.188 -0.5619  1.0135 -0.2056
  712MOL0     C96040   7.817   4.800  11.527 -0.8380 -0.7346  0.6206
  712MOL0     C96041   7.873   4.879  11.627 -1.3427 -0.2411  0.2716
  712MOL0     C96042   7.873   4.837  11.763  0.0267 -0.5092 -0.9803
  712MOL0     C96043   7.822   4.718  11.811  0.1227 -0.1464  0.5466
  712MOL0     O96044   7.830   4.671  11.937  0.2436  0.3979  1.0990
  712MOL0     C96045   7.899   4.734  12.036 -0.2008 -1.1174  0.2053
  712MOL0     C96046   8.051   4.694  12.033  0.2958 -0.7071  0.2251
  712MOL0     C96047   8.082   4.580  12.133 -0.4758 -0.0717 -0.0975
  712MOL0     C96048   8.229   4.533  12.134 -0.5362  0.1786 -0.2401
  712MOL0     C96049   8.250   4.445  12.020  0.3468  0.0567  0.0373
  712MOL0     C96050   8.290   4.373  11.936  0.3432  0.6476 -0.3269
  712MOL0     C96051   7.778   4.636  11.712 -0.5111  0.4135  0.3066
  712MOL0     C96052   7.765   4.675  11.576  1.0453 -0.2632 -0.1683
  712MOL0     H96053   7.781   5.079  11.136  1.5021  2.0918  0.4597
  712MOL0     H96054   7.877   5.054  10.907  2.5442  0.1631 -1.4181
  712MOL0     H96055   8.288   4.886  10.842 -0.6841 -1.6062  2.7021
  712MOL0     H96056   8.157   4.763  10.816  1.4575 -1.6448 -0.5117
  712MOL0     H96057   8.305   4.947  10.628  1.0702 -0.9084 -1.6196
  712MOL0     H96058   8.271   4.775  10.609  0.8050 -0.2470 -0.0272
  712MOL0     H96059   8.060   4.812  10.542 -0.0235 -0.4630 -2.6525
  712MOL0     H96060   8.077   4.999  10.569  0.5198  1.3005 -4.0309
  712MOL0     H96061   8.260   4.989  10.392 -1.4149  0.3336 -2.3017
  712MOL0     H96062   8.211   4.822  10.368  1.1383  0.1841 -1.4956
  712MOL0     H96063   8.065   4.871  10.225  1.8092 -0.5740  1.1261
  712MOL0     H96064   7.972   4.960  10.350 -0.2555 -0.0911 -1.6622
  712MOL0     H96065   7.997   5.094  10.164 -0.7880 -2.2933  0.6665
  712MOL0     H96066   8.071   5.170  10.301 -2.1396 -0.4897  1.1575
  712MOL0     H96067   8.173   5.206  10.073 -0.1226  1.1007  0.4847
  712MOL0     H96068   8.288   5.150  10.206 -0.7605 -0.3569  0.3544
  712MOL0     H96069   8.313   5.061   9.974  0.0893  0.2148  0.8014
  712MOL0     H96070   8.183   4.944  10.009  1.6620 -3.6590  2.0485
  712MOL0     H96071   8.499   5.059  10.215 -2.0156  0.4466  1.6572
  712MOL0     H96072   8.669   4.739  10.338 -0.7578 -0.2725 -1.5060
  712MOL0     H96073   8.699   4.915  10.308 -0.1256  1.9444  2.3508
  712MOL0     H96074   8.499   4.805  10.505  0.4583 -0.0110 -0.7678
  712MOL0     H96075   8.557   4.977  10.484  0.3544 -0.0736  0.9880
  712MOL0     H96076   8.663   4.855  10.689 -3.6448  0.5139 -1.8809
  712MOL0     H96077   8.753   4.952  10.579 -0.1697  0.0741  0.4869
  712MOL0     H96078   8.817   4.704  10.474  2.7493  0.7191  0.9387
  712MOL0     H96079   8.751   4.640  10.615  0.3303  2.1198  3.2638
  712MOL0     H96080   9.149   4.745  10.751  1.2874 -0.9925 -0.3365
  712MOL0     H96081   9.300   4.625  10.893 -0.5576 -2.5634  0.1643
  712MOL0     H96082   9.285   4.687  11.058  1.8089 -0.8960  0.5112
  712MOL0     H96083   9.257   4.512  11.009  0.9276  0.2591  1.5408
  712MOL0     H96084   9.032   4.687  11.463  0.1456 -0.6465 -0.1278
  712MOL0     H96085   9.038   4.572  11.686 -2.6878  0.3009 -1.1235
  712MOL0     H96086   9.195   4.155  11.690 -2.2801  1.1638 -0.5906
  712MOL0     H96087   9.338   4.262  11.720  0.4102 -1.9654  1.3510
  712MOL0     H96088   9.241   4.279  11.954  2.1543  0.4346 -1.5055
  712MOL0     H96089   9.127   4.148  11.916 -0.4320  0.1320 -0.1664
  712MOL0     H96090   9.440   4.128  11.882 -0.3106  4.0874  1.3635
  712MOL0     H96091   9.321   3.992  11.876 -1.3218 -1.2064  1.4903
  712MOL0     H96092   9.385   4.180  12.111  1.3987  0.1773  0.7624
  712MOL0     H96093   9.256   4.059  12.115  0.2514 -0.7529  0.6322
  712MOL0     H96094   9.391   3.878  12.143  0.8222 -1.2564 -2.2520
  712MOL0     H96095   9.456   4.021  12.231  2.5325  0.5233 -0.3087
  712MOL0     H96096   9.530   3.888  11.962 -2.5926 -0.8324  1.4373
  712MOL0     H96097   9.615   4.046  12.012 -1.7372  0.8533 -1.1490
  712MOL0     H96098   9.711   3.935  12.202 -1.6116 -1.7616  0.9405
  712MOL0     H96099   9.754   3.854  12.054  1.2341 -2.6414  1.4732
  712MOL0     H96100   9.561   3.696  12.104  1.1197 -0.6760 -1.7653
  712MOL0     H96101   9.573   3.755  12.269  2.8693  2.4548  1.1482
  712MOL0     H96102   9.304   4.286  11.508  2.3537  2.2557 -0.8835
  712MOL0     H96103   9.253   4.384  11.279  0.8874  0.5142  0.5664
  712MOL0     H96104   8.781   4.592  11.034 -1.0598  2.3056  0.0325
  712MOL0     H96105   8.735   4.685  10.845 -0.1525 -0.5827  1.0791
  712MOL0     H96106   8.214   4.839  11.044  0.4013  1.1261  0.6366
  712MOL0     H96107   8.135   4.863  11.271  0.7811  1.4508 -0.9841
  712MOL0     H96108   7.911   4.977  11.601 -3.2570  0.4806  0.0119
  712MOL0     H96109   7.924   4.902  11.833 -0.6411 -1.8132  0.7819
  712MOL0     H96110   7.886   4.842  12.027 -0.3801 -1.2467 -1.3116
  712MOL0     H96111   7.859   4.710  12.135 -0.6509  2.7154  1.1265
  712MOL0     H96112   8.112   4.782  12.054 -1.2941  0.3931  0.3401
  712MOL0     H96113   8.078   4.655  11.934 -2.4210 -2.2548 -0.0088
  712MOL0     H96114   8.018   4.492  12.122 -0.1337 -0.2346 -0.8858
  712MOL0     H96115   8.056   4.609  12.235  0.2780  3.6711 -0.8133
  712MOL0     H96116   8.252   4.485  12.230  4.5720  2.2738 -0.0719
  712MOL0     H96117   8.303   4.612  12.117 -0.9297  0.1812 -2.1048
  712MOL0     H96118   8.330   4.320  11.852 -1.2161 -2.4978  0.7646
  712MOL0     H96119   7.763   4.530  11.729  0.9036  0.1419 -0.0297
  712MOL0     H96120   7.750   4.600  11.499  2.8732  2.0097 -2.9602
  713MOL0     O96121   1.402   1.545   0.485  0.1234  0.0399  0.5271
  713MOL0     C96122   1.426   1.656   0.447  0.1241  0.7937 -0.2595
  713MOL0     O96123   1.551   1.711   0.445 -0.2112 -0.2973 -0.2616
  713MOL0     C96124   1.670   1.644   0.435 -0.0286 -0.3986  0.8326
  713MOL0     C96125   1.693   1.502   0.440  0.9414  0.0088 -0.0897
  713MOL0     C96126   1.827   1.454   0.444 -0.2783 -0.2133  0.5112
  713MOL0     C96127   1.939   1.537   0.435 -0.2417 -0.2940  0.1353
  713MOL0     O96128   2.071   1.495   0.448 -0.2164  0.5397 -0.7204
  713MOL0     C96129   2.096   1.390   0.547  0.9818  0.8244 -0.7119
  713MOL0     C96130   2.244   1.388   0.562 -0.8535 -0.5382  0.4531
  713MOL0     C96131   2.305   1.288   0.651  0.9762  0.2616  0.3161
  713MOL0     C96132   2.451   1.315   0.696 -1.5413  0.2374 -0.6504
  713MOL0     C96133   2.545   1.258   0.585  0.2819  0.7162 -0.4083
  713MOL0     C96134   2.693   1.255   0.621 -0.1643  0.7143 -0.2749
  713MOL0     C96135   2.761   1.396   0.606 -0.4666  0.5264 -0.2061
  713MOL0     C96136   2.910   1.403   0.633 -0.1793 -0.4210  0.1052
  713MOL0     N96137   2.950   1.397   0.770 -0.0851 -0.2950 -0.2025
  713MOL0     C96138   3.030   1.494   0.828 -0.4435 -0.3767 -0.2696
  713MOL0     C96139   3.048   1.461   0.961  0.9973  0.4438  0.6043
  713MOL0     C96140   3.109   1.548   1.065  0.7795 -0.3171 -0.0050
  713MOL0     C96141   3.055   1.690   1.064  0.4880 -0.3629 -0.0934
  713MOL0     C96142   2.903   1.698   1.079 -0.4152  0.2975 -0.5718
  713MOL0     C96143   2.858   1.645   1.208 -0.0374 -0.1774  0.4907
  713MOL0     O96144   2.715   1.647   1.223  0.3914  0.0948  0.6287
  713MOL0     C96145   2.638   1.536   1.178 -0.2370 -0.3698  0.1706
  713MOL0     C96146   2.684   1.422   1.109  1.1964  0.5707 -0.2485
  713MOL0     C96147   2.595   1.317   1.069 -1.1647 -0.2794  0.0047
  713MOL0     C96148   2.659   1.197   1.015 -0.6213  0.9949 -0.9892
  713MOL0     C96149   2.457   1.339   1.084  1.0971  0.7026 -0.5652
  713MOL0     C96150   2.351   1.240   1.051  0.4063 -0.0792  0.0047
  713MOL0     O96151   2.221   1.262   1.100  0.3580  0.2344  0.1401
  713MOL0     C96152   2.149   1.147   1.095  0.4623  0.1541 -0.1218
  713MOL0     C96153   2.066   1.141   0.988  0.5635 -0.7355  0.6967
  713MOL0     C96154   1.987   1.036   0.969  1.0826 -0.3281  1.0055
  713MOL0     C96155   1.990   0.921   1.050  0.6382 -0.1191 -1.0679
  713MOL0     O96156   1.895   0.822   1.038 -0.6019 -0.1026  1.0323
  713MOL0     C96157   1.805   0.818   0.919 -0.5964  0.7337  0.1210
  713MOL0     C96158   1.755   0.678   0.893  0.0287  0.1966  1.1676
  713MOL0     C96159   1.626   0.682   0.810  0.5249 -0.8953  0.3246
  713MOL0     C96160   1.582   0.545   0.773  0.0972 -0.1243 -0.4309
  713MOL0     C96161   1.465   0.545   0.668  0.1799  0.7481  0.1261
  713MOL0     C96162   1.327   0.563   0.737 -0.8024  0.0544 -0.2536
  713MOL0     C96163   1.268   0.434   0.791 -0.5332  0.0025  0.3470
  713MOL0     C96164   1.130   0.445   0.855  0.2954  0.1646 -0.0475
  713MOL0    Cl96165   1.003   0.532   0.759  0.2720  0.2996 -0.5758
  713MOL0     C96166   2.070   0.934   1.171 -0.1523 -0.3733  0.9304
  713MOL0     C96167   2.146   1.044   1.185  0.0034  0.5906 -0.1836
  713MOL0     O96168   2.388   1.139   0.985  0.9067  0.5569  0.5941
  713MOL0     C96169   2.414   1.464   1.138  0.2505 -0.5959 -0.3165
  713MOL0     C96170   2.501   1.555   1.191  0.1046 -0.5314 -0.5239
  713MOL0     N96171   2.990   1.330   0.968 -0.7716 -0.5557  1.1699
  713MOL0     N96172   2.928   1.297   0.854 -0.4315  0.7023 -0.3628
  713MOL0     C96173   1.917   1.679   0.425  0.5855 -0.0553 -0.3546
  713MOL0     C96174   1.778   1.734   0.426  0.3452  0.6053  0.0463
  713MOL0     C96175   1.310   1.741   0.409 -0.3365  0.0030  0.4882
  713MOL0     C96176   1.181   1.706   0.442  0.2835  0.0754 -0.2678
  713MOL0     C96177   1.070   1.779   0.385 -0.0066  0.5107 -0.7235
  713MOL0     C96178   1.089   1.892   0.311 -0.5894  0.1158 -0.3798
  713MOL0     O96179   0.994   1.970   0.264  0.4777 -0.7227 -0.6989
  713MOL0     C96180   0.946   2.078   0.347 -1.0110  0.2279  0.1047
  713MOL0     C96181   0.806   2.132   0.300  0.1961 -0.1840  0.1577
  713MOL0     C96182   0.692   2.037   0.348 -0.5532 -0.1637  0.3397
  713MOL0     C96183   0.686   1.920   0.249  0.1981  0.1270 -0.8153
  713MOL0     C96184   0.609   1.813   0.315  1.1646 -0.1760 -0.9595
  713MOL0     C96185   0.531   1.733   0.364  0.1754 -0.4968 -0.3535
  713MOL0     C96186   1.224   1.927   0.282 -0.1289  0.3102 -0.6222
  713MOL0     C96187   1.330   1.855   0.326  0.2451  1.2616  0.3683
  713MOL0     H96188   1.617   1.424   0.448  1.4584 -0.3943  1.2259
  713MOL0     H96189   1.846   1.348   0.451  0.4405 -0.2893 -1.7971
  713MOL0     H96190   2.045   1.397   0.643 -0.2011  0.7812 -1.3211
  713MOL0     H96191   2.050   1.299   0.507 -2.5388  2.5835 -1.0259
  713MOL0     H96192   2.281   1.392   0.459 -1.8962  2.8578  0.1051
  713MOL0     H96193   2.290   1.479   0.602 -3.1970  0.3204  1.3737
  713MOL0     H96194   2.237   1.288   0.736 -0.0179 -1.2323 -0.4390
  713MOL0     H96195   2.298   1.182   0.623 -4.2994  0.3177  0.5753
  713MOL0     H96196   2.470   1.421   0.717 -0.1781 -0.2465  0.7436
  713MOL0     H96197   2.469   1.267   0.793  2.8530  1.6735 -0.5333
  713MOL0     H96198   2.505   1.158   0.565  2.8407 -0.7047  0.9892
  713MOL0     H96199   2.517   1.308   0.492 -0.5391  0.1398 -0.4744
  713MOL0     H96200   2.693   1.217   0.724  3.2618  0.6053 -0.1991
  713MOL0     H96201   2.752   1.180   0.568 -0.9755 -0.4449  0.4110
  713MOL0     H96202   2.743   1.456   0.516 -2.3773 -0.0632 -0.2614
  713MOL0     H96203   2.723   1.460   0.686 -0.2358  0.3424  0.0517
  713MOL0     H96204   2.956   1.494   0.594 -1.3453  0.1883  0.1004
  713MOL0     H96205   2.951   1.313   0.587  1.1460  0.3163 -0.2259
  713MOL0     H96206   3.078   1.576   0.776 -0.9109 -0.6530 -1.1651
  713MOL0     H96207   3.105   1.499   1.163 -0.2119  2.5966  1.5274
  713MOL0     H96208   3.215   1.550   1.036  0.2668  0.7637 -1.9569
  713MOL0     H96209   3.070   1.734   0.965 -0.7840 -1.0342 -0.6046
  713MOL0     H96210   3.098   1.752   1.143 -1.8120  1.1811  0.0515
  713MOL0     H96211   2.848   1.649   0.999 -3.7659 -0.4363  1.9427
  713MOL0     H96212   2.882   1.805   1.079  1.1363  0.6539  0.6242
  713MOL0     H96213   2.902   1.717   1.279 -1.1325  0.8397  0.1769
  713MOL0     H96214   2.891   1.542   1.224  1.8862  0.7660  3.5781
  713MOL0     H96215   2.788   1.409   1.079  0.5077  0.1383 -2.6604
  713MOL0     H96216   2.618   1.155   0.922 -0.8412  0.4137 -0.6365
  713MOL0     H96217   2.765   1.214   0.997 -0.1372  0.3559  1.0145
  713MOL0     H96218   2.644   1.121   1.092  1.8532  0.5648 -0.8766
  713MOL0     H96219   2.061   1.221   0.914  0.2757 -0.6728  0.7813
  713MOL0     H96220   1.932   1.053   0.877  1.1319  1.3282  1.2535
  713MOL0     H96221   1.723   0.882   0.952  0.3057  1.3713  1.2347
  713MOL0     H96222   1.854   0.859   0.830 -0.6931 -3.3451 -2.0280
  713MOL0     H96223   1.839   0.618   0.855  0.3301 -1.2566  3.8343
  713MOL0     H96224   1.729   0.628   0.987 -0.2781 -1.5658  0.1767
  713MOL0     H96225   1.643   0.747   0.723 -0.3427 -1.4801 -0.3038
  713MOL0     H96226   1.546   0.714   0.876 -0.8594 -2.1447 -0.6827
  713MOL0     H96227   1.667   0.508   0.714  1.5104  4.4355 -1.6641
  713MOL0     H96228   1.566   0.479   0.859  1.0401  0.5572  0.3008
  713MOL0     H96229   1.468   0.449   0.615 -0.8492  1.9589 -2.2471
  713MOL0     H96230   1.469   0.623   0.592 -1.8272  3.4767  2.6023
  713MOL0     H96231   1.327   0.640   0.815 -0.9913  0.8793 -1.0538
  713MOL0     H96232   1.261   0.603   0.660 -0.3676  2.7867  0.6810
  713MOL0     H96233   1.332   0.390   0.868  0.0716  1.9905  1.0246
  713MOL0     H96234   1.255   0.357   0.714 -1.2844  1.4377 -1.0033
  713MOL0     H96235   1.153   0.497   0.949 -1.3807  0.6300  0.1445
  713MOL0     H96236   1.099   0.343   0.881 -2.0862  0.1153 -2.6097
  713MOL0     H96237   2.074   0.875   1.263 -0.2539  1.3269  2.0668
  713MOL0     H96238   2.206   1.046   1.276  2.5713  1.4296 -1.7840
  713MOL0     H96239   2.308   1.486   1.142  0.4458  0.1830  1.0213
  713MOL0     H96240   2.454   1.645   1.229  0.4810  0.6448 -2.6662
  713MOL0     H96241   2.005   1.736   0.397  1.1533 -2.1524 -3.4062
  713MOL0     H96242   1.755   1.840   0.415  0.5170  0.4829 -1.9745
  713MOL0     H96243   1.163   1.608   0.484 -0.8001 -0.5321 -2.0227
  713MOL0     H96244   0.966   1.753   0.404  0.8882 -4.3144 -1.1096
  713MOL0     H96245   0.947   2.064   0.455 -1.3974  3.2359  0.5923
  713MOL0     H96246   1.017   2.160   0.329 -1.7939  1.8407  3.5608
  713MOL0     H96247   0.804   2.118   0.192 -1.0055  1.3827 -0.0655
  713MOL0     H96248   0.781   2.233   0.336 -2.9465 -0.7053 -0.2393
  713MOL0     H96249   0.596   2.089   0.344  1.1221  3.1312 -0.9501
  713MOL0     H96250   0.714   2.005   0.451 -1.6078  0.9445  0.9424
  713MOL0     H96251   0.780   1.870   0.224  1.0220  0.1932  1.8353
  713MOL0     H96252   0.628   1.945   0.159 -0.5316  3.0967  0.3576
  713MOL0     H96253   0.453   1.669   0.399 -0.7135  0.7380 -0.0019
  713MOL0     H96254   1.264   2.014   0.233  0.4539  1.8579  2.3503
  713MOL0     H96255   1.432   1.867   0.290  0.3868 -1.2650 -0.2061
  714MOL0     O96256   6.375   9.876  11.309 -0.0297  0.5419 -0.9127
  714MOL0     C96257   6.364   9.758  11.347 -0.0783  0.8704  0.5975
  714MOL0     O96258   6.263   9.710  11.424  0.5338 -0.0502 -0.4305
  714MOL0     C96259   6.149   9.794  11.414  0.7661  0.0368  0.3103
  714MOL0     C96260   6.100   9.840  11.537 -0.3562 -0.7258  0.1229
  714MOL0     C96261   5.996   9.933  11.533  0.5342 -0.6921 -0.4349
  714MOL0     C96262   5.930   9.955  11.414 -0.8313  0.1119  1.1139
  714MOL0     O96263   5.846  10.060  11.429  0.6083  1.0228  0.0969
  714MOL0     C96264   5.749  10.080  11.320  0.2612 -0.3082 -1.1560
  714MOL0     C96265   5.622  10.147  11.367 -0.3060 -0.7909  0.2443
  714MOL0     C96266   5.641  10.291  11.408  1.0068  0.3860  0.0509
  714MOL0     C96267   5.499  10.350  11.414 -0.0163 -0.3026  0.0426
  714MOL0     C96268   5.509  10.488  11.479 -0.5854 -0.5787 -0.3879
  714MOL0     C96269   5.569  10.585  11.367  0.9176  0.8691  0.2139
  714MOL0     C96270   5.602  10.725  11.408  0.2892  0.6259  0.7081
  714MOL0     C96271   5.628  10.817  11.288  0.0704  0.2792 -0.8229
  714MOL0     N96272   5.649  10.956  11.345 -0.2934  0.2050 -0.8944
  714MOL0     C96273   5.766  11.011  11.399 -0.2303 -1.2162  0.0972
  714MOL0     C96274   5.722  11.140  11.431  0.2863 -0.5829  0.4492
  714MOL0     C96275   5.811  11.238  11.510  0.1076  0.2960 -0.2477
  714MOL0     C96276   5.848  11.354  11.417  0.1310 -0.5351 -0.5377
  714MOL0     C96277   5.916  11.465  11.488  0.1075 -0.5839  0.6251
  714MOL0     C96278   5.829  11.550  11.573 -0.1737 -0.0424 -0.2228
  714MOL0     O96279   5.729  11.612  11.496  0.2239  1.0006 -0.2848
  714MOL0     C96280   5.601  11.601  11.543  0.3366  1.1745  0.3313
  714MOL0     C96281   5.537  11.712  11.588 -0.0550 -1.0200  1.0002
  714MOL0     C96282   5.402  11.719  11.631 -0.6599 -0.5343  0.8639
  714MOL0     C96283   5.348  11.856  11.667  0.6769 -0.4542 -1.2734
  714MOL0     C96284   5.320  11.593  11.638  0.3786  1.0083  0.3469
  714MOL0     C96285   5.187  11.589  11.699  0.9096 -0.6998 -0.1483
  714MOL0     O96286   5.142  11.698  11.776  0.5287 -0.2159  0.1344
  714MOL0     C96287   5.030  11.685  11.847  0.0533 -0.5345  0.2543
  714MOL0     C96288   4.911  11.748  11.804 -0.1087  0.0696  0.2818
  714MOL0     C96289   4.798  11.734  11.882 -0.0462  0.8154 -2.1822
  714MOL0     C96290   4.807  11.658  12.002  0.4379 -0.3949  0.5825
  714MOL0     O96291   4.682  11.632  12.064 -0.1374  1.3152 -0.8133
  714MOL0     C96292   4.653  11.505  12.119 -0.8643  0.0656 -1.2157
  714MOL0     C96293   4.507  11.482  12.108  0.1981  1.1005  0.4194
  714MOL0     C96294   4.474  11.324  12.091  0.0157  0.7533 -0.8138
  714MOL0     C96295   4.327  11.305  12.079  0.5325  0.1716  0.4637
  714MOL0     C96296   4.278  11.327  11.929  0.0482 -0.7660 -1.1182
  714MOL0     C96297   4.137  11.287  11.892  0.5057 -0.1714  0.4794
  714MOL0     C96298   4.030  11.294  12.003 -0.4756 -0.3336 -0.5315
  714MOL0     C96299   3.901  11.282  11.937  0.4798 -0.5367 -0.1624
  714MOL0    Cl96300   3.768  11.318  12.069 -0.0523  0.1519  0.6135
  714MOL0     C96301   4.919  11.598  12.044 -0.7750  1.2339 -0.3024
  714MOL0     C96302   5.029  11.607  11.962 -0.9004 -0.8797  1.3363
  714MOL0     O96303   5.124  11.485  11.676 -0.5486 -0.2178 -0.0572
  714MOL0     C96304   5.390  11.481  11.585 -0.1356  0.5016 -0.4005
  714MOL0     C96305   5.521  11.485  11.542  0.9606 -0.2983  0.3385
  714MOL0     N96306   5.593  11.158  11.397  0.9098  0.3907 -0.2951
  714MOL0     N96307   5.545  11.050  11.342 -0.5923  0.8032 -0.8201
  714MOL0     C96308   5.964   9.894  11.299  0.1375  0.0374  0.4150
  714MOL0     C96309   6.072   9.799  11.301 -0.0422 -0.2153  0.4333
  714MOL0     C96310   6.473   9.664  11.329  0.1733  0.3454 -0.3064
  714MOL0     C96311   6.585   9.682  11.235 -0.4717  0.5806 -0.5020
  714MOL0     C96312   6.669   9.581  11.210  0.8147  0.9476  0.1144
  714MOL0     C96313   6.666   9.461  11.283  0.9975 -0.4460 -0.3333
  714MOL0     O96314   6.750   9.361  11.249 -0.3965 -0.8917 -0.3158
  714MOL0     C96315   6.818   9.278  11.350 -0.5404  0.1765  0.9314
  714MOL0     C96316   6.890   9.361  11.456 -0.1352  0.4299 -0.4146
  714MOL0     C96317   6.995   9.448  11.395 -0.4409 -0.8259 -0.9568
  714MOL0     C96318   7.137   9.372  11.410 -0.1559  0.7535 -0.0173
  714MOL0     C96319   7.249   9.467  11.393  0.4660 -0.3111 -0.0879
  714MOL0     C96320   7.326   9.556  11.393  0.0657 -0.3743 -0.2620
  714MOL0     C96321   6.572   9.452  11.387 -0.3678  0.9449  0.3618
  714MOL0     C96322   6.473   9.547  11.406 -0.6535 -0.1452  0.0711
  714MOL0     H96323   6.163   9.822  11.623  0.7509  3.2530  0.3417
  714MOL0     H96324   5.979   9.998  11.619 -1.9020 -2.1049  0.2530
  714MOL0     H96325   5.790  10.140  11.238  0.3935  1.8832  0.4440
  714MOL0     H96326   5.711   9.986  11.279 -1.4783 -0.9840  1.7334
  714MOL0     H96327   5.568  10.159  11.273 -0.2845  0.1859  0.3447
  714MOL0     H96328   5.566  10.088  11.441 -0.0813 -3.2349 -1.3965
  714MOL0     H96329   5.696  10.290  11.503  0.3653  1.4571  0.4459
  714MOL0     H96330   5.703  10.339  11.332 -0.2499  1.5099 -0.3038
  714MOL0     H96331   5.437  10.360  11.324  0.0416  2.8229  0.2453
  714MOL0     H96332   5.442  10.292  11.487 -0.0967  1.3075  1.3081
  714MOL0     H96333   5.407  10.511  11.511 -1.6440 -1.7392 -2.6998
  714MOL0     H96334   5.573  10.486  11.568 -0.7919  0.2727 -0.2045
  714MOL0     H96335   5.664  10.544  11.332  0.6065  0.9118 -0.7209
  714MOL0     H96336   5.493  10.580  11.288  0.5066 -2.9883  0.6526
  714MOL0     H96337   5.519  10.754  11.473  0.3149 -2.4217  2.2699
  714MOL0     H96338   5.701  10.722  11.454 -0.0166 -0.2332  1.3177
  714MOL0     H96339   5.531  10.823  11.237 -0.0976 -1.6355 -0.7976
  714MOL0     H96340   5.695  10.783  11.209  0.5070  2.3939 -1.4013
  714MOL0     H96341   5.860  10.969  11.432  0.7457 -0.0762 -1.1170
  714MOL0     H96342   5.768  11.273  11.604  2.9965  1.6195  0.6802
  714MOL0     H96343   5.905  11.188  11.533 -0.8265 -1.0794  0.7468
  714MOL0     H96344   5.759  11.399  11.372 -0.6792  0.2336  1.6779
  714MOL0     H96345   5.916  11.320  11.338 -0.7125  2.2406 -2.6066
  714MOL0     H96346   5.953  11.531  11.409 -0.1805  2.1831  2.6900
  714MOL0     H96347   5.995  11.431  11.556  0.6594  0.8818  0.7452
  714MOL0     H96348   5.881  11.631  11.626  1.2947 -0.5314 -0.8802
  714MOL0     H96349   5.791  11.480  11.648 -1.1293 -0.3338 -0.9613
  714MOL0     H96350   5.598  11.802  11.586  2.2648 -2.4731 -1.6709
  714MOL0     H96351   5.427  11.931  11.670  1.0720 -0.6997 -3.4968
  714MOL0     H96352   5.269  11.891  11.599 -0.2457  0.0557  0.0163
  714MOL0     H96353   5.322  11.852  11.773  1.0401  2.6448 -0.9641
  714MOL0     H96354   4.900  11.795  11.707 -1.0578 -0.5364  0.0751
  714MOL0     H96355   4.702  11.778  11.858  0.2971  2.3768 -0.8311
  714MOL0     H96356   4.709  11.429  12.064 -0.0555 -0.6437  0.5242
  714MOL0     H96357   4.689  11.497  12.222 -1.2919 -0.0019 -1.0698
  714MOL0     H96358   4.462  11.531  12.195 -3.4504 -1.1997  0.0731
  714MOL0     H96359   4.457  11.547  12.035  0.4036 -0.5459 -1.2628
  714MOL0     H96360   4.526  11.276  12.175  1.5969  1.9972 -1.0595
  714MOL0     H96361   4.519  11.273  12.006  0.0325 -2.1468  0.7643
  714MOL0     H96362   4.299  11.201  12.100  0.8951 -0.6369 -2.5667
  714MOL0     H96363   4.280  11.369  12.154 -2.8232 -2.8051  1.2250
  714MOL0     H96364   4.350  11.289  11.856 -0.6437 -2.9839 -0.7411
  714MOL0     H96365   4.264  11.434  11.912 -0.5199 -0.7690 -0.6768
  714MOL0     H96366   4.114  11.342  11.801 -0.5042 -1.7932 -0.2805
  714MOL0     H96367   4.129  11.184  11.857  1.7510  1.3222 -5.2718
  714MOL0     H96368   4.042  11.383  12.064 -0.9998  1.5371 -3.0067
  714MOL0     H96369   4.042  11.204  12.065  1.8722  0.4172  0.2018
  714MOL0     H96370   3.884  11.183  11.893 -2.0893 -0.0280 -0.5111
  714MOL0     H96371   3.887  11.353  11.855 -4.0341 -3.4052 -2.2992
  714MOL0     H96372   4.918  11.527  12.126  0.4511  0.6217 -0.7927
  714MOL0     H96373   5.126  11.569  11.991 -0.4893 -2.0094 -1.2015
  714MOL0     H96374   5.340  11.385  11.592 -0.3563  0.7568  3.1018
  714MOL0     H96375   5.556  11.391  11.501 -2.3395 -1.8259  0.6974
  714MOL0     H96376   5.914   9.908  11.203  0.2233  0.1764  0.3906
  714MOL0     H96377   6.098   9.731  11.220 -1.2532 -0.5984  0.3443
  714MOL0     H96378   6.595   9.770  11.172 -0.2936  1.2222  0.3827
  714MOL0     H96379   6.739   9.586  11.128  1.9546  1.8698  1.1171
  714MOL0     H96380   6.758   9.203  11.402  3.9011 -1.1921  4.6936
  714MOL0     H96381   6.894   9.221  11.295 -2.7157 -0.9280 -1.1496
  714MOL0     H96382   6.928   9.288  11.528 -0.1168 -0.0333 -0.8859
  714MOL0     H96383   6.817   9.425  11.506  1.6439  1.6413  0.7495
  714MOL0     H96384   6.990   9.541  11.453 -2.6250 -1.7085  0.3630
  714MOL0     H96385   6.972   9.482  11.294 -2.6562  2.4178  0.4750
  714MOL0     H96386   7.159   9.305  11.327 -0.6857  0.6879 -0.1024
  714MOL0     H96387   7.163   9.324  11.505  2.2622  2.0588  0.0774
  714MOL0     H96388   7.406   9.627  11.400 -1.7549  1.6948  0.6515
  714MOL0     H96389   6.573   9.362  11.448 -1.1908 -0.9062 -2.2159
  714MOL0     H96390   6.411   9.531  11.494  1.6063 -0.6854  1.6560
  715MOL0     O96391   4.073  10.931   7.332 -0.0622 -0.1356  0.8308
  715MOL0     C96392   4.140  10.890   7.231  0.3647  0.5385  0.9211
  715MOL0     O96393   4.271  10.909   7.210 -0.3377  0.0582 -0.2009
  715MOL0     C96394   4.347  10.934   7.323 -0.1833 -0.3435  0.1568
  715MOL0     C96395   4.365  10.843   7.425 -0.3461 -0.2532 -0.7315
  715MOL0     C96396   4.467  10.862   7.515  1.1931 -0.0699  0.1703
  715MOL0     C96397   4.536  10.979   7.520  0.7973 -0.1083 -0.3182
  715MOL0     O96398   4.602  11.008   7.636 -0.9287 -0.3756 -0.5857
  715MOL0     C96399   4.743  11.003   7.634 -0.2137 -0.2098 -0.0190
  715MOL0     C96400   4.794  10.870   7.688  0.6455 -0.4554 -0.2649
  715MOL0     C96401   4.946  10.860   7.705  0.7406 -0.4353 -0.3172
  715MOL0     C96402   5.022  10.885   7.564 -0.2140  0.2685  0.7370
  715MOL0     C96403   5.173  10.885   7.590 -0.3091 -0.0437 -0.1582
  715MOL0     C96404   5.260  10.961   7.491 -0.7768 -0.2352 -0.6036
  715MOL0     C96405   5.406  10.973   7.528 -0.1543 -0.0072  0.5013
  715MOL0     C96406   5.433  10.999   7.675 -0.5172  0.3330 -0.7907
  715MOL0     N96407   5.578  11.023   7.700  0.5950  0.7146 -0.3324
  715MOL0     C96408   5.674  10.950   7.643 -0.7139 -0.3886 -0.4065
  715MOL0     C96409   5.786  10.994   7.707  0.5554  1.2521  0.3910
  715MOL0     C96410   5.914  10.919   7.698  0.3447 -0.0236 -0.9092
  715MOL0     C96411   6.000  10.933   7.578  0.0902  0.1384  0.4544
  715MOL0     C96412   6.021  11.080   7.532 -0.6935 -0.2128 -1.0087
  715MOL0     C96413   6.136  11.079   7.431  0.1268  0.1617  0.7747
  715MOL0     O96414   6.150  11.207   7.357 -0.1123  0.1450 -0.7856
  715MOL0     C96415   6.279  11.226   7.302 -0.1085 -0.9253  0.4379
  715MOL0     C96416   6.365  11.126   7.256  0.9262  0.0229 -0.1571
  715MOL0     C96417   6.488  11.148   7.198 -0.1259 -0.0534  0.3065
  715MOL0     C96418   6.559  11.029   7.129  0.1329 -0.3656 -0.5724
  715MOL0     C96419   6.526  11.290   7.174 -0.2127 -0.1871  0.1675
  715MOL0     C96420   6.653  11.336   7.100 -0.9358  0.4785 -0.1268
  715MOL0     O96421   6.685  11.465   7.084  0.6580 -0.6365  0.2163
  715MOL0     C96422   6.817  11.506   7.072 -0.1290  0.2936  0.1468
  715MOL0     C96423   6.849  11.621   6.993  0.4482 -0.2362 -0.2945
  715MOL0     C96424   6.976  11.666   6.973  0.4143  0.1259 -0.0838
  715MOL0     C96425   7.085  11.596   7.011 -1.3597  0.4930 -0.8435
  715MOL0     O96426   7.203  11.648   6.966 -0.2835  0.2968 -0.6149
  715MOL0     C96427   7.320  11.611   7.039 -1.0474 -0.2600  0.2457
  715MOL0     C96428   7.451  11.666   6.955 -0.3609  0.9207 -0.2651
  715MOL0     C96429   7.474  11.604   6.815 -0.1443 -0.1561  0.3373
  715MOL0     C96430   7.582  11.641   6.717 -1.4092 -0.4809  0.2412
  715MOL0     C96431   7.736  11.632   6.756 -0.5157 -0.3614 -0.8318
  715MOL0     C96432   7.823  11.708   6.659  0.2112 -0.5167  0.2926
  715MOL0     C96433   7.757  11.727   6.521 -0.8125 -0.1316 -1.1708
  715MOL0     C96434   7.866  11.774   6.436  0.0264  0.3722 -0.5159
  715MOL0    Cl96435   7.937  11.624   6.365 -0.5060  0.4741 -0.5459
  715MOL0     C96436   7.066  11.484   7.088 -0.0733  0.1657  0.8171
  715MOL0     C96437   6.931  11.441   7.114 -0.1898  0.0539  0.5794
  715MOL0     O96438   6.730  11.242   7.073 -0.5712  0.2184 -0.0830
  715MOL0     C96439   6.444  11.389   7.230 -0.9681 -1.9749  0.1842
  715MOL0     C96440   6.324  11.357   7.297 -0.3578  0.3549  0.6887
  715MOL0     N96441   5.752  11.103   7.789 -0.5585 -0.3190 -0.0997
  715MOL0     N96442   5.624  11.125   7.778 -0.3534 -1.0256  0.1685
  715MOL0     C96443   4.513  11.076   7.424 -0.2984  0.6893  0.4156
  715MOL0     C96444   4.415  11.048   7.326 -1.1645  0.1754  0.5828
  715MOL0     C96445   4.070  10.812   7.130 -1.3779 -1.1943  0.2633
  715MOL0     C96446   4.134  10.769   7.009 -0.1219 -0.5102 -0.4016
  715MOL0     C96447   4.068  10.683   6.924 -0.9737 -0.3634  0.8939
  715MOL0     C96448   3.941  10.645   6.941  0.2900 -0.2187 -0.0373
  715MOL0     O96449   3.886  10.577   6.828 -0.0033 -0.1214 -0.9837
  715MOL0     C96450   3.745  10.561   6.842  0.0279 -0.0049 -0.5001
  715MOL0     C96451   3.682  10.482   6.726  0.1443 -0.0388  0.4377
  715MOL0     C96452   3.537  10.450   6.746  0.5895 -0.2411  0.3623
  715MOL0     C96453   3.455  10.585   6.734 -0.2114  0.6493 -0.8406
  715MOL0     C96454   3.305  10.549   6.738 -1.5486 -0.3837 -0.4374
  715MOL0     C96455   3.197  10.499   6.770 -0.7907  0.6885  0.2639
  715MOL0     C96456   3.872  10.689   7.054 -0.1617  0.5549  0.1309
  715MOL0     C96457   3.940  10.772   7.147  0.1783  0.0005  0.5705
  715MOL0     H96458   4.311  10.749   7.424  0.6931 -0.8614 -0.6304
  715MOL0     H96459   4.477  10.794   7.599  4.4446  3.1320  2.6765
  715MOL0     H96460   4.791  11.029   7.540 -0.4469  3.9662  0.8240
  715MOL0     H96461   4.779  11.081   7.702  0.2120 -1.9087  1.8131
  715MOL0     H96462   4.749  10.844   7.785  1.4509  2.5839  1.0547
  715MOL0     H96463   4.771  10.790   7.617 -1.4424 -0.4972  0.3915
  715MOL0     H96464   4.973  10.932   7.782 -2.4813 -0.4478  0.9899
  715MOL0     H96465   4.983  10.766   7.746  3.2393  0.6439  0.0627
  715MOL0     H96466   4.996  10.809   7.490  1.0013  0.5372  0.0018
  715MOL0     H96467   4.983  10.975   7.516  0.7545  0.1033 -0.4203
  715MOL0     H96468   5.187  10.911   7.695 -0.8431  0.7701 -0.2771
  715MOL0     H96469   5.203  10.780   7.578  2.3679  0.8734 -2.4070
  715MOL0     H96470   5.249  10.912   7.394 -1.6037 -2.3431  0.4805
  715MOL0     H96471   5.228  11.063   7.467  1.7463  0.1943 -2.5678
  715MOL0     H96472   5.454  10.877   7.506  3.2788  1.6028  0.3134
  715MOL0     H96473   5.463  11.041   7.464 -1.1503 -0.9664 -1.4711
  715MOL0     H96474   5.395  10.920   7.740  0.7279  3.3924  4.2578
  715MOL0     H96475   5.385  11.090   7.714 -1.8240 -0.3170 -0.8204
  715MOL0     H96476   5.650  10.866   7.579 -1.1373 -0.9030  0.4040
  715MOL0     H96477   5.987  10.953   7.772  1.0410 -4.1191  0.5814
  715MOL0     H96478   5.904  10.810   7.707 -1.0299  0.1464  0.0279
  715MOL0     H96479   5.959  10.869   7.499  1.9956  0.9239 -1.2497
  715MOL0     H96480   6.101  10.894   7.592  0.3692  1.3762  2.1558
  715MOL0     H96481   6.046  11.143   7.618  0.2676 -2.8813  0.7945
  715MOL0     H96482   5.932  11.120   7.483  1.0045  2.2563 -2.2379
  715MOL0     H96483   6.119  10.994   7.364 -1.2324 -0.4038  1.7903
  715MOL0     H96484   6.226  11.058   7.488  1.1983  2.9538  0.2976
  715MOL0     H96485   6.329  11.028   7.286 -0.3844  1.2642  2.7127
  715MOL0     H96486   6.552  11.047   7.022  0.3446 -2.6614 -1.0278
  715MOL0     H96487   6.662  11.026   7.166 -0.2035  1.4701  0.6308
  715MOL0     H96488   6.522  10.931   7.162  0.1024 -1.0216 -2.4213
  715MOL0     H96489   6.765  11.677   6.953 -1.3012  0.8546  4.3247
  715MOL0     H96490   6.974  11.760   6.918 -0.8510  0.5762  0.6670
  715MOL0     H96491   7.306  11.659   7.136 -1.0209  1.5105 -0.5760
  715MOL0     H96492   7.334  11.503   7.047  2.1482  0.1407  1.7271
  715MOL0     H96493   7.428  11.773   6.942 -3.2671  0.5772  1.2756
  715MOL0     H96494   7.546  11.650   7.007 -0.3470 -0.0293 -0.5623
  715MOL0     H96495   7.382  11.634   6.764 -0.0784 -2.5995 -1.3929
  715MOL0     H96496   7.483  11.496   6.831  2.1085  0.1892  1.9352
  715MOL0     H96497   7.571  11.587   6.622 -0.8608 -0.8170  0.3650
  715MOL0     H96498   7.551  11.745   6.701 -1.2365 -0.2444  1.3697
  715MOL0     H96499   7.768  11.528   6.768 -2.8381 -1.2186 -1.4708
  715MOL0     H96500   7.750  11.684   6.851 -0.8281  1.2526 -1.6327
  715MOL0     H96501   7.849  11.804   6.705  2.4009 -1.5326  1.3368
  715MOL0     H96502   7.918  11.653   6.657  0.6880  0.2470 -2.0249
  715MOL0     H96503   7.682  11.806   6.525  0.2479  0.8290  0.9155
  715MOL0     H96504   7.707  11.636   6.486 -1.5085 -1.7040  3.2421
  715MOL0     H96505   7.942  11.837   6.483 -1.7253  1.0354  1.5570
  715MOL0     H96506   7.825  11.829   6.351 -0.0321  1.1735  0.0239
  715MOL0     H96507   7.149  11.429   7.131  1.4684  0.8783 -1.0536
  715MOL0     H96508   6.926  11.348   7.170  2.6386 -0.2738  0.4310
  715MOL0     H96509   6.465  11.494   7.214 -1.9243 -1.8292 -0.1563
  715MOL0     H96510   6.274  11.443   7.341  3.1431  2.8240  0.2295
  715MOL0     H96511   4.565  11.171   7.425  2.3038 -0.6077 -0.4769
  715MOL0     H96512   4.402  11.114   7.240 -0.2279 -2.0145 -1.3527
  715MOL0     H96513   4.239  10.791   6.995 -0.5466  3.3285  1.2991
  715MOL0     H96514   4.112  10.656   6.829 -1.5062  0.0813  0.5120
  715MOL0     H96515   3.735  10.493   6.927  2.4323 -2.0165 -1.6852
  715MOL0     H96516   3.693  10.655   6.858  0.4313 -0.1056  1.7286
  715MOL0     H96517   3.732  10.387   6.704  1.2807  0.5630  0.3263
  715MOL0     H96518   3.704  10.552   6.644  0.3266  1.6915  1.9106
  715MOL0     H96519   3.524  10.391   6.837  3.5053 -1.4938  0.0610
  715MOL0     H96520   3.515  10.389   6.658  1.1252  2.0737 -1.4901
  715MOL0     H96521   3.490  10.641   6.648  1.6086 -2.4614 -2.2857
  715MOL0     H96522   3.459  10.651   6.822 -1.3792 -2.7093  1.9670
  715MOL0     H96523   3.110  10.451   6.810 -1.7540  2.8685  0.9157
  715MOL0     H96524   3.770  10.657   7.070  0.0499 -0.3401 -0.2693
  715MOL0     H96525   3.888  10.789   7.241 -2.2946  1.8039 -0.9797
  716MOL0     O96526   9.425   6.340   3.217  0.5049 -0.6693  0.1264
  716MOL0     C96527   9.339   6.265   3.270  0.1282  0.1370  0.2802
  716MOL0     O96528   9.291   6.261   3.403  0.2040  0.1766  0.3224
  716MOL0     C96529   9.307   6.376   3.470 -0.6413  0.3210 -0.0036
  716MOL0     C96530   9.374   6.358   3.594 -0.4337 -0.7865 -0.0210
  716MOL0     C96531   9.413   6.470   3.674  0.6244  0.8840  0.5105
  716MOL0     C96532   9.389   6.600   3.627  0.2052 -0.9050  0.4523
  716MOL0     O96533   9.398   6.703   3.714  0.1086 -0.6407  0.4080
  716MOL0     C96534   9.529   6.729   3.776  0.0624 -0.3688 -0.2383
  716MOL0     C96535   9.506   6.795   3.918 -1.0634 -0.0182  0.5493
  716MOL0     C96536   9.414   6.915   3.888  0.0371 -0.7306 -0.2785
  716MOL0     C96537   9.464   7.026   3.793  0.9364  0.3465  0.6304
  716MOL0     C96538   9.608   7.064   3.842 -0.0454  0.3524 -0.8677
  716MOL0     C96539   9.656   7.206   3.803  0.6859 -0.6063  0.2288
  716MOL0     C96540   9.569   7.329   3.843 -0.2295  0.1255 -0.4183
  716MOL0     C96541   9.564   7.373   3.986  0.7913  0.5821  0.2081
  716MOL0     N96542   9.507   7.512   3.995 -1.6035 -0.0181 -0.2036
  716MOL0     C96543   9.554   7.637   3.983  0.2324  0.2069 -0.6494
  716MOL0     C96544   9.453   7.722   3.985  0.2187 -0.3417 -0.9537
  716MOL0     C96545   9.465   7.871   3.995  0.0993  0.0028  0.5807
  716MOL0     C96546   9.507   7.924   4.133  0.1247  0.6105 -0.3060
  716MOL0     C96547   9.405   7.930   4.232  0.3105  0.8601  0.7490
  716MOL0     C96548   9.283   8.012   4.210  0.4851 -0.0282 -0.4455
  716MOL0     O96549   9.331   8.147   4.176  0.6699  0.8970  0.5278
  716MOL0     C96550   9.243   8.238   4.118 -0.7880  1.0231 -0.0937
  716MOL0     C96551   9.303   8.331   4.032 -0.8575  0.5570 -1.7027
  716MOL0     C96552   9.222   8.436   3.988 -0.0573 -0.1667  0.8798
  716MOL0     C96553   9.301   8.527   3.905 -0.1711 -0.4501  0.2655
  716MOL0     C96554   9.079   8.438   4.008  0.3935 -1.0046  0.3091
  716MOL0     C96555   8.993   8.546   3.954  0.3195 -0.1045  0.7050
  716MOL0     O96556   9.026   8.678   3.956 -0.7610 -0.2599  0.2836
  716MOL0     C96557   8.940   8.767   3.897 -0.0590 -0.6577  0.2655
  716MOL0     C96558   8.984   8.830   3.786  0.0775 -0.5162  0.2436
  716MOL0     C96559   8.902   8.937   3.722  0.5560 -0.2229 -0.3765
  716MOL0     C96560   8.771   8.969   3.775 -0.1661 -0.2299  0.7215
  716MOL0     O96561   8.701   9.065   3.707  0.3168  0.5556  0.6221
  716MOL0     C96562   8.553   9.070   3.709 -0.2634  0.3728  0.1987
  716MOL0     C96563   8.500   9.140   3.588 -0.1394  0.4758  0.4152
  716MOL0     C96564   8.358   9.195   3.610 -0.6296 -0.3993  0.3105
  716MOL0     C96565   8.310   9.280   3.495  0.0342 -0.5962  0.1833
  716MOL0     C96566   8.250   9.196   3.374  0.7404  0.1924 -0.0571
  716MOL0     C96567   8.103   9.153   3.404 -1.7032  0.1193  0.5465
  716MOL0     C96568   8.054   9.032   3.321 -0.2070  0.1120 -0.1552
  716MOL0     C96569   8.056   8.892   3.400 -0.2536  0.1778  0.1212
  716MOL0    Cl96570   8.221   8.860   3.469  0.1106 -0.3264 -0.1708
  716MOL0     C96571   8.724   8.890   3.885  0.2858 -0.4594  0.2754
  716MOL0     C96572   8.806   8.793   3.938  0.3976 -0.1904 -0.0888
  716MOL0     O96573   8.881   8.503   3.924 -0.0262  0.3293 -0.1762
  716MOL0     C96574   9.027   8.336   4.099  0.4554 -1.0150  0.0366
  716MOL0     C96575   9.107   8.240   4.149  0.9665 -0.7894 -0.2364
  716MOL0     N96576   9.342   7.657   4.015  0.2637  0.3386  0.2106
  716MOL0     N96577   9.369   7.531   4.012  0.1504  0.0549  0.3180
  716MOL0     C96578   9.321   6.620   3.507  1.1169  0.1250  0.5988
  716MOL0     C96579   9.279   6.508   3.429 -1.5546 -0.3127  0.4446
  716MOL0     C96580   9.292   6.156   3.178 -0.3592 -0.9810 -0.8587
  716MOL0     C96581   9.282   6.030   3.230  0.6053 -0.3862  0.1040
  716MOL0     C96582   9.244   5.925   3.148  0.1440  0.2698 -0.9359
  716MOL0     C96583   9.210   5.945   3.017  0.2762 -0.4473 -0.4243
  716MOL0     O96584   9.175   5.834   2.954  0.6198  0.6297 -0.1737
  716MOL0     C96585   9.136   5.831   2.824  0.0335  0.2998  1.1089
  716MOL0     C96586   8.993   5.861   2.802  0.3924 -0.1228  0.6559
  716MOL0     C96587   8.969   5.914   2.658 -0.3148  0.4069 -0.6876
  716MOL0     C96588   8.826   5.906   2.633 -0.0356  0.3213  0.7289
  716MOL0     C96589   8.796   5.959   2.496 -0.1216 -0.3300 -0.9205
  716MOL0     C96590   8.767   5.991   2.384  0.2334 -0.0802 -0.4828
  716MOL0     C96591   9.194   6.074   2.973 -0.3194 -0.3152  0.6053
  716MOL0     C96592   9.233   6.182   3.051  0.0725 -0.0663 -0.8567
  716MOL0     H96593   9.394   6.255   3.621  0.4464 -0.6833 -0.2475
  716MOL0     H96594   9.457   6.458   3.772 -1.3412  1.6077  1.5263
  716MOL0     H96595   9.590   6.639   3.778  0.4844 -0.0723  0.6057
  716MOL0     H96596   9.585   6.802   3.717 -1.1743  1.0549  0.2603
  716MOL0     H96597   9.454   6.723   3.982  1.0766 -2.8277 -0.6638
  716MOL0     H96598   9.606   6.816   3.958 -0.1340 -0.8673 -1.2238
  716MOL0     H96599   9.308   6.890   3.874 -0.9739  1.3411  2.6819
  716MOL0     H96600   9.382   6.964   3.980 -0.8198  3.4315 -2.5046
  716MOL0     H96601   9.477   6.997   3.688  1.1840 -1.0092  1.0206
  716MOL0     H96602   9.388   7.104   3.801 -0.2605 -0.9045  2.2941
  716MOL0     H96603   9.616   7.037   3.948  1.7460  1.4528 -0.6731
  716MOL0     H96604   9.686   6.998   3.803  0.5366  0.5015  0.0080
  716MOL0     H96605   9.764   7.218   3.808  1.0890 -3.7763  2.5061
  716MOL0     H96606   9.632   7.205   3.696  0.1504  0.7897  0.3246
  716MOL0     H96607   9.612   7.414   3.790 -0.7418  0.5315 -0.1740
  716MOL0     H96608   9.468   7.313   3.805  0.4855  4.8563 -5.4367
  716MOL0     H96609   9.661   7.374   4.037 -0.4608  1.3264  2.7336
  716MOL0     H96610   9.505   7.308   4.050 -0.1420  1.7799  0.5953
  716MOL0     H96611   9.661   7.655   3.984  0.4875 -0.9826  2.0176
  716MOL0     H96612   9.550   7.898   3.932 -0.3672 -2.1032 -1.0931
  716MOL0     H96613   9.375   7.918   3.955 -0.5418 -1.0648  0.7396
  716MOL0     H96614   9.549   8.025   4.136  1.3430  0.1473 -0.9439
  716MOL0     H96615   9.583   7.854   4.169 -2.4284 -2.3472 -0.2866
  716MOL0     H96616   9.450   7.945   4.330 -1.1989 -1.5119  1.9180
  716MOL0     H96617   9.372   7.826   4.246 -0.3024  1.0794  0.9963
  716MOL0     H96618   9.223   8.009   4.301 -0.2310  0.7416 -0.8755
  716MOL0     H96619   9.225   7.965   4.131  0.7503  0.1141 -0.7269
  716MOL0     H96620   9.410   8.320   4.018 -0.4842  2.4116 -0.6692
  716MOL0     H96621   9.362   8.593   3.967 -1.3792 -2.6211  4.0431
  716MOL0     H96622   9.355   8.468   3.831 -0.1781  1.2837 -1.1899
  716MOL0     H96623   9.246   8.593   3.836  2.0692  2.0817  0.7205
  716MOL0     H96624   9.081   8.804   3.746 -0.4948  0.0427 -1.6094
  716MOL0     H96625   8.937   8.990   3.634 -2.0545 -0.4152 -1.6178
  716MOL0     H96626   8.513   8.969   3.714  1.4847 -0.3375  0.4099
  716MOL0     H96627   8.523   9.131   3.795 -2.3818 -2.4238  1.5807
  716MOL0     H96628   8.565   9.223   3.558 -1.4341  0.8138 -1.6773
  716MOL0     H96629   8.507   9.077   3.499  0.3175 -2.9061  2.6651
  716MOL0     H96630   8.361   9.246   3.707  1.6244 -0.2041  0.1827
  716MOL0     H96631   8.292   9.108   3.610  0.8398 -1.6596 -2.7705
  716MOL0     H96632   8.229   9.346   3.529  1.0061  0.5823  0.2634
  716MOL0     H96633   8.394   9.342   3.463 -0.7783 -0.3716 -1.6956
  716MOL0     H96634   8.305   9.108   3.339 -2.0362 -0.7420 -2.4589
  716MOL0     H96635   8.253   9.264   3.289 -1.1393 -1.4493 -1.5156
  716MOL0     H96636   8.097   9.106   3.503 -1.2975 -0.9516  0.0756
  716MOL0     H96637   8.035   9.239   3.400 -0.5849  0.9976  0.1135
  716MOL0     H96638   8.120   9.031   3.234 -2.6657  1.0553 -2.1016
  716MOL0     H96639   7.953   9.043   3.283  0.2215  1.3863 -1.0014
  716MOL0     H96640   8.024   8.812   3.332  0.6138  0.7106 -0.9563
  716MOL0     H96641   7.978   8.895   3.476  1.1091 -0.8897  1.6304
  716MOL0     H96642   8.637   8.923   3.941  0.4058 -3.3105  2.3426
  716MOL0     H96643   8.779   8.739   4.028  2.8160 -2.6336 -0.7054
  716MOL0     H96644   8.925   8.351   4.132  1.2630  2.6286  1.4306
  716MOL0     H96645   9.055   8.164   4.206 -0.4020 -0.1679 -0.6038
  716MOL0     H96646   9.305   6.723   3.478  1.1861  0.8857  3.0279
  716MOL0     H96647   9.237   6.522   3.330  0.8279 -3.7657 -1.3044
  716MOL0     H96648   9.314   6.006   3.330 -1.3304 -3.3154  0.1719
  716MOL0     H96649   9.230   5.829   3.197 -0.9119  0.9439  0.1355
  716MOL0     H96650   9.194   5.892   2.754 -0.5396 -3.1534 -2.7685
  716MOL0     H96651   9.154   5.736   2.774  0.0366  1.0567 -0.3850
  716MOL0     H96652   8.952   5.935   2.871 -4.2100 -1.9598  0.2485
  716MOL0     H96653   8.928   5.773   2.808 -1.9641  0.9193 -4.1890
  716MOL0     H96654   9.035   5.857   2.592  1.1122  0.1568  0.8708
  716MOL0     H96655   8.998   6.019   2.650 -2.8516  1.2937  0.5601
  716MOL0     H96656   8.763   5.961   2.703 -1.6384 -0.2677 -0.2009
  716MOL0     H96657   8.790   5.803   2.641  4.0169 -1.3858 -0.2006
  716MOL0     H96658   8.731   6.012   2.286 -1.3210 -3.9295 -0.8997
  716MOL0     H96659   9.165   6.101   2.872  4.2961  0.7674 -0.6509
  716MOL0     H96660   9.232   6.284   3.014 -1.1842  0.0589 -0.5237
  717MOL0     O96661   9.396   2.209   7.160  0.6007  0.4325  0.1909
  717MOL0     C96662   9.449   2.102   7.176 -0.3555 -0.1891  0.7971
  717MOL0     O96663   9.557   2.062   7.104 -0.6019 -0.1294 -0.0299
  717MOL0     C96664   9.604   2.129   6.994  0.1856 -0.4876  0.2895
  717MOL0     C96665   9.744   2.155   6.992  0.4846 -0.6924 -0.1105
  717MOL0     C96666   9.809   2.214   6.880  1.2054 -0.2542 -0.7100
  717MOL0     C96667   9.732   2.258   6.770  0.2269  0.7290  0.5249
  717MOL0     O96668   9.791   2.310   6.657  0.0537 -0.7776  0.1868
  717MOL0     C96669   9.935   2.280   6.643 -0.7623  0.2694  0.8694
  717MOL0     C96670   9.964   2.257   6.499 -0.9709  0.5316  0.4795
  717MOL0     C96671   9.918   2.113   6.451  0.6764 -0.8780  1.0921
  717MOL0     C96672   9.766   2.110   6.399  0.3299 -1.0916 -0.3289
  717MOL0     C96673   9.745   1.987   6.308 -1.3839 -0.3856 -0.1575
  717MOL0     C96674   9.650   2.016   6.191  0.7970 -0.2399  0.3943
  717MOL0     C96675   9.559   1.887   6.168 -0.9159  0.9896  0.4411
  717MOL0     C96676   9.445   1.910   6.066  1.0794  1.1396  0.2293
  717MOL0     N96677   9.339   1.804   6.074  0.1863 -0.3334 -0.0037
  717MOL0     C96678   9.369   1.671   6.072 -1.0776 -0.1963 -0.5395
  717MOL0     C96679   9.255   1.615   6.027  0.2413 -0.2920 -0.1518
  717MOL0     C96680   9.221   1.480   5.985  0.3127  0.0457 -0.4606
  717MOL0     C96681   9.242   1.483   5.838 -1.0521 -0.0927  0.0433
  717MOL0     C96682   9.149   1.393   5.763  0.9020  0.6235 -0.7778
  717MOL0     C96683   9.138   1.239   5.797 -0.6156 -0.1581  0.2502
  717MOL0     O96684   9.058   1.173   5.695 -0.1520  0.5904  0.1689
  717MOL0     C96685   9.016   1.036   5.721  0.4382 -1.2756 -0.3741
  717MOL0     C96686   8.956   0.975   5.615  0.8785  0.3528  0.2948
  717MOL0     C96687   8.904   0.845   5.620 -0.4680  0.5011 -0.4099
  717MOL0     C96688   8.847   0.789   5.499  0.7467  0.1269  0.8640
  717MOL0     C96689   8.904   0.777   5.742 -0.0268  0.5796 -1.0059
  717MOL0     C96690   8.852   0.641   5.749  1.0848  0.0064 -0.5742
  717MOL0     O96691   8.777   0.610   5.858 -0.4263  0.1159  0.1269
  717MOL0     C96692   8.744   0.479   5.890 -0.7089 -0.2128  0.5756
  717MOL0     C96693   8.622   0.454   5.935  0.8393  0.7435  0.3018
  717MOL0     C96694   8.576   0.320   5.978 -0.1290 -0.9811 -0.7459
  717MOL0     C96695   8.667   0.213   5.976  0.7457  0.1577 -0.3721
  717MOL0     O96696   8.626   0.086   6.023  0.4025  0.0164  0.1983
  717MOL0     C96697   8.717  -0.029   6.017 -0.3759  0.7585  0.0406
  717MOL0     C96698   8.646  -0.138   6.101  0.6590  0.1570  0.0670
  717MOL0     C96699   8.727  -0.202   6.213 -0.1890  1.1802 -0.4798
  717MOL0     C96700   8.751  -0.108   6.332  0.9341  0.4449  0.0704
  717MOL0     C96701   8.891  -0.069   6.367 -1.1276  0.5298  0.9894
  717MOL0     C96702   8.978  -0.181   6.436  0.0305 -0.1050  0.4566
  717MOL0     C96703   8.963  -0.330   6.403  0.0870 -0.6960  0.3437
  717MOL0     C96704   9.039  -0.377   6.276 -0.5676 -0.0013 -0.4050
  717MOL0    Cl96705   9.163  -0.500   6.316  0.2198 -0.1626  0.2278
  717MOL0     C96706   8.792   0.241   5.918 -0.1399  0.7224  0.3489
  717MOL0     C96707   8.837   0.369   5.885  0.5997 -0.3957 -0.0135
  717MOL0     O96708   8.903   0.560   5.670 -0.0846 -0.0002 -0.2684
  717MOL0     C96709   8.968   0.835   5.851  0.3016 -0.7533 -1.0090
  717MOL0     C96710   9.018   0.970   5.842 -0.7622  0.6842 -0.0439
  717MOL0     N96711   9.150   1.707   6.012  0.1441 -0.8651  0.1967
  717MOL0     N96712   9.206   1.827   6.033 -0.5797  0.1508  0.7274
  717MOL0     C96713   9.593   2.243   6.778  0.4940  0.4923  0.3236
  717MOL0     C96714   9.528   2.184   6.887 -0.5679 -0.3085  0.1473
  717MOL0     C96715   9.412   2.029   7.297  0.8213  0.6842  0.1974
  717MOL0     C96716   9.483   1.911   7.334  0.1796  0.1563 -0.3888
  717MOL0     C96717   9.434   1.827   7.447 -0.0606 -0.4545  1.0398
  717MOL0     C96718   9.321   1.861   7.515 -0.0827 -0.4715  0.0434
  717MOL0     O96719   9.287   1.769   7.616  0.7168 -0.6143 -0.6553
  717MOL0     C96720   9.149   1.733   7.608  0.3627  0.0234  0.5325
  717MOL0     C96721   9.081   1.764   7.744  0.2031 -0.2509 -0.3954
  717MOL0     C96722   8.939   1.710   7.758 -0.1138  0.0260  0.5248
  717MOL0     C96723   8.838   1.790   7.677  0.0399  0.0408 -0.1863
  717MOL0     C96724   8.704   1.784   7.738  0.8149 -0.1317  0.0255
  717MOL0     C96725   8.593   1.780   7.793  0.1462 -0.5187 -0.8709
  717MOL0     C96726   9.247   1.979   7.483 -1.1220 -0.2086  0.3932
  717MOL0     C96727   9.298   2.060   7.374 -0.4988 -0.0909  0.5261
  717MOL0     H96728   9.787   2.102   7.076 -0.3672 -2.3913 -0.6999
  717MOL0     H96729   9.916   2.230   6.890  0.7929  2.4993  0.4629
  717MOL0     H96730   9.992   2.361   6.690 -1.2053  0.6216  0.8032
  717MOL0     H96731   9.961   2.180   6.677  2.3673 -0.4425 -2.8195
  717MOL0     H96732   9.918   2.338   6.442 -1.7336 -0.4676 -0.3756
  717MOL0     H96733  10.071   2.276   6.503 -0.9463  0.1242  2.9435
  717MOL0     H96734   9.969   2.076   6.362  0.6017  0.3624  0.5182
  717MOL0     H96735   9.927   2.041   6.533 -3.3622 -1.4847  1.1805
  717MOL0     H96736   9.698   2.102   6.484  1.3082 -0.7521  0.5017
  717MOL0     H96737   9.748   2.202   6.342  0.1392 -1.3356 -0.6644
  717MOL0     H96738   9.837   1.956   6.259 -0.6039  3.3045 -1.3793
  717MOL0     H96739   9.693   1.914   6.371 -0.3911 -0.7485  0.2643
  717MOL0     H96740   9.578   2.091   6.223 -0.0844 -1.1546  0.5876
  717MOL0     H96741   9.699   2.050   6.099 -1.1490  3.4267  0.5401
  717MOL0     H96742   9.625   1.804   6.143 -1.7419 -0.4142  2.6884
  717MOL0     H96743   9.518   1.858   6.264 -1.0862 -2.0557 -0.4650
  717MOL0     H96744   9.491   1.922   5.967 -1.4872  0.3974 -1.1326
  717MOL0     H96745   9.393   2.001   6.098 -3.8658 -1.9152  1.9926
  717MOL0     H96746   9.458   1.616   6.102 -1.2995 -0.3094 -0.0770
  717MOL0     H96747   9.294   1.413   6.031 -1.9744 -1.4239  1.2460
  717MOL0     H96748   9.118   1.456   6.011  0.2594  0.2356 -0.4934
  717MOL0     H96749   9.348   1.465   5.816 -0.9424  1.5674 -0.9289
  717MOL0     H96750   9.224   1.581   5.792 -0.7671 -1.3434 -2.9312
  717MOL0     H96751   9.178   1.401   5.658  1.2266  1.3279 -0.6443
  717MOL0     H96752   9.054   1.446   5.762  0.3688 -0.2178  0.9363
  717MOL0     H96753   9.097   1.243   5.899 -0.5415  2.1813  0.2511
  717MOL0     H96754   9.230   1.181   5.798 -2.5546 -3.4900 -0.6896
  717MOL0     H96755   8.961   1.034   5.524  0.0807 -0.2747 -0.1614
  717MOL0     H96756   8.927   0.736   5.447  0.0401  0.3092 -0.4316
  717MOL0     H96757   8.761   0.726   5.523 -3.1609  4.4024 -0.4943
  717MOL0     H96758   8.810   0.865   5.429  1.2735 -2.4679 -2.4720
  717MOL0     H96759   8.547   0.530   5.920 -0.8218 -0.9347 -0.3072
  717MOL0     H96760   8.470   0.308   6.002  1.0004 -3.0808  4.5954
  717MOL0     H96761   8.739  -0.064   5.916 -1.5366 -1.7932  0.5713
  717MOL0     H96762   8.817  -0.008   6.058 -0.5634 -0.3678  1.1618
  717MOL0     H96763   8.553  -0.097   6.141  1.5522  1.9114  0.4336
  717MOL0     H96764   8.628  -0.217   6.027  2.0454 -1.5163  1.4409
  717MOL0     H96765   8.822  -0.232   6.167 -0.4075  0.5882 -0.5517
  717MOL0     H96766   8.675  -0.292   6.248 -1.2493  1.8225 -0.3665
  717MOL0     H96767   8.693  -0.019   6.306  2.8380  1.2604 -1.6091
  717MOL0     H96768   8.715  -0.162   6.420 -2.1200 -0.5275 -1.6383
  717MOL0     H96769   8.896   0.031   6.411  1.9378  2.5549 -3.2332
  717MOL0     H96770   8.944  -0.049   6.273 -2.7556  2.1112  0.3463
  717MOL0     H96771   9.083  -0.155   6.422  0.3519  0.1730  2.9726
  717MOL0     H96772   8.963  -0.171   6.544  2.5710 -1.3753  0.9980
  717MOL0     H96773   8.855  -0.342   6.395  0.2134 -1.2819 -0.6820
  717MOL0     H96774   9.006  -0.403   6.473 -0.9791  0.2673  2.0704
  717MOL0     H96775   9.089  -0.293   6.229  0.4161 -1.0762 -1.3285
  717MOL0     H96776   8.966  -0.419   6.207 -1.5543  2.8694 -1.2263
  717MOL0     H96777   8.868   0.164   5.909  0.4194  1.1045  1.5547
  717MOL0     H96778   8.939   0.373   5.850  0.1197 -0.6179 -1.4976
  717MOL0     H96779   8.964   0.778   5.943 -2.3488  0.2848 -0.4031
  717MOL0     H96780   9.056   1.019   5.931  0.0634 -0.3862  0.2201
  717MOL0     H96781   9.538   2.282   6.694  1.2254 -2.3009 -1.6111
  717MOL0     H96782   9.420   2.178   6.888 -0.8039  2.3550  1.9539
  717MOL0     H96783   9.561   1.866   7.274  1.5380 -1.6179  2.4914
  717MOL0     H96784   9.490   1.737   7.471 -1.1326 -0.7935  2.4045
  717MOL0     H96785   9.095   1.781   7.526  1.1880 -1.9634 -1.2846
  717MOL0     H96786   9.138   1.626   7.586  0.1469  0.0856  0.3372
  717MOL0     H96787   9.082   1.872   7.761 -1.5312 -0.0355 -1.3515
  717MOL0     H96788   9.146   1.714   7.816  3.1940  0.2287 -2.5504
  717MOL0     H96789   8.911   1.729   7.862 -2.2977 -1.8655  0.3593
  717MOL0     H96790   8.937   1.603   7.734 -0.2932 -0.3383  2.1045
  717MOL0     H96791   8.824   1.765   7.572  1.7931 -0.6515 -0.2766
  717MOL0     H96792   8.875   1.890   7.654  0.3845 -0.0002  0.1813
  717MOL0     H96793   8.496   1.779   7.838  0.4253 -2.2343 -0.2200
  717MOL0     H96794   9.161   2.008   7.543  0.0121  2.8645  0.7024
  717MOL0     H96795   9.245   2.147   7.337 -0.6847 -0.3598  0.1525
  718MOL0     O96796   8.714   3.839   1.685 -0.7019  0.0545  0.3524
  718MOL0     C96797   8.597   3.805   1.689  0.4935  0.0713 -0.1137
  718MOL0     O96798   8.513   3.786   1.578  0.4536  0.3418  0.4475
  718MOL0     C96799   8.566   3.806   1.447  0.5351 -0.5283 -0.0742
  718MOL0     C96800   8.635   3.705   1.375  0.5992  0.2736  0.4901
  718MOL0     C96801   8.675   3.730   1.243 -1.7131 -0.2251 -1.1589
  718MOL0     C96802   8.650   3.849   1.178  0.1618 -0.1796 -1.4058
  718MOL0     O96803   8.680   3.887   1.046  0.1015  0.1345 -0.3600
  718MOL0     C96804   8.751   3.797   0.962  0.4038  0.8262 -0.4146
  718MOL0     C96805   8.766   3.858   0.828 -0.3065  0.9622  0.2312
  718MOL0     C96806   8.639   3.920   0.778  0.0283 -0.0620  0.9754
  718MOL0     C96807   8.518   3.827   0.771 -0.9039 -0.4724  0.0395
  718MOL0     C96808   8.398   3.895   0.712 -0.2088 -0.9760  0.8374
  718MOL0     C96809   8.261   3.820   0.707  0.9475  0.6078 -0.0547
  718MOL0     C96810   8.142   3.899   0.629  0.3185 -0.6165  0.0304
  718MOL0     C96811   8.097   3.845   0.489 -0.0861  0.9799 -1.6135
  718MOL0     N96812   8.216   3.837   0.404 -0.4101 -0.4512 -0.2380
  718MOL0     C96813   8.307   3.743   0.372  1.0257 -0.4044  0.1589
  718MOL0     C96814   8.396   3.801   0.297 -0.6417 -0.0184  0.5298
  718MOL0     C96815   8.504   3.713   0.235 -0.5463  0.9281 -0.2641
  718MOL0     C96816   8.602   3.656   0.329  0.5963  0.2464  0.8563
  718MOL0     C96817   8.689   3.748   0.416  0.0826 -0.4404  0.2519
  718MOL0     C96818   8.810   3.804   0.345  1.5032 -0.2443  0.5185
  718MOL0     O96819   8.900   3.864   0.439 -0.2937  1.2530 -0.0628
  718MOL0     C96820   8.973   3.789   0.521  0.6612 -1.2118 -0.1534
  718MOL0     C96821   9.012   3.852   0.640  0.6446  0.4557  0.7005
  718MOL0     C96822   9.090   3.783   0.731 -0.3025 -0.1631 -0.6088
  718MOL0     C96823   9.125   3.870   0.858  0.1389  0.5000 -0.6541
  718MOL0     C96824   9.130   3.654   0.717  0.4582  0.5433  0.6869
  718MOL0     C96825   9.219   3.579   0.804  0.4053  0.7277 -0.1361
  718MOL0     O96826   9.309   3.649   0.878 -0.5676  0.4734  0.2289
  718MOL0     C96827   9.385   3.571   0.965 -0.0250 -0.0516 -1.2525
  718MOL0     C96828   9.497   3.496   0.925 -0.3041  0.1593  0.6496
  718MOL0     C96829   9.580   3.421   1.015  0.5257  0.5759 -0.0739
  718MOL0     C96830   9.544   3.415   1.152  0.4313 -0.6684  0.2215
  718MOL0     O96831   9.621   3.336   1.221  0.7250  1.5259 -0.2459
  718MOL0     C96832   9.578   3.286   1.351  0.0633 -0.4850 -0.3608
  718MOL0     C96833   9.690   3.210   1.414  1.1400  0.0557 -0.6748
  718MOL0     C96834   9.796   3.305   1.456 -0.1523  0.1360  0.3984
  718MOL0     C96835   9.913   3.221   1.519 -0.2596  0.0995 -0.2310
  718MOL0     C96836  10.044   3.306   1.528  0.4057 -0.4946 -0.5393
  718MOL0     C96837  10.025   3.420   1.633  0.6686  0.5069 -0.5973
  718MOL0     C96838  10.158   3.487   1.657  0.5202  0.3015  0.1264
  718MOL0     C96839  10.150   3.621   1.733  0.4468  0.9124  0.3396
  718MOL0    Cl96840  10.059   3.596   1.885  0.2032  0.4929  0.0474
  718MOL0     C96841   9.426   3.483   1.193  0.3455 -0.0036  0.4346
  718MOL0     C96842   9.360   3.576   1.106  0.3798 -0.6942  0.1713
  718MOL0     O96843   9.185   3.467   0.823 -0.5280  0.7053 -0.2440
  718MOL0     C96844   9.090   3.590   0.595  0.2936 -0.9485  0.1518
  718MOL0     C96845   9.023   3.668   0.490 -0.4296  0.3872  0.2996
  718MOL0     N96846   8.371   3.930   0.272  0.6215 -0.2986 -0.3912
  718MOL0     N96847   8.262   3.946   0.333 -0.3984 -0.8113 -0.2519
  718MOL0     C96848   8.575   3.949   1.246 -0.3024 -0.0335  0.3218
  718MOL0     C96849   8.537   3.926   1.380 -0.1223  0.0792  0.7436
  718MOL0     C96850   8.543   3.773   1.822 -0.0334  0.0241 -0.6066
  718MOL0     C96851   8.415   3.710   1.831 -0.0727 -0.3113  0.7480
  718MOL0     C96852   8.362   3.670   1.947 -0.2577  0.6562  0.2547
  718MOL0     C96853   8.435   3.691   2.060  0.1503  0.7155  0.1770
  718MOL0     O96854   8.386   3.670   2.187 -0.3482  0.0402 -0.3031
  718MOL0     C96855   8.297   3.561   2.215  0.4249 -1.0693 -0.2408
  718MOL0     C96856   8.371   3.433   2.224  0.4746  0.2481  0.2514
  718MOL0     C96857   8.470   3.435   2.341  0.3063  0.0335 -0.5272
  718MOL0     C96858   8.568   3.329   2.352 -0.4292 -0.6619  0.3454
  718MOL0     C96859   8.618   3.297   2.485 -0.4980  0.1375  0.6690
  718MOL0     C96860   8.658   3.246   2.588 -0.0917 -0.4704  0.7376
  718MOL0     C96861   8.555   3.757   2.056 -0.2991  0.3235 -0.1559
  718MOL0     C96862   8.618   3.789   1.941  1.0343  0.3261  0.5907
  718MOL0     H96863   8.637   3.614   1.434 -0.1282 -3.1729 -4.2257
  718MOL0     H96864   8.722   3.652   1.184 -0.5366 -0.0287 -0.5077
  718MOL0     H96865   8.848   3.776   1.008 -0.1591  0.4663  0.6600
  718MOL0     H96866   8.703   3.698   0.957  2.3410 -0.2396  0.6740
  718MOL0     H96867   8.833   3.944   0.831  1.2724 -0.0594 -2.1417
  718MOL0     H96868   8.802   3.783   0.756  1.2298  0.7739  1.1527
  718MOL0     H96869   8.625   4.010   0.839  0.7544 -0.1437  1.2754
  718MOL0     H96870   8.660   3.952   0.675 -0.1829 -3.2750 -0.1906
  718MOL0     H96871   8.541   3.736   0.715 -1.6908 -2.2225  2.4079
  718MOL0     H96872   8.497   3.799   0.874  2.0258  0.3499  0.9353
  718MOL0     H96873   8.386   3.992   0.762 -0.5257  0.0023 -1.0478
  718MOL0     H96874   8.426   3.910   0.607  0.1913 -2.0804  0.7794
  718MOL0     H96875   8.265   3.716   0.675 -0.5703  0.6631 -0.4895
  718MOL0     H96876   8.232   3.810   0.812 -1.3573 -2.1393 -0.8236
  718MOL0     H96877   8.047   3.907   0.684  0.9048  1.7655  0.7839
  718MOL0     H96878   8.168   4.005   0.623 -6.1775  1.5088  0.8982
  718MOL0     H96879   8.017   3.914   0.461 -2.0580  0.7033  2.5181
  718MOL0     H96880   8.049   3.747   0.501  0.1452  0.9559 -0.8322
  718MOL0     H96881   8.305   3.642   0.412  2.1557  0.4693  2.6479
  718MOL0     H96882   8.462   3.632   0.174  4.2600 -0.7125 -1.8640
  718MOL0     H96883   8.555   3.774   0.160  2.5904 -0.4000  0.6224
  718MOL0     H96884   8.673   3.595   0.272 -0.9642 -0.3748 -0.5070
  718MOL0     H96885   8.546   3.585   0.392 -0.6454  0.3491 -0.0952
  718MOL0     H96886   8.717   3.690   0.504 -2.3040 -0.1602  1.2681
  718MOL0     H96887   8.633   3.837   0.448  2.1678  1.4257 -0.9578
  718MOL0     H96888   8.778   3.881   0.274 -0.6679 -0.1463  1.5255
  718MOL0     H96889   8.858   3.727   0.284  0.9834 -1.7829  1.9689
  718MOL0     H96890   8.979   3.954   0.657 -3.9378 -0.5249 -0.6438
  718MOL0     H96891   9.126   3.800   0.942  2.4982  1.0189 -0.1802
  718MOL0     H96892   9.223   3.917   0.852  0.1328  0.5803 -0.1575
  718MOL0     H96893   9.050   3.949   0.871 -3.0958 -2.2929 -0.7419
  718MOL0     H96894   9.521   3.497   0.819  2.2346 -0.4648  1.1500
  718MOL0     H96895   9.653   3.348   0.981 -0.4455 -1.3150  1.6950
  718MOL0     H96896   9.557   3.371   1.417  0.3468 -0.8192  0.1709
  718MOL0     H96897   9.499   3.211   1.349  1.5265 -2.0985  0.1894
  718MOL0     H96898   9.650   3.149   1.496  1.8201  1.4328  0.7491
  718MOL0     H96899   9.718   3.132   1.343  2.9214 -1.7831  1.8383
  718MOL0     H96900   9.761   3.383   1.525  1.2176  2.3080 -1.2396
  718MOL0     H96901   9.829   3.358   1.367  0.1822  1.3183  1.2036
  718MOL0     H96902   9.894   3.187   1.621 -1.6547 -1.4824 -0.9626
  718MOL0     H96903   9.922   3.144   1.441  1.9782 -0.1776  0.2482
  718MOL0     H96904  10.074   3.354   1.435 -0.7666  0.0376 -0.6499
  718MOL0     H96905  10.128   3.248   1.568  0.0051 -1.2418 -0.7500
  718MOL0     H96906   9.946   3.487   1.597  0.4660  0.2497 -0.6342
  718MOL0     H96907   9.991   3.368   1.723 -0.4447 -3.6704 -3.1585
  718MOL0     H96908  10.201   3.499   1.557 -0.0380 -0.9382 -0.2817
  718MOL0     H96909  10.227   3.425   1.715 -1.3760  2.3884  5.2180
  718MOL0     H96910  10.102   3.697   1.671 -1.9759  0.0094  1.0133
  718MOL0     H96911  10.249   3.660   1.757 -0.6149  2.5697  2.2668
  718MOL0     H96912   9.392   3.477   1.296  0.8834 -0.6249  0.5777
  718MOL0     H96913   9.284   3.640   1.150  1.4489 -1.0147  2.6423
  718MOL0     H96914   9.125   3.488   0.584  0.6800 -0.7624 -0.3877
  718MOL0     H96915   9.005   3.620   0.395 -3.4184  2.3151 -0.2257
  718MOL0     H96916   8.535   4.038   1.199 -1.9716 -1.2780 -0.7210
  718MOL0     H96917   8.481   4.004   1.432  2.1985  0.7508  2.4043
  718MOL0     H96918   8.362   3.689   1.738 -0.6660  0.4493  0.9131
  718MOL0     H96919   8.255   3.650   1.958 -0.3309  0.0366 -1.2812
  718MOL0     H96920   8.238   3.580   2.305  0.3729  1.9825 -0.8062
  718MOL0     H96921   8.216   3.551   2.143  1.1149  0.0670 -1.2179
  718MOL0     H96922   8.428   3.404   2.136 -3.9909  0.2571 -3.0058
  718MOL0     H96923   8.311   3.350   2.263 -0.1371  0.9944  0.9454
  718MOL0     H96924   8.407   3.433   2.430 -1.7796 -1.0102 -1.9569
  718MOL0     H96925   8.522   3.532   2.340  0.8727 -0.2596 -1.9623
  718MOL0     H96926   8.655   3.361   2.293  1.3433 -3.5154  1.1906
  718MOL0     H96927   8.521   3.236   2.317  1.4565 -3.1280  3.7289
  718MOL0     H96928   8.710   3.201   2.670  0.3276  1.3830  1.5379
  718MOL0     H96929   8.613   3.749   2.147 -1.2141 -2.8871  0.2892
  718MOL0     H96930   8.716   3.836   1.930 -0.3098  3.2444  0.1817
  719MOL0     O96931   4.440   5.991   5.544  0.1806 -0.1158 -0.5409
  719MOL0     C96932   4.552   5.966   5.598  0.5113 -0.0711  0.8794
  719MOL0     O96933   4.622   5.857   5.566 -0.3159 -0.5829  0.1316
  719MOL0     C96934   4.560   5.753   5.496 -0.3191  0.1446  0.3788
  719MOL0     C96935   4.636   5.693   5.397  0.1289 -0.8789  0.9356
  719MOL0     C96936   4.595   5.569   5.332 -0.8605  0.0815  0.3906
  719MOL0     C96937   4.464   5.532   5.355 -0.1743  0.5401  0.4754
  719MOL0     O96938   4.401   5.427   5.302 -0.2627  0.2495  0.2259
  719MOL0     C96939   4.441   5.378   5.172  0.2243 -0.2530 -0.4434
  719MOL0     C96940   4.308   5.322   5.120 -0.3682  0.1903 -0.2124
  719MOL0     C96941   4.267   5.189   5.179 -0.3571  0.4553 -0.0021
  719MOL0     C96942   4.127   5.150   5.128  0.2071 -0.0706  0.2153
  719MOL0     C96943   4.130   5.115   4.981  0.0179  0.8802  0.2885
  719MOL0     C96944   3.998   5.087   4.917  0.8814  0.8982  0.6715
  719MOL0     C96945   3.974   4.935   4.904  0.4415 -0.9010  0.6442
  719MOL0     C96946   3.823   4.907   4.899  0.7938 -0.3476 -0.0190
  719MOL0     N96947   3.797   4.770   4.844  0.4732  0.4558  0.7433
  719MOL0     C96948   3.737   4.667   4.919 -0.0179 -0.1767  0.4466
  719MOL0     C96949   3.720   4.566   4.828  0.3349 -0.1351  0.9285
  719MOL0     C96950   3.680   4.421   4.858  0.2771  0.8969  0.7084
  719MOL0     C96951   3.808   4.335   4.855 -0.2925 -0.3921 -0.0591
  719MOL0     C96952   3.799   4.201   4.935 -0.2663  0.3484 -0.3220
  719MOL0     C96953   3.915   4.114   4.896 -0.5312  0.3337 -0.1614
  719MOL0     O96954   3.895   4.059   4.761 -0.5110  1.4041  0.0380
  719MOL0     C96955   3.841   3.932   4.746  0.2830 -0.8595 -1.0514
  719MOL0     C96956   3.877   3.864   4.626 -0.0809 -0.5444 -0.4320
  719MOL0     C96957   3.811   3.743   4.596  0.3615 -0.0448  0.1465
  719MOL0     C96958   3.833   3.673   4.463  0.4819 -0.0931 -0.0586
  719MOL0     C96959   3.724   3.691   4.695  0.5596  1.0500  0.7910
  719MOL0     C96960   3.642   3.577   4.667  0.0403  0.0840 -0.0108
  719MOL0     O96961   3.566   3.566   4.557  0.6537 -0.9732 -0.4293
  719MOL0     C96962   3.472   3.466   4.552 -0.0513 -0.1838  0.0983
  719MOL0     C96963   3.351   3.465   4.618  0.4952 -0.3011 -0.4355
  719MOL0     C96964   3.260   3.362   4.586 -0.5532  0.2091 -0.2679
  719MOL0     C96965   3.292   3.250   4.506 -0.5239  0.6406 -0.3407
  719MOL0     O96966   3.195   3.161   4.474 -0.0865 -0.9001  0.0713
  719MOL0     C96967   3.241   3.029   4.464  0.1940  1.1155  0.3126
  719MOL0     C96968   3.143   2.930   4.510 -1.0355 -0.2981 -0.4512
  719MOL0     C96969   3.025   2.929   4.416 -0.5911  0.2314  0.4137
  719MOL0     C96970   2.914   2.825   4.456 -1.1600  0.2570 -0.8706
  719MOL0     C96971   2.783   2.868   4.380  0.7285 -0.0955 -0.5722
  719MOL0     C96972   2.669   2.768   4.405  0.2118  0.8017  0.2605
  719MOL0     C96973   2.532   2.814   4.356  0.4234 -0.8291  0.2636
  719MOL0     C96974   2.407   2.765   4.429 -0.2197 -0.1040 -0.2588
  719MOL0    Cl96975   2.266   2.841   4.350  0.4017  0.2793  0.3717
  719MOL0     C96976   3.426   3.244   4.454 -0.2199 -0.1492 -0.1125
  719MOL0     C96977   3.513   3.359   4.470  0.2461 -0.1591  1.0265
  719MOL0     O96978   3.634   3.497   4.758 -0.5781  0.2161  0.1759
  719MOL0     C96979   3.706   3.759   4.816 -0.3988  0.8305  0.9244
  719MOL0     C96980   3.764   3.874   4.847 -0.0643 -0.1658  0.3892
  719MOL0     N96981   3.764   4.617   4.704 -0.1383  0.7002 -0.6731
  719MOL0     N96982   3.800   4.745   4.711  0.0837  0.2954  0.2277
  719MOL0     C96983   4.387   5.599   5.450 -0.0617 -0.0730 -0.5084
  719MOL0     C96984   4.437   5.701   5.529  0.5134 -0.1191  0.9599
  719MOL0     C96985   4.611   6.057   5.698  0.6719  1.3047 -0.5052
  719MOL0     C96986   4.724   6.027   5.774  0.8283 -0.4107  0.0217
  719MOL0     C96987   4.756   6.108   5.884 -0.4856  0.6531 -0.9157
  719MOL0     C96988   4.676   6.212   5.927  0.2754 -0.4929  0.5768
  719MOL0     O96989   4.715   6.282   6.036 -0.5809 -0.1595  0.7465
  719MOL0     C96990   4.636   6.400   6.074  0.3916  0.5321  0.2277
  719MOL0     C96991   4.734   6.501   6.140  0.3643 -0.0201 -0.7972
  719MOL0     C96992   4.862   6.529   6.053 -0.1018  0.8945 -0.6344
  719MOL0     C96993   4.984   6.441   6.095 -0.9342  0.5403  0.2657
  719MOL0     C96994   5.035   6.495   6.227  0.9257  0.2578 -0.8226
  719MOL0     C96995   5.063   6.555   6.332 -0.6057 -0.6663  0.0329
  719MOL0     C96996   4.558   6.237   5.855  0.2982  0.5699 -1.8049
  719MOL0     C96997   4.526   6.156   5.742  0.7195 -0.6957 -0.7967
  719MOL0     H96998   4.733   5.739   5.380  0.0139 -0.4219  1.4893
  719MOL0     H96999   4.650   5.521   5.251  0.6017  0.7369  0.9656
  719MOL0     H97000   4.475   5.461   5.110 -0.3211  1.2384  1.1499
  719MOL0     H97001   4.524   5.307   5.180  1.2250  1.0362  1.9098
  719MOL0     H97002   4.230   5.397   5.136  2.3053  3.8917 -2.7213
  719MOL0     H97003   4.314   5.312   5.011  0.4055  1.8408 -0.3614
  719MOL0     H97004   4.343   5.112   5.166 -1.7645 -0.7942 -1.1323
  719MOL0     H97005   4.255   5.186   5.288  0.0666  3.5623  0.2349
  719MOL0     H97006   4.093   5.071   5.195 -1.1205  1.7899  1.8365
  719MOL0     H97007   4.050   5.227   5.142  1.3600  0.4979  5.1591
  719MOL0     H97008   4.166   5.203   4.928  1.3856 -0.0890 -0.4621
  719MOL0     H97009   4.206   5.039   4.958  1.1137  2.0434 -0.0076
  719MOL0     H97010   3.918   5.141   4.969  0.9821  0.8624  0.8625
  719MOL0     H97011   3.988   5.127   4.816  1.4065 -0.8407 -0.1186
  719MOL0     H97012   4.018   4.898   4.811 -3.3225 -1.0531 -1.2777
  719MOL0     H97013   4.010   4.880   4.991  0.8028 -3.6872 -1.1414
  719MOL0     H97014   3.767   4.989   4.852  2.1243  0.7692  0.2938
  719MOL0     H97015   3.781   4.906   5.000 -1.6706  2.2249 -0.8740
  719MOL0     H97016   3.729   4.674   5.027  1.5091  1.8143  0.4793
  719MOL0     H97017   3.636   4.413   4.958 -2.3656 -0.6986 -0.4823
  719MOL0     H97018   3.609   4.376   4.789  0.8634 -2.7064  2.2149
  719MOL0     H97019   3.889   4.397   4.894 -0.3115 -0.6642  0.4275
  719MOL0     H97020   3.841   4.321   4.752  1.9350  1.6615  0.2702
  719MOL0     H97021   3.702   4.151   4.929 -2.1254  3.1963  2.5301
  719MOL0     H97022   3.809   4.239   5.037 -0.9842  1.8519 -0.7848
  719MOL0     H97023   3.938   4.035   4.967 -1.0884 -0.5224 -0.9111
  719MOL0     H97024   4.009   4.170   4.890  0.2430 -1.0596 -1.7611
  719MOL0     H97025   3.945   3.911   4.555  2.6170 -1.2290  1.5321
  719MOL0     H97026   3.850   3.565   4.471  0.5108 -0.1971 -1.3118
  719MOL0     H97027   3.747   3.693   4.397 -2.1353 -3.7756  1.8612
  719MOL0     H97028   3.925   3.707   4.416  0.1305  1.5886  0.4177
  719MOL0     H97029   3.324   3.552   4.677  0.4276 -0.9475  0.5072
  719MOL0     H97030   3.152   3.374   4.590 -0.6603 -0.9545  1.1292
  719MOL0     H97031   3.268   3.013   4.359 -1.3774 -2.7497  0.3477
  719MOL0     H97032   3.322   3.009   4.535  0.9214  1.2696 -0.4482
  719MOL0     H97033   3.187   2.831   4.524 -1.1829 -0.0890  1.7840
  719MOL0     H97034   3.121   2.958   4.613  1.4149 -1.2129  0.3927
  719MOL0     H97035   3.058   2.899   4.316 -1.3052 -0.9674  0.5138
  719MOL0     H97036   2.996   3.034   4.408  2.9911  1.4124  1.0717
  719MOL0     H97037   2.948   2.729   4.416  3.1406  1.2938 -0.2647
  719MOL0     H97038   2.895   2.812   4.562 -1.5333 -0.0304 -0.9727
  719MOL0     H97039   2.802   2.872   4.272  0.8356 -2.9886 -0.7494
  719MOL0     H97040   2.745   2.963   4.417 -0.7412 -0.2020 -1.7297
  719MOL0     H97041   2.689   2.666   4.373 -2.1319  0.3125  0.2327
  719MOL0     H97042   2.663   2.764   4.514  1.0632  0.2858  0.2985
  719MOL0     H97043   2.522   2.792   4.249 -0.8002  0.2320  0.1404
  719MOL0     H97044   2.533   2.920   4.381 -3.9211 -0.9581  1.7167
  719MOL0     H97045   2.417   2.789   4.536  1.3921  3.2991 -1.0338
  719MOL0     H97046   2.394   2.657   4.418  2.5256 -0.3387 -2.1914
  719MOL0     H97047   3.448   3.163   4.385 -0.8772 -0.9553  0.6110
  719MOL0     H97048   3.605   3.352   4.412 -0.2907  0.1465  0.1078
  719MOL0     H97049   3.651   3.711   4.897  0.5883 -1.6840  0.1960
  719MOL0     H97050   3.734   3.921   4.940 -2.5955  0.8037 -0.8390
  719MOL0     H97051   4.281   5.578   5.452 -0.9069  3.3531  2.6138
  719MOL0     H97052   4.376   5.751   5.603  0.1849  0.0440  0.5818
  719MOL0     H97053   4.791   5.942   5.762  0.1678 -0.8424 -0.7644
  719MOL0     H97054   4.849   6.093   5.938 -1.5366 -3.6811  0.0353
  719MOL0     H97055   4.595   6.455   5.989  1.8159  0.9404 -0.2279
  719MOL0     H97056   4.556   6.362   6.138  0.2371 -0.7734 -0.7147
  719MOL0     H97057   4.770   6.455   6.232  1.1411 -0.6680 -1.4002
  719MOL0     H97058   4.681   6.593   6.165 -1.7911 -1.5964  0.7668
  719MOL0     H97059   4.894   6.633   6.057  2.9333  0.1301  4.1687
  719MOL0     H97060   4.839   6.503   5.949  1.9226 -1.4713 -0.5844
  719MOL0     H97061   5.066   6.434   6.024  0.1204 -0.3591  1.5032
  719MOL0     H97062   4.960   6.334   6.099  1.0843 -0.5676 -6.4378
  719MOL0     H97063   5.077   6.616   6.418 -1.0307  1.1810 -1.1516
  719MOL0     H97064   4.488   6.310   5.894  1.5928  0.6029  0.6894
  719MOL0     H97065   4.426   6.176   5.704  0.8755  0.1620 -0.7883
  720MOL0     O97066   6.360  10.559   9.712  0.6027 -0.4115 -0.7203
  720MOL0     C97067   6.479  10.598   9.714  0.5737  0.1545  0.6963
  720MOL0     O97068   6.538  10.704   9.644 -1.0714  0.6408  0.2322
  720MOL0     C97069   6.488  10.767   9.542  0.4884  0.0610  0.3185
  720MOL0     C97070   6.492  10.903   9.537 -0.1356  0.2302  0.2585
  720MOL0     C97071   6.434  10.980   9.436 -0.2374 -0.1783 -0.9530
  720MOL0     C97072   6.380  10.906   9.327 -0.0565 -0.9503  0.1714
  720MOL0     O97073   6.324  10.977   9.227  0.1057 -0.1145  0.2695
  720MOL0     C97074   6.300  10.916   9.099 -0.1920 -0.1331 -0.1166
  720MOL0     C97075   6.252  10.993   8.977 -0.4367 -1.4630 -0.0709
  720MOL0     C97076   6.147  11.106   9.018  0.2719  0.9408  0.2325
  720MOL0     C97077   6.108  11.169   8.886  0.2018 -0.5097 -0.2528
  720MOL0     C97078   5.969  11.232   8.891 -0.7581 -0.6083 -0.2689
  720MOL0     C97079   5.945  11.327   9.006  0.6351 -0.5243  0.1462
  720MOL0     C97080   6.015  11.467   8.979  1.2920  0.7588 -0.4255
  720MOL0     C97081   5.950  11.582   9.058  0.3987  0.4984 -0.0967
  720MOL0     N97082   5.957  11.710   8.985 -0.1333 -0.5101  0.8032
  720MOL0     C97083   5.917  11.830   9.046  0.5445 -0.0514 -0.1970
  720MOL0     C97084   5.974  11.930   8.974  0.2709  0.2765 -0.4612
  720MOL0     C97085   5.977  12.080   9.001  0.1065  0.5144 -0.3265
  720MOL0     C97086   5.871  12.169   8.932  0.2779 -0.8960 -0.0055
  720MOL0     C97087   5.909  12.306   8.980  0.2604 -0.4783 -0.3581
  720MOL0     C97088   5.787  12.395   8.950 -0.1984 -0.3596  0.1369
  720MOL0     O97089   5.667  12.369   9.020 -0.1816 -0.6896  0.2062
  720MOL0     C97090   5.560  12.451   8.984  0.6905  0.0900 -0.9298
  720MOL0     C97091   5.435  12.420   9.032  0.6089  0.0767 -0.6815
  720MOL0     C97092   5.324  12.492   9.001  0.9727  0.1561 -0.5436
  720MOL0     C97093   5.185  12.427   9.035 -0.6201 -0.6211  0.4601
  720MOL0     C97094   5.326  12.599   8.906 -0.1071  0.9087 -0.1003
  720MOL0     C97095   5.213  12.680   8.873 -0.2653 -0.2629  0.2031
  720MOL0     O97096   5.222  12.730   8.752  0.5447 -0.5555  0.3390
  720MOL0     C97097   5.122  12.803   8.690  0.0654 -0.5562 -0.3979
  720MOL0     C97098   5.002  12.754   8.633 -0.1612 -0.3385 -0.5097
  720MOL0     C97099   4.912  12.837   8.570 -0.2773  0.1091  0.2645
  720MOL0     C97100   4.931  12.975   8.548 -0.4019  0.4837 -0.2515
  720MOL0     O97101   4.840  13.040   8.468  1.0992  0.9259 -0.6840
  720MOL0     C97102   4.895  13.158   8.402  0.5930  1.0328  0.3317
  720MOL0     C97103   4.823  13.189   8.260 -0.2075  0.2984  0.1165
  720MOL0     C97104   4.802  13.065   8.174  0.2864 -0.2746  0.1196
  720MOL0     C97105   4.762  13.109   8.038  0.3905 -1.0635 -0.2745
  720MOL0     C97106   4.766  13.002   7.924  0.0151  0.3864 -0.1073
  720MOL0     C97107   4.904  12.985   7.867 -0.0144 -0.1585  0.0003
  720MOL0     C97108   4.895  12.881   7.759 -0.5609 -0.2294  0.9586
  720MOL0     C97109   5.036  12.841   7.729  0.5667  0.0816 -0.2762
  720MOL0    Cl97110   5.019  12.704   7.600 -0.3627  0.1476  0.0953
  720MOL0     C97111   5.053  13.028   8.610  0.4601 -0.5439 -0.0694
  720MOL0     C97112   5.147  12.943   8.676 -0.6705  0.2894  0.4864
  720MOL0     O97113   5.121  12.695   8.952  0.2469 -0.6931  0.3230
  720MOL0     C97114   5.444  12.620   8.833 -0.3853  0.0945 -0.5868
  720MOL0     C97115   5.565  12.541   8.870  0.2846 -0.3792 -0.1783
  720MOL0     N97116   6.039  11.866   8.868  0.5730 -0.3337  0.2306
  720MOL0     N97117   6.030  11.741   8.876  0.3925  0.3093 -0.4701
  720MOL0     C97118   6.381  10.769   9.326 -0.0999  0.6852 -0.1601
  720MOL0     C97119   6.434  10.698   9.434  0.0349 -0.6801  0.3747
  720MOL0     C97120   6.580  10.510   9.782 -0.6012  0.9797  0.3680
  720MOL0     C97121   6.537  10.398   9.856  0.8295 -0.3175 -0.3400
  720MOL0     C97122   6.629  10.333   9.923  0.2991  0.6273 -1.0480
  720MOL0     C97123   6.762  10.352   9.908 -0.8800  0.7716 -0.5165
  720MOL0     O97124   6.853  10.259   9.964 -0.1258 -0.5563  0.4239
  720MOL0     C97125   6.835  10.232  10.104 -0.3538  0.2835  0.1856
  720MOL0     C97126   6.944  10.307  10.177  0.3851 -0.1246 -0.3256
  720MOL0     C97127   6.971  10.247  10.317  0.4162  1.1229  0.2595
  720MOL0     C97128   7.052  10.335  10.409  1.2431 -0.8177 -0.5557
  720MOL0     C97129   7.011  10.314  10.546  0.7635  0.0637 -0.5180
  720MOL0     C97130   6.970  10.281  10.658 -0.9422 -0.1448  0.7820
  720MOL0     C97131   6.804  10.457   9.828  0.3814 -1.0364 -0.8568
  720MOL0     C97132   6.717  10.542   9.771  0.4130 -1.0256  0.1595
  720MOL0     H97133   6.525  10.941   9.633  0.3121 -0.4517  0.3857
  720MOL0     H97134   6.433  11.088   9.440  1.6017 -0.1076  3.8063
  720MOL0     H97135   6.398  10.882   9.064  0.8691 -0.4787  2.9010
  720MOL0     H97136   6.226  10.836   9.113  0.9318 -0.8764  2.0788
  720MOL0     H97137   6.335  11.042   8.925 -1.4243 -1.4881 -1.7653
  720MOL0     H97138   6.218  10.920   8.903  1.2214 -1.7776 -0.5680
  720MOL0     H97139   6.065  11.051   9.066  0.7580 -0.3017 -0.3011
  720MOL0     H97140   6.174  11.191   9.082  0.7439  1.6503 -0.8899
  720MOL0     H97141   6.193  11.234   8.863 -1.8532  3.1063  1.5342
  720MOL0     H97142   6.107  11.093   8.807  0.0469 -1.4242  0.5965
  720MOL0     H97143   5.959  11.281   8.794  2.5983  0.0364 -0.4011
  720MOL0     H97144   5.902  11.146   8.898  0.4933 -1.8175 -2.1862
  720MOL0     H97145   5.838  11.347   9.014  1.0531  1.7180  0.9855
  720MOL0     H97146   5.975  11.275   9.097  1.8848  2.5875  1.6617
  720MOL0     H97147   6.120  11.473   9.010  0.8656  1.0500  1.0095
  720MOL0     H97148   5.997  11.492   8.874  0.4517 -0.5144 -0.5937
  720MOL0     H97149   6.000  11.601   9.153 -0.2423  5.6259 -0.4912
  720MOL0     H97150   5.845  11.554   9.066  0.9395 -1.2376  1.6974
  720MOL0     H97151   5.858  11.838   9.137  1.3928 -0.6939  0.4256
  720MOL0     H97152   5.959  12.099   9.108 -0.1433  3.8652 -0.8536
  720MOL0     H97153   6.078  12.114   8.978  0.6695  1.2741  2.7400
  720MOL0     H97154   5.771  12.144   8.966 -0.2846  1.7504  0.4954
  720MOL0     H97155   5.894  12.165   8.825  1.5345  3.3995 -0.1047
  720MOL0     H97156   5.986  12.353   8.918  1.8725  0.7365  2.3783
  720MOL0     H97157   5.923  12.302   9.088 -0.6159 -1.1808 -0.2629
  720MOL0     H97158   5.775  12.390   8.842  4.6741 -0.0482 -0.6461
  720MOL0     H97159   5.818  12.497   8.976  2.1870 -0.6298 -1.2875
  720MOL0     H97160   5.417  12.327   9.086 -3.1742 -0.1679 -2.0539
  720MOL0     H97161   5.112  12.438   8.954  0.8576 -1.6787 -1.0756
  720MOL0     H97162   5.213  12.323   9.054  3.7694  0.1231 -0.7493
  720MOL0     H97163   5.151  12.468   9.130  1.6846 -1.2591  1.6470
  720MOL0     H97164   4.985  12.646   8.637 -0.3616 -0.3054 -0.4639
  720MOL0     H97165   4.832  12.789   8.515 -1.0339 -0.0531  1.4647
  720MOL0     H97166   4.891  13.235   8.479 -0.3727  0.7710  0.5617
  720MOL0     H97167   5.000  13.134   8.384 -0.0861 -2.3211  0.1430
  720MOL0     H97168   4.724  13.228   8.283 -1.3437 -2.5568  0.4305
  720MOL0     H97169   4.887  13.257   8.202  1.8449 -1.8036 -0.2466
  720MOL0     H97170   4.726  13.000   8.218  2.0630 -0.1336  3.7855
  720MOL0     H97171   4.896  13.011   8.159  1.1988  1.5583 -1.1553
  720MOL0     H97172   4.663  13.155   8.047  1.0899  0.6565 -0.9495
  720MOL0     H97173   4.817  13.200   8.012 -1.7615  1.1824  2.3354
  720MOL0     H97174   4.704  13.046   7.845  2.3597  2.2252 -1.0655
  720MOL0     H97175   4.732  12.902   7.953  1.4436  0.0972  0.6803
  720MOL0     H97176   4.937  13.083   7.831 -5.2063  2.4357  1.2785
  720MOL0     H97177   4.975  12.950   7.942 -0.1156  1.2096  0.7564
  720MOL0     H97178   4.858  12.931   7.669  0.1741 -2.9226 -0.9626
  720MOL0     H97179   4.829  12.797   7.782  2.0022 -1.7041  3.6311
  720MOL0     H97180   5.096  12.798   7.810  0.6337 -1.3504 -1.0384
  720MOL0     H97181   5.100  12.917   7.685  2.0539 -2.2488 -2.4357
  720MOL0     H97182   5.080  13.133   8.602 -1.4977  0.2530  2.3967
  720MOL0     H97183   5.237  12.989   8.715  0.7260 -0.6285 -1.4777
  720MOL0     H97184   5.450  12.682   8.744 -1.1434 -0.3779 -0.9891
  720MOL0     H97185   5.656  12.556   8.812 -0.6234  1.1650 -1.2707
  720MOL0     H97186   6.358  10.707   9.239 -0.8381 -0.1550  0.6093
  720MOL0     H97187   6.436  10.590   9.430  1.0729 -0.6625 -3.0525
  720MOL0     H97188   6.431  10.375   9.862  1.2100 -1.6606  2.4408
  720MOL0     H97189   6.598  10.241   9.971 -1.4848  2.2576  1.2156
  720MOL0     H97190   6.738  10.259  10.145 -0.5283  0.2561 -0.2042
  720MOL0     H97191   6.848  10.125  10.120 -0.3150  0.1222 -0.8329
  720MOL0     H97192   6.926  10.414  10.191  2.2436  0.1959 -0.0838
  720MOL0     H97193   7.034  10.289  10.118 -0.7642  0.1298 -2.2209
  720MOL0     H97194   7.031  10.156  10.312 -0.6287  0.4770 -2.2884
  720MOL0     H97195   6.876  10.227  10.367  1.5607 -0.5202  1.8914
  720MOL0     H97196   7.039  10.438  10.374 -0.0823 -0.7169  0.1746
  720MOL0     H97197   7.156  10.304  10.420  1.6513  0.5624 -0.3767
  720MOL0     H97198   6.947  10.272  10.762 -1.3970  1.4473  0.8357
  720MOL0     H97199   6.911  10.473   9.818  0.1460  1.6107  0.0101
  720MOL0     H97200   6.753  10.613   9.697 -0.4046 -0.6997  0.0622
  721MOL0     O97201   5.159   5.503  10.032  0.4589 -0.1564  0.0909
  721MOL0     C97202   5.197   5.519  10.148 -0.0675  0.2322 -0.6188
  721MOL0     O97203   5.320   5.511  10.198 -1.0172 -0.0728  0.4459
  721MOL0     C97204   5.417   5.476  10.107  0.5196  0.3163  0.3636
  721MOL0     C97205   5.449   5.565  10.005 -0.4472  0.6495  0.6373
  721MOL0     C97206   5.562   5.545   9.922 -0.3566 -0.9217  0.2457
  721MOL0     C97207   5.625   5.428   9.922 -1.1075 -0.5317 -0.4206
  721MOL0     O97208   5.731   5.402   9.843 -0.6188 -0.6526  1.1433
  721MOL0     C97209   5.710   5.432   9.708 -0.7040 -0.5398 -0.5386
  721MOL0     C97210   5.800   5.352   9.611  0.0334  0.4518 -0.9160
  721MOL0     C97211   5.749   5.346   9.462 -0.2789 -0.2224 -0.4266
  721MOL0     C97212   5.635   5.250   9.443 -0.4023 -0.8746  0.1508
  721MOL0     C97213   5.582   5.270   9.298  0.3792  0.2079 -1.1444
  721MOL0     C97214   5.467   5.165   9.270 -0.3309 -0.6293  0.5603
  721MOL0     C97215   5.338   5.198   9.341 -1.2494 -0.5963 -0.0300
  721MOL0     C97216   5.216   5.157   9.263 -0.2481  1.0298 -0.5893
  721MOL0     N97217   5.101   5.167   9.345  0.3247  0.4989  0.3879
  721MOL0     C97218   5.068   5.292   9.392  0.7672 -0.1724 -0.0352
  721MOL0     C97219   4.946   5.273   9.451 -0.3707 -0.9060 -1.0844
  721MOL0     C97220   4.861   5.374   9.524  0.2781 -0.1816 -0.4012
  721MOL0     C97221   4.932   5.447   9.639 -0.4761 -0.2788  0.2544
  721MOL0     C97222   4.833   5.546   9.709 -0.1601 -0.0436 -0.1985
  721MOL0     C97223   4.904   5.621   9.815 -0.5926  0.7842  0.9799
  721MOL0     O97224   4.838   5.739   9.857  0.5327 -0.2160 -0.0207
  721MOL0     C97225   4.878   5.867   9.813 -0.0045  0.0278  0.3241
  721MOL0     C97226   4.938   5.897   9.684 -0.0942  0.1492  0.8253
  721MOL0     C97227   4.960   6.032   9.648 -0.6854  0.5961  0.6861
  721MOL0     C97228   5.015   6.046   9.506 -0.2229  0.2188  0.4273
  721MOL0     C97229   4.932   6.145   9.728 -0.7193  1.1032  0.5726
  721MOL0     C97230   4.970   6.282   9.695  0.1414  0.1089  1.0628
  721MOL0     O97231   4.993   6.353   9.803 -0.4065 -0.1737 -0.3869
  721MOL0     C97232   4.995   6.492   9.791 -0.3843  0.0007  0.0269
  721MOL0     C97233   5.082   6.547   9.878  0.3756  0.9086  0.3052
  721MOL0     C97234   5.100   6.691   9.887  0.3365 -0.3469 -0.4573
  721MOL0     C97235   5.019   6.775   9.815  0.0648  0.8731 -0.4760
  721MOL0     O97236   5.030   6.910   9.843  0.1792 -0.6383  0.7332
  721MOL0     C97237   4.897   6.972   9.824 -0.1457 -0.9144 -0.3583
  721MOL0     C97238   4.877   7.102   9.908 -0.4566  0.6844 -0.4487
  721MOL0     C97239   4.876   7.095  10.063  0.6328 -0.5243  0.1340
  721MOL0     C97240   4.778   7.000  10.137  0.5329 -0.2276  0.3109
  721MOL0     C97241   4.736   7.060  10.281 -0.4847 -0.2825 -0.5575
  721MOL0     C97242   4.654   7.193  10.286  0.0893  0.0103 -0.2422
  721MOL0     C97243   4.534   7.198  10.180 -0.0124  0.5612 -0.1645
  721MOL0     C97244   4.485   7.338  10.160  0.4246  0.0657  0.6476
  721MOL0    Cl97245   4.611   7.474  10.120 -0.1629  0.5399 -0.5834
  721MOL0     C97246   4.925   6.716   9.721 -0.1615  0.5641 -0.3636
  721MOL0     C97247   4.917   6.578   9.712  0.3858 -0.4430  0.1899
  721MOL0     O97248   4.993   6.314   9.577  0.1657 -0.0515  0.3473
  721MOL0     C97249   4.880   6.106   9.858  0.4370 -0.4814  0.9271
  721MOL0     C97250   4.846   5.976   9.898 -0.8958  0.7542 -0.0538
  721MOL0     N97251   4.916   5.140   9.460 -0.5947  0.3589 -0.0365
  721MOL0     N97252   5.009   5.074   9.391 -0.0419 -0.9254 -0.7633
  721MOL0     C97253   5.593   5.336  10.022  0.5340 -0.9828 -1.0137
  721MOL0     C97254   5.492   5.358  10.117 -0.5438 -0.5620  0.8879
  721MOL0     C97255   5.099   5.558  10.247 -0.3471 -0.0377  0.0831
  721MOL0     C97256   5.126   5.543  10.381 -0.7457  0.7457  1.5206
  721MOL0     C97257   5.032   5.568  10.476  0.2845 -0.2514  0.6752
  721MOL0     C97258   4.898   5.607  10.441 -0.2149 -0.2214  0.0887
  721MOL0     O97259   4.817   5.623  10.546  0.5844 -0.0048  0.1390
  721MOL0     C97260   4.686   5.682  10.523 -0.4033  0.2927 -0.3108
  721MOL0     C97261   4.590   5.678  10.647 -0.9858 -1.0415 -0.4129
  721MOL0     C97262   4.641   5.762  10.761 -0.1515  0.0538 -0.0630
  721MOL0     C97263   4.583   5.904  10.771  0.2251 -0.2322  1.0245
  721MOL0     C97264   4.641   5.968  10.889 -0.5348 -0.5125  0.5757
  721MOL0     C97265   4.680   6.023  10.989  0.4581 -0.1355 -0.0695
  721MOL0     C97266   4.872   5.635  10.295  0.5681 -1.1979 -0.4642
  721MOL0     C97267   4.978   5.610  10.205  0.3410 -0.3702  0.4131
  721MOL0     H97268   5.390   5.655  10.003  0.1400  1.1510  3.0405
  721MOL0     H97269   5.577   5.632   9.859 -1.9844  0.2117  1.3678
  721MOL0     H97270   5.611   5.405   9.670 -0.0184 -1.6846 -1.6216
  721MOL0     H97271   5.726   5.538   9.687 -0.1464 -0.5086  0.0213
  721MOL0     H97272   5.895   5.404   9.626 -0.6677  1.8048 -1.0088
  721MOL0     H97273   5.804   5.247   9.641  1.9251  0.5083 -0.8707
  721MOL0     H97274   5.732   5.451   9.436 -0.0420  0.3095  1.4286
  721MOL0     H97275   5.827   5.317   9.391  0.2256 -1.1527  0.4698
  721MOL0     H97276   5.656   5.145   9.469 -1.8947 -1.8535 -2.2970
  721MOL0     H97277   5.555   5.282   9.511 -0.2782  2.7189 -1.1827
  721MOL0     H97278   5.527   5.363   9.279  2.5390  1.2829 -2.6055
  721MOL0     H97279   5.656   5.246   9.221 -1.2339  1.6902 -3.2739
  721MOL0     H97280   5.451   5.176   9.162 -1.0332  2.0039  0.8636
  721MOL0     H97281   5.501   5.065   9.298  0.1364 -0.4486  0.6475
  721MOL0     H97282   5.339   5.149   9.439  0.8096 -1.0867 -0.2339
  721MOL0     H97283   5.334   5.305   9.361 -0.2104 -0.1359 -1.9910
  721MOL0     H97284   5.224   5.052   9.235 -1.4822  0.6416  0.4358
  721MOL0     H97285   5.210   5.213   9.168 -0.2243  2.0206 -0.0213
  721MOL0     H97286   5.124   5.383   9.376 -0.5171  0.3713 -1.8146
  721MOL0     H97287   4.838   5.457   9.457 -1.7187  0.8273  1.3990
  721MOL0     H97288   4.771   5.317   9.549  0.3229  0.6451  1.8526
  721MOL0     H97289   5.026   5.496   9.609 -1.7272  1.8896 -0.3880
  721MOL0     H97290   4.959   5.373   9.714 -0.0004  2.4826  2.9896
  721MOL0     H97291   4.751   5.496   9.761  0.4079  0.7131  1.5034
  721MOL0     H97292   4.785   5.615   9.638 -3.5468 -1.1670  0.7860
  721MOL0     H97293   5.003   5.641   9.771  0.0533 -2.3855  0.7074
  721MOL0     H97294   4.936   5.570   9.906 -0.7621  2.3080  1.9268
  721MOL0     H97295   4.986   5.832   9.611 -0.3045  1.2625 -0.3445
  721MOL0     H97296   5.028   5.951   9.454 -1.5058  0.9809 -1.3856
  721MOL0     H97297   4.958   6.110   9.438 -0.2560 -2.0122 -1.7852
  721MOL0     H97298   5.120   6.075   9.520  0.2452 -1.2169  0.0221
  721MOL0     H97299   5.142   6.482   9.941  0.2411  0.9341  0.4602
  721MOL0     H97300   5.168   6.736   9.958 -0.5571  3.4779 -1.8054
  721MOL0     H97301   4.877   6.998   9.719  0.2334  0.6696 -0.0632
  721MOL0     H97302   4.818   6.905   9.857  0.0850 -0.3036  1.5864
  721MOL0     H97303   4.968   7.153   9.876 -0.3916  0.1194 -1.1809
  721MOL0     H97304   4.794   7.165   9.875 -0.3036  1.1029 -0.0533
  721MOL0     H97305   4.847   7.194  10.100 -0.5538 -0.7457 -0.1652
  721MOL0     H97306   4.977   7.084  10.103  0.6686  3.0925  1.4432
  721MOL0     H97307   4.684   6.976  10.086 -1.3052  0.5213  3.1618
  721MOL0     H97308   4.832   6.905  10.146  2.1047  0.8189  2.7516
  721MOL0     H97309   4.826   7.071  10.342  0.6898  0.2715 -2.3191
  721MOL0     H97310   4.673   6.990  10.336 -0.7487 -0.2280 -0.7847
  721MOL0     H97311   4.619   7.204  10.389 -3.8687  1.0306 -1.4941
  721MOL0     H97312   4.718   7.281  10.283  0.1565 -0.0497 -0.6771
  721MOL0     H97313   4.453   7.140  10.224  0.7454  0.7242  1.5171
  721MOL0     H97314   4.563   7.146  10.089  2.6742 -2.7553  2.3364
  721MOL0     H97315   4.433   7.368  10.251 -0.6598 -0.3247  0.1777
  721MOL0     H97316   4.415   7.334  10.075  0.8400 -1.0256  0.3502
  721MOL0     H97317   4.845   6.767   9.669  0.8603  1.5306 -1.0109
  721MOL0     H97318   4.851   6.535   9.637  1.6701 -0.1044 -1.1684
  721MOL0     H97319   4.865   6.183   9.933 -2.5172  0.2983 -0.3195
  721MOL0     H97320   4.809   5.953   9.997  2.7160  4.3794  2.4320
  721MOL0     H97321   5.658   5.250  10.015  3.9467  1.3014 -0.2013
  721MOL0     H97322   5.447   5.291  10.189  0.7022 -2.4004  0.0245
  721MOL0     H97323   5.218   5.507  10.425 -0.2595  0.1131  0.0510
  721MOL0     H97324   5.055   5.546  10.580  0.5767  0.6674  0.8140
  721MOL0     H97325   4.701   5.787  10.495 -4.5208  0.9327 -0.7308
  721MOL0     H97326   4.642   5.618  10.446  2.7507  0.3150 -2.3433
  721MOL0     H97327   4.575   5.571  10.667  1.7046 -1.0072  2.4825
  721MOL0     H97328   4.494   5.725  10.628 -2.0665 -1.6398  2.9981
  721MOL0     H97329   4.750   5.773  10.760 -0.2216  0.7800  0.1737
  721MOL0     H97330   4.604   5.708  10.849  1.8343 -3.1320 -1.0030
  721MOL0     H97331   4.474   5.906  10.781  0.1602  0.0805  0.3004
  721MOL0     H97332   4.611   5.949  10.675 -0.9996 -0.2018  0.6682
  721MOL0     H97333   4.720   6.076  11.073 -1.0481 -0.2382  0.7458
  721MOL0     H97334   4.773   5.671  10.270  0.5979 -0.4914  0.3855
  721MOL0     H97335   4.962   5.632  10.100  0.8868 -2.4230 -0.1531
  722MOL0     O97336   2.435  10.339   9.424  0.6407 -0.5112 -0.0722
  722MOL0     C97337   2.508  10.440   9.437 -0.4843 -1.1112  0.3957
  722MOL0     O97338   2.584  10.503   9.337  0.4374  0.1399 -0.5324
  722MOL0     C97339   2.568  10.484   9.206 -1.2662  0.5982  1.2277
  722MOL0     C97340   2.679  10.454   9.119 -0.5447  0.8257 -0.0888
  722MOL0     C97341   2.656  10.445   8.985 -0.3918  0.5501  0.4525
  722MOL0     C97342   2.528  10.451   8.933 -0.0048 -0.2754  0.4064
  722MOL0     O97343   2.500  10.434   8.799  0.1286  0.1312 -0.0200
  722MOL0     C97344   2.586  10.349   8.726 -0.3064  0.4870 -0.0574
  722MOL0     C97345   2.655  10.406   8.605  0.6847  0.0755 -0.0438
  722MOL0     C97346   2.555  10.454   8.506 -0.3194  0.4709 -0.5602
  722MOL0     C97347   2.626  10.504   8.374 -0.5608 -0.7474  0.3906
  722MOL0     C97348   2.525  10.578   8.286 -0.0064 -0.5766 -0.1836
  722MOL0     C97349   2.603  10.607   8.147  0.0986 -0.6492  0.5198
  722MOL0     C97350   2.719  10.713   8.154  0.6627 -0.2881 -0.3968
  722MOL0     C97351   2.774  10.719   8.020 -0.4540 -0.5909  0.1367
  722MOL0     N97352   2.868  10.833   7.993 -0.0921  1.3779 -0.8767
  722MOL0     C97353   2.834  10.966   8.004 -0.2174 -0.4522  0.6499
  722MOL0     C97354   2.934  11.037   7.947 -0.0798  1.0435 -0.0880
  722MOL0     C97355   2.957  11.186   7.945  0.2322  1.1098 -0.4181
  722MOL0     C97356   3.101  11.234   7.959  0.1248  0.1726  0.5588
  722MOL0     C97357   3.170  11.198   8.093 -0.3851  0.1095  0.6033
  722MOL0     C97358   3.123  11.261   8.220  0.1451 -0.7351  0.0790
  722MOL0     O97359   3.235  11.272   8.314  0.2583  0.2940  0.1982
  722MOL0     C97360   3.311  11.168   8.368 -0.3608 -0.8921 -0.0751
  722MOL0     C97361   3.437  11.195   8.427  0.6466 -0.8424  1.3572
  722MOL0     C97362   3.509  11.101   8.504  0.0291 -0.4005 -0.1676
  722MOL0     C97363   3.643  11.143   8.559  0.1405  0.3449 -0.0609
  722MOL0     C97364   3.460  10.970   8.515  0.1091 -0.5262  0.8823
  722MOL0     C97365   3.520  10.855   8.577  0.1010 -0.0493 -0.6569
  722MOL0     O97366   3.470  10.729   8.547  0.6021  0.3362 -0.3008
  722MOL0     C97367   3.535  10.631   8.603 -0.5846 -0.4286 -0.6809
  722MOL0     C97368   3.475  10.546   8.689  0.0522 -0.3332 -0.6168
  722MOL0     C97369   3.543  10.451   8.759  0.0734  0.0186 -0.3299
  722MOL0     C97370   3.674  10.413   8.721  0.1652 -0.2980  0.4828
  722MOL0     O97371   3.718  10.298   8.773 -0.0471  0.3607 -0.3665
  722MOL0     C97372   3.843  10.242   8.720  0.8213  0.4528  0.3655
  722MOL0     C97373   3.885  10.119   8.807 -0.1620  0.9056  0.8175
  722MOL0     C97374   3.883  10.145   8.957  0.0903  0.6683  0.5379
  722MOL0     C97375   3.971  10.043   9.041  0.5769  0.1629  0.2751
  722MOL0     C97376   3.950  10.063   9.196 -0.0430  0.2036  0.2551
  722MOL0     C97377   4.056   9.986   9.276  0.1514 -0.3295 -0.6086
  722MOL0     C97378   4.025   9.990   9.435 -0.3468 -0.8487 -0.0772
  722MOL0     C97379   4.156   9.958   9.525  0.2895 -0.3294  0.9012
  722MOL0    Cl97380   4.161   9.782   9.541 -0.1181  0.1914  0.1549
  722MOL0     C97381   3.737  10.490   8.627 -0.3875  0.1393  0.7715
  722MOL0     C97382   3.666  10.600   8.564  0.1017 -0.2914  0.1775
  722MOL0     O97383   3.606  10.875   8.662 -0.2154 -0.4294  0.0768
  722MOL0     C97384   3.341  10.940   8.444 -0.0808  0.5580 -0.4190
  722MOL0     C97385   3.268  11.042   8.376  1.2243 -0.0910 -1.0857
  722MOL0     N97386   3.016  10.948   7.891 -0.1568  1.0910 -0.7998
  722MOL0     N97387   2.980  10.826   7.920  0.3550  0.4185 -0.1192
  722MOL0     C97388   2.419  10.478   9.017 -0.2853 -1.4505 -0.1539
  722MOL0     C97389   2.435  10.492   9.151  0.1820 -0.1014 -1.2153
  722MOL0     C97390   2.517  10.497   9.568  0.2200  0.5827 -0.4820
  722MOL0     C97391   2.459  10.434   9.675 -0.0940 -1.2461 -1.3323
  722MOL0     C97392   2.446  10.487   9.803 -0.3397  1.1770 -0.3064
  722MOL0     C97393   2.511  10.610   9.828  0.2027 -0.2209  0.8673
  722MOL0     O97394   2.534  10.684   9.943 -0.3115  0.0664  0.1639
  722MOL0     C97395   2.508  10.626  10.072 -0.1389  0.1117  0.3459
  722MOL0     C97396   2.569  10.721  10.175 -0.6334  1.9385  0.0914
  722MOL0     C97397   2.713  10.775  10.147 -0.5944 -0.5188 -0.7132
  722MOL0     C97398   2.775  10.846  10.273  0.5676  0.4650  0.5651
  722MOL0     C97399   2.910  10.880  10.224  0.3759 -0.4693 -1.0134
  722MOL0     C97400   3.021  10.912  10.183 -0.4022 -0.4552 -0.7120
  722MOL0     C97401   2.573  10.677   9.716 -0.0514 -0.2437  0.3494
  722MOL0     C97402   2.567  10.625   9.594  0.3963 -0.1844  0.1110
  722MOL0     H97403   2.778  10.446   9.162 -0.3424 -2.3793 -0.8977
  722MOL0     H97404   2.753  10.429   8.939  0.5691  0.0922  2.5409
  722MOL0     H97405   2.671  10.310   8.784  0.9111 -0.2102 -2.1980
  722MOL0     H97406   2.524  10.264   8.695 -0.0003  1.0227 -2.3147
  722MOL0     H97407   2.723  10.483   8.642 -1.6985  1.3816  1.9395
  722MOL0     H97408   2.719  10.327   8.565  0.6700 -1.8076  3.2598
  722MOL0     H97409   2.473  10.382   8.498 -1.6551  1.7305  0.9521
  722MOL0     H97410   2.503  10.530   8.565  1.8576 -0.1070  2.3097
  722MOL0     H97411   2.713  10.564   8.400 -1.1087 -0.2086  1.0279
  722MOL0     H97412   2.670  10.419   8.321  0.7873  0.9409 -1.3340
  722MOL0     H97413   2.438  10.516   8.262  0.2921 -0.3370 -2.0096
  722MOL0     H97414   2.492  10.676   8.323 -0.5480 -0.3466 -1.2216
  722MOL0     H97415   2.651  10.513   8.119 -0.8494 -0.7276 -0.9470
  722MOL0     H97416   2.532  10.639   8.070  1.3985 -3.0266 -1.8167
  722MOL0     H97417   2.673  10.806   8.188 -1.6648 -0.8840 -1.6864
  722MOL0     H97418   2.790  10.685   8.233 -0.3236 -0.4834  0.4528
  722MOL0     H97419   2.701  10.730   7.939  2.5818  0.3903 -2.7402
  722MOL0     H97420   2.814  10.625   7.980 -1.1054  0.4126 -3.2634
  722MOL0     H97421   2.750  11.010   8.058  0.6069  3.3541 -0.8420
  722MOL0     H97422   2.904  11.224   7.857  0.6650  3.4004  0.2367
  722MOL0     H97423   2.905  11.238   8.025  0.4172  0.0436  0.4181
  722MOL0     H97424   3.097  11.343   7.948  0.9660  0.1055 -0.5755
  722MOL0     H97425   3.163  11.211   7.873  0.2909  2.2825  0.0466
  722MOL0     H97426   3.276  11.222   8.079 -0.2654 -1.4921 -1.7361
  722MOL0     H97427   3.168  11.089   8.092 -1.0323  0.1193  0.7717
  722MOL0     H97428   3.038  11.208   8.263 -0.8612  0.9724  0.2667
  722MOL0     H97429   3.096  11.366   8.204 -1.9236 -0.9801  1.6412
  722MOL0     H97430   3.483  11.291   8.405  0.0641 -1.1680 -1.7443
  722MOL0     H97431   3.663  11.249   8.545  0.5596  0.2296 -0.3524
  722MOL0     H97432   3.645  11.116   8.665 -0.5083 -1.4981 -0.4663
  722MOL0     H97433   3.723  11.091   8.505  2.2431  1.2898  2.0108
  722MOL0     H97434   3.372  10.575   8.707  0.2095  0.3672 -0.7900
  722MOL0     H97435   3.491  10.390   8.833  0.4810  1.9212  1.5997
  722MOL0     H97436   3.820  10.202   8.621  0.2962  0.7316  0.3739
  722MOL0     H97437   3.919  10.319   8.703  3.1193 -2.0110 -1.2681
  722MOL0     H97438   3.816  10.037   8.784 -1.2156  1.7890  0.7783
  722MOL0     H97439   3.988  10.090   8.783 -1.2692 -2.1365 -0.9030
  722MOL0     H97440   3.779  10.127   8.986 -0.4261  1.4923 -0.7474
  722MOL0     H97441   3.912  10.244   8.993 -0.6108  0.6261  1.2548
  722MOL0     H97442   3.933   9.944   9.013 -0.7218  0.8770 -0.5884
  722MOL0     H97443   4.075  10.052   9.011  1.3996 -1.1376  2.4913
  722MOL0     H97444   3.848  10.029   9.212 -0.1775 -2.2990 -4.2138
  722MOL0     H97445   3.958  10.170   9.219 -0.4717  0.3039 -0.0623
  722MOL0     H97446   4.043   9.883   9.242  2.2563 -1.3238  1.3515
  722MOL0     H97447   4.155  10.024   9.250  0.8358  0.9287  3.1476
  722MOL0     H97448   3.943   9.921   9.456 -0.0315 -1.3752 -0.5561
  722MOL0     H97449   3.984  10.091   9.448  0.6565 -0.0442 -2.5410
  722MOL0     H97450   4.160  10.009   9.622 -1.0613 -2.4057  2.1357
  722MOL0     H97451   4.244   9.996   9.472  1.6933 -1.2944  2.4394
  722MOL0     H97452   3.829  10.468   8.574 -0.9501  0.4571 -0.3772
  722MOL0     H97453   3.719  10.646   8.482 -1.5831  0.1660 -0.6936
  722MOL0     H97454   3.299  10.840   8.438  1.8335 -0.2652 -0.9099
  722MOL0     H97455   3.169  11.014   8.343  0.1272 -3.3395  3.8389
  722MOL0     H97456   2.323  10.501   8.971  0.7814 -0.9379 -2.2255
  722MOL0     H97457   2.358  10.521   9.222 -0.3339 -1.7591 -1.0610
  722MOL0     H97458   2.402  10.343   9.660 -1.1594 -1.0169  0.9089
  722MOL0     H97459   2.393  10.427   9.877 -2.0124  4.0148  0.9530
  722MOL0     H97460   2.400  10.613  10.075 -0.8175  1.3674 -5.7079
  722MOL0     H97461   2.566  10.534  10.085  0.6839  0.6907  0.9408
  722MOL0     H97462   2.574  10.660  10.265 -1.2405  0.4045 -0.8738
  722MOL0     H97463   2.514  10.812  10.201 -2.9239  0.4181  0.8640
  722MOL0     H97464   2.708  10.854  10.071  3.3850 -0.0295 -0.6402
  722MOL0     H97465   2.791  10.706  10.115  1.6920  1.1979  0.8786
  722MOL0     H97466   2.781  10.776  10.357 -0.9982  1.4043  1.5052
  722MOL0     H97467   2.718  10.937  10.290 -2.3219 -0.6702 -2.1818
  722MOL0     H97468   3.127  10.922  10.168 -0.8476  2.2435 -2.9454
  722MOL0     H97469   2.635  10.764   9.734 -1.2090  0.9808 -1.2858
  722MOL0     H97470   2.600  10.692   9.514 -0.4310 -0.8350 -0.8074
  723MOL0     O97471   1.590   9.065   0.525  1.0471  0.0118 -0.3609
  723MOL0     C97472   1.553   9.172   0.580 -0.7104  0.2442  0.0365
  723MOL0     O97473   1.561   9.294   0.514  0.1535  0.0239 -0.3119
  723MOL0     C97474   1.585   9.296   0.382 -0.2604  0.4931 -0.4341
  723MOL0     C97475   1.714   9.263   0.333  0.1531  0.6851 -0.4424
  723MOL0     C97476   1.739   9.255   0.197  0.0956  0.0876 -0.2748
  723MOL0     C97477   1.643   9.300   0.101 -0.3553 -0.3007 -0.0035
  723MOL0     O97478   1.684   9.282  -0.031  0.2228 -0.3831  0.4667
  723MOL0     C97479   1.592   9.310  -0.138 -0.4338 -0.1543  0.4994
  723MOL0     C97480   1.660   9.242  -0.257 -0.1283 -0.3861 -0.6315
  723MOL0     C97481   1.578   9.251  -0.388  0.0680  0.8301 -0.3966
  723MOL0     C97482   1.469   9.135  -0.400  0.4409  0.0019  0.4666
  723MOL0     C97483   1.392   9.145  -0.529  0.4072  0.3204 -0.1547
  723MOL0     C97484   1.257   9.068  -0.521  0.1529  0.2342  0.4556
  723MOL0     C97485   1.184   9.063  -0.655 -0.0394  0.0065 -0.3293
  723MOL0     C97486   1.261   8.982  -0.771  1.0506 -0.3442 -0.9345
  723MOL0     N97487   1.344   8.862  -0.723 -0.3086  0.3408 -0.5341
  723MOL0     C97488   1.291   8.734  -0.696 -0.3413 -0.1735  0.3536
  723MOL0     C97489   1.394   8.659  -0.645  0.4624 -0.4059  0.1477
  723MOL0     C97490   1.372   8.515  -0.624 -0.3665  0.9365  0.4775
  723MOL0     C97491   1.323   8.497  -0.478 -0.2247  0.1826 -0.8041
  723MOL0     C97492   1.261   8.359  -0.450  0.1301  0.0988 -0.7811
  723MOL0     C97493   1.335   8.231  -0.494 -1.6995 -0.0089 -0.0321
  723MOL0     O97494   1.294   8.121  -0.423  0.2173  0.1042 -0.0358
  723MOL0     C97495   1.362   8.002  -0.430 -0.8994 -0.6299  1.4848
  723MOL0     C97496   1.500   7.991  -0.421 -0.0401  0.4658  0.1777
  723MOL0     C97497   1.561   7.869  -0.403  0.3403  0.1429 -0.0785
  723MOL0     C97498   1.710   7.861  -0.371  0.0966 -0.4391 -0.0899
  723MOL0     C97499   1.490   7.744  -0.423  0.5350  0.2448  0.1013
  723MOL0     C97500   1.540   7.603  -0.418  0.5707  0.1487 -0.0031
  723MOL0     O97501   1.448   7.506  -0.387  0.0818  0.2456 -0.7088
  723MOL0     C97502   1.502   7.373  -0.387  0.4039  0.5718  0.2977
  723MOL0     C97503   1.560   7.323  -0.274  0.7644 -0.7631 -0.0166
  723MOL0     C97504   1.618   7.192  -0.277 -0.6780 -0.0033  0.7531
  723MOL0     C97505   1.610   7.107  -0.395 -0.6820 -0.3314  0.2793
  723MOL0     O97506   1.653   6.980  -0.416  0.4235  0.2701  0.1247
  723MOL0     C97507   1.759   6.933  -0.327  0.9430 -1.0670  0.3978
  723MOL0     C97508   1.894   7.002  -0.363  0.0377  0.7742 -1.0183
  723MOL0     C97509   1.934   7.020  -0.509 -0.0147 -0.1085  0.3983
  723MOL0     C97510   2.029   7.131  -0.536  0.6015 -0.0782 -0.7556
  723MOL0     C97511   2.097   7.113  -0.674  1.6854  0.0412 -1.1476
  723MOL0     C97512   2.177   7.239  -0.709  0.3923 -0.8360  0.0157
  723MOL0     C97513   2.254   7.214  -0.837 -0.0726 -0.0278  0.3249
  723MOL0     C97514   2.321   7.342  -0.888  0.1447  0.6499 -0.0552
  723MOL0    Cl97515   2.235   7.495  -0.872  0.2289 -0.2757  0.3167
  723MOL0     C97516   1.566   7.166  -0.510  0.2549 -0.3102  0.4588
  723MOL0     C97517   1.511   7.296  -0.501  0.4244 -0.0781  0.3686
  723MOL0     O97518   1.656   7.580  -0.432  0.5296  0.8186  0.3077
  723MOL0     C97519   1.349   7.760  -0.439 -0.9250  1.2273  0.3471
  723MOL0     C97520   1.290   7.880  -0.440  0.0961 -0.1591  0.5113
  723MOL0     N97521   1.509   8.738  -0.636  0.1758 -0.3655 -0.8453
  723MOL0     N97522   1.482   8.855  -0.688 -0.2338 -0.2584 -1.0414
  723MOL0     C97523   1.523   9.349   0.153  0.8900  0.0097  0.4895
  723MOL0     C97524   1.485   9.331   0.289 -0.7863  0.7784 -0.1937
  723MOL0     C97525   1.525   9.179   0.715  0.0164  0.0374 -0.2622
  723MOL0     C97526   1.578   9.091   0.803 -0.9847 -0.0704  0.3704
  723MOL0     C97527   1.571   9.104   0.938  0.0472 -0.2179 -0.3638
  723MOL0     C97528   1.502   9.208   0.999  0.9592 -0.5867  0.2573
  723MOL0     O97529   1.465   9.232   1.121 -0.5561 -0.0179 -0.3454
  723MOL0     C97530   1.535   9.176   1.225 -0.2656 -0.6425  0.5562
  723MOL0     C97531   1.505   9.231   1.368 -0.1476 -0.0297  1.6245
  723MOL0     C97532   1.534   9.386   1.365  0.6572 -0.5416  0.3927
  723MOL0     C97533   1.555   9.450   1.495 -1.3789  0.0331 -0.1427
  723MOL0     C97534   1.684   9.397   1.551 -0.9612  0.8204  0.4168
  723MOL0     C97535   1.791   9.351   1.595 -0.2476 -0.9394  0.8665
  723MOL0     C97536   1.443   9.298   0.901 -0.4120  0.8697 -0.7666
  723MOL0     C97537   1.462   9.294   0.763  0.8935 -0.8287 -0.2610
  723MOL0     H97538   1.785   9.226   0.406 -3.5885  0.8866  3.7467
  723MOL0     H97539   1.840   9.233   0.164  0.5503  0.8255  0.5713
  723MOL0     H97540   1.491   9.273  -0.115  1.0422 -4.0331  1.6618
  723MOL0     H97541   1.580   9.417  -0.155 -2.0122  0.5982  5.0091
  723MOL0     H97542   1.759   9.282  -0.280 -0.3294  1.8086  1.8512
  723MOL0     H97543   1.677   9.136  -0.233 -0.7591 -0.2232  0.6554
  723MOL0     H97544   1.531   9.349  -0.403  1.2757  1.5073  0.0683
  723MOL0     H97545   1.649   9.237  -0.470 -1.0767  0.7445 -1.4077
  723MOL0     H97546   1.517   9.036  -0.396  3.0678  1.1768 -0.0844
  723MOL0     H97547   1.401   9.142  -0.314  0.2062 -1.7681  0.4644
  723MOL0     H97548   1.371   9.249  -0.552 -3.9655 -0.1905  0.6893
  723MOL0     H97549   1.451   9.101  -0.610  0.3987 -2.0861  1.0553
  723MOL0     H97550   1.277   8.965  -0.492 -1.2874 -0.8466 -2.0357
  723MOL0     H97551   1.191   9.110  -0.444 -1.1371 -1.6602  0.4325
  723MOL0     H97552   1.089   9.015  -0.629 -1.6590  1.9473 -2.3324
  723MOL0     H97553   1.159   9.163  -0.689  1.6857  0.3769 -0.5728
  723MOL0     H97554   1.333   9.042  -0.829 -0.2205  1.1583 -1.0186
  723MOL0     H97555   1.188   8.954  -0.848  1.4286  2.8928 -2.6502
  723MOL0     H97556   1.186   8.715  -0.713 -0.8846  3.7657 -2.1599
  723MOL0     H97557   1.306   8.488  -0.706  1.0399 -0.5064 -0.2423
  723MOL0     H97558   1.463   8.454  -0.637  0.2969  1.0658  3.7102
  723MOL0     H97559   1.250   8.576  -0.460  0.6725  1.0049 -0.6895
  723MOL0     H97560   1.404   8.507  -0.404 -1.3482 -0.8641  0.6368
  723MOL0     H97561   1.164   8.349  -0.499 -0.2845 -1.3000  0.2481
  723MOL0     H97562   1.243   8.360  -0.342  3.1289 -0.7046 -0.1921
  723MOL0     H97563   1.441   8.255  -0.486 -1.9331  0.5859  1.7192
  723MOL0     H97564   1.322   8.204  -0.599  0.8440  0.2605 -0.4826
  723MOL0     H97565   1.566   8.076  -0.409  0.9991 -0.1570 -0.9647
  723MOL0     H97566   1.717   7.776  -0.302 -1.6252 -0.2896  0.3108
  723MOL0     H97567   1.765   7.839  -0.463  3.1229 -0.7025  1.6099
  723MOL0     H97568   1.747   7.951  -0.320  0.3423 -1.1130  0.9727
  723MOL0     H97569   1.552   7.372  -0.178 -1.1374 -4.9370  2.2089
  723MOL0     H97570   1.642   7.140  -0.185  1.2415 -4.9699 -2.1620
  723MOL0     H97571   1.727   6.950  -0.223 -3.7132 -1.6945 -0.6884
  723MOL0     H97572   1.762   6.824  -0.340 -0.3001 -1.0217 -0.4360
  723MOL0     H97573   1.871   7.100  -0.321 -2.8820  0.3750 -1.4477
  723MOL0     H97574   1.981   6.955  -0.317 -0.1457  1.4478  0.0353
  723MOL0     H97575   1.854   7.030  -0.583  1.2215 -1.0962 -1.1498
  723MOL0     H97576   1.988   6.930  -0.540  0.5231  0.8562 -1.6198
  723MOL0     H97577   1.968   7.221  -0.533  0.8203  0.0462  0.2625
  723MOL0     H97578   2.101   7.140  -0.454 -0.7330  1.2125  0.3141
  723MOL0     H97579   2.032   7.077  -0.754 -2.2588  2.3783  0.7249
  723MOL0     H97580   2.158   7.022  -0.667 -0.5399 -1.6035 -1.9830
  723MOL0     H97581   2.108   7.323  -0.726  1.2645 -0.3002 -1.0971
  723MOL0     H97582   2.239   7.276  -0.627 -1.3833  0.4348  0.8538
  723MOL0     H97583   2.189   7.177  -0.917  1.7768  1.6039 -2.0693
  723MOL0     H97584   2.327   7.134  -0.833  1.4891  1.2294 -1.2375
  723MOL0     H97585   2.345   7.329  -0.994  1.1581 -0.5620  0.2957
  723MOL0     H97586   2.424   7.357  -0.854  0.1986 -0.9568  0.5441
  723MOL0     H97587   1.566   7.118  -0.607  0.6277 -1.6909  1.1246
  723MOL0     H97588   1.469   7.345  -0.588  0.8047  0.0025  0.2274
  723MOL0     H97589   1.288   7.670  -0.446  1.9012 -0.7433 -0.9316
  723MOL0     H97590   1.182   7.890  -0.437 -0.0911 -1.7970  0.1541
  723MOL0     H97591   1.446   9.379   0.082  0.6633 -1.2805  0.1635
  723MOL0     H97592   1.386   9.348   0.329 -0.6027  2.2100 -0.2872
  723MOL0     H97593   1.636   9.010   0.760 -2.6825 -0.2223 -1.8374
  723MOL0     H97594   1.617   9.028   1.001  0.0613  0.4436  0.4563
  723MOL0     H97595   1.504   9.071   1.226  0.6653 -0.9670  3.0662
  723MOL0     H97596   1.645   9.178   1.220 -0.0925 -2.9246  1.9703
  723MOL0     H97597   1.564   9.190   1.451 -1.5519 -1.0928  2.1257
  723MOL0     H97598   1.399   9.209   1.381 -1.0018  1.4256 -1.8056
  723MOL0     H97599   1.461   9.443   1.307  3.1347  0.0456 -2.3906
  723MOL0     H97600   1.624   9.403   1.305  1.7600 -3.2091  1.1533
  723MOL0     H97601   1.484   9.420   1.572 -1.5588  0.3993 -0.1622
  723MOL0     H97602   1.562   9.559   1.484  5.5515 -0.0304 -0.7221
  723MOL0     H97603   1.885   9.326   1.640  0.7730 -0.2048 -0.7687
  723MOL0     H97604   1.392   9.383   0.945 -2.3400  0.0142 -1.2534
  723MOL0     H97605   1.432   9.387   0.716 -0.1526  0.9580  3.5361
  724MOL0     O97606   2.497   6.753   2.793  0.0551 -0.2104  0.9367
  724MOL0     C97607   2.581   6.725   2.871 -0.0362 -0.7001  0.4794
  724MOL0     O97608   2.574   6.624   2.961  0.1245  0.3123  0.0634
  724MOL0     C97609   2.482   6.516   2.976 -0.2892 -0.0208  0.9951
  724MOL0     C97610   2.477   6.442   3.091 -0.7389  0.3269 -0.5857
  724MOL0     C97611   2.394   6.326   3.104 -0.6902  0.4026 -0.3279
  724MOL0     C97612   2.326   6.286   2.993 -0.2365 -0.4437 -0.5934
  724MOL0     O97613   2.254   6.178   3.018  0.5449  0.5335  0.4811
  724MOL0     C97614   2.123   6.191   3.061  0.5557  0.4176 -0.2197
  724MOL0     C97615   2.064   6.054   3.102  1.1161  0.3520 -0.3808
  724MOL0     C97616   1.915   6.083   3.144 -0.8670  0.5603  0.8599
  724MOL0     C97617   1.844   5.961   3.204 -0.2769  0.3331 -0.5536
  724MOL0     C97618   1.739   5.999   3.310  0.0398 -0.1169  0.2935
  724MOL0     C97619   1.703   5.869   3.389 -0.2767  0.5757  0.7342
  724MOL0     C97620   1.819   5.815   3.468  0.3906  1.8208  0.0264
  724MOL0     C97621   1.773   5.724   3.591 -0.2874 -0.4048  0.0155
  724MOL0     N97622   1.900   5.662   3.653 -0.5767  0.3286 -0.1237
  724MOL0     C97623   1.935   5.526   3.664  0.0445 -0.2464  0.0260
  724MOL0     C97624   2.048   5.523   3.739  0.2154  1.1439  0.7241
  724MOL0     C97625   2.125   5.402   3.765  0.4606  0.3842 -0.6302
  724MOL0     C97626   2.155   5.383   3.911  0.6910  0.1460  0.5406
  724MOL0     C97627   2.254   5.262   3.942  0.3010 -0.5295 -0.7344
  724MOL0     C97628   2.172   5.134   3.946 -1.0928 -0.1224  0.5270
  724MOL0     O97629   2.273   5.031   3.945  0.2491  0.4389  0.2908
  724MOL0     C97630   2.244   4.899   4.006 -0.6114 -0.4282 -0.3313
  724MOL0     C97631   2.333   4.834   4.080 -0.4683  1.0935  0.9196
  724MOL0     C97632   2.300   4.700   4.136  0.6985 -0.7474 -0.4036
  724MOL0     C97633   2.415   4.629   4.203 -0.3805  0.6975  0.3671
  724MOL0     C97634   2.165   4.659   4.129 -0.2664 -1.2686 -0.0532
  724MOL0     C97635   2.126   4.525   4.175 -0.3504  0.3442  0.0395
  724MOL0     O97636   1.999   4.488   4.137  0.2340  1.1222 -0.3418
  724MOL0     C97637   1.929   4.373   4.152  0.7428  0.0549  0.7446
  724MOL0     C97638   1.982   4.259   4.214 -0.0721 -0.3850 -0.1919
  724MOL0     C97639   1.914   4.144   4.230  1.2244  0.4072  0.2039
  724MOL0     C97640   1.769   4.144   4.201  0.0464  0.7602 -0.3520
  724MOL0     O97641   1.672   4.039   4.213 -0.1341  0.6504 -0.0473
  724MOL0     C97642   1.720   3.903   4.234 -0.5644 -0.1837 -0.5909
  724MOL0     C97643   1.741   3.846   4.098 -0.5001 -0.5571 -0.2651
  724MOL0     C97644   1.637   3.748   4.057  1.1011 -0.6065 -0.5412
  724MOL0     C97645   1.515   3.814   4.004  0.3395 -0.4998 -0.5188
  724MOL0     C97646   1.420   3.719   3.937 -1.1443 -0.5912 -0.9061
  724MOL0     C97647   1.278   3.762   3.913 -0.1530  0.0559 -0.1642
  724MOL0     C97648   1.190   3.645   3.866  0.8049 -0.0113  0.1843
  724MOL0     C97649   1.220   3.589   3.720 -0.2898  0.6459 -0.1515
  724MOL0    Cl97650   1.353   3.461   3.716  0.0205 -0.3630 -0.1868
  724MOL0     C97651   1.717   4.264   4.146 -0.1054  0.0610  0.1212
  724MOL0     C97652   1.795   4.373   4.112 -0.1714 -0.4845 -1.1169
  724MOL0     O97653   2.203   4.455   4.238  0.4010 -0.0527 -0.0678
  724MOL0     C97654   2.068   4.743   4.077 -0.6172 -0.8269  0.2651
  724MOL0     C97655   2.111   4.848   4.006 -0.1381  0.3952  0.9404
  724MOL0     N97656   2.085   5.649   3.765 -0.0727 -0.3141  0.7168
  724MOL0     N97657   1.991   5.734   3.720  0.9619  0.5611  0.0624
  724MOL0     C97658   2.322   6.360   2.879 -0.2297  0.1563  0.4771
  724MOL0     C97659   2.393   6.479   2.875  0.8119 -1.5065 -0.2946
  724MOL0     C97660   2.698   6.815   2.859  0.6563  0.4783  0.1264
  724MOL0     C97661   2.707   6.917   2.763  1.0254  0.3257  0.0241
  724MOL0     C97662   2.820   7.000   2.757 -0.1333  0.6719  0.5832
  724MOL0     C97663   2.927   6.976   2.842 -1.2427  0.7439 -0.3790
  724MOL0     O97664   3.036   7.059   2.858 -0.3601 -0.5652  0.6242
  724MOL0     C97665   3.074   7.143   2.749  0.0215 -1.0304 -0.0290
  724MOL0     C97666   3.224   7.160   2.751 -0.0285  0.3781 -0.2479
  724MOL0     C97667   3.273   7.268   2.840  0.3868 -0.2286  0.0126
  724MOL0     C97668   3.231   7.266   2.987  0.6668  0.0190 -0.0255
  724MOL0     C97669   3.323   7.346   3.078  0.2941  0.5288 -0.0737
  724MOL0     C97670   3.402   7.421   3.134 -1.1891 -0.0536 -0.0247
  724MOL0     C97671   2.918   6.879   2.931  0.5852 -0.3033 -0.5148
  724MOL0     C97672   2.802   6.792   2.937 -0.5547  0.4665  0.5421
  724MOL0     H97673   2.545   6.471   3.171  1.6988  0.0921 -2.4845
  724MOL0     H97674   2.398   6.279   3.202  0.8941  3.7921  1.4312
  724MOL0     H97675   2.112   6.254   3.150  3.5047 -0.2218  0.6979
  724MOL0     H97676   2.065   6.251   2.990 -0.3815  2.6563  2.2552
  724MOL0     H97677   2.062   5.975   3.026 -3.0426 -1.7280  1.5731
  724MOL0     H97678   2.110   6.016   3.194 -2.1707 -0.1892  1.1839
  724MOL0     H97679   1.928   6.162   3.220  0.9259 -0.0362  1.2317
  724MOL0     H97680   1.871   6.128   3.055  2.8592 -3.3769 -3.4718
  724MOL0     H97681   1.796   5.909   3.121 -0.4732  0.5434 -0.5717
  724MOL0     H97682   1.920   5.897   3.251 -0.7886  1.7210  2.4231
  724MOL0     H97683   1.777   6.075   3.379  0.1552 -1.0429  1.2800
  724MOL0     H97684   1.651   6.040   3.258  0.3745 -2.4445 -2.2784
  724MOL0     H97685   1.623   5.888   3.460 -1.0496 -3.8855  1.3661
  724MOL0     H97686   1.666   5.786   3.327 -2.1636  1.4289  0.6526
  724MOL0     H97687   1.884   5.759   3.401 -2.8784  0.5566 -2.3645
  724MOL0     H97688   1.876   5.900   3.508  0.3697  1.8159  0.0679
  724MOL0     H97689   1.701   5.649   3.557 -0.3613  0.6586 -2.3526
  724MOL0     H97690   1.727   5.792   3.664  1.0592  0.5789 -0.0243
  724MOL0     H97691   1.886   5.439   3.623 -1.3180  1.1065 -1.3188
  724MOL0     H97692   2.091   5.307   3.723  0.0202 -0.1021  0.7838
  724MOL0     H97693   2.223   5.413   3.719  0.8113  0.9516  0.2346
  724MOL0     H97694   2.057   5.373   3.959 -0.0894  0.0062 -1.0204
  724MOL0     H97695   2.185   5.477   3.960 -1.0140  1.0215  0.0019
  724MOL0     H97696   2.307   5.276   4.037  0.5938 -0.5733 -0.8902
  724MOL0     H97697   2.329   5.245   3.865 -1.2895 -1.5584 -2.1299
  724MOL0     H97698   2.108   5.130   3.858 -3.0967 -2.3556  1.9705
  724MOL0     H97699   2.107   5.119   4.033 -2.7107 -0.0285 -0.6127
  724MOL0     H97700   2.433   4.877   4.085  0.6288 -1.0556 -0.6806
  724MOL0     H97701   2.443   4.532   4.161 -0.4155  0.4996  0.7960
  724MOL0     H97702   2.510   4.684   4.205  0.6783 -0.7460 -2.9697
  724MOL0     H97703   2.381   4.617   4.306 -2.6483 -0.1653 -0.4224
  724MOL0     H97704   2.088   4.245   4.233 -0.0667 -0.2345 -0.1093
  724MOL0     H97705   1.960   4.059   4.280 -0.1119  0.3616  1.4009
  724MOL0     H97706   1.805   3.897   4.303 -1.1566 -1.2339  0.0771
  724MOL0     H97707   1.636   3.863   4.292 -1.0051  3.3398  1.5618
  724MOL0     H97708   1.763   3.914   4.014 -0.4758 -0.8379 -0.4879
  724MOL0     H97709   1.827   3.781   4.115  0.5858  0.7153 -0.6724
  724MOL0     H97710   1.598   3.688   4.140  0.7980 -0.6884 -0.7410
  724MOL0     H97711   1.677   3.676   3.985  1.7890  0.3813 -1.1585
  724MOL0     H97712   1.463   3.874   4.079  0.0623  1.1609 -1.9622
  724MOL0     H97713   1.543   3.885   3.926  0.8744 -1.5081 -1.2786
  724MOL0     H97714   1.427   3.628   3.997  0.1007 -0.1909 -0.4066
  724MOL0     H97715   1.462   3.694   3.839 -1.4620 -0.3052 -1.1179
  724MOL0     H97716   1.243   3.799   4.010 -1.4892 -1.2865 -0.0946
  724MOL0     H97717   1.284   3.837   3.834 -2.3689  1.7222  1.1150
  724MOL0     H97718   1.088   3.683   3.864  1.3080  1.5048 -3.2158
  724MOL0     H97719   1.199   3.561   3.935  0.1009 -0.2057  0.0369
  724MOL0     H97720   1.241   3.674   3.654 -2.4177 -1.0604 -3.2574
  724MOL0     H97721   1.128   3.550   3.676 -0.0669  3.2917 -3.2815
  724MOL0     H97722   1.609   4.268   4.134 -0.7033 -3.8772  2.4546
  724MOL0     H97723   1.745   4.461   4.073 -1.2943  0.4762  2.1647
  724MOL0     H97724   1.963   4.720   4.063 -0.6663 -0.7188  0.4536
  724MOL0     H97725   2.044   4.904   3.942  0.0505 -0.4817 -0.0545
  724MOL0     H97726   2.255   6.329   2.799 -1.9488  1.3226  1.4250
  724MOL0     H97727   2.375   6.540   2.788 -0.7677 -2.4504 -0.6724
  724MOL0     H97728   2.627   6.927   2.691  0.3751 -0.9319  0.5557
  724MOL0     H97729   2.830   7.075   2.679  0.8749  2.6132  2.4755
  724MOL0     H97730   3.062   7.103   2.648 -1.8778  2.0972 -1.1912
  724MOL0     H97731   3.026   7.238   2.777 -0.4055 -1.8714  2.3297
  724MOL0     H97732   3.261   7.174   2.649  0.9740  0.8834  0.1702
  724MOL0     H97733   3.267   7.071   2.798  1.0836  1.3326  0.5963
  724MOL0     H97734   3.258   7.365   2.789  0.9692 -0.2169 -0.1432
  724MOL0     H97735   3.382   7.276   2.831  0.1323  2.6191 -2.0402
  724MOL0     H97736   3.235   7.162   3.020  2.1242  0.6700  2.0750
  724MOL0     H97737   3.130   7.310   2.990  1.1540  1.1371  0.3291
  724MOL0     H97738   3.481   7.474   3.184  0.7515  1.2471 -4.0533
  724MOL0     H97739   2.997   6.870   3.005  1.7519 -0.2077 -1.7206
  724MOL0     H97740   2.823   6.710   3.005 -1.8588 -0.7988 -0.5210
  725MOL0     O97741   8.744   9.210   8.505 -0.0974  0.0198 -0.1177
  725MOL0     C97742   8.838   9.278   8.544 -0.3168  0.3586 -0.0939
  725MOL0     O97743   8.840   9.327   8.667 -0.6018 -0.6298 -0.3777
  725MOL0     C97744   8.755   9.290   8.767  0.8511  0.0253  0.1299
  725MOL0     C97745   8.766   9.367   8.885 -0.3391  0.1781  0.1091
  725MOL0     C97746   8.694   9.346   8.992 -0.1426 -0.4568 -0.2997
  725MOL0     C97747   8.592   9.247   8.991 -0.4168  0.3572  0.1296
  725MOL0     O97748   8.537   9.226   9.114 -0.1621 -0.2423  0.4651
  725MOL0     C97749   8.421   9.146   9.111  0.7811  0.6819 -0.7700
  725MOL0     C97750   8.346   9.180   9.241  0.1537  0.4894 -0.0491
  725MOL0     C97751   8.203   9.113   9.249 -1.4948  0.3063 -0.1697
  725MOL0     C97752   8.100   9.169   9.155  0.2878  0.8491 -0.7780
  725MOL0     C97753   7.970   9.088   9.174 -0.1427 -0.7309 -0.4726
  725MOL0     C97754   7.838   9.140   9.110  0.0008 -1.2274 -0.3848
  725MOL0     C97755   7.723   9.047   9.146 -0.2122 -0.0469  0.0527
  725MOL0     C97756   7.593   9.094   9.085 -0.8850 -0.2857 -0.3889
  725MOL0     N97757   7.546   9.223   9.147  0.3393 -0.0291 -1.2346
  725MOL0     C97758   7.505   9.256   9.275  1.4326  0.1004  1.2230
  725MOL0     C97759   7.483   9.391   9.279 -0.7831  0.2365 -0.1170
  725MOL0     C97760   7.447   9.473   9.407 -0.4422  0.1856 -1.4806
  725MOL0     C97761   7.347   9.577   9.382  0.7856  1.1086  0.4902
  725MOL0     C97762   7.286   9.655   9.497  0.1870  0.0675  0.0749
  725MOL0     C97763   7.186   9.764   9.459 -0.1248  0.7226 -0.1072
  725MOL0     O97764   7.069   9.694   9.407  0.9629  0.1572  0.2335
  725MOL0     C97765   6.964   9.792   9.375 -0.2116  0.3818 -0.0601
  725MOL0     C97766   6.963   9.894   9.276  0.1151 -0.5657  0.2830
  725MOL0     C97767   6.858   9.971   9.241  0.8905 -0.4695 -0.4917
  725MOL0     C97768   6.878  10.051   9.124 -0.0446 -0.2863  0.5853
  725MOL0     C97769   6.732   9.963   9.313  0.0063 -0.5885  0.2327
  725MOL0     C97770   6.610  10.056   9.302  0.1819  0.9172 -0.5098
  725MOL0     O97771   6.626  10.175   9.232  0.0731  0.6841 -0.2468
  725MOL0     C97772   6.514  10.240   9.184 -0.7218 -0.3719 -0.4949
  725MOL0     C97773   6.417  10.295   9.276 -0.4272  0.4467  0.0405
  725MOL0     C97774   6.308  10.374   9.232 -1.1207 -0.3573  0.9783
  725MOL0     C97775   6.293  10.397   9.096  0.6364  0.8015  0.9445
  725MOL0     O97776   6.197  10.491   9.059  0.1566 -0.0040  0.5467
  725MOL0     C97777   6.126  10.484   8.936  0.2118 -0.4288  0.5344
  725MOL0     C97778   5.985  10.534   8.965 -0.0799 -0.3890 -0.0143
  725MOL0     C97779   5.956  10.685   8.928 -0.4968  0.3862 -0.4885
  725MOL0     C97780   5.815  10.723   8.968 -0.5722  0.3201  0.7711
  725MOL0     C97781   5.785  10.871   8.939  0.3547 -0.6162  0.0741
  725MOL0     C97782   5.639  10.888   8.971  0.8877 -0.3171 -0.7384
  725MOL0     C97783   5.625  11.041   8.990  0.1970 -0.4045 -0.4523
  725MOL0     C97784   5.493  11.084   9.058  0.2634 -0.3190 -0.7394
  725MOL0    Cl97785   5.336  11.033   8.969  0.5418 -0.5427 -0.2836
  725MOL0     C97786   6.378  10.338   9.005  0.4362  0.4072  0.1299
  725MOL0     C97787   6.501  10.269   9.040 -0.1785  0.1506  0.0561
  725MOL0     O97788   6.513  10.032   9.377  0.2377 -0.4327 -0.1283
  725MOL0     C97789   6.741   9.870   9.426  0.6712 -0.7610 -1.0567
  725MOL0     C97790   6.844   9.780   9.450  0.1065  0.6613 -1.1123
  725MOL0     N97791   7.515   9.433   9.149 -0.1702  0.4226  0.0035
  725MOL0     N97792   7.554   9.333   9.071 -0.2069 -0.8770 -0.2659
  725MOL0     C97793   8.570   9.171   8.883  0.9453 -0.1252 -0.1225
  725MOL0     C97794   8.649   9.195   8.766 -0.5574 -0.3355 -0.0981
  725MOL0     C97795   8.960   9.296   8.461  0.0886 -0.0228 -0.4000
  725MOL0     C97796   9.070   9.364   8.513 -0.0822 -0.1249 -0.1768
  725MOL0     C97797   9.174   9.386   8.421  0.1912  0.4301 -0.3755
  725MOL0     C97798   9.185   9.347   8.292  0.1518 -0.1813 -0.3225
  725MOL0     O97799   9.291   9.356   8.199  0.4736  0.5224 -0.0793
  725MOL0     C97800   9.408   9.435   8.229 -0.8675 -0.6838 -0.2074
  725MOL0     C97801   9.489   9.460   8.099 -0.7846 -0.7542 -0.3645
  725MOL0     C97802   9.516   9.329   8.036 -0.1575 -0.2141  0.5949
  725MOL0     C97803   9.647   9.323   7.945 -0.4197 -0.7273 -0.4247
  725MOL0     C97804   9.637   9.312   7.799 -0.9521 -0.1261 -0.0754
  725MOL0     C97805   9.630   9.315   7.675  0.2529 -0.2506 -0.4511
  725MOL0     C97806   9.079   9.274   8.244  0.1545 -0.1222 -0.6213
  725MOL0     C97807   8.967   9.247   8.329  0.0714  0.3791  0.4730
  725MOL0     H97808   8.833   9.452   8.885 -1.8013  1.3694  0.7322
  725MOL0     H97809   8.711   9.416   9.074  2.2791  0.3460 -1.3790
  725MOL0     H97810   8.358   9.159   9.023 -2.1674  0.3225  1.1685
  725MOL0     H97811   8.443   9.039   9.119 -2.9192 -0.1060  0.3603
  725MOL0     H97812   8.404   9.167   9.333  0.2500  0.4237 -0.1192
  725MOL0     H97813   8.328   9.287   9.233  2.0998  0.7972 -1.0521
  725MOL0     H97814   8.224   9.009   9.225 -2.2136  0.1060  0.0361
  725MOL0     H97815   8.163   9.114   9.351  3.7067  1.0075  2.1503
  725MOL0     H97816   8.091   9.274   9.184  2.9219  1.1040 -0.6471
  725MOL0     H97817   8.136   9.156   9.052  1.2427  1.5068 -0.5422
  725MOL0     H97818   7.985   8.983   9.144  1.2824 -0.8937  0.6736
  725MOL0     H97819   7.935   9.094   9.278 -0.0650 -2.7584 -0.2719
  725MOL0     H97820   7.814   9.239   9.151 -1.7149 -2.2558  1.2579
  725MOL0     H97821   7.865   9.142   9.004  2.4287 -0.5514  0.1806
  725MOL0     H97822   7.740   8.945   9.110  1.2232  0.1011  0.2245
  725MOL0     H97823   7.707   9.041   9.254  2.2527 -3.0781  0.3976
  725MOL0     H97824   7.531   9.007   9.106  1.8820 -2.3098  0.0217
  725MOL0     H97825   7.599   9.104   8.977 -2.2691 -2.1455 -0.6765
  725MOL0     H97826   7.498   9.173   9.345 -2.1414 -0.5413  0.2892
  725MOL0     H97827   7.409   9.411   9.489  3.1615  1.7516  1.7090
  725MOL0     H97828   7.536   9.523   9.447 -1.1330 -0.2048  0.7086
  725MOL0     H97829   7.270   9.527   9.324  0.9079  1.6522 -0.1637
  725MOL0     H97830   7.388   9.650   9.310 -1.6307  0.9032 -1.2139
  725MOL0     H97831   7.365   9.708   9.550  0.2657  0.8977 -0.8487
  725MOL0     H97832   7.239   9.576   9.557  2.4275 -2.0726 -0.8061
  725MOL0     H97833   7.219   9.844   9.392 -3.4225  1.1175 -1.4368
  725MOL0     H97834   7.157   9.805   9.555  0.7992  0.2614  0.3815
  725MOL0     H97835   7.061   9.910   9.232 -1.3192  3.1907 -2.1035
  725MOL0     H97836   6.801  10.031   9.049  0.8012 -1.5022  0.0047
  725MOL0     H97837   6.872  10.157   9.150 -1.2509 -0.4021  0.8169
  725MOL0     H97838   6.976  10.030   9.080  0.0220  0.4990  0.3430
  725MOL0     H97839   6.425  10.266   9.381  0.2671  1.7587  0.3763
  725MOL0     H97840   6.239  10.420   9.302 -0.7403  0.2291  0.9731
  725MOL0     H97841   6.167  10.558   8.866  0.2086  1.4018  2.3918
  725MOL0     H97842   6.131  10.381   8.899  0.8747 -0.5356  0.9043
  725MOL0     H97843   5.919  10.458   8.922 -0.7119 -1.0982  2.0394
  725MOL0     H97844   5.970  10.533   9.074 -0.7925 -0.8947 -0.1121
  725MOL0     H97845   5.959  10.699   8.820  1.8864  2.2173 -0.2677
  725MOL0     H97846   6.039  10.737   8.977  0.1803 -1.7891  0.7889
  725MOL0     H97847   5.742  10.666   8.910  0.8550 -1.9469  1.0664
  725MOL0     H97848   5.809  10.699   9.074  2.1048  1.7712  1.3502
  725MOL0     H97849   5.801  10.912   8.839 -1.0342  2.8092  1.1086
  725MOL0     H97850   5.840  10.931   9.012 -1.8041  0.3664  1.0090
  725MOL0     H97851   5.571  10.838   8.903 -0.8724  1.2597 -0.2100
  725MOL0     H97852   5.611  10.837   9.064  0.2748 -1.6928 -1.6418
  725MOL0     H97853   5.636  11.094   8.894  0.4249  1.3489  0.5043
  725MOL0     H97854   5.705  11.089   9.047 -0.2530  1.0689 -1.0077
  725MOL0     H97855   5.492  11.193   9.068 -1.1211 -0.3787  0.0085
  725MOL0     H97856   5.486  11.045   9.160  0.1114  2.1207  0.2372
  725MOL0     H97857   6.350  10.348   8.901 -2.8904 -2.3339  0.5746
  725MOL0     H97858   6.571  10.248   8.959 -0.9474  0.3538 -0.6727
  725MOL0     H97859   6.657   9.880   9.494  0.4165  0.8348 -1.5628
  725MOL0     H97860   6.850   9.713   9.535  1.2550  0.0921 -1.6113
  725MOL0     H97861   8.505   9.085   8.878  2.1353 -1.0164 -0.9330
  725MOL0     H97862   8.632   9.128   8.683  2.9629 -1.0736 -0.3908
  725MOL0     H97863   9.070   9.394   8.617 -2.8385  2.7560 -0.8178
  725MOL0     H97864   9.262   9.445   8.444  0.5008 -0.3209  0.4138
  725MOL0     H97865   9.386   9.526   8.286  1.3807  0.4533 -1.0284
  725MOL0     H97866   9.464   9.377   8.303 -1.8947  1.1042  2.1113
  725MOL0     H97867   9.578   9.517   8.124 -1.5244  0.5829 -0.6832
  725MOL0     H97868   9.430   9.515   8.026 -0.8695  0.8852  0.9022
  725MOL0     H97869   9.435   9.286   7.976 -0.5142  1.1706  0.0239
  725MOL0     H97870   9.522   9.257   8.118 -3.5275  1.2800  2.3880
  725MOL0     H97871   9.703   9.237   7.981 -0.7223 -0.4383  0.7958
  725MOL0     H97872   9.712   9.408   7.968  0.4661 -1.1422 -1.3415
  725MOL0     H97873   9.625   9.306   7.568  0.9356  1.1073 -0.6283
  725MOL0     H97874   9.078   9.244   8.139  0.0634 -1.9089 -0.1426
  725MOL0     H97875   8.879   9.198   8.288  0.7543  0.2743 -0.9142
  726MOL0     O97876   7.344   2.627   4.539 -0.0195  0.6545  0.2001
  726MOL0     C97877   7.281   2.541   4.471  0.3300 -0.1384 -0.3024
  726MOL0     O97878   7.326   2.416   4.453  0.3481 -0.5786  0.3054
  726MOL0     C97879   7.407   2.349   4.536 -0.3330  1.0550 -0.2920
  726MOL0     C97880   7.525   2.409   4.588 -1.2784  0.6655 -0.1318
  726MOL0     C97881   7.615   2.332   4.668 -0.4525 -0.6285 -0.0243
  726MOL0     C97882   7.591   2.203   4.705  0.2300  0.8806  0.0102
  726MOL0     O97883   7.678   2.131   4.784  0.2544 -0.0921  0.4599
  726MOL0     C97884   7.644   2.030   4.872  0.0326 -0.2514  0.8536
  726MOL0     C97885   7.659   1.899   4.794  0.1286  0.2993  0.4790
  726MOL0     C97886   7.574   1.781   4.852  0.3634 -0.5952  0.5189
  726MOL0     C97887   7.614   1.644   4.796 -0.5272 -0.8818  0.0781
  726MOL0     C97888   7.508   1.527   4.824  0.8749 -0.3191  0.0407
  726MOL0     C97889   7.537   1.381   4.772  1.2250 -0.7564  0.2376
  726MOL0     C97890   7.563   1.384   4.622  0.0577 -0.3406 -0.0256
  726MOL0     C97891   7.590   1.238   4.579  0.3717 -0.4119 -0.4745
  726MOL0     N97892   7.580   1.213   4.438  0.1525 -0.5716 -0.3735
  726MOL0     C97893   7.487   1.258   4.352 -0.1651  0.6364  0.3181
  726MOL0     C97894   7.548   1.254   4.230  0.7145  0.1189 -0.2981
  726MOL0     C97895   7.468   1.282   4.104  0.6394 -0.1018  0.5414
  726MOL0     C97896   7.422   1.155   4.043  0.4303 -0.3241  0.2168
  726MOL0     C97897   7.307   1.089   4.115  0.7164 -0.7482  0.2649
  726MOL0     C97898   7.183   1.181   4.140  0.1831  0.6771 -0.0805
  726MOL0     O97899   7.074   1.092   4.186 -0.4458 -0.8321  0.0378
  726MOL0     C97900   6.950   1.152   4.176 -0.2853  0.7765 -0.7351
  726MOL0     C97901   6.913   1.272   4.100 -0.4360  0.3079  0.2378
  726MOL0     C97902   6.771   1.304   4.094 -0.0770 -0.4122  0.1802
  726MOL0     C97903   6.721   1.440   4.036 -0.4250  0.0646  0.2926
  726MOL0     C97904   6.677   1.229   4.163  0.1994 -0.1870 -0.1071
  726MOL0     C97905   6.537   1.255   4.181  0.4705  0.0591 -0.8013
  726MOL0     O97906   6.457   1.139   4.184  0.2606 -1.2589  0.2536
  726MOL0     C97907   6.318   1.158   4.203  0.2453  0.8472  0.9561
  726MOL0     C97908   6.233   1.060   4.252  1.0640  0.0749  0.2571
  726MOL0     C97909   6.096   1.086   4.272 -0.1882 -0.2342 -0.0536
  726MOL0     C97910   6.039   1.198   4.225 -0.0739 -0.5294 -0.1901
  726MOL0     O97911   5.906   1.224   4.228  0.0748  0.7504  0.0791
  726MOL0     C97912   5.812   1.121   4.208 -0.1952  0.0355  0.0305
  726MOL0     C97913   5.675   1.174   4.178 -0.0884  0.0121  0.3633
  726MOL0     C97914   5.672   1.210   4.030  0.1031  0.6315  0.2669
  726MOL0     C97915   5.530   1.234   3.994  0.1005  0.4110  0.2844
  726MOL0     C97916   5.436   1.113   3.978  0.3801 -0.5313 -0.9128
  726MOL0     C97917   5.307   1.145   3.908  0.2633 -0.1678  0.1025
  726MOL0     C97918   5.199   1.227   3.983 -0.3065  0.7481 -0.5896
  726MOL0     C97919   5.091   1.284   3.890 -0.1757  0.2337  0.7828
  726MOL0    Cl97920   4.985   1.394   3.977 -0.2625 -0.6323  0.3546
  726MOL0     C97921   6.119   1.301   4.177  0.7132  0.2362  0.3627
  726MOL0     C97922   6.247   1.277   4.160  0.2806  0.3931  0.7744
  726MOL0     O97923   6.503   1.371   4.202  0.2464 -0.3871 -0.0187
  726MOL0     C97924   6.727   1.121   4.242  0.5595 -0.3209  0.2232
  726MOL0     C97925   6.852   1.075   4.241  0.2655  0.5558  0.2037
  726MOL0     N97926   7.675   1.211   4.243 -0.3244 -0.7930  0.7014
  726MOL0     N97927   7.694   1.192   4.373  1.1530 -0.0255  0.3585
  726MOL0     C97928   7.464   2.145   4.662  0.6473  0.2075  0.0315
  726MOL0     C97929   7.370   2.218   4.579 -0.4371  0.3098  1.0039
  726MOL0     C97930   7.147   2.584   4.406  0.0879 -0.0538 -1.4954
  726MOL0     C97931   7.093   2.717   4.438 -0.0404 -0.1711  0.1155
  726MOL0     C97932   6.976   2.766   4.380 -0.2028  0.3688 -0.2091
  726MOL0     C97933   6.909   2.690   4.288 -0.3797  0.1777  0.4684
  726MOL0     O97934   6.792   2.743   4.237  0.2018  0.7275  0.5992
  726MOL0     C97935   6.715   2.657   4.155 -0.0852 -0.4666  0.5285
  726MOL0     C97936   6.585   2.724   4.121  0.2055  0.2898 -0.6067
  726MOL0     C97937   6.592   2.870   4.074 -0.1746 -0.2215  0.2075
  726MOL0     C97938   6.464   2.927   4.016 -0.8737  0.5822 -0.2083
  726MOL0     C97939   6.436   2.862   3.888 -0.1817 -0.5102 -0.4734
  726MOL0     C97940   6.415   2.785   3.797  0.4380 -0.6004  0.6288
  726MOL0     C97941   6.965   2.566   4.251  0.2360 -0.3708 -1.3019
  726MOL0     C97942   7.088   2.513   4.304 -0.1607  0.3130  0.4205
  726MOL0     H97943   7.554   2.507   4.552 -1.3783  0.9500  0.5388
  726MOL0     H97944   7.716   2.366   4.688 -0.8788  2.5106 -2.4180
  726MOL0     H97945   7.720   2.026   4.951 -0.0974  0.4036  1.0165
  726MOL0     H97946   7.551   2.043   4.928 -0.6257 -2.8039  0.4521
  726MOL0     H97947   7.631   1.910   4.689  0.8405  2.2138  0.4455
  726MOL0     H97948   7.762   1.863   4.787 -0.4564 -1.1090 -2.0379
  726MOL0     H97949   7.571   1.766   4.961  0.5762  0.9677  0.7661
  726MOL0     H97950   7.471   1.801   4.821  0.3947 -0.0829  0.7349
  726MOL0     H97951   7.641   1.645   4.690  0.5738  0.1120  0.3469
  726MOL0     H97952   7.704   1.618   4.852  0.6687 -0.7298 -1.6714
  726MOL0     H97953   7.484   1.516   4.930  2.2613 -3.5844  0.1419
  726MOL0     H97954   7.412   1.557   4.781  0.6991 -3.7838 -2.4136
  726MOL0     H97955   7.618   1.333   4.829  2.6743 -0.6488 -1.6233
  726MOL0     H97956   7.448   1.323   4.794 -0.0575  0.7683 -0.7509
  726MOL0     H97957   7.478   1.414   4.559 -1.6679 -1.2909  1.7749
  726MOL0     H97958   7.649   1.447   4.596 -1.8056  2.1658 -0.5718
  726MOL0     H97959   7.513   1.178   4.629  1.7484  0.2986  2.8239
  726MOL0     H97960   7.690   1.214   4.615 -0.2399 -1.7329  0.4041
  726MOL0     H97961   7.385   1.293   4.359 -1.0459 -1.2839 -1.5130
  726MOL0     H97962   7.386   1.352   4.123 -1.1913 -0.9927 -3.1716
  726MOL0     H97963   7.536   1.334   4.037  0.2474 -1.2500 -0.8017
  726MOL0     H97964   7.503   1.084   4.024  1.0049  0.5989 -1.0519
  726MOL0     H97965   7.401   1.178   3.938  0.6397  0.1286  0.2719
  726MOL0     H97966   7.344   1.041   4.206  0.8900 -0.1638  0.5068
  726MOL0     H97967   7.265   1.014   4.048 -0.4457 -0.5345  0.7294
  726MOL0     H97968   7.172   1.244   4.051  3.5981 -1.1021 -1.9481
  726MOL0     H97969   7.209   1.250   4.221  0.6763  0.6066 -0.1750
  726MOL0     H97970   6.989   1.324   4.042 -0.2991 -0.2792 -0.1201
  726MOL0     H97971   6.617   1.443   4.001  0.0902  0.0834 -1.2647
  726MOL0     H97972   6.736   1.515   4.115  1.2495 -2.0042  2.0616
  726MOL0     H97973   6.788   1.475   3.958 -1.7786 -0.2765 -1.0695
  726MOL0     H97974   6.269   0.969   4.299  0.8917 -0.4374 -0.5862
  726MOL0     H97975   6.051   0.997   4.314 -0.8681 -0.5818 -1.4591
  726MOL0     H97976   5.849   1.053   4.130 -0.7493 -0.7789  0.4597
  726MOL0     H97977   5.808   1.063   4.300 -0.3538  1.2819  0.8306
  726MOL0     H97978   5.605   1.095   4.205  0.7823 -0.7246  0.5145
  726MOL0     H97979   5.643   1.267   4.226 -1.7497  1.3322 -3.0179
  726MOL0     H97980   5.723   1.139   3.965 -0.5067  0.4329 -0.0034
  726MOL0     H97981   5.720   1.306   4.007  0.5372  0.6411  1.1773
  726MOL0     H97982   5.487   1.315   4.054  2.5072 -0.0943  2.9125
  726MOL0     H97983   5.535   1.270   3.891  0.8436  1.2967  0.6248
  726MOL0     H97984   5.420   1.083   4.082  3.8336  0.4869  0.0387
  726MOL0     H97985   5.480   1.039   3.910  1.0981  0.0995 -1.1441
  726MOL0     H97986   5.339   1.200   3.819  0.9752 -1.9488 -0.8101
  726MOL0     H97987   5.264   1.049   3.877  0.2767 -0.4277  0.8791
  726MOL0     H97988   5.242   1.315   4.032 -4.6292  1.6238  2.1946
  726MOL0     H97989   5.151   1.168   4.062  0.1219  1.5605  0.2964
  726MOL0     H97990   5.035   1.210   3.833  0.2607  0.0169  0.6310
  726MOL0     H97991   5.146   1.345   3.818  0.6022 -0.2621  0.9405
  726MOL0     H97992   6.060   1.384   4.142  1.5928 -0.2458 -2.5158
  726MOL0     H97993   6.291   1.365   4.115  1.1260  0.9570  2.6338
  726MOL0     H97994   6.647   1.077   4.300 -1.7489  2.6197 -0.4700
  726MOL0     H97995   6.877   0.988   4.301 -0.0992 -0.7896 -1.5042
  726MOL0     H97996   7.439   2.041   4.676 -0.3508  0.2628 -1.2051
  726MOL0     H97997   7.282   2.166   4.544  2.3826 -4.2341 -0.2046
  726MOL0     H97998   7.133   2.789   4.509  0.7072  0.2808 -0.7469
  726MOL0     H97999   6.929   2.862   4.399 -0.2939  0.8618 -2.6344
  726MOL0     H98000   6.780   2.647   4.068 -1.3974 -0.5673 -0.4690
  726MOL0     H98001   6.696   2.563   4.207 -2.6073  0.5647  1.6774
  726MOL0     H98002   6.517   2.717   4.206  2.6889  0.1788  1.5006
  726MOL0     H98003   6.531   2.658   4.052 -0.8870  0.5210  0.0123
  726MOL0     H98004   6.668   2.885   3.997  1.2687 -3.9490  0.7058
  726MOL0     H98005   6.609   2.936   4.159 -1.4444  1.6132 -0.8864
  726MOL0     H98006   6.465   3.036   4.009  0.2365  0.6483  0.6849
  726MOL0     H98007   6.381   2.913   4.085 -2.5684  0.8820 -2.0718
  726MOL0     H98008   6.380   2.722   3.717 -0.8844  0.4044  0.3823
  726MOL0     H98009   6.916   2.507   4.174 -1.7831  2.2568 -2.1808
  726MOL0     H98010   7.135   2.421   4.270 -0.7220  0.2340 -0.1567
  727MOL0     O98011   6.123   1.999  10.087 -1.2761  0.1284  0.1657
  727MOL0     C98012   6.175   1.890  10.070 -1.0402 -0.0305  0.0332
  727MOL0     O98013   6.234   1.834   9.957 -0.3832 -0.4064 -0.4884
  727MOL0     C98014   6.243   1.908   9.844  0.1837 -0.8974  0.0155
  727MOL0     C98015   6.146   1.982   9.789  0.1660 -0.8355 -0.1561
  727MOL0     C98016   6.167   2.055   9.672  0.1808  0.8036 -1.5978
  727MOL0     C98017   6.292   2.051   9.607  0.2285  0.1984 -0.3063
  727MOL0     O98018   6.336   2.147   9.514 -0.3318  0.4656  0.8128
  727MOL0     C98019   6.268   2.260   9.462  0.0872  1.0340  0.2440
  727MOL0     C98020   6.168   2.214   9.359  0.2241  0.0571  0.0906
  727MOL0     C98021   6.083   2.335   9.319 -0.8596  0.2452 -0.3230
  727MOL0     C98022   5.985   2.292   9.220 -1.0380 -0.5096 -0.4874
  727MOL0     C98023   5.891   2.411   9.179 -0.5210  0.1241 -0.6237
  727MOL0     C98024   5.794   2.356   9.070  0.1248  0.5189 -0.0830
  727MOL0     C98025   5.687   2.457   9.017 -0.0627  0.5779  0.3957
  727MOL0     C98026   5.751   2.577   8.947  0.7021 -0.2406 -0.4374
  727MOL0     N98027   5.656   2.683   8.896 -0.1657 -0.0189  0.1925
  727MOL0     C98028   5.628   2.697   8.762 -0.5770 -0.9702 -0.4171
  727MOL0     C98029   5.559   2.816   8.751 -0.5564  0.2448 -0.5554
  727MOL0     C98030   5.500   2.860   8.624 -0.0346 -1.0696  0.0768
  727MOL0     C98031   5.588   2.954   8.558 -0.2417  0.7484  0.0086
  727MOL0     C98032   5.552   2.978   8.417 -0.9568  0.8504  0.4675
  727MOL0     C98033   5.606   2.860   8.328  0.8884  0.7133 -0.6772
  727MOL0     O98034   5.569   2.883   8.191 -0.0455 -0.6157  0.2307
  727MOL0     C98035   5.603   2.783   8.103 -0.3865 -0.2687 -0.4682
  727MOL0     C98036   5.525   2.792   7.983 -0.0273 -0.7316 -0.6084
  727MOL0     C98037   5.560   2.716   7.871 -1.3175 -0.4043  0.0248
  727MOL0     C98038   5.482   2.722   7.736  0.5758 -0.5637 -0.4624
  727MOL0     C98039   5.669   2.634   7.891  0.7077 -0.0687  0.6495
  727MOL0     C98040   5.709   2.536   7.788  0.1264  0.2855 -0.1395
  727MOL0     O98041   5.654   2.415   7.807  0.0228  0.4487 -0.0543
  727MOL0     C98042   5.673   2.307   7.719  0.0711 -0.0213  0.1543
  727MOL0     C98043   5.673   2.332   7.574 -0.0838  0.6755 -0.0578
  727MOL0     C98044   5.670   2.213   7.497  0.6384  0.4726  0.0421
  727MOL0     C98045   5.690   2.082   7.550 -0.0196 -0.0171  0.1659
  727MOL0     O98046   5.708   1.972   7.468 -0.4414 -0.5234  0.6840
  727MOL0     C98047   5.720   1.992   7.325  0.4845  0.0384  0.2108
  727MOL0     C98048   5.737   1.864   7.241 -0.2008  0.7917 -0.6442
  727MOL0     C98049   5.844   1.770   7.291  0.2566 -0.0456  0.3637
  727MOL0     C98050   5.910   1.700   7.164  0.0584  0.5690 -1.5209
  727MOL0     C98051   6.024   1.605   7.207  0.5597 -0.2089  0.2505
  727MOL0     C98052   6.106   1.532   7.095  0.5958  0.5025  0.4267
  727MOL0     C98053   6.163   1.626   6.993  0.3619 -1.0016 -0.5350
  727MOL0     C98054   6.263   1.557   6.905 -0.9453  0.0714  0.3758
  727MOL0    Cl98055   6.181   1.445   6.790 -0.0977  0.6890  0.3855
  727MOL0     C98056   5.707   2.061   7.680  0.3915 -0.2261 -0.1198
  727MOL0     C98057   5.682   2.164   7.771  0.1481 -0.5598 -0.3267
  727MOL0     O98058   5.802   2.562   7.709 -0.9069 -0.5261 -1.0340
  727MOL0     C98059   5.754   2.630   7.996 -0.6923 -0.3582  0.2279
  727MOL0     C98060   5.730   2.720   8.099  0.5131 -0.2548  0.1392
  727MOL0     N98061   5.544   2.867   8.888 -0.2313  1.6925 -0.4225
  727MOL0     N98062   5.590   2.776   8.967 -0.5186 -0.1258 -0.0556
  727MOL0     C98063   6.390   1.975   9.662  0.6784  0.4053 -0.1719
  727MOL0     C98064   6.368   1.903   9.774  0.1456 -0.5692 -0.6743
  727MOL0     C98065   6.198   1.821  10.193 -0.2712 -1.1422  0.1634
  727MOL0     C98066   6.102   1.806  10.290  0.3425  0.4878  0.6760
  727MOL0     C98067   6.116   1.731  10.400  0.3994  0.7302 -0.6658
  727MOL0     C98068   6.235   1.663  10.436  0.8411 -0.0075  0.2526
  727MOL0     O98069   6.240   1.577  10.545 -0.8867  0.7799 -0.0693
  727MOL0     C98070   6.359   1.496  10.555 -0.2107 -0.5296 -0.6134
  727MOL0     C98071   6.482   1.565  10.625 -0.5700 -0.1538  0.5120
  727MOL0     C98072   6.438   1.633  10.753  0.6525 -0.4558 -0.6942
  727MOL0     C98073   6.544   1.661  10.871 -0.7243  0.6690  0.0850
  727MOL0     C98074   6.655   1.742  10.820 -0.1840 -0.5375 -0.4257
  727MOL0     C98075   6.759   1.795  10.786 -0.3996 -0.1081  0.2610
  727MOL0     C98076   6.332   1.674  10.335  0.1286  0.3701 -0.3910
  727MOL0     C98077   6.326   1.757  10.228  0.8373 -0.3019 -0.2101
  727MOL0     H98078   6.049   1.988   9.836 -0.4106  1.8619 -1.4525
  727MOL0     H98079   6.084   2.117   9.639 -0.0297  1.4619  0.0388
  727MOL0     H98080   6.229   2.312   9.551 -0.2903 -1.2740  1.5158
  727MOL0     H98081   6.345   2.328   9.424 -0.8033  1.6792 -0.4537
  727MOL0     H98082   6.217   2.188   9.264  3.3618 -1.6188  1.9824
  727MOL0     H98083   6.101   2.135   9.393 -0.1455 -0.3256 -1.4327
  727MOL0     H98084   6.037   2.383   9.407 -0.1590 -0.2297  0.3211
  727MOL0     H98085   6.155   2.406   9.276 -1.5801 -0.7454 -3.3788
  727MOL0     H98086   6.036   2.260   9.129 -1.8923  2.7537 -2.2680
  727MOL0     H98087   5.933   2.207   9.265 -0.9409 -0.8724 -1.0510
  727MOL0     H98088   5.832   2.428   9.270  1.8135 -1.4486  1.3288
  727MOL0     H98089   5.948   2.501   9.156  0.7505 -1.1113 -2.5886
  727MOL0     H98090   5.848   2.310   8.986 -2.2424 -1.4677 -0.6266
  727MOL0     H98091   5.739   2.270   9.108  0.9328  0.0415  0.0323
  727MOL0     H98092   5.616   2.415   8.945 -0.3359 -0.3593  1.1808
  727MOL0     H98093   5.638   2.497   9.107 -0.4306  2.1911 -0.4920
  727MOL0     H98094   5.819   2.553   8.864  1.2641  3.4090 -1.2013
  727MOL0     H98095   5.814   2.627   9.021 -0.9830  1.4723 -0.0900
  727MOL0     H98096   5.673   2.638   8.683  3.8971  0.1235  1.0563
  727MOL0     H98097   5.474   2.777   8.556 -2.4399 -0.5085  0.2058
  727MOL0     H98098   5.403   2.907   8.641 -0.9008 -0.5997 -4.6598
  727MOL0     H98099   5.692   2.927   8.574 -0.4985 -0.4743 -0.2587
  727MOL0     H98100   5.578   3.045   8.618  2.2279  0.8264  0.3689
  727MOL0     H98101   5.595   3.077   8.398  0.8299  0.0974  0.3538
  727MOL0     H98102   5.445   2.981   8.397 -0.8098  1.8353 -0.2429
  727MOL0     H98103   5.559   2.766   8.361  4.2947 -0.7334  0.4980
  727MOL0     H98104   5.712   2.836   8.338  0.6068 -1.6591 -2.4780
  727MOL0     H98105   5.436   2.855   7.984 -0.2810 -1.0784  0.7678
  727MOL0     H98106   5.431   2.818   7.724 -0.9387 -1.3257 -0.4208
  727MOL0     H98107   5.549   2.714   7.651  0.4402 -1.7258 -0.4754
  727MOL0     H98108   5.413   2.637   7.726 -1.3538  0.6754  1.3636
  727MOL0     H98109   5.667   2.430   7.527  1.6023  0.4005 -0.9195
  727MOL0     H98110   5.650   2.229   7.391  0.7533 -1.3742 -0.2778
  727MOL0     H98111   5.629   2.044   7.293 -1.1660 -2.4417  0.6522
  727MOL0     H98112   5.807   2.058   7.312 -0.4270  1.1344 -0.6220
  727MOL0     H98113   5.637   1.820   7.235 -0.6051  1.2076  1.8794
  727MOL0     H98114   5.768   1.891   7.140 -1.2434 -1.5093 -1.6327
  727MOL0     H98115   5.804   1.698   7.362 -0.5096 -0.4996 -0.5087
  727MOL0     H98116   5.915   1.823   7.355 -0.3104 -0.4511  1.3420
  727MOL0     H98117   5.839   1.645   7.102  0.9039  0.0396 -2.0325
  727MOL0     H98118   5.953   1.779   7.101 -0.6820  2.1024 -0.1733
  727MOL0     H98119   5.991   1.532   7.282  0.5824 -0.0056  0.4604
  727MOL0     H98120   6.103   1.662   7.258 -0.4382 -0.0620  1.7261
  727MOL0     H98121   6.188   1.471   7.135  1.1319  1.6561  1.1172
  727MOL0     H98122   6.040   1.456   7.053  0.8787  0.6117 -0.2296
  727MOL0     H98123   6.218   1.700   7.052 -1.7851  1.0201 -0.9498
  727MOL0     H98124   6.080   1.671   6.938  1.5727  2.5815  0.3071
  727MOL0     H98125   6.334   1.496   6.962 -2.4947  0.3275  2.7288
  727MOL0     H98126   6.312   1.634   6.846 -2.4896  1.0783  0.3627
  727MOL0     H98127   5.723   1.964   7.725  1.1958  0.3628  0.9189
  727MOL0     H98128   5.674   2.146   7.877 -0.4704 -0.2501 -0.3140
  727MOL0     H98129   5.847   2.576   7.988  0.5437  1.7623 -0.5670
  727MOL0     H98130   5.800   2.725   8.182  1.7137 -0.5075 -0.8256
  727MOL0     H98131   6.489   1.962   9.618  1.1056  0.8082  0.6465
  727MOL0     H98132   6.449   1.844   9.815  2.3465  1.2508 -2.1370
  727MOL0     H98133   6.009   1.857  10.267  1.4126  2.0459 -0.4765
  727MOL0     H98134   6.047   1.737  10.484 -1.7622  3.0626 -2.4568
  727MOL0     H98135   6.313   1.414  10.611  0.5769  0.3573  1.4226
  727MOL0     H98136   6.391   1.453  10.460  0.6326  1.6696 -1.3747
  727MOL0     H98137   6.509   1.645  10.555  2.4542 -0.5088  1.1224
  727MOL0     H98138   6.564   1.495  10.642 -0.7936 -0.4184  0.4910
  727MOL0     H98139   6.374   1.566  10.811  1.4156  0.2941  1.0577
  727MOL0     H98140   6.391   1.728  10.726 -0.0193  0.1624  2.3166
  727MOL0     H98141   6.576   1.562  10.903 -1.9995 -0.4438 -1.8556
  727MOL0     H98142   6.480   1.706  10.947 -0.8894 -0.8310  0.8723
  727MOL0     H98143   6.851   1.834  10.748 -0.8406 -1.0892 -2.0101
  727MOL0     H98144   6.430   1.627  10.346 -0.0291  0.3201  1.1076
  727MOL0     H98145   6.407   1.796  10.166 -0.0975 -0.9851 -1.9415
  728MOL0     O98146   8.707   5.005   8.140 -0.2511 -0.3995  0.2122
  728MOL0     C98147   8.750   5.073   8.049 -0.4064  0.6902  0.2040
  728MOL0     O98148   8.737   5.037   7.921  0.3783 -0.0044  0.6157
  728MOL0     C98149   8.698   4.907   7.890  0.6697  0.6187 -0.2623
  728MOL0     C98150   8.770   4.812   7.813 -0.5598  0.2007 -0.1951
  728MOL0     C98151   8.726   4.682   7.786  0.6397 -0.1867  0.2234
  728MOL0     C98152   8.594   4.646   7.823  0.2078  0.7878 -0.1005
  728MOL0     O98153   8.555   4.518   7.788 -0.3715  0.1811 -0.4688
  728MOL0     C98154   8.496   4.441   7.892 -0.3187 -0.2707  0.3037
  728MOL0     C98155   8.512   4.290   7.856 -0.4101 -0.7595 -0.6439
  728MOL0     C98156   8.405   4.233   7.774 -0.4720 -0.0675 -0.2477
  728MOL0     C98157   8.345   4.330   7.661 -0.0182  0.5553  0.3227
  728MOL0     C98158   8.256   4.256   7.554 -0.2854  0.3687 -0.4742
  728MOL0     C98159   8.346   4.158   7.469  0.5279 -0.3933  0.7194
  728MOL0     C98160   8.283   4.123   7.327 -0.1865  0.1738 -0.0026
  728MOL0     C98161   8.377   4.014   7.254  0.4778 -0.4058  0.0663
  728MOL0     N98162   8.334   3.992   7.112 -0.1743  0.6445  0.1886
  728MOL0     C98163   8.292   3.874   7.047 -0.4545 -0.2081  0.2306
  728MOL0     C98164   8.279   3.909   6.915 -0.2182  0.5675 -0.4328
  728MOL0     C98165   8.241   3.812   6.806  0.6486 -0.0192 -1.4638
  728MOL0     C98166   8.179   3.897   6.699  0.4168 -0.1559  0.1741
  728MOL0     C98167   8.110   3.801   6.594 -0.2200  0.4351  0.3706
  728MOL0     C98168   8.008   3.695   6.652 -0.1767  0.0223 -0.3035
  728MOL0     O98169   7.953   3.619   6.547  0.7025 -0.2065  0.5175
  728MOL0     C98170   7.840   3.538   6.576  0.7306 -0.0934 -0.3592
  728MOL0     C98171   7.746   3.528   6.473 -0.3971 -0.0094 -0.0004
  728MOL0     C98172   7.625   3.474   6.486  0.3775  0.3728  0.9116
  728MOL0     C98173   7.543   3.477   6.356  0.7318  0.2664 -0.0655
  728MOL0     C98174   7.582   3.425   6.610  0.6113  0.1115  0.7828
  728MOL0     C98175   7.450   3.358   6.644  0.0030 -0.6281 -1.5044
  728MOL0     O98176   7.451   3.304   6.763 -0.0998 -0.9746  0.1434
  728MOL0     C98177   7.340   3.306   6.840 -0.8251 -0.7172  0.2641
  728MOL0     C98178   7.269   3.431   6.845 -0.1402 -0.4890 -0.0435
  728MOL0     C98179   7.152   3.440   6.924  1.1064  0.9477 -0.9304
  728MOL0     C98180   7.113   3.329   6.996 -0.3853  0.5785 -0.7517
  728MOL0     O98181   7.011   3.323   7.090 -0.0748 -0.6428 -0.1708
  728MOL0     C98182   6.877   3.335   7.035 -0.7396 -0.9186 -0.1383
  728MOL0     C98183   6.777   3.286   7.142 -0.0645 -0.1924 -0.2544
  728MOL0     C98184   6.650   3.242   7.068  0.2167 -0.2808 -0.0859
  728MOL0     C98185   6.520   3.302   7.131 -0.3313 -0.2788  0.2232
  728MOL0     C98186   6.387   3.234   7.104  0.6071  0.2860  0.2131
  728MOL0     C98187   6.355   3.251   6.952  0.2701  0.8516  0.4757
  728MOL0     C98188   6.230   3.179   6.931  0.3499 -0.4157  0.1775
  728MOL0     C98189   6.191   3.172   6.786  0.1972 -0.3413  0.3274
  728MOL0    Cl98190   6.054   3.076   6.757  0.2822 -0.0490 -0.5035
  728MOL0     C98191   7.188   3.209   6.994 -0.0665 -0.7809 -1.1721
  728MOL0     C98192   7.303   3.204   6.919 -0.1885  0.4254  1.2350
  728MOL0     O98193   7.365   3.334   6.561 -0.2028 -0.4079  0.9151
  728MOL0     C98194   7.678   3.428   6.712 -0.1595 -0.2232 -0.3543
  728MOL0     C98195   7.808   3.474   6.705  0.3367  0.5669  1.0353
  728MOL0     N98196   8.322   4.041   6.908  0.8294  0.3138 -0.5897
  728MOL0     N98197   8.351   4.088   7.027  0.7771 -0.5408  0.2407
  728MOL0     C98198   8.517   4.738   7.894 -0.1381  0.3982  0.9564
  728MOL0     C98199   8.565   4.868   7.930  1.1119 -0.7432  1.0952
  728MOL0     C98200   8.783   5.221   8.071 -0.9975 -0.7845  0.2021
  728MOL0     C98201   8.865   5.297   7.982  0.6571  0.1996 -0.3814
  728MOL0     C98202   8.910   5.434   8.013 -0.0128  0.6153 -0.8769
  728MOL0     C98203   8.867   5.492   8.135  0.4166 -0.9661 -0.3384
  728MOL0     O98204   8.909   5.618   8.180 -0.4193 -0.3369  0.1715
  728MOL0     C98205   8.959   5.698   8.080 -0.8058 -0.8361 -0.4336
  728MOL0     C98206   8.973   5.838   8.133 -0.3107  1.0738 -0.0051
  728MOL0     C98207   9.056   5.838   8.264 -0.4527 -1.0448  0.6662
  728MOL0     C98208   9.211   5.798   8.241  0.8569 -0.4404  1.1377
  728MOL0     C98209   9.269   5.881   8.142  0.7086  0.1976 -0.0468
  728MOL0     C98210   9.315   5.957   8.055  0.1536 -0.7101  0.1288
  728MOL0     C98211   8.788   5.416   8.225 -0.9692  0.1096  0.1961
  728MOL0     C98212   8.762   5.286   8.201  0.1286 -1.2165  0.4586
  728MOL0     H98213   8.868   4.835   7.771 -0.3017  0.3459  0.4674
  728MOL0     H98214   8.792   4.613   7.734 -0.3671 -0.7636 -0.3290
  728MOL0     H98215   8.541   4.468   7.988  2.8608  2.8125 -1.8264
  728MOL0     H98216   8.394   4.477   7.912  0.1341 -0.2883  3.1068
  728MOL0     H98217   8.612   4.276   7.814  0.8623  0.9471  1.5629
  728MOL0     H98218   8.512   4.236   7.951 -0.5812  1.6558  0.8146
  728MOL0     H98219   8.458   4.150   7.727 -2.0849 -1.4851  0.3344
  728MOL0     H98220   8.324   4.193   7.835  0.4385 -0.0982  0.9926
  728MOL0     H98221   8.292   4.412   7.712  0.8990  0.7966  0.9172
  728MOL0     H98222   8.430   4.370   7.605  0.8241 -0.9037  0.5014
  728MOL0     H98223   8.171   4.200   7.594 -3.0842  1.4736 -4.1834
  728MOL0     H98224   8.220   4.338   7.490 -1.9314  1.4128  1.6567
  728MOL0     H98225   8.442   4.210   7.456  0.6018  0.0075  2.5947
  728MOL0     H98226   8.371   4.066   7.522  2.2936 -0.1441  0.3772
  728MOL0     H98227   8.187   4.073   7.340  0.5455 -1.0338  1.0977
  728MOL0     H98228   8.267   4.207   7.260  2.9979 -0.2284 -1.4938
  728MOL0     H98229   8.363   3.918   7.305  4.8386 -1.0961  0.3294
  728MOL0     H98230   8.482   4.044   7.259  0.4377 -0.4788  1.9858
  728MOL0     H98231   8.263   3.783   7.098  0.8029 -0.3398  0.7339
  728MOL0     H98232   8.327   3.761   6.761  0.8221 -0.3883 -0.7186
  728MOL0     H98233   8.182   3.735   6.856  1.7586  0.0567  0.0498
  728MOL0     H98234   8.254   3.964   6.656  0.3901  1.6508  2.7269
  728MOL0     H98235   8.102   3.967   6.732  0.2286  0.9895 -2.4071
  728MOL0     H98236   8.179   3.750   6.526 -0.8784  1.8046 -1.4185
  728MOL0     H98237   8.055   3.868   6.528 -2.1789  1.4955  2.9328
  728MOL0     H98238   7.928   3.752   6.700 -1.5134  0.6450 -3.0906
  728MOL0     H98239   8.053   3.629   6.726 -0.5019 -0.9048 -0.9169
  728MOL0     H98240   7.780   3.583   6.385 -0.2274 -0.8571 -0.4770
  728MOL0     H98241   7.441   3.511   6.379 -1.1646 -4.8760  0.4215
  728MOL0     H98242   7.587   3.540   6.278  1.7729  0.8550  0.9705
  728MOL0     H98243   7.518   3.379   6.313 -1.9409  0.1527  1.4644
  728MOL0     H98244   7.291   3.513   6.777  0.8350  0.1470  1.0179
  728MOL0     H98245   7.087   3.526   6.924 -0.2185  0.0606 -3.5528
  728MOL0     H98246   6.870   3.437   6.996 -1.8539 -0.9320 -0.0152
  728MOL0     H98247   6.873   3.265   6.951  1.5185 -0.6290 -0.5508
  728MOL0     H98248   6.816   3.199   7.195 -1.3920  0.2699  1.5928
  728MOL0     H98249   6.752   3.372   7.204 -1.7265  0.3494 -1.5776
  728MOL0     H98250   6.642   3.133   7.079  1.0317 -0.4376 -0.9689
  728MOL0     H98251   6.648   3.271   6.963  1.6160 -0.5668 -0.2020
  728MOL0     H98252   6.538   3.295   7.239 -0.1642 -1.8661  0.1276
  728MOL0     H98253   6.528   3.403   7.092 -2.8262 -0.8920 -2.1841
  728MOL0     H98254   6.308   3.268   7.172 -0.2781 -1.8899  0.3359
  728MOL0     H98255   6.390   3.128   7.128  2.3556  0.7930  2.5544
  728MOL0     H98256   6.347   3.359   6.937  2.7822  0.8916 -1.2202
  728MOL0     H98257   6.439   3.209   6.896  1.6862  0.4525  2.7596
  728MOL0     H98258   6.150   3.226   6.988  1.2195  1.8859 -0.3927
  728MOL0     H98259   6.240   3.078   6.972  0.9100  0.1510  1.4946
  728MOL0     H98260   6.266   3.130   6.719  0.2048 -0.8269  0.6320
  728MOL0     H98261   6.169   3.274   6.753  1.8438  0.6296  2.0518
  728MOL0     H98262   7.159   3.122   7.052 -1.5746 -0.4445 -1.3881
  728MOL0     H98263   7.374   3.122   6.923  1.0420  1.4534  0.7125
  728MOL0     H98264   7.654   3.391   6.811 -2.2909  0.1218 -0.7018
  728MOL0     H98265   7.878   3.460   6.787 -2.4681 -1.7878  3.2304
  728MOL0     H98266   8.425   4.697   7.934 -1.6641  3.0270  0.3999
  728MOL0     H98267   8.495   4.928   7.986 -1.2100 -0.2595 -2.0423
  728MOL0     H98268   8.885   5.250   7.886 -2.8176 -0.4232 -0.9322
  728MOL0     H98269   8.980   5.472   7.940  2.4404 -1.4826  0.2021
  728MOL0     H98270   9.059   5.669   8.046 -1.0551 -1.3575 -0.7433
  728MOL0     H98271   8.892   5.699   7.993 -0.8764  4.0064 -0.5755
  728MOL0     H98272   8.873   5.882   8.145 -1.2560 -0.8353 -0.5000
  728MOL0     H98273   9.027   5.898   8.059 -2.4557  1.1826 -1.5752
  728MOL0     H98274   9.008   5.776   8.341 -2.0240  0.4462  0.9426
  728MOL0     H98275   9.052   5.938   8.307 -1.3498 -1.6216  2.0125
  728MOL0     H98276   9.207   5.696   8.201 -0.6312 -0.0049  0.1001
  728MOL0     H98277   9.267   5.807   8.335  0.5698 -2.1458  1.5079
  728MOL0     H98278   9.363   6.036   8.000 -1.5788  0.3089  0.0127
  728MOL0     H98279   8.758   5.460   8.320 -1.1204  0.1867  0.1116
  728MOL0     H98280   8.718   5.228   8.282 -0.7410 -0.8194  0.2848
  729MOL0     O98281   6.257   4.053  10.629  0.0655  0.5926 -0.0630
  729MOL0     C98282   6.200   4.036  10.521  0.0268  0.2103  0.3510
  729MOL0     O98283   6.110   4.118  10.461 -0.4107  0.6818  0.1816
  729MOL0     C98284   6.081   4.238  10.529 -0.0711 -0.3359 -0.2668
  729MOL0     C98285   6.060   4.358  10.458  0.2010  0.8359  0.0626
  729MOL0     C98286   5.999   4.472  10.513 -0.1711 -0.5464  0.2857
  729MOL0     C98287   5.963   4.472  10.647  0.1551 -0.0237  0.6934
  729MOL0     O98288   5.897   4.568  10.715 -0.2105  0.5665  0.7407
  729MOL0     C98289   5.925   4.701  10.666  0.0875 -0.2808 -1.1200
  729MOL0     C98290   5.852   4.811  10.741 -0.1440  0.3760 -0.2232
  729MOL0     C98291   5.851   4.778  10.898  0.2747 -0.1158 -1.8199
  729MOL0     C98292   5.741   4.872  10.963 -0.5236  0.2076  0.0843
  729MOL0     C98293   5.733   4.842  11.114 -0.0924 -0.9285 -0.5960
  729MOL0     C98294   5.797   4.964  11.190  0.8018  0.2087  0.6118
  729MOL0     C98295   5.819   4.948  11.337  0.1803 -0.2628  0.0031
  729MOL0     C98296   5.684   4.958  11.428 -0.2848  0.3177  0.6697
  729MOL0     N98297   5.709   4.999  11.566 -0.3109 -0.3502 -0.0543
  729MOL0     C98298   5.774   4.923  11.657  0.0747 -0.2095  0.0407
  729MOL0     C98299   5.769   4.991  11.771 -0.2392  0.1697 -0.3243
  729MOL0     C98300   5.823   4.940  11.908 -1.0019  0.2751  0.0723
  729MOL0     C98301   5.755   5.000  12.031 -0.0237 -0.4204 -0.7060
  729MOL0     C98302   5.794   4.924  12.162 -0.8600  0.0373  0.4405
  729MOL0     C98303   5.736   4.996  12.279  0.0374  0.2152 -0.5775
  729MOL0     O98304   5.809   5.120  12.311  0.6313  0.3062 -0.4960
  729MOL0     C98305   5.804   5.173  12.434  0.4742  0.1652 -0.6407
  729MOL0     C98306   5.908   5.257  12.480  0.3532  1.4479 -0.1363
  729MOL0     C98307   5.930   5.304  12.613 -0.1412  0.9606 -0.5316
  729MOL0     C98308   6.049   5.390  12.632 -0.2362  0.1109 -0.8941
  729MOL0     C98309   5.834   5.265  12.708 -0.5880 -0.1240 -0.3111
  729MOL0     C98310   5.850   5.304  12.850  0.0782  0.2667 -0.7060
  729MOL0     O98311   5.724   5.311  12.913  0.3406  0.6472  0.1002
  729MOL0     C98312   5.722   5.333  13.047  0.5239  0.7008  0.3993
  729MOL0     C98313   5.810   5.422  13.117 -0.3553  0.2792 -0.1448
  729MOL0     C98314   5.787   5.460  13.249  0.1628 -0.3896  0.4288
  729MOL0     C98315   5.675   5.410  13.318 -0.2074 -0.0308 -0.5271
  729MOL0     O98316   5.634   5.447  13.440 -0.5637 -0.2265  0.1698
  729MOL0     C98317   5.733   5.507  13.529  0.2461  0.3435 -1.1606
  729MOL0     C98318   5.733   5.654  13.515  0.2905 -0.2453 -0.4388
  729MOL0     C98319   5.599   5.725  13.555 -0.8004  0.0318 -1.1315
  729MOL0     C98320   5.625   5.871  13.536 -0.1888 -0.0795 -0.1648
  729MOL0     C98321   5.680   5.924  13.670  0.0942  0.0505 -0.3062
  729MOL0     C98322   5.707   6.071  13.670 -0.1153 -0.1199 -1.4701
  729MOL0     C98323   5.794   6.110  13.538  0.3616 -0.2775 -1.0500
  729MOL0     C98324   5.856   6.243  13.541 -0.2408 -0.0959  0.0925
  729MOL0    Cl98325   5.900   6.274  13.365  0.2604  0.4238  0.2116
  729MOL0     C98326   5.585   5.334  13.252  0.7082  0.9073  0.2598
  729MOL0     C98327   5.613   5.289  13.116  1.0375  0.7490 -0.0482
  729MOL0     O98328   5.959   5.294  12.904  0.0786  0.5757 -0.2032
  729MOL0     C98329   5.736   5.180  12.669  0.8185 -0.5699  0.6158
  729MOL0     C98330   5.720   5.131  12.536 -0.5983  0.0406  0.4207
  729MOL0     N98331   5.695   5.108  11.759 -0.6308  1.1655 -0.1517
  729MOL0     N98332   5.665   5.105  11.635  0.5428 -0.2022  0.8880
  729MOL0     C98333   5.973   4.356  10.719  0.2688  0.3728 -0.7178
  729MOL0     C98334   6.038   4.238  10.665 -0.1398  0.3187 -0.1289
  729MOL0     C98335   6.223   3.906  10.453  0.1808 -0.0688 -0.4694
  729MOL0     C98336   6.122   3.847  10.373  0.3385  0.6923  0.3123
  729MOL0     C98337   6.146   3.729  10.298 -0.9940  0.2375  0.1274
  729MOL0     C98338   6.274   3.662  10.313  0.2465  0.2336 -0.2098
  729MOL0     O98339   6.296   3.556  10.234  0.6037 -0.4628  0.0746
  729MOL0     C98340   6.400   3.464  10.271  0.6417  0.5310 -0.5176
  729MOL0     C98341   6.407   3.345  10.174 -0.3673 -0.0216  0.1246
  729MOL0     C98342   6.287   3.249  10.184  0.1586 -0.2272 -0.3904
  729MOL0     C98343   6.271   3.165  10.057  0.5937 -0.1106 -0.0432
  729MOL0     C98344   6.224   3.032  10.102  0.1697 -0.3751  0.6789
  729MOL0     C98345   6.199   2.923  10.152 -0.5913 -0.2828 -0.9719
  729MOL0     C98346   6.375   3.722  10.386 -0.2164  0.7984  0.2616
  729MOL0     C98347   6.348   3.832  10.466 -0.3739  0.2535 -0.3465
  729MOL0     H98348   6.054   4.350  10.350  0.8376  2.2292 -0.1001
  729MOL0     H98349   5.981   4.559  10.451 -1.6124  0.1248  1.5996
  729MOL0     H98350   6.034   4.712  10.674 -0.0162 -0.0756  0.2101
  729MOL0     H98351   5.887   4.706  10.563 -5.1256 -3.1222  0.3145
  729MOL0     H98352   5.910   4.903  10.737  1.4898 -0.6132 -0.3576
  729MOL0     H98353   5.750   4.827  10.706 -0.4760  0.4006  0.7283
  729MOL0     H98354   5.831   4.673  10.919 -2.8130  0.8833  1.0240
  729MOL0     H98355   5.949   4.801  10.942 -1.5952  1.5945  1.9102
  729MOL0     H98356   5.763   4.978  10.950  1.1693  0.0735  1.4481
  729MOL0     H98357   5.646   4.860  10.910 -0.3536  4.4088 -1.6001
  729MOL0     H98358   5.631   4.831  11.153 -0.6366 -1.5700 -2.1254
  729MOL0     H98359   5.789   4.750  11.134  0.4216 -0.4353  0.2790
  729MOL0     H98360   5.899   4.974  11.151  1.5910  1.6506  2.8365
  729MOL0     H98361   5.735   5.052  11.170 -0.6470 -0.7563  0.7088
  729MOL0     H98362   5.860   4.853  11.374  4.0312  0.1904 -2.5368
  729MOL0     H98363   5.891   5.022  11.372  1.8746 -1.7822 -0.1315
  729MOL0     H98364   5.637   4.859  11.429 -2.6900  1.3724  2.5387
  729MOL0     H98365   5.626   5.043  11.391  0.3683 -0.4028 -2.2858
  729MOL0     H98366   5.824   4.828  11.645 -4.2230 -2.6124 -0.8139
  729MOL0     H98367   5.809   4.831  11.913  1.4528 -0.0444  1.1537
  729MOL0     H98368   5.932   4.946  11.904 -1.0376  0.6596 -3.7406
  729MOL0     H98369   5.647   5.006  12.013  0.2604  1.1501 -2.1222
  729MOL0     H98370   5.788   5.104  12.038 -3.0421  0.5584  0.8443
  729MOL0     H98371   5.903   4.912  12.161 -0.6388  0.0879 -4.8641
  729MOL0     H98372   5.759   4.821  12.146  1.1092 -0.9193  1.8198
  729MOL0     H98373   5.735   4.923  12.361 -0.4875 -0.0626 -0.8259
  729MOL0     H98374   5.635   5.028  12.251 -0.3185 -0.8584 -0.5665
  729MOL0     H98375   5.984   5.281  12.407  3.4689 -2.5534  1.4388
  729MOL0     H98376   6.143   5.336  12.651  0.1890  1.5084  1.2118
  729MOL0     H98377   6.062   5.435  12.533 -3.5747 -2.8459 -2.9517
  729MOL0     H98378   6.034   5.462  12.712 -0.4247 -0.3937 -0.4717
  729MOL0     H98379   5.899   5.465  13.074  0.9570 -2.4565 -0.3985
  729MOL0     H98380   5.848   5.535  13.299 -1.0240  0.5540  0.4900
  729MOL0     H98381   5.708   5.498  13.636  1.2728 -0.1360 -0.9554
  729MOL0     H98382   5.832   5.467  13.510  0.7959  1.7547 -1.3964
  729MOL0     H98383   5.823   5.696  13.561  0.0322 -0.7531  0.5409
  729MOL0     H98384   5.754   5.666  13.408  0.3328 -2.5565 -0.7326
  729MOL0     H98385   5.571   5.702  13.658  1.4539  1.5448 -0.1008
  729MOL0     H98386   5.514   5.693  13.494  1.2536 -1.3937 -3.4632
  729MOL0     H98387   5.677   5.904  13.445  0.2842  5.2921  1.7058
  729MOL0     H98388   5.534   5.931  13.522 -0.3600 -0.4102 -0.5218
  729MOL0     H98389   5.776   5.874  13.687 -0.2702 -0.5889 -0.0671
  729MOL0     H98390   5.609   5.897  13.750 -0.9047 -1.2110 -1.5677
  729MOL0     H98391   5.625   6.143  13.672  2.1183  2.6083 -0.5228
  729MOL0     H98392   5.759   6.085  13.765  1.8270  0.0193 -2.4883
  729MOL0     H98393   5.715   6.128  13.464 -3.2528 -2.7349  1.8578
  729MOL0     H98394   5.860   6.031  13.502  0.3469  0.0165 -1.7530
  729MOL0     H98395   5.952   6.238  13.593  0.6632 -0.6048 -1.5555
  729MOL0     H98396   5.791   6.319  13.585  1.3288  0.0470  2.2683
  729MOL0     H98397   5.499   5.298  13.307 -0.1613  3.1301  0.4437
  729MOL0     H98398   5.538   5.234  13.059  2.5426 -0.9002 -0.5504
  729MOL0     H98399   5.658   5.150  12.740 -1.8713  1.0360 -1.4611
  729MOL0     H98400   5.643   5.054  12.533  1.5893 -2.2632 -1.3858
  729MOL0     H98401   5.938   4.354  10.822  0.2485 -0.1879 -0.7368
  729MOL0     H98402   6.028   4.148  10.725 -0.8686  1.6639  1.8835
  729MOL0     H98403   6.025   3.894  10.359  0.5000  0.4934 -1.8736
  729MOL0     H98404   6.069   3.679  10.241 -0.0996  0.7526 -1.6085
  729MOL0     H98405   6.491   3.524  10.278 -0.3024  2.3467 -2.6096
  729MOL0     H98406   6.392   3.423  10.373  0.6829  0.9534 -0.3405
  729MOL0     H98407   6.498   3.292  10.203 -0.5160 -0.1070  0.4408
  729MOL0     H98408   6.418   3.388  10.074 -0.5823  0.0706  0.1398
  729MOL0     H98409   6.194   3.307  10.181 -0.1170 -0.6658 -0.3693
  729MOL0     H98410   6.282   3.193  10.278  0.7195 -0.7189 -0.6482
  729MOL0     H98411   6.369   3.157  10.007  0.5473 -2.0408  0.0674
  729MOL0     H98412   6.192   3.198   9.990 -2.0813 -2.2937  1.8015
  729MOL0     H98413   6.160   2.836  10.200 -0.3694  0.6432  0.9750
  729MOL0     H98414   6.478   3.688  10.384  0.8136  3.3722  2.5387
  729MOL0     H98415   6.425   3.870  10.531 -1.4160 -2.1442  2.5137
  730MOL0     O98416   2.733   4.318   5.280 -0.1094  0.4057 -0.1751
  730MOL0     C98417   2.627   4.356   5.234 -0.2887  0.0162  0.1028
  730MOL0     O98418   2.572   4.476   5.262 -0.2191 -0.2879 -0.5036
  730MOL0     C98419   2.634   4.567   5.340 -0.8316 -0.8126  0.2556
  730MOL0     C98420   2.656   4.527   5.476 -1.0121 -0.5160  0.2695
  730MOL0     C98421   2.709   4.622   5.567  0.5170 -0.6472  0.4983
  730MOL0     C98422   2.737   4.754   5.532 -0.7029  0.3947 -0.3437
  730MOL0     O98423   2.795   4.835   5.626  0.9558  0.0804  0.0825
  730MOL0     C98424   2.937   4.841   5.634  0.3539  0.9891  0.7625
  730MOL0     C98425   2.989   4.925   5.749 -0.2535 -0.0583 -0.4088
  730MOL0     C98426   3.002   5.072   5.709 -0.5976 -0.1082  0.0080
  730MOL0     C98427   3.046   5.160   5.831  0.7749 -0.1952  0.9187
  730MOL0     C98428   3.005   5.306   5.817  0.1904 -0.3902  0.8321
  730MOL0     C98429   3.093   5.368   5.703  0.2662  0.9663  0.2353
  730MOL0     C98430   3.242   5.404   5.747 -0.1834  0.4433  0.3752
  730MOL0     C98431   3.338   5.406   5.634  0.8243 -0.4067 -0.4301
  730MOL0     N98432   3.478   5.460   5.664  0.8649  0.2290 -0.0542
  730MOL0     C98433   3.576   5.391   5.726 -0.6574  0.4509  0.6881
  730MOL0     C98434   3.684   5.478   5.723  0.2268 -0.5972  0.8004
  730MOL0     C98435   3.816   5.432   5.773 -0.0865  0.4585  0.4260
  730MOL0     C98436   3.926   5.416   5.673  0.2551  0.1507  0.7035
  730MOL0     C98437   3.864   5.364   5.541 -0.2930 -1.2045 -0.1428
  730MOL0     C98438   3.981   5.330   5.446 -0.1198 -0.9104 -1.2498
  730MOL0     O98439   4.055   5.211   5.487 -0.2378 -0.1434  0.2467
  730MOL0     C98440   4.008   5.085   5.463  0.1864  0.2145 -0.0613
  730MOL0     C98441   3.878   5.045   5.409  0.1787 -0.6043 -0.3410
  730MOL0     C98442   3.839   4.911   5.388 -0.5806 -0.6160 -0.0256
  730MOL0     C98443   3.695   4.899   5.345  0.4056 -0.2838 -0.5625
  730MOL0     C98444   3.935   4.811   5.404  0.1967 -0.7611  0.2287
  730MOL0     C98445   3.904   4.671   5.377  0.5596 -0.0109  0.0855
  730MOL0     O98446   4.006   4.599   5.326  0.1519 -0.0419  0.1146
  730MOL0     C98447   4.019   4.463   5.349 -0.1448  1.1064  0.1023
  730MOL0     C98448   4.077   4.386   5.249 -0.8286  0.1764  0.2022
  730MOL0     C98449   4.080   4.246   5.269 -0.0640 -0.1161 -0.0736
  730MOL0     C98450   4.020   4.183   5.373  1.5276 -0.8539 -0.6212
  730MOL0     O98451   4.020   4.052   5.384 -0.2083  0.6899 -0.3366
  730MOL0     C98452   3.905   3.975   5.341 -0.1266 -0.6840 -0.2063
  730MOL0     C98453   3.940   3.825   5.316 -0.1723 -0.9250  0.5711
  730MOL0     C98454   3.983   3.744   5.426  0.2050 -0.0275  0.2757
  730MOL0     C98455   4.010   3.604   5.375 -0.8298  0.7086  0.5746
  730MOL0     C98456   4.058   3.517   5.494  0.5053  0.0704 -0.8236
  730MOL0     C98457   3.949   3.476   5.591 -0.6632  0.8349 -0.0797
  730MOL0     C98458   3.987   3.384   5.717  0.1055 -0.1332 -0.5016
  730MOL0     C98459   4.091   3.272   5.693  0.4985  0.2390  0.2438
  730MOL0    Cl98460   4.038   3.173   5.561  0.6717 -0.4063  0.1538
  730MOL0     C98461   3.971   4.255   5.482  0.5448  0.7062  0.4074
  730MOL0     C98462   3.963   4.394   5.470 -0.1485  0.3803 -0.0598
  730MOL0     O98463   3.808   4.621   5.429 -0.4785  0.7083 -0.5745
  730MOL0     C98464   4.065   4.841   5.456  0.6792 -0.1163  0.7242
  730MOL0     C98465   4.100   4.977   5.484 -1.1687 -0.0943 -0.4115
  730MOL0     N98466   3.643   5.606   5.683  0.1254  0.0033 -0.2424
  730MOL0     N98467   3.519   5.585   5.650 -0.0217  0.0931 -0.9939
  730MOL0     C98468   2.708   4.801   5.400 -1.2916 -0.0527 -0.4412
  730MOL0     C98469   2.654   4.707   5.310 -0.0193 -0.2050 -0.1157
  730MOL0     C98470   2.562   4.273   5.133  0.7902 -0.0151  0.2798
  730MOL0     C98471   2.425   4.279   5.103  0.5979 -0.1907 -0.1787
  730MOL0     C98472   2.374   4.190   5.006  0.6961  0.0742  0.1007
  730MOL0     C98473   2.454   4.103   4.934  0.6458 -0.2665 -0.4569
  730MOL0     O98474   2.393   4.009   4.859 -0.0660 -0.1994 -0.1478
  730MOL0     C98475   2.469   3.900   4.797 -0.0259 -0.4909 -0.7073
  730MOL0     C98476   2.351   3.818   4.729 -0.6214  0.8155  1.0499
  730MOL0     C98477   2.407   3.712   4.653 -0.7168 -0.1852  0.3489
  730MOL0     C98478   2.469   3.603   4.739  0.6236  0.3738 -0.1245
  730MOL0     C98479   2.356   3.544   4.810 -0.0124  0.9363 -1.1919
  730MOL0     C98480   2.261   3.488   4.853  0.3825  0.9263  0.8525
  730MOL0     C98481   2.596   4.103   4.960 -0.0410  0.6118  0.8831
  730MOL0     C98482   2.640   4.191   5.053  0.4858  1.0277  0.6595
  730MOL0     H98483   2.631   4.434   5.526 -1.1423  0.5403  2.2985
  730MOL0     H98484   2.707   4.589   5.670  0.8999 -1.2308  0.3206
  730MOL0     H98485   2.966   4.736   5.639 -0.3974  0.7470  0.1440
  730MOL0     H98486   2.985   4.881   5.544  3.2837 -1.4894  1.0581
  730MOL0     H98487   2.908   4.919   5.823  1.1553 -2.9075  1.0567
  730MOL0     H98488   3.084   4.887   5.786  0.2425  0.8436 -0.7495
  730MOL0     H98489   3.082   5.078   5.635 -2.2299  1.2236 -1.7502
  730MOL0     H98490   2.912   5.122   5.672  2.0317  5.0332 -0.2186
  730MOL0     H98491   2.984   5.122   5.912  1.0607  1.0069  1.7355
  730MOL0     H98492   3.153   5.157   5.854  0.9294 -0.1890  0.2362
  730MOL0     H98493   2.901   5.307   5.782  0.4246  0.2966  0.1120
  730MOL0     H98494   3.014   5.366   5.908 -1.2031 -0.2423  0.8916
  730MOL0     H98495   3.087   5.298   5.619  2.0711 -2.0163  2.3606
  730MOL0     H98496   3.045   5.462   5.678  2.8746  2.5957  0.8917
  730MOL0     H98497   3.233   5.501   5.796 -2.8753  1.6878 -2.2064
  730MOL0     H98498   3.260   5.321   5.816  2.4734 -0.6575 -1.4840
  730MOL0     H98499   3.293   5.471   5.558  0.3880  0.2556  0.3719
  730MOL0     H98500   3.335   5.307   5.590 -4.1909 -1.0150  0.6387
  730MOL0     H98501   3.548   5.290   5.757 -2.9459  0.4558 -1.1141
  730MOL0     H98502   3.852   5.513   5.836  1.7587  2.0254 -2.4467
  730MOL0     H98503   3.809   5.333   5.819 -3.6260 -0.5693 -1.8339
  730MOL0     H98504   3.995   5.350   5.727 -2.0059 -1.3812  1.9008
  730MOL0     H98505   3.960   5.518   5.651  2.8499 -0.7220  0.3437
  730MOL0     H98506   3.798   5.445   5.507 -0.6006 -1.8323 -1.0952
  730MOL0     H98507   3.797   5.278   5.540  1.4766 -2.6311 -0.5837
  730MOL0     H98508   4.057   5.409   5.439 -2.0532  1.3101  0.9347
  730MOL0     H98509   3.933   5.315   5.349 -1.1351  3.4161 -1.6084
  730MOL0     H98510   3.807   5.124   5.386  2.0247  2.0050  2.1954
  730MOL0     H98511   3.680   4.972   5.265 -0.5740  1.3836  1.0620
  730MOL0     H98512   3.686   4.797   5.308  2.8472 -0.4263 -0.9628
  730MOL0     H98513   3.624   4.907   5.427  0.4482  0.6054 -0.6018
  730MOL0     H98514   4.110   4.432   5.156  1.4381 -0.3445  0.6828
  730MOL0     H98515   4.108   4.206   5.172 -5.1821 -1.3201 -1.3771
  730MOL0     H98516   3.816   3.996   5.402  1.6320  0.6995  2.0688
  730MOL0     H98517   3.883   4.018   5.243 -1.4376  2.9384  1.4828
  730MOL0     H98518   3.842   3.795   5.279 -0.9635 -1.0132  2.5969
  730MOL0     H98519   4.017   3.838   5.240  0.6497 -0.6811  1.4180
  730MOL0     H98520   3.902   3.746   5.499 -1.0617  0.2847 -1.0836
  730MOL0     H98521   4.082   3.781   5.454 -0.1117  0.7229  0.4336
  730MOL0     H98522   3.923   3.572   5.317 -0.6813  2.3910 -0.6526
  730MOL0     H98523   4.099   3.619   5.312 -2.0331  1.8762 -0.9413
  730MOL0     H98524   4.124   3.580   5.555 -0.8525 -0.5061  1.3357
  730MOL0     H98525   4.111   3.429   5.456 -1.2417 -1.6497  0.5417
  730MOL0     H98526   3.898   3.568   5.621  0.3017  1.5653 -0.6002
  730MOL0     H98527   3.879   3.418   5.531 -0.8792  2.5034 -1.5247
  730MOL0     H98528   3.892   3.335   5.741  0.6087 -1.6706 -1.4666
  730MOL0     H98529   4.025   3.440   5.803  0.3048 -0.8283 -0.1287
  730MOL0     H98530   4.102   3.208   5.780  0.0245 -2.1489 -1.3539
  730MOL0     H98531   4.190   3.315   5.674  1.0995 -0.9441  0.6042
  730MOL0     H98532   3.937   4.189   5.561 -1.3207  1.4084  0.2411
  730MOL0     H98533   3.924   4.449   5.555  1.7418  1.7885 -0.0406
  730MOL0     H98534   4.134   4.759   5.473 -0.1384 -0.6229  1.6808
  730MOL0     H98535   4.192   5.001   5.537 -0.2222 -0.6821 -1.7361
  730MOL0     H98536   2.725   4.904   5.372 -0.8741  0.2516  0.8482
  730MOL0     H98537   2.630   4.743   5.211 -1.2481  0.5705  0.4551
  730MOL0     H98538   2.354   4.346   5.149  1.6134 -1.1521  3.0897
  730MOL0     H98539   2.271   4.183   4.972  0.4611  2.1418  0.2690
  730MOL0     H98540   2.545   3.936   4.727  0.6977 -0.8469 -0.1112
  730MOL0     H98541   2.520   3.849   4.878  1.7443  0.8595 -0.8958
  730MOL0     H98542   2.304   3.892   4.663 -4.5002 -1.3455  1.0864
  730MOL0     H98543   2.264   3.785   4.786 -0.3263 -1.9920  0.0576
  730MOL0     H98544   2.480   3.742   4.578 -0.2384  1.8997  1.5630
  730MOL0     H98545   2.334   3.662   4.588  1.3179 -1.9103 -0.7349
  730MOL0     H98546   2.544   3.634   4.812 -0.6827 -1.4570  2.1621
  730MOL0     H98547   2.494   3.521   4.671 -1.8078 -0.8752  0.3426
  730MOL0     H98548   2.169   3.444   4.886  0.4374 -0.5753 -0.8602
  730MOL0     H98549   2.665   4.033   4.913 -3.4756 -1.1054 -2.0419
  730MOL0     H98550   2.748   4.197   5.055  0.9373 -3.2470 -0.3541
  731MOL0     O98551   3.019   3.564   1.965  0.4699  0.7770 -0.7118
  731MOL0     C98552   3.009   3.443   1.990 -0.1940  0.2178 -0.5366
  731MOL0     O98553   3.090   3.366   2.065  0.1157 -0.1794  0.7213
  731MOL0     C98554   3.210   3.412   2.097 -0.9754  0.2821 -0.1400
  731MOL0     C98555   3.271   3.356   2.216  0.5730 -0.2240  0.3209
  731MOL0     C98556   3.395   3.392   2.255 -0.8723  0.7101 -0.3070
  731MOL0     C98557   3.484   3.475   2.176  0.4543  0.1799 -0.4053
  731MOL0     O98558   3.607   3.509   2.224 -0.3398 -0.7180  0.6394
  731MOL0     C98559   3.616   3.586   2.344 -0.5177 -0.1720  0.6633
  731MOL0     C98560   3.747   3.662   2.349 -0.8081  0.4358 -0.3297
  731MOL0     C98561   3.732   3.800   2.410  0.2156  0.1439 -0.5410
  731MOL0     C98562   3.878   3.855   2.433  0.2518 -0.5983  0.7321
  731MOL0     C98563   3.877   3.984   2.513 -0.1409 -0.2355  0.0225
  731MOL0     C98564   3.999   4.071   2.490  0.5590  0.4075  0.0138
  731MOL0     C98565   4.005   4.183   2.588  0.1550 -0.1495 -0.1724
  731MOL0     C98566   4.113   4.295   2.568 -0.8679 -0.3291  0.4755
  731MOL0     N98567   4.076   4.431   2.614  0.3250 -1.3031 -0.7340
  731MOL0     C98568   3.982   4.517   2.556  0.3130  0.2853 -0.3441
  731MOL0     C98569   3.983   4.620   2.640 -0.4003  0.5345 -0.4238
  731MOL0     C98570   3.876   4.719   2.634  0.2726 -0.1833  0.1698
  731MOL0     C98571   3.742   4.650   2.695 -0.4555  0.0369  0.3675
  731MOL0     C98572   3.628   4.752   2.689 -0.0681 -0.6583  0.8620
  731MOL0     C98573   3.500   4.671   2.723 -1.1376 -1.3864 -0.1547
  731MOL0     O98574   3.485   4.594   2.601 -0.2660 -0.1937  0.2046
  731MOL0     C98575   3.388   4.493   2.591  0.4281  0.7809 -0.3164
  731MOL0     C98576   3.307   4.446   2.696 -0.1124 -0.1641 -0.4295
  731MOL0     C98577   3.212   4.351   2.673 -0.0471  0.5277 -0.6095
  731MOL0     C98578   3.145   4.304   2.801  0.1104 -0.5479 -0.2072
  731MOL0     C98579   3.177   4.304   2.545 -0.3665  0.0638  0.1527
  731MOL0     C98580   3.058   4.226   2.511  0.0957  0.8677  0.2325
  731MOL0     O98581   2.949   4.225   2.594 -0.0537  0.2989 -0.1869
  731MOL0     C98582   2.817   4.188   2.547 -0.8031 -0.2423 -0.4109
  731MOL0     C98583   2.789   4.080   2.459  0.7639  0.1370  0.5236
  731MOL0     C98584   2.656   4.050   2.429 -0.8697  0.9206  0.0309
  731MOL0     C98585   2.549   4.136   2.467 -0.1926  0.1281 -0.5231
  731MOL0     O98586   2.421   4.103   2.425 -0.1277  0.0197 -0.1635
  731MOL0     C98587   2.317   4.167   2.503 -0.6474 -0.8133 -0.3998
  731MOL0     C98588   2.184   4.102   2.465  0.0016 -1.2908 -0.0586
  731MOL0     C98589   2.194   3.956   2.505  0.0902 -0.9979  0.2384
  731MOL0     C98590   2.051   3.891   2.490 -0.9806 -0.2991 -1.0202
  731MOL0     C98591   2.024   3.754   2.510 -0.4529 -0.8560  0.5897
  731MOL0     C98592   2.033   3.702   2.658  0.0915 -0.8216  0.5039
  731MOL0     C98593   1.991   3.799   2.769  0.5962  0.1624 -0.8380
  731MOL0     C98594   1.833   3.821   2.793 -0.2566  0.9663 -0.8840
  731MOL0    Cl98595   1.805   3.893   2.958  0.0097  0.4163  0.2050
  731MOL0     C98596   2.581   4.244   2.554 -0.6894  0.3579  0.3842
  731MOL0     C98597   2.714   4.261   2.592  0.2067  0.0173 -0.4712
  731MOL0     O98598   3.067   4.168   2.403  0.2546 -0.1623  0.3532
  731MOL0     C98599   3.254   4.354   2.440  0.0061 -0.6273  0.3562
  731MOL0     C98600   3.358   4.448   2.462 -0.0711  0.8541  0.1966
  731MOL0     N98601   4.077   4.604   2.741  0.3130  0.1415  0.7109
  731MOL0     N98602   4.139   4.494   2.728  0.2833  0.2942 -0.4564
  731MOL0     C98603   3.424   3.532   2.063 -0.0200  0.4465 -0.4749
  731MOL0     C98604   3.290   3.501   2.019  0.6909 -0.0351 -0.5839
  731MOL0     C98605   2.889   3.376   1.937  0.1199 -0.1010  0.8924
  731MOL0     C98606   2.826   3.431   1.831  0.1608  0.7725 -0.6702
  731MOL0     C98607   2.732   3.363   1.754 -0.2105  0.5733  0.0907
  731MOL0     C98608   2.687   3.240   1.804  0.3464  1.0285 -0.3567
  731MOL0     O98609   2.585   3.154   1.750 -0.3798 -0.3031 -0.2418
  731MOL0     C98610   2.506   3.201   1.637 -0.0907  0.0155  0.7458
  731MOL0     C98611   2.378   3.279   1.676  0.2238 -1.3045 -0.8451
  731MOL0     C98612   2.297   3.206   1.780  0.0472 -0.2418  0.0175
  731MOL0     C98613   2.173   3.296   1.814 -0.0267  0.3679  0.5193
  731MOL0     C98614   2.049   3.250   1.741 -0.2092 -0.4244  0.5066
  731MOL0     C98615   1.954   3.215   1.677 -0.1079  0.1316 -0.6067
  731MOL0     C98616   2.746   3.184   1.914  1.4588 -0.6065 -0.5762
  731MOL0     C98617   2.856   3.244   1.971 -0.1329 -0.1635 -0.1004
  731MOL0     H98618   3.231   3.278   2.279  4.9150 -2.7216  0.3672
  731MOL0     H98619   3.449   3.345   2.336 -0.0095  1.6450 -0.3110
  731MOL0     H98620   3.535   3.659   2.344  1.3263  2.1119 -2.5474
  731MOL0     H98621   3.599   3.509   2.421  2.2456 -0.8319  0.7008
  731MOL0     H98622   3.810   3.593   2.405 -2.7842 -1.4661 -0.3476
  731MOL0     H98623   3.788   3.673   2.248 -1.2146  0.9725 -0.4418
  731MOL0     H98624   3.670   3.863   2.347 -0.1647  1.7464  1.3596
  731MOL0     H98625   3.691   3.795   2.512 -1.2454  0.9078 -1.0718
  731MOL0     H98626   3.941   3.772   2.465  0.9881  0.0499  0.9838
  731MOL0     H98627   3.916   3.869   2.331 -0.3719 -0.7059  0.4759
  731MOL0     H98628   3.786   4.040   2.491 -0.9730 -1.4429  0.2873
  731MOL0     H98629   3.877   3.954   2.618 -1.2297 -0.7191 -0.1032
  731MOL0     H98630   4.089   4.010   2.479 -0.2203 -0.7248 -0.2404
  731MOL0     H98631   3.994   4.102   2.385  2.2831 -6.6062 -2.7338
  731MOL0     H98632   3.907   4.231   2.592  0.3035  0.1209  0.4290
  731MOL0     H98633   4.024   4.150   2.691  0.7325  4.0786  1.2979
  731MOL0     H98634   4.138   4.300   2.462 -0.3939  2.5810  0.6487
  731MOL0     H98635   4.198   4.245   2.615 -0.9684 -0.7233  0.2380
  731MOL0     H98636   3.909   4.497   2.478 -1.0878  5.1194 -0.6166
  731MOL0     H98637   3.898   4.811   2.690 -1.8516 -0.3134  1.3155
  731MOL0     H98638   3.857   4.755   2.533 -0.1441 -0.3382  0.1912
  731MOL0     H98639   3.765   4.610   2.795 -1.5733  1.1929  1.1160
  731MOL0     H98640   3.711   4.562   2.639 -3.5037  0.6018  0.9926
  731MOL0     H98641   3.615   4.802   2.592 -0.5246  0.6550  1.5677
  731MOL0     H98642   3.648   4.831   2.762  1.5851 -1.8260  1.7349
  731MOL0     H98643   3.404   4.724   2.730 -2.1502 -3.2754  1.4036
  731MOL0     H98644   3.525   4.602   2.804  3.2940  1.4029  1.1632
  731MOL0     H98645   3.329   4.485   2.795  2.5313 -1.6010 -0.3701
  731MOL0     H98646   3.121   4.197   2.795 -1.0632 -0.2725 -0.6127
  731MOL0     H98647   3.194   4.319   2.898  0.1104  1.8383 -0.5340
  731MOL0     H98648   3.041   4.334   2.812 -0.1151 -0.9478 -1.1553
  731MOL0     H98649   2.858   4.025   2.396 -1.9625 -2.1888 -0.6058
  731MOL0     H98650   2.636   3.960   2.371  1.1343 -1.6200  3.0098
  731MOL0     H98651   2.332   4.157   2.610  0.5939 -3.1184 -0.7221
  731MOL0     H98652   2.316   4.275   2.486  2.7412 -0.7195 -0.6050
  731MOL0     H98653   2.099   4.141   2.522  0.6145 -0.7025  0.4629
  731MOL0     H98654   2.170   4.114   2.358  0.4661  0.5085  0.0569
  731MOL0     H98655   2.226   3.940   2.608  2.5052 -2.1831 -0.6327
  731MOL0     H98656   2.273   3.912   2.444  1.3872 -0.4218  1.4489
  731MOL0     H98657   1.991   3.947   2.563  1.6233  2.8077 -1.0598
  731MOL0     H98658   2.024   3.904   2.385 -1.0066 -1.7184 -1.2084
  731MOL0     H98659   2.086   3.688   2.449  0.1519  1.0808 -0.9958
  731MOL0     H98660   1.918   3.728   2.497  0.0761 -3.2446  0.5006
  731MOL0     H98661   1.968   3.615   2.663 -1.3546  0.1938  0.0136
  731MOL0     H98662   2.135   3.674   2.687 -1.3348 -2.7365  4.3146
  731MOL0     H98663   2.036   3.898   2.754  0.6035  0.2495 -0.2496
  731MOL0     H98664   2.037   3.767   2.863 -0.7391  4.3343  1.4877
  731MOL0     H98665   1.791   3.720   2.792  0.9900  0.4232 -0.9407
  731MOL0     H98666   1.786   3.871   2.708 -3.3352  0.6793  0.5334
  731MOL0     H98667   2.513   4.317   2.599 -0.0690  0.3553  1.3604
  731MOL0     H98668   2.739   4.341   2.660  2.5102 -1.4416  0.5206
  731MOL0     H98669   3.229   4.344   2.335  0.6409 -3.9597  0.4378
  731MOL0     H98670   3.412   4.488   2.377  0.4496 -0.6386 -0.1983
  731MOL0     H98671   3.485   3.600   2.004 -1.6339  0.2987 -2.4319
  731MOL0     H98672   3.248   3.550   1.932 -0.4087 -0.4001 -0.2761
  731MOL0     H98673   2.858   3.532   1.807  2.1551  1.1107  2.7519
  731MOL0     H98674   2.683   3.413   1.671  1.2741  0.9913 -0.5585
  731MOL0     H98675   2.562   3.253   1.559 -0.9719 -0.4129 -0.1921
  731MOL0     H98676   2.478   3.109   1.585  2.1682  0.1273 -0.7832
  731MOL0     H98677   2.305   3.311   1.600 -0.6759  0.3424  0.6294
  731MOL0     H98678   2.417   3.367   1.729  1.1699 -2.3114  0.1588
  731MOL0     H98679   2.364   3.196   1.866 -1.1251 -0.8056  0.8909
  731MOL0     H98680   2.268   3.107   1.742 -0.2863  0.1348 -0.7439
  731MOL0     H98681   2.195   3.403   1.802 -1.6781  0.8687  1.4688
  731MOL0     H98682   2.150   3.282   1.920 -1.5238 -1.9985 -0.0397
  731MOL0     H98683   1.858   3.205   1.631 -1.2452 -0.2667  1.7462
  731MOL0     H98684   2.715   3.086   1.949 -2.2600  0.8940  0.8214
  731MOL0     H98685   2.917   3.201   2.049 -0.0395  0.9929  0.4878
  732MOL0     O98686  11.226   1.676   7.928  0.7718 -0.6917 -0.8671
  732MOL0     C98687  11.226   1.565   7.973 -0.1777  0.0411  0.8354
  732MOL0     O98688  11.329   1.514   8.043 -0.8444  0.0412 -0.4981
  732MOL0     C98689  11.462   1.545   8.017 -0.4939  0.1907  0.4126
  732MOL0     C98690  11.558   1.513   8.116  0.4768 -1.0652  0.3580
  732MOL0     C98691  11.691   1.520   8.095 -0.7163  0.1355  0.0835
  732MOL0     C98692  11.745   1.561   7.968 -0.1004 -0.2238  0.0331
  732MOL0     O98693  11.883   1.557   7.962 -0.6768 -0.7586 -0.2405
  732MOL0     C98694  11.948   1.626   7.861 -0.1853  0.0982  0.2014
  732MOL0     C98695  12.047   1.729   7.915 -0.8775 -0.0570 -0.2356
  732MOL0     C98696  11.982   1.827   8.007  0.3789 -0.6867  0.9477
  732MOL0     C98697  12.087   1.898   8.093 -0.2039  0.0726 -0.3046
  732MOL0     C98698  12.133   1.813   8.207  0.2852 -0.7276  0.4074
  732MOL0     C98699  12.256   1.885   8.275 -0.0712 -0.2558 -0.3264
  732MOL0     C98700  12.320   1.808   8.400  0.3393 -1.1147  0.4317
  732MOL0     C98701  12.401   1.916   8.473  0.1068 -1.0335  0.2293
  732MOL0     N98702  12.522   1.963   8.393 -0.9992  0.4638 -0.8603
  732MOL0     C98703  12.551   2.070   8.309  0.1066  0.6031 -0.4746
  732MOL0     C98704  12.680   2.055   8.260 -0.0957 -0.6622  0.0558
  732MOL0     C98705  12.758   2.141   8.172  0.4186  0.8855 -0.6144
  732MOL0     C98706  12.862   2.223   8.246 -0.3016  0.6503  0.1673
  732MOL0     C98707  12.866   2.375   8.214  0.2861  0.6295  0.0009
  732MOL0     C98708  12.964   2.462   8.290  0.1328 -0.4270  0.3279
  732MOL0     O98709  12.940   2.460   8.430 -0.4820  0.8035  0.2055
  732MOL0     C98710  13.043   2.497   8.516 -0.1531 -0.2041  0.4539
  732MOL0     C98711  13.042   2.418   8.627 -0.2548 -1.1324 -0.0321
  732MOL0     C98712  13.129   2.440   8.735  0.8235 -0.1100 -0.3355
  732MOL0     C98713  13.135   2.347   8.848  0.6810 -0.6259 -0.3288
  732MOL0     C98714  13.223   2.547   8.721  2.0116  0.1618  0.3040
  732MOL0     C98715  13.335   2.578   8.812 -0.3101 -0.1601 -0.4078
  732MOL0     O98716  13.301   2.578   8.942  0.1990 -0.1167  0.2567
  732MOL0     C98717  13.375   2.627   9.041  0.5143 -0.7715 -0.3149
  732MOL0     C98718  13.405   2.557   9.155  0.2695 -0.5984 -0.1119
  732MOL0     C98719  13.471   2.609   9.265  0.2518  0.0843 -0.8055
  732MOL0     C98720  13.512   2.739   9.260 -0.6009 -0.4030 -0.8300
  732MOL0     O98721  13.585   2.790   9.366 -0.6320  0.0779 -0.0925
  732MOL0     C98722  13.732   2.788   9.336 -0.0367  0.0671 -0.6330
  732MOL0     C98723  13.794   2.822   9.467  0.0129 -0.0666  1.2347
  732MOL0     C98724  13.942   2.846   9.438 -0.7989  0.3796  0.1924
  732MOL0     C98725  14.020   2.861   9.567  0.0010  0.4352 -0.4617
  732MOL0     C98726  14.073   3.002   9.581 -0.0373  0.3316  0.6948
  732MOL0     C98727  14.192   2.993   9.676  0.3751 -0.6178 -0.3199
  732MOL0     C98728  14.256   3.135   9.696  0.2222  0.8160 -0.3535
  732MOL0     C98729  14.290   3.212   9.571 -0.2535  0.0630  0.8709
  732MOL0    Cl98730  14.404   3.342   9.603  0.4854  0.1428 -0.3365
  732MOL0     C98731  13.491   2.814   9.142 -0.3037  1.0614 -0.7026
  732MOL0     C98732  13.426   2.764   9.028 -0.1476  0.6135 -0.2263
  732MOL0     O98733  13.449   2.609   8.771 -0.7877 -0.1687  0.0616
  732MOL0     C98734  13.214   2.631   8.605  0.4051 -0.0293 -1.1176
  732MOL0     C98735  13.116   2.610   8.512  0.3010  0.3486 -0.0062
  732MOL0     N98736  12.718   1.936   8.318 -0.3842 -0.9091  0.0765
  732MOL0     N98737  12.632   1.877   8.392  0.1403  0.5212 -0.1210
  732MOL0     C98738  11.647   1.587   7.867 -0.9005  0.3610 -1.1164
  732MOL0     C98739  11.506   1.572   7.891  0.1131 -1.3764 -0.3338
  732MOL0     C98740  11.102   1.475   7.960  0.0513 -0.4517 -0.3973
  732MOL0     C98741  11.112   1.338   7.979  0.5733 -0.1368  0.4640
  732MOL0     C98742  11.000   1.255   7.965  0.2953 -0.1672 -0.7001
  732MOL0     C98743  10.877   1.310   7.918 -0.6179  0.5104  1.3612
  732MOL0     O98744  10.766   1.240   7.894 -0.0929  0.1838 -0.4110
  732MOL0     C98745  10.745   1.122   7.981 -0.9277 -0.7064 -0.4301
  732MOL0     C98746  10.601   1.133   8.039 -0.9148 -0.3927  0.7124
  732MOL0     C98747  10.584   1.039   8.157 -0.2300  1.4304 -0.8605
  732MOL0     C98748  10.454   1.055   8.236  0.3630  0.5499 -0.0354
  732MOL0     C98749  10.336   1.015   8.166 -0.1328 -0.6850  0.5697
  732MOL0     C98750  10.237   0.973   8.111 -0.3959 -1.0000 -0.1463
  732MOL0     C98751  10.866   1.446   7.891 -0.0020  0.1253 -0.7963
  732MOL0     C98752  10.979   1.526   7.907 -0.7194 -0.8266  0.2585
  732MOL0     H98753  11.512   1.501   8.214 -3.5428 -0.3246 -1.2503
  732MOL0     H98754  11.761   1.510   8.177 -1.6571  0.2214  0.9227
  732MOL0     H98755  12.002   1.550   7.804  0.6876  0.5378  0.4131
  732MOL0     H98756  11.889   1.684   7.788  2.3632  1.6201 -0.8029
  732MOL0     H98757  12.134   1.676   7.955 -0.9808 -0.0518  0.0026
  732MOL0     H98758  12.073   1.787   7.826 -0.2335  2.1565  1.3010
  732MOL0     H98759  11.929   1.892   7.937  1.1117 -1.5805 -0.4719
  732MOL0     H98760  11.901   1.774   8.060 -2.9752 -0.5810 -3.4824
  732MOL0     H98761  12.169   1.925   8.026 -0.7493  3.6930  0.2777
  732MOL0     H98762  12.037   1.990   8.124 -0.5782 -0.4027  0.5242
  732MOL0     H98763  12.051   1.797   8.279  1.3521 -0.4554  1.7202
  732MOL0     H98764  12.164   1.714   8.171  0.7571 -0.5656  0.3626
  732MOL0     H98765  12.338   1.872   8.204 -0.7542  0.2598 -1.2220
  732MOL0     H98766  12.240   1.991   8.295  2.8843  0.0617  0.7710
  732MOL0     H98767  12.252   1.758   8.470 -1.5887  0.9054  0.0970
  732MOL0     H98768  12.386   1.730   8.361 -0.4048 -2.3521  1.5876
  732MOL0     H98769  12.434   1.880   8.570  0.4739 -2.5007 -0.4062
  732MOL0     H98770  12.342   2.007   8.488  0.5633 -0.7332  0.2389
  732MOL0     H98771  12.484   2.156   8.303  2.2268  2.6100  2.1057
  732MOL0     H98772  12.800   2.073   8.097  1.1558  1.1967 -0.4935
  732MOL0     H98773  12.685   2.206   8.122  1.4343  3.4180  0.9762
  732MOL0     H98774  12.957   2.182   8.210 -1.5300  1.2704 -4.3210
  732MOL0     H98775  12.857   2.208   8.355 -0.4688  0.9808  0.2059
  732MOL0     H98776  12.765   2.416   8.220  0.1690  0.5656 -1.3916
  732MOL0     H98777  12.895   2.373   8.109  0.2283  1.4641 -0.0376
  732MOL0     H98778  12.958   2.563   8.248  1.5949 -1.0493 -1.5035
  732MOL0     H98779  13.062   2.419   8.267 -0.0745  0.1409 -1.8631
  732MOL0     H98780  12.986   2.327   8.613  1.0033 -1.5604 -3.2078
  732MOL0     H98781  13.055   2.272   8.846  0.6516 -0.6278  0.5114
  732MOL0     H98782  13.232   2.300   8.864 -0.1048 -1.8520  1.2259
  732MOL0     H98783  13.116   2.407   8.937 -0.3694 -1.7292  0.2261
  732MOL0     H98784  13.369   2.455   9.150 -3.0860  0.4602 -0.1782
  732MOL0     H98785  13.496   2.555   9.356 -0.5701  1.0955  0.0522
  732MOL0     H98786  13.771   2.691   9.307  0.4366  0.4591 -1.3456
  732MOL0     H98787  13.760   2.859   9.257  0.8797  1.8663  1.2119
  732MOL0     H98788  13.761   2.917   9.510 -0.7185 -0.6822  2.0859
  732MOL0     H98789  13.774   2.748   9.544 -2.4319  0.4246  1.1531
  732MOL0     H98790  13.966   2.925   9.366 -2.2642  0.5706 -0.1158
  732MOL0     H98791  13.977   2.754   9.392 -1.0336  1.3519 -2.0688
  732MOL0     H98792  13.962   2.842   9.657 -1.5314  0.3618 -1.4260
  732MOL0     H98793  14.103   2.790   9.564  1.8135  2.4341 -0.2710
  732MOL0     H98794  13.997   3.077   9.603 -1.1263 -0.2745 -0.8592
  732MOL0     H98795  14.109   3.031   9.483 -2.9160 -2.3333 -1.3579
  732MOL0     H98796  14.159   2.966   9.777 -0.0941 -0.7523 -0.5096
  732MOL0     H98797  14.266   2.919   9.645  2.9318  1.4096  0.5787
  732MOL0     H98798  14.351   3.123   9.748 -0.1684  2.4653  0.8400
  732MOL0     H98799  14.185   3.191   9.758  0.4296  0.0798  0.5645
  732MOL0     H98800  14.196   3.250   9.531 -2.6423 -3.6480  2.3848
  732MOL0     H98801  14.344   3.147   9.502  1.3421  3.0316 -0.8971
  732MOL0     H98802  13.518   2.919   9.147 -0.6662  1.1217  0.6439
  732MOL0     H98803  13.403   2.817   8.935 -1.2535 -0.8245 -0.8068
  732MOL0     H98804  13.283   2.711   8.581  0.0464  1.0086  1.0933
  732MOL0     H98805  13.106   2.676   8.426  1.6701  0.0315 -0.4468
  732MOL0     H98806  11.682   1.610   7.767  2.0500  1.4442  0.0539
  732MOL0     H98807  11.444   1.598   7.806 -1.2812 -0.5155  0.8956
  732MOL0     H98808  11.201   1.282   8.004  0.4700 -1.0799 -1.1258
  732MOL0     H98809  11.020   1.148   7.970  3.9737  0.4233  3.2482
  732MOL0     H98810  10.762   1.030   7.925 -2.0491 -1.3782  0.2929
  732MOL0     H98811  10.821   1.130   8.058  0.2265 -0.7131 -1.5346
  732MOL0     H98812  10.523   1.112   7.966 -1.8151 -1.8520  2.0293
  732MOL0     H98813  10.585   1.239   8.060 -1.4271 -0.2448 -0.3897
  732MOL0     H98814  10.664   1.070   8.225 -1.9453 -2.0958  3.1492
  732MOL0     H98815  10.599   0.936   8.123 -2.0156  1.9517 -3.5602
  732MOL0     H98816  10.449   1.162   8.256  2.3479  0.8737 -0.9728
  732MOL0     H98817  10.449   1.006   8.333 -0.0242  2.9780  1.2539
  732MOL0     H98818  10.141   0.939   8.080 -0.7302 -1.7961  1.6034
  732MOL0     H98819  10.770   1.492   7.868 -1.1847 -2.9784 -2.7682
  732MOL0     H98820  10.967   1.633   7.895  0.0138 -0.6391  1.1317
  733MOL0     O98821   9.097   7.316   1.267  0.0946  0.6408 -0.1365
  733MOL0     C98822   9.051   7.202   1.265  0.4788  0.5994 -0.7516
  733MOL0     O98823   8.934   7.162   1.332 -0.9496 -0.3358  0.2132
  733MOL0     C98824   8.873   7.212   1.437 -0.5322 -0.0585  0.8071
  733MOL0     C98825   8.927   7.311   1.522  0.4497 -0.0872 -0.5612
  733MOL0     C98826   8.853   7.342   1.637  0.3577 -1.0472 -0.3188
  733MOL0     C98827   8.722   7.300   1.665  0.7122 -0.5681 -0.1748
  733MOL0     O98828   8.659   7.334   1.784 -0.4440 -0.8337 -0.0359
  733MOL0     C98829   8.515   7.330   1.782  0.8918 -0.5972  0.4224
  733MOL0     C98830   8.467   7.363   1.922 -0.2967 -0.0556  0.0646
  733MOL0     C98831   8.486   7.254   2.023  0.5965  0.2548  0.1870
  733MOL0     C98832   8.424   7.282   2.163  0.4062  0.3132  0.8257
  733MOL0     C98833   8.496   7.201   2.279  0.3404  0.7549  0.1106
  733MOL0     C98834   8.423   7.199   2.412 -0.8157  0.0050  0.2840
  733MOL0     C98835   8.510   7.118   2.510  0.9316  0.0216 -1.0332
  733MOL0     C98836   8.444   7.102   2.653 -0.2749  0.0118  0.2237
  733MOL0     N98837   8.306   7.054   2.641 -0.2044  0.2368 -0.3981
  733MOL0     C98838   8.267   6.928   2.596 -1.2179  0.4090  0.8915
  733MOL0     C98839   8.135   6.916   2.602  0.4868 -0.3423  0.1558
  733MOL0     C98840   8.050   6.798   2.592 -1.0308  0.3131 -0.9603
  733MOL0     C98841   8.064   6.727   2.729  0.3963  1.0885 -0.7034
  733MOL0     C98842   8.011   6.583   2.694  0.2326 -0.8934 -0.5061
  733MOL0     C98843   7.981   6.515   2.833  0.1142 -0.1492 -0.5887
  733MOL0     O98844   8.102   6.484   2.920 -1.1808  0.3229  0.1099
  733MOL0     C98845   8.102   6.375   3.008 -0.8548 -0.0933  0.5201
  733MOL0     C98846   8.226   6.341   3.067 -0.3220  0.6281  0.9340
  733MOL0     C98847   8.241   6.249   3.174  0.3416 -0.3073 -0.4873
  733MOL0     C98848   8.372   6.246   3.243  0.1931  0.0459  0.2504
  733MOL0     C98849   8.127   6.185   3.206  0.6372  0.4863 -0.3920
  733MOL0     C98850   8.123   6.085   3.316  0.8155 -0.5036  0.1223
  733MOL0     O98851   8.114   5.952   3.292 -0.0853 -1.1877  0.0039
  733MOL0     C98852   8.119   5.864   3.399  0.2416 -0.1506  0.2837
  733MOL0     C98853   8.215   5.855   3.492  0.0171 -0.6618  0.1247
  733MOL0     C98854   8.209   5.753   3.589  0.1232  0.2473 -0.7620
  733MOL0     C98855   8.107   5.667   3.603 -0.3530 -0.2437  0.2089
  733MOL0     O98856   8.109   5.580   3.709  0.2881 -0.6477  0.0795
  733MOL0     C98857   7.979   5.553   3.760 -0.5770 -0.6743 -0.5912
  733MOL0     C98858   7.979   5.524   3.908  0.1962 -0.0671  0.6611
  733MOL0     C98859   8.069   5.406   3.954  0.8109  0.3324  0.1392
  733MOL0     C98860   8.081   5.403   4.108  0.7447  0.2751 -0.6891
  733MOL0     C98861   8.166   5.287   4.154 -0.0782  0.4545 -0.1714
  733MOL0     C98862   8.182   5.291   4.299 -0.9383 -0.7668 -0.1910
  733MOL0     C98863   8.300   5.204   4.334  0.5790 -0.5949  0.0635
  733MOL0     C98864   8.307   5.171   4.483 -0.0558 -0.5053 -0.2592
  733MOL0    Cl98865   8.292   5.316   4.569 -0.1753 -0.2405  0.1238
  733MOL0     C98866   8.005   5.675   3.506 -0.4234  0.3244 -0.0219
  733MOL0     C98867   8.009   5.776   3.415  0.7374 -0.0275  1.3368
  733MOL0     O98868   8.132   6.134   3.429 -0.9875  0.7140  0.0784
  733MOL0     C98869   8.000   6.208   3.146 -0.4344  0.1132 -0.1271
  733MOL0     C98870   7.986   6.304   3.044 -0.4538 -0.7484  0.4221
  733MOL0     N98871   8.089   7.044   2.645 -0.4828 -0.3304 -0.8231
  733MOL0     N98872   8.191   7.129   2.661 -0.9307  0.7563  0.4215
  733MOL0     C98873   8.670   7.198   1.577  0.0147  0.6858  0.2838
  733MOL0     C98874   8.751   7.155   1.476 -0.3115 -0.0762 -0.0520
  733MOL0     C98875   9.104   7.100   1.166 -0.4892 -0.3997 -0.3906
  733MOL0     C98876   9.207   7.127   1.075 -0.0413  0.0635  0.2379
  733MOL0     C98877   9.256   7.029   0.994 -0.5731  0.9941 -1.1147
  733MOL0     C98878   9.184   6.915   0.966 -0.3817  0.6871  0.7380
  733MOL0     O98879   9.211   6.824   0.861  0.1460 -0.0957 -1.0084
  733MOL0     C98880   9.308   6.854   0.756 -0.0874 -0.1983 -0.0002
  733MOL0     C98881   9.320   6.729   0.675 -0.0808  0.3351  0.6721
  733MOL0     C98882   9.203   6.674   0.592 -0.4705  1.0145  0.6648
  733MOL0     C98883   9.258   6.571   0.484  0.3157  1.1191 -0.3859
  733MOL0     C98884   9.329   6.449   0.542 -0.3423 -0.6285 -0.1198
  733MOL0     C98885   9.393   6.365   0.605  0.6857 -0.4850  0.3675
  733MOL0     C98886   9.077   6.889   1.048 -0.4916 -0.3577  0.1955
  733MOL0     C98887   9.039   6.976   1.156  0.8375  0.4787  0.1939
  733MOL0     H98888   9.026   7.354   1.513 -0.4521  2.9587  2.2809
  733MOL0     H98889   8.888   7.417   1.707  1.3966 -2.7977  1.1223
  733MOL0     H98890   8.467   7.409   1.723 -1.5319 -3.2405 -1.4027
  733MOL0     H98891   8.483   7.231   1.750 -1.3177  0.0874  0.3855
  733MOL0     H98892   8.504   7.459   1.959 -4.2102  1.6359  0.0813
  733MOL0     H98893   8.358   7.369   1.915 -0.5143 -1.7094  1.4314
  733MOL0     H98894   8.432   7.167   1.984 -2.9886  1.6726  1.5589
  733MOL0     H98895   8.594   7.240   2.030  0.4136 -0.6475  1.5801
  733MOL0     H98896   8.428   7.391   2.172 -3.2577  0.5403  0.9173
  733MOL0     H98897   8.322   7.244   2.153  0.0554  1.8661 -2.4249
  733MOL0     H98898   8.520   7.098   2.249  0.0279  0.8648 -0.5239
  733MOL0     H98899   8.588   7.257   2.296  0.3628  2.1167 -3.5550
  733MOL0     H98900   8.425   7.297   2.461  1.8422  0.1847 -0.0750
  733MOL0     H98901   8.323   7.158   2.395  0.0300 -1.3658 -1.8001
  733MOL0     H98902   8.527   7.021   2.464 -1.0148 -1.0783  0.4218
  733MOL0     H98903   8.605   7.169   2.528 -0.1727  2.3331 -1.3519
  733MOL0     H98904   8.434   7.201   2.699 -0.0951 -0.2963  0.9301
  733MOL0     H98905   8.506   7.031   2.708 -1.8535 -3.1611 -1.8393
  733MOL0     H98906   8.330   6.840   2.587 -2.3013 -0.2610 -0.3474
  733MOL0     H98907   7.949   6.833   2.568 -0.6961 -0.4280 -3.8139
  733MOL0     H98908   8.094   6.735   2.514  3.7341  0.7959  1.0054
  733MOL0     H98909   7.994   6.767   2.803  1.6533  2.6513 -0.3193
  733MOL0     H98910   8.164   6.709   2.769 -0.7138 -0.5394  1.5781
  733MOL0     H98911   8.084   6.524   2.638  0.0236  0.1042 -1.8854
  733MOL0     H98912   7.919   6.584   2.634  1.1402  0.5466 -1.9524
  733MOL0     H98913   7.936   6.420   2.803  1.0009 -0.9569  0.5318
  733MOL0     H98914   7.901   6.569   2.883 -0.1136  0.8648 -2.0024
  733MOL0     H98915   8.309   6.404   3.036  0.8304 -1.1305  0.3559
  733MOL0     H98916   8.451   6.241   3.167  0.3725 -1.6302  0.5180
  733MOL0     H98917   8.386   6.333   3.308  2.0212 -0.4549  0.5977
  733MOL0     H98918   8.373   6.154   3.302  1.0579 -1.0447 -1.4135
  733MOL0     H98919   8.290   5.933   3.489 -1.9389  1.3012 -0.0958
  733MOL0     H98920   8.291   5.752   3.660 -0.0847 -3.4683 -0.3588
  733MOL0     H98921   7.922   5.645   3.746 -2.4878 -1.7677 -0.4868
  733MOL0     H98922   7.934   5.461   3.719 -0.0049 -1.0093 -0.4783
  733MOL0     H98923   8.009   5.622   3.947  2.3517 -0.0521 -0.9044
  733MOL0     H98924   7.873   5.503   3.930 -0.5780  1.2808 -1.5057
  733MOL0     H98925   8.167   5.422   3.907  0.6982  0.5302 -0.0295
  733MOL0     H98926   8.013   5.321   3.915  1.5680  0.8488 -2.2192
  733MOL0     H98927   8.135   5.497   4.127  0.1807  0.4559  0.0731
  733MOL0     H98928   7.983   5.387   4.155  2.1836  0.0995  2.5208
  733MOL0     H98929   8.259   5.272   4.097 -0.8843 -0.2259 -1.3592
  733MOL0     H98930   8.102   5.201   4.133 -3.7298  2.2462  2.4789
  733MOL0     H98931   8.207   5.391   4.334  2.9790 -1.1442 -1.3708
  733MOL0     H98932   8.103   5.252   4.363  0.2897  0.2113  2.0106
  733MOL0     H98933   8.402   5.237   4.313 -0.0484  1.3053 -0.1242
  733MOL0     H98934   8.280   5.107   4.287  1.1085  0.7707 -3.2449
  733MOL0     H98935   8.400   5.122   4.513  1.5357  1.9544 -0.8893
  733MOL0     H98936   8.212   5.123   4.506 -0.8086  0.7039 -0.7662
  733MOL0     H98937   7.919   5.608   3.501 -0.3064  0.2292 -0.9050
  733MOL0     H98938   7.924   5.786   3.348  2.4140 -1.1787 -1.1695
  733MOL0     H98939   7.924   6.138   3.181  0.5025 -2.6995 -3.1816
  733MOL0     H98940   7.887   6.327   3.007 -0.3989  0.3275  0.8942
  733MOL0     H98941   8.567   7.163   1.572 -0.7007  2.8258 -2.6234
  733MOL0     H98942   8.721   7.068   1.418  1.7117 -0.5065 -0.5590
  733MOL0     H98943   9.249   7.226   1.060  1.1910 -0.5357 -0.4234
  733MOL0     H98944   9.339   7.058   0.930 -0.3600  1.9703 -0.4164
  733MOL0     H98945   9.285   6.935   0.685  1.1036 -0.7211 -1.0320
  733MOL0     H98946   9.408   6.869   0.799  0.8490 -1.9728 -1.3818
  733MOL0     H98947   9.354   6.657   0.750  0.6633 -0.6925 -0.6174
  733MOL0     H98948   9.409   6.744   0.614  1.4136 -0.5332  2.5601
  733MOL0     H98949   9.143   6.751   0.543  0.8276  1.1442 -0.7881
  733MOL0     H98950   9.135   6.623   0.662  0.8925  1.3860  2.3365
  733MOL0     H98951   9.315   6.617   0.403  2.5150 -0.5992  0.0778
  733MOL0     H98952   9.166   6.540   0.434  0.6741 -1.1294  0.2302
  733MOL0     H98953   9.455   6.287   0.644  1.1211 -1.3311 -1.9181
  733MOL0     H98954   9.013   6.801   1.046 -1.6130  0.4047  1.1398
  733MOL0     H98955   8.954   6.945   1.215 -0.1138 -1.7901 -2.2007
  734MOL0     O98956   6.363   4.432   3.389  0.4079 -0.1605 -0.3701
  734MOL0     C98957   6.383   4.386   3.275  0.0395 -0.0577 -1.0331
  734MOL0     O98958   6.340   4.263   3.232 -0.5626 -0.0606  0.7689
  734MOL0     C98959   6.258   4.197   3.315 -0.3154  0.5637 -0.1739
  734MOL0     C98960   6.120   4.199   3.309 -0.7505 -1.4721 -0.4487
  734MOL0     C98961   6.046   4.121   3.398  0.6549  0.1621  0.7218
  734MOL0     C98962   6.100   4.047   3.505 -0.3198  0.2526 -0.9611
  734MOL0     O98963   6.015   3.984   3.597  0.1714 -0.1980  0.1699
  734MOL0     C98964   6.002   3.845   3.580  0.2283  0.3161 -1.0764
  734MOL0     C98965   6.073   3.780   3.704  0.1957  0.6536  0.3211
  734MOL0     C98966   6.041   3.636   3.686  0.2183  0.3059 -0.1096
  734MOL0     C98967   6.118   3.544   3.776  0.9075 -0.0445  0.3755
  734MOL0     C98968   6.117   3.396   3.712  0.3479 -1.3543  0.9059
  734MOL0     C98969   6.191   3.298   3.806  0.2382  0.8374  0.6030
  734MOL0     C98970   6.185   3.157   3.760  0.5709  0.4392  0.0551
  734MOL0     C98971   6.042   3.101   3.801 -0.0507 -0.1166  0.3370
  734MOL0     N98972   6.015   2.972   3.742 -0.0210  0.0454  0.3177
  734MOL0     C98973   5.917   2.947   3.661 -0.1067  0.4863 -0.0330
  734MOL0     C98974   5.933   2.818   3.636  0.8427 -0.5630  0.1621
  734MOL0     C98975   5.864   2.736   3.527  0.0142 -0.1760 -0.2299
  734MOL0     C98976   5.943   2.745   3.394 -0.1070  0.7062 -0.8184
  734MOL0     C98977   5.876   2.651   3.292 -0.7718  0.2026 -0.2666
  734MOL0     C98978   5.946   2.663   3.154  0.2501  0.4272 -0.7123
  734MOL0     O98979   5.868   2.620   3.041 -0.1281  0.1461 -0.6417
  734MOL0     C98980   5.825   2.490   3.029 -0.2528  0.3247 -0.0020
  734MOL0     C98981   5.892   2.374   3.087  1.2131 -0.0619 -0.3337
  734MOL0     C98982   5.848   2.246   3.076  0.0914  0.2027 -0.2691
  734MOL0     C98983   5.939   2.138   3.134  0.5603 -0.1072  0.2881
  734MOL0     C98984   5.734   2.221   2.997  1.4321 -0.0233  0.8684
  734MOL0     C98985   5.677   2.084   2.972  1.1966  0.4953 -0.2497
  734MOL0     O98986   5.620   2.056   2.849 -0.6901  0.4078  0.0603
  734MOL0     C98987   5.589   1.927   2.812  0.2351  0.5294 -0.5810
  734MOL0     C98988   5.496   1.913   2.712 -0.5199 -0.3814  0.1420
  734MOL0     C98989   5.450   1.784   2.678 -0.4331 -0.1657  0.1625
  734MOL0     C98990   5.487   1.674   2.749 -0.4257  0.2826  0.1474
  734MOL0     O98991   5.435   1.558   2.724 -0.2182  0.2500 -0.4214
  734MOL0     C98992   5.392   1.476   2.822 -0.2919  0.8596  0.1791
  734MOL0     C98993   5.385   1.349   2.731  0.0422 -0.2151 -0.1859
  734MOL0     C98994   5.273   1.265   2.781 -0.7948  0.3734  0.5070
  734MOL0     C98995   5.278   1.131   2.711 -0.4640 -0.2684 -0.2726
  734MOL0     C98996   5.178   1.039   2.781 -0.5410 -0.3180  0.0641
  734MOL0     C98997   5.172   0.899   2.710  0.2412 -0.8905 -0.6591
  734MOL0     C98998   5.086   0.787   2.771  0.2871  0.2410  0.1227
  734MOL0     C98999   4.943   0.824   2.774  0.4195  0.6483  0.0455
  734MOL0    Cl99000   4.849   0.717   2.875  0.4233  0.0910 -0.2644
  734MOL0     C99001   5.576   1.686   2.849 -0.5037  0.0309 -0.0272
  734MOL0     C99002   5.633   1.812   2.874  0.9697  0.2746 -0.0162
  734MOL0     O99003   5.665   2.013   3.071  0.3351  0.2084 -0.0316
  734MOL0     C99004   5.657   2.334   2.945 -0.3348  0.4353 -0.6722
  734MOL0     C99005   5.704   2.463   2.963  0.4490  0.5876  0.6109
  734MOL0     N99006   6.031   2.763   3.722  0.1354  0.8778  0.3945
  734MOL0     N99007   6.076   2.859   3.785  0.6731  0.2938 -0.5049
  734MOL0     C99008   6.235   4.060   3.521 -0.3679 -0.4398 -0.5961
  734MOL0     C99009   6.319   4.131   3.425 -0.6873 -0.5350  0.3003
  734MOL0     C99010   6.467   4.461   3.189  0.2559 -0.6002  0.1633
  734MOL0     C99011   6.488   4.603   3.213  0.1151 -0.2942 -0.6127
  734MOL0     C99012   6.562   4.675   3.121  1.3031  0.5450 -0.0898
  734MOL0     C99013   6.612   4.617   3.009  0.4909 -0.4874  0.0676
  734MOL0     O99014   6.688   4.705   2.928 -0.1147  0.3858 -0.3926
  734MOL0     C99015   6.771   4.640   2.827 -0.0115 -0.7357 -0.2927
  734MOL0     C99016   6.896   4.559   2.859  0.7197 -0.1641  0.2039
  734MOL0     C99017   7.019   4.629   2.918  0.6997 -0.3134 -0.8688
  734MOL0     C99018   7.077   4.732   2.818 -0.6804  0.9263 -0.4595
  734MOL0     C99019   7.221   4.747   2.850 -0.4375  0.7157  0.3324
  734MOL0     C99020   7.335   4.755   2.881 -0.3142 -0.0647  0.4774
  734MOL0     C99021   6.585   4.484   2.984  0.2679 -0.1269  0.7530
  734MOL0     C99022   6.523   4.402   3.073  0.1239  0.2701  0.3731
  734MOL0     H99023   6.077   4.248   3.222 -0.2478 -2.8136 -1.4820
  734MOL0     H99024   5.938   4.115   3.396  0.5605  1.4547  1.0162
  734MOL0     H99025   5.897   3.814   3.584  1.1555 -3.1869  2.3629
  734MOL0     H99026   6.047   3.808   3.487 -3.0583  1.1936 -3.2139
  734MOL0     H99027   6.179   3.806   3.705  0.3011  0.2320  0.7786
  734MOL0     H99028   6.028   3.817   3.797 -0.1755  0.8255  0.0786
  734MOL0     H99029   5.934   3.616   3.689  0.1911  0.3961 -0.4532
  734MOL0     H99030   6.064   3.599   3.586  1.8082  0.7995  0.0496
  734MOL0     H99031   6.223   3.574   3.788  0.2317  2.1243  1.3702
  734MOL0     H99032   6.082   3.556   3.879 -4.0029  0.2472 -1.1685
  734MOL0     H99033   6.014   3.365   3.692  0.1789 -1.3587  1.7830
  734MOL0     H99034   6.166   3.403   3.614 -1.7490  1.1305 -0.1146
  734MOL0     H99035   6.296   3.326   3.800  0.5084 -0.1896  0.3786
  734MOL0     H99036   6.162   3.310   3.911  0.3476 -0.1974  0.7603
  734MOL0     H99037   6.183   3.153   3.650  1.1347  0.7689  0.0302
  734MOL0     H99038   6.273   3.103   3.796 -0.5478 -2.8911 -1.7390
  734MOL0     H99039   5.956   3.157   3.764  0.6078 -0.5015 -1.9290
  734MOL0     H99040   6.029   3.093   3.909  0.6212 -3.5109  0.2738
  734MOL0     H99041   5.842   3.012   3.616 -1.3888 -0.4081  0.7409
  734MOL0     H99042   5.865   2.630   3.555 -0.4198  0.1972  1.3116
  734MOL0     H99043   5.760   2.768   3.523 -0.6611 -2.1739 -0.1626
  734MOL0     H99044   6.044   2.718   3.424 -1.0680  0.4064  2.5023
  734MOL0     H99045   5.961   2.845   3.353 -0.6994 -0.1628 -3.3935
  734MOL0     H99046   5.778   2.698   3.281 -0.2031  1.5339  0.1365
  734MOL0     H99047   5.869   2.547   3.327 -0.2013  0.2610  0.0279
  734MOL0     H99048   6.037   2.602   3.160  0.6248  1.0554  0.2697
  734MOL0     H99049   5.963   2.769   3.129 -1.0830  0.1463 -3.0847
  734MOL0     H99050   5.985   2.397   3.137  0.8777  2.5904 -0.7858
  734MOL0     H99051   5.923   2.134   3.243  0.3880 -0.0182  0.2657
  734MOL0     H99052   5.910   2.039   3.097 -2.9710 -0.1715  2.7264
  734MOL0     H99053   6.041   2.152   3.097 -0.7929  0.8535 -3.4076
  734MOL0     H99054   5.468   2.001   2.654  1.5108  1.1272  1.3254
  734MOL0     H99055   5.380   1.765   2.596  1.2246 -0.2409 -1.3023
  734MOL0     H99056   5.451   1.449   2.910  0.9318  5.3719  0.9749
  734MOL0     H99057   5.291   1.507   2.851  0.3877  1.9432  1.4825
  734MOL0     H99058   5.354   1.382   2.631  0.3883 -2.7242 -1.1692
  734MOL0     H99059   5.480   1.297   2.738 -0.9550 -1.9925  0.7573
  734MOL0     H99060   5.172   1.302   2.758 -0.7255 -0.8371 -2.0145
  734MOL0     H99061   5.281   1.240   2.887 -0.7998 -0.2719  0.3548
  734MOL0     H99062   5.247   1.147   2.607  0.3002 -0.8170 -0.5928
  734MOL0     H99063   5.376   1.082   2.707 -0.1321  0.4232 -0.9327
  734MOL0     H99064   5.081   1.089   2.769 -0.1961  0.1027 -1.0804
  734MOL0     H99065   5.209   1.026   2.885  1.4157 -1.3697 -0.5930
  734MOL0     H99066   5.147   0.919   2.605  0.2528  0.0499 -0.4930
  734MOL0     H99067   5.276   0.871   2.689  0.1768  0.4038 -3.1916
  734MOL0     H99068   5.132   0.760   2.866  1.8545  0.2038 -0.6165
  734MOL0     H99069   5.112   0.705   2.704  2.9470  1.3672 -0.3730
  734MOL0     H99070   4.910   0.807   2.671  2.6034  0.0810 -0.6191
  734MOL0     H99071   4.927   0.927   2.808 -3.3585 -0.6945  3.0869
  734MOL0     H99072   5.606   1.599   2.905  0.0894 -0.4481 -1.0553
  734MOL0     H99073   5.701   1.821   2.958 -0.4675 -0.5594  1.3011
  734MOL0     H99074   5.554   2.318   2.914 -0.2668  0.1870 -0.7711
  734MOL0     H99075   5.644   2.551   2.941 -1.0466 -0.0881  1.8133
  734MOL0     H99076   6.264   4.015   3.615 -1.9968 -0.6325 -0.1636
  734MOL0     H99077   6.427   4.136   3.429 -0.7714  0.3188  2.4121
  734MOL0     H99078   6.457   4.650   3.305 -2.2181 -0.9983 -0.9848
  734MOL0     H99079   6.584   4.781   3.127  3.0357  0.4558 -3.0651
  734MOL0     H99080   6.705   4.584   2.760  1.7521 -1.7516 -1.2532
  734MOL0     H99081   6.809   4.723   2.768  2.3523  1.0597  3.3664
  734MOL0     H99082   6.918   4.513   2.762  0.7657  1.9615 -0.8364
  734MOL0     H99083   6.876   4.488   2.941  0.4010  0.9160  1.0895
  734MOL0     H99084   7.097   4.560   2.951 -1.4359 -2.7158 -0.5880
  734MOL0     H99085   6.977   4.683   3.003 -1.9952 -0.4934 -1.9950
  734MOL0     H99086   7.019   4.823   2.835  0.5791  1.5719  0.5910
  734MOL0     H99087   7.056   4.698   2.716  2.7922 -1.5498 -0.5265
  734MOL0     H99088   7.433   4.734   2.922 -0.0554 -0.8941 -0.5221
  734MOL0     H99089   6.632   4.433   2.901 -3.3393 -0.1847 -1.5022
  734MOL0     H99090   6.514   4.299   3.040  1.0429  0.9431 -2.2113
  735MOL0     O99091   7.193   7.626   3.614 -0.0509  0.3740 -0.8951
  735MOL0     C99092   7.172   7.603   3.499  0.0340 -0.7022  0.4422
  735MOL0     O99093   7.247   7.520   3.414  0.1567 -0.1066 -0.6090
  735MOL0     C99094   7.363   7.462   3.455  0.1597 -0.8624  0.4017
  735MOL0     C99095   7.395   7.338   3.395 -0.3734 -0.4474 -0.8204
  735MOL0     C99096   7.518   7.277   3.419  0.2079  0.0664  0.0500
  735MOL0     C99097   7.606   7.330   3.506  0.8184 -0.2051 -0.4232
  735MOL0     O99098   7.719   7.270   3.548 -0.2475 -0.1394  0.0075
  735MOL0     C99099   7.841   7.291   3.477  0.3845  0.7345 -0.3067
  735MOL0     C99100   7.837   7.210   3.345 -1.1712  0.3550 -0.1509
  735MOL0     C99101   7.977   7.205   3.288  0.3207  0.1753  0.6171
  735MOL0     C99102   7.976   7.118   3.161  0.1333  0.0067  0.3108
  735MOL0     C99103   8.119   7.111   3.099 -0.2552  0.8923 -0.2112
  735MOL0     C99104   8.177   7.238   3.056 -0.3920  0.1046  0.0199
  735MOL0     C99105   8.318   7.213   2.993  0.2617 -0.6264 -0.5247
  735MOL0     C99106   8.433   7.248   3.096  0.7713  0.3635 -0.2615
  735MOL0     N99107   8.576   7.234   3.048  0.4535  0.8771  0.3653
  735MOL0     C99108   8.633   7.301   2.941 -0.2429 -0.4164  0.0948
  735MOL0     C99109   8.762   7.250   2.937 -0.0151  0.1648  0.2065
  735MOL0     C99110   8.860   7.277   2.832 -0.1708  0.0601  0.3858
  735MOL0     C99111   8.947   7.400   2.869  0.9058 -1.0432  0.3546
  735MOL0     C99112   9.009   7.437   2.736  0.3458 -0.2170  0.3024
  735MOL0     C99113   8.923   7.536   2.650  0.1887  0.5928 -0.0568
  735MOL0     O99114   8.863   7.469   2.543  0.2945 -0.1098  0.3687
  735MOL0     C99115   8.914   7.478   2.411 -0.3086 -0.0884  0.1008
  735MOL0     C99116   8.830   7.456   2.302  0.0129 -0.1397  0.1056
  735MOL0     C99117   8.881   7.459   2.167 -0.8128 -0.4456 -0.2209
  735MOL0     C99118   8.772   7.457   2.064  0.0361 -0.3849 -0.4130
  735MOL0     C99119   9.021   7.489   2.146 -0.3180  0.5560  0.4948
  735MOL0     C99120   9.075   7.507   2.006 -0.2909  0.5453  0.5081
  735MOL0     O99121   9.209   7.472   1.992 -0.5701  0.4577 -0.3071
  735MOL0     C99122   9.271   7.440   1.872  0.4808  1.6182 -0.5386
  735MOL0     C99123   9.405   7.462   1.858 -0.0538 -0.2180 -0.1733
  735MOL0     C99124   9.465   7.442   1.727  0.3675  0.2046 -0.2014
  735MOL0     C99125   9.395   7.382   1.627  0.2715  0.3669 -0.2374
  735MOL0     O99126   9.457   7.352   1.513 -0.8097  0.1835  0.0296
  735MOL0     C99127   9.409   7.442   1.408 -0.0795  0.3462 -0.0358
  735MOL0     C99128   9.472   7.411   1.265  0.1714 -0.4409 -0.6362
  735MOL0     C99129   9.622   7.452   1.258  0.9330 -0.5381  0.3157
  735MOL0     C99130   9.707   7.412   1.383 -0.4970 -0.0777  0.1215
  735MOL0     C99131   9.856   7.421   1.356 -0.2318  0.4433 -0.6754
  735MOL0     C99132   9.945   7.335   1.432 -0.0900 -0.6723 -0.4821
  735MOL0     C99133  10.078   7.338   1.351  0.7024  0.1201  0.2127
  735MOL0     C99134  10.202   7.298   1.436  0.2192  0.0336  0.1574
  735MOL0    Cl99135  10.334   7.288   1.331  0.4377  0.1174  0.5284
  735MOL0     C99136   9.263   7.336   1.645  0.1389 -0.7400  0.0315
  735MOL0     C99137   9.205   7.369   1.765 -0.0801  0.6254  0.1135
  735MOL0     O99138   9.005   7.550   1.911 -0.3140 -0.5999 -0.1406
  735MOL0     C99139   9.101   7.513   2.261 -0.3995  0.8826 -0.3978
  735MOL0     C99140   9.049   7.499   2.391  0.3605 -0.4879  0.4120
  735MOL0     N99141   8.795   7.178   3.052  0.5545  0.1931  0.9361
  735MOL0     N99142   8.674   7.157   3.100 -0.3148  0.4037  0.2625
  735MOL0     C99143   7.570   7.444   3.573 -0.1782  0.0870  0.1522
  735MOL0     C99144   7.460   7.523   3.541  0.3965 -0.2057  0.2311
  735MOL0     C99145   7.057   7.671   3.436 -0.5302  1.6377  0.0573
  735MOL0     C99146   6.984   7.757   3.512 -0.2598  0.3316 -0.1624
  735MOL0     C99147   6.897   7.854   3.455  0.0855  0.0802 -0.5397
  735MOL0     C99148   6.873   7.853   3.318  0.1287  0.2435  0.3387
  735MOL0     O99149   6.792   7.941   3.248  0.7727 -0.4752  0.6858
  735MOL0     C99150   6.754   8.065   3.311 -0.1193 -0.5571  0.7990
  735MOL0     C99151   6.616   8.040   3.373  0.0522  0.5859  0.1935
  735MOL0     C99152   6.552   8.167   3.413  0.6870 -0.3665 -0.3837
  735MOL0     C99153   6.586   8.196   3.566  0.1963 -0.4633 -0.2472
  735MOL0     C99154   6.523   8.313   3.619 -0.2679  0.0540 -0.2196
  735MOL0     C99155   6.462   8.408   3.659  0.0954 -0.0505 -0.0371
  735MOL0     C99156   6.945   7.765   3.240 -0.3924 -0.4396  0.5502
  735MOL0     C99157   7.032   7.670   3.298  0.0778 -0.1908  0.7377
  735MOL0     H99158   7.315   7.288   3.340  1.3961 -2.8048 -1.3780
  735MOL0     H99159   7.544   7.187   3.365  0.3877  1.5124 -2.4500
  735MOL0     H99160   7.847   7.395   3.443 -4.5702  1.6934  0.9415
  735MOL0     H99161   7.925   7.255   3.537 -0.4318  0.3088  0.6143
  735MOL0     H99162   7.820   7.106   3.372  3.9515 -0.5515  0.5340
  735MOL0     H99163   7.758   7.248   3.279  0.2156  0.3761 -1.8576
  735MOL0     H99164   8.011   7.304   3.254  1.3278 -0.5226 -0.4782
  735MOL0     H99165   8.049   7.164   3.360 -0.6427 -1.9700  0.4404
  735MOL0     H99166   7.944   7.014   3.178  0.4753 -0.6804 -2.7429
  735MOL0     H99167   7.912   7.168   3.088  0.1241  0.4031  0.5873
  735MOL0     H99168   8.190   7.060   3.165 -0.0149  0.1596 -1.0127
  735MOL0     H99169   8.110   7.040   3.017 -0.3629  0.7643 -0.0873
  735MOL0     H99170   8.099   7.288   2.997 -1.2318  2.4697  2.9350
  735MOL0     H99171   8.183   7.300   3.146  1.4580  1.2984 -0.8637
  735MOL0     H99172   8.332   7.119   2.937  0.1283  0.3830 -2.3511
  735MOL0     H99173   8.315   7.288   2.913 -0.5132 -0.1114 -0.0132
  735MOL0     H99174   8.409   7.188   3.184 -1.6230 -0.6054 -1.4944
  735MOL0     H99175   8.423   7.354   3.120  1.1267  1.2090 -3.3543
  735MOL0     H99176   8.582   7.370   2.875 -2.0545  1.8639  3.5631
  735MOL0     H99177   8.925   7.189   2.827  3.2324  2.3448  0.9938
  735MOL0     H99178   8.809   7.282   2.736  0.1896 -1.7757  0.0571
  735MOL0     H99179   9.012   7.379   2.955 -1.3927  1.4850  2.9485
  735MOL0     H99180   8.876   7.479   2.896  1.0697  0.5419 -3.2954
  735MOL0     H99181   9.035   7.354   2.669 -0.2108  0.4303 -0.7566
  735MOL0     H99182   9.102   7.488   2.763 -0.2726  1.0831  0.0604
  735MOL0     H99183   8.976   7.628   2.622  0.0486  0.6999  0.0280
  735MOL0     H99184   8.841   7.569   2.714  1.2078 -0.3600  1.8206
  735MOL0     H99185   8.723   7.449   2.320  0.1569 -1.4132  0.5068
  735MOL0     H99186   8.761   7.550   2.007 -0.4070 -0.8219 -1.0501
  735MOL0     H99187   8.790   7.372   1.998 -3.3148 -0.3754 -1.4998
  735MOL0     H99188   8.675   7.442   2.113  0.4358 -3.1339 -0.3085
  735MOL0     H99189   9.455   7.495   1.949  0.8933 -0.7857 -0.4807
  735MOL0     H99190   9.571   7.466   1.717  0.3596  0.8398  1.0171
  735MOL0     H99191   9.301   7.431   1.405 -0.0561 -0.0735 -3.4996
  735MOL0     H99192   9.436   7.547   1.427 -0.2480  1.1969 -3.7334
  735MOL0     H99193   9.451   7.305   1.248  0.7086 -1.7394  4.9248
  735MOL0     H99194   9.417   7.467   1.189  0.0980 -2.8412 -2.4526
  735MOL0     H99195   9.623   7.561   1.248 -2.4458 -0.5156 -0.8772
  735MOL0     H99196   9.681   7.427   1.169  2.8719  1.2147  1.0211
  735MOL0     H99197   9.684   7.478   1.467  0.2349 -2.6340  2.4687
  735MOL0     H99198   9.675   7.310   1.403 -0.6271 -0.0614  0.0045
  735MOL0     H99199   9.885   7.525   1.373  2.0390  0.4771 -3.9858
  735MOL0     H99200   9.862   7.398   1.249  0.3576  5.8526 -2.0965
  735MOL0     H99201   9.965   7.383   1.528  0.5243  0.8636 -1.3299
  735MOL0     H99202   9.900   7.236   1.426 -1.3887 -0.1705  0.6425
  735MOL0     H99203  10.101   7.441   1.323 -2.1372  0.8984  0.4693
  735MOL0     H99204  10.075   7.262   1.271 -1.4556 -0.3935  0.7367
  735MOL0     H99205  10.166   7.206   1.483 -2.0964  0.2497 -1.0631
  735MOL0     H99206  10.212   7.380   1.508 -2.9736  1.2214 -0.5920
  735MOL0     H99207   9.198   7.282   1.577 -0.6747  1.2477 -0.8347
  735MOL0     H99208   9.099   7.350   1.779  0.3119 -0.7860  1.5082
  735MOL0     H99209   9.210   7.520   2.261 -0.4315  1.4547  0.4558
  735MOL0     H99210   9.116   7.507   2.477  0.8844 -3.0235  0.3115
  735MOL0     H99211   7.639   7.473   3.651 -0.7780 -0.1061  0.7645
  735MOL0     H99212   7.448   7.612   3.602  4.4130  0.5082  0.2878
  735MOL0     H99213   6.991   7.749   3.620 -1.0968 -0.5526 -0.1607
  735MOL0     H99214   6.845   7.929   3.513  3.2443  3.1344 -1.2839
  735MOL0     H99215   6.831   8.097   3.382  0.8255 -0.3507 -0.2877
  735MOL0     H99216   6.740   8.145   3.237 -2.6132  0.5333  2.3064
  735MOL0     H99217   6.625   7.967   3.454  0.6865  0.8114  0.3308
  735MOL0     H99218   6.548   8.001   3.296  1.8932  0.3937 -1.4439
  735MOL0     H99219   6.443   8.164   3.412  0.5586  0.3639  2.6741
  735MOL0     H99220   6.590   8.252   3.356  0.2119 -2.2635 -3.7946
  735MOL0     H99221   6.693   8.212   3.578  0.9765 -1.8209 -4.1208
  735MOL0     H99222   6.542   8.110   3.619 -1.3001 -0.7940 -1.9351
  735MOL0     H99223   6.419   8.505   3.677 -0.9444 -0.6364  0.7537
  735MOL0     H99224   6.937   7.752   3.133  1.9307 -0.8627  0.3739
  735MOL0     H99225   7.087   7.612   3.224 -0.2160  0.0817  0.3003
  736MOL0     O99226   8.377   3.112   2.088  0.5342  0.2330  0.4663
  736MOL0     C99227   8.291   3.020   2.093 -0.1445 -0.2662  0.5477
  736MOL0     O99228   8.301   2.902   2.175  0.1953  0.0791  1.1637
  736MOL0     C99229   8.406   2.880   2.258 -1.2162  0.0649 -1.0049
  736MOL0     C99230   8.465   2.961   2.352 -1.0246 -0.4192 -0.2511
  736MOL0     C99231   8.582   2.938   2.422 -1.0156 -0.0034 -0.6508
  736MOL0     C99232   8.651   2.826   2.382  0.3293 -0.0083  0.4063
  736MOL0     O99233   8.774   2.813   2.449 -0.1985 -0.0569 -0.4634
  736MOL0     C99234   8.850   2.691   2.435  0.6320 -1.0725  0.1925
  736MOL0     C99235   8.958   2.692   2.542  0.2583  0.9206 -0.1858
  736MOL0     C99236   8.914   2.656   2.684 -0.2521  0.0439  0.5910
  736MOL0     C99237   9.040   2.638   2.772 -0.0293  0.9657  0.1823
  736MOL0     C99238   9.129   2.756   2.798 -0.1216 -0.6319  0.4513
  736MOL0     C99239   9.242   2.741   2.897 -0.8149  0.0149  0.2750
  736MOL0     C99240   9.318   2.874   2.891 -0.5204  0.2306 -0.6478
  736MOL0     C99241   9.424   2.888   3.004  0.2542  0.3758 -0.4050
  736MOL0     N99242   9.490   3.026   3.008 -0.9318  0.4525  0.7340
  736MOL0     C99243   9.623   3.046   3.020 -0.9862 -0.5900  0.0951
  736MOL0     C99244   9.640   3.178   3.028  0.4488 -0.0179  0.1635
  736MOL0     C99245   9.770   3.245   3.032 -0.6554  0.1412 -0.1358
  736MOL0     C99246   9.811   3.339   2.917  0.6256  0.9830 -0.2406
  736MOL0     C99247   9.956   3.389   2.924  0.1056 -0.2432 -0.1888
  736MOL0     C99248   9.980   3.507   2.831 -0.1344 -0.2407  0.4396
  736MOL0     O99249  10.115   3.543   2.830 -0.0276 -0.4841 -0.4980
  736MOL0     C99250  10.175   3.599   2.941 -0.9696  1.1643 -0.0461
  736MOL0     C99251  10.111   3.660   3.051  0.0376 -0.0104 -0.2390
  736MOL0     C99252  10.190   3.725   3.147  0.4668  0.3481  0.1711
  736MOL0     C99253  10.126   3.810   3.257  0.5186  0.3620  0.0592
  736MOL0     C99254  10.333   3.720   3.141  0.0636 -0.8383 -0.1803
  736MOL0     C99255  10.424   3.791   3.237  0.1148  0.4357  0.2834
  736MOL0     O99256  10.540   3.841   3.193  0.1099  0.1864 -0.3933
  736MOL0     C99257  10.631   3.912   3.266  0.0571  0.7295  0.7788
  736MOL0     C99258  10.591   4.000   3.366  0.5442  0.5469  0.1731
  736MOL0     C99259  10.681   4.080   3.433 -0.4577 -0.6441  0.9121
  736MOL0     C99260  10.819   4.064   3.401 -0.3004 -0.9870 -0.6190
  736MOL0     O99261  10.921   4.134   3.460 -0.4330 -0.0776 -0.2278
  736MOL0     C99262  10.919   4.212   3.581 -0.4883 -0.2887 -0.3362
  736MOL0     C99263  11.063   4.243   3.628  0.7167  0.5169  1.5743
  736MOL0     C99264  11.151   4.351   3.565 -0.2345  0.1561  0.1331
  736MOL0     C99265  11.072   4.485   3.552  0.8379 -0.0214  0.4188
  736MOL0     C99266  11.164   4.599   3.514  0.0347  0.3647 -0.1115
  736MOL0     C99267  11.082   4.719   3.464 -0.0448  0.7072 -0.3361
  736MOL0     C99268  11.173   4.809   3.386 -0.5429  0.3638 -0.7307
  736MOL0     C99269  11.101   4.928   3.323  0.8487 -0.3764 -0.6528
  736MOL0    Cl99270  10.979   4.869   3.200 -0.3791  0.3847 -0.0127
  736MOL0     C99271  10.861   3.973   3.305  1.0604  0.1605  0.3510
  736MOL0     C99272  10.767   3.896   3.238  0.3439  0.1718 -0.9883
  736MOL0     O99273  10.396   3.782   3.356 -0.7831  0.7041 -0.2267
  736MOL0     C99274  10.397   3.656   3.030 -0.3961  0.4104 -0.7079
  736MOL0     C99275  10.316   3.599   2.926  0.4434  0.0378  0.5553
  736MOL0     N99276   9.516   3.243   3.006  0.9838  0.0719 -0.1031
  736MOL0     N99277   9.429   3.145   3.003  0.3111 -0.1938  0.4050
  736MOL0     C99278   8.601   2.724   2.290 -0.4806 -0.6312 -0.0837
  736MOL0     C99279   8.475   2.758   2.227  0.9643 -0.3908 -1.1986
  736MOL0     C99280   8.165   3.044   2.018 -0.3356 -0.5453 -0.0770
  736MOL0     C99281   8.137   3.171   1.955  0.0517  0.5212 -0.3747
  736MOL0     C99282   8.018   3.188   1.889  0.4260  0.3054  0.1551
  736MOL0     C99283   7.929   3.082   1.866 -0.4379 -0.4077 -0.3864
  736MOL0     O99284   7.834   3.105   1.782  0.1728  0.3006  0.3596
  736MOL0     C99285   7.746   2.997   1.727 -0.3731 -0.7846  0.5712
  736MOL0     C99286   7.617   3.066   1.659  0.4333  0.6080  0.5005
  736MOL0     C99287   7.551   3.185   1.726 -0.4330  0.4367  0.0429
  736MOL0     C99288   7.531   3.161   1.869  0.5240  0.1234  0.3118
  736MOL0     C99289   7.486   3.292   1.920 -0.3505 -0.4573 -0.5888
  736MOL0     C99290   7.457   3.397   1.977 -0.0405 -0.2226  1.1078
  736MOL0     C99291   7.961   2.953   1.912 -0.3068  0.3390 -0.0078
  736MOL0     C99292   8.075   2.935   1.991  0.1118  0.0066 -0.5662
  736MOL0     H99293   8.421   3.056   2.382 -1.6513 -0.6419 -0.4469
  736MOL0     H99294   8.623   3.014   2.488 -1.2935  2.3546 -3.0379
  736MOL0     H99295   8.788   2.602   2.445 -0.2767 -0.6560 -1.4695
  736MOL0     H99296   8.895   2.683   2.336  1.8543  1.4329  0.4643
  736MOL0     H99297   9.035   2.620   2.513 -0.2607  1.4539 -3.2774
  736MOL0     H99298   8.995   2.794   2.556 -1.7087  1.7342 -0.6321
  736MOL0     H99299   8.868   2.745   2.726  0.8196  1.0133 -0.2124
  736MOL0     H99300   8.856   2.564   2.690 -1.0993  0.6127  1.3550
  736MOL0     H99301   9.016   2.595   2.870  1.3575 -0.4738 -0.0655
  736MOL0     H99302   9.107   2.562   2.730  0.5201  0.3723  2.0594
  736MOL0     H99303   9.166   2.792   2.702  1.3161  0.7268  1.4558
  736MOL0     H99304   9.055   2.830   2.832  0.0630  1.1202 -2.6460
  736MOL0     H99305   9.198   2.721   2.995 -0.2803  0.7122  0.6730
  736MOL0     H99306   9.310   2.661   2.865  1.8983 -0.2300  5.5113
  736MOL0     H99307   9.359   2.890   2.791 -1.0329  3.8693 -0.4446
  736MOL0     H99308   9.253   2.961   2.904 -1.4907 -0.7430  1.4408
  736MOL0     H99309   9.504   2.814   3.004 -1.0667 -1.2016  2.2200
  736MOL0     H99310   9.376   2.869   3.101  3.5643 -1.2359  1.0625
  736MOL0     H99311   9.708   2.978   3.026 -1.9637 -1.8055  0.8052
  736MOL0     H99312   9.773   3.314   3.117 -3.1176  0.5622 -0.3240
  736MOL0     H99313   9.854   3.175   3.036 -0.0214  0.9338  1.4723
  736MOL0     H99314   9.740   3.421   2.908  0.9929  1.2891 -0.4009
  736MOL0     H99315   9.805   3.287   2.821 -1.7478 -0.2424  0.4943
  736MOL0     H99316  10.022   3.314   2.879 -0.5473  0.5774 -2.6900
  736MOL0     H99317   9.995   3.420   3.021  1.2290  1.1760 -1.0347
  736MOL0     H99318   9.913   3.590   2.855 -1.1684 -1.2548  1.1491
  736MOL0     H99319   9.970   3.476   2.726  1.4608  0.2897  0.1019
  736MOL0     H99320  10.002   3.661   3.049  0.0425  0.9960 -0.3261
  736MOL0     H99321  10.018   3.812   3.242  0.5861  0.4377 -0.4752
  736MOL0     H99322  10.152   3.777   3.357  1.0816  0.8644  0.0838
  736MOL0     H99323  10.166   3.911   3.240  2.3059 -0.4881 -1.1043
  736MOL0     H99324  10.489   4.023   3.396  0.3115 -1.5383  1.1255
  736MOL0     H99325  10.647   4.161   3.497  1.6615  1.8935 -0.9585
  736MOL0     H99326  10.863   4.305   3.564 -2.1407 -0.5643  2.7992
  736MOL0     H99327  10.877   4.153   3.664 -1.0983  0.9314  0.2458
  736MOL0     H99328  11.049   4.274   3.732  0.2361  2.3971  0.9764
  736MOL0     H99329  11.125   4.153   3.618  0.6080  0.6472 -0.7694
  736MOL0     H99330  11.188   4.311   3.470  2.8696 -2.6145  2.2500
  736MOL0     H99331  11.241   4.372   3.623 -0.2963  0.9190 -0.0256
  736MOL0     H99332  11.000   4.468   3.471  2.7329  0.3060 -1.4160
  736MOL0     H99333  11.015   4.506   3.643  0.4009 -1.7792  0.5877
  736MOL0     H99334  11.216   4.550   3.431 -3.6574 -2.6852 -0.9055
  736MOL0     H99335  11.227   4.626   3.599 -2.1437 -1.7088  2.3219
  736MOL0     H99336  11.008   4.668   3.402  1.0861  0.3021 -1.3808
  736MOL0     H99337  11.036   4.774   3.547  3.9827  1.8045  1.4117
  736MOL0     H99338  11.233   4.758   3.310  3.7777  1.1102  1.8437
  736MOL0     H99339  11.245   4.854   3.455  2.2668 -1.3985 -2.3097
  736MOL0     H99340  11.179   4.982   3.268  1.4964 -2.5748 -2.0029
  736MOL0     H99341  11.067   4.992   3.405 -3.1355  0.5772 -2.7774
  736MOL0     H99342  10.962   3.963   3.266  0.9605  2.3359 -0.6014
  736MOL0     H99343  10.796   3.829   3.158 -1.4904  0.0696 -1.6346
  736MOL0     H99344  10.505   3.650   3.023 -0.5260 -1.7046 -1.5068
  736MOL0     H99345  10.343   3.582   2.823 -4.0625 -0.6192 -0.7253
  736MOL0     H99346   8.661   2.635   2.273 -0.4721 -0.9425  1.4267
  736MOL0     H99347   8.418   2.694   2.160 -1.9967  2.8554 -2.0873
  736MOL0     H99348   8.220   3.241   1.958  0.4381  0.0264  0.5133
  736MOL0     H99349   7.987   3.287   1.859 -2.0053 -0.7970 -1.2828
  736MOL0     H99350   7.805   2.941   1.654 -1.7043 -2.1415  0.5000
  736MOL0     H99351   7.713   2.929   1.806  1.2262 -0.9452  1.1371
  736MOL0     H99352   7.532   3.000   1.637 -1.3804  3.0918 -0.4098
  736MOL0     H99353   7.656   3.101   1.563  1.1187 -3.3228 -0.8428
  736MOL0     H99354   7.451   3.205   1.686  0.5346  2.5298 -1.5113
  736MOL0     H99355   7.622   3.266   1.709  0.6563 -0.8816 -2.0271
  736MOL0     H99356   7.615   3.128   1.931  0.4754 -0.6067 -0.0086
  736MOL0     H99357   7.453   3.089   1.894  0.3330  0.7475  1.5683
  736MOL0     H99358   7.427   3.488   2.024  0.0170  0.5951 -0.3853
  736MOL0     H99359   7.894   2.868   1.901 -2.2582  2.0769 -4.0667
  736MOL0     H99360   8.100   2.837   2.028  0.5639  1.0617  2.1977
  737MOL0     O99361   1.773  11.454   4.432 -0.7789  0.5360  0.7348
  737MOL0     C99362   1.748  11.458   4.552 -0.4163  0.0749  0.7844
  737MOL0     O99363   1.638  11.397   4.622  0.3595 -0.0669 -0.1182
  737MOL0     C99364   1.532  11.331   4.563  0.3253  1.6265  0.9302
  737MOL0     C99365   1.552  11.237   4.458 -0.1347  0.3322 -0.1823
  737MOL0     C99366   1.445  11.178   4.397 -0.3940 -0.4073  0.7198
  737MOL0     C99367   1.313  11.183   4.448  0.2256 -0.0306  0.3929
  737MOL0     O99368   1.206  11.113   4.398  0.9510  0.5970  0.2445
  737MOL0     C99369   1.228  11.041   4.275 -0.4939 -0.4038 -0.1566
  737MOL0     C99370   1.075  10.982   4.252 -0.6680  0.8162 -0.8408
  737MOL0     C99371   1.084  10.844   4.196  0.0788  0.9291 -0.0562
  737MOL0     C99372   1.172  10.845   4.068 -0.5402  0.2588 -0.3739
  737MOL0     C99373   1.222  10.708   4.020 -0.5791  0.5285 -0.2740
  737MOL0     C99374   1.338  10.661   4.115  0.0164  0.1082  0.0760
  737MOL0     C99375   1.396  10.522   4.066  0.3568  0.6327 -0.3709
  737MOL0     C99376   1.512  10.491   4.158 -0.9872 -0.1657  0.2770
  737MOL0     N99377   1.578  10.363   4.122 -0.3282  0.2899  0.3812
  737MOL0     C99378   1.526  10.249   4.161 -0.8472  0.3226 -0.0788
  737MOL0     C99379   1.610  10.155   4.109  0.1806 -0.1875 -0.0257
  737MOL0     C99380   1.609  10.007   4.117  0.4476 -0.2354 -0.1120
  737MOL0     C99381   1.733   9.977   4.204  0.3730  0.3571  0.1971
  737MOL0     C99382   1.710   9.831   4.258  0.1477  0.1861  1.1038
  737MOL0     C99383   1.837   9.739   4.269 -0.7823  0.3039 -0.9329
  737MOL0     O99384   1.801   9.601   4.275 -0.9986  0.1081  0.0880
  737MOL0     C99385   1.805   9.540   4.399  0.4373  0.6537  0.1629
  737MOL0     C99386   1.789   9.401   4.395 -0.4470  0.0349 -0.1511
  737MOL0     C99387   1.790   9.330   4.509  0.4282  0.3366 -0.0832
  737MOL0     C99388   1.739   9.192   4.487  0.1088  0.4270 -0.7766
  737MOL0     C99389   1.831   9.391   4.635  0.5609  0.5386 -0.9840
  737MOL0     C99390   1.863   9.314   4.757  1.2247 -1.2150 -0.2242
  737MOL0     O99391   1.879   9.382   4.882 -0.2135  0.3937  0.1655
  737MOL0     C99392   1.902   9.315   5.000  0.0385  0.7251 -0.4212
  737MOL0     C99393   1.846   9.194   5.038 -0.5806 -0.0398 -0.2184
  737MOL0     C99394   1.888   9.140   5.158 -0.0602  0.6013  0.3476
  737MOL0     C99395   1.982   9.202   5.246  0.1370 -0.0653 -0.5171
  737MOL0     O99396   2.035   9.141   5.360 -0.7605 -0.1872  0.4355
  737MOL0     C99397   1.955   9.062   5.442  0.0810  0.1057  0.8064
  737MOL0     C99398   2.021   9.051   5.568  0.4696  0.2964  0.5536
  737MOL0     C99399   1.999   9.175   5.658 -0.2806 -0.1331 -0.1850
  737MOL0     C99400   2.014   9.316   5.601 -0.9332  0.0523 -1.5975
  737MOL0     C99401   1.996   9.430   5.707  0.0762  0.0051  0.4895
  737MOL0     C99402   2.133   9.481   5.757 -0.0806 -0.0297 -0.1439
  737MOL0     C99403   2.109   9.605   5.844 -0.4108 -1.1834  0.1935
  737MOL0     C99404   2.249   9.657   5.878 -0.7683 -0.6965 -1.2751
  737MOL0    Cl99405   2.242   9.817   5.979 -0.0176 -0.6456 -0.3144
  737MOL0     C99406   2.017   9.333   5.219  0.3973 -0.5558 -0.5208
  737MOL0     C99407   1.973   9.393   5.097 -0.0025  0.9055  0.4516
  737MOL0     O99408   1.876   9.190   4.744 -0.0098  0.3299 -0.2995
  737MOL0     C99409   1.834   9.527   4.645  0.1876 -0.6094  0.3189
  737MOL0     C99410   1.816   9.601   4.525 -0.2614 -0.4606 -0.4215
  737MOL0     N99411   1.726  10.217   4.057  1.0227 -0.4541 -0.1561
  737MOL0     N99412   1.698  10.342   4.052  0.2073 -0.0413  0.1633
  737MOL0     C99413   1.297  11.260   4.567 -0.0926 -0.7112  1.0485
  737MOL0     C99414   1.403  11.339   4.617 -1.2619 -1.3842  1.4256
  737MOL0     C99415   1.834  11.539   4.639  0.2030  0.4613 -0.4956
  737MOL0     C99416   1.879  11.490   4.764 -0.0349  0.2907  1.2157
  737MOL0     C99417   1.980  11.551   4.836 -0.3208  0.5389  1.2396
  737MOL0     C99418   2.041  11.671   4.796 -0.7674 -0.1214  0.7341
  737MOL0     O99419   2.136  11.739   4.874  0.5579 -0.3719 -0.6802
  737MOL0     C99420   2.174  11.695   5.007 -0.4150  0.0450 -0.0556
  737MOL0     C99421   2.214  11.819   5.087  0.4243 -0.5798 -0.4899
  737MOL0     C99422   2.089  11.906   5.124  0.1058  0.0775  0.3702
  737MOL0     C99423   2.075  11.941   5.265 -0.1547 -0.9460 -0.9628
  737MOL0     C99424   2.178  12.029   5.325 -0.3634  0.3405  0.2651
  737MOL0     C99425   2.275  12.069   5.380 -0.3037 -0.1039  0.3250
  737MOL0     C99426   2.000  11.711   4.671 -0.2726  0.3017 -0.8766
  737MOL0     C99427   1.894  11.650   4.592 -0.6822 -0.3853 -0.1671
  737MOL0     H99428   1.652  11.215   4.421 -0.5290 -2.1287  0.0254
  737MOL0     H99429   1.481  11.109   4.322  1.7607  2.2512 -0.8657
  737MOL0     H99430   1.246  11.121   4.203  1.3968  2.1227  2.8529
  737MOL0     H99431   1.307  10.965   4.268 -0.4207 -0.3112 -0.3344
  737MOL0     H99432   1.023  10.982   4.348  2.4774 -1.8733  1.0978
  737MOL0     H99433   1.010  11.045   4.191 -0.0010  0.3053 -2.1209
  737MOL0     H99434   1.121  10.775   4.273  3.0586  1.1909 -1.1074
  737MOL0     H99435   0.987  10.807   4.163  1.1218 -0.4980 -1.7226
  737MOL0     H99436   1.118  10.892   3.984 -0.8263 -0.6071 -0.6865
  737MOL0     H99437   1.266  10.899   4.077  1.1775 -2.0497 -2.7915
  737MOL0     H99438   1.148  10.627   4.011  1.1634 -1.3198  1.0735
  737MOL0     H99439   1.265  10.704   3.919  1.4512 -3.1863  0.5353
  737MOL0     H99440   1.416  10.738   4.120  2.1024 -1.9478  1.6611
  737MOL0     H99441   1.295  10.637   4.213  0.4533  0.5568  0.3831
  737MOL0     H99442   1.321  10.442   4.062 -0.3032  1.2203 -0.0533
  737MOL0     H99443   1.428  10.530   3.962 -2.6208 -2.1722 -1.6929
  737MOL0     H99444   1.483  10.475   4.262 -0.6961 -0.3263  0.3357
  737MOL0     H99445   1.583  10.574   4.153 -2.0314  0.6518 -2.7138
  737MOL0     H99446   1.437  10.238   4.222  0.7713 -0.7833  2.1959
  737MOL0     H99447   1.517   9.977   4.168  0.2165 -3.3420 -2.0947
  737MOL0     H99448   1.616   9.969   4.015 -0.6270  1.9561 -1.0686
  737MOL0     H99449   1.741  10.054   4.281 -0.6613  1.4154 -0.6932
  737MOL0     H99450   1.820   9.977   4.138 -1.1228  0.1352 -1.8963
  737MOL0     H99451   1.635   9.791   4.189  0.0230  3.6509 -0.9935
  737MOL0     H99452   1.664   9.837   4.357 -2.1444 -0.4510  0.1365
  737MOL0     H99453   1.907   9.769   4.347 -2.0956  0.3285  0.2753
  737MOL0     H99454   1.905   9.768   4.188  1.8974 -1.0064  0.7236
  737MOL0     H99455   1.765   9.346   4.304 -4.4918  0.5227  0.4371
  737MOL0     H99456   1.686   9.147   4.572  1.1713  0.8601  0.1385
  737MOL0     H99457   1.688   9.164   4.394  1.0213 -0.4538 -1.0310
  737MOL0     H99458   1.828   9.129   4.494 -2.1869 -3.0235 -0.1601
  737MOL0     H99459   1.776   9.141   4.973  2.1547 -2.9296 -1.0739
  737MOL0     H99460   1.852   9.038   5.169 -0.3174  0.3097 -2.5162
  737MOL0     H99461   1.856   9.106   5.454 -0.6476 -1.5768  1.3692
  737MOL0     H99462   1.942   8.963   5.398 -0.0055  1.3897 -2.3031
  737MOL0     H99463   1.985   8.961   5.618  0.3800 -1.1370 -1.9130
  737MOL0     H99464   2.126   9.028   5.551  0.5727  0.7983  0.5008
  737MOL0     H99465   2.080   9.174   5.731  1.6020 -1.9276 -2.1579
  737MOL0     H99466   1.909   9.157   5.719 -0.3411 -1.7179 -0.6986
  737MOL0     H99467   2.116   9.325   5.561  0.1468  0.5824  1.0439
  737MOL0     H99468   1.930   9.327   5.532 -0.6275  0.0089 -1.9833
  737MOL0     H99469   1.937   9.394   5.791 -0.1579 -0.6869  0.0323
  737MOL0     H99470   1.930   9.500   5.655  0.8209 -0.2821 -0.8958
  737MOL0     H99471   2.174   9.403   5.822  0.8026  2.1088  1.9953
  737MOL0     H99472   2.194   9.505   5.669 -3.4976  0.8186 -2.4853
  737MOL0     H99473   2.037   9.584   5.924 -3.8591  0.2837 -2.2529
  737MOL0     H99474   2.058   9.679   5.781 -0.7950 -2.1021 -0.6059
  737MOL0     H99475   2.300   9.669   5.782 -1.3111 -2.0063 -1.7609
  737MOL0     H99476   2.310   9.578   5.924 -0.4191  0.7011  0.8152
  737MOL0     H99477   2.072   9.395   5.288 -1.7955  0.1842  0.6548
  737MOL0     H99478   1.998   9.494   5.067 -0.7082  0.0427 -3.5579
  737MOL0     H99479   1.856   9.591   4.730  2.9064  3.0215 -2.7764
  737MOL0     H99480   1.809   9.707   4.547 -0.8867 -0.5125 -0.3461
  737MOL0     H99481   1.199  11.270   4.613  0.5192  0.9862  2.0812
  737MOL0     H99482   1.386  11.390   4.711 -0.1811 -0.8770  1.3522
  737MOL0     H99483   1.832  11.400   4.802  0.5600 -0.2665  0.6571
  737MOL0     H99484   1.999  11.503   4.932 -0.0821  0.1854  1.0174
  737MOL0     H99485   2.104  11.626   5.055  2.5184 -1.9597  1.6668
  737MOL0     H99486   2.266  11.639   4.989 -0.4371  0.2418 -0.8039
  737MOL0     H99487   2.289  11.879   5.035  3.2631  0.5071  4.3042
  737MOL0     H99488   2.256  11.779   5.180 -1.8846  1.4773  1.5683
  737MOL0     H99489   2.000  11.855   5.086  1.3751 -3.2076  1.4819
  737MOL0     H99490   2.084  12.001   5.070 -0.4295 -0.4849 -0.6059
  737MOL0     H99491   2.071  11.846   5.319  2.5615 -1.8589 -2.1968
  737MOL0     H99492   1.985  12.002   5.279  1.9684  2.5100 -1.1284
  737MOL0     H99493   2.365  12.112   5.420  3.1042 -4.1767 -2.1498
  737MOL0     H99494   2.045  11.804   4.638 -0.5102  0.5966 -0.3857
  737MOL0     H99495   1.869  11.689   4.494 -1.7863 -0.4955  0.0627
  738MOL0     O99496   2.990   0.142   4.893 -0.0845  0.4183  0.2277
  738MOL0     C99497   2.969   0.261   4.907  0.9698 -0.2100 -0.6720
  738MOL0     O99498   2.846   0.325   4.881  0.4379 -0.2478 -0.3496
  738MOL0     C99499   2.747   0.248   4.828  0.4066 -0.0387  0.6794
  738MOL0     C99500   2.647   0.195   4.915 -0.3739  0.8826  0.1189
  738MOL0     C99501   2.543   0.111   4.858  0.3496 -0.0895  0.3431
  738MOL0     C99502   2.538   0.102   4.726 -0.0192  0.1020 -0.9715
  738MOL0     O99503   2.437   0.050   4.661  0.2035 -0.5668  0.6593
  738MOL0     C99504   2.347  -0.037   4.719  0.6196 -0.0601 -0.2416
  738MOL0     C99505   2.268  -0.118   4.615  0.3577 -0.1303 -0.0622
  738MOL0     C99506   2.189  -0.034   4.513 -0.5272  0.2302 -0.0625
  738MOL0     C99507   2.254  -0.020   4.370 -0.1254 -0.4347  0.2213
  738MOL0     C99508   2.199   0.086   4.280  0.1062 -0.1683  0.0856
  738MOL0     C99509   2.247   0.069   4.140 -0.2446  0.5241 -0.1496
  738MOL0     C99510   2.204   0.188   4.046 -0.6226  0.5456  0.2406
  738MOL0     C99511   2.053   0.174   4.029  0.0714  0.0296  0.1941
  738MOL0     N99512   1.995   0.272   3.944  0.1214 -0.1206  0.6225
  738MOL0     C99513   1.961   0.401   3.979 -0.5376  0.6265 -0.7617
  738MOL0     C99514   1.922   0.450   3.857  0.0353 -0.2699 -0.0649
  738MOL0     C99515   1.853   0.579   3.839 -0.8691 -0.9163 -0.4672
  738MOL0     C99516   1.958   0.689   3.808  0.4972  0.7374  0.6339
  738MOL0     C99517   1.888   0.822   3.785 -0.2113  0.2804  0.2853
  738MOL0     C99518   1.987   0.922   3.720  0.3279 -0.2727  0.0703
  738MOL0     O99519   1.979   0.915   3.578 -0.2239 -0.4402  0.1774
  738MOL0     C99520   1.875   0.970   3.514 -0.4738 -0.4372 -0.6993
  738MOL0     C99521   1.773   1.047   3.562 -0.1815  0.2708  0.2202
  738MOL0     C99522   1.688   1.111   3.477 -0.1864 -0.8062  0.2562
  738MOL0     C99523   1.581   1.196   3.531 -0.1899  0.2182  0.1530
  738MOL0     C99524   1.711   1.118   3.334  0.0388  0.1499 -0.1264
  738MOL0     C99525   1.646   1.194   3.221  0.0381  1.4120 -1.0965
  738MOL0     O99526   1.679   1.169   3.093  0.2024  0.1031  0.5241
  738MOL0     C99527   1.641   1.239   2.980  0.4390 -0.0768 -0.7842
  738MOL0     C99528   1.686   1.177   2.859 -1.0205  0.4933 -0.3143
  738MOL0     C99529   1.671   1.244   2.738 -0.4656  0.0156 -0.5710
  738MOL0     C99530   1.609   1.374   2.743 -0.4910  0.4764 -0.2110
  738MOL0     O99531   1.600   1.442   2.626  0.2647  0.1172 -0.0948
  738MOL0     C99532   1.557   1.582   2.632  1.0785 -0.0130 -0.4509
  738MOL0     C99533   1.551   1.647   2.492  0.2947 -0.1578 -0.5708
  738MOL0     C99534   1.694   1.699   2.453  0.4039 -0.5544 -0.7799
  738MOL0     C99535   1.778   1.583   2.404  0.2105 -0.2159 -0.8080
  738MOL0     C99536   1.913   1.617   2.346  0.1541 -0.0539 -0.2720
  738MOL0     C99537   1.991   1.496   2.308  0.4509 -1.4804 -0.3043
  738MOL0     C99538   2.130   1.540   2.253 -1.0099  0.5578 -0.0871
  738MOL0     C99539   2.225   1.572   2.369  0.3583  1.0224  0.3876
  738MOL0    Cl99540   2.362   1.670   2.295  0.3536  0.1464  0.0010
  738MOL0     C99541   1.554   1.428   2.865 -0.0159 -0.2458 -0.7079
  738MOL0     C99542   1.577   1.362   2.979 -1.3246  0.3063 -0.1052
  738MOL0     O99543   1.555   1.270   3.256  0.4877 -0.2342  0.5932
  738MOL0     C99544   1.813   1.021   3.290  0.0826  0.0649 -1.0519
  738MOL0     C99545   1.885   0.942   3.380 -0.7873 -0.7064 -0.9269
  738MOL0     N99546   1.920   0.363   3.753  0.5952 -0.2598  0.1274
  738MOL0     N99547   1.965   0.257   3.815 -0.0962 -0.0294  0.1081
  738MOL0     C99548   2.639   0.156   4.642  0.3067  0.5956 -0.7240
  738MOL0     C99549   2.744   0.234   4.689  0.5417 -0.4478  0.2867
  738MOL0     C99550   3.077   0.337   4.968  0.1544 -0.0939 -0.8088
  738MOL0     C99551   3.201   0.273   4.992 -0.1188 -0.2274  1.2670
  738MOL0     C99552   3.303   0.342   5.066 -0.5416 -1.0765  0.1006
  738MOL0     C99553   3.279   0.467   5.124 -0.8816  0.2635  0.7337
  738MOL0     O99554   3.370   0.525   5.207  0.2011  0.5293 -0.2030
  738MOL0     C99555   3.366   0.461   5.335 -0.1367  0.6404 -0.4571
  738MOL0     C99556   3.457   0.530   5.425 -0.0463  0.2315  0.2111
  738MOL0     C99557   3.401   0.649   5.495 -0.2985 -0.5119  0.6105
  738MOL0     C99558   3.485   0.696   5.610 -0.6511 -0.2987 -0.3140
  738MOL0     C99559   3.607   0.771   5.575 -0.1582 -0.0679 -0.5581
  738MOL0     C99560   3.715   0.822   5.571 -1.1475 -0.4133 -0.4316
  738MOL0     C99561   3.162   0.537   5.102  0.7766  0.2203 -0.1562
  738MOL0     C99562   3.059   0.471   5.019 -0.6394  0.1578  0.4183
  738MOL0     H99563   2.665   0.202   5.022 -1.0888 -1.8708  0.4822
  738MOL0     H99564   2.467   0.060   4.917 -1.8858  0.9517 -1.4729
  738MOL0     H99565   2.393  -0.117   4.777 -0.4631  0.1447  0.9269
  738MOL0     H99566   2.273   0.018   4.778  1.5889 -0.1099  1.0509
  738MOL0     H99567   2.329  -0.190   4.559 -0.0828 -1.9738  1.7215
  738MOL0     H99568   2.194  -0.175   4.672 -0.9449  0.4811 -1.0953
  738MOL0     H99569   2.083  -0.059   4.509 -1.0960  1.9537  2.1042
  738MOL0     H99570   2.190   0.070   4.546  2.7934  0.3202 -0.1438
  738MOL0     H99571   2.363  -0.016   4.363 -0.1797  2.8802 -0.7155
  738MOL0     H99572   2.214  -0.103   4.311 -0.5048  0.2269 -0.4779
  738MOL0     H99573   2.090   0.089   4.291  0.1221 -1.8271  1.1157
  738MOL0     H99574   2.235   0.184   4.313 -0.2949  0.1556 -0.4246
  738MOL0     H99575   2.356   0.070   4.154 -0.4503  2.0773  2.0099
  738MOL0     H99576   2.213  -0.026   4.098  0.0197  0.0456  0.6922
  738MOL0     H99577   2.231   0.287   4.083  0.5519 -0.1168  1.2334
  738MOL0     H99578   2.253   0.173   3.950 -0.6029  0.9789  0.1852
  738MOL0     H99579   2.020   0.184   4.133  1.9769 -0.9835  0.9466
  738MOL0     H99580   2.014   0.077   3.997 -1.8101  1.0679 -0.8200
  738MOL0     H99581   1.969   0.445   4.079 -3.9853  0.2382 -0.2134
  738MOL0     H99582   1.783   0.579   3.755 -1.1964  3.8476 -0.4852
  738MOL0     H99583   1.793   0.605   3.927  0.4417 -2.2216  0.8753
  738MOL0     H99584   2.010   0.658   3.718  2.0911  1.3642  1.3039
  738MOL0     H99585   2.023   0.715   3.892 -1.5736 -1.3837  3.0552
  738MOL0     H99586   1.859   0.849   3.886 -1.4801  0.5784 -0.1467
  738MOL0     H99587   1.793   0.818   3.732 -0.0733 -0.6812  0.0891
  738MOL0     H99588   2.084   0.909   3.767 -0.2905  4.1895  3.1506
  738MOL0     H99589   1.947   1.021   3.742  1.2205  0.4114 -1.2741
  738MOL0     H99590   1.748   1.038   3.668  0.5267 -2.7433  0.2166
  738MOL0     H99591   1.598   1.208   3.638  1.6273  2.7589 -0.3325
  738MOL0     H99592   1.581   1.300   3.498  3.9902  0.2753 -0.2305
  738MOL0     H99593   1.484   1.152   3.506 -0.0369 -0.8458  1.3217
  738MOL0     H99594   1.742   1.085   2.863  3.1294  2.4997 -3.5092
  738MOL0     H99595   1.690   1.179   2.653  1.0557  1.9032 -1.7537
  738MOL0     H99596   1.456   1.596   2.673  1.0130  0.6109 -0.8077
  738MOL0     H99597   1.622   1.637   2.701  0.7217  1.2005 -1.0429
  738MOL0     H99598   1.505   1.581   2.418  0.3557  0.0223 -0.7696
  738MOL0     H99599   1.480   1.730   2.490 -0.8445 -1.0523  0.7465
  738MOL0     H99600   1.746   1.753   2.532  1.1155 -4.8883  2.0693
  738MOL0     H99601   1.680   1.763   2.365  0.7347  3.5908  1.8932
  738MOL0     H99602   1.798   1.522   2.493  0.0023 -2.2532 -2.1031
  738MOL0     H99603   1.723   1.531   2.325 -1.4664  1.1681 -0.5974
  738MOL0     H99604   1.968   1.682   2.414 -0.4309 -0.1691  0.3209
  738MOL0     H99605   1.900   1.669   2.250  1.7805 -0.8655 -0.9875
  738MOL0     H99606   2.021   1.435   2.394  2.3875  1.7041  1.4754
  738MOL0     H99607   1.929   1.449   2.231 -0.2692 -1.4975  0.2764
  738MOL0     H99608   2.124   1.626   2.187  0.8601  0.8941  0.1299
  738MOL0     H99609   2.175   1.460   2.194  0.1155  0.6335  0.6348
  738MOL0     H99610   2.256   1.476   2.411 -1.1740  0.2453 -0.1515
  738MOL0     H99611   2.161   1.625   2.439 -3.6884 -0.5644 -1.7503
  738MOL0     H99612   1.495   1.519   2.870  2.5350  1.5828 -1.9336
  738MOL0     H99613   1.526   1.397   3.068 -0.2181  0.9576  0.2925
  738MOL0     H99614   1.825   1.011   3.183 -0.3342  0.6450 -1.1575
  738MOL0     H99615   1.974   0.889   3.351 -0.2500 -0.6520  0.5121
  738MOL0     H99616   2.636   0.136   4.535  1.6978 -2.6131 -0.2803
  738MOL0     H99617   2.822   0.271   4.624 -3.1579  0.1118 -4.3686
  738MOL0     H99618   3.218   0.180   4.938  0.8175 -0.0647  1.2666
  738MOL0     H99619   3.401   0.300   5.087 -0.2633  0.7731  3.1972
  738MOL0     H99620   3.265   0.459   5.378 -1.5347  2.9616 -3.2777
  738MOL0     H99621   3.402   0.358   5.331  0.0851  0.5793  1.7552
  738MOL0     H99622   3.547   0.554   5.367 -0.7263 -3.1026 -2.5799
  738MOL0     H99623   3.489   0.452   5.495 -1.7758  0.1306  0.9290
  738MOL0     H99624   3.300   0.629   5.532 -1.3183  2.5978 -0.1666
  738MOL0     H99625   3.376   0.728   5.422 -1.5157  0.3568  1.9165
  738MOL0     H99626   3.513   0.608   5.669 -2.5500 -2.2849 -2.1736
  738MOL0     H99627   3.426   0.763   5.674  0.2690 -0.3244  0.5794
  738MOL0     H99628   3.813   0.865   5.566 -0.2751 -2.4165 -1.9363
  738MOL0     H99629   3.144   0.632   5.151  3.4902  0.1656  1.1424
  738MOL0     H99630   2.960   0.515   5.025 -1.4916 -1.8700  2.5031
  739MOL0     O99631   3.049   8.033   8.529  0.2523  0.4169 -0.3754
  739MOL0     C99632   3.013   8.146   8.512  0.7330  1.5148  0.0976
  739MOL0     O99633   2.888   8.190   8.497  0.0026 -0.8647 -0.0828
  739MOL0     C99634   2.785   8.098   8.509  0.2888  0.0608  0.1127
  739MOL0     C99635   2.766   8.008   8.404  0.5355  0.4073 -0.3010
  739MOL0     C99636   2.655   7.910   8.408 -0.2351  0.0595  0.1476
  739MOL0     C99637   2.570   7.915   8.518  0.4987  0.8044 -0.5297
  739MOL0     O99638   2.463   7.837   8.498 -0.0621  0.0557 -0.5357
  739MOL0     C99639   2.376   7.806   8.610  0.0148 -0.6170  0.5909
  739MOL0     C99640   2.327   7.666   8.592  0.3342 -0.5766 -0.6501
  739MOL0     C99641   2.291   7.618   8.451  1.2043  0.2453  1.4563
  739MOL0     C99642   2.408   7.567   8.369  0.7984 -0.2773  1.1141
  739MOL0     C99643   2.372   7.490   8.242 -0.5785  0.0801  0.0880
  739MOL0     C99644   2.317   7.585   8.138  0.7373  0.8132  0.2915
  739MOL0     C99645   2.279   7.515   8.010  0.2272 -0.6688  0.2759
  739MOL0     C99646   2.390   7.444   7.931  0.4806  0.9126  0.1666
  739MOL0     N99647   2.383   7.298   7.952  0.3662  0.9297 -0.4965
  739MOL0     C99648   2.286   7.216   7.899 -0.2839  0.7352  0.0060
  739MOL0     C99649   2.319   7.095   7.944 -0.4756 -0.2718  0.3395
  739MOL0     C99650   2.238   6.969   7.931 -0.2249  0.5672 -1.5887
  739MOL0     C99651   2.167   6.919   8.065  0.2579  0.2951 -0.0259
  739MOL0     C99652   2.241   6.968   8.196 -0.4749 -0.6754  0.7452
  739MOL0     C99653   2.170   6.931   8.320 -0.5213  0.5373  0.3849
  739MOL0     O99654   2.056   7.019   8.350  0.0957  0.2599 -0.0664
  739MOL0     C99655   1.979   7.004   8.465  0.4544 -0.0398  0.8040
  739MOL0     C99656   2.014   6.923   8.580  1.0185  0.3741  1.0422
  739MOL0     C99657   1.937   6.927   8.700 -0.0449  0.2426  0.8135
  739MOL0     C99658   2.006   6.859   8.819 -0.1190  0.9414 -0.4616
  739MOL0     C99659   1.817   6.997   8.706 -0.3273 -0.0881  0.5438
  739MOL0     C99660   1.720   7.005   8.816 -0.5044 -0.5816 -0.8047
  739MOL0     O99661   1.610   7.077   8.814  0.3373 -0.0202  0.0659
  739MOL0     C99662   1.516   7.059   8.921  0.1124  0.3985  0.9161
  739MOL0     C99663   1.469   6.928   8.952  0.5072  0.5207  0.1613
  739MOL0     C99664   1.363   6.919   9.043  0.6455 -0.4953  0.3002
  739MOL0     C99665   1.307   7.033   9.105 -0.0328 -0.1906  0.0915
  739MOL0     O99666   1.205   7.013   9.198 -0.0032  0.7760 -0.1478
  739MOL0     C99667   1.120   7.118   9.228  0.1446  0.4471 -0.7634
  739MOL0     C99668   1.041   7.073   9.356 -0.1122  0.9590  0.5811
  739MOL0     C99669   0.954   6.949   9.327  0.1896  0.3632 -0.7723
  739MOL0     C99670   0.844   6.979   9.225  1.2151  0.0644  0.1400
  739MOL0     C99671   0.808   6.856   9.147  0.0713  0.5456  0.4353
  739MOL0     C99672   0.899   6.799   9.036  0.1330  0.0455 -0.4780
  739MOL0     C99673   0.920   6.890   8.918  0.4181 -0.5241 -0.0987
  739MOL0     C99674   1.009   6.835   8.808  0.7853 -0.1855 -0.9452
  739MOL0    Cl99675   0.931   6.806   8.654  0.1195  0.4791  0.0438
  739MOL0     C99676   1.347   7.154   9.057 -0.2837  0.2162  0.1248
  739MOL0     C99677   1.458   7.177   8.967  0.5349  0.2046 -0.2498
  739MOL0     O99678   1.757   6.953   8.916 -0.3072 -0.0581 -0.1798
  739MOL0     C99679   1.781   7.065   8.589  0.0391 -0.0580  0.4138
  739MOL0     C99680   1.854   7.065   8.471 -0.1332 -0.0172  0.7266
  739MOL0     N99681   2.442   7.099   8.003 -0.4940  0.2587 -0.5006
  739MOL0     N99682   2.477   7.225   8.011 -0.6722  0.2808 -0.2632
  739MOL0     C99683   2.593   7.997   8.630  0.1853 -0.6638 -0.1120
  739MOL0     C99684   2.700   8.091   8.624  0.6669 -1.2642 -0.2560
  739MOL0     C99685   3.115   8.246   8.536  0.2687  0.3806  0.3981
  739MOL0     C99686   3.095   8.379   8.501  0.8720 -0.6065  1.2703
  739MOL0     C99687   3.187   8.481   8.518 -0.3750 -0.8740 -0.5058
  739MOL0     C99688   3.313   8.448   8.565  0.6929 -0.2615 -0.7207
  739MOL0     O99689   3.405   8.549   8.565 -0.4092  0.5155  0.2078
  739MOL0     C99690   3.548   8.527   8.584  0.1998  0.3183  0.9491
  739MOL0     C99691   3.625   8.645   8.529 -0.4735 -0.4934 -0.3428
  739MOL0     C99692   3.668   8.619   8.383  0.6614  0.2142 -0.5553
  739MOL0     C99693   3.562   8.670   8.275  0.1159 -0.0693 -0.2940
  739MOL0     C99694   3.635   8.654   8.152  1.5085 -0.4287  0.8999
  739MOL0     C99695   3.692   8.629   8.050 -0.1945  0.3888 -0.5094
  739MOL0     C99696   3.338   8.311   8.604  0.5148 -0.6304  0.1809
  739MOL0     C99697   3.237   8.217   8.596  0.5457  0.7341 -0.5695
  739MOL0     H99698   2.842   8.006   8.327 -1.3757 -0.5184 -2.2785
  739MOL0     H99699   2.642   7.839   8.327  2.1580 -0.1744 -0.0918
  739MOL0     H99700   2.420   7.825   8.708 -2.2072  2.5860  1.1092
  739MOL0     H99701   2.293   7.877   8.606  1.8526  1.6912  1.0239
  739MOL0     H99702   2.410   7.602   8.624 -1.1524 -1.5180  1.5923
  739MOL0     H99703   2.252   7.649   8.670 -0.1836 -1.8216 -1.3861
  739MOL0     H99704   2.205   7.551   8.452 -0.1535  1.7380 -1.5767
  739MOL0     H99705   2.249   7.704   8.399 -3.7400 -3.0029 -0.7088
  739MOL0     H99706   2.465   7.653   8.333 -0.5009 -0.0766 -0.5917
  739MOL0     H99707   2.466   7.492   8.424 -1.7286 -0.7710  3.3605
  739MOL0     H99708   2.463   7.442   8.204 -1.5201 -1.1024 -0.7311
  739MOL0     H99709   2.304   7.411   8.272 -0.4373 -0.9088 -2.0073
  739MOL0     H99710   2.229   7.637   8.176  1.0594 -0.1828  2.5697
  739MOL0     H99711   2.399   7.653   8.114  4.9691 -3.3682  1.3098
  739MOL0     H99712   2.197   7.443   8.019 -0.8281  0.2977 -1.1477
  739MOL0     H99713   2.240   7.593   7.944  2.2198  0.3964  0.2671
  739MOL0     H99714   2.487   7.475   7.971 -0.5520  2.4714  1.5921
  739MOL0     H99715   2.404   7.470   7.825  1.0955 -1.7592 -0.4616
  739MOL0     H99716   2.195   7.238   7.843 -1.6927 -0.4769  1.6888
  739MOL0     H99717   2.167   6.980   7.848 -0.7161 -4.4429 -2.1342
  739MOL0     H99718   2.303   6.887   7.899 -0.7986 -0.7131  0.3165
  739MOL0     H99719   2.168   6.811   8.085  1.2137  0.9207  4.1935
  739MOL0     H99720   2.064   6.956   8.068 -1.5153 -3.7616 -2.1187
  739MOL0     H99721   2.250   7.076   8.183 -1.4734 -0.9823 -5.7603
  739MOL0     H99722   2.341   6.924   8.188 -0.3112 -0.3679  1.0961
  739MOL0     H99723   2.238   6.930   8.406 -0.7831 -2.3467  0.6471
  739MOL0     H99724   2.142   6.826   8.310  0.9318  0.3355 -2.7152
  739MOL0     H99725   2.102   6.859   8.580  1.7863  1.3922  0.6932
  739MOL0     H99726   1.995   6.892   8.923  0.6860  0.6343 -0.2771
  739MOL0     H99727   1.983   6.753   8.814  0.9844  0.4609  2.6447
  739MOL0     H99728   2.112   6.879   8.804  0.3192  0.9226  2.2451
  739MOL0     H99729   1.517   6.848   8.896  3.2370 -0.4274  3.5038
  739MOL0     H99730   1.320   6.825   9.075 -3.2601  0.7917 -0.6011
  739MOL0     H99731   1.186   7.204   9.246  1.0820 -0.0243 -1.8348
  739MOL0     H99732   1.054   7.140   9.144 -0.7577 -2.2637 -0.8614
  739MOL0     H99733   1.112   7.051   9.437 -1.1619 -3.2101  0.5510
  739MOL0     H99734   0.975   7.150   9.397 -2.7721 -0.8197 -0.1445
  739MOL0     H99735   0.909   6.915   9.420  0.3593  0.2909 -0.7161
  739MOL0     H99736   1.011   6.865   9.287  0.7785  1.2741 -1.9205
  739MOL0     H99737   0.753   7.013   9.274 -1.3202 -3.0843 -1.9925
  739MOL0     H99738   0.862   7.065   9.159 -2.8954  2.2289  1.4868
  739MOL0     H99739   0.710   6.878   9.105  0.1667  0.2883  0.0795
  739MOL0     H99740   0.786   6.770   9.210 -1.5263 -0.3419 -1.2550
  739MOL0     H99741   1.000   6.770   9.067  1.0189  3.6295  0.3512
  739MOL0     H99742   0.844   6.711   9.000  0.3624  0.3574 -1.6421
  739MOL0     H99743   0.982   6.976   8.946  1.2645  0.2531 -3.7992
  739MOL0     H99744   0.823   6.926   8.885  0.8307  0.0231 -0.7598
  739MOL0     H99745   1.046   6.737   8.841  0.7123 -0.3312 -1.2917
  739MOL0     H99746   1.099   6.895   8.792  0.3175  1.0412  0.7278
  739MOL0     H99747   1.292   7.243   9.085  1.3851  1.0157  1.0519
  739MOL0     H99748   1.499   7.270   8.929 -0.2679  0.0377 -1.6013
  739MOL0     H99749   1.685   7.114   8.578  0.9411  1.9924  1.0083
  739MOL0     H99750   1.813   7.107   8.380 -0.2598 -1.0319  0.2999
  739MOL0     H99751   2.536   8.000   8.722 -2.3886 -0.5237 -1.6262
  739MOL0     H99752   2.715   8.163   8.705 -1.4625  2.2209 -2.6616
  739MOL0     H99753   3.011   8.403   8.436  3.1287 -2.8878 -2.9225
  739MOL0     H99754   3.171   8.585   8.491 -1.0361 -1.3811 -2.1463
  739MOL0     H99755   3.551   8.523   8.693 -4.0177 -0.9635  1.2007
  739MOL0     H99756   3.571   8.430   8.541 -0.7026 -0.3251  1.8739
  739MOL0     H99757   3.724   8.645   8.575 -0.6126 -0.4617 -0.0473
  739MOL0     H99758   3.583   8.745   8.542  0.5175  0.3638 -2.9189
  739MOL0     H99759   3.681   8.512   8.366  4.8346 -0.3340  3.8970
  739MOL0     H99760   3.769   8.661   8.372 -0.1946  3.5766  2.3270
  739MOL0     H99761   3.548   8.777   8.289  0.4412 -0.1172  0.4916
  739MOL0     H99762   3.469   8.613   8.263 -0.9785  1.9396 -1.8974
  739MOL0     H99763   3.742   8.581   7.968  1.6387  0.0262  0.7528
  739MOL0     H99764   3.434   8.297   8.654  0.0155  4.1532  3.1473
  739MOL0     H99765   3.267   8.121   8.638  0.7590  1.7100  1.6185
  740MOL0     O99766   1.313   4.520   1.880 -0.5151 -0.2861 -0.3581
  740MOL0     C99767   1.333   4.545   2.005  0.2081  0.5458  1.1915
  740MOL0     O99768   1.451   4.542   2.070 -0.1790 -0.0290  0.3554
  740MOL0     C99769   1.566   4.487   2.011  0.9678  0.1734 -0.2590
  740MOL0     C99770   1.565   4.360   1.944  0.1463 -0.1234  0.4177
  740MOL0     C99771   1.685   4.316   1.883 -0.4191  0.5749 -0.9259
  740MOL0     C99772   1.801   4.397   1.872  0.2728 -0.7359  0.3684
  740MOL0     O99773   1.922   4.349   1.832 -0.4311  0.3572  0.0924
  740MOL0     C99774   1.939   4.213   1.779 -1.2365  0.3593  0.5405
  740MOL0     C99775   2.075   4.195   1.721 -0.0697  0.9797 -0.4431
  740MOL0     C99776   2.186   4.214   1.832 -0.4835  0.4569  0.0833
  740MOL0     C99777   2.178   4.101   1.936  0.1582 -0.1281  0.5953
  740MOL0     C99778   2.305   4.037   1.982 -0.2107 -0.0727 -0.5946
  740MOL0     C99779   2.374   4.144   2.057  0.8891  0.4090 -0.9465
  740MOL0     C99780   2.526   4.108   2.071  0.3257  0.5115 -0.2107
  740MOL0     C99781   2.612   4.128   1.949  0.1569 -0.1094 -0.6495
  740MOL0     N99782   2.613   4.273   1.906 -0.3616  0.7784 -0.4611
  740MOL0     C99783   2.669   4.378   1.970  0.1238 -0.1713 -0.0723
  740MOL0     C99784   2.672   4.469   1.873  0.0159  0.6528  0.5478
  740MOL0     C99785   2.723   4.609   1.896  0.5548 -0.6218  0.8727
  740MOL0     C99786   2.713   4.719   1.790  0.5584  0.7005 -0.4621
  740MOL0     C99787   2.766   4.854   1.825 -0.0082 -1.0565 -0.3684
  740MOL0     C99788   2.743   4.948   1.698 -0.7304  0.1257 -0.9037
  740MOL0     O99789   2.789   5.085   1.719  0.1873  0.5585  0.4943
  740MOL0     C99790   2.757   5.185   1.636 -0.0535  0.2398 -0.3501
  740MOL0     C99791   2.735   5.168   1.497 -0.0142 -0.3693 -0.1711
  740MOL0     C99792   2.689   5.280   1.414  0.2341  0.3572  0.3992
  740MOL0     C99793   2.644   5.251   1.271  0.1985  0.0728 -0.1110
  740MOL0     C99794   2.683   5.412   1.467 -0.3809  0.0286 -0.3540
  740MOL0     C99795   2.658   5.538   1.393 -0.0508  0.4048  0.0306
  740MOL0     O99796   2.621   5.643   1.481  0.5562  0.3185 -0.2415
  740MOL0     C99797   2.579   5.757   1.419 -0.5857 -0.4950  0.4366
  740MOL0     C99798   2.656   5.866   1.427 -0.0924 -0.2940 -0.0128
  740MOL0     C99799   2.612   5.991   1.377  0.4879  0.7253  0.2887
  740MOL0     C99800   2.489   6.006   1.306  0.9373 -0.6905 -0.6399
  740MOL0     O99801   2.450   6.132   1.255 -0.4217 -0.4500 -0.5093
  740MOL0     C99802   2.325   6.148   1.201 -0.0540 -0.2173  1.0651
  740MOL0     C99803   2.301   6.297   1.184 -0.1428  0.3743 -0.0558
  740MOL0     C99804   2.185   6.328   1.076 -0.2021  0.3690 -0.9394
  740MOL0     C99805   2.170   6.482   1.032 -0.2936  0.0164 -0.1230
  740MOL0     C99806   2.034   6.509   0.973  0.0461  0.0812 -0.5228
  740MOL0     C99807   2.027   6.641   0.891 -0.6779 -0.8253  1.0631
  740MOL0     C99808   1.901   6.691   0.825  0.1630 -0.1413  0.0380
  740MOL0     C99809   1.901   6.840   0.815  0.0078  0.5423  0.0985
  740MOL0    Cl99810   2.030   6.894   0.710  0.0687 -0.3389  0.2411
  740MOL0     C99811   2.414   5.893   1.302  0.5985 -0.5227  0.7812
  740MOL0     C99812   2.462   5.763   1.350  0.5600 -0.6707  0.5476
  740MOL0     O99813   2.675   5.543   1.271 -0.6512  0.1411  0.5656
  740MOL0     C99814   2.722   5.422   1.608 -0.7408  0.1346  0.5355
  740MOL0     C99815   2.756   5.311   1.686 -0.3651  0.2864 -0.3124
  740MOL0     N99816   2.616   4.419   1.753 -0.4743  0.1470 -0.1014
  740MOL0     N99817   2.574   4.304   1.782  0.2972 -0.1491  1.0794
  740MOL0     C99818   1.798   4.510   1.942  0.3744 -0.4211 -0.7204
  740MOL0     C99819   1.686   4.562   2.005  0.1029  0.4433 -0.6086
  740MOL0     C99820   1.211   4.552   2.092  0.0545 -0.2336  0.2865
  740MOL0     C99821   1.226   4.545   2.233  0.3624 -0.1041 -0.1766
  740MOL0     C99822   1.116   4.559   2.312  0.7422 -0.3921  0.2459
  740MOL0     C99823   0.986   4.583   2.264 -0.9738  0.1067  0.3783
  740MOL0     O99824   0.896   4.597   2.364 -0.5828 -0.2336  0.4007
  740MOL0     C99825   0.786   4.682   2.325  0.1874  0.4970 -0.0882
  740MOL0     C99826   0.689   4.690   2.443  0.1364 -0.1862 -0.1390
  740MOL0     C99827   0.574   4.797   2.431 -0.0457 -0.0468 -1.0411
  740MOL0     C99828   0.629   4.936   2.444 -0.7443 -1.1473 -0.4339
  740MOL0     C99829   0.527   5.045   2.438  1.1248  1.5827  0.1062
  740MOL0     C99830   0.427   5.119   2.425  0.1240 -1.1798  0.7253
  740MOL0     C99831   0.969   4.579   2.124  0.3403  0.8069  0.1122
  740MOL0     C99832   1.080   4.569   2.040  0.2330  0.1944  0.6548
  740MOL0     H99833   1.477   4.297   1.939  0.7888 -1.2931  2.3826
  740MOL0     H99834   1.677   4.219   1.836 -0.4810 -0.0540  0.3405
  740MOL0     H99835   1.921   4.156   1.871 -2.6588 -1.1530 -0.5997
  740MOL0     H99836   1.870   4.179   1.700 -0.3365 -2.2981  0.7968
  740MOL0     H99837   2.080   4.095   1.679  2.4145 -0.1258  2.1361
  740MOL0     H99838   2.095   4.267   1.642 -1.0654 -0.3826 -1.9996
  740MOL0     H99839   2.282   4.233   1.782 -1.2492  2.4783 -0.7141
  740MOL0     H99840   2.168   4.310   1.880 -1.2193  0.5666 -0.3964
  740MOL0     H99841   2.116   4.132   2.020 -1.6645  3.6951 -1.9102
  740MOL0     H99842   2.113   4.023   1.893  0.5662  0.5775 -1.3967
  740MOL0     H99843   2.266   3.952   2.039  0.8349 -1.1619 -1.4614
  740MOL0     H99844   2.369   3.996   1.904  0.2387  1.1721 -0.9051
  740MOL0     H99845   2.364   4.246   2.019  1.2855 -0.1056 -2.4818
  740MOL0     H99846   2.338   4.147   2.160  1.6797  1.6584 -0.6750
  740MOL0     H99847   2.569   4.177   2.144  0.3778 -0.1700  0.4159
  740MOL0     H99848   2.542   4.010   2.118 -2.9853 -0.2413 -0.4016
  740MOL0     H99849   2.580   4.068   1.863  0.6234  0.7126 -1.4071
  740MOL0     H99850   2.713   4.093   1.972 -0.0528 -0.9140 -0.9246
  740MOL0     H99851   2.690   4.407   2.073 -2.8255  3.1501 -0.1868
  740MOL0     H99852   2.671   4.650   1.983 -3.0727  1.0962 -1.8088
  740MOL0     H99853   2.821   4.599   1.944 -0.0607  1.2524  2.7163
  740MOL0     H99854   2.608   4.733   1.764  0.3386 -0.5279 -0.3327
  740MOL0     H99855   2.760   4.684   1.698  0.0399 -0.8220 -0.1897
  740MOL0     H99856   2.873   4.849   1.847 -0.0009  0.7813  0.2148
  740MOL0     H99857   2.717   4.897   1.912 -1.3597 -2.5954 -0.3221
  740MOL0     H99858   2.634   4.951   1.689 -0.9671 -1.5839  0.8914
  740MOL0     H99859   2.785   4.918   1.601 -1.7749  1.6019 -1.8652
  740MOL0     H99860   2.753   5.076   1.442  0.1689 -0.2983 -0.2326
  740MOL0     H99861   2.625   5.144   1.258 -3.2892  0.6676 -1.0169
  740MOL0     H99862   2.549   5.303   1.253 -1.0355 -2.2760 -0.7872
  740MOL0     H99863   2.727   5.271   1.204  3.3930 -0.0734  3.4463
  740MOL0     H99864   2.750   5.865   1.481  1.0514  1.3372 -1.8347
  740MOL0     H99865   2.680   6.075   1.367  0.3864  0.6459 -1.3188
  740MOL0     H99866   2.345   6.094   1.108  1.0714  1.2873  0.3902
  740MOL0     H99867   2.239   6.097   1.246 -0.6427 -0.4677 -0.2743
  740MOL0     H99868   2.272   6.348   1.276  0.9480  2.7128 -0.9062
  740MOL0     H99869   2.389   6.344   1.137  2.7143 -2.5673  1.9095
  740MOL0     H99870   2.094   6.291   1.123  0.0337 -1.4275 -1.8316
  740MOL0     H99871   2.203   6.271   0.984  0.0071 -1.7828  0.3799
  740MOL0     H99872   2.187   6.552   1.115 -1.1728  1.6538 -1.2842
  740MOL0     H99873   2.237   6.506   0.949 -0.2915 -1.5764 -0.6083
  740MOL0     H99874   1.963   6.520   1.055 -1.6224  3.4078 -2.1798
  740MOL0     H99875   2.012   6.430   0.901 -0.5594 -0.0967 -0.1468
  740MOL0     H99876   2.070   6.722   0.951 -1.2327  0.0914  0.2428
  740MOL0     H99877   2.100   6.625   0.812  2.2368 -4.0428  4.0209
  740MOL0     H99878   1.815   6.659   0.886 -0.1043  0.4152 -0.0387
  740MOL0     H99879   1.882   6.645   0.727  1.8318  0.4215 -0.5715
  740MOL0     H99880   1.909   6.885   0.915 -2.4700  1.0389  0.1238
  740MOL0     H99881   1.802   6.877   0.788 -0.6304 -1.0719  0.1427
  740MOL0     H99882   2.316   5.894   1.256 -0.0444  1.1098  2.0781
  740MOL0     H99883   2.398   5.676   1.350 -0.8569  0.3287  1.2029
  740MOL0     H99884   2.733   5.521   1.652 -3.2278  0.2136  1.1692
  740MOL0     H99885   2.749   5.314   1.795 -1.5553 -0.5371 -0.3441
  740MOL0     H99886   1.896   4.556   1.936 -0.1946  1.4084  2.2454
  740MOL0     H99887   1.698   4.656   2.059 -3.5831 -0.7981  2.8580
  740MOL0     H99888   1.323   4.524   2.279  0.8125 -0.2984 -1.1760
  740MOL0     H99889   1.143   4.558   2.417  1.6795  1.2551  0.0544
  740MOL0     H99890   0.805   4.786   2.298 -0.7695  1.0503  1.2618
  740MOL0     H99891   0.734   4.639   2.239 -0.1064  4.1460 -1.9532
  740MOL0     H99892   0.744   4.700   2.537  0.6576 -1.9016 -0.2324
  740MOL0     H99893   0.641   4.593   2.459 -0.8866  0.3553  0.2565
  740MOL0     H99894   0.498   4.774   2.507  1.1929 -0.1410  0.2226
  740MOL0     H99895   0.514   4.780   2.342 -3.7145  1.2454  0.9824
  740MOL0     H99896   0.696   4.954   2.360  0.3545 -0.4931  0.5539
  740MOL0     H99897   0.684   4.953   2.537 -3.4742  0.5388  1.0052
  740MOL0     H99898   0.348   5.188   2.404  0.3204 -1.3492 -0.6540
  740MOL0     H99899   0.871   4.595   2.081  0.5249  2.7377  0.3525
  740MOL0     H99900   1.059   4.582   1.934 -0.3308 -2.8718  0.2775
  741MOL0     O99901   7.079   0.632   8.180  0.0028 -0.2077 -0.0593
  741MOL0     C99902   7.190   0.588   8.210 -0.4706  0.6066  1.0578
  741MOL0     O99903   7.281   0.532   8.130 -0.2699 -0.2550 -0.3333
  741MOL0     C99904   7.263   0.503   7.996  0.1003 -0.4157 -0.2487
  741MOL0     C99905   7.195   0.397   7.945  0.0876  0.9679 -0.7427
  741MOL0     C99906   7.181   0.372   7.812 -0.2105  0.6557  0.5194
  741MOL0     C99907   7.241   0.460   7.715  0.3954  0.5143  0.5544
  741MOL0     O99908   7.214   0.465   7.578  0.2139 -0.0081  0.1613
  741MOL0     C99909   7.218   0.338   7.515 -0.2003  0.3337 -0.4524
  741MOL0     C99910   7.167   0.355   7.370  0.8709 -0.3344 -0.6166
  741MOL0     C99911   7.013   0.382   7.379 -0.2523  0.1210  0.4323
  741MOL0     C99912   6.937   0.251   7.373  0.3594  0.0652 -0.7267
  741MOL0     C99913   6.785   0.251   7.420  0.4611  0.2039  0.7288
  741MOL0     C99914   6.677   0.326   7.326 -0.0136 -0.1928 -0.1032
  741MOL0     C99915   6.531   0.318   7.376 -0.1511  0.3638 -0.0061
  741MOL0     C99916   6.430   0.374   7.270  0.5958 -0.9202 -0.5214
  741MOL0     N99917   6.417   0.284   7.154  0.5559 -0.3413  0.1148
  741MOL0     C99918   6.306   0.204   7.137 -0.3479  0.8228  0.4782
  741MOL0     C99919   6.321   0.157   7.012  0.2607 -0.0940  0.8693
  741MOL0     C99920   6.223   0.078   6.931  0.4156 -0.3274  0.3187
  741MOL0     C99921   6.073   0.125   6.927  0.3930  0.3037 -0.0631
  741MOL0     C99922   5.988   0.056   7.028 -0.2316 -0.4374 -0.1498
  741MOL0     C99923   5.841   0.113   7.029  0.0023  0.8389 -0.2456
  741MOL0     O99924   5.782   0.098   6.900 -0.6875  0.4547  0.7462
  741MOL0     C99925   5.675   0.015   6.890  0.4510 -0.1822  0.0611
  741MOL0     C99926   5.589   0.040   6.793 -0.1848  0.4890  0.3644
  741MOL0     C99927   5.479  -0.035   6.757  0.7709  0.3776  0.9920
  741MOL0     C99928   5.384   0.015   6.651 -0.5055  0.9271  0.0774
  741MOL0     C99929   5.460  -0.158   6.824  0.0294  0.2505 -0.7986
  741MOL0     C99930   5.358  -0.254   6.794  1.2998 -0.0230 -0.4737
  741MOL0     O99931   5.270  -0.249   6.691  0.4396 -0.4450  0.5904
  741MOL0     C99932   5.157  -0.328   6.684 -0.3066  0.7139  0.0049
  741MOL0     C99933   5.135  -0.457   6.723  0.3350 -0.6317  1.0496
  741MOL0     C99934   5.014  -0.513   6.685  0.0426  0.5880  0.7089
  741MOL0     C99935   4.918  -0.445   6.617  0.1905  0.0305 -0.8457
  741MOL0     O99936   4.791  -0.491   6.584  0.7104  0.4898 -0.0705
  741MOL0     C99937   4.766  -0.624   6.597  0.5004  0.1838  0.3534
  741MOL0     C99938   4.658  -0.657   6.484  0.2095 -0.0678  0.0523
  741MOL0     C99939   4.594  -0.796   6.469 -0.0047  0.1447  0.0681
  741MOL0     C99940   4.474  -0.804   6.378 -0.4054 -0.8838 -0.2318
  741MOL0     C99941   4.511  -0.831   6.238 -0.1519 -0.5377 -0.6049
  741MOL0     C99942   4.407  -0.777   6.146  0.3124 -0.4982  0.1608
  741MOL0     C99943   4.283  -0.866   6.142  0.3734  0.4500  0.5374
  741MOL0     C99944   4.184  -0.813   6.037  0.2179  0.2021 -0.4061
  741MOL0    Cl99945   4.225  -0.855   5.877  0.2127 -0.5263  0.3419
  741MOL0     C99946   4.938  -0.312   6.589 -0.4465  0.5307 -0.0437
  741MOL0     C99947   5.061  -0.251   6.618  0.7012  0.0603  0.0605
  741MOL0     O99948   5.352  -0.347   6.877 -0.7170  0.4976 -0.3912
  741MOL0     C99949   5.540  -0.184   6.938 -0.8215  0.4760  0.4475
  741MOL0     C99950   5.646  -0.101   6.965 -0.4651  0.4080 -0.6043
  741MOL0     N99951   6.434   0.199   6.957 -0.6445  0.1873 -0.8145
  741MOL0     N99952   6.484   0.287   7.039 -0.4498 -0.4707  0.5330
  741MOL0     C99953   7.301   0.583   7.758  0.0472 -0.4483 -0.1035
  741MOL0     C99954   7.305   0.601   7.898 -0.4728  0.0248  0.8001
  741MOL0     C99955   7.228   0.591   8.343 -0.5086 -0.2485  0.1636
  741MOL0     C99956   7.162   0.664   8.434 -0.5216 -0.5686 -0.9146
  741MOL0     C99957   7.201   0.653   8.569  0.8528  0.8936 -0.5069
  741MOL0     C99958   7.300   0.572   8.619 -1.0659 -0.5004 -0.3483
  741MOL0     O99959   7.321   0.569   8.761  0.1426 -0.7125  0.3298
  741MOL0     C99960   7.362   0.448   8.819 -0.3523  0.8741 -1.3952
  741MOL0     C99961   7.409   0.495   8.963 -0.2548  0.1812 -0.1142
  741MOL0     C99962   7.425   0.357   9.037 -0.3901 -1.3300 -0.4346
  741MOL0     C99963   7.429   0.386   9.188 -0.2682 -0.0870 -0.0556
  741MOL0     C99964   7.438   0.260   9.264  0.6104 -0.1940 -0.1029
  741MOL0     C99965   7.462   0.149   9.315  0.4212 -0.2168  1.1567
  741MOL0     C99966   7.372   0.506   8.522 -0.3680 -0.9399  0.0615
  741MOL0     C99967   7.337   0.500   8.386 -0.4674  1.1198 -0.5270
  741MOL0     H99968   7.154   0.313   8.000 -3.8696  2.1916 -1.4739
  741MOL0     H99969   7.107   0.294   7.799 -0.0461  0.7811 -1.3669
  741MOL0     H99970   7.321   0.303   7.518 -0.3833 -0.2502 -0.8481
  741MOL0     H99971   7.158   0.267   7.574 -0.2143 -0.2337 -1.1434
  741MOL0     H99972   7.219   0.431   7.312 -0.5880  1.2828  0.0812
  741MOL0     H99973   7.197   0.266   7.316  0.1181 -0.6949 -0.4551
  741MOL0     H99974   6.996   0.440   7.470 -2.5430 -2.8993  2.1002
  741MOL0     H99975   6.975   0.449   7.301 -1.4534 -0.3576  0.5858
  741MOL0     H99976   6.942   0.198   7.277 -1.6969 -1.5100 -0.0300
  741MOL0     H99977   6.993   0.192   7.446  0.8349 -1.6441 -2.3741
  741MOL0     H99978   6.757   0.146   7.438  0.6340  0.7182  4.6681
  741MOL0     H99979   6.792   0.307   7.513  0.6556 -1.0066  1.4664
  741MOL0     H99980   6.714   0.429   7.329 -0.1127 -0.1109 -1.2433
  741MOL0     H99981   6.699   0.269   7.235  1.8629 -1.7521  1.2378
  741MOL0     H99982   6.499   0.218   7.406 -3.4485  1.5473  0.8859
  741MOL0     H99983   6.522   0.378   7.467 -1.4750  0.3330 -0.0855
  741MOL0     H99984   6.468   0.473   7.245 -0.3408 -1.0443 -2.6244
  741MOL0     H99985   6.327   0.380   7.308  0.7674  0.4381 -0.2325
  741MOL0     H99986   6.221   0.201   7.205 -0.4398 -2.2112  0.3265
  741MOL0     H99987   6.265   0.090   6.831 -2.1720  0.8466 -0.7093
  741MOL0     H99988   6.225  -0.026   6.965  1.0958 -0.1211  0.9452
  741MOL0     H99989   6.029   0.091   6.833  3.1280  0.8297 -1.6272
  741MOL0     H99990   6.078   0.234   6.917 -1.3280  0.5414  1.1772
  741MOL0     H99991   6.022   0.066   7.132 -1.8194  0.7946  0.2901
  741MOL0     H99992   5.966  -0.049   7.007 -0.4928 -1.7575  5.2599
  741MOL0     H99993   5.843   0.220   7.052  3.7204  0.8405  0.0535
  741MOL0     H99994   5.781   0.067   7.107 -0.5012 -1.0126 -1.6480
  741MOL0     H99995   5.614   0.130   6.736  2.2152  0.1505  0.7851
  741MOL0     H99996   5.374  -0.063   6.575 -1.7926  1.1403  0.0021
  741MOL0     H99997   5.282   0.032   6.685 -1.5526 -0.9984 -1.8249
  741MOL0     H99998   5.419   0.107   6.605 -1.0446  0.8606 -0.4802
  741MOL0     H99999   5.216  -0.516   6.765  0.8129 -0.4347  0.4169
  741MOL0     H    0   5.000  -0.621   6.693 -1.7699 -0.0180 -5.5153
  741MOL0     H    1   4.854  -0.685   6.573  1.1628  0.7933  1.1847
  741MOL0     H    2   4.727  -0.653   6.695  1.6002  2.1602  1.4420
  741MOL0     H    3   4.580  -0.584   6.506 -0.6288 -0.8245 -0.3139
  741MOL0     H    4   4.694  -0.638   6.383 -0.2627 -1.2219 -0.3575
  741MOL0     H    5   4.566  -0.827   6.570  2.5346 -1.0713  0.4979
  741MOL0     H    6   4.679  -0.857   6.437 -0.7868 -1.5288  1.0209
  741MOL0     H    7   4.412  -0.888   6.409 -0.7471 -0.0932  1.3284
  741MOL0     H    8   4.418  -0.711   6.388  1.1922  0.3236 -1.7144
  741MOL0     H    9   4.514  -0.939   6.223 -1.1620 -0.5404 -0.8499
  741MOL0     H   10   4.611  -0.791   6.222 -0.1772  0.3046  1.1185
  741MOL0     H   11   4.381  -0.673   6.164  3.4922  0.1833  1.6574
  741MOL0     H   12   4.467  -0.779   6.054  0.6959 -0.6584  0.4102
  741MOL0     H   13   4.238  -0.869   6.242 -0.6827 -0.5652  0.0565
  741MOL0     H   14   4.325  -0.963   6.117  0.4847 -0.2972  3.3137
  741MOL0     H   15   4.175  -0.705   6.055  4.3619  0.4042  1.5056
  741MOL0     H   16   4.095  -0.868   6.070  0.8755 -0.8528 -0.3609
  741MOL0     H   17   4.861  -0.260   6.533  0.6936  4.3775  1.6216
  741MOL0     H   18   5.088  -0.157   6.572  3.5559 -0.0486  1.2858
  741MOL0     H   19   5.533  -0.272   7.002  0.6949  0.5398  0.7621
  741MOL0     H   20   5.721  -0.123   7.041 -1.0516  1.4389  0.3016
  741MOL0     H   21   7.336   0.655   7.684  0.8968 -3.0294 -2.3468
  741MOL0     H   22   7.355   0.689   7.937  0.5746  0.8205 -2.0961
  741MOL0     H   23   7.074   0.718   8.400 -0.7484 -0.1826  0.2406
  741MOL0     H   24   7.138   0.703   8.642 -0.6275  2.2591 -2.5856
  741MOL0     H   25   7.271   0.387   8.825 -0.8029  1.5018 -1.6652
  741MOL0     H   26   7.436   0.385   8.770  0.5905  0.4440  0.5032
  741MOL0     H   27   7.329   0.553   9.010 -0.5318  0.5257 -0.9927
  741MOL0     H   28   7.499   0.556   8.956  1.1335 -1.5222  1.8817
  741MOL0     H   29   7.521   0.324   8.996 -0.8928 -1.9490 -1.1229
  741MOL0     H   30   7.348   0.283   9.015 -2.3200  0.4658 -0.0313
  741MOL0     H   31   7.342   0.449   9.207  0.2883  0.7759 -0.3293
  741MOL0     H   32   7.517   0.447   9.207 -1.6705  2.1475 -0.4139
  741MOL0     H   33   7.499   0.055   9.349  4.2953  0.6701 -0.0420
  741MOL0     H   34   7.456   0.451   8.562  0.1215 -0.2751 -0.0242
  741MOL0     H   35   7.383   0.427   8.321  2.3827  1.1557  1.2834
  742MOL0     O   36   8.865   9.286   1.571 -0.7535 -0.1542 -0.7418
  742MOL0     C   37   8.791   9.261   1.670 -0.8699 -0.6353  0.6142
  742MOL0     O   38   8.828   9.253   1.801  0.5254  0.7420  0.3792
  742MOL0     C   39   8.955   9.307   1.818  0.3606  0.7735 -0.0854
  742MOL0     C   40   9.057   9.219   1.879  1.2294  0.6426 -0.6399
  742MOL0     C   41   9.185   9.267   1.893  0.2921 -0.4595  0.5755
  742MOL0     C   42   9.218   9.401   1.876 -0.1403  0.5504 -0.6724
  742MOL0     O   43   9.344   9.428   1.897 -0.4962  0.3970 -0.0087
  742MOL0     C   44   9.392   9.555   1.854 -0.4658 -0.1203  0.0902
  742MOL0     C   45   9.537   9.551   1.893 -0.3875  0.6068  0.1591
  742MOL0     C   46   9.613   9.670   1.859  0.2490 -0.4236  0.1764
  742MOL0     C   47   9.549   9.794   1.932  0.8765  1.4306 -0.1310
  742MOL0     C   48   9.645   9.911   1.958 -0.0485  0.2096 -0.7339
  742MOL0     C   49   9.586  10.044   1.917  0.2264  0.7238  0.0646
  742MOL0     C   50   9.691  10.153   1.942  0.4636  0.2221  1.7619
  742MOL0     C   51   9.674  10.217   2.082  0.1114 -0.1194  0.6535
  742MOL0     N   52   9.764  10.332   2.090 -0.3978 -0.1687 -0.2536
  742MOL0     C   53   9.789  10.431   1.998  0.4167  0.6225 -0.4635
  742MOL0     C   54   9.872  10.523   2.056 -0.3710  0.6149  0.6174
  742MOL0     C   55   9.930  10.641   1.978  0.0749  0.3112  1.0262
  742MOL0     C   56  10.050  10.581   1.897  0.1495 -0.5926  0.0044
  742MOL0     C   57  10.029  10.478   1.791  0.2115  0.0567  0.2780
  742MOL0     C   58  10.165  10.463   1.722 -0.4183  0.3315 -0.1687
  742MOL0     O   59  10.207  10.569   1.637  0.5349  0.5466  1.3620
  742MOL0     C   60  10.137  10.595   1.517  0.9679 -0.0074  0.7626
  742MOL0     C   61  10.053  10.515   1.440 -0.1171 -0.4304 -0.8396
  742MOL0     C   62   9.983  10.559   1.330  0.5776 -1.0174  0.6400
  742MOL0     C   63   9.884  10.464   1.275  0.4036 -0.4731  0.3811
  742MOL0     C   64  10.010  10.694   1.285 -1.3747  1.3665  1.1814
  742MOL0     C   65   9.941  10.759   1.172  0.1470 -0.1136  0.1785
  742MOL0     O   66  10.022  10.851   1.095 -0.3322  0.2536  0.1512
  742MOL0     C   67   9.961  10.957   1.034  0.4659 -0.6100  0.1825
  742MOL0     C   68  10.039  11.075   1.019  0.2032 -0.1615  0.1791
  742MOL0     C   69   9.992  11.186   0.951  0.4546 -0.1384 -0.5056
  742MOL0     C   70   9.864  11.188   0.884 -0.4926 -1.1748  0.4640
  742MOL0     O   71   9.811  11.295   0.811 -0.1378  0.1222 -0.5446
  742MOL0     C   72   9.877  11.427   0.818 -0.7367 -0.3509  0.2718
  742MOL0     C   73   9.817  11.512   0.707 -0.0514  0.1326  0.9646
  742MOL0     C   74   9.679  11.559   0.736  0.4964 -0.7304  0.2656
  742MOL0     C   75   9.634  11.637   0.615 -0.7539  1.3086 -0.3009
  742MOL0     C   76   9.478  11.653   0.627  0.0924  0.0867  0.0204
  742MOL0     C   77   9.427  11.738   0.509  0.2181  0.1511  0.6417
  742MOL0     C   78   9.276  11.719   0.488 -0.2467 -0.3731 -0.5497
  742MOL0     C   79   9.210  11.794   0.604  0.5014 -0.7680 -0.8915
  742MOL0    Cl   80   9.232  11.967   0.571  0.7074 -0.0397 -0.1540
  742MOL0     C   81   9.797  11.077   0.893  0.6671  1.7501 -0.2853
  742MOL0     C   82   9.842  10.961   0.967 -0.5123  0.4185 -0.3334
  742MOL0     O   83   9.820  10.756   1.172 -0.2932  0.8531  0.1722
  742MOL0     C   84  10.098  10.780   1.357  0.9162  0.2288  0.3488
  742MOL0     C   85  10.167  10.731   1.467  0.5276 -0.4048  0.4115
  742MOL0     N   86   9.907  10.473   2.176 -0.9052 -0.9846  0.3623
  742MOL0     N   87   9.842  10.363   2.197  0.0305 -0.0571  0.0016
  742MOL0     C   88   9.117   9.482   1.825 -0.4100  0.2496  0.1016
  742MOL0     C   89   8.989   9.434   1.786  0.6969  0.2354  0.7794
  742MOL0     C   90   8.646   9.243   1.639  0.1850 -0.5844 -0.5889
  742MOL0     C   91   8.547   9.256   1.745  0.0307 -0.6701  0.7344
  742MOL0     C   92   8.413   9.254   1.714  0.1342 -0.5889 -0.5881
  742MOL0     C   93   8.373   9.231   1.585 -0.8953 -0.7149  0.4319
  742MOL0     O   94   8.236   9.224   1.559 -0.2469 -0.2000  0.3455
  742MOL0     C   95   8.182   9.131   1.466 -0.7014  0.5414 -0.9811
  742MOL0     C   96   8.051   9.077   1.518 -0.2484 -0.6767 -0.7371
  742MOL0     C   97   7.978   9.044   1.381  0.0106  0.3768 -0.2015
  742MOL0     C   98   7.846   8.979   1.409 -0.4282 -0.1738 -0.8805
  742MOL0     C   99   7.869   8.836   1.447  0.5126 -0.3801 -0.2047
  742MOL0     C  100   7.871   8.728   1.494  0.4823 -0.3830 -0.9222
  742MOL0     C  101   8.465   9.217   1.477  0.3261 -0.4595  0.0930
  742MOL0     C  102   8.600   9.229   1.508 -0.5858  0.4359 -0.2469
  742MOL0     H  103   9.030   9.120   1.914  0.1192  0.7684 -1.0921
  742MOL0     H  104   9.271   9.208   1.921  2.0831  0.6161 -2.3025
  742MOL0     H  105   9.381   9.578   1.748 -1.9675  1.7517  0.5979
  742MOL0     H  106   9.342   9.632   1.913  3.2772  1.7235  1.1788
  742MOL0     H  107   9.544   9.528   2.000  0.3137 -1.9067 -0.3540
  742MOL0     H  108   9.589   9.466   1.847 -1.3933  1.2670 -2.3317
  742MOL0     H  109   9.714   9.659   1.898 -0.1599  0.4261  1.5225
  742MOL0     H  110   9.612   9.684   1.750  2.6811  0.1653  0.1741
  742MOL0     H  111   9.461   9.826   1.875  0.0533 -1.5128 -0.7150
  742MOL0     H  112   9.505   9.763   2.028  2.8123 -3.1418 -0.4392
  742MOL0     H  113   9.679   9.910   2.062  1.9432 -1.2860 -1.3387
  742MOL0     H  114   9.736   9.884   1.905  2.7479  0.1571  3.5661
  742MOL0     H  115   9.584  10.032   1.809 -0.0706 -0.2806  0.1631
  742MOL0     H  116   9.480  10.059   1.943 -0.1851  1.5707 -1.9244
  742MOL0     H  117   9.793  10.124   1.915  0.0185  1.3536 -1.6066
  742MOL0     H  118   9.671  10.231   1.868  1.2575 -0.8048  0.4096
  742MOL0     H  119   9.704  10.144   2.158 -1.8985 -0.3920  1.2593
  742MOL0     H  120   9.577  10.264   2.104  1.2258  1.9269  1.4440
  742MOL0     H  121   9.733  10.437   1.906  2.8586  2.3546 -1.9735
  742MOL0     H  122   9.856  10.697   1.920  0.7444  0.0797 -0.0661
  742MOL0     H  123   9.962  10.714   2.053 -0.6154  0.1702  1.4689
  742MOL0     H  124  10.117  10.546   1.976  0.8292  4.0321  1.7922
  742MOL0     H  125  10.089  10.673   1.853  0.0985  1.2167  3.4514
  742MOL0     H  126   9.951  10.505   1.720  0.6720  2.0034  0.4571
  742MOL0     H  127  10.011  10.380   1.837  0.3911  0.2563  0.7883
  742MOL0     H  128  10.163  10.366   1.673 -0.1477 -0.6960  1.7725
  742MOL0     H  129  10.248  10.453   1.792  0.4287 -1.7811 -1.3893
  742MOL0     H  130  10.031  10.416   1.479 -2.0770  0.0398 -0.6478
  742MOL0     H  131   9.912  10.359   1.269 -0.3755 -0.6082 -1.8998
  742MOL0     H  132   9.800  10.465   1.345 -0.2741  0.2602 -0.4215
  742MOL0     H  133   9.856  10.489   1.172  1.0432 -1.9272 -0.1603
  742MOL0     H  134  10.137  11.070   1.066 -0.9646 -0.6324  2.7271
  742MOL0     H  135  10.048  11.279   0.950 -3.9638  2.8472 -2.2875
  742MOL0     H  136   9.869  11.464   0.921 -0.4306 -1.4804  0.7087
  742MOL0     H  137   9.986  11.428   0.811 -0.6147  0.3724  1.7947
  742MOL0     H  138   9.877  11.603   0.692 -1.6992  0.7842 -3.2431
  742MOL0     H  139   9.822  11.457   0.613 -0.1726 -0.5595  1.3632
  742MOL0     H  140   9.678  11.624   0.824 -1.8018 -2.0280  1.2753
  742MOL0     H  141   9.615  11.474   0.762  0.5271 -0.0234  2.9180
  742MOL0     H  142   9.706  11.719   0.606  1.4096 -0.4214  0.3064
  742MOL0     H  143   9.656  11.573   0.529  3.2670  2.6934 -0.5297
  742MOL0     H  144   9.462  11.708   0.721 -2.3073 -0.5417  0.0484
  742MOL0     H  145   9.432  11.554   0.631  2.9234 -1.2942  1.2183
  742MOL0     H  146   9.462  11.840   0.526 -1.8921  1.2602 -1.1068
  742MOL0     H  147   9.481  11.704   0.420  0.8396 -2.3316  1.8661
  742MOL0     H  148   9.248  11.614   0.500 -2.0415  0.1994  0.5593
  742MOL0     H  149   9.237  11.746   0.390  0.2618  0.9099 -0.4160
  742MOL0     H  150   9.257  11.765   0.698 -1.5795  0.6568  0.6908
  742MOL0     H  151   9.102  11.777   0.610  0.1382  1.4015 -0.1993
  742MOL0     H  152   9.709  11.060   0.832  0.2735 -2.2638  1.1330
  742MOL0     H  153   9.769  10.881   0.956  0.1544  0.0793 -3.2958
  742MOL0     H  154  10.116  10.883   1.327 -0.2564  1.3507  3.1066
  742MOL0     H  155  10.233  10.799   1.520 -1.1786  0.9169  0.9584
  742MOL0     H  156   9.141   9.587   1.812  3.5231 -0.4268  0.4765
  742MOL0     H  157   8.922   9.501   1.734  1.5616  0.9106  0.4969
  742MOL0     H  158   8.564   9.295   1.845 -1.5539  0.2425  0.6865
  742MOL0     H  159   8.341   9.285   1.789  2.0223  2.4133  0.1490
  742MOL0     H  160   8.168   9.190   1.375 -0.3200  0.3247 -1.1863
  742MOL0     H  161   8.258   9.053   1.451 -0.8406  0.5019 -1.5045
  742MOL0     H  162   8.011   9.158   1.579  0.6559  1.1720 -2.4929
  742MOL0     H  163   8.057   8.984   1.575 -4.2419 -0.9032 -0.3925
  742MOL0     H  164   8.042   8.977   1.323  1.6414  2.9973 -1.5951
  742MOL0     H  165   7.964   9.130   1.315  1.6349 -1.2058 -2.7869
  742MOL0     H  166   7.786   8.975   1.317 -1.6745  3.0415 -0.3587
  742MOL0     H  167   7.787   9.038   1.479  1.3525 -0.6769  1.1406
  742MOL0     H  168   7.877   8.635   1.548 -0.6120 -0.3236 -0.6612
  742MOL0     H  169   8.430   9.186   1.379  1.8960 -0.4537 -0.5047
  742MOL0     H  170   8.678   9.223   1.433  2.5812 -1.1816  2.9067
  743MOL0     O  171   5.546   1.958   4.315 -0.4232  0.0962  0.8425
  743MOL0     C  172   5.517   2.081   4.330 -0.1070  0.3101 -0.0754
  743MOL0     O  173   5.605   2.169   4.379 -0.5929  0.1573  0.6221
  743MOL0     C  174   5.703   2.121   4.460  0.7678 -0.5776 -1.0003
  743MOL0     C  175   5.687   2.029   4.563 -1.0038  0.5808 -0.0244
  743MOL0     C  176   5.798   1.987   4.633 -0.4813  0.0295  0.7442
  743MOL0     C  177   5.926   2.023   4.616  0.4712  0.4697 -0.6186
  743MOL0     O  178   6.020   1.960   4.690  0.8696 -0.7818  0.4863
  743MOL0     C  179   6.158   1.975   4.654 -0.0159  0.5183  0.3767
  743MOL0     C  180   6.244   1.901   4.752  0.1354 -0.7380 -0.5562
  743MOL0     C  181   6.382   1.953   4.744 -0.9174  0.7411 -0.4933
  743MOL0     C  182   6.458   1.903   4.869 -0.7649 -0.7666 -0.2459
  743MOL0     C  183   6.615   1.925   4.879 -1.1170  0.2699 -0.6286
  743MOL0     C  184   6.703   1.801   4.862 -0.1037 -0.1887  0.3326
  743MOL0     C  185   6.843   1.834   4.913 -0.1264 -0.6326 -0.2523
  743MOL0     C  186   6.944   1.725   4.886  0.0618 -0.2941  1.3745
  743MOL0     N  187   7.066   1.734   4.957 -0.4263 -0.0867  0.4047
  743MOL0     C  188   7.073   1.758   5.088 -0.3563 -0.7063  0.0291
  743MOL0     C  189   7.204   1.796   5.122  0.7562 -0.5409  0.3079
  743MOL0     C  190   7.251   1.835   5.255 -0.8594  1.1836 -0.2351
  743MOL0     C  191   7.399   1.885   5.259 -0.6597 -0.5868  0.0004
  743MOL0     C  192   7.461   1.922   5.401 -0.6451  0.3771 -0.2045
  743MOL0     C  193   7.388   2.049   5.448 -0.4402  0.4440 -0.5826
  743MOL0     O  194   7.390   2.068   5.587  0.7560 -0.5252  0.3907
  743MOL0     C  195   7.478   2.154   5.648  0.6610  0.5342 -0.8691
  743MOL0     C  196   7.569   2.229   5.578 -0.2180 -0.1001 -0.5050
  743MOL0     C  197   7.670   2.305   5.642 -0.2333  0.4375 -0.5961
  743MOL0     C  198   7.768   2.386   5.559 -0.3882  0.2028 -0.6067
  743MOL0     C  199   7.675   2.299   5.784  0.2032 -0.6124 -0.4009
  743MOL0     C  200   7.784   2.364   5.865  0.0416 -0.2672 -1.2898
  743MOL0     O  201   7.850   2.465   5.813  0.1780 -0.6737 -0.5470
  743MOL0     C  202   7.924   2.552   5.892  0.3450 -0.9000  0.0659
  743MOL0     C  203   8.028   2.503   5.981  0.2135 -0.8910  0.9270
  743MOL0     C  204   8.113   2.597   6.043 -0.8985  0.1966  0.5604
  743MOL0     C  205   8.107   2.733   6.030 -0.4632  0.1036  0.4532
  743MOL0     O  206   8.208   2.820   6.071  0.2399  0.2971  0.9434
  743MOL0     C  207   8.203   2.959   6.037 -0.4316 -0.3645  0.0832
  743MOL0     C  208   8.095   3.014   6.140 -0.2279 -1.0158 -0.7182
  743MOL0     C  209   8.075   3.164   6.109  0.1828  0.6225 -0.3787
  743MOL0     C  210   8.193   3.250   6.125  0.1600  0.4692 -1.0581
  743MOL0     C  211   8.250   3.293   5.991 -0.0905 -0.7284 -0.7031
  743MOL0     C  212   8.337   3.420   6.007  0.1745 -1.0394  0.4151
  743MOL0     C  213   8.395   3.468   5.879  0.0642  0.3763  1.2873
  743MOL0     C  214   8.473   3.608   5.891 -1.4741  0.4577  0.1932
  743MOL0    Cl  215   8.547   3.664   5.737  0.1190 -0.1223 -0.2737
  743MOL0     C  216   8.015   2.772   5.940  0.1362  0.4235  0.2857
  743MOL0     C  217   7.920   2.692   5.873 -1.0520  0.4809 -0.5319
  743MOL0     O  218   7.800   2.316   5.976  0.2089  0.6913  0.0753
  743MOL0     C  219   7.576   2.223   5.854 -1.3921  0.1439  0.0375
  743MOL0     C  220   7.477   2.161   5.787  0.2295 -0.3761 -0.5813
  743MOL0     N  221   7.270   1.787   5.004  0.0627 -0.9601  0.0760
  743MOL0     N  222   7.192   1.748   4.913  0.3226  0.6827  0.5768
  743MOL0     C  223   5.948   2.116   4.510 -0.3824 -0.6968 -0.3191
  743MOL0     C  224   5.836   2.166   4.435  0.8649  0.5122 -0.3494
  743MOL0     C  225   5.387   2.138   4.269 -0.3824  0.6978  0.7322
  743MOL0     C  226   5.357   2.274   4.250  0.5064 -0.2453 -0.0718
  743MOL0     C  227   5.228   2.308   4.208 -0.7624 -0.9280  1.1634
  743MOL0     C  228   5.134   2.211   4.190  0.3319 -0.5840 -0.3166
  743MOL0     O  229   5.015   2.259   4.146  0.1822 -0.8817  0.3182
  743MOL0     C  230   4.917   2.156   4.122  0.2233  0.2733  0.6634
  743MOL0     C  231   4.779   2.214   4.100  0.1039  0.2511  0.8396
  743MOL0     C  232   4.731   2.277   4.233 -0.5542 -0.8383  0.8091
  743MOL0     C  233   4.640   2.394   4.207 -0.0658  0.6621 -0.5693
  743MOL0     C  234   4.590   2.454   4.326  0.3200  0.5712  0.6494
  743MOL0     C  235   4.536   2.480   4.435  0.0778 -0.5349 -0.5893
  743MOL0     C  236   5.162   2.071   4.213 -0.2315  0.6205 -1.0240
  743MOL0     C  237   5.291   2.041   4.256 -0.0103 -0.1441  0.1703
  743MOL0     H  238   5.596   1.975   4.584 -0.2563 -2.3334 -3.2936
  743MOL0     H  239   5.771   1.907   4.702 -1.7775 -1.2065 -1.0952
  743MOL0     H  240   6.167   1.934   4.553 -0.9518 -0.1216  0.5338
  743MOL0     H  241   6.184   2.081   4.644  0.3994  0.1523 -4.5390
  743MOL0     H  242   6.209   1.908   4.856  2.9750 -1.3977  0.5282
  743MOL0     H  243   6.241   1.795   4.725 -3.2314 -0.0692 -3.6098
  743MOL0     H  244   6.439   1.917   4.657  0.2258 -0.6350  0.7712
  743MOL0     H  245   6.381   2.062   4.750 -2.0983  0.7293 -0.4222
  743MOL0     H  246   6.409   1.968   4.941 -0.0843 -1.1478  0.5748
  743MOL0     H  247   6.450   1.804   4.915  0.5228  0.5870  3.1947
  743MOL0     H  248   6.623   2.007   4.807 -3.4543 -0.0050 -1.2699
  743MOL0     H  249   6.647   1.979   4.969 -1.6811  2.2378 -1.5612
  743MOL0     H  250   6.663   1.718   4.921 -1.1740 -0.3953 -0.6314
  743MOL0     H  251   6.703   1.778   4.755 -0.5628 -2.2140  0.7234
  743MOL0     H  252   6.880   1.932   4.882  2.3317 -1.0431  1.1263
  743MOL0     H  253   6.838   1.835   5.022 -0.6837  2.5988 -0.2186
  743MOL0     H  254   6.976   1.744   4.783 -1.1218  0.8073  1.1911
  743MOL0     H  255   6.909   1.621   4.889  0.6287 -0.8177 -2.8608
  743MOL0     H  256   6.990   1.760   5.158 -1.4052  0.0427 -1.1858
  743MOL0     H  257   7.183   1.911   5.297 -0.2559  1.3368  0.5062
  743MOL0     H  258   7.249   1.751   5.325 -2.2225  2.0133  0.7560
  743MOL0     H  259   7.414   1.984   5.215  1.6801  0.5006  2.8711
  743MOL0     H  260   7.462   1.808   5.213 -0.9214 -1.9229  1.7666
  743MOL0     H  261   7.569   1.942   5.400 -0.2126 -1.3988  1.9855
  743MOL0     H  262   7.450   1.840   5.472  2.8970 -0.3264 -0.2433
  743MOL0     H  263   7.282   2.033   5.424  0.0991 -2.8292 -1.2586
  743MOL0     H  264   7.428   2.132   5.389 -2.7296  0.2141 -2.6202
  743MOL0     H  265   7.579   2.221   5.470 -0.1194  1.0728 -0.5980
  743MOL0     H  266   7.740   2.492   5.561 -0.8264  0.1497 -2.2966
  743MOL0     H  267   7.872   2.374   5.591  0.1679  3.2654 -0.8804
  743MOL0     H  268   7.765   2.347   5.457 -0.5360  0.5480 -0.7384
  743MOL0     H  269   8.041   2.395   5.988  1.8797 -0.6676  1.6855
  743MOL0     H  270   8.198   2.554   6.095 -0.1688  1.9566  0.8940
  743MOL0     H  271   8.300   3.008   6.050 -0.8096  1.2684 -2.5888
  743MOL0     H  272   8.175   2.975   5.933  2.4164  2.2748 -0.4071
  743MOL0     H  273   7.996   2.969   6.130 -1.4541  1.1832  0.7096
  743MOL0     H  274   8.139   3.005   6.239 -1.0872  0.3042 -0.1893
  743MOL0     H  275   8.001   3.222   6.165  0.6301  1.9931 -1.1689
  743MOL0     H  276   8.035   3.173   6.008 -0.4056 -0.5211 -0.2676
  743MOL0     H  277   8.154   3.338   6.177 -1.5480 -0.4485 -0.6742
  743MOL0     H  278   8.278   3.218   6.187  0.5517  0.6802 -1.4827
  743MOL0     H  279   8.160   3.311   5.932 -0.0632  4.1410  0.2910
  743MOL0     H  280   8.310   3.220   5.936  2.1587  1.1172 -0.8713
  743MOL0     H  281   8.283   3.498   6.062  0.7572 -1.4273  1.5750
  743MOL0     H  282   8.425   3.409   6.072  1.8883  0.2101 -1.5695
  743MOL0     H  283   8.321   3.472   5.798  0.3993  0.6684  0.9886
  743MOL0     H  284   8.463   3.389   5.846  0.3478  0.9102  0.5564
  743MOL0     H  285   8.552   3.602   5.967  0.7872  3.3269 -1.7153
  743MOL0     H  286   8.406   3.687   5.924 -0.6618  1.2175  0.0665
  743MOL0     H  287   8.002   2.876   5.912 -0.2515  0.4962  0.7239
  743MOL0     H  288   7.854   2.743   5.803  0.6682  1.8995 -1.2078
  743MOL0     H  289   7.555   2.228   5.960 -0.0823  3.3335  0.2385
  743MOL0     H  290   7.399   2.117   5.848  0.5579  0.4846  0.4734
  743MOL0     H  291   6.048   2.147   4.484 -0.6715  1.3873  0.8356
  743MOL0     H  292   5.861   2.228   4.349  4.5104 -1.8704 -1.2483
  743MOL0     H  293   5.418   2.359   4.278 -2.3070  1.4415  1.3453
  743MOL0     H  294   5.198   2.404   4.167 -0.2009 -0.5157  1.7004
  743MOL0     H  295   4.940   2.098   4.032 -1.7237  0.6833 -0.1533
  743MOL0     H  296   4.915   2.084   4.205  0.7749 -2.3258 -1.4367
  743MOL0     H  297   4.706   2.138   4.071  1.4888 -1.2256  1.0918
  743MOL0     H  298   4.786   2.297   4.029  1.8638 -0.2967  0.3425
  743MOL0     H  299   4.818   2.317   4.285 -0.7675  2.0871 -0.8716
  743MOL0     H  300   4.678   2.210   4.302 -0.8800 -1.5295 -0.0940
  743MOL0     H  301   4.552   2.355   4.155 -0.3845 -0.5441  0.8277
  743MOL0     H  302   4.686   2.468   4.141  0.0481 -0.0116 -1.2678
  743MOL0     H  303   4.499   2.486   4.535 -0.5004  1.7136 -0.8825
  743MOL0     H  304   5.097   1.984   4.216 -1.3020  1.4170 -1.0205
  743MOL0     H  305   5.317   1.938   4.276  1.2566  0.2879  0.8585
  744MOL0     O  306   1.394   3.553  10.238  0.2144  0.2382  0.0177
  744MOL0     C  307   1.410   3.432  10.245 -0.2494  0.1147 -0.0885
  744MOL0     O  308   1.529   3.364  10.262 -0.1787  0.3492 -0.2194
  744MOL0     C  309   1.643   3.438  10.260  0.3589  0.3391  0.4575
  744MOL0     C  310   1.692   3.485  10.383 -0.5660  0.2045 -0.3590
  744MOL0     C  311   1.801   3.568  10.376 -0.5322  0.7572 -0.0743
  744MOL0     C  312   1.854   3.619  10.260 -0.0178 -0.5280  0.6373
  744MOL0     O  313   1.928   3.730  10.268 -0.2533  0.0344 -0.0077
  744MOL0     C  314   1.861   3.859  10.256  0.9445 -0.0667 -0.0547
  744MOL0     C  315   1.877   3.919  10.401  0.3611 -0.1671 -0.2856
  744MOL0     C  316   1.805   4.061  10.418 -0.0971 -0.3463  0.0359
  744MOL0     C  317   1.717   4.074  10.548  0.3987  0.1974 -0.0393
  744MOL0     C  318   1.605   3.969  10.577  0.8615  0.5004  0.4509
  744MOL0     C  319   1.521   3.957  10.444 -1.5291  0.2998  0.4853
  744MOL0     C  320   1.389   3.891  10.463  0.4268  0.7483 -0.1295
  744MOL0     C  321   1.309   3.879  10.330 -0.2009  0.5195  0.1778
  744MOL0     N  322   1.183   3.798  10.362  0.3037 -0.8434 -0.9621
  744MOL0     C  323   1.169   3.685  10.436  1.0879  0.1405 -0.1641
  744MOL0     C  324   1.050   3.629  10.399  0.7440  0.3446 -0.5731
  744MOL0     C  325   0.988   3.515  10.465 -0.3375 -0.3314  0.1592
  744MOL0     C  326   0.830   3.513  10.461  0.4821  0.2430 -0.0455
  744MOL0     C  327   0.768   3.642  10.517  0.5635  0.5628 -0.3447
  744MOL0     C  328   0.690   3.721  10.409 -0.0394  0.2920  1.3149
  744MOL0     O  329   0.614   3.634  10.334 -0.3202  0.0939 -0.3365
  744MOL0     C  330   0.507   3.569  10.385  0.1465  0.4822  0.3101
  744MOL0     C  331   0.518   3.432  10.407  0.1972 -0.4695 -0.4580
  744MOL0     C  332   0.415   3.353  10.466  0.3668  0.2042  0.7021
  744MOL0     C  333   0.432   3.206  10.460  0.9631 -0.8784 -0.4897
  744MOL0     C  334   0.305   3.418  10.516 -0.1940  0.1351  0.3538
  744MOL0     C  335   0.193   3.347  10.583  0.8995  0.3932 -0.7683
  744MOL0     O  336   0.067   3.385  10.563  0.9301 -0.3010  0.0194
  744MOL0     C  337  -0.040   3.325  10.630  0.1531 -0.1519 -0.5427
  744MOL0     C  338  -0.141   3.256  10.554  0.4327  0.0369  0.3497
  744MOL0     C  339  -0.252   3.197  10.628 -0.8604 -0.3079  0.6329
  744MOL0     C  340  -0.254   3.183  10.765 -0.8303 -0.4025 -0.8988
  744MOL0     O  341  -0.346   3.109  10.833 -0.2442 -0.2318 -0.7846
  744MOL0     C  342  -0.377   2.980  10.778  0.3038  0.8991  0.0045
  744MOL0     C  343  -0.271   2.865  10.794 -0.0857  1.0047 -0.5366
  744MOL0     C  344  -0.307   2.770  10.680 -0.0461  0.4878  0.2272
  744MOL0     C  345  -0.220   2.641  10.697  0.6527  0.1053  0.2495
  744MOL0     C  346  -0.224   2.527  10.593 -0.0657  0.2667  0.0329
  744MOL0     C  347  -0.348   2.444  10.623 -0.8362  0.3640 -0.1595
  744MOL0     C  348  -0.314   2.318  10.708  0.0945 -0.1152 -0.2535
  744MOL0     C  349  -0.443   2.237  10.723  0.3515  0.3311  0.0962
  744MOL0    Cl  350  -0.540   2.327  10.845  0.4305 -0.0097 -0.2265
  744MOL0     C  351  -0.144   3.236  10.844  0.2214 -0.1136 -0.1144
  744MOL0     C  352  -0.040   3.298  10.774 -0.0001  0.9089 -0.6535
  744MOL0     O  353   0.229   3.263  10.661 -0.0713 -1.0717  0.0754
  744MOL0     C  354   0.284   3.556  10.485 -0.8076  0.0670  0.9381
  744MOL0     C  355   0.383   3.627  10.420 -0.4936  0.9202  0.0831
  744MOL0     N  356   0.993   3.713  10.299  0.7734  0.1072 -0.1542
  744MOL0     N  357   1.066   3.819  10.290 -0.0026  0.0718  0.0424
  744MOL0     C  358   1.802   3.589  10.138  0.2112  0.2646  0.2921
  744MOL0     C  359   1.696   3.498  10.140  0.4036  0.8454 -0.9754
  744MOL0     C  360   1.290   3.346  10.242  0.1520  1.1405 -0.0026
  744MOL0     C  361   1.285   3.216  10.301 -0.3622  0.0032 -0.1258
  744MOL0     C  362   1.170   3.139  10.301  0.3118 -0.2140  0.0390
  744MOL0     C  363   1.055   3.196  10.246 -0.4579 -0.0662 -0.0766
  744MOL0     O  364   0.951   3.115  10.248 -0.3167  0.2350 -1.1248
  744MOL0     C  365   0.828   3.156  10.191 -0.8407  0.4403  0.3441
  744MOL0     C  366   0.744   3.025  10.157  0.5712 -0.5634  0.1347
  744MOL0     C  367   0.713   2.966  10.297  0.4387  0.4357  0.5433
  744MOL0     C  368   0.601   2.855  10.295  0.6848  0.8560 -0.4466
  744MOL0     C  369   0.488   2.890  10.219  0.5462  0.0366 -0.3624
  744MOL0     C  370   0.394   2.935  10.157 -0.2857  0.5635 -0.7256
  744MOL0     C  371   1.053   3.323  10.192  0.0960  0.2795  0.6908
  744MOL0     C  372   1.169   3.389  10.189 -0.5388 -0.3661  0.2596
  744MOL0     H  373   1.661   3.467  10.485  0.5289  2.6310  0.4749
  744MOL0     H  374   1.845   3.593  10.472 -0.6054 -0.3614  0.2631
  744MOL0     H  375   1.917   3.929  10.193  2.7811 -1.0014  0.4609
  744MOL0     H  376   1.755   3.861  10.231  0.5933  0.2249  1.3939
  744MOL0     H  377   1.833   3.852  10.475 -1.2646  0.3519 -0.7544
  744MOL0     H  378   1.978   3.933  10.441 -0.5815 -2.6880  3.6334
  744MOL0     H  379   1.875   4.145  10.411 -2.4032  1.5846 -1.8810
  744MOL0     H  380   1.744   4.065  10.327  0.2552 -1.2685 -0.2454
  744MOL0     H  381   1.771   4.097  10.641  1.4544 -0.9576 -0.3322
  744MOL0     H  382   1.660   4.166  10.534  0.4887  0.1089 -0.9954
  744MOL0     H  383   1.646   3.872  10.605 -1.3615 -0.2899  1.1962
  744MOL0     H  384   1.540   3.996  10.661 -0.0407 -3.2276  1.1201
  744MOL0     H  385   1.503   4.054  10.396 -1.6182 -0.0215 -0.1491
  744MOL0     H  386   1.582   3.899  10.373 -3.1616 -2.1241  0.9222
  744MOL0     H  387   1.411   3.790  10.499  0.3074  1.2827  1.5007
  744MOL0     H  388   1.331   3.942  10.539 -3.4366 -2.0238 -0.8968
  744MOL0     H  389   1.363   3.813  10.261 -0.3346 -0.1631  0.7185
  744MOL0     H  390   1.271   3.976  10.300 -1.8609 -0.2234 -0.2224
  744MOL0     H  391   1.234   3.650  10.516  1.5092  0.6492 -0.2823
  744MOL0     H  392   1.035   3.422  10.432 -0.7026 -0.8082  0.9482
  744MOL0     H  393   1.021   3.518  10.570  0.0980 -2.7638  0.1646
  744MOL0     H  394   0.802   3.423  10.518 -0.1724 -1.8663 -3.4096
  744MOL0     H  395   0.794   3.491  10.360 -1.5120  0.1221  0.6326
  744MOL0     H  396   0.845   3.708  10.559 -0.2305  1.0975  0.3116
  744MOL0     H  397   0.694   3.633  10.597  1.0203  3.0604  0.4562
  744MOL0     H  398   0.757   3.777  10.344  1.5229 -3.3933 -0.5824
  744MOL0     H  399   0.619   3.790  10.455 -1.3496 -0.6028  0.7119
  744MOL0     H  400   0.611   3.378  10.394  0.7069 -0.2868  2.0379
  744MOL0     H  401   0.362   3.158  10.391 -2.0718 -0.5961  2.1318
  744MOL0     H  402   0.537   3.193  10.434  0.7815  0.2307 -1.9174
  744MOL0     H  403   0.419   3.159  10.558  0.4987 -2.3405 -1.2235
  744MOL0     H  404  -0.155   3.279  10.449 -2.5934  0.0361  0.6591
  744MOL0     H  405  -0.350   3.171  10.590 -1.4047  0.7433  1.2572
  744MOL0     H  406  -0.472   2.944  10.817 -0.1116  0.4016 -1.3951
  744MOL0     H  407  -0.393   2.991  10.670 -0.5722  1.1681  0.1524
  744MOL0     H  408  -0.171   2.901  10.771  1.0526 -1.3131  0.4080
  744MOL0     H  409  -0.260   2.831  10.898  0.7187  1.9752 -0.2869
  744MOL0     H  410  -0.290   2.811  10.580 -2.0052 -4.7739 -2.6289
  744MOL0     H  411  -0.415   2.750  10.681  0.1651 -1.1253 -2.0982
  744MOL0     H  412  -0.117   2.679  10.693  0.7896 -0.1407  1.1181
  744MOL0     H  413  -0.230   2.599  10.798  2.3372 -0.4325  0.2227
  744MOL0     H  414  -0.131   2.471  10.612  0.4088  1.6504  2.2594
  744MOL0     H  415  -0.219   2.572  10.494 -1.4788 -0.0994 -0.2178
  744MOL0     H  416  -0.422   2.515  10.659 -1.6402 -0.8731  0.7148
  744MOL0     H  417  -0.386   2.404  10.528  2.4386 -1.3404 -0.9165
  744MOL0     H  418  -0.266   2.344  10.802  0.2943 -0.1276 -0.3517
  744MOL0     H  419  -0.254   2.256  10.641  0.2476  0.8184 -1.0068
  744MOL0     H  420  -0.436   2.136  10.765 -0.6017  0.7697  1.3609
  744MOL0     H  421  -0.505   2.240  10.633 -3.0051 -0.2611  2.2288
  744MOL0     H  422  -0.123   3.221  10.949 -0.8461  0.2782  0.1653
  744MOL0     H  423   0.043   3.334  10.833  0.7216 -0.3075 -0.8895
  744MOL0     H  424   0.205   3.605  10.540  0.5056 -0.5504  3.4991
  744MOL0     H  425   0.378   3.735  10.411  2.4123  1.0590 -0.7732
  744MOL0     H  426   1.821   3.638  10.043  0.2948  0.4160  0.3874
  744MOL0     H  427   1.641   3.466  10.052  2.2603 -2.4975 -1.0708
  744MOL0     H  428   1.379   3.174  10.336 -0.1381 -1.3411 -2.1468
  744MOL0     H  429   1.176   3.043  10.351 -0.3359 -0.9867 -1.3205
  744MOL0     H  430   0.772   3.222  10.257 -0.7615  0.2582  0.5943
  744MOL0     H  431   0.841   3.213  10.099 -0.7667 -1.9608 -1.2257
  744MOL0     H  432   0.787   2.949  10.091  1.0964  0.9545 -1.3404
  744MOL0     H  433   0.657   3.059  10.100  0.8360  2.5685  1.4009
  744MOL0     H  434   0.678   3.037  10.373 -2.4845 -2.5808  2.3395
  744MOL0     H  435   0.809   2.932  10.336  0.3697 -0.1654  0.2049
  744MOL0     H  436   0.569   2.830  10.396 -2.9076 -4.4762 -2.4752
  744MOL0     H  437   0.655   2.771  10.250  4.5037  1.2621  2.7439
  744MOL0     H  438   0.326   2.978  10.086  0.7124  2.8532 -0.4013
  744MOL0     H  439   0.962   3.371  10.156 -0.1602 -0.4824  0.3158
  744MOL0     H  440   1.161   3.491  10.152  2.5132 -0.1197  0.0719
  745MOL0     O  441   6.536   8.837   6.951  0.5727  0.1137  0.5913
  745MOL0     C  442   6.518   8.889   7.067 -0.5293  0.9614  0.8028
  745MOL0     O  443   6.613   8.895   7.173 -0.2529  0.3579  0.0337
  745MOL0     C  444   6.733   8.821   7.157  0.2370  0.4244  0.4732
  745MOL0     C  445   6.746   8.684   7.116 -0.3248 -0.0783 -0.6881
  745MOL0     C  446   6.871   8.619   7.132  0.6535 -0.7972  0.3977
  745MOL0     C  447   6.991   8.678   7.178 -0.2642  0.5032  0.1768
  745MOL0     O  448   7.101   8.591   7.176 -0.7192  0.4657  0.2027
  745MOL0     C  449   7.238   8.636   7.189  0.2553 -1.5386 -0.0998
  745MOL0     C  450   7.330   8.516   7.179 -0.4939  0.6756 -0.5635
  745MOL0     C  451   7.469   8.537   7.242 -0.3246  0.0872 -0.0521
  745MOL0     C  452   7.561   8.646   7.191  1.3461 -0.6890  0.2253
  745MOL0     C  453   7.591   8.637   7.041  0.1330 -0.5252 -0.2635
  745MOL0     C  454   7.721   8.704   6.991 -0.1733 -0.4110  0.3084
  745MOL0     C  455   7.715   8.850   6.930  0.4084  0.0048 -0.0503
  745MOL0     C  456   7.589   8.901   6.873 -0.6192 -0.3416 -0.1186
  745MOL0     N  457   7.603   9.035   6.821  0.0539  0.1161  0.3090
  745MOL0     C  458   7.658   9.056   6.695 -0.0037 -0.0127 -0.3729
  745MOL0     C  459   7.633   9.189   6.688 -1.0959 -0.5003 -0.1328
  745MOL0     C  460   7.664   9.293   6.573  0.0676 -0.3235 -0.4361
  745MOL0     C  461   7.792   9.254   6.510 -0.5018  0.5991 -0.3541
  745MOL0     C  462   7.907   9.276   6.614 -0.4405 -0.4395 -0.4109
  745MOL0     C  463   8.045   9.236   6.569 -0.3372 -0.1460  0.5676
  745MOL0     O  464   8.142   9.290   6.665  0.4140  0.0219  0.5355
  745MOL0     C  465   8.161   9.429   6.668 -0.0100  0.1544  0.5216
  745MOL0     C  466   8.204   9.477   6.790  0.4259 -0.4474  0.2123
  745MOL0     C  467   8.237   9.607   6.806 -0.4708  0.0821 -0.1849
  745MOL0     C  468   8.299   9.637   6.938  0.3627 -0.1130 -0.3274
  745MOL0     C  469   8.231   9.705   6.704  0.7008 -0.3162  0.1454
  745MOL0     C  470   8.276   9.843   6.715  0.1933  1.8715  0.5503
  745MOL0     O  471   8.188   9.935   6.757 -0.0178 -0.2416  0.1487
  745MOL0     C  472   8.214  10.061   6.761  0.6187 -0.0664  0.1803
  745MOL0     C  473   8.266  10.121   6.879 -0.1602 -0.1176 -1.2700
  745MOL0     C  474   8.277  10.262   6.895 -0.9087 -1.6099 -0.7845
  745MOL0     C  475   8.229  10.340   6.789 -0.3664  0.5220  0.1522
  745MOL0     O  476   8.239  10.478   6.796 -0.0797 -0.0477 -0.0626
  745MOL0     C  477   8.122  10.554   6.762 -0.2929 -0.7872  0.0394
  745MOL0     C  478   8.080  10.644   6.870  0.1655  0.8762 -0.0070
  745MOL0     C  479   7.966  10.741   6.828  0.5851 -0.1254  0.3374
  745MOL0     C  480   8.021  10.857   6.729  0.0261 -0.5480  0.4042
  745MOL0     C  481   7.939  10.982   6.746  0.3397 -0.2726 -0.1674
  745MOL0     C  482   7.980  11.063   6.884  0.0752 -0.5053  0.4532
  745MOL0     C  483   7.904  11.203   6.893 -1.0524 -0.9296 -0.1735
  745MOL0     C  484   7.893  11.254   7.032 -0.0339  0.6816  0.2137
  745MOL0    Cl  485   7.795  11.408   6.997 -0.4045  0.1633  0.0192
  745MOL0     C  486   8.165  10.278   6.677 -0.4073  0.6386  1.1791
  745MOL0     C  487   8.157  10.141   6.663 -1.1119  0.3351  0.2701
  745MOL0     O  488   8.390   9.866   6.684 -0.2496  0.5733 -0.0770
  745MOL0     C  489   8.184   9.657   6.577 -0.7108  0.4931  0.6177
  745MOL0     C  490   8.148   9.520   6.558  0.4297  0.9063  0.2029
  745MOL0     N  491   7.577   9.242   6.807 -0.6084  0.7150 -0.7886
  745MOL0     N  492   7.572   9.145   6.888 -0.3107 -0.3937  0.8875
  745MOL0     C  493   6.985   8.814   7.201  0.0895  0.9313  0.3332
  745MOL0     C  494   6.856   8.885   7.189 -0.0396 -0.3947 -0.0736
  745MOL0     C  495   6.392   8.967   7.082 -1.1063 -0.3967 -0.6026
  745MOL0     C  496   6.370   9.047   7.200 -0.0588 -0.1390 -0.2444
  745MOL0     C  497   6.255   9.127   7.209  0.0861  0.2858  0.6678
  745MOL0     C  498   6.156   9.137   7.114 -0.1716 -0.5088  0.3602
  745MOL0     O  499   6.042   9.203   7.124  0.2113 -0.2298  1.2552
  745MOL0     C  500   5.991   9.267   7.240 -0.2487 -0.6740 -0.8508
  745MOL0     C  501   5.840   9.279   7.248 -0.2106 -0.2955 -0.9164
  745MOL0     C  502   5.806   9.398   7.339  0.1497 -0.3518  0.5453
  745MOL0     C  503   5.652   9.396   7.373 -0.4203  0.4384  0.2001
  745MOL0     C  504   5.565   9.371   7.256  0.2965 -0.3210 -0.5732
  745MOL0     C  505   5.480   9.339   7.169 -0.6359  0.3549 -0.3133
  745MOL0     C  506   6.182   9.067   7.001 -0.4414  0.6407 -0.0870
  745MOL0     C  507   6.298   8.989   6.985 -0.1919 -0.1307  0.3389
  745MOL0     H  508   6.662   8.629   7.075  0.0788 -0.6900 -0.6985
  745MOL0     H  509   6.868   8.515   7.100 -1.7402 -0.2498 -1.3765
  745MOL0     H  510   7.253   8.712   7.112 -0.8177  0.3671  1.4791
  745MOL0     H  511   7.255   8.681   7.288 -1.3121 -3.6091  1.1906
  745MOL0     H  512   7.289   8.430   7.232 -0.9660 -0.6063 -2.8775
  745MOL0     H  513   7.347   8.486   7.075  1.3129  3.2981 -1.1278
  745MOL0     H  514   7.457   8.551   7.350 -3.0602  4.6754 -0.6677
  745MOL0     H  515   7.519   8.443   7.220 -1.2805 -0.0457 -1.7694
  745MOL0     H  516   7.520   8.747   7.200  4.2584  0.9024 -2.3504
  745MOL0     H  517   7.659   8.641   7.240  1.4444 -2.0953 -0.0601
  745MOL0     H  518   7.600   8.531   7.014 -3.4170 -0.9461 -0.2895
  745MOL0     H  519   7.499   8.678   6.998 -0.0958 -1.2935 -0.5308
  745MOL0     H  520   7.790   8.705   7.075  0.8316  0.5378 -0.5051
  745MOL0     H  521   7.767   8.645   6.912 -0.7604  0.1593 -0.4764
  745MOL0     H  522   7.744   8.932   6.997  0.0432  2.8395 -3.0788
  745MOL0     H  523   7.797   8.862   6.859  0.7078  1.0603  0.4489
  745MOL0     H  524   7.519   8.892   6.957 -1.8511 -1.3646 -1.2027
  745MOL0     H  525   7.545   8.841   6.793 -2.1666  2.2181 -1.3181
  745MOL0     H  526   7.711   8.985   6.632 -0.1985 -1.1385  0.6977
  745MOL0     H  527   7.587   9.288   6.496  0.5848  0.5080 -1.0222
  745MOL0     H  528   7.673   9.388   6.626 -0.7550 -1.5880  2.1112
  745MOL0     H  529   7.800   9.309   6.416 -2.8040  0.3110 -0.7642
  745MOL0     H  530   7.786   9.147   6.489 -2.2147  0.1165  2.0860
  745MOL0     H  531   7.885   9.230   6.710  0.6687  0.5566  0.3515
  745MOL0     H  532   7.912   9.383   6.639 -2.9408 -0.0821 -1.1807
  745MOL0     H  533   8.068   9.271   6.468 -1.3007 -0.5088  0.2100
  745MOL0     H  534   8.039   9.127   6.576  1.6174 -0.2625  0.9262
  745MOL0     H  535   8.225   9.405   6.868 -0.0557  0.4437  1.1941
  745MOL0     H  536   8.407   9.629   6.925  0.0615 -1.4769 -2.3765
  745MOL0     H  537   8.272   9.740   6.965  0.4322  0.0626 -0.9166
  745MOL0     H  538   8.272   9.571   7.021  0.9939 -0.1548 -0.1479
  745MOL0     H  539   8.294  10.054   6.959  1.2384  2.3797  0.4500
  745MOL0     H  540   8.332  10.309   6.976  0.1359 -1.4590 -1.5528
  745MOL0     H  541   8.159  10.609   6.675  2.8824 -0.6799  1.3289
  745MOL0     H  542   8.039  10.488   6.734  0.0223 -1.0360 -0.3213
  745MOL0     H  543   8.041  10.587   6.955 -1.7291  0.8594 -0.8309
  745MOL0     H  544   8.162  10.701   6.916 -0.8518 -0.4630  3.8981
  745MOL0     H  545   7.934  10.791   6.920  0.1404 -1.5989  1.0124
  745MOL0     H  546   7.881  10.678   6.797  1.1080 -0.0680 -1.2797
  745MOL0     H  547   8.128  10.868   6.750  0.5353 -2.9856 -0.6112
  745MOL0     H  548   8.020  10.825   6.625 -2.9374 -2.3112  0.8812
  745MOL0     H  549   7.832  10.957   6.745 -0.1430  0.7625  4.0486
  745MOL0     H  550   7.959  11.047   6.661 -0.6221 -0.0874 -0.2583
  745MOL0     H  551   7.957  11.002   6.972  3.0790  1.4715  2.8682
  745MOL0     H  552   8.086  11.090   6.887  0.2257 -1.0411  3.9742
  745MOL0     H  553   7.802  11.185   6.858  0.0596 -3.8938 -2.2937
  745MOL0     H  554   7.953  11.279   6.832  3.3017 -0.6519  3.1568
  745MOL0     H  555   7.988  11.265   7.086 -0.2699  2.2901  0.3356
  745MOL0     H  556   7.833  11.191   7.098 -2.3148  2.4072 -0.0802
  745MOL0     H  557   8.133  10.341   6.595  1.7677  1.5852  0.9865
  745MOL0     H  558   8.126  10.092   6.571  2.8922 -0.0524 -1.0924
  745MOL0     H  559   8.176   9.733   6.500 -0.7368  0.5623  0.6879
  745MOL0     H  560   8.117   9.475   6.464 -3.3662 -3.8439  3.2712
  745MOL0     H  561   7.083   8.856   7.219  1.0798 -1.2504  0.4080
  745MOL0     H  562   6.856   8.992   7.205 -0.1027 -0.8021  3.5437
  745MOL0     H  563   6.434   9.048   7.288 -2.1478 -1.5892  1.3732
  745MOL0     H  564   6.228   9.184   7.298 -1.2847  0.1039  0.4012
  745MOL0     H  565   6.022   9.208   7.327  0.3303 -1.4389 -1.5653
  745MOL0     H  566   6.041   9.363   7.257 -1.2618  0.1306 -2.2239
  745MOL0     H  567   5.796   9.188   7.288 -1.1413 -0.4408 -2.1885
  745MOL0     H  568   5.807   9.303   7.146 -1.4544  0.1424 -0.4405
  745MOL0     H  569   5.839   9.490   7.290 -1.5368  1.5812  2.8089
  745MOL0     H  570   5.866   9.411   7.430  1.1968  1.1737 -0.3220
  745MOL0     H  571   5.617   9.487   7.423  1.4910  1.9609 -1.0825
  745MOL0     H  572   5.630   9.321   7.450  0.7578  0.8842  0.9938
  745MOL0     H  573   5.405   9.308   7.099 -1.6308 -0.7527  1.1821
  745MOL0     H  574   6.113   9.072   6.917 -0.3071 -1.8665 -0.4282
  745MOL0     H  575   6.311   8.938   6.890 -0.2550  0.0735  0.2197
  746MOL0     O  576   0.924   7.664   6.788 -0.5818  0.2353 -0.8209
  746MOL0     C  577   0.937   7.719   6.901 -0.4317  0.0467  0.5898
  746MOL0     O  578   0.860   7.699   7.013  0.1338 -0.1335  0.3670
  746MOL0     C  579   0.784   7.587   7.050  0.2175 -0.7649  0.0271
  746MOL0     C  580   0.752   7.574   7.189 -0.0639 -0.3326 -0.6374
  746MOL0     C  581   0.676   7.466   7.232 -0.6158  0.2682 -0.8553
  746MOL0     C  582   0.648   7.359   7.145 -0.4114 -0.0280  0.8644
  746MOL0     O  583   0.597   7.241   7.205 -0.0326 -0.2847  0.4017
  746MOL0     C  584   0.578   7.132   7.119  0.0097 -0.2659 -0.4438
  746MOL0     C  585   0.618   7.020   7.207 -0.6858 -0.4936  0.6642
  746MOL0     C  586   0.518   6.981   7.313 -0.7427  0.4861 -0.8975
  746MOL0     C  587   0.581   6.872   7.414 -0.0093 -0.7097 -0.4544
  746MOL0     C  588   0.491   6.857   7.546  0.0419 -0.2622  0.6717
  746MOL0     C  589   0.468   6.981   7.637 -0.2826  0.9041  0.1280
  746MOL0     C  590   0.387   6.953   7.760  0.0682 -0.1942  0.0662
  746MOL0     C  591   0.466   6.885   7.878 -0.3228  0.7982  0.2364
  746MOL0     N  592   0.380   6.879   8.000 -0.4761 -0.2129  0.7958
  746MOL0     C  593   0.372   6.980   8.088  0.5239 -0.3177 -0.1952
  746MOL0     C  594   0.314   6.928   8.198 -0.4914  1.3208 -0.1719
  746MOL0     C  595   0.263   7.009   8.320 -0.4803 -0.0474  0.1543
  746MOL0     C  596   0.354   6.995   8.449 -0.7324 -0.7477  0.3683
  746MOL0     C  597   0.501   7.039   8.403  0.0097  0.7378  0.0335
  746MOL0     C  598   0.512   7.192   8.378  0.0789  0.4811  0.3974
  746MOL0     O  599   0.544   7.216   8.242  0.0162  0.2843 -0.1147
  746MOL0     C  600   0.544   7.345   8.204  0.5199 -0.1593 -0.3134
  746MOL0     C  601   0.499   7.386   8.083 -0.2566  0.0569 -0.5173
  746MOL0     C  602   0.510   7.517   8.035 -0.5763  0.5716 -0.1843
  746MOL0     C  603   0.481   7.545   7.881 -0.2552 -0.6791 -0.0045
  746MOL0     C  604   0.556   7.615   8.127  0.0686 -0.6936  0.2298
  746MOL0     C  605   0.562   7.756   8.092  0.9589  0.2030  0.0507
  746MOL0     O  606   0.489   7.847   8.149 -0.2016  0.1861 -0.4391
  746MOL0     C  607   0.369   7.795   8.204 -0.8504 -0.5453  0.8547
  746MOL0     C  608   0.255   7.753   8.131  0.2885 -0.0875 -1.0243
  746MOL0     C  609   0.132   7.711   8.197  0.1795 -0.3897  0.0805
  746MOL0     C  610   0.132   7.706   8.338  0.6646  0.0655 -1.1332
  746MOL0     O  611   0.030   7.656   8.410  0.1263 -0.0092 -0.3894
  746MOL0     C  612  -0.107   7.659   8.361  0.2970  0.0455 -0.5964
  746MOL0     C  613  -0.188   7.790   8.390 -0.7340  0.2720 -1.2597
  746MOL0     C  614  -0.221   7.798   8.543 -0.6812  0.5067 -0.0390
  746MOL0     C  615  -0.346   7.872   8.570 -0.5667 -0.2683 -0.3925
  746MOL0     C  616  -0.420   7.865   8.698  0.4712 -0.3794 -0.2148
  746MOL0     C  617  -0.512   7.748   8.701 -0.0208  0.6092 -0.0849
  746MOL0     C  618  -0.577   7.721   8.843  0.7104 -0.0900 -0.0260
  746MOL0     C  619  -0.663   7.598   8.845  0.5000  0.0337 -0.2145
  746MOL0    Cl  620  -0.570   7.446   8.811 -0.0242 -0.1976 -0.2654
  746MOL0     C  621   0.244   7.727   8.407 -0.0580 -0.0091 -0.0281
  746MOL0     C  622   0.359   7.774   8.345 -0.2954 -0.0962  0.5485
  746MOL0     O  623   0.654   7.781   8.019 -0.0884  0.2707 -0.3837
  746MOL0     C  624   0.604   7.577   8.249  0.7515 -0.1416  0.3053
  746MOL0     C  625   0.597   7.445   8.290  0.5065 -0.5545 -1.3848
  746MOL0     N  626   0.269   6.797   8.169  0.9844 -0.3798 -1.0051
  746MOL0     N  627   0.316   6.765   8.055  0.8325  0.5476 -0.2297
  746MOL0     C  628   0.667   7.376   7.004 -0.0745  0.4029 -0.1611
  746MOL0     C  629   0.734   7.496   6.962 -0.0428  0.8971  0.0188
  746MOL0     C  630   1.052   7.814   6.914 -0.9242  0.4255  0.2932
  746MOL0     C  631   1.084   7.872   7.038 -0.2397 -0.5496  0.1048
  746MOL0     C  632   1.181   7.974   7.038 -0.0044  0.3984 -0.2511
  746MOL0     C  633   1.247   8.013   6.926 -0.5138  0.0367 -0.7486
  746MOL0     O  634   1.350   8.100   6.920  0.2507 -0.0078 -0.3859
  746MOL0     C  635   1.356   8.191   7.037  0.0254 -0.9244 -0.5353
  746MOL0     C  636   1.461   8.298   6.982  0.3512  0.5480 -0.2347
  746MOL0     C  637   1.490   8.415   7.076 -0.4578  0.3373  0.3513
  746MOL0     C  638   1.379   8.508   7.098  0.4416  0.0332 -0.8606
  746MOL0     C  639   1.291   8.460   7.207  0.0339  0.3385  0.5385
  746MOL0     C  640   1.212   8.427   7.288 -0.4320  0.1829 -0.5923
  746MOL0     C  641   1.216   7.950   6.804  0.1393 -2.3726 -0.0963
  746MOL0     C  642   1.117   7.856   6.796  0.1701  0.4880 -0.2340
  746MOL0     H  643   0.790   7.646   7.261 -0.0986  0.0746 -1.0246
  746MOL0     H  644   0.654   7.442   7.336 -2.0611  1.4000 -0.8694
  746MOL0     H  645   0.476   7.120   7.081 -0.2588  0.1766  0.1103
  746MOL0     H  646   0.639   7.130   7.028 -1.5039 -3.9944 -1.5579
  746MOL0     H  647   0.636   6.939   7.135  1.7559 -0.1114  0.7298
  746MOL0     H  648   0.714   7.049   7.252 -0.2462  1.7653 -1.4674
  746MOL0     H  649   0.502   7.075   7.367 -1.4781  0.0852 -0.4002
  746MOL0     H  650   0.418   6.953   7.280 -0.6416 -2.7008  1.0667
  746MOL0     H  651   0.578   6.775   7.363 -1.9694 -1.5731  1.1535
  746MOL0     H  652   0.682   6.911   7.431  0.7784 -2.3117 -1.2541
  746MOL0     H  653   0.392   6.835   7.505  0.0177  4.6653 -2.8399
  746MOL0     H  654   0.534   6.772   7.599  0.1076  0.3184  1.5585
  746MOL0     H  655   0.566   7.013   7.675 -0.3434 -0.1199  1.2380
  746MOL0     H  656   0.418   7.063   7.586 -1.6239 -0.2641 -0.4864
  746MOL0     H  657   0.346   7.049   7.795 -0.4248  0.3511 -1.8676
  746MOL0     H  658   0.299   6.898   7.726 -0.0592  0.3934 -0.5811
  746MOL0     H  659   0.552   6.949   7.897  0.0086 -0.0253  1.7520
  746MOL0     H  660   0.486   6.785   7.838 -0.3547  0.8448  0.1054
  746MOL0     H  661   0.421   7.075   8.069  0.5687 -0.3771 -0.3804
  746MOL0     H  662   0.261   7.115   8.292  4.8757  0.4178  0.5140
  746MOL0     H  663   0.156   7.000   8.341 -1.0770  2.1900 -1.5162
  746MOL0     H  664   0.357   6.893   8.488  1.9849  0.2690  3.2461
  746MOL0     H  665   0.317   7.058   8.530  1.2460  1.7940 -0.5412
  746MOL0     H  666   0.528   6.986   8.312 -2.5477  3.7995 -2.7953
  746MOL0     H  667   0.570   6.999   8.477 -1.1585  0.2126  0.8800
  746MOL0     H  668   0.594   7.219   8.445 -0.5302  3.5218  0.0665
  746MOL0     H  669   0.423   7.244   8.413 -0.3650 -1.3318  2.0908
  746MOL0     H  670   0.483   7.321   7.998  4.4887 -3.4468  0.8629
  746MOL0     H  671   0.390   7.601   7.860  0.1672 -0.1430 -0.4284
  746MOL0     H  672   0.565   7.594   7.832 -2.1418  0.6282 -2.1174
  746MOL0     H  673   0.452   7.451   7.833 -3.8716 -0.9583  2.3544
  746MOL0     H  674   0.254   7.756   8.022 -1.8902 -0.9823 -1.0789
  746MOL0     H  675   0.053   7.672   8.134  0.8232  1.0515 -1.6955
  746MOL0     H  676  -0.113   7.647   8.253 -2.3034  1.5243 -0.6898
  746MOL0     H  677  -0.165   7.575   8.401 -0.0080  1.4552  2.1642
  746MOL0     H  678  -0.127   7.876   8.360 -1.3617  0.2320 -2.7194
  746MOL0     H  679  -0.281   7.783   8.333 -1.2306  0.7044 -0.5245
  746MOL0     H  680  -0.135   7.843   8.593  0.1207 -0.2660 -0.6952
  746MOL0     H  681  -0.222   7.698   8.588 -1.9833  0.6266  0.2272
  746MOL0     H  682  -0.308   7.974   8.555  0.3300 -0.1308  2.2257
  746MOL0     H  683  -0.405   7.838   8.485  0.6708 -1.3509 -0.8623
  746MOL0     H  684  -0.475   7.959   8.713  1.4253  0.4187 -1.5510
  746MOL0     H  685  -0.351   7.856   8.782 -1.3759 -0.8449  1.3453
  746MOL0     H  686  -0.589   7.755   8.624 -0.9085 -2.8591  0.3051
  746MOL0     H  687  -0.457   7.656   8.680 -1.6699 -0.5473  0.3888
  746MOL0     H  688  -0.633   7.809   8.878 -0.8944 -1.1604  0.1954
  746MOL0     H  689  -0.497   7.698   8.913  2.4760 -2.5431 -2.6481
  746MOL0     H  690  -0.747   7.610   8.776 -0.8996 -0.6358  1.2826
  746MOL0     H  691  -0.704   7.612   8.946 -3.6100  2.8082 -1.9721
  746MOL0     H  692   0.251   7.720   8.515  1.7275  1.0080 -0.0346
  746MOL0     H  693   0.447   7.786   8.408 -1.1630  2.1182  1.4333
  746MOL0     H  694   0.656   7.650   8.311  3.4198 -0.3469 -1.5007
  746MOL0     H  695   0.655   7.418   8.377  3.0862  3.2904 -1.6476
  746MOL0     H  696   0.644   7.304   6.927  0.0034 -0.4173  0.5618
  746MOL0     H  697   0.758   7.514   6.858  0.3814  0.8684  0.1110
  746MOL0     H  698   1.030   7.847   7.129  1.5782  2.0741  2.0625
  746MOL0     H  699   1.196   8.014   7.137  0.1614  0.3962 -0.2751
  746MOL0     H  700   1.262   8.241   7.060  2.7308  4.3587  0.6137
  746MOL0     H  701   1.386   8.141   7.130  1.4023  2.6671  1.1352
  746MOL0     H  702   1.416   8.331   6.888  1.1757  1.4609 -0.3276
  746MOL0     H  703   1.550   8.237   6.963  0.2687 -0.4317  2.1154
  746MOL0     H  704   1.580   8.464   7.038  0.2298 -0.0171  1.4672
  746MOL0     H  705   1.517   8.380   7.176 -1.6993 -2.8865 -0.3016
  746MOL0     H  706   1.322   8.511   7.005 -0.6972 -1.7470 -0.2692
  746MOL0     H  707   1.418   8.607   7.123 -0.4746  0.3843 -0.7802
  746MOL0     H  708   1.149   8.378   7.359 -2.7790  0.9636 -2.0132
  746MOL0     H  709   1.270   7.987   6.718 -0.2844  1.4635  1.0948
  746MOL0     H  710   1.080   7.820   6.701 -2.3537  1.9208  0.1352
  747MOL0     O  711   9.614   6.928   1.009  0.5818  0.0515 -0.0511
  747MOL0     C  712   9.600   7.004   1.108 -0.2960  0.8861  0.7421
  747MOL0     O  713   9.656   7.126   1.122 -0.3674  0.3066 -0.4954
  747MOL0     C  714   9.726   7.186   1.024  0.6186 -0.8947  0.6010
  747MOL0     C  715   9.669   7.224   0.902  0.0836 -0.3675  0.3048
  747MOL0     C  716   9.745   7.281   0.800  0.3341 -0.1833 -1.8036
  747MOL0     C  717   9.882   7.285   0.811 -0.8823  0.8705  0.5379
  747MOL0     O  718   9.949   7.323   0.696  0.5813 -0.6302 -0.0581
  747MOL0     C  719   9.930   7.268   0.570 -0.6208 -0.9022  0.1960
  747MOL0     C  720   9.923   7.113   0.562  0.4881 -0.5291 -0.9092
  747MOL0     C  721  10.031   7.037   0.640 -0.8847  0.1997 -0.8132
  747MOL0     C  722  10.059   6.909   0.572  0.3390  1.8174 -0.8416
  747MOL0     C  723  10.152   6.811   0.646  0.0945 -0.5152 -0.4231
  747MOL0     C  724  10.082   6.764   0.765  0.4122  0.5181 -0.9811
  747MOL0     C  725  10.148   6.639   0.825  0.6940  0.0592 -0.7842
  747MOL0     C  726  10.048   6.553   0.906  0.3197 -1.2392 -0.0892
  747MOL0     N  727  10.109   6.527   1.036 -0.7127  0.5001  1.0518
  747MOL0     C  728  10.231   6.461   1.059 -0.4775  0.3683 -0.5063
  747MOL0     C  729  10.227   6.417   1.190  0.1736 -0.0082 -0.1600
  747MOL0     C  730  10.323   6.331   1.270  0.6232 -0.3222 -0.2285
  747MOL0     C  731  10.271   6.264   1.395  0.1160  0.0084  0.3721
  747MOL0     C  732  10.371   6.171   1.462  0.5128 -0.0305  0.4712
  747MOL0     C  733  10.308   6.068   1.545 -0.2965 -0.4383  0.1023
  747MOL0     O  734  10.200   6.105   1.632 -0.8045 -0.7000 -0.0358
  747MOL0     C  735  10.241   6.117   1.763  0.1488  0.2420  0.2960
  747MOL0     C  736  10.297   6.010   1.844  1.1357 -0.7562 -0.4839
  747MOL0     C  737  10.348   6.030   1.977  1.0805 -0.7469 -0.1525
  747MOL0     C  738  10.404   5.907   2.044  0.2126  0.3237 -0.8240
  747MOL0     C  739  10.331   6.156   2.037 -0.1320 -0.2054  0.0452
  747MOL0     C  740  10.372   6.181   2.180 -0.2449 -0.1683 -0.1973
  747MOL0     O  741  10.472   6.100   2.231 -0.3741 -0.5005 -0.6020
  747MOL0     C  742  10.528   6.132   2.357 -0.2948 -0.4307  0.3957
  747MOL0     C  743  10.457   6.121   2.476 -1.0847 -0.9999 -0.0209
  747MOL0     C  744  10.518   6.146   2.600 -0.3675  0.0091 -0.4171
  747MOL0     C  745  10.649   6.193   2.614  1.6817 -0.1813  0.3893
  747MOL0     O  746  10.704   6.226   2.735 -0.8474  0.2437 -0.0924
  747MOL0     C  747  10.625   6.259   2.850 -0.5943 -0.2294 -0.6470
  747MOL0     C  748  10.624   6.400   2.897  0.0864  0.6000  0.6371
  747MOL0     C  749  10.538   6.491   2.802  0.0649 -0.4469 -0.7010
  747MOL0     C  750  10.598   6.635   2.806 -0.0733 -0.2309 -0.0758
  747MOL0     C  751  10.596   6.705   2.943  1.1987  0.7797  0.3756
  747MOL0     C  752  10.648   6.849   2.928  0.0063  0.1094  0.0757
  747MOL0     C  753  10.557   6.947   2.842  0.1683 -0.4885  0.1953
  747MOL0     C  754  10.581   7.087   2.882 -0.3640 -0.2751  0.0129
  747MOL0    Cl  755  10.726   7.150   2.796 -0.1600  0.1489  0.4396
  747MOL0     C  756  10.717   6.210   2.493  0.4634  0.2089  0.4580
  747MOL0     C  757  10.663   6.183   2.365 -0.7088 -0.3053  0.3060
  747MOL0     O  758  10.304   6.263   2.247 -0.2723  0.3235 -0.0687
  747MOL0     C  759  10.268   6.258   1.966  0.7393 -0.1398 -0.7061
  747MOL0     C  760  10.227   6.242   1.833 -0.6201  0.8644 -0.2224
  747MOL0     N  761  10.110   6.468   1.240  0.0214  0.6860  0.3983
  747MOL0     N  762  10.046   6.542   1.154  0.6803 -0.7658 -0.0318
  747MOL0     C  763   9.948   7.249   0.930 -0.2615  0.1263 -0.1553
  747MOL0     C  764   9.867   7.200   1.037 -0.3199 -0.0650  0.3173
  747MOL0     C  765   9.508   6.965   1.225 -0.2174  0.7399  0.3733
  747MOL0     C  766   9.436   6.846   1.222  0.6451 -0.7951 -0.3384
  747MOL0     C  767   9.357   6.809   1.326 -0.3209  0.7449 -0.4272
  747MOL0     C  768   9.341   6.882   1.446  0.2845 -0.6133  0.3124
  747MOL0     O  769   9.253   6.840   1.545  0.4003 -0.2837  0.1898
  747MOL0     C  770   9.143   6.944   1.579 -0.4403  0.1495  0.4793
  747MOL0     C  771   9.011   6.877   1.603 -0.1129 -0.2310 -0.3062
  747MOL0     C  772   8.948   6.815   1.477 -1.5392 -0.6744  0.4291
  747MOL0     C  773   8.856   6.694   1.505 -0.5627 -0.2642 -0.1607
  747MOL0     C  774   8.946   6.590   1.552 -0.4089  0.1239  0.0940
  747MOL0     C  775   9.004   6.509   1.628 -0.4598  0.4159 -1.0960
  747MOL0     C  776   9.410   7.001   1.454 -0.4710 -0.2440 -0.1234
  747MOL0     C  777   9.493   7.040   1.346 -0.1482 -0.6575  0.7231
  747MOL0     H  778   9.564   7.215   0.877  0.4637 -0.4050 -1.3736
  747MOL0     H  779   9.700   7.315   0.707 -1.0658  0.3439 -0.9654
  747MOL0     H  780   9.849   7.330   0.529  0.3711  1.5107  1.6537
  747MOL0     H  781  10.014   7.295   0.505 -1.7226  2.2572 -0.0851
  747MOL0     H  782   9.821   7.082   0.585  0.4202 -1.2673 -2.1197
  747MOL0     H  783   9.937   7.080   0.458  1.3967 -1.7475 -0.4160
  747MOL0     H  784  10.127   7.090   0.632  0.5507 -2.0833  0.2007
  747MOL0     H  785  10.021   7.025   0.748 -1.0065 -1.1196 -0.9593
  747MOL0     H  786   9.960   6.868   0.556 -0.1310  2.4713  0.3032
  747MOL0     H  787  10.091   6.918   0.467 -1.1949 -1.9290 -1.7615
  747MOL0     H  788  10.174   6.723   0.585 -1.8196 -1.2363 -0.1365
  747MOL0     H  789  10.241   6.867   0.674  1.0591 -1.9201 -0.5405
  747MOL0     H  790  10.082   6.838   0.846  1.0912 -0.1532 -0.3494
  747MOL0     H  791   9.983   6.724   0.743  0.2702  1.2108 -1.6417
  747MOL0     H  792  10.184   6.585   0.737  2.8103 -0.0370  0.0879
  747MOL0     H  793  10.242   6.667   0.874  0.9376 -0.5842 -0.8726
  747MOL0     H  794  10.028   6.456   0.860 -2.7895 -1.0591  0.6821
  747MOL0     H  795   9.955   6.607   0.924  0.0840 -1.9010  0.7419
  747MOL0     H  796  10.318   6.442   0.996 -1.5224  1.0783 -2.2505
  747MOL0     H  797  10.379   6.257   1.211  3.9622 -1.0384  3.3982
  747MOL0     H  798  10.399   6.403   1.304  1.0044  1.0288 -3.5794
  747MOL0     H  799  10.183   6.204   1.367  0.5562 -1.9153  2.7511
  747MOL0     H  800  10.237   6.345   1.460 -0.2801 -0.1461  0.3607
  747MOL0     H  801  10.436   6.232   1.526 -1.1989  0.9420  1.3583
  747MOL0     H  802  10.438   6.120   1.391  1.6611  0.8752  0.8783
  747MOL0     H  803  10.397   6.029   1.594  2.1982  1.1269 -2.8542
  747MOL0     H  804  10.270   5.984   1.485 -3.5324 -0.2362  1.6306
  747MOL0     H  805  10.310   5.914   1.796  1.3908 -2.4559  2.7110
  747MOL0     H  806  10.509   5.927   2.067 -0.2324  0.6242  1.0968
  747MOL0     H  807  10.343   5.881   2.132  1.5169 -0.8979 -0.2420
  747MOL0     H  808  10.397   5.820   1.978 -1.9598  0.2334 -0.5395
  747MOL0     H  809  10.353   6.096   2.492 -0.4964 -2.3717  2.0357
  747MOL0     H  810  10.447   6.139   2.682  0.1758  2.0145  0.2988
  747MOL0     H  811  10.526   6.213   2.842  0.9491 -5.1502  3.1038
  747MOL0     H  812  10.670   6.209   2.936  0.8815  1.6251 -0.2766
  747MOL0     H  813  10.577   6.407   2.996 -0.9046 -2.1133  0.4482
  747MOL0     H  814  10.721   6.449   2.912  0.1518  1.0147 -0.9448
  747MOL0     H  815  10.440   6.517   2.842  0.5769  0.9273 -0.2985
  747MOL0     H  816  10.528   6.438   2.707  2.2021 -0.5302 -0.9314
  747MOL0     H  817  10.702   6.631   2.772 -0.5925  1.0583 -1.9312
  747MOL0     H  818  10.542   6.692   2.732  1.2089 -2.0157 -2.5655
  747MOL0     H  819  10.650   6.646   3.019 -1.2879 -0.0187  1.6274
  747MOL0     H  820  10.493   6.709   2.978  1.0581  1.1810 -0.0752
  747MOL0     H  821  10.648   6.892   3.029  1.0694 -0.4205  0.3156
  747MOL0     H  822  10.753   6.856   2.897  0.1129  2.3347  0.7596
  747MOL0     H  823  10.451   6.926   2.860 -0.2177  1.7044  0.9270
  747MOL0     H  824  10.574   6.932   2.735 -0.4401 -2.1954  0.3048
  747MOL0     H  825  10.591   7.104   2.989 -4.2160 -0.8280  0.5910
  747MOL0     H  826  10.506   7.157   2.845 -1.0042 -1.5550 -1.2242
  747MOL0     H  827  10.816   6.252   2.496  0.8640 -0.7299  0.7891
  747MOL0     H  828  10.732   6.207   2.285  1.0574 -0.9541  1.5754
  747MOL0     H  829  10.259   6.349   2.024  1.5759 -1.1190  1.0344
  747MOL0     H  830  10.181   6.329   1.786 -1.5749  0.0730 -0.8098
  747MOL0     H  831  10.055   7.257   0.942 -0.4619  2.2893  0.5235
  747MOL0     H  832   9.916   7.171   1.129 -1.6983 -0.7565  0.8779
  747MOL0     H  833   9.435   6.793   1.127 -1.0954  1.7322 -1.8471
  747MOL0     H  834   9.293   6.721   1.330 -1.8510  1.7645 -1.6790
  747MOL0     H  835   9.183   7.005   1.661 -1.7575 -0.1712  1.3898
  747MOL0     H  836   9.122   7.020   1.504 -4.5770 -0.4385  0.8508
  747MOL0     H  837   8.938   6.951   1.638 -1.5744 -2.5505  1.8549
  747MOL0     H  838   9.022   6.804   1.683  1.4548 -0.4117 -0.6572
  747MOL0     H  839   9.021   6.778   1.404 -3.7132 -1.6632 -1.3752
  747MOL0     H  840   8.889   6.890   1.423 -0.7067 -0.7440 -0.6281
  747MOL0     H  841   8.792   6.667   1.420 -1.2020  0.0540  0.2145
  747MOL0     H  842   8.793   6.704   1.593  1.3917 -2.2187  1.6008
  747MOL0     H  843   9.046   6.429   1.686 -0.0126  0.1773 -1.7267
  747MOL0     H  844   9.400   7.080   1.528  0.7100  1.3555 -1.5806
  747MOL0     H  845   9.543   7.136   1.355  1.8789 -1.7118  1.5593
  748MOL0     O  846   2.089   3.708  11.305  0.4283 -0.2928 -0.9816
  748MOL0     C  847   2.195   3.653  11.337  0.2215  0.6128 -0.0488
  748MOL0     O  848   2.252   3.554  11.273  0.1169  0.5134  0.3162
  748MOL0     C  849   2.195   3.501  11.156 -0.7320 -0.5122 -0.0882
  748MOL0     C  850   2.145   3.374  11.140 -0.6765 -0.0590 -0.4522
  748MOL0     C  851   2.104   3.321  11.015  0.0424  0.1631  0.2414
  748MOL0     C  852   2.089   3.413  10.906  0.3098 -0.4814 -0.2877
  748MOL0     O  853   2.029   3.368  10.792 -0.0335 -0.7387 -0.0268
  748MOL0     C  854   2.088   3.405  10.669 -0.3673  0.8314 -0.4535
  748MOL0     C  855   2.070   3.308  10.556 -0.7866 -0.0591 -0.2947
  748MOL0     C  856   2.183   3.306  10.449 -0.0984 -0.0142  0.2092
  748MOL0     C  857   2.296   3.204  10.505 -0.7786  0.4369  0.0363
  748MOL0     C  858   2.425   3.198  10.411  1.1199 -0.2442 -0.2877
  748MOL0     C  859   2.529   3.090  10.454  0.5847 -0.6632  0.1517
  748MOL0     C  860   2.662   3.103  10.382  0.4521 -0.6839  0.7017
  748MOL0     C  861   2.786   3.033  10.441 -0.1170  0.0659  0.1473
  748MOL0     N  862   2.768   2.886  10.439  0.4909  0.2518  0.7284
  748MOL0     C  863   2.702   2.797  10.352 -0.5340 -0.0692 -0.5877
  748MOL0     C  864   2.758   2.673  10.382  1.4128 -0.6384 -0.2272
  748MOL0     C  865   2.723   2.536  10.326  0.0824 -0.4436 -0.0977
  748MOL0     C  866   2.578   2.540  10.262  0.2497  0.0494  0.0340
  748MOL0     C  867   2.546   2.402  10.205 -0.0744  0.1110  0.0901
  748MOL0     C  868   2.414   2.405  10.129  0.0160  0.5952  0.5533
  748MOL0     O  869   2.406   2.267  10.078  0.0993  1.0552  0.2042
  748MOL0     C  870   2.291   2.233  10.017 -0.1511 -0.4091 -0.5189
  748MOL0     C  871   2.162   2.260  10.071 -0.6673 -0.7298 -0.4283
  748MOL0     C  872   2.049   2.238   9.987  0.6344  0.4880 -0.9243
  748MOL0     C  873   1.892   2.255  10.022 -0.1264  0.9091  0.8275
  748MOL0     C  874   2.077   2.181   9.857 -0.5191 -0.5589  0.8857
  748MOL0     C  875   1.980   2.146   9.752 -0.1899 -0.9840  0.7099
  748MOL0     O  876   1.965   2.007   9.730 -0.2195  0.4390 -1.2284
  748MOL0     C  877   1.879   1.965   9.636  0.6797  0.8045  0.4632
  748MOL0     C  878   1.789   1.867   9.666 -0.8579  0.1988 -0.0417
  748MOL0     C  879   1.709   1.800   9.570 -0.0303 -0.1084 -0.1354
  748MOL0     C  880   1.714   1.841   9.447  0.2232 -0.0266  0.2353
  748MOL0     O  881   1.632   1.783   9.354  0.1821 -0.0184 -0.5227
  748MOL0     C  882   1.702   1.740   9.242  0.4177 -0.2282 -0.1882
  748MOL0     C  883   1.769   1.609   9.280 -0.3670  0.0076  1.6524
  748MOL0     C  884   1.669   1.497   9.261  0.4370 -0.6890 -0.3214
  748MOL0     C  885   1.598   1.471   9.399  0.5252  0.5062  0.3573
  748MOL0     C  886   1.527   1.334   9.406 -0.0174 -0.6930  0.4751
  748MOL0     C  887   1.440   1.312   9.527 -0.0091 -0.1574  0.3443
  748MOL0     C  888   1.420   1.158   9.559  0.2272 -0.6292  0.3334
  748MOL0     C  889   1.362   1.085   9.445 -0.4614 -0.1566  0.2379
  748MOL0    Cl  890   1.187   1.132   9.409 -0.1239  0.5659 -0.1068
  748MOL0     C  891   1.802   1.951   9.413  0.0601  0.2472  0.5479
  748MOL0     C  892   1.883   2.006   9.506  0.6880 -0.1703  0.7978
  748MOL0     O  893   1.914   2.234   9.697  0.7678 -0.6962  0.2409
  748MOL0     C  894   2.207   2.156   9.816 -0.1200 -0.6558  1.1817
  748MOL0     C  895   2.314   2.200   9.884 -0.1456  1.6755  1.3958
  748MOL0     N  896   2.864   2.688  10.473 -0.6240 -0.7767 -0.1545
  748MOL0     N  897   2.866   2.816  10.512  0.0186  1.3371 -0.1820
  748MOL0     C  898   2.139   3.538  10.921 -0.3392  0.6056  0.6011
  748MOL0     C  899   2.194   3.585  11.042  0.9957 -0.1068  0.8802
  748MOL0     C  900   2.268   3.704  11.448 -1.1592  0.3602  1.0524
  748MOL0     C  901   2.259   3.838  11.480  0.8871 -1.1109  0.0858
  748MOL0     C  902   2.340   3.890  11.578 -0.3297 -0.6117 -0.0059
  748MOL0     C  903   2.432   3.812  11.642 -0.4813 -0.9911 -0.2501
  748MOL0     O  904   2.517   3.861  11.743  0.8031 -0.2732 -0.1460
  748MOL0     C  905   2.445   3.893  11.870 -0.2163  0.0553 -0.9606
  748MOL0     C  906   2.520   3.962  11.978  1.2508  1.2518 -0.3921
  748MOL0     C  907   2.638   3.882  12.046  0.2489  0.0076  0.8890
  748MOL0     C  908   2.606   3.745  12.090  0.6697  0.7356  0.3900
  748MOL0     C  909   2.481   3.719  12.176 -0.6427  0.2640  0.3326
  748MOL0     C  910   2.390   3.686  12.251  0.3435  0.1937  0.1779
  748MOL0     C  911   2.454   3.682  11.605  0.4798  0.0291  0.4596
  748MOL0     C  912   2.367   3.631  11.509 -0.1103  0.3273  1.1555
  748MOL0     H  913   2.167   3.318  11.230 -1.1480 -0.2366 -0.4414
  748MOL0     H  914   2.093   3.214  11.006  3.7524 -0.2589 -0.9300
  748MOL0     H  915   2.032   3.493  10.635  0.3138  1.2234 -0.5811
  748MOL0     H  916   2.195   3.431  10.670 -0.4310  1.1456  1.3457
  748MOL0     H  917   2.036   3.209  10.588 -2.4308  1.2665  2.3551
  748MOL0     H  918   1.975   3.337  10.510 -1.0086 -2.2399 -1.3803
  748MOL0     H  919   2.145   3.269  10.354  0.0718  0.3207  0.0110
  748MOL0     H  920   2.210   3.411  10.435 -1.1729  0.3966  1.1140
  748MOL0     H  921   2.329   3.244  10.601 -1.9000  1.3837  0.0482
  748MOL0     H  922   2.253   3.104  10.519  0.0250 -0.1620 -1.5887
  748MOL0     H  923   2.389   3.179  10.310 -6.0182  0.0449  1.6652
  748MOL0     H  924   2.469   3.298  10.418 -1.1412  1.0900 -2.8628
  748MOL0     H  925   2.554   3.100  10.560 -0.3742  1.9754  0.2282
  748MOL0     H  926   2.496   2.988  10.433 -1.1688  0.1468 -1.4790
  748MOL0     H  927   2.655   3.073  10.277  0.4266 -1.1126  0.8224
  748MOL0     H  928   2.694   3.208  10.388 -1.0144 -0.0879 -0.9545
  748MOL0     H  929   2.794   3.056  10.547  0.2618 -0.1264  0.1619
  748MOL0     H  930   2.877   3.059  10.386 -0.2915  4.7593  1.7096
  748MOL0     H  931   2.631   2.806  10.270  0.4474 -1.6793 -1.6598
  748MOL0     H  932   2.784   2.530  10.235 -0.0284 -1.0241 -0.1389
  748MOL0     H  933   2.741   2.453  10.394  1.4697  0.4250  0.6438
  748MOL0     H  934   2.570   2.610  10.179 -0.8568 -0.8858 -0.6914
  748MOL0     H  935   2.506   2.561  10.342 -1.0154 -3.2646 -0.0622
  748MOL0     H  936   2.527   2.329  10.284  0.8172 -0.9644 -0.6503
  748MOL0     H  937   2.632   2.365  10.147 -1.3921 -2.9045 -0.1105
  748MOL0     H  938   2.409   2.479  10.048 -1.3278 -1.8688 -1.7910
  748MOL0     H  939   2.327   2.422  10.193 -0.4062 -2.3302  0.9045
  748MOL0     H  940   2.148   2.281  10.176 -1.3815  1.5992 -0.9209
  748MOL0     H  941   1.833   2.184   9.964  3.1943 -1.1829 -0.3120
  748MOL0     H  942   1.877   2.229  10.127  0.1825  1.1242  0.9262
  748MOL0     H  943   1.854   2.352   9.989  1.6374  0.1012 -4.6485
  748MOL0     H  944   1.783   1.834   9.769 -2.8087 -0.5924 -0.3705
  748MOL0     H  945   1.649   1.714   9.597  2.6306 -2.3611 -0.9114
  748MOL0     H  946   1.633   1.742   9.156 -1.3107  0.3671  1.1453
  748MOL0     H  947   1.774   1.807   9.194  1.9485 -3.4673 -2.8003
  748MOL0     H  948   1.844   1.581   9.206 -1.1666  0.8335  0.5010
  748MOL0     H  949   1.817   1.613   9.378  0.0772 -0.0606  1.4389
  748MOL0     H  950   1.728   1.410   9.230  0.4561 -0.2859 -1.4249
  748MOL0     H  951   1.602   1.526   9.180  0.2355  1.2477  0.4784
  748MOL0     H  952   1.662   1.481   9.486  0.9367 -1.0133  0.2565
  748MOL0     H  953   1.521   1.548   9.409  1.5990  1.4983  1.0746
  748MOL0     H  954   1.596   1.250   9.397 -1.1398 -1.5331 -0.7749
  748MOL0     H  955   1.461   1.332   9.319 -0.0125 -1.4106  0.4783
  748MOL0     H  956   1.487   1.364   9.611 -1.1824  0.4042  0.6727
  748MOL0     H  957   1.342   1.361   9.517  0.0380  0.0484  0.8552
  748MOL0     H  958   1.357   1.146   9.648  2.6333  1.8407  2.5567
  748MOL0     H  959   1.516   1.119   9.593 -0.5732 -0.7711  2.6253
  748MOL0     H  960   1.358   0.976   9.459  4.5777 -0.7258 -0.9830
  748MOL0     H  961   1.428   1.107   9.360  1.5083 -0.6030  1.5903
  748MOL0     H  962   1.805   1.995   9.314  1.6645  1.8010  1.2391
  748MOL0     H  963   1.952   2.087   9.485 -1.2698  1.8682  1.6628
  748MOL0     H  964   2.218   2.107   9.719  0.8934  2.0586 -0.1603
  748MOL0     H  965   2.419   2.187   9.859 -0.7779 -2.8142  0.3351
  748MOL0     H  966   2.121   3.607  10.840 -0.2949 -0.0829 -0.0024
  748MOL0     H  967   2.228   3.688  11.049  0.1551  0.1512  1.3482
  748MOL0     H  968   2.192   3.904  11.427  2.8054 -0.5182 -1.7251
  748MOL0     H  969   2.347   3.998  11.587  3.5172 -0.0988 -4.6147
  748MOL0     H  970   2.358   3.950  11.837 -2.8142 -3.6529 -1.1405
  748MOL0     H  971   2.419   3.795  11.910  0.1233  0.8207  1.2765
  748MOL0     H  972   2.465   4.000  12.065  3.3167 -0.4979  1.8368
  748MOL0     H  973   2.556   4.050  11.925  0.0750  1.2043 -1.3123
  748MOL0     H  974   2.678   3.944  12.127 -0.6590 -1.2546  2.3543
  748MOL0     H  975   2.720   3.870  11.975 -0.4620  0.3910 -0.0099
  748MOL0     H  976   2.693   3.705  12.143  0.7663 -1.4928 -1.2778
  748MOL0     H  977   2.590   3.677  12.006 -2.4722  0.1956  1.3176
  748MOL0     H  978   2.310   3.668  12.321 -3.5355  3.1752 -3.0335
  748MOL0     H  979   2.518   3.607  11.651  0.4324 -0.3587 -0.0972
  748MOL0     H  980   2.381   3.528  11.477  1.5260 -0.3593  3.7339
  749MOL0     O  981   9.239   8.298   4.615 -0.3180 -0.1371  0.7656
  749MOL0     C  982   9.214   8.265   4.726 -0.0569 -0.3702  0.4691
  749MOL0     O  983   9.256   8.328   4.834 -0.7297  0.1822 -0.2099
  749MOL0     C  984   9.336   8.441   4.823 -0.0347  0.6643 -0.2786
  749MOL0     C  985   9.461   8.446   4.895  0.6303  0.0543 -0.2427
  749MOL0     C  986   9.533   8.569   4.914  0.0052  0.2746  0.3774
  749MOL0     C  987   9.503   8.683   4.835 -0.7003  0.1954  0.2934
  749MOL0     O  988   9.577   8.799   4.822  0.1844 -0.0986 -0.2047
  749MOL0     C  989   9.715   8.787   4.846  0.1091  0.1902  0.1699
  749MOL0     C  990   9.777   8.924   4.841 -0.7229  0.5461  0.1609
  749MOL0     C  991   9.755   8.999   4.711  0.8595  0.2055  0.7117
  749MOL0     C  992   9.846   8.964   4.600  0.3807 -0.9100  0.1139
  749MOL0     C  993   9.793   9.027   4.454  0.4901 -0.2170  0.6413
  749MOL0     C  994   9.719   8.921   4.361 -0.5587 -0.0963 -0.1428
  749MOL0     C  995   9.659   8.974   4.226 -0.5463 -0.2948  0.3414
  749MOL0     C  996   9.735   9.095   4.164  0.2525 -0.1226  0.1956
  749MOL0     N  997   9.869   9.066   4.122 -0.0993 -0.4617 -0.4623
  749MOL0     C  998   9.918   8.940   4.089 -0.0609  0.3230  0.4721
  749MOL0     C  999  10.054   8.955   4.084 -0.5793 -0.1008 -0.4394
  749MOL0     C 1000  10.161   8.855   4.036 -0.5420  0.7389  0.3202
  749MOL0     C 1001  10.098   8.741   3.946  0.6769 -0.4920 -0.5095
  749MOL0     C 1002  10.064   8.604   4.016  0.0296  0.1244  0.3702
  749MOL0     C 1003  10.187   8.538   4.087 -0.3015 -0.1014  0.3457
  749MOL0     O 1004  10.301   8.534   3.983 -0.9412  0.1699  0.0427
  749MOL0     C 1005  10.330   8.410   3.929 -0.1466 -0.3797  0.1565
  749MOL0     C 1006  10.241   8.326   3.867  0.1512 -0.1777 -0.1357
  749MOL0     C 1007  10.279   8.193   3.826  0.6983  0.9086 -0.0704
  749MOL0     C 1008  10.172   8.106   3.776 -0.0514 -0.0004 -0.6832
  749MOL0     C 1009  10.414   8.145   3.849 -0.1266 -0.8979 -0.0304
  749MOL0     C 1010  10.458   8.004   3.836  0.4220  0.1244  0.0163
  749MOL0     O 1011  10.380   7.913   3.757 -0.5474 -0.5110  0.8884
  749MOL0     C 1012  10.422   7.780   3.750 -0.3333  0.5027 -0.4054
  749MOL0     C 1013  10.552   7.720   3.767  0.8544  1.5102  0.5966
  749MOL0     C 1014  10.585   7.591   3.713  0.5445  0.3880  0.9321
  749MOL0     C 1015  10.481   7.508   3.666  0.7029 -0.0291  0.5880
  749MOL0     O 1016  10.504   7.377   3.634  0.0794 -0.6441 -0.1128
  749MOL0     C 1017  10.407   7.271   3.602 -0.5380  0.6777  1.0661
  749MOL0     C 1018  10.496   7.156   3.541  0.6484  0.2252 -0.2331
  749MOL0     C 1019  10.419   7.036   3.487  0.8255  0.2323  0.2788
  749MOL0     C 1020  10.343   6.959   3.586  0.3865 -0.3469  0.6915
  749MOL0     C 1021  10.242   6.860   3.524 -0.3894  0.4867  0.7806
  749MOL0     C 1022  10.306   6.734   3.476 -0.4247 -0.5618 -0.3452
  749MOL0     C 1023  10.216   6.645   3.390  0.0086 -0.5514 -0.4835
  749MOL0     C 1024  10.285   6.524   3.323 -0.3832  0.0477 -0.2179
  749MOL0    Cl 1025  10.427   6.550   3.218 -0.1561 -0.3055  0.2545
  749MOL0     C 1026  10.354   7.566   3.649 -0.6393 -0.7680  0.3449
  749MOL0     C 1027  10.329   7.704   3.682 -0.5737  0.5633  0.3631
  749MOL0     O 1028  10.558   7.970   3.894 -0.1235  0.5658 -0.7099
  749MOL0     C 1029  10.502   8.235   3.910 -0.5789 -0.1503  0.2206
  749MOL0     C 1030  10.463   8.361   3.946  0.5646 -0.2676 -0.1950
  749MOL0     N 1031  10.070   9.089   4.114  0.0273 -0.4077  0.3243
  749MOL0     N 1032   9.968   9.159   4.136  0.2453  1.1947 -0.9108
  749MOL0     C 1033   9.390   8.665   4.760 -0.4085 -0.1240 -0.4429
  749MOL0     C 1034   9.302   8.560   4.757 -0.3037  0.8391 -0.3278
  749MOL0     C 1035   9.136   8.144   4.752 -0.7817 -0.1673  0.1758
  749MOL0     C 1036   9.080   8.127   4.875  0.0048  0.8654 -0.2464
  749MOL0     C 1037   9.019   8.007   4.897 -0.0645  0.8006 -0.6854
  749MOL0     C 1038   9.018   7.898   4.817  1.0102  0.4574  0.5920
  749MOL0     O 1039   8.948   7.780   4.835  0.4261  0.0328 -0.5453
  749MOL0     C 1040   8.823   7.765   4.912 -0.1026 -0.3033  0.0693
  749MOL0     C 1041   8.772   7.632   4.859  0.4343  0.1929 -1.4422
  749MOL0     C 1042   8.705   7.649   4.723 -0.4684  0.3175  0.5235
  749MOL0     C 1043   8.554   7.642   4.733  1.1711  1.1793 -0.8898
  749MOL0     C 1044   8.495   7.500   4.744  0.0308 -0.0784  0.6283
  749MOL0     C 1045   8.445   7.393   4.777  0.4957  0.1195 -0.2730
  749MOL0     C 1046   9.087   7.913   4.695  0.4647  0.3447 -0.2561
  749MOL0     C 1047   9.142   8.032   4.662  0.2697 -0.8532 -0.1008
  749MOL0     H 1048   9.496   8.363   4.955 -1.6145 -0.0705  0.9991
  749MOL0     H 1049   9.618   8.544   4.977 -2.2243 -3.2617  2.3769
  749MOL0     H 1050   9.746   8.739   4.939  2.8755  0.1181 -0.6918
  749MOL0     H 1051   9.761   8.731   4.764 -0.9789 -0.0853 -0.2640
  749MOL0     H 1052   9.741   8.982   4.926 -0.0536  2.4928 -0.7920
  749MOL0     H 1053   9.885   8.907   4.850 -1.1462 -1.5781  2.0028
  749MOL0     H 1054   9.657   8.972   4.671  0.3125  3.4427 -0.4977
  749MOL0     H 1055   9.749   9.107   4.730  1.3274  0.0774  1.6729
  749MOL0     H 1056   9.944   9.004   4.628 -0.7621  2.5904 -0.3462
  749MOL0     H 1057   9.846   8.855   4.594 -0.1377 -1.0007  1.3963
  749MOL0     H 1058   9.729   9.113   4.476  0.7275  0.3513 -0.8132
  749MOL0     H 1059   9.876   9.057   4.390 -0.4262 -1.2452 -1.0920
  749MOL0     H 1060   9.776   8.830   4.340  0.1959  0.2851  0.1849
  749MOL0     H 1061   9.631   8.886   4.416  0.4550 -0.8710  1.0450
  749MOL0     H 1062   9.655   8.899   4.147  1.0432  0.8172 -0.8734
  749MOL0     H 1063   9.560   9.010   4.255 -0.5270  1.4825 -1.6042
  749MOL0     H 1064   9.745   9.173   4.241 -0.5747  1.5868 -1.3516
  749MOL0     H 1065   9.667   9.135   4.088 -0.5578  0.4555  1.1817
  749MOL0     H 1066   9.857   8.854   4.068 -1.5249  1.4028  0.1405
  749MOL0     H 1067  10.242   8.906   3.982 -0.7197  2.5261  1.6722
  749MOL0     H 1068  10.196   8.826   4.135  0.5319  2.6709  0.5600
  749MOL0     H 1069  10.166   8.712   3.865  3.6975  0.9730  1.3556
  749MOL0     H 1070  10.003   8.786   3.916  1.6114  2.2745  0.3734
  749MOL0     H 1071  10.036   8.536   3.935  0.1026 -1.3926  1.5537
  749MOL0     H 1072   9.984   8.618   4.090 -1.7367  1.8890 -1.7640
  749MOL0     H 1073  10.167   8.435   4.119  1.5798 -0.3843  0.7449
  749MOL0     H 1074  10.229   8.594   4.171  3.5018 -0.3277 -1.2022
  749MOL0     H 1075  10.136   8.350   3.853  0.6453  1.5628 -1.0277
  749MOL0     H 1076  10.194   8.092   3.669 -1.3354 -3.6688 -0.6330
  749MOL0     H 1077  10.172   8.011   3.830 -3.6233  0.2838  0.0773
  749MOL0     H 1078  10.069   8.140   3.792  0.2077 -0.2296  1.7152
  749MOL0     H 1079  10.622   7.760   3.840  0.8046  2.7789 -0.0263
  749MOL0     H 1080  10.686   7.555   3.722  0.5387  0.2099  0.3334
  749MOL0     H 1081  10.359   7.240   3.696 -2.2508  2.1290  0.7304
  749MOL0     H 1082  10.333   7.303   3.529  0.1127 -0.4385 -0.1214
  749MOL0     H 1083  10.544   7.201   3.454 -0.9007  1.7769 -0.3361
  749MOL0     H 1084  10.559   7.123   3.624 -1.0006 -0.0039  0.9631
  749MOL0     H 1085  10.490   6.978   3.428 -0.1570 -1.5237  0.7513
  749MOL0     H 1086  10.341   7.068   3.418  2.7676  0.1960 -2.0641
  749MOL0     H 1087  10.415   6.905   3.649  1.5216 -0.8220 -0.9669
  749MOL0     H 1088  10.286   7.032   3.644 -0.5113 -0.6581  0.2211
  749MOL0     H 1089  10.184   6.899   3.440  0.2178 -3.1531 -1.5430
  749MOL0     H 1090  10.165   6.825   3.595 -1.7565 -0.5594 -1.1165
  749MOL0     H 1091  10.396   6.767   3.422 -1.6533  2.1257 -0.9275
  749MOL0     H 1092  10.339   6.680   3.566  1.5784 -3.1780 -2.4857
  749MOL0     H 1093  10.154   6.692   3.313 -0.7264  1.2236  1.1274
  749MOL0     H 1094  10.147   6.595   3.458  1.3587 -0.9573  0.6423
  749MOL0     H 1095  10.213   6.468   3.262 -0.2838 -0.1620 -0.1432
  749MOL0     H 1096  10.317   6.454   3.402  1.8839 -0.4902 -1.5358
  749MOL0     H 1097  10.275   7.509   3.602 -0.3474  0.2169 -1.4175
  749MOL0     H 1098  10.229   7.742   3.664 -1.9777 -1.5292  2.9860
  749MOL0     H 1099  10.598   8.199   3.944 -0.2551  2.2602  2.1252
  749MOL0     H 1100  10.519   8.425   4.014 -1.6108 -0.2611  1.6893
  749MOL0     H 1101   9.374   8.747   4.691  0.4720  0.0097 -0.4959
  749MOL0     H 1102   9.206   8.573   4.708 -1.1884 -0.9640  0.8223
  749MOL0     H 1103   9.072   8.199   4.955 -2.7114 -2.0872  2.4805
  749MOL0     H 1104   8.975   8.000   4.996 -0.4524  0.2446 -0.8911
  749MOL0     H 1105   8.841   7.756   5.020 -3.6199 -1.3342  0.6991
  749MOL0     H 1106   8.750   7.846   4.908  0.2394 -0.0449 -1.7432
  749MOL0     H 1107   8.694   7.591   4.924  0.8111 -1.2411 -1.8586
  749MOL0     H 1108   8.855   7.560   4.856 -0.8950 -2.2410  4.2814
  749MOL0     H 1109   8.748   7.574   4.656  4.2612  1.5013  1.8923
  749MOL0     H 1110   8.722   7.746   4.675  0.5606  0.4176  1.0691
  749MOL0     H 1111   8.497   7.695   4.656  0.0174  1.7332  0.2939
  749MOL0     H 1112   8.532   7.692   4.828  2.8018  0.8393 -0.3042
  749MOL0     H 1113   8.387   7.309   4.811  0.1979  0.7259  0.7528
  749MOL0     H 1114   9.107   7.827   4.632  1.3873  0.7654 -0.5453
  749MOL0     H 1115   9.171   8.048   4.559 -0.7782 -1.8506 -0.5859
  750MOL0     O 1116   4.817  10.539   6.940 -0.7152  0.0462 -0.1589
  750MOL0     C 1117   4.884  10.485   6.858 -0.7001 -0.4591 -0.5902
  750MOL0     O 1118   5.020  10.480   6.855 -0.2696 -0.3583 -0.2870
  750MOL0     C 1119   5.113  10.528   6.957  0.6621  0.0230 -0.4756
  750MOL0     C 1120   5.074  10.561   7.091  0.3314 -0.2817 -1.0807
  750MOL0     C 1121   5.149  10.619   7.183 -0.5152  0.3064 -0.7343
  750MOL0     C 1122   5.287  10.648   7.151 -0.5338  0.0974 -0.0783
  750MOL0     O 1123   5.361  10.697   7.258  0.0169  0.2230 -0.0147
  750MOL0     C 1124   5.510  10.711   7.244  0.3073  1.1441  0.1281
  750MOL0     C 1125   5.571  10.838   7.182  1.7256 -0.2164  0.5427
  750MOL0     C 1126   5.731  10.815   7.179  0.2846  0.1012  0.7738
  750MOL0     C 1127   5.784  10.948   7.138  0.0103 -1.1175  0.1537
  750MOL0     C 1128   5.923  10.931   7.073  0.0770  0.3655  0.6501
  750MOL0     C 1129   5.974  11.068   7.055  0.0611  0.7037 -0.5351
  750MOL0     C 1130   6.096  11.084   6.966 -0.6100 -0.3379  0.9588
  750MOL0     C 1131   6.097  10.998   6.835  0.5719  0.8513  0.2472
  750MOL0     N 1132   6.215  11.004   6.757  0.0489  0.5804 -0.5001
  750MOL0     C 1133   6.250  11.078   6.641 -0.7925  0.4232  0.3697
  750MOL0     C 1134   6.387  11.051   6.629 -0.6576 -1.1977  0.2955
  750MOL0     C 1135   6.475  11.098   6.511 -0.2082  0.6302 -0.5131
  750MOL0     C 1136   6.513  11.246   6.534 -0.0643 -0.3105 -0.0099
  750MOL0     C 1137   6.605  11.272   6.645  0.0337  0.4498 -0.0184
  750MOL0     C 1138   6.652  11.420   6.641 -0.3132 -0.0889  1.0122
  750MOL0     O 1139   6.748  11.438   6.533 -0.8293 -0.4816 -1.0756
  750MOL0     C 1140   6.887  11.408   6.535 -0.1427  0.4350  0.6398
  750MOL0     C 1141   6.946  11.365   6.654  0.2251  0.5054 -0.2194
  750MOL0     C 1142   7.078  11.320   6.661 -0.3815  0.0029  0.4379
  750MOL0     C 1143   7.118  11.281   6.800 -0.9511  1.0716  0.2426
  750MOL0     C 1144   7.153  11.313   6.539  0.3790  0.1298  0.3305
  750MOL0     C 1145   7.302  11.276   6.537 -0.5668 -0.2560  0.7266
  750MOL0     O 1146   7.359  11.255   6.407 -0.5463  0.4230 -0.2779
  750MOL0     C 1147   7.491  11.217   6.399  0.4093 -0.4347  0.2169
  750MOL0     C 1148   7.528  11.140   6.284 -0.0480 -0.2250  0.2876
  750MOL0     C 1149   7.663  11.124   6.252  1.1128 -0.1080  0.6637
  750MOL0     C 1150   7.760  11.186   6.339 -0.5399 -0.1342  0.2115
  750MOL0     O 1151   7.892  11.149   6.323  0.0714  0.2105  0.0061
  750MOL0     C 1152   7.954  11.238   6.225  0.0877  0.1716  0.3888
  750MOL0     C 1153   8.040  11.152   6.138 -0.8623  0.5872 -0.6289
  750MOL0     C 1154   8.163  11.107   6.224 -0.1959  0.3536  0.4770
  750MOL0     C 1155   8.244  10.995   6.158  0.0238 -0.3822 -0.5877
  750MOL0     C 1156   8.193  10.856   6.206 -0.0920  0.5464  0.0191
  750MOL0     C 1157   8.216  10.743   6.102  0.0192  0.3505 -1.0716
  750MOL0     C 1158   8.365  10.746   6.069  0.9097 -0.3885 -0.0095
  750MOL0     C 1159   8.393  10.657   5.950  0.2329 -0.5740  0.0188
  750MOL0    Cl 1160   8.376  10.483   6.007 -0.0445  0.2702 -0.4014
  750MOL0     C 1161   7.718  11.268   6.445 -0.6057 -0.3348  0.0662
  750MOL0     C 1162   7.585  11.271   6.483 -0.3029 -0.3743  0.6845
  750MOL0     O 1163   7.364  11.263   6.644 -0.0178  0.2688 -0.2696
  750MOL0     C 1164   7.090  11.351   6.420  0.5137 -0.5638 -0.3577
  750MOL0     C 1165   6.959  11.404   6.418  0.4963  0.2580  0.6598
  750MOL0     N 1166   6.423  10.977   6.732 -0.5708 -0.4186 -0.5332
  750MOL0     N 1167   6.330  10.944   6.802 -0.6703 -0.8949  0.8930
  750MOL0     C 1168   5.335  10.604   7.021  0.1653 -0.1699 -0.0361
  750MOL0     C 1169   5.244  10.563   6.920  0.7987  0.0945 -0.2166
  750MOL0     C 1170   4.827  10.431   6.739 -0.1164 -0.0683 -0.7333
  750MOL0     C 1171   4.699  10.384   6.749  0.9077 -0.8888 -0.0499
  750MOL0     C 1172   4.632  10.317   6.647 -0.1114  1.6115  0.1279
  750MOL0     C 1173   4.703  10.295   6.526 -0.3951 -0.4519  0.6305
  750MOL0     O 1174   4.640  10.223   6.424 -0.0994 -0.8537 -0.5559
  750MOL0     C 1175   4.701  10.236   6.290 -0.1832  0.0325 -0.8371
  750MOL0     C 1176   4.598  10.182   6.189  0.7836  1.1477  0.5174
  750MOL0     C 1177   4.593  10.023   6.187 -0.2231 -0.0017  0.2028
  750MOL0     C 1178   4.664   9.952   6.064 -0.4606 -0.2839  0.2603
  750MOL0     C 1179   4.805  10.005   6.069  0.5467 -0.0166  0.4363
  750MOL0     C 1180   4.920  10.026   6.073 -0.0721  0.4816 -0.0936
  750MOL0     C 1181   4.822  10.362   6.511 -0.2305  0.1053  0.0738
  750MOL0     C 1182   4.895  10.420   6.616  0.0699 -1.1736  0.9506
  750MOL0     H 1183   4.972  10.547   7.127  1.7847  1.0061  4.4537
  750MOL0     H 1184   5.121  10.639   7.286  0.1267 -1.8645 -0.0887
  750MOL0     H 1185   5.555  10.705   7.343  2.6764  1.6986 -0.8589
  750MOL0     H 1186   5.549  10.630   7.181  0.1204  1.6764 -0.6911
  750MOL0     H 1187   5.533  10.838   7.080 -1.2427  0.7098  1.5698
  750MOL0     H 1188   5.533  10.921   7.242 -1.9532 -3.2464  2.8330
  750MOL0     H 1189   5.789  10.776   7.263 -0.1895 -1.3560  0.4641
  750MOL0     H 1190   5.749  10.747   7.096 -0.4109  0.1890  0.5394
  750MOL0     H 1191   5.715  10.989   7.064 -0.2470 -0.7194  0.6068
  750MOL0     H 1192   5.781  11.012   7.227 -3.1897 -0.9341  0.0205
  750MOL0     H 1193   5.991  10.877   7.140  4.2777  2.5950 -1.4059
  750MOL0     H 1194   5.915  10.882   6.976 -1.4779 -1.4859  1.6415
  750MOL0     H 1195   5.887  11.124   7.019 -1.6787 -1.9386 -0.7919
  750MOL0     H 1196   6.007  11.106   7.151  3.2605 -0.4869 -1.0253
  750MOL0     H 1197   6.112  11.190   6.944 -2.2313 -0.1762  0.4426
  750MOL0     H 1198   6.170  11.033   7.029 -0.9954 -3.8648 -1.1833
  750MOL0     H 1199   6.010  11.023   6.773 -0.0235 -2.3016 -0.3621
  750MOL0     H 1200   6.099  10.893   6.866  0.0101  0.3459 -1.2994
  750MOL0     H 1201   6.184  11.126   6.569 -1.4419  0.7539  1.1519
  750MOL0     H 1202   6.562  11.034   6.496 -1.9641 -2.6801  1.9092
  750MOL0     H 1203   6.411  11.092   6.422 -0.6823  1.9034 -0.2808
  750MOL0     H 1204   6.423  11.307   6.543 -1.8884 -2.5161 -2.0199
  750MOL0     H 1205   6.557  11.280   6.439 -1.2839  0.9795 -0.1459
  750MOL0     H 1206   6.688  11.202   6.641 -1.5856 -1.4950 -2.8711
  750MOL0     H 1207   6.544  11.264   6.736  0.0919  0.2821  0.0051
  750MOL0     H 1208   6.707  11.452   6.731  1.4988  1.3242 -0.5251
  750MOL0     H 1209   6.572  11.494   6.640  2.1179  2.7136  1.5067
  750MOL0     H 1210   6.876  11.366   6.737 -0.2596  0.4102 -0.6198
  750MOL0     H 1211   7.026  11.280   6.860 -0.1913 -1.5237  1.4670
  750MOL0     H 1212   7.165  11.183   6.803  2.4758  2.3990 -2.6403
  750MOL0     H 1213   7.186  11.352   6.847  1.2873 -1.3533  0.8721
  750MOL0     H 1214   7.442  11.109   6.226 -0.3699  1.2389 -0.0403
  750MOL0     H 1215   7.696  11.079   6.159  0.9715  0.0574  0.5308
  750MOL0     H 1216   7.882  11.293   6.164  2.7375  1.5289 -1.7687
  750MOL0     H 1217   8.009  11.314   6.282 -1.1435  1.9307 -0.6861
  750MOL0     H 1218   7.979  11.066   6.108 -1.8155  1.2066 -0.5353
  750MOL0     H 1219   8.082  11.200   6.048  1.5596  2.6719  1.4496
  750MOL0     H 1220   8.151  11.088   6.331 -0.5057  0.7723  0.5213
  750MOL0     H 1221   8.222  11.199   6.224 -1.7271  1.4227 -1.1265
  750MOL0     H 1222   8.226  10.992   6.050 -4.4294 -0.3712 -0.0671
  750MOL0     H 1223   8.350  11.012   6.174 -0.0436 -0.3082 -0.2053
  750MOL0     H 1224   8.085  10.853   6.223 -0.9637  1.2662 -4.1935
  750MOL0     H 1225   8.236  10.826   6.302 -0.7482  0.0666  0.1673
  750MOL0     H 1226   8.189  10.643   6.136  1.7483  0.3236  0.3728
  750MOL0     H 1227   8.155  10.763   6.013 -0.3795  1.1940 -0.6237
  750MOL0     H 1228   8.422  10.717   6.158  1.1400 -0.0466 -0.0418
  750MOL0     H 1229   8.401  10.846   6.044 -0.2768 -0.5361 -2.6558
  750MOL0     H 1230   8.494  10.678   5.913  0.8325  0.9022  2.3091
  750MOL0     H 1231   8.314  10.668   5.876 -1.5749 -5.2064  0.8892
  750MOL0     H 1232   7.797  11.325   6.493 -0.6163  1.7306 -2.2179
  750MOL0     H 1233   7.556  11.346   6.555  2.3732  2.4245 -0.9112
  750MOL0     H 1234   7.140  11.333   6.326  0.9112  1.7162 -0.6426
  750MOL0     H 1235   6.895  11.419   6.332  1.3667  0.5648  0.0431
  750MOL0     H 1236   5.435  10.631   6.985  1.9102 -1.6553  3.3013
  750MOL0     H 1237   5.279  10.534   6.821  2.3434  1.1056 -0.0015
  750MOL0     H 1238   4.636  10.389   6.837  4.0658 -0.2406  2.3571
  750MOL0     H 1239   4.538  10.266   6.663  1.7188 -2.3535 -0.4691
  750MOL0     H 1240   4.722  10.340   6.265 -1.3395  0.7980  1.1479
  750MOL0     H 1241   4.794  10.180   6.275 -1.4610 -1.5969 -3.3589
  750MOL0     H 1242   4.631  10.223   6.093  2.0949 -0.7305  0.1138
  750MOL0     H 1243   4.503  10.222   6.224 -1.6846 -2.0129 -1.9278
  750MOL0     H 1244   4.486  10.001   6.186  0.1763 -2.4066  1.6266
  750MOL0     H 1245   4.639   9.979   6.276 -0.4691 -0.5963  0.0412
  750MOL0     H 1246   4.626   9.991   5.970  2.7537  0.8284 -0.7092
  750MOL0     H 1247   4.656   9.844   6.076 -0.5109 -0.5670 -1.9356
  750MOL0     H 1248   5.025  10.045   6.079  0.4366 -2.1612  0.8578
  750MOL0     H 1249   4.874  10.364   6.415 -1.5949 -4.3888 -1.0100
  750MOL0     H 1250   4.985  10.474   6.590 -2.3406  1.6552 -2.4354
  751MOL0     O 1251   3.383   5.899   7.900  0.1271 -0.0823 -0.3450
  751MOL0     C 1252   3.470   5.984   7.936  0.4101  0.4799  0.2976
  751MOL0     O 1253   3.564   6.038   7.855  0.1719  0.5313  0.8723
  751MOL0     C 1254   3.577   6.007   7.724  0.9766 -0.5776  0.9849
  751MOL0     C 1255   3.672   5.907   7.696 -0.6986  1.1510 -0.2209
  751MOL0     C 1256   3.711   5.876   7.564  0.0574  0.1227  0.9031
  751MOL0     C 1257   3.650   5.948   7.454  0.1982 -0.1300 -0.0481
  751MOL0     O 1258   3.696   5.916   7.328 -0.0053  0.9037 -0.1594
  751MOL0     C 1259   3.624   5.938   7.210 -0.7373 -0.3425  0.1444
  751MOL0     C 1260   3.633   5.821   7.120 -0.1428 -0.1021  0.3991
  751MOL0     C 1261   3.775   5.793   7.066  0.2692 -0.8871 -0.6118
  751MOL0     C 1262   3.781   5.771   6.916  0.7398  0.2839  0.3689
  751MOL0     C 1263   3.741   5.900   6.821  0.5015  0.4833 -0.7792
  751MOL0     C 1264   3.762   5.871   6.681  0.5851  0.2882  0.4766
  751MOL0     C 1265   3.661   5.942   6.590 -0.7097 -0.6224  1.4325
  751MOL0     C 1266   3.694   6.087   6.575  0.4347  0.1754 -0.8581
  751MOL0     N 1267   3.670   6.150   6.445 -0.7230  0.3760  0.2358
  751MOL0     C 1268   3.554   6.163   6.371  0.3114 -0.5299  0.6259
  751MOL0     C 1269   3.592   6.240   6.265 -0.4766  0.0772  0.1656
  751MOL0     C 1270   3.496   6.289   6.159 -0.3604  0.2760  0.9276
  751MOL0     C 1271   3.476   6.444   6.162 -0.0969 -1.1592 -0.3256
  751MOL0     C 1272   3.450   6.504   6.303  0.1179  0.8032  0.7236
  751MOL0     C 1273   3.454   6.660   6.303  0.4530 -0.1619 -0.1458
  751MOL0     O 1274   3.467   6.690   6.439  0.2735 -0.4580 -0.0748
  751MOL0     C 1275   3.432   6.819   6.484 -1.1171  0.1213 -0.1929
  751MOL0     C 1276   3.406   6.924   6.391 -2.2424 -0.1506  0.8233
  751MOL0     C 1277   3.353   7.047   6.439  0.2393 -0.1151  0.4638
  751MOL0     C 1278   3.358   7.162   6.344 -0.3997  0.2203 -0.2762
  751MOL0     C 1279   3.315   7.062   6.582 -1.1410 -0.2671 -0.3070
  751MOL0     C 1280   3.268   7.186   6.648  0.6561 -0.4126 -0.9793
  751MOL0     O 1281   3.165   7.179   6.745 -0.5630  1.0092 -0.1339
  751MOL0     C 1282   3.140   7.291   6.816 -0.5878  0.9445 -0.6341
  751MOL0     C 1283   3.029   7.365   6.796  0.8743 -1.1533 -0.4505
  751MOL0     C 1284   3.010   7.485   6.879  0.2220 -0.6478  0.7031
  751MOL0     C 1285   3.100   7.521   6.985  0.2694  0.1075  0.5127
  751MOL0     O 1286   3.072   7.619   7.079  0.7664  0.0429 -0.0395
  751MOL0     C 1287   2.991   7.729   7.031 -0.1799  0.9861  0.0613
  751MOL0     C 1288   2.939   7.802   7.155 -0.6875 -0.0332  0.4247
  751MOL0     C 1289   2.811   7.728   7.188 -0.1633  0.0183 -0.2634
  751MOL0     C 1290   2.751   7.801   7.308  0.3497  0.5186 -0.0027
  751MOL0     C 1291   2.619   7.728   7.350 -1.0710  0.0522 -0.3262
  751MOL0     C 1292   2.497   7.748   7.262 -0.8356  0.0081  0.5910
  751MOL0     C 1293   2.359   7.688   7.305 -0.2570  0.7632 -0.0494
  751MOL0     C 1294   2.247   7.716   7.197  0.2164 -0.3582  1.2087
  751MOL0    Cl 1295   2.287   7.608   7.074 -0.0638  0.1745  0.1880
  751MOL0     C 1296   3.220   7.446   6.991 -0.5957  0.0726 -0.4352
  751MOL0     C 1297   3.236   7.337   6.904  0.0524 -0.4568 -0.0669
  751MOL0     O 1298   3.327   7.289   6.622 -0.3620  0.0991  0.7779
  751MOL0     C 1299   3.326   6.937   6.659  0.4405  0.5534  0.0870
  751MOL0     C 1300   3.385   6.819   6.615 -0.3044 -0.4595 -0.0733
  751MOL0     N 1301   3.730   6.257   6.274  0.1033 -0.4925 -0.5501
  751MOL0     N 1302   3.770   6.211   6.382 -0.1618  1.2152 -0.3264
  751MOL0     C 1303   3.557   6.046   7.477  0.2980  0.5626 -0.7247
  751MOL0     C 1304   3.515   6.071   7.613 -0.5567 -0.2206  0.4208
  751MOL0     C 1305   3.482   6.024   8.091  0.4809  0.7522 -0.0447
  751MOL0     C 1306   3.396   5.970   8.186  0.4134 -0.2609  0.4836
  751MOL0     C 1307   3.411   5.991   8.321  0.0865  0.3521 -0.3336
  751MOL0     C 1308   3.502   6.083   8.372  0.8867 -0.0121 -0.4921
  751MOL0     O 1309   3.491   6.097   8.503  0.0013 -0.1521  0.8027
  751MOL0     C 1310   3.555   6.220   8.555  0.1246 -0.1767  0.1177
  751MOL0     C 1311   3.516   6.234   8.700 -0.3377 -0.5480 -0.2506
  751MOL0     C 1312   3.606   6.333   8.767  0.2006  0.0207  0.7367
  751MOL0     C 1313   3.544   6.383   8.902  0.3773  0.1296  0.1160
  751MOL0     C 1314   3.641   6.465   8.968 -0.0948 -0.0040 -0.4146
  751MOL0     C 1315   3.717   6.540   9.023  0.1787 -0.2270 -0.4489
  751MOL0     C 1316   3.587   6.132   8.280  0.8800  0.2921 -0.0299
  751MOL0     C 1317   3.585   6.104   8.146  0.6242 -1.1494  0.9604
  751MOL0     H 1318   3.728   5.854   7.772  1.5415  2.1372 -1.0872
  751MOL0     H 1319   3.779   5.792   7.554  1.1972  0.8052  2.5060
  751MOL0     H 1320   3.517   5.962   7.220 -0.2489  1.4377  1.4564
  751MOL0     H 1321   3.661   6.028   7.159  2.7884 -2.4713 -1.3740
  751MOL0     H 1322   3.612   5.729   7.176 -0.2329  1.4828  3.1409
  751MOL0     H 1323   3.562   5.833   7.038 -0.5009  0.6790  0.8162
  751MOL0     H 1324   3.839   5.880   7.081 -1.5001  0.0514  2.5546
  751MOL0     H 1325   3.822   5.715   7.127  0.8867  0.9703  1.4239
  751MOL0     H 1326   3.887   5.751   6.895  0.3086 -2.6164  0.4759
  751MOL0     H 1327   3.725   5.679   6.892 -0.2426  1.2707 -1.3426
  751MOL0     H 1328   3.638   5.923   6.850  0.6159 -0.5137  0.5109
  751MOL0     H 1329   3.799   5.989   6.848  0.2262 -0.2996  2.9922
  751MOL0     H 1330   3.865   5.899   6.660  0.7471  0.0983  0.9982
  751MOL0     H 1331   3.744   5.764   6.669 -1.7609  0.5090  1.4647
  751MOL0     H 1332   3.663   5.892   6.493 -0.2037 -2.1797  2.2237
  751MOL0     H 1333   3.559   5.935   6.630 -0.1533  0.2612  3.1156
  751MOL0     H 1334   3.800   6.101   6.599  0.2819 -2.2349  1.7728
  751MOL0     H 1335   3.630   6.144   6.644  0.2776 -1.4561  0.4180
  751MOL0     H 1336   3.453   6.144   6.405 -0.4875  1.2219 -0.5787
  751MOL0     H 1337   3.532   6.252   6.062  1.5974 -2.8728  2.6623
  751MOL0     H 1338   3.403   6.233   6.174  0.8792 -1.3211  3.3588
  751MOL0     H 1339   3.394   6.473   6.095 -1.4714 -0.3823  1.5816
  751MOL0     H 1340   3.572   6.489   6.136 -1.7988  2.0733 -1.6784
  751MOL0     H 1341   3.517   6.466   6.380 -2.7306 -2.7403  1.7379
  751MOL0     H 1342   3.344   6.485   6.323  0.0831  0.3802  0.1705
  751MOL0     H 1343   3.359   6.697   6.261  0.1527  1.4759  1.8338
  751MOL0     H 1344   3.544   6.688   6.247  0.6154  0.1564  0.2687
  751MOL0     H 1345   3.461   6.931   6.298  0.1939 -2.8202  1.9228
  751MOL0     H 1346   3.448   7.220   6.366  1.1557 -2.6246  1.4795
  751MOL0     H 1347   3.368   7.122   6.243 -0.5376  0.3834 -0.3560
  751MOL0     H 1348   3.270   7.225   6.360  0.3366  1.2833 -0.2941
  751MOL0     H 1349   2.957   7.354   6.716 -1.0130  3.0797  0.4115
  751MOL0     H 1350   2.930   7.547   6.840  0.4126 -0.1547  1.0877
  751MOL0     H 1351   3.063   7.784   6.970  2.4236 -2.9648 -0.7719
  751MOL0     H 1352   2.911   7.685   6.971  1.3236 -1.9684  0.0497
  751MOL0     H 1353   2.994   7.793   7.248 -2.2156 -4.7966  1.1195
  751MOL0     H 1354   2.926   7.910   7.140 -0.1932  0.1819  1.4492
  751MOL0     H 1355   2.830   7.621   7.203 -1.0595  0.0180  1.0282
  751MOL0     H 1356   2.734   7.722   7.111 -0.6679 -3.6131  0.3466
  751MOL0     H 1357   2.819   7.790   7.392  0.5218 -1.2019 -0.3483
  751MOL0     H 1358   2.736   7.909   7.299  0.4554  0.8875  3.1218
  751MOL0     H 1359   2.600   7.767   7.450  1.3740 -1.5503  0.8654
  751MOL0     H 1360   2.635   7.620   7.362 -1.3010 -0.0233 -0.6752
  751MOL0     H 1361   2.480   7.855   7.244  0.1894  0.3232  1.3886
  751MOL0     H 1362   2.518   7.699   7.166  3.0260 -1.1498  1.8194
  751MOL0     H 1363   2.337   7.728   7.404 -0.9543 -4.1932  2.0748
  751MOL0     H 1364   2.367   7.580   7.319 -0.6855  0.8675  1.1050
  751MOL0     H 1365   2.259   7.820   7.166 -1.1941 -0.9040 -1.3765
  751MOL0     H 1366   2.144   7.701   7.231 -0.2022 -0.7438 -0.1923
  751MOL0     H 1367   3.285   7.478   7.071 -1.2307 -3.5025  1.7269
  751MOL0     H 1368   3.320   7.274   6.931 -0.2318 -0.6606  0.3511
  751MOL0     H 1369   3.293   6.939   6.763 -1.9497 -0.5272 -0.5836
  751MOL0     H 1370   3.404   6.736   6.682  4.5161 -0.9353 -1.5834
  751MOL0     H 1371   3.520   6.116   7.403 -1.0961  0.7597  0.1321
  751MOL0     H 1372   3.441   6.149   7.625  0.8079  1.1272  0.4308
  751MOL0     H 1373   3.323   5.898   8.150 -0.4145  0.0573  1.4643
  751MOL0     H 1374   3.337   5.942   8.382  0.2919 -2.3359 -2.0789
  751MOL0     H 1375   3.662   6.199   8.561  0.1769  0.4565  2.0589
  751MOL0     H 1376   3.538   6.310   8.495 -0.3638 -1.4450 -1.7301
  751MOL0     H 1377   3.515   6.141   8.758 -5.7967 -1.3370 -1.0540
  751MOL0     H 1378   3.415   6.278   8.705  0.2153  1.1547 -2.3579
  751MOL0     H 1379   3.618   6.417   8.698 -1.1053  0.3609  0.8996
  751MOL0     H 1380   3.703   6.282   8.769  0.0261 -0.3773 -0.4037
  751MOL0     H 1381   3.525   6.298   8.968  0.7676 -0.5226 -0.6034
  751MOL0     H 1382   3.455   6.442   8.876  0.0429 -1.1926 -1.9268
  751MOL0     H 1383   3.776   6.617   9.067 -3.4972  2.3599  0.3887
  751MOL0     H 1384   3.655   6.213   8.306 -0.5804  0.9836  1.8177
  751MOL0     H 1385   3.650   6.160   8.080  1.3896 -0.7730  2.0080
  752MOL0     O 1386   6.408   6.570  10.826 -0.2051  0.3188  0.3586
  752MOL0     C 1387   6.425   6.451  10.809 -0.3352  0.8932  0.2842
  752MOL0     O 1388   6.339   6.354  10.862 -0.8412  1.1721 -0.3463
  752MOL0     C 1389   6.242   6.391  10.939 -0.4377 -0.5056  0.6648
  752MOL0     C 1390   6.119   6.331  10.907  0.3745  0.1962 -1.0545
  752MOL0     C 1391   6.004   6.364  10.991 -0.1465 -0.0135  0.3538
  752MOL0     C 1392   6.013   6.460  11.093 -1.2062 -1.1982 -1.4720
  752MOL0     O 1393   5.902   6.473  11.173  0.0913  0.0228 -0.1662
  752MOL0     C 1394   5.897   6.571  11.275  0.6595  0.4014  0.4326
  752MOL0     C 1395   5.779   6.538  11.362  0.6287 -0.7269  0.0475
  752MOL0     C 1396   5.647   6.549  11.290  0.1828 -0.3699  1.2649
  752MOL0     C 1397   5.536   6.534  11.387 -0.5334 -0.0478  0.2736
  752MOL0     C 1398   5.406   6.589  11.327 -0.2002 -0.3760 -0.3953
  752MOL0     C 1399   5.263   6.526  11.381 -0.2842 -0.9158  0.0815
  752MOL0     C 1400   5.143   6.578  11.306 -0.1636 -0.0367  0.3081
  752MOL0     C 1401   5.138   6.538  11.162  0.3296 -0.0058  1.0352
  752MOL0     N 1402   5.009   6.479  11.123 -0.2413 -0.0329  1.0005
  752MOL0     C 1403   4.950   6.496  11.005  0.3193 -0.2368  0.2251
  752MOL0     C 1404   4.850   6.407  10.997 -0.0411 -0.6139  0.4239
  752MOL0     C 1405   4.770   6.372  10.876  0.1338 -0.2556 -0.4184
  752MOL0     C 1406   4.641   6.437  10.885  0.1542 -0.5887 -1.0707
  752MOL0     C 1407   4.547   6.392  10.778 -0.1305  0.0807  0.0330
  752MOL0     C 1408   4.412   6.464  10.813 -0.0984  0.3520 -0.6718
  752MOL0     O 1409   4.413   6.597  10.777 -1.1006 -0.6206  0.9730
  752MOL0     C 1410   4.373   6.624  10.645 -0.2655  0.3961  0.2084
  752MOL0     C 1411   4.366   6.759  10.611 -0.2354 -0.2326  0.0164
  752MOL0     C 1412   4.329   6.812  10.485  0.2460  0.1669 -0.5361
  752MOL0     C 1413   4.308   6.959  10.488 -0.1290  0.1643 -0.1788
  752MOL0     C 1414   4.298   6.727  10.373 -0.2725 -0.0527 -0.4059
  752MOL0     C 1415   4.264   6.778  10.244  0.7367 -0.2023  0.0893
  752MOL0     O 1416   4.166   6.704  10.176 -0.2222  0.6757 -0.1694
  752MOL0     C 1417   4.187   6.718  10.045 -0.1808  0.2012  0.3763
  752MOL0     C 1418   4.201   6.601   9.971  0.3758  0.4457  0.1101
  752MOL0     C 1419   4.212   6.606   9.834 -0.7700 -0.4050 -0.5140
  752MOL0     C 1420   4.205   6.724   9.757 -0.0546  0.8031  0.2508
  752MOL0     O 1421   4.228   6.710   9.623  0.1190  0.4403  0.2744
  752MOL0     C 1422   4.231   6.827   9.532 -0.3671  0.2930 -0.5154
  752MOL0     C 1423   4.264   6.772   9.395 -0.6912 -0.2346 -0.0699
  752MOL0     C 1424   4.221   6.874   9.280  0.5891  0.1212  0.0151
  752MOL0     C 1425   4.293   6.841   9.153 -0.5328 -0.7994  0.0350
  752MOL0     C 1426   4.272   6.702   9.095  0.8262  0.1584 -0.0128
  752MOL0     C 1427   4.347   6.690   8.956 -0.0942 -0.0408 -0.2856
  752MOL0     C 1428   4.334   6.553   8.886  0.3201 -0.2296 -0.2669
  752MOL0     C 1429   4.427   6.528   8.759  0.4846 -0.4792 -0.4276
  752MOL0    Cl 1430   4.367   6.611   8.610  0.2542  0.2032  0.2403
  752MOL0     C 1431   4.198   6.840   9.830 -0.3762 -0.9150 -0.3633
  752MOL0     C 1432   4.173   6.837   9.972  0.4219 -0.7061 -0.0150
  752MOL0     O 1433   4.322   6.880  10.204  0.3061  0.4674  0.4763
  752MOL0     C 1434   4.293   6.590  10.405  0.6713 -0.4843 -0.6648
  752MOL0     C 1435   4.337   6.543  10.533 -0.1951 -0.2717  0.6306
  752MOL0     N 1436   4.849   6.336  11.116 -0.3289 -0.2097 -0.3033
  752MOL0     N 1437   4.951   6.379  11.187  0.4921  0.7195 -0.2090
  752MOL0     C 1438   6.138   6.522  11.116 -0.3624 -0.9301  0.6949
  752MOL0     C 1439   6.251   6.487  11.041  0.4464 -0.3482 -0.4847
  752MOL0     C 1440   6.544   6.407  10.732 -0.5813 -1.0960  0.3278
  752MOL0     C 1441   6.614   6.495  10.646 -0.7204 -0.1955 -0.1448
  752MOL0     C 1442   6.716   6.451  10.566 -0.3444  1.3116 -0.3224
  752MOL0     C 1443   6.735   6.313  10.553 -0.6305  0.0499 -0.3713
  752MOL0     O 1444   6.822   6.267  10.460  0.3085  0.4178  0.0827
  752MOL0     C 1445   6.873   6.346  10.352 -0.0346 -0.9210  0.4089
  752MOL0     C 1446   6.931   6.255  10.239  0.8048 -0.2605  0.2129
  752MOL0     C 1447   7.048   6.163  10.280  0.7045  0.7978 -0.5460
  752MOL0     C 1448   7.173   6.217  10.355 -0.4722  0.7787  0.9572
  752MOL0     C 1449   7.142   6.243  10.493 -0.2404 -0.1407 -0.0625
  752MOL0     C 1450   7.138   6.270  10.618  0.1605 -0.1080  0.3351
  752MOL0     C 1451   6.666   6.224  10.639  0.4887  0.1666  0.4838
  752MOL0     C 1452   6.580   6.275  10.733 -0.0434  0.5974 -0.0260
  752MOL0     H 1453   6.109   6.250  10.835 -1.3677  0.9036 -1.6597
  752MOL0     H 1454   5.916   6.305  10.971  0.4892 -0.1248 -2.5235
  752MOL0     H 1455   5.986   6.591  11.336 -0.0463  3.0024  0.7217
  752MOL0     H 1456   5.874   6.662  11.219  0.6384 -0.2048 -0.5762
  752MOL0     H 1457   5.783   6.446  11.422  1.3351  1.0950  3.0003
  752MOL0     H 1458   5.773   6.616  11.439 -1.8387 -1.0719  0.2939
  752MOL0     H 1459   5.631   6.635  11.225 -1.5884 -0.6829  1.2209
  752MOL0     H 1460   5.643   6.462  11.223 -0.2485  0.5400  0.0664
  752MOL0     H 1461   5.521   6.431  11.421 -0.6056  0.2610  1.2142
  752MOL0     H 1462   5.554   6.588  11.480  1.0513  2.0641 -1.1885
  752MOL0     H 1463   5.411   6.698  11.338 -0.6542 -0.5273  1.7994
  752MOL0     H 1464   5.399   6.560  11.222 -1.5253  0.3186 -0.5234
  752MOL0     H 1465   5.261   6.417  11.380 -1.9189 -0.9078 -1.3416
  752MOL0     H 1466   5.242   6.549  11.486 -1.7196 -2.4306  0.1612
  752MOL0     H 1467   5.064   6.530  11.363  0.9077 -0.4383  1.4979
  752MOL0     H 1468   5.123   6.686  11.311  0.0672  0.0895 -1.0962
  752MOL0     H 1469   5.217   6.468  11.135 -0.3818  0.1894 -1.8578
  752MOL0     H 1470   5.162   6.623  11.099  3.6320 -2.2744 -1.0597
  752MOL0     H 1471   4.979   6.551  10.915  2.6445 -2.4634 -0.5060
  752MOL0     H 1472   4.819   6.406  10.784  1.5194 -3.1571 -0.8701
  752MOL0     H 1473   4.768   6.264  10.860  1.0654 -0.1518 -1.3871
  752MOL0     H 1474   4.651   6.546  10.873 -1.1548 -0.1111  1.4226
  752MOL0     H 1475   4.610   6.411  10.987  2.1827  0.9414  0.0138
  752MOL0     H 1476   4.551   6.284  10.795  0.9591  0.3200  1.5471
  752MOL0     H 1477   4.595   6.422  10.685  1.1200  0.8776  0.8944
  752MOL0     H 1478   4.398   6.459  10.922  0.5283 -1.4519 -0.6446
  752MOL0     H 1479   4.326   6.418  10.764  0.6934 -0.3948 -1.3943
  752MOL0     H 1480   4.375   6.820  10.700 -0.0180 -1.6897  1.0416
  752MOL0     H 1481   4.229   6.992  10.422 -1.6443 -1.0977  0.9214
  752MOL0     H 1482   4.277   6.986  10.590 -0.6496 -2.8724  0.5592
  752MOL0     H 1483   4.401   7.009  10.458  1.4594 -1.6230  1.4102
  752MOL0     H 1484   4.201   6.509  10.027 -0.4445  0.5392  0.2881
  752MOL0     H 1485   4.216   6.511   9.780  1.5498  0.0700 -1.3264
  752MOL0     H 1486   4.133   6.876   9.533 -2.1855 -2.8719 -2.6203
  752MOL0     H 1487   4.306   6.897   9.569 -1.3891  2.6357 -2.5990
  752MOL0     H 1488   4.372   6.755   9.386 -0.3856  1.1958  0.5343
  752MOL0     H 1489   4.208   6.679   9.384 -0.8757 -0.1313 -0.0172
  752MOL0     H 1490   4.231   6.982   9.299  0.6493 -0.0318  0.9095
  752MOL0     H 1491   4.119   6.854   9.246  0.0220 -3.9989  3.3234
  752MOL0     H 1492   4.256   6.915   9.082 -2.1548 -0.6309  0.9986
  752MOL0     H 1493   4.396   6.871   9.172 -1.1288  0.8390  0.8116
  752MOL0     H 1494   4.166   6.686   9.076  1.4842 -2.1847 -2.2189
  752MOL0     H 1495   4.311   6.622   9.159 -1.2285 -0.6982  0.2401
  752MOL0     H 1496   4.304   6.772   8.898  0.1636  0.6697  0.5268
  752MOL0     H 1497   4.456   6.703   8.960 -0.2692  1.1662  0.8846
  752MOL0     H 1498   4.231   6.540   8.851  0.6431 -0.3935 -1.2025
  752MOL0     H 1499   4.364   6.483   8.965  1.3323  1.3582  0.8065
  752MOL0     H 1500   4.442   6.423   8.733 -2.7136 -1.5543  1.4591
  752MOL0     H 1501   4.530   6.561   8.777  0.6048 -1.4401  0.8063
  752MOL0     H 1502   4.209   6.929   9.769  0.8871 -2.3562 -2.3447
  752MOL0     H 1503   4.150   6.933  10.018 -2.5654 -1.9655  1.3551
  752MOL0     H 1504   4.260   6.521  10.329 -1.1067  1.7028 -1.9824
  752MOL0     H 1505   4.331   6.435  10.550 -0.0855 -0.6950 -1.7030
  752MOL0     H 1506   6.151   6.602  11.188  0.8119 -1.7038  1.3628
  752MOL0     H 1507   6.346   6.536  11.058  0.2132 -0.1406  0.2346
  752MOL0     H 1508   6.577   6.596  10.636 -3.3985 -1.1724 -0.8086
  752MOL0     H 1509   6.776   6.525  10.514  0.2065  0.2575 -1.2445
  752MOL0     H 1510   6.791   6.410  10.316  0.9093  1.3015  1.9593
  752MOL0     H 1511   6.960   6.408  10.374  0.3616 -0.3900 -2.3262
  752MOL0     H 1512   6.958   6.326  10.159 -0.1320  0.9826  0.9638
  752MOL0     H 1513   6.853   6.189  10.201 -1.2726  1.8961  0.4983
  752MOL0     H 1514   7.094   6.108  10.197  1.0783  2.9337 -1.8277
  752MOL0     H 1515   7.003   6.082  10.338  2.0446  0.3652 -0.0722
  752MOL0     H 1516   7.220   6.295  10.296 -0.7101 -1.9327 -3.2329
  752MOL0     H 1517   7.249   6.138  10.356 -0.7622  0.4492 -0.5627
  752MOL0     H 1518   7.126   6.298  10.720 -2.8614  0.9348 -0.1813
  752MOL0     H 1519   6.693   6.119  10.630 -3.0093 -0.6771 -2.9533
  752MOL0     H 1520   6.522   6.204  10.790  0.6695 -1.0518 -1.2555
  753MOL0     O 1521   4.432   9.061   1.421 -0.8469 -0.2185  0.2607
  753MOL0     C 1522   4.463   9.096   1.308  0.0477 -0.4346 -0.5441
  753MOL0     O 1523   4.540   9.209   1.272  0.4542  0.4789 -0.1484
  753MOL0     C 1524   4.604   9.280   1.380  0.0239 -0.4154 -0.0715
  753MOL0     C 1525   4.731   9.320   1.349 -0.0791  0.1639 -0.6392
  753MOL0     C 1526   4.808   9.389   1.436 -0.7633 -1.0062  0.0976
  753MOL0     C 1527   4.758   9.432   1.559  0.0393  0.2558  0.2829
  753MOL0     O 1528   4.837   9.510   1.645  0.2512 -1.1760 -0.9085
  753MOL0     C 1529   4.762   9.584   1.751  0.5770  0.3451  0.0582
  753MOL0     C 1530   4.856   9.697   1.781 -0.3742  0.2835  0.1122
  753MOL0     C 1531   4.813   9.760   1.918  0.2634 -0.7693  0.1738
  753MOL0     C 1532   4.901   9.875   1.970  0.0718  0.9227  0.0800
  753MOL0     C 1533   5.040   9.828   1.978 -0.7603  0.2427  0.2088
  753MOL0     C 1534   5.132   9.924   2.059 -0.0863 -0.3990  0.0869
  753MOL0     C 1535   5.138  10.064   2.014 -0.1039  0.5939  0.4044
  753MOL0     C 1536   5.189  10.165   2.117 -0.0402  1.0607  0.6311
  753MOL0     N 1537   5.315  10.124   2.186  0.7150  0.2990 -0.6428
  753MOL0     C 1538   5.321  10.078   2.313 -0.1371  0.7547 -0.1115
  753MOL0     C 1539   5.453  10.050   2.334 -0.2388 -0.9088  0.3639
  753MOL0     C 1540   5.506  10.001   2.478  0.9466 -0.2297  0.5407
  753MOL0     C 1541   5.540   9.849   2.484 -1.0290 -0.5153 -0.2263
  753MOL0     C 1542   5.459   9.774   2.375 -0.2192  0.2945 -0.0666
  753MOL0     C 1543   5.473   9.622   2.387  0.4181  0.5694  0.0245
  753MOL0     O 1544   5.612   9.573   2.394  0.4661  1.2809  0.8678
  753MOL0     C 1545   5.640   9.438   2.411 -1.3154  0.0426  0.5518
  753MOL0     C 1546   5.547   9.335   2.395 -0.0549  0.0438 -0.0680
  753MOL0     C 1547   5.590   9.203   2.416 -0.0351 -0.3235  0.0502
  753MOL0     C 1548   5.487   9.093   2.436  0.0968 -0.2078  0.7947
  753MOL0     C 1549   5.730   9.178   2.423 -0.0714  0.5668  0.0770
  753MOL0     C 1550   5.770   9.047   2.473 -0.3840  1.1631 -0.1274
  753MOL0     O 1551   5.714   8.931   2.417 -0.3008  0.2978 -0.0490
  753MOL0     C 1552   5.758   8.807   2.470  0.8752 -0.7694  1.0324
  753MOL0     C 1553   5.675   8.733   2.557 -0.2736  0.0042 -0.2879
  753MOL0     C 1554   5.704   8.604   2.599 -0.4183 -0.4178 -0.0481
  753MOL0     C 1555   5.828   8.554   2.557 -0.1210 -0.1538  0.3828
  753MOL0     O 1556   5.870   8.439   2.602  0.0577  0.6904  0.0821
  753MOL0     C 1557   5.793   8.361   2.688 -0.4857  0.7508 -1.0972
  753MOL0     C 1558   5.853   8.218   2.690  0.1973 -0.5129  0.7057
  753MOL0     C 1559   5.913   8.163   2.561  0.0414 -0.2973 -0.7073
  753MOL0     C 1560   6.018   8.037   2.579  0.4442  0.1644 -0.1410
  753MOL0     C 1561   6.073   7.988   2.439 -0.3295  0.7531  0.1162
  753MOL0     C 1562   6.120   8.102   2.343 -0.3701  0.2032  0.4347
  753MOL0     C 1563   6.227   8.196   2.386  0.9610 -0.1430 -0.0428
  753MOL0     C 1564   6.216   8.337   2.318  0.0315  0.2895  0.4458
  753MOL0    Cl 1565   6.237   8.323   2.139  0.0387 -0.2973  0.1895
  753MOL0     C 1566   5.903   8.625   2.465  1.0839  0.3588  0.0558
  753MOL0     C 1567   5.874   8.757   2.429  0.4016 -0.5944  1.2853
  753MOL0     O 1568   5.868   9.043   2.548 -0.0399 -0.0154  0.3975
  753MOL0     C 1569   5.822   9.284   2.440 -0.1524  0.2316  0.2922
  753MOL0     C 1570   5.776   9.408   2.437 -0.7537 -0.7783 -0.0558
  753MOL0     N 1571   5.520  10.084   2.221 -0.0639  0.1422  0.7504
  753MOL0     N 1572   5.434  10.114   2.127  0.6489  0.5441  0.2630
  753MOL0     C 1573   4.625   9.396   1.587 -0.3987  1.4248  0.5828
  753MOL0     C 1574   4.542   9.321   1.496 -0.4501 -0.0269  0.1452
  753MOL0     C 1575   4.434   9.015   1.188  0.3399 -0.8362 -0.3606
  753MOL0     C 1576   4.489   9.030   1.063 -0.9943 -0.0868 -0.3042
  753MOL0     C 1577   4.453   8.954   0.951 -0.0494  0.3688  0.9638
  753MOL0     C 1578   4.362   8.853   0.970 -0.3304 -0.2149 -0.6126
  753MOL0     O 1579   4.329   8.759   0.881 -0.2374 -1.0885  1.0761
  753MOL0     C 1580   4.376   8.779   0.747 -0.3646 -0.0669 -0.0513
  753MOL0     C 1581   4.311   8.667   0.674 -0.4169  0.1837 -0.2849
  753MOL0     C 1582   4.383   8.527   0.686  0.5747 -0.5168 -0.5768
  753MOL0     C 1583   4.323   8.419   0.592  0.0763 -0.7102 -0.4309
  753MOL0     C 1584   4.336   8.462   0.452 -0.0368  0.2741  0.5761
  753MOL0     C 1585   4.357   8.493   0.336 -0.3361 -0.8441 -1.4595
  753MOL0     C 1586   4.307   8.837   1.098  0.0930  0.4780 -0.2304
  753MOL0     C 1587   4.341   8.916   1.208 -0.2996  0.0838 -0.2945
  753MOL0     H 1588   4.762   9.294   1.249  1.6391 -0.1509 -0.0542
  753MOL0     H 1589   4.906   9.430   1.417 -0.0832 -0.4675  3.9951
  753MOL0     H 1590   4.670   9.626   1.708  2.1051  2.0918 -1.7544
  753MOL0     H 1591   4.744   9.530   1.844 -2.4763  0.3218 -0.4531
  753MOL0     H 1592   4.957   9.655   1.788  0.6228  1.3918 -4.3633
  753MOL0     H 1593   4.860   9.773   1.703  0.8749 -1.4052 -1.5799
  753MOL0     H 1594   4.711   9.798   1.903  0.3541 -0.1018  1.2231
  753MOL0     H 1595   4.827   9.686   1.997  0.2648 -2.4107 -1.2969
  753MOL0     H 1596   4.899   9.959   1.900  2.2971  0.4067 -0.6683
  753MOL0     H 1597   4.866   9.918   2.065  1.0942  1.1269  0.3789
  753MOL0     H 1598   5.044   9.729   2.024  0.3562 -1.4552 -3.2148
  753MOL0     H 1599   5.074   9.825   1.874 -0.7540  0.1459  0.2134
  753MOL0     H 1600   5.106   9.930   2.165 -1.4397 -0.3985 -0.2315
  753MOL0     H 1601   5.232   9.880   2.050 -0.0590 -0.0922 -1.4647
  753MOL0     H 1602   5.220  10.076   1.943  0.5122  1.6165  1.2509
  753MOL0     H 1603   5.045  10.102   1.972 -0.1955 -1.2725 -1.2104
  753MOL0     H 1604   5.102  10.179   2.181 -0.1017  1.5808  0.4402
  753MOL0     H 1605   5.218  10.259   2.068 -0.9135  1.6468  1.2241
  753MOL0     H 1606   5.245  10.066   2.390  0.8078 -1.8834  0.5098
  753MOL0     H 1607   5.586  10.066   2.512  0.9079  1.3107 -2.0747
  753MOL0     H 1608   5.419  10.005   2.545  0.4361 -1.4870 -0.0056
  753MOL0     H 1609   5.511   9.809   2.582 -0.7871  2.2018  1.0245
  753MOL0     H 1610   5.647   9.832   2.469  0.1013  0.7924  4.5460
  753MOL0     H 1611   5.510   9.800   2.282  0.6977  1.5169  0.7451
  753MOL0     H 1612   5.352   9.797   2.373 -0.6179 -0.5907  3.7343
  753MOL0     H 1613   5.427   9.586   2.295 -2.3493 -1.2684  1.9755
  753MOL0     H 1614   5.409   9.589   2.470 -0.7496  3.5567  0.4393
  753MOL0     H 1615   5.443   9.356   2.373 -0.0722 -2.2497 -2.9026
  753MOL0     H 1616   5.506   9.035   2.527  1.3878  1.0842  1.3916
  753MOL0     H 1617   5.387   9.136   2.446 -1.7988 -3.5602 -1.6201
  753MOL0     H 1618   5.477   9.030   2.347 -2.0869  2.2348 -0.8308
  753MOL0     H 1619   5.577   8.776   2.577  0.5406  2.0641 -0.4993
  753MOL0     H 1620   5.642   8.553   2.672  0.8785  1.8343  2.8143
  753MOL0     H 1621   5.807   8.411   2.785  0.7420  0.2508 -1.0062
  753MOL0     H 1622   5.686   8.362   2.668 -0.4033  3.1208 -1.7955
  753MOL0     H 1623   5.940   8.225   2.756 -0.2063  2.4391  1.0718
  753MOL0     H 1624   5.781   8.148   2.731 -0.9679  0.5571  0.5471
  753MOL0     H 1625   5.974   8.240   2.513 -0.3890 -2.4501 -5.2155
  753MOL0     H 1626   5.831   8.136   2.494 -1.0695  1.9591 -0.3659
  753MOL0     H 1627   6.107   8.072   2.634 -0.5943  0.6460  1.3002
  753MOL0     H 1628   5.971   7.951   2.627  0.0288 -0.0389 -0.9033
  753MOL0     H 1629   5.987   7.929   2.404  1.4162 -1.9446  0.1403
  753MOL0     H 1630   6.152   7.915   2.453  0.4582  1.7745  1.1655
  753MOL0     H 1631   6.161   8.059   2.251 -3.1395  2.1303 -1.8749
  753MOL0     H 1632   6.031   8.160   2.314  0.3012  2.0127  1.7766
  753MOL0     H 1633   6.328   8.165   2.358  1.3613  0.0490  1.1433
  753MOL0     H 1634   6.221   8.199   2.495 -3.0608  0.2255 -0.1182
  753MOL0     H 1635   6.298   8.406   2.342  3.7272 -1.6582 -4.7855
  753MOL0     H 1636   6.120   8.386   2.339  0.6223  1.2394  1.0253
  753MOL0     H 1637   5.993   8.577   2.428  0.8717 -1.1102  1.3463
  753MOL0     H 1638   5.940   8.799   2.353  0.4234 -2.2560  0.3167
  753MOL0     H 1639   5.927   9.276   2.469 -0.2093  2.2044  1.1718
  753MOL0     H 1640   5.846   9.490   2.455 -5.5946  3.7439  0.6734
  753MOL0     H 1641   4.582   9.436   1.678 -0.5565  2.6944 -0.0284
  753MOL0     H 1642   4.436   9.310   1.514 -0.2966  0.4810  1.4548
  753MOL0     H 1643   4.561   9.110   1.045 -2.5202  1.5842  0.6813
  753MOL0     H 1644   4.496   8.974   0.854 -2.6463 -2.2976 -0.9061
  753MOL0     H 1645   4.359   8.875   0.698 -0.1501  0.0040  0.0128
  753MOL0     H 1646   4.484   8.767   0.747 -0.1641  1.3800 -1.2668
  753MOL0     H 1647   4.310   8.684   0.566 -3.6992 -2.2405 -0.7862
  753MOL0     H 1648   4.206   8.658   0.704  0.0120  3.2021  2.7520
  753MOL0     H 1649   4.385   8.493   0.790  0.1898 -1.0103 -0.7198
  753MOL0     H 1650   4.489   8.538   0.664  0.8870 -1.5476  0.2991
  753MOL0     H 1651   4.221   8.390   0.621  0.0250 -2.8253 -2.4386
  753MOL0     H 1652   4.383   8.329   0.602 -0.2161 -0.7408  1.3745
  753MOL0     H 1653   4.389   8.509   0.235  2.7534 -0.5549 -0.5401
  753MOL0     H 1654   4.221   8.771   1.108 -0.5462  1.2358 -0.5829
  753MOL0     H 1655   4.302   8.903   1.309 -3.0738  1.4780 -1.0771
  754MOL0     O 1656   8.788   2.888   1.408  0.3496  0.5707  0.9245
  754MOL0     C 1657   8.859   2.795   1.378 -0.6514  0.6904 -0.7354
  754MOL0     O 1658   8.991   2.800   1.343 -0.3544 -0.2034 -0.2586
  754MOL0     C 1659   9.066   2.904   1.390  0.4063 -0.4858 -0.2888
  754MOL0     C 1660   9.112   3.006   1.305 -0.9164 -0.5837 -0.4048
  754MOL0     C 1661   9.181   3.124   1.356 -0.2384 -0.8200 -0.9580
  754MOL0     C 1662   9.201   3.143   1.491  0.5670  0.0166 -0.2611
  754MOL0     O 1663   9.271   3.255   1.523 -1.0999 -0.0183  0.0850
  754MOL0     C 1664   9.233   3.338   1.630  0.5359 -0.2695  0.2837
  754MOL0     C 1665   9.327   3.319   1.750  0.1179  0.5407  0.1126
  754MOL0     C 1666   9.290   3.427   1.859  0.0724  0.9613 -0.5279
  754MOL0     C 1667   9.312   3.364   2.002  0.1438  0.1343  0.1920
  754MOL0     C 1668   9.348   3.491   2.099 -0.2940 -0.0498 -0.0700
  754MOL0     C 1669   9.362   3.446   2.248 -0.6216  1.1169  0.1842
  754MOL0     C 1670   9.404   3.565   2.332  0.3180 -1.0194  1.1250
  754MOL0     C 1671   9.281   3.654   2.350  0.3290  0.1479  0.4218
  754MOL0     N 1672   9.297   3.780   2.413 -0.0426 -0.5014 -0.9731
  754MOL0     C 1673   9.359   3.894   2.381 -0.7908  0.3819 -0.5392
  754MOL0     C 1674   9.331   3.984   2.473  0.7896 -0.3561 -1.0894
  754MOL0     C 1675   9.373   4.126   2.482 -0.8225 -0.2197  0.0067
  754MOL0     C 1676   9.323   4.197   2.349 -0.4943 -0.3139 -0.9657
  754MOL0     C 1677   9.321   4.341   2.370 -1.0428 -0.6815  0.3615
  754MOL0     C 1678   9.469   4.396   2.389  0.4845 -0.5831  0.6122
  754MOL0     O 1679   9.476   4.542   2.393 -0.1268 -0.1807 -0.4283
  754MOL0     C 1680   9.596   4.594   2.416 -0.3562  1.5465 -0.6718
  754MOL0     C 1681   9.720   4.526   2.429 -0.5567  0.7813 -0.0954
  754MOL0     C 1682   9.836   4.596   2.460  0.2754  0.5062 -0.7936
  754MOL0     C 1683   9.963   4.517   2.477 -0.0994  0.4016 -0.1505
  754MOL0     C 1684   9.837   4.734   2.470  0.2987  0.3120  0.2218
  754MOL0     C 1685   9.954   4.819   2.481 -0.0926 -0.1343  0.1056
  754MOL0     O 1686  10.075   4.761   2.447  0.0607  0.2813  0.1010
  754MOL0     C 1687  10.191   4.834   2.460 -0.1691  0.1770  0.2344
  754MOL0     C 1688  10.239   4.911   2.350 -0.3508  0.1689  0.3858
  754MOL0     C 1689  10.356   4.991   2.350 -0.3841  0.4340  0.5368
  754MOL0     C 1690  10.428   4.995   2.469  1.1719 -0.5291 -0.2044
  754MOL0     O 1691  10.531   5.084   2.480 -0.2836 -0.0575  0.0188
  754MOL0     C 1692  10.539   5.211   2.402  0.0557  0.0431  0.6159
  754MOL0     C 1693  10.616   5.322   2.486 -0.6132  0.2054  0.1631
  754MOL0     C 1694  10.620   5.466   2.415 -0.6931  0.7303 -0.4186
  754MOL0     C 1695  10.734   5.488   2.323 -0.4553  0.2375 -0.0866
  754MOL0     C 1696  10.704   5.622   2.251 -0.0211  0.4275  0.6341
  754MOL0     C 1697  10.823   5.660   2.162 -0.3901  0.2961  0.3853
  754MOL0     C 1698  10.797   5.786   2.073 -0.1815  0.3447  0.8904
  754MOL0     C 1699  10.916   5.813   1.992 -0.5027  0.3793  0.0613
  754MOL0    Cl 1700  10.939   5.701   1.858 -0.3660 -0.4431  0.2281
  754MOL0     C 1701  10.398   4.903   2.576 -0.5393  0.1678  0.3254
  754MOL0     C 1702  10.272   4.834   2.574 -0.1434  0.0743 -0.3832
  754MOL0     O 1703   9.941   4.939   2.514  0.0525  0.3010  0.2525
  754MOL0     C 1704   9.708   4.801   2.456 -0.3605 -0.3036 -0.4023
  754MOL0     C 1705   9.592   4.729   2.442 -0.0796 -0.1907 -0.3285
  754MOL0     N 1706   9.250   3.929   2.568 -0.4087  0.1311 -0.0111
  754MOL0     N 1707   9.256   3.804   2.545 -0.3741  0.3384  0.0979
  754MOL0     C 1708   9.155   3.047   1.582 -0.5891 -0.8192 -0.6464
  754MOL0     C 1709   9.088   2.926   1.532 -0.2363 -0.3367 -0.0213
  754MOL0     C 1710   8.784   2.665   1.357 -0.6514 -0.3610  0.2793
  754MOL0     C 1711   8.858   2.544   1.328 -0.2583  0.6587  0.0155
  754MOL0     C 1712   8.789   2.422   1.287  0.6842  0.1975  0.3945
  754MOL0     C 1713   8.651   2.417   1.296  0.5075 -0.5539 -0.3311
  754MOL0     O 1714   8.587   2.300   1.272 -0.5050  0.3884  0.5565
  754MOL0     C 1715   8.545   2.226   1.384  1.2131 -0.7420  0.6032
  754MOL0     C 1716   8.654   2.123   1.416  0.5602  0.7260  0.2093
  754MOL0     C 1717   8.681   2.039   1.290 -0.1296  0.6445 -0.9211
  754MOL0     C 1718   8.805   1.946   1.326  1.2831  0.3394  0.4546
  754MOL0     C 1719   8.792   1.814   1.259  0.0370  0.6215  0.1301
  754MOL0     C 1720   8.773   1.707   1.209  0.3023 -0.1613 -0.0081
  754MOL0     C 1721   8.586   2.536   1.334 -0.0683  0.0981 -0.1438
  754MOL0     C 1722   8.643   2.657   1.356  0.2280  0.3245  0.3969
  754MOL0     H 1723   9.100   2.986   1.199 -2.9439 -3.2720  0.2195
  754MOL0     H 1724   9.217   3.202   1.290  1.1201 -1.8921 -1.5295
  754MOL0     H 1725   9.234   3.443   1.600 -0.1965 -0.5808 -0.8975
  754MOL0     H 1726   9.127   3.313   1.647  0.9160 -2.1156  0.2102
  754MOL0     H 1727   9.319   3.218   1.791 -1.3644  0.9649  0.9703
  754MOL0     H 1728   9.430   3.334   1.718  0.3644  0.8650  1.0090
  754MOL0     H 1729   9.362   3.509   1.857 -1.4454  2.3776  0.1536
  754MOL0     H 1730   9.186   3.460   1.865 -0.6670 -1.4242  1.8202
  754MOL0     H 1731   9.219   3.313   2.031 -0.0887  1.0943  1.2239
  754MOL0     H 1732   9.392   3.290   1.996 -2.8929 -3.3181 -1.6741
  754MOL0     H 1733   9.446   3.532   2.075  0.1817 -0.8662  0.4562
  754MOL0     H 1734   9.284   3.576   2.073 -1.4154 -0.9716 -0.4385
  754MOL0     H 1735   9.270   3.399   2.285  1.9283 -3.1145  1.8681
  754MOL0     H 1736   9.443   3.372   2.246  1.2187  3.0421 -0.9047
  754MOL0     H 1737   9.435   3.534   2.432  3.4047 -0.5905  0.3780
  754MOL0     H 1738   9.482   3.619   2.278 -0.6924  0.4791  1.0978
  754MOL0     H 1739   9.194   3.602   2.391 -1.0769  1.2606 -1.0075
  754MOL0     H 1740   9.262   3.685   2.247  3.0078 -2.4758 -1.0049
  754MOL0     H 1741   9.412   3.915   2.289  2.0761  1.1092  1.1548
  754MOL0     H 1742   9.320   4.171   2.566 -1.7023 -1.3482  0.0802
  754MOL0     H 1743   9.482   4.131   2.490 -0.4851  3.5202 -3.3544
  754MOL0     H 1744   9.226   4.152   2.324 -1.5220 -0.3657  2.5946
  754MOL0     H 1745   9.395   4.186   2.268 -0.1443  0.4486 -0.7700
  754MOL0     H 1746   9.251   4.366   2.450 -1.2226  0.7331 -0.2051
  754MOL0     H 1747   9.297   4.405   2.284  1.9337  0.5582  0.3065
  754MOL0     H 1748   9.518   4.361   2.298 -0.7879  4.9174 -2.5977
  754MOL0     H 1749   9.523   4.355   2.475  2.8457  2.6392  0.8283
  754MOL0     H 1750   9.725   4.419   2.413 -1.2371  0.5791  0.9041
  754MOL0     H 1751   9.926   4.416   2.500 -0.7128  0.4181 -0.9988
  754MOL0     H 1752  10.016   4.527   2.382 -0.3979 -0.5901 -0.4345
  754MOL0     H 1753  10.025   4.562   2.555  4.0221 -0.4929 -2.6178
  754MOL0     H 1754  10.187   4.908   2.255 -1.7175  0.2023  1.1056
  754MOL0     H 1755  10.386   5.043   2.259 -0.4150  0.6939  0.6756
  754MOL0     H 1756  10.587   5.194   2.305 -1.5090  0.0778 -0.1998
  754MOL0     H 1757  10.446   5.262   2.374 -2.2721 -4.3309 -0.5736
  754MOL0     H 1758  10.579   5.335   2.588  0.2885 -0.5617  0.5991
  754MOL0     H 1759  10.713   5.272   2.488 -1.3206 -1.2382  2.8715
  754MOL0     H 1760  10.630   5.531   2.502  1.6270  1.9713 -1.5047
  754MOL0     H 1761  10.521   5.474   2.369  0.4305 -0.2795 -3.3094
  754MOL0     H 1762  10.825   5.504   2.381 -1.3354  1.3026  1.0754
  754MOL0     H 1763  10.750   5.408   2.251  3.7962  0.0762  0.7657
  754MOL0     H 1764  10.696   5.708   2.318 -1.5739  1.3626 -0.6528
  754MOL0     H 1765  10.615   5.618   2.187  0.9480  1.2653 -0.8310
  754MOL0     H 1766  10.913   5.682   2.221 -1.1633 -0.5181  1.8991
  754MOL0     H 1767  10.845   5.573   2.100 -2.0954  0.8709 -1.1065
  754MOL0     H 1768  10.772   5.873   2.133 -2.9028 -0.7579  1.5038
  754MOL0     H 1769  10.709   5.771   2.008 -0.1157 -0.1188  0.8982
  754MOL0     H 1770  11.008   5.818   2.051  0.1393 -0.3776 -0.8440
  754MOL0     H 1771  10.894   5.909   1.945  2.8332  0.8378 -0.7573
  754MOL0     H 1772  10.454   4.894   2.668 -0.9450  1.1075  0.6741
  754MOL0     H 1773  10.231   4.780   2.659 -0.9036  1.4701  0.1802
  754MOL0     H 1774   9.688   4.906   2.471 -0.8656 -0.4607  0.0629
  754MOL0     H 1775   9.495   4.776   2.436 -1.7049 -3.2381  0.2977
  754MOL0     H 1776   9.163   3.056   1.690 -2.2793 -1.4125 -0.4346
  754MOL0     H 1777   9.040   2.863   1.606 -1.7502  0.4233 -0.3152
  754MOL0     H 1778   8.967   2.548   1.321 -0.2716  1.1293  0.0627
  754MOL0     H 1779   8.842   2.333   1.255  0.2444  0.3623 -0.8828
  754MOL0     H 1780   8.534   2.291   1.471 -1.9594 -1.9189  1.2206
  754MOL0     H 1781   8.446   2.190   1.356  1.2897 -0.5189  0.0388
  754MOL0     H 1782   8.607   2.069   1.499 -0.2386 -0.3365 -0.8861
  754MOL0     H 1783   8.744   2.179   1.440  1.0836 -0.6251  1.4993
  754MOL0     H 1784   8.706   2.091   1.198  2.5433  0.8594 -0.1674
  754MOL0     H 1785   8.591   1.979   1.276  0.2653 -0.6592  1.4209
  754MOL0     H 1786   8.810   1.931   1.435 -1.2246  0.9243  0.7158
  754MOL0     H 1787   8.889   2.008   1.291  0.0789  1.4073 -0.6590
  754MOL0     H 1788   8.768   1.615   1.155 -3.6234  0.6637 -1.3975
  754MOL0     H 1789   8.478   2.528   1.344 -0.1446 -0.9279 -1.4625
  754MOL0     H 1790   8.574   2.736   1.386 -3.4618 -2.5157  0.1642
  755MOL0     O 1791   7.247  10.335   3.156  0.0200  0.5697  0.3341
  755MOL0     C 1792   7.229  10.348   3.037  0.3666 -0.3906 -0.1139
  755MOL0     O 1793   7.285  10.444   2.959  0.9790 -0.9263  0.5326
  755MOL0     C 1794   7.370  10.532   3.022  0.3185 -0.4257 -0.5588
  755MOL0     C 1795   7.490  10.488   3.085 -0.3321  0.5254  0.5127
  755MOL0     C 1796   7.597  10.577   3.111 -0.4027 -0.3025  0.2480
  755MOL0     C 1797   7.581  10.715   3.076 -0.1378 -0.5488 -0.3264
  755MOL0     O 1798   7.677  10.809   3.118 -0.0625 -0.1106 -0.3171
  755MOL0     C 1799   7.796  10.767   3.185  1.0033 -0.0393  0.1832
  755MOL0     C 1800   7.893  10.886   3.208 -0.2861  0.1785 -0.4415
  755MOL0     C 1801   7.905  10.961   3.077 -0.0981  0.4470  1.1178
  755MOL0     C 1802   7.990  11.095   3.097 -1.0338  0.3759  0.7740
  755MOL0     C 1803   7.936  11.200   2.995 -0.1618  1.0664 -1.0315
  755MOL0     C 1804   8.024  11.326   2.989  0.1866 -0.0216  0.6685
  755MOL0     C 1805   7.942  11.440   2.928  0.3296 -0.2454 -0.0666
  755MOL0     C 1806   8.015  11.579   2.912 -0.4897 -0.3551 -0.0511
  755MOL0     N 1807   8.033  11.639   3.045 -0.2302  0.4666 -0.2510
  755MOL0     C 1808   8.139  11.616   3.126  0.4778 -0.7513 -0.6332
  755MOL0     C 1809   8.101  11.682   3.245 -0.0688  0.0385  0.0537
  755MOL0     C 1810   8.180  11.656   3.370 -0.2960 -0.2059 -0.0835
  755MOL0     C 1811   8.097  11.590   3.479 -0.0126  0.0625  0.6211
  755MOL0     C 1812   7.963  11.656   3.522 -0.1985  0.0977  1.1422
  755MOL0     C 1813   7.942  11.638   3.674  0.0867  0.2445  0.4858
  755MOL0     O 1814   7.939  11.496   3.682  0.5878  0.3724  0.6212
  755MOL0     C 1815   7.860  11.434   3.777 -0.0454 -0.3424  0.1969
  755MOL0     C 1816   7.853  11.286   3.766  0.4807  0.4718 -0.1214
  755MOL0     C 1817   7.758  11.216   3.842  0.5547 -1.1787  0.4699
  755MOL0     C 1818   7.721  11.067   3.800  0.1824 -0.2978  0.1952
  755MOL0     C 1819   7.686  11.287   3.940  0.6146  0.0258  0.0362
  755MOL0     C 1820   7.604  11.214   4.045  0.4869 -0.2281 -0.0787
  755MOL0     O 1821   7.505  11.288   4.104  0.1253  0.4263 -1.1284
  755MOL0     C 1822   7.450  11.237   4.227  0.4069 -0.4166 -0.3104
  755MOL0     C 1823   7.538  11.201   4.329  0.0330  0.0967 -0.7831
  755MOL0     C 1824   7.485  11.168   4.454 -0.2255  0.7607  0.0476
  755MOL0     C 1825   7.352  11.152   4.481  0.0662  0.4957 -0.1690
  755MOL0     O 1826   7.290  11.114   4.601 -0.3537 -0.5712 -0.0535
  755MOL0     C 1827   7.383  11.102   4.710  0.9647  0.9825  0.8844
  755MOL0     C 1828   7.303  11.052   4.839  0.3848 -0.5259  0.4241
  755MOL0     C 1829   7.385  11.057   4.964 -0.5679 -0.4832 -0.5263
  755MOL0     C 1830   7.310  11.088   5.091 -0.0460 -0.5764  0.2719
  755MOL0     C 1831   7.385  11.050   5.219  0.1335 -0.2847 -0.7479
  755MOL0     C 1832   7.515  11.123   5.246 -0.3387  0.1070 -0.0371
  755MOL0     C 1833   7.584  11.079   5.372  1.0072  0.0498  0.2546
  755MOL0     C 1834   7.669  10.949   5.361 -0.3094 -0.0899 -0.4117
  755MOL0    Cl 1835   7.820  10.988   5.292  0.2305 -0.0963  0.0179
  755MOL0     C 1836   7.268  11.174   4.367 -0.1704 -0.5344 -0.3089
  755MOL0     C 1837   7.309  11.226   4.240 -0.0125  0.8385 -0.2367
  755MOL0     O 1838   7.621  11.092   4.064  0.1985 -0.6760  0.6208
  755MOL0     C 1839   7.711  11.423   3.957  0.0694 -0.6391  0.8144
  755MOL0     C 1840   7.788  11.499   3.870  0.2239  0.1112  0.4419
  755MOL0     N 1841   7.984  11.763   3.220 -0.6435  0.6176  0.1808
  755MOL0     N 1842   7.943  11.733   3.096 -0.5604  0.4438  0.3984
  755MOL0     C 1843   7.457  10.761   3.028 -0.6570  0.4612 -0.9104
  755MOL0     C 1844   7.358  10.666   2.996 -0.6326 -0.2507  0.1753
  755MOL0     C 1845   7.156  10.245   2.971  0.6736 -0.4980  0.0777
  755MOL0     C 1846   7.116  10.263   2.835 -0.0883 -0.0386 -0.3251
  755MOL0     C 1847   7.014  10.180   2.793  0.4903  0.0414 -0.6521
  755MOL0     C 1848   6.973  10.067   2.861  0.1035  0.7461 -0.5492
  755MOL0     O 1849   6.893   9.973   2.803  0.1016  0.6290  0.0614
  755MOL0     C 1850   6.847   9.982   2.656 -0.1227 -0.0541  0.6052
  755MOL0     C 1851   6.775   9.855   2.610  0.0141 -0.8751 -0.0568
  755MOL0     C 1852   6.676   9.810   2.724  0.5181 -0.1819  0.0878
  755MOL0     C 1853   6.612   9.670   2.701 -0.3356 -0.1509 -0.8425
  755MOL0     C 1854   6.530   9.666   2.579  0.0551 -0.1160 -0.2130
  755MOL0     C 1855   6.466   9.639   2.477 -0.3280 -0.1086 -0.6548
  755MOL0     C 1856   7.015  10.039   2.988 -0.6094 -0.4217  0.6611
  755MOL0     C 1857   7.104  10.133   3.043 -0.8789  0.5510  0.5346
  755MOL0     H 1858   7.505  10.383   3.107 -1.3329  0.1491 -0.4712
  755MOL0     H 1859   7.681  10.540   3.169 -1.4024 -1.6250  0.8987
  755MOL0     H 1860   7.765  10.728   3.282 -2.2615 -0.5235 -0.9314
  755MOL0     H 1861   7.845  10.691   3.124  2.4574  0.7944  0.2764
  755MOL0     H 1862   7.858  10.959   3.282 -1.4489  0.2226 -1.0024
  755MOL0     H 1863   7.993  10.853   3.237  0.3280  2.0832 -0.2747
  755MOL0     H 1864   7.946  10.905   2.993  4.7025  1.4160  2.5063
  755MOL0     H 1865   7.804  10.992   3.048 -0.8446 -3.1673 -0.7640
  755MOL0     H 1866   7.988  11.143   3.195  1.0918  1.5484  0.3032
  755MOL0     H 1867   8.097  11.077   3.079 -0.5429 -1.4493  4.4482
  755MOL0     H 1868   7.925  11.157   2.895 -0.5700  0.8662 -0.9036
  755MOL0     H 1869   7.833  11.222   3.026 -1.4285 -3.4083 -1.3787
  755MOL0     H 1870   8.071  11.363   3.081  0.0199  3.0968 -0.3723
  755MOL0     H 1871   8.110  11.308   2.925 -1.0219  1.0991 -1.4044
  755MOL0     H 1872   7.897  11.403   2.835 -0.6838  0.5172  0.0981
  755MOL0     H 1873   7.857  11.443   2.998 -0.7443  0.9080 -1.3560
  755MOL0     H 1874   7.949  11.651   2.863 -2.1454 -0.0470  2.4793
  755MOL0     H 1875   8.110  11.569   2.857  0.1368 -0.5891  1.0495
  755MOL0     H 1876   8.221  11.546   3.116  0.5581 -0.6170 -0.9646
  755MOL0     H 1877   8.263  11.595   3.333  0.4329  2.1269 -2.6241
  755MOL0     H 1878   8.225  11.750   3.403  1.3005 -0.4574 -1.4486
  755MOL0     H 1879   8.156  11.577   3.570 -2.6745 -3.5492  2.1081
  755MOL0     H 1880   8.074  11.485   3.455 -2.4008  0.8220 -0.7884
  755MOL0     H 1881   7.884  11.604   3.467 -0.2006  1.1861  0.0654
  755MOL0     H 1882   7.957  11.764   3.503  0.8017  0.9134  4.7465
  755MOL0     H 1883   7.852  11.695   3.699  0.3390  1.1244 -0.5317
  755MOL0     H 1884   8.026  11.664   3.739  1.6879 -5.3746  1.2090
  755MOL0     H 1885   7.907  11.224   3.696 -0.6181 -0.4214 -0.2106
  755MOL0     H 1886   7.725  11.060   3.691 -1.0536 -0.9083  0.1723
  755MOL0     H 1887   7.795  10.997   3.840  1.2013  0.1699 -0.8278
  755MOL0     H 1888   7.618  11.044   3.828 -0.7604  1.0776 -1.8646
  755MOL0     H 1889   7.645  11.222   4.331 -0.4264  2.8391 -0.0594
  755MOL0     H 1890   7.559  11.164   4.533 -0.3633  3.9626  0.4624
  755MOL0     H 1891   7.468  11.034   4.696  0.6161  0.6895  0.1523
  755MOL0     H 1892   7.432  11.194   4.742  0.8382  1.5441 -0.4662
  755MOL0     H 1893   7.213  11.113   4.849 -1.8593 -3.9921  5.4730
  755MOL0     H 1894   7.271  10.954   4.804 -1.6277  0.5050 -0.8037
  755MOL0     H 1895   7.468  11.127   4.947 -1.5070  0.6237 -0.6992
  755MOL0     H 1896   7.422  10.956   4.981 -1.8752 -0.9001 -0.0353
  755MOL0     H 1897   7.273  11.190   5.083 -1.2144 -1.0746 -1.3769
  755MOL0     H 1898   7.220  11.026   5.081  0.4444 -0.9841 -2.3375
  755MOL0     H 1899   7.413  10.944   5.217  5.7065  0.8622 -0.1265
  755MOL0     H 1900   7.322  11.071   5.306  0.2829 -2.3925 -0.0792
  755MOL0     H 1901   7.581  11.118   5.160 -0.0960  1.1621  0.0782
  755MOL0     H 1902   7.505  11.232   5.248  2.7848  0.5478 -1.9265
  755MOL0     H 1903   7.509  11.061   5.449  0.4502  1.7409  0.1451
  755MOL0     H 1904   7.641  11.164   5.411  0.4547  0.4694  0.1627
  755MOL0     H 1905   7.604  10.879   5.307 -3.2117  1.9201  0.2015
  755MOL0     H 1906   7.689  10.904   5.459 -1.6277 -0.1041 -0.1215
  755MOL0     H 1907   7.160  11.172   4.372 -0.4446  4.1973 -0.6565
  755MOL0     H 1908   7.235  11.250   4.164  0.2540  0.0647 -0.7571
  755MOL0     H 1909   7.653  11.482   4.028  0.8626  1.5277 -0.2564
  755MOL0     H 1910   7.787  11.604   3.898 -0.1728  0.9007 -2.2757
  755MOL0     H 1911   7.435  10.866   3.011 -0.8760  0.2622 -1.9148
  755MOL0     H 1912   7.269  10.700   2.942 -0.4989  1.6661  1.0614
  755MOL0     H 1913   7.164  10.342   2.778  3.8419 -3.0650 -1.6876
  755MOL0     H 1914   6.972  10.198   2.695  0.0763 -1.3839 -0.7566
  755MOL0     H 1915   6.783  10.071   2.652 -2.7874 -1.9033 -2.0248
  755MOL0     H 1916   6.932   9.995   2.589 -0.4498  0.9384  0.3665
  755MOL0     H 1917   6.858   9.790   2.583  2.2808  2.0467 -0.6492
  755MOL0     H 1918   6.720   9.893   2.523  1.9470 -1.2506 -1.5171
  755MOL0     H 1919   6.592   9.880   2.721  1.8845  1.6059  1.5847
  755MOL0     H 1920   6.722   9.817   2.823  0.0998 -0.4930  0.3101
  755MOL0     H 1921   6.558   9.649   2.794 -0.0614  3.1701  0.1928
  755MOL0     H 1922   6.689   9.592   2.698 -0.5245 -0.6256  2.6193
  755MOL0     H 1923   6.408   9.615   2.390  0.0479 -1.6463 -0.5150
  755MOL0     H 1924   6.984   9.945   3.033 -0.0521 -0.6720  0.5257
  755MOL0     H 1925   7.144  10.118   3.143 -1.3480  1.4939  0.8759
  756MOL0     O 1926   5.355   2.676   2.274  0.2274  0.3206 -0.3966
  756MOL0     C 1927   5.271   2.649   2.189  0.2151 -0.4971 -0.5765
  756MOL0     O 1928   5.156   2.574   2.209  0.3289 -0.5200  0.0852
  756MOL0     C 1929   5.162   2.463   2.290  0.5921  0.3191 -1.1405
  756MOL0     C 1930   5.254   2.365   2.257 -1.0919  0.8217  0.3296
  756MOL0     C 1931   5.257   2.243   2.331  0.6986 -0.2540  0.1884
  756MOL0     C 1932   5.161   2.209   2.431  0.1161 -0.0331  0.6339
  756MOL0     O 1933   5.177   2.085   2.480  1.0803  0.1098 -0.0780
  756MOL0     C 1934   5.078   2.056   2.582  0.2250 -0.4995 -0.2928
  756MOL0     C 1935   5.119   1.917   2.634 -0.1577  0.3600 -0.0829
  756MOL0     C 1936   5.017   1.806   2.654  0.0083 -0.3739  0.8778
  756MOL0     C 1937   5.069   1.689   2.743  0.5012 -0.2720 -0.3423
  756MOL0     C 1938   4.971   1.566   2.764 -0.5685  0.3607 -0.3823
  756MOL0     C 1939   4.889   1.530   2.635  0.1112 -0.3681 -0.1095
  756MOL0     C 1940   4.811   1.399   2.640 -0.4590 -0.3792 -0.4697
  756MOL0     C 1941   4.897   1.277   2.640  0.0865 -0.3525 -0.9838
  756MOL0     N 1942   4.818   1.149   2.653  0.1582  0.2761 -0.6988
  756MOL0     C 1943   4.739   1.120   2.759  0.0396 -0.1813  0.1555
  756MOL0     C 1944   4.672   1.009   2.717 -1.1596 -0.2489 -0.1336
  756MOL0     C 1945   4.590   0.930   2.807  0.1044  0.4235 -0.1678
  756MOL0     C 1946   4.447   0.934   2.774  1.0854 -0.4292 -0.4785
  756MOL0     C 1947   4.370   1.044   2.844  0.3436 -0.6087 -0.0582
  756MOL0     C 1948   4.380   1.176   2.763 -0.5344  0.1670  1.2870
  756MOL0     O 1949   4.254   1.238   2.745 -0.0590  0.9796 -0.2118
  756MOL0     C 1950   4.256   1.369   2.712  0.8792  0.3901 -0.1748
  756MOL0     C 1951   4.362   1.441   2.676 -0.5191 -0.7300 -0.0046
  756MOL0     C 1952   4.367   1.582   2.658 -0.7935  0.2191  1.5585
  756MOL0     C 1953   4.481   1.643   2.593  0.3012 -0.6031  0.0001
  756MOL0     C 1954   4.251   1.656   2.671 -0.8437  0.1681  0.5896
  756MOL0     C 1955   4.242   1.793   2.618 -0.2640  1.1075 -1.0553
  756MOL0     O 1956   4.121   1.827   2.564 -0.4744 -0.3609 -0.1587
  756MOL0     C 1957   4.106   1.957   2.519  0.2093  0.3440  0.2286
  756MOL0     C 1958   3.994   2.026   2.561  0.5556 -0.7377  0.1959
  756MOL0     C 1959   3.961   2.158   2.512 -0.3152  0.2886 -0.0366
  756MOL0     C 1960   4.037   2.209   2.404  0.1806 -0.2157 -0.1293
  756MOL0     O 1961   4.006   2.325   2.335 -0.1724 -0.3476 -0.1847
  756MOL0     C 1962   3.888   2.403   2.379  0.4615  0.5559 -0.1091
  756MOL0     C 1963   3.764   2.322   2.320 -0.2928 -0.1443 -0.0309
  756MOL0     C 1964   3.633   2.405   2.328  0.5198 -0.5116  0.5613
  756MOL0     C 1965   3.539   2.378   2.209 -0.1682 -0.1134 -1.2118
  756MOL0     C 1966   3.417   2.465   2.230 -0.3668 -0.9468  0.6188
  756MOL0     C 1967   3.307   2.389   2.297 -0.8413  0.0812 -1.0071
  756MOL0     C 1968   3.191   2.489   2.324 -0.2875 -0.7793  0.4005
  756MOL0     C 1969   3.230   2.622   2.409 -0.4476  0.6869  1.4148
  756MOL0    Cl 1970   3.337   2.566   2.545 -0.1165 -0.3595 -0.2439
  756MOL0     C 1971   4.142   2.134   2.347 -0.4125  0.5113  0.3809
  756MOL0     C 1972   4.182   2.012   2.406  0.3576 -0.7222 -0.5486
  756MOL0     O 1973   4.331   1.874   2.644  0.4244  0.2687 -0.0506
  756MOL0     C 1974   4.134   1.588   2.704 -0.4483 -0.3560  0.0812
  756MOL0     C 1975   4.138   1.450   2.731  0.5360 -0.5049  0.2470
  756MOL0     N 1976   4.705   0.975   2.592  0.0536 -0.4854 -0.1020
  756MOL0     N 1977   4.793   1.064   2.549  0.5406 -0.4729  0.6115
  756MOL0     C 1978   5.076   2.314   2.471  0.0323 -0.2389 -1.1850
  756MOL0     C 1979   5.068   2.436   2.391  0.2433  0.0724  0.0243
  756MOL0     C 1980   5.257   2.725   2.058  0.6429 -0.1204  0.0213
  756MOL0     C 1981   5.151   2.701   1.974  0.6031 -0.2386 -0.8208
  756MOL0     C 1982   5.140   2.774   1.856 -0.3508 -0.3775 -0.3147
  756MOL0     C 1983   5.243   2.868   1.814  0.3910  0.8270  1.0762
  756MOL0     O 1984   5.228   2.928   1.689 -0.9637 -0.6376 -0.3301
  756MOL0     C 1985   5.337   3.008   1.641  0.7335 -0.5799 -0.0343
  756MOL0     C 1986   5.325   3.153   1.693  1.2349 -0.1027 -0.2102
  756MOL0     C 1987   5.203   3.238   1.640  0.1496  1.1679 -0.4357
  756MOL0     C 1988   5.210   3.378   1.689 -0.3698 -0.8959 -0.0766
  756MOL0     C 1989   5.088   3.446   1.640  0.3881 -0.7610  0.5193
  756MOL0     C 1990   4.986   3.515   1.627  0.1625  0.2644 -0.7352
  756MOL0     C 1991   5.352   2.884   1.896  0.6753 -0.2178 -1.1470
  756MOL0     C 1992   5.360   2.815   2.022  0.1284  0.0817  0.0231
  756MOL0     H 1993   5.319   2.353   2.171 -1.0132 -2.7994  0.7329
  756MOL0     H 1994   5.324   2.166   2.296  1.6637 -2.0190  5.0427
  756MOL0     H 1995   5.094   2.119   2.670  0.4622 -2.0473  0.8138
  756MOL0     H 1996   4.974   2.046   2.551 -0.1474  1.0558  0.3559
  756MOL0     H 1997   5.201   1.874   2.576  1.1976  0.4866  1.6496
  756MOL0     H 1998   5.168   1.946   2.727  2.8820 -0.6798 -1.2307
  756MOL0     H 1999   4.933   1.852   2.706 -0.2430  0.1728  0.0084
  756MOL0     H 2000   4.988   1.766   2.556  0.4357  3.4675 -0.9785
  756MOL0     H 2001   5.150   1.633   2.695  0.7452 -2.8655  2.6994
  756MOL0     H 2002   5.116   1.719   2.837  1.1940 -3.5088  0.4992
  756MOL0     H 2003   5.033   1.481   2.795 -1.0835 -0.9090 -2.5937
  756MOL0     H 2004   4.890   1.591   2.833 -1.6046  0.5848 -1.6371
  756MOL0     H 2005   4.809   1.600   2.609 -1.5913 -2.7888 -1.8756
  756MOL0     H 2006   4.966   1.523   2.557  1.6768 -3.2659  1.4899
  756MOL0     H 2007   4.756   1.388   2.733 -2.5361  0.6703 -1.5036
  756MOL0     H 2008   4.741   1.388   2.556 -0.4525 -1.3436 -0.3603
  756MOL0     H 2009   4.965   1.293   2.724  2.0986 -1.0037 -2.4034
  756MOL0     H 2010   4.953   1.275   2.546  2.4805 -0.0373  0.3520
  756MOL0     H 2011   4.749   1.175   2.853 -2.7382  1.5192 -0.4286
  756MOL0     H 2012   4.620   0.825   2.796  1.2592  1.0078 -4.2505
  756MOL0     H 2013   4.600   0.964   2.910  0.4729 -0.3657  0.0696
  756MOL0     H 2014   4.395   0.846   2.812 -1.5535  2.0941  2.3444
  756MOL0     H 2015   4.429   0.943   2.666  0.2845 -0.3283 -0.3399
  756MOL0     H 2016   4.408   1.062   2.944  2.3932 -0.1114 -0.8824
  756MOL0     H 2017   4.266   1.011   2.851  0.8308 -2.0178  0.9324
  756MOL0     H 2018   4.432   1.160   2.669  1.8997  1.7702  2.2674
  756MOL0     H 2019   4.446   1.247   2.813  1.1159 -1.8326  2.1016
  756MOL0     H 2020   4.458   1.396   2.651  0.6604  0.8608  1.3953
  756MOL0     H 2021   4.565   1.573   2.592  1.5885  0.8843 -0.9701
  756MOL0     H 2022   4.473   1.688   2.493  3.7318 -0.2681 -0.2696
  756MOL0     H 2023   4.520   1.724   2.656  0.2634 -0.3962 -0.2401
  756MOL0     H 2024   3.933   1.976   2.635 -0.4281  0.5673  0.3177
  756MOL0     H 2025   3.884   2.215   2.562 -1.2650 -0.8849 -0.1518
  756MOL0     H 2026   3.880   2.413   2.488 -1.6885  0.8607 -0.2348
  756MOL0     H 2027   3.883   2.502   2.332 -0.9568 -0.3276 -1.9762
  756MOL0     H 2028   3.796   2.299   2.218  0.6283 -2.5012  0.7221
  756MOL0     H 2029   3.746   2.232   2.380  1.1070 -0.2690  0.2417
  756MOL0     H 2030   3.657   2.512   2.333 -2.5575  0.2335  1.7413
  756MOL0     H 2031   3.585   2.383   2.424  0.6641  1.7731  1.2233
  756MOL0     H 2032   3.597   2.416   2.124  0.6435 -0.0162 -0.6254
  756MOL0     H 2033   3.519   2.271   2.198 -2.6650  0.0904  0.5598
  756MOL0     H 2034   3.397   2.497   2.128  2.2218  1.9555  0.8967
  756MOL0     H 2035   3.433   2.555   2.290 -1.3751 -0.2300 -0.1411
  756MOL0     H 2036   3.281   2.299   2.239  0.0239 -0.2156 -0.9613
  756MOL0     H 2037   3.330   2.349   2.396 -1.0467 -1.1247 -1.4288
  756MOL0     H 2038   3.119   2.435   2.385 -1.5435 -2.5362 -2.4206
  756MOL0     H 2039   3.143   2.511   2.228  1.7044  1.9785 -0.0943
  756MOL0     H 2040   3.143   2.669   2.454 -1.7186 -1.3128  1.1969
  756MOL0     H 2041   3.281   2.689   2.339 -0.8609  1.6810  2.0462
  756MOL0     H 2042   4.184   2.177   2.257  1.0654 -1.7278 -0.0815
  756MOL0     H 2043   4.269   1.957   2.373  1.1463 -0.8546  1.5584
  756MOL0     H 2044   4.040   1.641   2.718 -0.5524 -0.9693  2.0593
  756MOL0     H 2045   4.045   1.398   2.753 -0.2679  0.4846 -0.7086
  756MOL0     H 2046   5.011   2.307   2.557  0.8639  0.1924 -0.5085
  756MOL0     H 2047   4.989   2.508   2.408 -0.7427 -0.7516 -0.8869
  756MOL0     H 2048   5.072   2.630   1.996  0.8646 -1.1360 -2.6279
  756MOL0     H 2049   5.053   2.777   1.792 -0.3256  1.6356 -0.3158
  756MOL0     H 2050   5.442   2.979   1.648  0.7921 -0.0206  1.8032
  756MOL0     H 2051   5.315   3.025   1.535  1.1144 -0.2734 -0.0651
  756MOL0     H 2052   5.412   3.199   1.646  0.8648 -1.1435 -1.9855
  756MOL0     H 2053   5.331   3.156   1.802  2.1925 -3.0988 -0.1191
  756MOL0     H 2054   5.106   3.199   1.673 -1.0711  3.3489 -1.2741
  756MOL0     H 2055   5.191   3.223   1.532 -1.4105 -2.0798  0.0547
  756MOL0     H 2056   5.297   3.431   1.647 -0.8773  1.4286  1.6545
  756MOL0     H 2057   5.214   3.369   1.798 -1.8334 -2.7842 -0.1382
  756MOL0     H 2058   4.896   3.573   1.618 -0.4922 -0.4872  0.5957
  756MOL0     H 2059   5.434   2.953   1.879  0.5491  0.7813  1.8018
  756MOL0     H 2060   5.446   2.829   2.087 -0.5956 -0.9189  1.2286
  757MOL0     O 2061   8.815   0.615  11.363  0.1220  0.1307 -0.3251
  757MOL0     C 2062   8.823   0.647  11.248 -0.9609  0.3703  0.5104
  757MOL0     O 2063   8.802   0.769  11.198  0.9967  0.3003 -0.3160
  757MOL0     C 2064   8.741   0.865  11.275  0.7413  0.1787 -0.1939
  757MOL0     C 2065   8.602   0.883  11.266  0.3993 -0.8255 -0.8322
  757MOL0     C 2066   8.535   0.970  11.359  0.5447 -0.4748 -0.2228
  757MOL0     C 2067   8.609   1.056  11.440  0.3542 -0.3640 -0.5808
  757MOL0     O 2068   8.547   1.144  11.522 -0.7054  0.2242  0.8376
  757MOL0     C 2069   8.624   1.246  11.588 -0.0460  0.2323  0.6767
  757MOL0     C 2070   8.540   1.356  11.652 -0.0036 -0.2316  0.4672
  757MOL0     C 2071   8.514   1.472  11.549  0.9232 -0.2180 -1.1580
  757MOL0     C 2072   8.370   1.528  11.566 -0.5013  0.0346 -1.6219
  757MOL0     C 2073   8.324   1.620  11.453 -0.0736 -0.2869  0.1453
  757MOL0     C 2074   8.418   1.735  11.429 -0.1985 -0.4080 -0.1705
  757MOL0     C 2075   8.458   1.809  11.561 -0.4602 -0.0601  0.1207
  757MOL0     C 2076   8.548   1.939  11.539  0.4260 -0.4920  0.0871
  757MOL0     N 2077   8.471   2.052  11.490 -0.5922 -0.5653  0.5764
  757MOL0     C 2078   8.505   2.185  11.515 -0.6930 -0.1847 -0.4454
  757MOL0     C 2079   8.418   2.254  11.440 -0.5057 -0.1034  0.0388
  757MOL0     C 2080   8.406   2.401  11.436 -0.3231  0.4115 -0.4069
  757MOL0     C 2081   8.503   2.464  11.337 -0.1999 -0.0508 -0.4455
  757MOL0     C 2082   8.492   2.416  11.187 -0.6917  0.3532  0.0525
  757MOL0     C 2083   8.604   2.488  11.110 -0.5436 -0.2755 -0.5152
  757MOL0     O 2084   8.743   2.439  11.136 -0.6108 -0.0871 -0.6915
  757MOL0     C 2085   8.780   2.337  11.049 -0.0156  0.4506  0.7601
  757MOL0     C 2086   8.920   2.330  11.037  0.5224 -0.7886 -0.8145
  757MOL0     C 2087   8.992   2.246  10.962 -0.0813 -0.0889  0.4532
  757MOL0     C 2088   9.140   2.240  10.996 -0.4828  0.1054 -0.6507
  757MOL0     C 2089   8.928   2.177  10.859 -0.5118  0.0729 -0.1607
  757MOL0     C 2090   8.989   2.100  10.755 -1.2056 -0.3144 -0.4275
  757MOL0     O 2091   9.114   2.044  10.787 -0.6131  0.4380  0.2360
  757MOL0     C 2092   9.174   1.981  10.684  0.0611 -0.4532 -0.4994
  757MOL0     C 2093   9.250   1.867  10.728  0.3249 -1.3609 -0.3121
  757MOL0     C 2094   9.328   1.801  10.636 -0.7649 -0.2208 -0.3837
  757MOL0     C 2095   9.341   1.836  10.501 -1.0624 -0.6851  0.3367
  757MOL0     O 2096   9.410   1.769  10.403 -0.5127  0.0654  0.4746
  757MOL0     C 2097   9.475   1.649  10.443  0.2947 -0.9010  0.9305
  757MOL0     C 2098   9.556   1.591  10.321 -0.4921  0.7454  0.4045
  757MOL0     C 2099   9.568   1.436  10.336 -0.1273  0.7938 -0.0342
  757MOL0     C 2100   9.614   1.366  10.203  0.0446  0.2192  0.3436
  757MOL0     C 2101   9.735   1.426  10.137 -0.1557  0.3941 -0.0769
  757MOL0     C 2102   9.855   1.379  10.214  0.5897  0.5173 -0.8638
  757MOL0     C 2103   9.981   1.447  10.156 -0.1670 -0.2070 -0.1073
  757MOL0     C 2104  10.045   1.552  10.246 -0.9678  0.2369  0.1418
  757MOL0    Cl 2105   9.919   1.680  10.268 -0.1495  0.3586  0.1661
  757MOL0     C 2106   9.257   1.938  10.457 -0.4006 -0.1197  0.0298
  757MOL0     C 2107   9.186   2.015  10.543 -0.2947  0.1152 -0.0908
  757MOL0     O 2108   8.927   2.059  10.661 -0.1026 -0.1886  0.7786
  757MOL0     C 2109   8.788   2.196  10.851  0.0433 -0.3274 -0.1633
  757MOL0     C 2110   8.710   2.270  10.948 -0.3157  1.0206 -1.1794
  757MOL0     N 2111   8.355   2.170  11.350  0.0200  0.2059 -0.3443
  757MOL0     N 2112   8.387   2.048  11.381  0.6163  0.8481  0.7884
  757MOL0     C 2113   8.749   1.036  11.447  1.1144  1.0663  0.0998
  757MOL0     C 2114   8.818   0.947  11.366  0.2135 -0.6385 -0.7334
  757MOL0     C 2115   8.853   0.543  11.143  0.1787 -0.2607  0.0207
  757MOL0     C 2116   8.880   0.580  11.007  0.2574  0.3908 -0.6777
  757MOL0     C 2117   8.908   0.470  10.911  0.9759 -0.6756 -0.4020
  757MOL0     C 2118   8.890   0.341  10.945 -0.5203 -0.0958  0.6643
  757MOL0     O 2119   8.914   0.252  10.845 -0.0682  0.0697 -0.5140
  757MOL0     C 2120   8.889   0.115  10.871 -0.1566  0.7605 -0.7013
  757MOL0     C 2121   8.884   0.060  10.722  0.0412 -0.5855 -1.3692
  757MOL0     C 2122   8.768   0.126  10.642  0.3165 -0.1605 -0.0150
  757MOL0     C 2123   8.669   0.027  10.586  0.4441  0.7085 -0.0869
  757MOL0     C 2124   8.733  -0.058  10.485  0.1926 -0.6331 -0.4934
  757MOL0     C 2125   8.768  -0.138  10.405  0.5954  0.4473 -0.0116
  757MOL0     C 2126   8.863   0.312  11.079  0.6057 -0.4705 -0.9000
  757MOL0     C 2127   8.861   0.407  11.185 -0.9071 -0.0110  0.7083
  757MOL0     H 2128   8.550   0.816  11.198 -0.2836  1.3287 -2.5189
  757MOL0     H 2129   8.428   0.984  11.370  0.3773  0.6122 -2.5214
  757MOL0     H 2130   8.691   1.201  11.661 -0.0711 -0.5251  0.2479
  757MOL0     H 2131   8.680   1.290  11.505 -2.3567  2.3268  0.0999
  757MOL0     H 2132   8.450   1.324  11.705 -0.3463  1.5970  1.0450
  757MOL0     H 2133   8.609   1.407  11.720 -0.2085 -0.5971  0.9505
  757MOL0     H 2134   8.591   1.549  11.559  0.9812 -0.2383 -1.4231
  757MOL0     H 2135   8.534   1.441  11.445  0.9498  0.1354 -1.2597
  757MOL0     H 2136   8.296   1.448  11.576 -0.9315  0.5484 -0.5872
  757MOL0     H 2137   8.377   1.575  11.665 -0.6378 -3.8889  0.4586
  757MOL0     H 2138   8.304   1.569  11.359 -2.2638 -1.0704  0.9566
  757MOL0     H 2139   8.233   1.668  11.492  1.8348  2.3725  1.6066
  757MOL0     H 2140   8.507   1.699  11.375  1.7581  1.2366  1.7313
  757MOL0     H 2141   8.371   1.807  11.362 -3.2874 -2.6928 -0.6909
  757MOL0     H 2142   8.373   1.829  11.626 -0.2107 -0.2348  0.5038
  757MOL0     H 2143   8.525   1.743  11.616 -1.2487  1.4100  3.0362
  757MOL0     H 2144   8.623   1.922  11.462 -0.8195  1.2988 -1.6050
  757MOL0     H 2145   8.599   1.983  11.625  0.3899 -2.6170  1.2758
  757MOL0     H 2146   8.574   2.234  11.583 -0.7096  4.0466 -3.1476
  757MOL0     H 2147   8.306   2.408  11.391  0.4857  0.6836 -2.2098
  757MOL0     H 2148   8.420   2.445  11.535  0.6110  1.8937 -1.1610
  757MOL0     H 2149   8.603   2.452  11.379 -1.2533 -2.5545  1.5993
  757MOL0     H 2150   8.479   2.571  11.330  0.9148  0.5354  2.8475
  757MOL0     H 2151   8.391   2.438  11.151 -2.1521 -0.3628  3.2850
  757MOL0     H 2152   8.510   2.309  11.177  0.2268  0.6409 -1.6534
  757MOL0     H 2153   8.610   2.592  11.143  2.2783 -0.5622  0.1912
  757MOL0     H 2154   8.578   2.486  11.004 -2.1159  1.2102 -0.2065
  757MOL0     H 2155   8.975   2.378  11.118 -2.7201 -2.3825  2.6206
  757MOL0     H 2156   9.166   2.310  11.076  1.0123 -0.1975 -0.8409
  757MOL0     H 2157   9.178   2.146  11.037  1.5907  1.2188  0.1255
  757MOL0     H 2158   9.208   2.276  10.918  1.1922 -2.0904 -0.3051
  757MOL0     H 2159   9.246   1.844  10.834 -3.2528  0.2007  0.0440
  757MOL0     H 2160   9.395   1.721  10.667 -0.7726 -1.2610 -2.8586
  757MOL0     H 2161   9.550   1.672  10.519  1.8503 -2.4463 -0.0663
  757MOL0     H 2162   9.402   1.575  10.476 -1.5988  0.5316  0.1163
  757MOL0     H 2163   9.507   1.606  10.224  0.5666  1.1492 -0.0849
  757MOL0     H 2164   9.657   1.632  10.311 -0.2563 -0.4060 -3.6939
  757MOL0     H 2165   9.476   1.385  10.365  2.1404 -6.2731 -2.9546
  757MOL0     H 2166   9.651   1.416  10.404  1.7834 -0.6214 -2.5753
  757MOL0     H 2167   9.620   1.258  10.218  2.6298  0.5816  2.9361
  757MOL0     H 2168   9.527   1.369  10.138 -0.3008  1.2543  0.8432
  757MOL0     H 2169   9.725   1.535  10.141  1.2359  0.4931  1.7531
  757MOL0     H 2170   9.738   1.389  10.033  0.4372 -0.6635  0.3007
  757MOL0     H 2171   9.836   1.418  10.314 -0.8370  0.9612 -1.2863
  757MOL0     H 2172   9.868   1.271  10.212 -0.7060  0.3038  0.7161
  757MOL0     H 2173   9.961   1.494  10.059 -0.2488 -3.0515 -1.5995
  757MOL0     H 2174  10.051   1.368  10.127 -2.2161 -2.3024  0.3161
  757MOL0     H 2175  10.141   1.585  10.205 -0.1715 -2.5460 -0.4142
  757MOL0     H 2176  10.062   1.499  10.340  3.8297  2.0094  0.5483
  757MOL0     H 2177   9.272   1.965  10.353  0.2570 -1.2239 -0.1791
  757MOL0     H 2178   9.117   2.087  10.501 -0.7788 -1.1131 -1.4817
  757MOL0     H 2179   8.741   2.152  10.763 -0.3860  3.6009 -2.1540
  757MOL0     H 2180   8.602   2.274  10.958 -0.2178 -1.0314  1.6103
  757MOL0     H 2181   8.803   1.100  11.516  2.0584 -1.7128  2.0922
  757MOL0     H 2182   8.926   0.939  11.374  0.1397 -0.1388  1.7294
  757MOL0     H 2183   8.894   0.683  10.974  1.3119  0.6635  0.5203
  757MOL0     H 2184   8.944   0.493  10.811 -0.0420 -0.7634 -0.8078
  757MOL0     H 2185   8.975   0.078  10.926 -1.7909  0.1988  1.5969
  757MOL0     H 2186   8.796   0.084  10.918  0.8371 -0.7016  0.3737
  757MOL0     H 2187   8.868  -0.048  10.722 -1.9408 -0.3272 -0.6223
  757MOL0     H 2188   8.977   0.085  10.670  1.6946  2.6751  2.5757
  757MOL0     H 2189   8.810   0.180  10.557  1.2551  1.2096  1.2549
  757MOL0     H 2190   8.711   0.184  10.715 -1.2382 -2.2280  0.4929
  757MOL0     H 2191   8.576   0.080  10.567  0.5008  0.5872 -0.7123
  757MOL0     H 2192   8.649  -0.049  10.662  0.0357  0.3944 -0.5051
  757MOL0     H 2193   8.794  -0.218  10.340  1.0566  0.1742  0.5003
  757MOL0     H 2194   8.830   0.212  11.106 -2.1381  0.1334 -1.6878
  757MOL0     H 2195   8.860   0.380  11.290  1.0097  1.1971  1.0978
  758MOL0     O 2196   2.256  10.773   2.458  0.2797 -0.0065  0.3793
  758MOL0     C 2197   2.357  10.835   2.484 -0.3228  0.6979 -0.8589
  758MOL0     O 2198   2.367  10.927   2.585 -0.4303  0.2556  0.5570
  758MOL0     C 2199   2.257  10.963   2.644  0.2518  0.2949 -0.0712
  758MOL0     C 2200   2.194  10.872   2.731 -0.7347  0.6080 -0.8574
  758MOL0     C 2201   2.074  10.899   2.800 -0.0871 -0.2218 -1.1710
  758MOL0     C 2202   2.017  11.023   2.781 -0.1994  0.2706  1.0110
  758MOL0     O 2203   1.898  11.062   2.828 -0.7471 -0.7730 -0.7228
  758MOL0     C 2204   1.803  11.118   2.737  0.5095 -0.0120  0.0749
  758MOL0     C 2205   1.774  11.032   2.613 -0.0147  0.1703 -0.0487
  758MOL0     C 2206   1.729  10.885   2.638  0.4521  0.2835 -0.7896
  758MOL0     C 2207   1.764  10.800   2.511  0.9028  0.3992 -0.9045
  758MOL0     C 2208   1.707  10.659   2.515  0.1756 -0.1655 -0.2472
  758MOL0     C 2209   1.767  10.600   2.388  0.4882 -1.0915 -0.3266
  758MOL0     C 2210   1.719  10.458   2.387  0.7509 -0.9252 -0.1265
  758MOL0     C 2211   1.753  10.396   2.253 -0.7053 -0.0287 -0.2795
  758MOL0     N 2212   1.697  10.268   2.247  0.3917 -1.4586 -0.8332
  758MOL0     C 2213   1.765  10.155   2.231 -0.5673 -0.4208 -0.1438
  758MOL0     C 2214   1.678  10.058   2.183 -0.4508  0.0611  0.2554
  758MOL0     C 2215   1.711   9.922   2.159 -0.4325  0.2964 -0.8068
  758MOL0     C 2216   1.841   9.910   2.074 -0.0827  0.1492  0.1977
  758MOL0     C 2217   1.836   9.774   1.998 -0.5132  0.3686  0.4255
  758MOL0     C 2218   1.962   9.721   1.931 -0.1311 -0.3732  0.1140
  758MOL0     O 2219   2.024   9.815   1.837 -0.1182 -0.6247  0.0041
  758MOL0     C 2220   1.988   9.814   1.704  0.6941 -0.5243 -0.8980
  758MOL0     C 2221   2.062   9.905   1.626 -0.0041 -0.6154 -0.0038
  758MOL0     C 2222   2.045   9.917   1.487 -0.5257  0.2854 -0.3311
  758MOL0     C 2223   2.138  10.014   1.419  0.0797 -0.0625 -0.6479
  758MOL0     C 2224   1.947   9.839   1.416 -0.8508 -0.4709  0.3956
  758MOL0     C 2225   1.902   9.873   1.283  0.6378 -0.7912  1.3015
  758MOL0     O 2226   1.904  10.006   1.249 -0.8116  0.3107  0.1580
  758MOL0     C 2227   1.902  10.035   1.117 -0.9847 -0.0612  0.0307
  758MOL0     C 2228   1.796  10.104   1.067 -0.1976 -0.4199 -0.6874
  758MOL0     C 2229   1.796  10.139   0.937  0.5187 -1.7044 -0.2296
  758MOL0     C 2230   1.902  10.112   0.853 -0.7213 -0.4790 -0.7243
  758MOL0     O 2231   1.910  10.160   0.727  0.6734  0.9744  0.0985
  758MOL0     C 2232   1.856  10.079   0.626  0.6364  0.4725  0.4013
  758MOL0     C 2233   1.820  10.161   0.502 -0.1060  1.2645  0.2019
  758MOL0     C 2234   1.730  10.088   0.394  0.2847  0.2612 -0.2937
  758MOL0     C 2235   1.795   9.961   0.338 -0.1290  0.5430  0.3900
  758MOL0     C 2236   1.740   9.909   0.195 -0.6297  0.0008 -0.0088
  758MOL0     C 2237   1.816   9.786   0.150 -0.2898 -0.8232  0.6457
  758MOL0     C 2238   1.768   9.725   0.017 -0.2926  0.4445  0.8922
  758MOL0     C 2239   1.840   9.591  -0.004 -0.4929  0.4715  0.0141
  758MOL0    Cl 2240   1.997   9.616  -0.084  0.2048  0.0466 -0.1113
  758MOL0     C 2241   2.007  10.030   0.896  0.3586 -1.3613 -0.6783
  758MOL0     C 2242   2.006   9.988   1.033  0.2667 -0.2300  0.3803
  758MOL0     O 2243   1.868   9.781   1.204  0.4150  0.0966  0.2550
  758MOL0     C 2244   1.872   9.745   1.500 -0.2111 -0.1319 -0.2007
  758MOL0     C 2245   1.889   9.744   1.637 -0.2532  0.3148  0.1361
  758MOL0     N 2246   1.563  10.126   2.158 -0.2896  2.0890 -0.5442
  758MOL0     N 2247   1.568  10.243   2.208  0.3954 -0.3411  0.1663
  758MOL0     C 2248   2.094  11.118   2.703 -0.5014  0.4285  0.5529
  758MOL0     C 2249   2.207  11.091   2.636  1.0508  0.1494  0.8205
  758MOL0     C 2250   2.485  10.784   2.419 -1.0612  0.3633  0.0571
  758MOL0     C 2251   2.471  10.663   2.349 -0.5823  0.4552  0.5370
  758MOL0     C 2252   2.581  10.616   2.275 -0.5796 -0.2743 -0.3304
  758MOL0     C 2253   2.705  10.689   2.279  0.2763  0.3322  0.0867
  758MOL0     O 2254   2.813  10.640   2.210  0.5358 -1.0412 -0.0856
  758MOL0     C 2255   2.920  10.725   2.178  0.1396  0.4747 -0.1649
  758MOL0     C 2256   2.871  10.831   2.078 -0.1354 -0.8950  0.1843
  758MOL0     C 2257   2.970  10.932   2.024 -0.4591  0.2130  0.4427
  758MOL0     C 2258   3.011  11.041   2.129 -0.1082  0.3524 -0.0224
  758MOL0     C 2259   2.906  11.126   2.176 -0.5877  0.1158 -0.1902
  758MOL0     C 2260   2.829  11.201   2.214 -0.8937 -0.5839 -0.1118
  758MOL0     C 2261   2.716  10.808   2.357  0.2228 -0.6439  0.0444
  758MOL0     C 2262   2.606  10.848   2.431 -0.9443 -0.4176 -0.0139
  758MOL0     H 2263   2.243  10.777   2.748  1.2228  1.9478  1.6188
  758MOL0     H 2264   2.030  10.818   2.857  0.7520 -1.8971 -2.7925
  758MOL0     H 2265   1.708  11.119   2.792  0.9708 -1.1420  0.9285
  758MOL0     H 2266   1.827  11.221   2.711  2.4331 -0.7887 -1.3862
  758MOL0     H 2267   1.701  11.082   2.549  1.8125  1.2632 -1.3801
  758MOL0     H 2268   1.864  11.038   2.551  1.0348 -0.2558  1.3936
  758MOL0     H 2269   1.775  10.848   2.730  2.8570 -0.3060 -2.1527
  758MOL0     H 2270   1.622  10.864   2.643  0.9525 -2.3426  0.4203
  758MOL0     H 2271   1.737  10.868   2.430  0.5925  0.8588 -0.4252
  758MOL0     H 2272   1.873  10.788   2.508  0.9026 -0.9186  1.6354
  758MOL0     H 2273   1.741  10.608   2.605  0.6746  1.6170  0.6193
  758MOL0     H 2274   1.599  10.661   2.502  0.3192 -1.8536 -2.2498
  758MOL0     H 2275   1.731  10.649   2.297  2.8758 -0.7814 -1.1674
  758MOL0     H 2276   1.876  10.600   2.395  0.4106  0.1263  1.7592
  758MOL0     H 2277   1.763  10.400   2.468 -1.7073 -2.3765  0.2469
  758MOL0     H 2278   1.610  10.451   2.388  0.7200 -2.2143 -3.1216
  758MOL0     H 2279   1.861  10.385   2.240 -0.6699  0.9328 -0.9101
  758MOL0     H 2280   1.708  10.455   2.173 -0.4408  0.9915  0.3176
  758MOL0     H 2281   1.869  10.141   2.259 -0.7175 -1.4312 -0.0469
  758MOL0     H 2282   1.722   9.870   2.255  0.0531  0.3090 -0.8499
  758MOL0     H 2283   1.633   9.872   2.101  1.6776 -0.8503 -2.8573
  758MOL0     H 2284   1.936   9.904   2.129  0.0054 -0.5362 -0.0172
  758MOL0     H 2285   1.852   9.998   2.010 -1.9637  0.4794  0.2934
  758MOL0     H 2286   1.762   9.781   1.917 -0.4745  2.3027  0.5226
  758MOL0     H 2287   1.809   9.693   2.067  0.1456 -0.0472  0.2045
  758MOL0     H 2288   1.940   9.635   1.868 -0.3358 -2.7938  3.2082
  758MOL0     H 2289   2.032   9.685   2.008  1.4195 -3.4538 -2.5161
  758MOL0     H 2290   2.132   9.967   1.682  1.7089 -0.5742 -2.0693
  758MOL0     H 2291   2.193   9.968   1.336 -3.6217  0.5270 -3.7055
  758MOL0     H 2292   2.081  10.095   1.372 -2.1306 -1.8625 -1.3184
  758MOL0     H 2293   2.210  10.059   1.487  1.2472 -2.2613 -0.3280
  758MOL0     H 2294   1.727  10.149   1.138  3.3383  4.2732  0.2516
  758MOL0     H 2295   1.726  10.211   0.895 -0.3085 -0.9279  2.2809
  758MOL0     H 2296   1.939  10.015   0.596  0.1543  1.0225 -2.3744
  758MOL0     H 2297   1.778  10.006   0.645 -0.8644  1.8692 -0.1164
  758MOL0     H 2298   1.791  10.261   0.535  0.6868  1.2771  0.9299
  758MOL0     H 2299   1.921  10.180   0.464  0.2010  2.1762  1.3955
  758MOL0     H 2300   1.705  10.163   0.318  0.3919 -0.3972 -0.9879
  758MOL0     H 2301   1.640  10.046   0.439 -1.0567  0.2450 -2.8505
  758MOL0     H 2302   1.903   9.972   0.330 -0.1082  1.7369  1.8536
  758MOL0     H 2303   1.775   9.881   0.409  4.8865 -0.6534  0.8034
  758MOL0     H 2304   1.745   9.988   0.120  2.2370 -1.1522 -1.1658
  758MOL0     H 2305   1.635   9.882   0.214 -0.2757 -2.8965 -1.5648
  758MOL0     H 2306   1.921   9.804   0.129 -0.6591 -0.8680 -1.4521
  758MOL0     H 2307   1.806   9.711   0.229 -1.0604 -2.3773 -0.8796
  758MOL0     H 2308   1.794   9.780  -0.075 -2.2700 -0.6326 -0.3720
  758MOL0     H 2309   1.662   9.710   0.035  0.0400  0.3515  2.9518
  758MOL0     H 2310   1.781   9.521  -0.064 -0.0971 -1.1781  1.4767
  758MOL0     H 2311   1.861   9.551   0.095 -0.5745 -0.0861 -0.1930
  758MOL0     H 2312   2.085  10.008   0.824  2.0361  2.0422 -0.1004
  758MOL0     H 2313   2.097   9.943   1.071  1.4288  1.9986  0.4325
  758MOL0     H 2314   1.796   9.683   1.453 -0.6071  0.3807 -0.2519
  758MOL0     H 2315   1.821   9.679   1.691 -1.0078  1.2306  0.3243
  758MOL0     H 2316   2.044  11.211   2.677  1.3295  1.1624 -0.5342
  758MOL0     H 2317   2.242  11.171   2.571 -0.1366 -0.9841 -1.3255
  758MOL0     H 2318   2.381  10.603   2.358  1.1162 -1.8808  5.0181
  758MOL0     H 2319   2.575  10.516   2.236  1.5161 -0.3361 -0.6242
  758MOL0     H 2320   2.979  10.753   2.265  0.8382 -1.0704 -0.0996
  758MOL0     H 2321   2.990  10.671   2.113  0.5659  1.0531 -0.2011
  758MOL0     H 2322   2.791  10.895   2.115  1.3010 -1.2297  4.2909
  758MOL0     H 2323   2.813  10.769   2.008 -2.1719  0.8323  0.2372
  758MOL0     H 2324   2.920  10.973   1.936 -2.4087 -2.0926  0.3551
  758MOL0     H 2325   3.065  10.885   1.998 -1.5659 -1.6863 -0.3688
  758MOL0     H 2326   3.093  11.102   2.089 -0.3349 -0.0788 -1.1980
  758MOL0     H 2327   3.044  10.984   2.216 -0.8115  2.4148  1.6786
  758MOL0     H 2328   2.762  11.279   2.245  1.3163  1.3055  0.2009
  758MOL0     H 2329   2.806  10.867   2.359 -0.6946  0.8195 -0.2150
  758MOL0     H 2330   2.608  10.944   2.481  1.2457 -0.2551 -0.2839
  759MOL0     O 2331   8.005   4.599  10.634 -0.1178 -0.6386  0.4411
  759MOL0     C 2332   7.942   4.509  10.591  1.1298  0.3645  0.5011
  759MOL0     O 2333   7.816   4.474  10.623  0.5846  0.8394  0.0291
  759MOL0     C 2334   7.744   4.545  10.723 -0.5375  0.1457 -0.4481
  759MOL0     C 2335   7.608   4.571  10.692 -0.4379 -0.4782  0.0092
  759MOL0     C 2336   7.529   4.627  10.785  0.2839  0.3787 -0.2706
  759MOL0     C 2337   7.580   4.674  10.911 -0.6289  0.5657  0.4065
  759MOL0     O 2338   7.490   4.719  11.000  0.0284 -0.8516 -0.4636
  759MOL0     C 2339   7.524   4.818  11.091 -1.3319  0.1731 -0.4661
  759MOL0     C 2340   7.410   4.877  11.161  0.6698 -0.1907  0.5519
  759MOL0     C 2341   7.444   4.973  11.266 -0.5377  0.3337  0.2196
  759MOL0     C 2342   7.411   4.927  11.407 -0.1165 -0.0368  0.7904
  759MOL0     C 2343   7.449   5.032  11.511  0.8414 -0.3153  0.2021
  759MOL0     C 2344   7.443   4.965  11.646 -0.3494  0.0760  0.4819
  759MOL0     C 2345   7.475   5.064  11.760 -0.7427  0.5698  0.2681
  759MOL0     C 2346   7.494   4.986  11.888  0.7302  0.8135  0.5627
  759MOL0     N 2347   7.399   4.871  11.896  0.0268  1.0306 -0.3391
  759MOL0     C 2348   7.417   4.732  11.873  0.5759 -0.7992  0.4872
  759MOL0     C 2349   7.295   4.691  11.851  0.6654 -0.3428 -0.5756
  759MOL0     C 2350   7.263   4.541  11.814  0.1517 -1.4797 -0.1233
  759MOL0     C 2351   7.207   4.543  11.677  0.4830  0.3609  1.0653
  759MOL0     C 2352   7.261   4.644  11.569  0.0873  0.8630  0.4952
  759MOL0     C 2353   7.190   4.621  11.441 -0.2845  0.4232  0.5695
  759MOL0     O 2354   7.049   4.639  11.477  0.4360  0.6478 -0.3062
  759MOL0     C 2355   7.004   4.764  11.504 -1.0135  0.8218  0.6217
  759MOL0     C 2356   7.006   4.868  11.403  0.1222  0.0250  0.0003
  759MOL0     C 2357   6.951   4.993  11.437 -0.4909 -0.5882 -0.6909
  759MOL0     C 2358   6.962   5.111  11.337  0.5560  0.3970  0.2386
  759MOL0     C 2359   6.886   5.019  11.555  0.8787  0.6610 -0.4889
  759MOL0     C 2360   6.796   5.132  11.586 -1.1663 -0.6112 -0.3324
  759MOL0     O 2361   6.721   5.115  11.701  0.5103  0.3206  0.0168
  759MOL0     C 2362   6.623   5.208  11.734 -0.4116 -0.0227  0.4537
  759MOL0     C 2363   6.616   5.255  11.861  0.2092  0.2444 -0.6312
  759MOL0     C 2364   6.522   5.357  11.906  0.8842  0.4379 -0.4157
  759MOL0     C 2365   6.445   5.415  11.804 -0.4645  0.2949  0.1697
  759MOL0     O 2366   6.355   5.521  11.816 -0.1549  0.6419 -0.5785
  759MOL0     C 2367   6.340   5.596  11.942 -0.0688  0.1401 -0.1073
  759MOL0     C 2368   6.307   5.742  11.917  0.8661 -0.6141  0.1476
  759MOL0     C 2369   6.257   5.817  12.032 -0.3824  0.4198  0.6008
  759MOL0     C 2370   6.254   5.973  12.016 -0.2560 -0.3188  0.0428
  759MOL0     C 2371   6.257   6.040  12.152  0.3643  0.1059 -0.2436
  759MOL0     C 2372   6.241   6.200  12.132  0.4496  0.2686  0.1960
  759MOL0     C 2373   6.241   6.269  12.273  0.0639  0.9312 -0.4017
  759MOL0     C 2374   6.116   6.239  12.366  0.4247  0.5601 -0.5834
  759MOL0    Cl 2375   5.950   6.260  12.303  0.3762  0.0473  0.4939
  759MOL0     C 2376   6.459   5.365  11.673 -0.4654 -0.0614 -0.8143
  759MOL0     C 2377   6.550   5.270  11.633 -0.1561 -0.1112 -0.3307
  759MOL0     O 2378   6.824   5.244  11.543  0.5933 -0.5298 -0.1565
  759MOL0     C 2379   6.899   4.918  11.651  0.6761 -0.3075 -0.2331
  759MOL0     C 2380   6.957   4.794  11.628  0.2947 -0.1059  0.6542
  759MOL0     N 2381   7.207   4.794  11.880  0.4480  0.1212 -0.0864
  759MOL0     N 2382   7.269   4.893  11.906 -1.0974 -0.7142 -0.7972
  759MOL0     C 2383   7.713   4.655  10.940  0.6320  0.3978 -0.2354
  759MOL0     C 2384   7.789   4.592  10.847 -0.5774 -0.8613 -0.6251
  759MOL0     C 2385   8.001   4.463  10.458 -0.1559  0.1255  0.6092
  759MOL0     C 2386   8.092   4.546  10.388  0.1845  0.9798  1.4820
  759MOL0     C 2387   8.170   4.486  10.281  0.8843  0.6602 -0.8623
  759MOL0     C 2388   8.144   4.355  10.234  0.0129  0.2198 -1.1503
  759MOL0     O 2389   8.216   4.300  10.128 -0.6276 -0.2127 -0.5344
  759MOL0     C 2390   8.278   4.377  10.020 -0.4121 -0.4431 -0.2085
  759MOL0     C 2391   8.369   4.291   9.935 -0.2846 -0.7612  0.2283
  759MOL0     C 2392   8.288   4.193   9.848 -0.2837 -0.6642 -0.5932
  759MOL0     C 2393   8.198   4.251   9.748  0.0579  1.0602 -0.6937
  759MOL0     C 2394   8.183   4.167   9.630  0.4414  0.2284  0.2405
  759MOL0     C 2395   8.178   4.109   9.526 -0.3318 -0.0325 -0.5554
  759MOL0     C 2396   8.033   4.285  10.293 -0.2765 -0.4451 -0.2126
  759MOL0     C 2397   7.974   4.335  10.406 -0.1696  0.5113 -0.3491
  759MOL0     H 2398   7.580   4.532  10.595 -2.8943  0.1194  0.4033
  759MOL0     H 2399   7.423   4.640  10.771  0.4666  1.6725 -0.6081
  759MOL0     H 2400   7.594   4.788  11.169 -1.7878 -1.0962 -0.5304
  759MOL0     H 2401   7.575   4.905  11.048 -0.3095 -0.1002  0.1643
  759MOL0     H 2402   7.342   4.928  11.092  0.6508  0.3565  0.9612
  759MOL0     H 2403   7.350   4.797  11.205  1.5030 -1.0233  0.2120
  759MOL0     H 2404   7.551   4.995  11.260 -0.4127  0.2804  1.7455
  759MOL0     H 2405   7.391   5.065  11.238  1.2112  0.1884 -4.2933
  759MOL0     H 2406   7.304   4.907  11.410 -0.2067  0.4124  0.5849
  759MOL0     H 2407   7.475   4.839  11.419  1.4331  0.6782 -1.5675
  759MOL0     H 2408   7.544   5.078  11.484  1.5190 -2.3975 -1.2003
  759MOL0     H 2409   7.374   5.111  11.503 -0.2777 -1.2893  0.6834
  759MOL0     H 2410   7.340   4.930  11.658 -0.9859  1.8172  0.4658
  759MOL0     H 2411   7.512   4.881  11.644  0.1725  0.4813 -1.9887
  759MOL0     H 2412   7.556   5.133  11.735 -0.0685 -0.4393 -0.4412
  759MOL0     H 2413   7.386   5.126  11.775  0.3514  2.6853 -1.4248
  759MOL0     H 2414   7.480   5.056  11.971  1.7597  3.3222 -1.2678
  759MOL0     H 2415   7.594   4.942  11.900  0.8717  1.4294  1.8512
  759MOL0     H 2416   7.514   4.686  11.853  1.7098  1.4773  0.3315
  759MOL0     H 2417   7.355   4.483  11.817  2.5721  2.0581  0.3046
  759MOL0     H 2418   7.199   4.493  11.889 -1.6308 -0.7972 -1.1337
  759MOL0     H 2419   7.101   4.568  11.688 -0.4292 -1.2560 -2.6994
  759MOL0     H 2420   7.214   4.440  11.640 -4.0690 -0.5168  2.0888
  759MOL0     H 2421   7.370   4.635  11.568  0.0498  0.2301  1.0352
  759MOL0     H 2422   7.242   4.747  11.600 -0.7758  1.2411 -1.1834
  759MOL0     H 2423   7.206   4.518  11.406  0.2465  1.4264 -2.4533
  759MOL0     H 2424   7.221   4.689  11.361 -1.5045  1.0104  0.5655
  759MOL0     H 2425   7.052   4.854  11.306  0.4135  0.8035  0.0224
  759MOL0     H 2426   7.025   5.070  11.257 -2.4383 -1.4024 -1.4123
  759MOL0     H 2427   6.864   5.141  11.298  0.1473 -0.8915  0.2206
  759MOL0     H 2428   7.014   5.197  11.379  0.1293  2.2220 -2.7077
  759MOL0     H 2429   6.665   5.184  11.926 -0.2783 -1.6083 -2.2152
  759MOL0     H 2430   6.522   5.377  12.013  1.2368 -0.8987 -0.1408
  759MOL0     H 2431   6.258   5.561  12.005 -1.8823  0.7624 -2.0456
  759MOL0     H 2432   6.439   5.588  11.989  0.0021 -1.8257 -0.5054
  759MOL0     H 2433   6.400   5.792  11.888  0.4149  0.1912  0.0306
  759MOL0     H 2434   6.231   5.751  11.838  1.3873  2.3610 -0.1461
  759MOL0     H 2435   6.325   5.790  12.114  0.2934 -1.3157 -0.4688
  759MOL0     H 2436   6.165   5.769  12.065 -0.7289 -1.1589 -2.3290
  759MOL0     H 2437   6.327   6.022  11.950 -0.3320  0.6433  0.6444
  759MOL0     H 2438   6.154   5.993  11.978 -2.1102 -2.5730  3.2469
  759MOL0     H 2439   6.351   6.004  12.195 -0.3893 -2.0853 -0.3204
  759MOL0     H 2440   6.178   5.995  12.213  0.2038  1.8243  0.8785
  759MOL0     H 2441   6.326   6.236  12.073  1.8491 -0.7019  1.5433
  759MOL0     H 2442   6.147   6.230  12.084  2.2419  1.2915 -2.9831
  759MOL0     H 2443   6.241   6.377  12.256 -2.2599  1.0666  0.1745
  759MOL0     H 2444   6.329   6.242  12.333  1.0134  1.6770 -1.4022
  759MOL0     H 2445   6.128   6.300  12.456  2.4952 -0.3206 -0.1820
  759MOL0     H 2446   6.124   6.146  12.423  4.0950  2.0567  1.7246
  759MOL0     H 2447   6.395   5.412  11.599 -1.3231 -0.2842 -0.2309
  759MOL0     H 2448   6.560   5.227  11.534  0.4859 -1.7362  0.4004
  759MOL0     H 2449   6.854   4.919  11.750 -1.6894  1.9603 -1.2023
  759MOL0     H 2450   6.974   4.739  11.720 -1.0718 -0.7598  0.5526
  759MOL0     H 2451   7.764   4.684  11.031  2.9004 -0.2346 -1.2079
  759MOL0     H 2452   7.894   4.586  10.874  0.1558  2.6880 -2.0807
  759MOL0     H 2453   8.127   4.644  10.418 -4.1374  2.4196  2.5494
  759MOL0     H 2454   8.266   4.530  10.255  2.3634  0.3369  3.2701
  759MOL0     H 2455   8.202   4.431   9.964 -2.2667 -1.6581  1.0222
  759MOL0     H 2456   8.347   4.444  10.074 -1.2113 -0.2756  0.6412
  759MOL0     H 2457   8.447   4.238   9.990  0.6778  0.7160  0.3377
  759MOL0     H 2458   8.420   4.359   9.866 -1.1121  0.0707  0.4123
  759MOL0     H 2459   8.235   4.118   9.907  1.8775 -2.4898 -0.8261
  759MOL0     H 2460   8.366   4.140   9.792 -1.5674 -3.8142  0.3468
  759MOL0     H 2461   8.244   4.345   9.717  1.4830 -0.0418 -2.0606
  759MOL0     H 2462   8.101   4.273   9.793  0.0354 -1.9629  1.0141
  759MOL0     H 2463   8.157   4.076   9.427 -5.3689  3.0393 -0.8759
  759MOL0     H 2464   8.010   4.188  10.251  3.2451 -0.2564 -3.0905
  759MOL0     H 2465   7.906   4.277  10.467 -0.8488  1.2730 -0.3656
  760MOL0     O 2466   7.427   1.178   1.425  0.0276  0.2507  0.0986
  760MOL0     C 2467   7.403   1.278   1.358  0.3937  0.0179 -0.3457
  760MOL0     O 2468   7.494   1.340   1.283 -0.2360  1.2859  0.0748
  760MOL0     C 2469   7.628   1.302   1.296  0.2684 -0.3655  0.8880
  760MOL0     C 2470   7.707   1.279   1.177  0.0002 -0.1573 -0.2651
  760MOL0     C 2471   7.843   1.253   1.184  0.3705 -0.2140 -0.0117
  760MOL0     C 2472   7.915   1.278   1.300  0.5649 -0.2888 -0.0058
  760MOL0     O 2473   8.053   1.253   1.300 -0.1216 -0.3317  0.2753
  760MOL0     C 2474   8.129   1.232   1.417 -0.3164  0.5244  0.5416
  760MOL0     C 2475   8.274   1.194   1.414  0.3859 -0.1566 -0.4235
  760MOL0     C 2476   8.370   1.297   1.355 -0.2326  0.3000  0.4220
  760MOL0     C 2477   8.516   1.248   1.349  0.5109  0.2701 -0.5288
  760MOL0     C 2478   8.623   1.350   1.318  0.6525 -0.2249  0.0398
  760MOL0     C 2479   8.747   1.300   1.361 -0.4015 -0.2968 -0.7395
  760MOL0     C 2480   8.863   1.381   1.318  0.1768  0.1236  0.0650
  760MOL0     C 2481   8.990   1.304   1.332  0.2631  0.3603  0.5206
  760MOL0     N 2482   9.103   1.398   1.320  0.6366  0.3666 -0.5671
  760MOL0     C 2483   9.116   1.496   1.405  0.5260  0.6262 -0.5719
  760MOL0     C 2484   9.233   1.546   1.376 -0.0612 -0.4002  0.7786
  760MOL0     C 2485   9.296   1.661   1.443  0.0460  0.3157 -0.4903
  760MOL0     C 2486   9.246   1.800   1.397  0.7331  0.4009  0.0990
  760MOL0     C 2487   9.116   1.855   1.457  0.8268  0.2217 -0.0534
  760MOL0     C 2488   9.135   1.907   1.603  0.2017  0.4306  0.8303
  760MOL0     O 2489   9.016   1.981   1.637 -0.1583 -0.1862  0.4905
  760MOL0     C 2490   8.991   2.027   1.761  0.6689 -0.3244 -0.5161
  760MOL0     C 2491   8.874   2.107   1.785  0.3603  0.1288 -0.5974
  760MOL0     C 2492   8.841   2.149   1.916  0.4621  0.1501  0.1514
  760MOL0     C 2493   8.721   2.232   1.932 -0.5807  0.2389 -0.3177
  760MOL0     C 2494   8.928   2.124   2.019 -0.8179  1.5530 -1.1272
  760MOL0     C 2495   8.916   2.175   2.167  0.4181  0.2354  0.4142
  760MOL0     O 2496   8.995   2.108   2.254 -0.0194 -0.6005  0.0819
  760MOL0     C 2497   9.007   2.154   2.384  0.2279  0.7500  0.6764
  760MOL0     C 2498   8.945   2.089   2.492  0.3659 -0.6085  0.6734
  760MOL0     C 2499   8.978   2.131   2.618 -0.2511  0.1864 -0.6773
  760MOL0     C 2500   9.084   2.227   2.643  0.1370  0.7165 -0.9635
  760MOL0     O 2501   9.145   2.254   2.769 -0.0727 -0.1329  0.1522
  760MOL0     C 2502   9.103   2.176   2.886 -0.5900 -0.7083 -0.2155
  760MOL0     C 2503   9.192   2.213   3.014  1.3751  0.1911  0.2078
  760MOL0     C 2504   9.167   2.359   3.057  0.9086  0.6767 -0.0475
  760MOL0     C 2505   9.286   2.424   3.135  0.2933  0.7344 -0.4799
  760MOL0     C 2506   9.300   2.359   3.279  1.0681  0.0910  0.1305
  760MOL0     C 2507   9.440   2.402   3.345  1.0942 -0.2560  0.3338
  760MOL0     C 2508   9.469   2.313   3.464  1.0745  0.0670 -0.4079
  760MOL0     C 2509   9.489   2.165   3.431 -0.8650  0.0277  0.2978
  760MOL0    Cl 2510   9.626   2.159   3.306 -0.4648 -0.2340 -0.3360
  760MOL0     C 2511   9.133   2.296   2.535  0.2459 -0.3725  0.3552
  760MOL0     C 2512   9.100   2.251   2.410  1.3786  0.1511  0.0063
  760MOL0     O 2513   8.844   2.265   2.206  0.2798  0.0823  1.0146
  760MOL0     C 2514   9.046   2.048   1.996  0.3336  0.5772  0.1780
  760MOL0     C 2515   9.069   1.999   1.871  0.0440 -0.2443 -0.0214
  760MOL0     N 2516   9.292   1.461   1.285 -0.0393  0.3749  0.3007
  760MOL0     N 2517   9.207   1.363   1.249 -0.1511  0.2304  0.6311
  760MOL0     C 2518   7.844   1.336   1.410  0.6325 -0.4896  0.3848
  760MOL0     C 2519   7.704   1.345   1.409  0.9279  0.3457  0.5752
  760MOL0     C 2520   7.271   1.341   1.365 -0.5139 -0.4394  0.0489
  760MOL0     C 2521   7.234   1.435   1.261 -0.1263 -0.0725  0.6415
  760MOL0     C 2522   7.115   1.511   1.280  0.2021  0.1113 -0.2178
  760MOL0     C 2523   7.025   1.472   1.389 -0.0698  0.4865 -0.2234
  760MOL0     O 2524   6.898   1.524   1.394 -0.0704 -0.5621 -0.2492
  760MOL0     C 2525   6.831   1.581   1.281 -0.7504  0.0228  0.6475
  760MOL0     C 2526   6.678   1.568   1.303  0.3260 -0.0108 -0.4363
  760MOL0     C 2527   6.623   1.432   1.329  1.2214 -0.7743 -0.3649
  760MOL0     C 2528   6.507   1.391   1.236 -0.0004 -0.0302 -0.1295
  760MOL0     C 2529   6.447   1.260   1.275 -1.1654  0.1759  0.3425
  760MOL0     C 2530   6.393   1.160   1.318 -0.0618  0.4224 -0.0377
  760MOL0     C 2531   7.056   1.362   1.472  0.3537  0.9245 -0.3880
  760MOL0     C 2532   7.182   1.301   1.463 -0.0020 -0.3990  0.4329
  760MOL0     H 2533   7.666   1.272   1.077  0.4929 -2.1755 -0.3713
  760MOL0     H 2534   7.881   1.204   1.096 -1.5858 -1.0936 -0.4323
  760MOL0     H 2535   8.117   1.313   1.490  3.4548 -0.1147  2.0799
  760MOL0     H 2536   8.073   1.158   1.475  1.1854 -2.2796 -1.3474
  760MOL0     H 2537   8.308   1.177   1.517 -1.1264 -1.6311 -0.1278
  760MOL0     H 2538   8.267   1.099   1.359 -1.1728 -0.9525  1.0486
  760MOL0     H 2539   8.335   1.307   1.252 -0.4287 -2.6693  0.1260
  760MOL0     H 2540   8.364   1.390   1.413 -3.3887  0.7178 -0.3878
  760MOL0     H 2541   8.533   1.220   1.453 -1.6289 -0.1889 -0.2431
  760MOL0     H 2542   8.517   1.153   1.294 -1.7553 -1.1287  1.6244
  760MOL0     H 2543   8.620   1.362   1.209  2.1806 -0.6766 -0.0720
  760MOL0     H 2544   8.597   1.442   1.371  0.9287 -1.5262  2.6084
  760MOL0     H 2545   8.749   1.290   1.470 -3.2777 -1.4528 -0.7033
  760MOL0     H 2546   8.761   1.196   1.329 -0.3861 -1.2003  1.9044
  760MOL0     H 2547   8.841   1.409   1.215 -0.3947  4.3634  1.1886
  760MOL0     H 2548   8.863   1.478   1.368 -1.6372 -0.2762  0.9379
  760MOL0     H 2549   9.001   1.224   1.259 -1.3320 -0.0324  0.6778
  760MOL0     H 2550   8.989   1.260   1.432 -0.4589 -1.4007 -0.2301
  760MOL0     H 2551   9.047   1.532   1.481 -1.8532 -1.9584 -1.3614
  760MOL0     H 2552   9.279   1.658   1.551 -2.3931  2.3669 -0.7150
  760MOL0     H 2553   9.402   1.655   1.418  0.1140 -0.3385 -0.0637
  760MOL0     H 2554   9.243   1.797   1.288  0.3606  0.9865  0.0915
  760MOL0     H 2555   9.317   1.879   1.423 -1.0977  2.6605 -1.4146
  760MOL0     H 2556   9.040   1.776   1.456  0.7568  0.2341 -2.4765
  760MOL0     H 2557   9.083   1.944   1.402  1.5139  1.4818  1.5066
  760MOL0     H 2558   9.220   1.975   1.604  0.1966  0.4371  0.8414
  760MOL0     H 2559   9.150   1.825   1.674 -1.8442  0.4436  1.3612
  760MOL0     H 2560   8.828   2.148   1.696 -1.6878 -1.1504 -0.1813
  760MOL0     H 2561   8.760   2.326   1.972  3.1123 -0.4241 -1.9578
  760MOL0     H 2562   8.675   2.248   1.834  2.2661 -0.0360 -1.8105
  760MOL0     H 2563   8.648   2.189   2.002 -1.7710  1.6865 -0.6093
  760MOL0     H 2564   8.861   2.020   2.484 -2.2072  2.3135  0.5660
  760MOL0     H 2565   8.940   2.084   2.708  1.5831  3.1092  1.8383
  760MOL0     H 2566   8.998   2.198   2.907 -0.5184  1.1857 -1.6002
  760MOL0     H 2567   9.134   2.073   2.865  0.8870 -0.5375  0.9431
  760MOL0     H 2568   9.173   2.143   3.096 -0.3970  0.0197 -0.2977
  760MOL0     H 2569   9.300   2.213   2.998  1.4343 -1.0374  0.4944
  760MOL0     H 2570   9.075   2.359   3.117  2.3625  1.0593  2.3013
  760MOL0     H 2571   9.151   2.421   2.969 -1.4873 -0.9732 -0.8813
  760MOL0     H 2572   9.366   2.430   3.060  0.8074 -1.0044 -0.1122
  760MOL0     H 2573   9.260   2.528   3.157 -1.7629 -0.2120  2.1639
  760MOL0     H 2574   9.278   2.257   3.248 -2.5962  0.6269  0.5836
  760MOL0     H 2575   9.220   2.385   3.349  1.0211 -1.2998  0.6235
  760MOL0     H 2576   9.522   2.408   3.273 -2.1945  0.1608 -3.7453
  760MOL0     H 2577   9.422   2.506   3.376 -2.2097  0.0596 -2.0557
  760MOL0     H 2578   9.391   2.326   3.540  1.9616 -2.0278  0.9838
  760MOL0     H 2579   9.565   2.351   3.500  1.0758 -0.3794  0.0719
  760MOL0     H 2580   9.400   2.122   3.384 -0.5125  0.6864 -1.0557
  760MOL0     H 2581   9.507   2.105   3.520  1.4130  1.4132  0.8617
  760MOL0     H 2582   9.202   2.379   2.548  0.5819 -0.3554 -1.2789
  760MOL0     H 2583   9.143   2.294   2.320 -2.5435 -0.6010 -2.4219
  760MOL0     H 2584   9.124   2.029   2.068  2.0186  5.0643 -0.2046
  760MOL0     H 2585   9.155   1.932   1.870 -1.8694 -3.4207  5.4658
  760MOL0     H 2586   7.890   1.369   1.502 -0.2101  2.4646 -0.1381
  760MOL0     H 2587   7.642   1.391   1.485 -1.6694 -0.1007 -1.1595
  760MOL0     H 2588   7.295   1.451   1.172 -2.4624  0.9673 -0.8646
  760MOL0     H 2589   7.095   1.573   1.194  0.9868 -1.8399 -1.9006
  760MOL0     H 2590   6.870   1.681   1.256 -0.6524 -0.5931 -2.0210
  760MOL0     H 2591   6.863   1.530   1.189 -0.0902  0.9054  0.3690
  760MOL0     H 2592   6.625   1.609   1.216  1.3539  2.1129 -0.1506
  760MOL0     H 2593   6.646   1.632   1.386  1.0545 -1.8321  1.3071
  760MOL0     H 2594   6.578   1.446   1.427 -2.2722  0.1328 -1.9349
  760MOL0     H 2595   6.709   1.365   1.336  1.5728 -0.1691  1.7027
  760MOL0     H 2596   6.540   1.387   1.131 -3.4931  1.2919 -1.4150
  760MOL0     H 2597   6.426   1.464   1.236 -0.6285 -0.7169 -0.0598
  760MOL0     H 2598   6.340   1.071   1.342 -2.7381  0.7592 -3.7802
  760MOL0     H 2599   6.981   1.325   1.541  3.1875 -0.4667  2.1926
  760MOL0     H 2600   7.207   1.221   1.532  0.2581  0.0161  0.8236
  761MOL0     O 2601   5.195   4.523   0.153  0.5624  0.0415 -0.1586
  761MOL0     C 2602   5.277   4.604   0.200  0.7091  1.2803 -0.8319
  761MOL0     O 2603   5.386   4.656   0.132  0.6753  0.6064 -0.4434
  761MOL0     C 2604   5.396   4.622   0.000 -0.9065 -0.4065  0.1939
  761MOL0     C 2605   5.511   4.553  -0.045 -0.5536  0.4396  0.3384
  761MOL0     C 2606   5.540   4.545  -0.183  0.7013  0.5570  0.8080
  761MOL0     C 2607   5.463   4.617  -0.276  0.7514 -0.5102 -0.1511
  761MOL0     O 2608   5.487   4.634  -0.407 -0.3095 -0.7761  1.1129
  761MOL0     C 2609   5.587   4.555  -0.479 -0.2436 -1.4029 -0.1010
  761MOL0     C 2610   5.532   4.417  -0.522 -0.5205 -0.6954 -0.5618
  761MOL0     C 2611   5.612   4.358  -0.640 -0.4206  0.3481  0.6239
  761MOL0     C 2612   5.587   4.203  -0.650  0.3350  0.3209 -0.7213
  761MOL0     C 2613   5.657   4.128  -0.766  0.5845 -0.2201 -0.9520
  761MOL0     C 2614   5.645   4.194  -0.896 -0.0168 -0.7194  0.6799
  761MOL0     C 2615   5.646   4.109  -1.023  0.4163  1.6265  0.0749
  761MOL0     C 2616   5.781   4.028  -1.043 -0.2035 -0.6576 -0.2491
  761MOL0     N 2617   5.756   3.943  -1.157 -0.5329  0.2052  0.6860
  761MOL0     C 2618   5.715   3.978  -1.287 -0.4017 -0.3850  0.8823
  761MOL0     C 2619   5.675   3.868  -1.353 -0.6598  0.8297 -0.1547
  761MOL0     C 2620   5.575   3.855  -1.466  0.5643  1.1540 -0.3488
  761MOL0     C 2621   5.536   3.990  -1.533  0.0693 -1.0563  0.0930
  761MOL0     C 2622   5.647   4.045  -1.623 -0.5547 -0.0573  0.0845
  761MOL0     C 2623   5.605   4.158  -1.731  0.7246 -0.9438 -0.0977
  761MOL0     O 2624   5.544   4.278  -1.669 -0.3459  0.3657 -0.5055
  761MOL0     C 2625   5.411   4.288  -1.649 -0.7308 -0.4547 -0.7354
  761MOL0     C 2626   5.370   4.387  -1.550  0.0878 -0.2837 -0.3183
  761MOL0     C 2627   5.233   4.393  -1.502  0.4184  0.7704  0.3249
  761MOL0     C 2628   5.197   4.493  -1.399 -0.8172  0.0427  0.8329
  761MOL0     C 2629   5.145   4.303  -1.553 -0.1152 -0.2723 -0.0892
  761MOL0     C 2630   5.007   4.278  -1.507 -0.3825 -0.7498 -0.1907
  761MOL0     O 2631   4.941   4.367  -1.422 -0.1711  0.2432  0.6177
  761MOL0     C 2632   4.821   4.352  -1.368  0.6897 -0.8638  0.1839
  761MOL0     C 2633   4.747   4.230  -1.357 -0.5035  0.1085  0.8046
  761MOL0     C 2634   4.625   4.232  -1.293 -0.8598  0.6353 -0.4147
  761MOL0     C 2635   4.570   4.349  -1.243  0.3128  0.3438 -1.0058
  761MOL0     O 2636   4.447   4.342  -1.174 -0.0060 -0.2627  0.7347
  761MOL0     C 2637   4.354   4.443  -1.228 -0.1350  0.7893  0.1899
  761MOL0     C 2638   4.209   4.443  -1.180  0.4867  0.5831  0.4082
  761MOL0     C 2639   4.114   4.467  -1.291  0.0724  0.7591  0.2811
  761MOL0     C 2640   3.987   4.528  -1.244  0.5831  0.1463 -0.6834
  761MOL0     C 2641   3.882   4.550  -1.357 -0.6293  0.5229 -0.5114
  761MOL0     C 2642   3.789   4.670  -1.328 -0.5307 -0.5389 -0.1409
  761MOL0     C 2643   3.708   4.716  -1.451  0.5911  0.0497 -0.2003
  761MOL0     C 2644   3.774   4.749  -1.581 -0.1912 -0.5505  0.8906
  761MOL0    Cl 2645   3.869   4.897  -1.548  0.2007 -0.3605  0.0892
  761MOL0     C 2646   4.642   4.465  -1.251  0.8066  0.5431 -0.5114
  761MOL0     C 2647   4.764   4.471  -1.320 -0.5923  0.1538 -0.1196
  761MOL0     O 2648   4.970   4.166  -1.543 -0.0690 -0.3243 -0.4379
  761MOL0     C 2649   5.184   4.224  -1.663  0.3703 -0.6092  0.1378
  761MOL0     C 2650   5.314   4.221  -1.704 -0.4913 -0.3739  0.7455
  761MOL0     N 2651   5.704   3.761  -1.265 -0.3465  0.4819 -0.2546
  761MOL0     N 2652   5.751   3.800  -1.153 -0.6579 -0.1591  0.0404
  761MOL0     C 2653   5.349   4.686  -0.231  0.4101 -0.0483 -0.3980
  761MOL0     C 2654   5.313   4.673  -0.095 -0.6899 -0.5184 -0.2392
  761MOL0     C 2655   5.278   4.617   0.351  0.2886 -0.1408  0.2804
  761MOL0     C 2656   5.391   4.665   0.431 -0.9013  0.0646  0.7735
  761MOL0     C 2657   5.388   4.669   0.572  0.4014  0.1257 -0.3656
  761MOL0     C 2658   5.282   4.615   0.641  0.0137 -0.6852 -0.9242
  761MOL0     O 2659   5.294   4.606   0.783  0.5011  0.1653 -0.0012
  761MOL0     C 2660   5.206   4.516   0.854 -0.6252 -0.7845 -0.1827
  761MOL0     C 2661   5.270   4.381   0.857 -0.5756  0.6269 -0.4539
  761MOL0     C 2662   5.193   4.267   0.923 -0.1478  0.6587 -0.4361
  761MOL0     C 2663   5.176   4.275   1.070 -1.1085  0.0014  0.0462
  761MOL0     C 2664   5.295   4.216   1.129  0.4805  0.2026 -1.3722
  761MOL0     C 2665   5.389   4.169   1.199  0.2213 -0.1766  0.7721
  761MOL0     C 2666   5.170   4.579   0.565 -0.3664 -0.4123 -0.2262
  761MOL0     C 2667   5.163   4.587   0.426  0.0651  0.3976  0.0316
  761MOL0     H 2668   5.578   4.509   0.029 -0.6277  1.4297  1.0113
  761MOL0     H 2669   5.621   4.487  -0.226 -1.9188 -2.2641 -0.7195
  761MOL0     H 2670   5.603   4.611  -0.572 -1.0732 -0.9607  0.0119
  761MOL0     H 2671   5.677   4.553  -0.417 -1.3119  0.1164  1.5947
  761MOL0     H 2672   5.540   4.348  -0.437  1.6697  0.0438 -0.1290
  761MOL0     H 2673   5.425   4.416  -0.546 -0.8127 -3.0735  0.5219
  761MOL0     H 2674   5.585   4.396  -0.739 -2.6131  0.7327  1.3176
  761MOL0     H 2675   5.715   4.393  -0.624 -0.5296  0.4183  1.1831
  761MOL0     H 2676   5.614   4.162  -0.552  1.6828  0.1617 -1.1340
  761MOL0     H 2677   5.482   4.187  -0.676  0.3389  0.0553 -0.5654
  761MOL0     H 2678   5.763   4.115  -0.744  0.5687  1.4544  0.3812
  761MOL0     H 2679   5.603   4.033  -0.760  0.5000 -0.1004  0.5980
  761MOL0     H 2680   5.549   4.247  -0.898  1.1970  1.6153  1.1060
  761MOL0     H 2681   5.724   4.269  -0.902 -0.1128 -0.6661  0.0065
  761MOL0     H 2682   5.559   4.043  -1.018 -0.2861  2.6115  2.3056
  761MOL0     H 2683   5.637   4.185  -1.102 -2.6447 -2.4435 -3.9815
  761MOL0     H 2684   5.790   3.962  -0.956  0.9797 -1.6618 -1.0985
  761MOL0     H 2685   5.862   4.101  -1.052  0.8533 -1.6314  1.0129
  761MOL0     H 2686   5.691   4.083  -1.300 -1.9058 -0.4937  2.4339
  761MOL0     H 2687   5.610   3.778  -1.535 -1.9714 -0.4232 -0.0144
  761MOL0     H 2688   5.484   3.824  -1.414  0.9391  1.2668  0.3902
  761MOL0     H 2689   5.513   4.071  -1.463 -1.1015 -2.5948  1.5795
  761MOL0     H 2690   5.441   3.976  -1.584  1.1116 -1.9616 -1.7215
  761MOL0     H 2691   5.690   3.962  -1.679 -2.3896  0.9660 -3.1320
  761MOL0     H 2692   5.722   4.094  -1.560 -0.5983 -1.0977  0.9707
  761MOL0     H 2693   5.539   4.108  -1.803 -0.6903 -0.7589  1.0071
  761MOL0     H 2694   5.690   4.200  -1.785  1.4434 -0.8878  1.0469
  761MOL0     H 2695   5.449   4.439  -1.495  0.2802 -1.1689  0.2630
  761MOL0     H 2696   5.282   4.558  -1.375  0.8113 -1.4445 -0.6413
  761MOL0     H 2697   5.127   4.562  -1.447 -0.6582 -0.3449  0.0261
  761MOL0     H 2698   5.145   4.456  -1.310 -4.9328  0.1200 -1.3166
  761MOL0     H 2699   4.795   4.137  -1.387 -0.5109 -0.6343  2.9261
  761MOL0     H 2700   4.566   4.141  -1.289 -2.3236  1.5344 -0.6008
  761MOL0     H 2701   4.385   4.535  -1.177 -3.1965  1.2437  1.4486
  761MOL0     H 2702   4.364   4.456  -1.336  0.1420  1.9167  0.3346
  761MOL0     H 2703   4.184   4.351  -1.126 -2.3239  1.9598  1.6838
  761MOL0     H 2704   4.205   4.522  -1.104 -2.6197  0.5865  0.3592
  761MOL0     H 2705   4.101   4.377  -1.351  0.6543  0.4771  0.5755
  761MOL0     H 2706   4.159   4.538  -1.361  3.6136 -2.1739 -0.7491
  761MOL0     H 2707   3.940   4.471  -1.164 -0.5906  1.4687 -0.3882
  761MOL0     H 2708   4.011   4.628  -1.207  0.6807 -0.0771 -0.1369
  761MOL0     H 2709   3.820   4.465  -1.387 -0.6262  0.0901  0.6411
  761MOL0     H 2710   3.941   4.567  -1.447  1.1625 -3.4072 -0.3222
  761MOL0     H 2711   3.718   4.634  -1.254 -1.8012  0.2768 -0.9298
  761MOL0     H 2712   3.855   4.755  -1.305 -0.8114 -0.5521  0.7560
  761MOL0     H 2713   3.649   4.801  -1.416  1.4534  0.4135  0.4092
  761MOL0     H 2714   3.639   4.633  -1.472 -1.2287  1.2814  0.6341
  761MOL0     H 2715   3.703   4.766  -1.662  1.1973  0.4168 -0.1775
  761MOL0     H 2716   3.830   4.659  -1.608 -1.2498 -0.7511 -0.8032
  761MOL0     H 2717   4.598   4.549  -1.198 -1.0178 -1.7209  1.7876
  761MOL0     H 2718   4.821   4.562  -1.333  2.0065 -1.1375  1.3696
  761MOL0     H 2719   5.122   4.155  -1.718 -0.2755 -0.4527  0.6516
  761MOL0     H 2720   5.338   4.152  -1.785 -0.0055 -1.3216  1.6781
  761MOL0     H 2721   5.281   4.739  -0.296 -3.0110 -0.0139  2.8486
  761MOL0     H 2722   5.239   4.737  -0.047  1.4773  0.8762  1.4322
  761MOL0     H 2723   5.478   4.709   0.385 -1.8486  0.0299 -1.1610
  761MOL0     H 2724   5.476   4.696   0.630  0.2785  1.1310 -0.6412
  761MOL0     H 2725   5.198   4.556   0.956 -0.0662  0.5228 -0.6367
  761MOL0     H 2726   5.106   4.513   0.811 -1.0820 -1.7735  0.8682
  761MOL0     H 2727   5.370   4.389   0.900  0.1923 -1.7853 -1.6522
  761MOL0     H 2728   5.278   4.361   0.750 -4.2455 -2.3027 -0.3520
  761MOL0     H 2729   5.247   4.176   0.895  2.8463  1.7786  1.2266
  761MOL0     H 2730   5.092   4.262   0.881  1.0224 -3.1078 -3.3800
  761MOL0     H 2731   5.086   4.225   1.107 -1.3014 -1.0453 -1.6982
  761MOL0     H 2732   5.164   4.381   1.094  0.0672  0.0211  0.5958
  761MOL0     H 2733   5.471   4.133   1.258 -0.4945  0.0987  1.9785
  761MOL0     H 2734   5.082   4.544   0.618 -0.3495  0.5725  0.4672
  761MOL0     H 2735   5.076   4.554   0.369  0.5000  0.7159 -0.8408
  762MOL0     O 2736   6.665   1.169   6.500 -0.1895 -0.3980  0.0776
  762MOL0     C 2737   6.565   1.214   6.445 -1.2220  0.0853  0.9551
  762MOL0     O 2738   6.521   1.346   6.443  0.8336 -0.1655 -0.4706
  762MOL0     C 2739   6.603   1.436   6.501 -0.7899  0.3584 -0.0074
  762MOL0     C 2740   6.709   1.481   6.429  1.1170 -0.3674 -0.5246
  762MOL0     C 2741   6.799   1.575   6.489  0.7266 -0.3201  0.4364
  762MOL0     C 2742   6.789   1.611   6.629  0.6554  0.4035 -0.2288
  762MOL0     O 2743   6.880   1.674   6.699  0.5035  0.5837 -0.3903
  762MOL0     C 2744   7.018   1.664   6.661  1.3111 -0.4609  0.2078
  762MOL0     C 2745   7.106   1.697   6.792  0.1651  0.6896  0.9680
  762MOL0     C 2746   7.082   1.835   6.849 -0.7542  0.5116 -0.3018
  762MOL0     C 2747   7.176   1.880   6.957 -0.2860  0.3359 -0.6711
  762MOL0     C 2748   7.117   2.005   7.023  0.3390  0.1325 -0.3243
  762MOL0     C 2749   7.193   2.052   7.139 -0.6039  0.3461 -0.0766
  762MOL0     C 2750   7.134   2.175   7.202 -0.1310 -0.6246  0.4936
  762MOL0     C 2751   7.223   2.256   7.309 -0.2304 -0.9753  0.0582
  762MOL0     N 2752   7.344   2.299   7.230  0.2146 -0.2214 -0.5652
  762MOL0     C 2753   7.458   2.221   7.216 -0.3397 -0.3113 -0.3438
  762MOL0     C 2754   7.529   2.275   7.115  0.3823  0.0350  0.4272
  762MOL0     C 2755   7.653   2.206   7.054  0.2230 -0.3065 -0.8517
  762MOL0     C 2756   7.790   2.289   7.065  1.0148 -0.2551  0.3610
  762MOL0     C 2757   7.897   2.213   6.986 -0.5430 -0.1467 -0.1115
  762MOL0     C 2758   7.931   2.097   7.075  0.0148 -0.2067  0.0368
  762MOL0     O 2759   7.857   1.981   7.028 -0.2430  0.5341  0.1932
  762MOL0     C 2760   7.941   1.878   6.997  0.0123 -1.0155  0.3827
  762MOL0     C 2761   7.993   1.800   7.092 -0.4951 -1.2897  0.3360
  762MOL0     C 2762   8.061   1.678   7.060  0.6883 -0.5799 -0.7584
  762MOL0     C 2763   8.136   1.593   7.171  0.1258 -0.1433 -0.5396
  762MOL0     C 2764   8.083   1.646   6.921 -0.0758 -0.3040  0.2616
  762MOL0     C 2765   8.159   1.529   6.878 -0.8347  1.2797 -0.4248
  762MOL0     O 2766   8.238   1.530   6.766  0.3265 -0.0485  0.6157
  762MOL0     C 2767   8.259   1.407   6.701 -0.3410 -0.4692 -0.2085
  762MOL0     C 2768   8.165   1.356   6.612 -0.4011  0.8928  0.2521
  762MOL0     C 2769   8.174   1.234   6.549 -0.2961  0.0323 -0.0737
  762MOL0     C 2770   8.279   1.152   6.585 -0.4491 -0.0849 -0.9117
  762MOL0     O 2771   8.289   1.032   6.521 -0.3865 -0.0029  0.0656
  762MOL0     C 2772   8.395   0.937   6.554  0.3893 -0.1133 -0.0924
  762MOL0     C 2773   8.342   0.848   6.661 -0.5099  0.6462 -0.8407
  762MOL0     C 2774   8.207   0.785   6.629 -0.3311  1.5618 -0.4190
  762MOL0     C 2775   8.189   0.668   6.734  0.4380 -0.0224 -0.4808
  762MOL0     C 2776   8.051   0.599   6.729 -0.0228  0.7652  0.5558
  762MOL0     C 2777   7.943   0.688   6.783  0.3136  0.1635  0.3216
  762MOL0     C 2778   7.821   0.603   6.817 -0.3731 -0.7568 -0.9304
  762MOL0     C 2779   7.708   0.636   6.720 -0.0568  0.8767  0.1424
  762MOL0    Cl 2780   7.765   0.605   6.560  0.0765  0.8176  0.3807
  762MOL0     C 2781   8.365   1.198   6.689  0.1195  0.8792 -0.0533
  762MOL0     C 2782   8.358   1.323   6.745 -0.5030 -0.3708  0.4828
  762MOL0     O 2783   8.127   1.421   6.938 -0.3830  0.2560  0.8738
  762MOL0     C 2784   8.037   1.740   6.824  0.2094 -1.0687 -0.3691
  762MOL0     C 2785   7.966   1.856   6.856  0.3972 -0.4067  0.1528
  762MOL0     N 2786   7.467   2.387   7.065 -0.7156  0.2204  0.8695
  762MOL0     N 2787   7.354   2.405   7.135  0.4138  0.5130  0.0770
  762MOL0     C 2788   6.679   1.548   6.700 -0.4868 -1.1517 -0.0607
  762MOL0     C 2789   6.579   1.478   6.632 -0.3880 -0.3197 -0.9660
  762MOL0     C 2790   6.470   1.109   6.395  0.2453 -0.8421 -0.4593
  762MOL0     C 2791   6.354   1.142   6.332  0.3162  0.3480  0.8361
  762MOL0     C 2792   6.262   1.051   6.289  0.1503  0.0163 -0.7961
  762MOL0     C 2793   6.280   0.910   6.321 -0.0850  0.5900  0.2329
  762MOL0     O 2794   6.196   0.806   6.287  0.3710  0.0971 -0.0830
  762MOL0     C 2795   6.073   0.840   6.220 -0.5958  0.2037  0.6876
  762MOL0     C 2796   6.004   0.715   6.158 -0.0257 -0.1001 -0.0525
  762MOL0     C 2797   6.016   0.589   6.249 -0.2888 -0.6473 -0.3889
  762MOL0     C 2798   5.966   0.624   6.391  0.2815  0.3850  0.5054
  762MOL0     C 2799   5.964   0.502   6.480 -0.1700  0.5294 -0.5332
  762MOL0     C 2800   5.979   0.402   6.545 -0.1346 -0.1373  0.1266
  762MOL0     C 2801   6.402   0.877   6.388  0.4843  0.3447 -0.8290
  762MOL0     C 2802   6.493   0.976   6.413  0.5876  0.8347  0.1762
  762MOL0     H 2803   6.709   1.443   6.327 -2.7827 -2.9596  0.1838
  762MOL0     H 2804   6.885   1.615   6.438  0.5284 -0.3867  0.0450
  762MOL0     H 2805   7.045   1.563   6.626  1.2304 -0.0070 -1.2237
  762MOL0     H 2806   7.051   1.735   6.585 -1.0532  1.2983  0.7269
  762MOL0     H 2807   7.069   1.625   6.865 -0.8227 -0.7571 -0.8610
  762MOL0     H 2808   7.213   1.684   6.773 -0.8015 -1.4709 -5.4865
  762MOL0     H 2809   7.092   1.905   6.765 -1.5020 -0.5860 -1.3468
  762MOL0     H 2810   6.977   1.831   6.879 -0.8032  0.1709 -0.5068
  762MOL0     H 2811   7.187   1.795   7.025  1.4959 -2.7930 -4.4848
  762MOL0     H 2812   7.275   1.897   6.915  0.7819 -0.3701  1.3825
  762MOL0     H 2813   7.114   2.088   6.952  2.3653  0.9998  0.5114
  762MOL0     H 2814   7.017   1.983   7.062 -0.6290 -0.3092 -2.8639
  762MOL0     H 2815   7.200   1.967   7.207 -1.8120  0.2887  0.0051
  762MOL0     H 2816   7.293   2.067   7.098 -0.3559 -0.9911 -0.0098
  762MOL0     H 2817   7.108   2.246   7.123 -1.1193 -2.2046 -0.6716
  762MOL0     H 2818   7.040   2.142   7.247 -0.3964 -3.2283 -1.6867
  762MOL0     H 2819   7.254   2.201   7.399  0.4054 -1.3381 -0.3737
  762MOL0     H 2820   7.172   2.346   7.344  1.6872 -0.3330  1.3709
  762MOL0     H 2821   7.477   2.127   7.266  0.4290 -0.1313 -0.2871
  762MOL0     H 2822   7.661   2.105   7.095 -0.8633 -0.2314 -0.4216
  762MOL0     H 2823   7.637   2.205   6.946 -0.3042 -4.6701 -0.9358
  762MOL0     H 2824   7.801   2.313   7.172  1.4004  1.6926 -0.0740
  762MOL0     H 2825   7.776   2.388   7.021  1.3430 -1.4750 -2.7199
  762MOL0     H 2826   7.971   2.290   6.961 -0.2316 -0.9732 -1.8600
  762MOL0     H 2827   7.859   2.172   6.892 -0.1716  1.5577 -1.0557
  762MOL0     H 2828   7.906   2.117   7.179  1.2368  0.1196  0.2809
  762MOL0     H 2829   8.037   2.077   7.058 -0.0157 -0.4427  0.1163
  762MOL0     H 2830   7.967   1.830   7.193  0.3851  0.6623  0.0413
  762MOL0     H 2831   8.241   1.601   7.142  1.1366  0.8189  2.9080
  762MOL0     H 2832   8.110   1.634   7.269  0.1011 -1.7763  0.1761
  762MOL0     H 2833   8.099   1.490   7.181  0.2633  0.0522  3.4856
  762MOL0     H 2834   8.071   1.410   6.598  0.7260  2.7825 -0.3559
  762MOL0     H 2835   8.098   1.202   6.479  0.2294 -1.4813  0.0265
  762MOL0     H 2836   8.427   0.886   6.463  0.5832 -0.6656  0.2822
  762MOL0     H 2837   8.483   0.984   6.599  0.0110 -1.3631  2.0791
  762MOL0     H 2838   8.414   0.774   6.695 -1.7863 -1.0201 -1.6211
  762MOL0     H 2839   8.326   0.910   6.750 -0.4755 -0.6361  0.0826
  762MOL0     H 2840   8.188   0.738   6.531  1.3132  0.7319 -0.3654
  762MOL0     H 2841   8.135   0.866   6.645  2.1833  3.6193  1.1613
  762MOL0     H 2842   8.265   0.593   6.710 -0.1299 -1.6714  2.4561
  762MOL0     H 2843   8.212   0.718   6.829  3.4867  1.7648 -2.0094
  762MOL0     H 2844   8.040   0.520   6.804 -2.3142 -3.0454 -3.3070
  762MOL0     H 2845   8.029   0.557   6.630  2.5719  3.8916 -1.5826
  762MOL0     H 2846   7.975   0.742   6.872 -1.8287 -1.0249  1.9021
  762MOL0     H 2847   7.911   0.767   6.714  0.8209 -0.7809 -1.0470
  762MOL0     H 2848   7.783   0.644   6.912 -1.9663  0.9815 -2.2323
  762MOL0     H 2849   7.851   0.498   6.819  2.9258  0.0173 -3.1926
  762MOL0     H 2850   7.684   0.743   6.724  0.5516  1.0211 -0.0067
  762MOL0     H 2851   7.626   0.567   6.740  1.8952 -0.8092  3.1598
  762MOL0     H 2852   8.445   1.136   6.729 -2.1412 -1.8325  0.5935
  762MOL0     H 2853   8.428   1.370   6.813 -0.9977  0.2096  0.6059
  762MOL0     H 2854   8.056   1.728   6.718 -2.5417 -0.3593 -1.0450
  762MOL0     H 2855   7.925   1.923   6.781  4.0550  0.3012 -1.3983
  762MOL0     H 2856   6.659   1.575   6.803 -0.2077  1.0973 -0.5428
  762MOL0     H 2857   6.491   1.451   6.689 -0.2610 -0.6910 -0.9426
  762MOL0     H 2858   6.335   1.248   6.315  2.1138  1.2199  3.5596
  762MOL0     H 2859   6.178   1.083   6.228 -0.2321 -0.3435 -0.4616
  762MOL0     H 2860   6.012   0.885   6.299 -0.8276 -0.2260  0.7605
  762MOL0     H 2861   6.099   0.912   6.142 -1.4887  0.0562  0.2398
  762MOL0     H 2862   6.062   0.703   6.066  1.0409  0.4070  0.5413
  762MOL0     H 2863   5.904   0.745   6.126  0.7474  1.7115 -0.8782
  762MOL0     H 2864   6.121   0.561   6.260  0.7723  1.6223 -3.5497
  762MOL0     H 2865   5.947   0.511   6.214 -0.4960 -1.3575  1.4812
  762MOL0     H 2866   5.864   0.661   6.382 -0.3181 -1.2061  0.4821
  762MOL0     H 2867   6.042   0.688   6.437 -0.1802  2.0771 -0.9796
  762MOL0     H 2868   5.993   0.313   6.604 -0.0031  1.1653  2.1683
  762MOL0     H 2869   6.414   0.774   6.419 -2.1624  1.0630  3.3415
  762MOL0     H 2870   6.596   0.965   6.444  1.4443  4.2434 -1.0344
  763MOL0     O 2871   3.353   5.377   3.246  0.1335 -0.5718 -0.2406
  763MOL0     C 2872   3.362   5.299   3.157 -0.5905 -0.6326 -0.1723
  763MOL0     O 2873   3.366   5.329   3.023 -0.1117  0.8295  0.1421
  763MOL0     C 2874   3.314   5.448   2.993  0.4049  0.0520 -0.3168
  763MOL0     C 2875   3.203   5.505   3.049 -0.2312 -0.0050  0.2716
  763MOL0     C 2876   3.142   5.619   2.991  0.1025 -0.3053  0.2184
  763MOL0     C 2877   3.207   5.679   2.879  0.8179  0.2328  0.6587
  763MOL0     O 2878   3.154   5.782   2.810 -0.4717  0.5133 -0.5465
  763MOL0     C 2879   3.056   5.876   2.865  0.2614  0.8031  0.2302
  763MOL0     C 2880   3.008   5.963   2.746  0.2339 -0.3497 -1.1814
  763MOL0     C 2881   2.890   5.911   2.664 -0.7106  0.0407 -0.7790
  763MOL0     C 2882   2.867   5.979   2.528 -0.5162  0.6911 -0.3623
  763MOL0     C 2883   2.758   5.889   2.460  0.2544  0.3655 -0.5204
  763MOL0     C 2884   2.762   5.898   2.305  0.4132 -0.1002 -0.5597
  763MOL0     C 2885   2.664   5.790   2.252 -0.6311  0.0609  0.1046
  763MOL0     C 2886   2.619   5.807   2.105 -0.0567 -0.0013 -0.3241
  763MOL0     N 2887   2.726   5.793   2.007  0.3286  0.4628  0.6401
  763MOL0     C 2888   2.795   5.898   1.956  0.3523 -0.5215 -0.0044
  763MOL0     C 2889   2.840   5.863   1.832 -0.8595 -0.1527  0.4860
  763MOL0     C 2890   2.923   5.928   1.731 -0.4310 -0.1780 -0.5137
  763MOL0     C 2891   2.893   6.074   1.700 -0.2988  0.5625 -0.1861
  763MOL0     C 2892   3.013   6.129   1.612 -0.3711  0.2083 -0.4876
  763MOL0     C 2893   2.966   6.252   1.528  0.4029  0.1709 -1.0246
  763MOL0     O 2894   2.920   6.200   1.406 -0.1555  1.1066  0.0877
  763MOL0     C 2895   2.863   6.288   1.322  0.2978  0.0104 -0.9622
  763MOL0     C 2896   2.940   6.332   1.214  0.4093  0.4213  0.0960
  763MOL0     C 2897   2.904   6.440   1.126 -0.5182 -0.0176 -0.6403
  763MOL0     C 2898   3.002   6.471   1.015  0.1442 -0.2988  0.0081
  763MOL0     C 2899   2.789   6.516   1.162 -0.0191 -0.4603 -1.1438
  763MOL0     C 2900   2.739   6.631   1.081  0.0738 -0.7321  0.2520
  763MOL0     O 2901   2.621   6.680   1.117  0.8657 -0.2651 -0.3117
  763MOL0     C 2902   2.567   6.785   1.052 -0.1005 -0.0564 -0.0689
  763MOL0     C 2903   2.434   6.767   1.012  0.5070  0.4502 -0.0965
  763MOL0     C 2904   2.368   6.876   0.941 -0.2087 -0.6294  0.2916
  763MOL0     C 2905   2.440   6.998   0.917  0.3925 -0.5192  0.1887
  763MOL0     O 2906   2.371   7.092   0.850  0.8927 -0.6051  0.3297
  763MOL0     C 2907   2.412   7.231   0.846  0.0687 -0.1382 -0.0551
  763MOL0     C 2908   2.323   7.288   0.741  0.2441 -0.9149  0.4158
  763MOL0     C 2909   2.337   7.218   0.608 -0.0005  0.4974  0.1072
  763MOL0     C 2910   2.254   7.293   0.498  0.6951  0.3941 -0.0449
  763MOL0     C 2911   2.244   7.232   0.363 -0.4710  0.3565  0.7250
  763MOL0     C 2912   2.373   7.239   0.290 -0.0226  0.9943  0.9321
  763MOL0     C 2913   2.363   7.182   0.133 -0.1735  0.2968  0.0338
  763MOL0     C 2914   2.353   7.300   0.029 -0.2741  0.2101 -0.2126
  763MOL0    Cl 2915   2.262   7.245  -0.123 -0.3130  0.0455  0.0721
  763MOL0     C 2916   2.567   7.010   0.966  0.6605 -0.7542  0.1129
  763MOL0     C 2917   2.628   6.907   1.030 -0.0426  0.4193 -0.6183
  763MOL0     O 2918   2.806   6.682   0.990 -0.8700 -0.6509 -1.5693
  763MOL0     C 2919   2.712   6.470   1.275 -0.0761 -0.6958  0.1509
  763MOL0     C 2920   2.746   6.357   1.353 -0.6527 -0.0811 -0.4803
  763MOL0     N 2921   2.788   5.732   1.813 -0.3378  0.4902 -0.5011
  763MOL0     N 2922   2.741   5.690   1.924  0.4640 -0.3128  0.1168
  763MOL0     C 2923   3.332   5.632   2.834 -0.0013  0.0423  0.7088
  763MOL0     C 2924   3.384   5.518   2.896 -0.7238  0.7894 -0.4215
  763MOL0     C 2925   3.377   5.160   3.196  0.4260  0.5537  0.1328
  763MOL0     C 2926   3.377   5.117   3.327  0.5001  0.2868  0.5072
  763MOL0     C 2927   3.394   4.984   3.357 -0.1759 -0.0438  0.6555
  763MOL0     C 2928   3.415   4.885   3.257 -0.8032  0.7092 -0.2081
  763MOL0     O 2929   3.419   4.750   3.270  0.8370 -1.0183 -0.0557
  763MOL0     C 2930   3.405   4.688   3.394  0.3027  0.2602  0.2116
  763MOL0     C 2931   3.452   4.547   3.391 -0.2172  0.1603  0.1863
  763MOL0     C 2932   3.612   4.545   3.404 -0.0623 -0.3585 -0.9065
  763MOL0     C 2933   3.648   4.399   3.416  0.0506 -0.7897  0.3078
  763MOL0     C 2934   3.642   4.348   3.549  0.4826  0.8132  0.8344
  763MOL0     C 2935   3.634   4.291   3.655 -0.0324  0.5108  0.3408
  763MOL0     C 2936   3.410   4.926   3.125 -0.0288 -0.5009  0.2472
  763MOL0     C 2937   3.388   5.061   3.098 -0.5105 -0.3198 -0.1110
  763MOL0     H 2938   3.145   5.456   3.126 -0.3320 -2.0116 -0.9965
  763MOL0     H 2939   3.046   5.653   3.029 -1.4701 -2.4980 -1.4797
  763MOL0     H 2940   2.972   5.822   2.910  0.6404 -2.2343 -2.3423
  763MOL0     H 2941   3.112   5.943   2.931  3.0355 -0.2948 -0.8288
  763MOL0     H 2942   3.008   6.071   2.767  1.8772 -0.4282 -0.6562
  763MOL0     H 2943   3.093   5.957   2.677 -1.2623 -0.2482 -3.1171
  763MOL0     H 2944   2.914   5.806   2.644  0.7747 -0.1756  1.8004
  763MOL0     H 2945   2.803   5.916   2.730  0.7840  0.4580  1.2458
  763MOL0     H 2946   2.837   6.084   2.538  1.1682  1.0524  1.4124
  763MOL0     H 2947   2.954   5.985   2.463  0.0074  1.4078  0.3876
  763MOL0     H 2948   2.775   5.789   2.501  3.7289  1.0670  0.0758
  763MOL0     H 2949   2.659   5.922   2.494  0.7693  1.1513  0.2904
  763MOL0     H 2950   2.718   5.995   2.278 -0.8207 -0.9391 -1.6743
  763MOL0     H 2951   2.866   5.883   2.273  0.2439  0.0578 -1.2040
  763MOL0     H 2952   2.709   5.691   2.255 -3.3782 -1.5058 -3.4898
  763MOL0     H 2953   2.577   5.793   2.318  0.6288  0.8175  1.8270
  763MOL0     H 2954   2.592   5.913   2.109  1.1814  0.3040  0.3794
  763MOL0     H 2955   2.535   5.739   2.091  1.9683 -3.4565  2.5389
  763MOL0     H 2956   2.797   6.001   1.988 -0.5606 -0.6448  0.5075
  763MOL0     H 2957   3.028   5.929   1.762 -0.9868  0.5110  1.4986
  763MOL0     H 2958   2.929   5.871   1.638  1.0469 -0.6582 -0.1410
  763MOL0     H 2959   2.881   6.128   1.794 -4.2528 -1.6830  0.8396
  763MOL0     H 2960   2.800   6.074   1.641  0.9082 -0.4422 -2.2072
  763MOL0     H 2961   3.058   6.051   1.549  3.1847 -1.4818  3.6353
  763MOL0     H 2962   3.103   6.161   1.665  1.5826  1.9331 -4.4713
  763MOL0     H 2963   3.055   6.314   1.513 -0.9576  1.6781 -3.6626
  763MOL0     H 2964   2.893   6.304   1.590 -0.0058 -3.2129  1.6208
  763MOL0     H 2965   3.025   6.269   1.189  0.6613  1.0058 -0.5447
  763MOL0     H 2966   3.094   6.412   1.011  0.4175  0.2139 -2.7422
  763MOL0     H 2967   2.956   6.485   0.917 -0.8029  1.4000  0.6581
  763MOL0     H 2968   3.046   6.567   1.044 -0.8396  0.1133  0.1584
  763MOL0     H 2969   2.382   6.674   1.037  0.9147 -0.1006 -1.2314
  763MOL0     H 2970   2.268   6.851   0.907 -0.1987 -1.7442  1.0327
  763MOL0     H 2971   2.390   7.280   0.941 -1.2826 -1.7527  0.5139
  763MOL0     H 2972   2.518   7.232   0.819  0.4183 -4.5512  0.2857
  763MOL0     H 2973   2.221   7.295   0.779  1.2110  2.6597  2.7963
  763MOL0     H 2974   2.361   7.388   0.719  0.1088 -0.9226  0.1342
  763MOL0     H 2975   2.296   7.116   0.607 -2.6160  1.4537 -1.2224
  763MOL0     H 2976   2.442   7.210   0.580  0.3849 -0.0357  1.6537
  763MOL0     H 2977   2.157   7.296   0.547  1.4129 -0.3721  1.5084
  763MOL0     H 2978   2.308   7.387   0.485  0.1436  0.8719  0.9924
  763MOL0     H 2979   2.167   7.278   0.301  1.1126  1.5220 -0.4548
  763MOL0     H 2980   2.214   7.127   0.370 -0.5468  0.3020 -0.2905
  763MOL0     H 2981   2.429   7.332   0.300 -0.8661  1.2624  4.0893
  763MOL0     H 2982   2.439   7.169   0.343 -1.5310 -1.6785 -0.4478
  763MOL0     H 2983   2.274   7.123   0.110 -0.2690  0.9953 -1.4741
  763MOL0     H 2984   2.453   7.123   0.112 -0.3236  0.0206  0.1619
  763MOL0     H 2985   2.448   7.344  -0.002  0.1264 -0.7679 -0.4091
  763MOL0     H 2986   2.298   7.387   0.066 -0.2610 -0.6128  1.8907
  763MOL0     H 2987   2.626   7.099   0.946  1.2534 -1.2733 -0.5210
  763MOL0     H 2988   2.728   6.919   1.069  1.1751 -2.1505 -2.6569
  763MOL0     H 2989   2.623   6.523   1.307 -0.3367 -1.4376  0.6742
  763MOL0     H 2990   2.677   6.334   1.434 -0.2462  2.4827  0.6713
  763MOL0     H 2991   3.388   5.678   2.753 -0.4774 -0.9458 -0.2117
  763MOL0     H 2992   3.480   5.483   2.859 -0.8438  0.0725 -0.0707
  763MOL0     H 2993   3.371   5.186   3.411 -4.3549  2.8894 -1.5802
  763MOL0     H 2994   3.412   4.962   3.462  0.7536  2.4744  1.0846
  763MOL0     H 2995   3.456   4.742   3.475 -0.2479  1.3098 -0.1275
  763MOL0     H 2996   3.297   4.689   3.413 -0.2690  1.3494 -2.6718
  763MOL0     H 2997   3.410   4.497   3.303 -1.3234 -1.9504  1.8252
  763MOL0     H 2998   3.403   4.490   3.470 -2.0361  1.1820 -0.1634
  763MOL0     H 2999   3.636   4.605   3.492 -1.0131  1.6325 -1.9345
  763MOL0     H 3000   3.666   4.587   3.319 -0.5981  0.4648 -0.8484
  763MOL0     H 3001   3.757   4.407   3.413 -0.0175  0.0901 -0.0014
  763MOL0     H 3002   3.602   4.334   3.341  1.3435 -1.5950  0.1774
  763MOL0     H 3003   3.626   4.240   3.749 -1.6057  3.3227  1.8661
  763MOL0     H 3004   3.447   4.865   3.043  1.8713 -0.7236  1.2024
  763MOL0     H 3005   3.398   5.096   2.996 -0.1722 -0.7948 -0.2375
  764MOL0     O 3006   9.088   8.708   1.435  0.1174 -0.6337 -0.0928
  764MOL0     C 3007   9.169   8.681   1.522  0.1867 -0.0144  0.2212
  764MOL0     O 3008   9.281   8.747   1.555  0.0217 -0.1597 -0.4280
  764MOL0     C 3009   9.288   8.878   1.514 -0.0999 -0.2335  0.3785
  764MOL0     C 3010   9.261   8.980   1.605  0.2247  0.2638 -0.1413
  764MOL0     C 3011   9.275   9.117   1.567 -0.2276  0.4430 -0.6701
  764MOL0     C 3012   9.330   9.148   1.433  0.7621 -0.5947  0.1418
  764MOL0     O 3013   9.353   9.277   1.384  0.3539 -0.2512 -0.8179
  764MOL0     C 3014   9.283   9.381   1.458  0.4210 -0.5611  0.9228
  764MOL0     C 3015   9.304   9.516   1.403 -0.1914 -0.0268  0.5868
  764MOL0     C 3016   9.375   9.624   1.476 -0.2049 -0.0286  0.1138
  764MOL0     C 3017   9.431   9.736   1.376 -0.2547  0.0938 -0.5947
  764MOL0     C 3018   9.528   9.827   1.451 -0.5462  1.0898  0.0652
  764MOL0     C 3019   9.562   9.937   1.362  0.1705  0.3972  0.8402
  764MOL0     C 3020   9.690  10.020   1.398  0.4095  0.7278 -0.4522
  764MOL0     C 3021   9.813   9.940   1.428  0.1422 -0.2679  0.1231
  764MOL0     N 3022   9.931  10.029   1.438  0.0094 -0.2842  0.1478
  764MOL0     C 3023  10.018  10.061   1.327  0.7753  0.7691  0.2805
  764MOL0     C 3024  10.101  10.156   1.370 -0.2494 -0.3036 -0.0468
  764MOL0     C 3025  10.196  10.239   1.294 -0.9029  0.1123  0.4507
  764MOL0     C 3026  10.180  10.238   1.136  0.1856 -0.3343  0.3260
  764MOL0     C 3027  10.295  10.308   1.061  0.0908 -0.0051 -0.3506
  764MOL0     C 3028  10.250  10.348   0.924  0.3073 -0.1581  0.4623
  764MOL0     O 3029  10.128  10.416   0.913 -0.0505  0.1609  0.5477
  764MOL0     C 3030  10.144  10.548   0.861  0.7739  0.4356 -0.1704
  764MOL0     C 3031  10.034  10.581   0.779 -0.8368 -0.6026  0.5702
  764MOL0     C 3032  10.018  10.711   0.715  0.1887 -0.1078 -0.3414
  764MOL0     C 3033   9.891  10.740   0.633 -0.9317 -0.0750 -0.6704
  764MOL0     C 3034  10.125  10.807   0.741 -0.4756  0.3000  0.3529
  764MOL0     C 3035  10.146  10.946   0.667  0.0856 -0.2910 -0.9052
  764MOL0     O 3036  10.253  11.012   0.714 -0.0559 -0.7575 -0.1266
  764MOL0     C 3037  10.271  11.143   0.673  0.3058 -0.0083 -0.1594
  764MOL0     C 3038  10.177  11.234   0.628 -0.2249 -0.6714  0.5570
  764MOL0     C 3039  10.203  11.355   0.562 -0.0079  0.1783 -0.8935
  764MOL0     C 3040  10.336  11.393   0.554  0.1078 -0.2086 -0.8099
  764MOL0     O 3041  10.368  11.502   0.479  0.1845  0.1652  0.0932
  764MOL0     C 3042  10.367  11.620   0.546  0.5976 -0.2553  0.9818
  764MOL0     C 3043  10.343  11.743   0.463 -0.4471 -0.2624 -0.1689
  764MOL0     C 3044  10.434  11.753   0.349 -0.4365  0.2124  0.4052
  764MOL0     C 3045  10.580  11.746   0.381 -0.0958 -0.3724 -0.4878
  764MOL0     C 3046  10.669  11.775   0.259  0.0804 -0.2840 -0.2322
  764MOL0     C 3047  10.684  11.668   0.157 -0.2023  0.0476 -1.1698
  764MOL0     C 3048  10.614  11.682   0.028 -0.5133 -0.8790 -0.1886
  764MOL0     C 3049  10.700  11.763  -0.075  0.3945  1.0625  0.8165
  764MOL0    Cl 3050  10.853  11.667  -0.123 -0.3612 -0.2819  0.7091
  764MOL0     C 3051  10.433  11.309   0.609  0.0812  0.4503  1.1826
  764MOL0     C 3052  10.405  11.189   0.662  1.3446  0.1764 -0.9062
  764MOL0     O 3053  10.093  10.961   0.558  0.1869  0.1284  0.4172
  764MOL0     C 3054  10.229  10.768   0.836  0.7110 -0.3228 -0.0565
  764MOL0     C 3055  10.234  10.644   0.900  0.0209 -0.6599  0.8956
  764MOL0     N 3056  10.074  10.187   1.500 -0.2731  1.1629  0.1912
  764MOL0     N 3057   9.975  10.108   1.539  0.1148 -0.4689  0.4883
  764MOL0     C 3058   9.358   9.045   1.341 -1.1948  0.5732  0.5402
  764MOL0     C 3059   9.331   8.912   1.383  0.2187  0.6709 -0.5598
  764MOL0     C 3060   9.130   8.556   1.604 -0.6002 -0.5579 -0.2552
  764MOL0     C 3061   9.213   8.508   1.711 -0.2696 -0.2733  0.3692
  764MOL0     C 3062   9.178   8.402   1.798  0.3539  0.2514 -1.1007
  764MOL0     C 3063   9.065   8.328   1.766 -0.4166 -0.0035  0.0639
  764MOL0     O 3064   9.010   8.224   1.838 -0.3795  0.3722 -0.2627
  764MOL0     C 3065   9.063   8.202   1.972 -0.3809 -0.2087  0.5633
  764MOL0     C 3066   8.944   8.175   2.057  0.2092 -0.2252  0.4175
  764MOL0     C 3067   8.872   8.303   2.109  0.9124 -1.0879 -0.3724
  764MOL0     C 3068   8.756   8.287   2.212 -0.3845 -0.4972 -0.3162
  764MOL0     C 3069   8.642   8.208   2.168  0.1564  0.3632 -1.3916
  764MOL0     C 3070   8.542   8.153   2.124 -0.4712 -0.8609 -0.1504
  764MOL0     C 3071   8.987   8.369   1.662 -0.0930  0.4404  0.6856
  764MOL0     C 3072   9.018   8.479   1.579  0.5934 -0.8576 -0.1453
  764MOL0     H 3073   9.228   8.960   1.706 -0.9591 -2.1350 -0.9315
  764MOL0     H 3074   9.268   9.191   1.645  2.1851  0.4173 -0.3379
  764MOL0     H 3075   9.175   9.367   1.449  0.1531  1.9131 -0.6089
  764MOL0     H 3076   9.303   9.388   1.566  0.7206  3.0722  0.7685
  764MOL0     H 3077   9.353   9.506   1.305 -0.4997  2.7361  0.0716
  764MOL0     H 3078   9.204   9.552   1.379  0.0691 -0.7953 -2.0200
  764MOL0     H 3079   9.299   9.670   1.539 -1.8327  1.2669 -2.6293
  764MOL0     H 3080   9.451   9.573   1.536 -0.0937 -2.5029 -1.9226
  764MOL0     H 3081   9.473   9.687   1.288  1.1344  1.9760 -1.0448
  764MOL0     H 3082   9.343   9.791   1.340  1.2470  1.1537 -2.8562
  764MOL0     H 3083   9.480   9.852   1.546 -3.7526 -0.4205 -0.9971
  764MOL0     H 3084   9.617   9.766   1.469 -0.8599  1.4361  3.4254
  764MOL0     H 3085   9.588   9.913   1.258  4.7392  2.2893  1.3057
  764MOL0     H 3086   9.475  10.003   1.356  0.1638  0.3180 -0.1147
  764MOL0     H 3087   9.703  10.095   1.320 -1.6749  1.2437 -0.3706
  764MOL0     H 3088   9.668  10.068   1.494  1.0013 -1.0937  0.6567
  764MOL0     H 3089   9.822   9.874   1.341  1.3813  0.9958 -0.7473
  764MOL0     H 3090   9.804   9.880   1.519 -0.6122 -1.3413 -0.6372
  764MOL0     H 3091  10.014  10.015   1.229  1.4041  1.1817  0.0581
  764MOL0     H 3092  10.183  10.341   1.332  0.3479 -0.3911  2.3973
  764MOL0     H 3093  10.297  10.206   1.320  0.2835  0.3841 -3.2500
  764MOL0     H 3094  10.091  10.296   1.112  0.8540  0.7805  0.4565
  764MOL0     H 3095  10.171  10.134   1.101  0.7126  0.2376 -1.6304
  764MOL0     H 3096  10.390  10.256   1.044  1.3023  1.4907  1.4166
  764MOL0     H 3097  10.330  10.393   1.121  2.0837  0.3217 -1.8617
  764MOL0     H 3098  10.241  10.258   0.862 -2.0729  1.1548 -1.2761
  764MOL0     H 3099  10.334  10.401   0.879  1.8739 -1.4250  1.7914
  764MOL0     H 3100   9.965  10.501   0.755 -3.7119  1.8756 -0.0302
  764MOL0     H 3101   9.863  10.846   0.633  3.2842  1.1946 -0.3258
  764MOL0     H 3102   9.902  10.703   0.531  0.3701  0.6045 -0.7976
  764MOL0     H 3103   9.806  10.684   0.673 -0.0349 -0.2291  1.1229
  764MOL0     H 3104  10.071  11.213   0.641 -0.4095  0.6472  1.3892
  764MOL0     H 3105  10.132  11.428   0.527  0.1736  2.1502  2.4428
  764MOL0     H 3106  10.280  11.620   0.612 -1.5363 -0.5828 -1.6791
  764MOL0     H 3107  10.461  11.640   0.598  0.1428 -0.7063  2.0157
  764MOL0     H 3108  10.239  11.757   0.435 -0.5836  1.2114  0.9293
  764MOL0     H 3109  10.360  11.831   0.526  0.1594  0.3821 -1.2070
  764MOL0     H 3110  10.407  11.850   0.305 -1.6710  0.3517  1.3977
  764MOL0     H 3111  10.403  11.667   0.289 -0.0299  0.3986 -0.0792
  764MOL0     H 3112  10.613  11.831   0.442 -1.7644  2.9605 -3.8916
  764MOL0     H 3113  10.612  11.651   0.424 -1.2342  0.5660  2.7283
  764MOL0     H 3114  10.769  11.785   0.302  1.3120 -1.9299 -2.5159
  764MOL0     H 3115  10.648  11.874   0.217  0.2973 -0.5487 -0.9681
  764MOL0     H 3116  10.792  11.662   0.140 -0.3689 -1.5392 -1.7975
  764MOL0     H 3117  10.657  11.571   0.200 -0.9988  2.0686  3.5335
  764MOL0     H 3118  10.511  11.717   0.044 -0.0141  0.0366  1.1551
  764MOL0     H 3119  10.591  11.584  -0.015 -2.0461 -0.0666 -1.3305
  764MOL0     H 3120  10.722  11.863  -0.035 -1.0116  1.3935  0.8095
  764MOL0     H 3121  10.640  11.777  -0.165 -1.7360  1.2311  2.1680
  764MOL0     H 3122  10.538  11.334   0.606 -0.4963  3.2057  1.3254
  764MOL0     H 3123  10.497  11.135   0.682  0.6190 -0.1402  1.9331
  764MOL0     H 3124  10.310  10.834   0.863 -0.4150  0.8503  0.5773
  764MOL0     H 3125  10.314  10.632   0.972  1.5573 -1.7698 -0.8980
  764MOL0     H 3126   9.386   9.082   1.243  1.5032 -0.3836  0.8583
  764MOL0     H 3127   9.351   8.832   1.312 -1.7865  0.0037 -0.4547
  764MOL0     H 3128   9.310   8.551   1.730 -0.4518 -0.5858  2.1990
  764MOL0     H 3129   9.238   8.388   1.887 -0.3270  4.0453  0.1753
  764MOL0     H 3130   9.129   8.115   1.976 -0.0398 -0.1477 -2.1062
  764MOL0     H 3131   9.115   8.290   2.012 -2.0969  2.5120 -2.7130
  764MOL0     H 3132   8.979   8.130   2.150  1.4480 -0.5302 -0.1753
  764MOL0     H 3133   8.880   8.100   2.010 -0.4382  1.5895 -1.7462
  764MOL0     H 3134   8.835   8.366   2.028 -4.1378 -0.6135  1.9174
  764MOL0     H 3135   8.955   8.356   2.156  1.3921 -1.3408 -0.9194
  764MOL0     H 3136   8.727   8.391   2.228  1.9169 -0.0251  1.1263
  764MOL0     H 3137   8.787   8.247   2.309 -0.3331 -0.3144 -0.2561
  764MOL0     H 3138   8.471   8.104   2.060 -1.8857  0.2356  0.5414
  764MOL0     H 3139   8.893   8.320   1.640  1.6735 -1.8694 -2.6926
  764MOL0     H 3140   8.953   8.503   1.496  0.8789 -0.7639 -0.3442
  765MOL0     O 3141   2.918   5.352   8.831  0.7321  0.4099 -0.2676
  765MOL0     C 3142   2.927   5.444   8.912  0.3537  0.1155  0.1959
  765MOL0     O 3143   2.920   5.434   9.045 -0.0369  0.2899  0.2722
  765MOL0     C 3144   2.884   5.309   9.091 -0.1118  0.1132 -0.3891
  765MOL0     C 3145   2.959   5.195   9.065 -0.1400  1.3083 -0.1934
  765MOL0     C 3146   2.904   5.068   9.085 -0.2148 -0.3520 -0.6596
  765MOL0     C 3147   2.793   5.060   9.170  0.3393 -0.0302  0.2809
  765MOL0     O 3148   2.744   4.932   9.200 -0.5140 -0.5008 -0.4957
  765MOL0     C 3149   2.831   4.820   9.226  0.9746  0.4833 -0.5217
  765MOL0     C 3150   2.862   4.809   9.377 -0.0796  0.1260 -0.5786
  765MOL0     C 3151   2.764   4.888   9.474 -0.3171  0.2041  0.0329
  765MOL0     C 3152   2.627   4.828   9.477 -0.4376  0.3429  0.2629
  765MOL0     C 3153   2.539   4.905   9.584 -0.8515 -0.2882 -0.2164
  765MOL0     C 3154   2.396   4.850   9.570  0.7767 -0.0286  0.1703
  765MOL0     C 3155   2.365   4.755   9.684  0.1497  0.6167  0.5430
  765MOL0     C 3156   2.225   4.701   9.690  0.1865  0.0850  0.2998
  765MOL0     N 3157   2.198   4.606   9.796 -0.4909 -0.2392 -0.2410
  765MOL0     C 3158   2.120   4.623   9.909 -0.2334  0.6095 -0.1084
  765MOL0     C 3159   2.132   4.497   9.975 -0.2047 -0.1374  0.7870
  765MOL0     C 3160   2.076   4.486  10.113  0.4032 -0.5908  0.4490
  765MOL0     C 3161   2.164   4.399  10.201  0.4700  0.3374 -0.3566
  765MOL0     C 3162   2.081   4.354  10.326  0.1085 -0.3522  0.3471
  765MOL0     C 3163   2.169   4.287  10.419 -0.6599 -0.6650  0.0209
  765MOL0     O 3164   2.189   4.151  10.375 -0.7116 -0.6214 -0.2130
  765MOL0     C 3165   2.245   4.059  10.466  0.4244 -1.1871 -0.4166
  765MOL0     C 3166   2.293   4.078  10.593 -0.9843  0.2610 -1.0309
  765MOL0     C 3167   2.363   3.976  10.663 -0.0693  0.2440  0.4523
  765MOL0     C 3168   2.417   4.012  10.799  0.3787 -0.6465 -0.1370
  765MOL0     C 3169   2.359   3.846  10.606 -0.2756  0.2184 -0.4121
  765MOL0     C 3170   2.439   3.735  10.665  0.3056  1.9812 -0.2183
  765MOL0     O 3171   2.454   3.626  10.584  0.6649  0.4139 -0.0752
  765MOL0     C 3172   2.546   3.533  10.618  0.4676  0.9641 -0.1992
  765MOL0     C 3173   2.672   3.521  10.560 -0.5815 -0.3847  0.2714
  765MOL0     C 3174   2.764   3.430  10.612  0.0871  0.1129  0.4050
  765MOL0     C 3175   2.724   3.338  10.711  0.6009 -0.7886  0.0924
  765MOL0     O 3176   2.818   3.253  10.746 -0.6441  0.1446 -0.1681
  765MOL0     C 3177   2.829   3.220  10.884  0.0944 -0.0492  0.8094
  765MOL0     C 3178   2.782   3.078  10.920 -0.5304 -0.5697 -0.7593
  765MOL0     C 3179   2.852   2.980  10.837 -0.7150 -0.3416 -0.3329
  765MOL0     C 3180   3.002   2.984  10.830  0.3358 -0.4679 -0.7764
  765MOL0     C 3181   3.067   2.842  10.813  0.6851 -1.2156  0.2451
  765MOL0     C 3182   3.207   2.836  10.855  0.1890  0.5844 -0.2473
  765MOL0     C 3183   3.254   2.704  10.923  0.1473  0.1942  0.9352
  765MOL0     C 3184   3.394   2.706  10.983 -0.1531 -0.2112 -0.7397
  765MOL0    Cl 3185   3.469   2.544  10.955  0.0802 -0.0395 -0.1531
  765MOL0     C 3186   2.598   3.356  10.769 -0.2619  0.2609 -0.4473
  765MOL0     C 3187   2.510   3.450  10.723  1.0406 -0.1853  0.5620
  765MOL0     O 3188   2.470   3.736  10.779  0.6672 -0.3953 -0.6072
  765MOL0     C 3189   2.299   3.820  10.479 -0.9275 -0.7454  0.2823
  765MOL0     C 3190   2.244   3.930  10.408 -0.9696  1.2398 -0.3690
  765MOL0     N 3191   2.205   4.412   9.895 -0.4737  0.1011  0.1250
  765MOL0     N 3192   2.254   4.476   9.797  1.0748 -0.0434  0.8450
  765MOL0     C 3193   2.718   5.178   9.209  0.0845 -0.1377  0.0774
  765MOL0     C 3194   2.764   5.297   9.163  0.2023  0.9385 -0.4287
  765MOL0     C 3195   2.951   5.574   8.853  0.3617  0.2056 -0.0992
  765MOL0     C 3196   2.896   5.606   8.725 -0.3139  0.2634 -1.1544
  765MOL0     C 3197   2.916   5.739   8.674  0.2209  0.4385 -0.5474
  765MOL0     C 3198   3.008   5.826   8.740  0.6173  0.2092 -0.2441
  765MOL0     O 3199   3.034   5.958   8.691  0.1678 -0.2590  0.4177
  765MOL0     C 3200   3.065   5.988   8.549 -0.5541 -0.2558  0.0636
  765MOL0     C 3201   3.066   6.143   8.522 -0.0674  0.1743  0.2585
  765MOL0     C 3202   3.058   6.163   8.373 -0.4034 -0.3107  0.6651
  765MOL0     C 3203   3.075   6.313   8.332 -0.5504  0.1439  0.3732
  765MOL0     C 3204   3.226   6.345   8.324  0.3987 -0.5620  0.0190
  765MOL0     C 3205   3.335   6.393   8.281  0.9768  0.0615 -0.1199
  765MOL0     C 3206   3.056   5.795   8.869 -0.9170 -0.1048  1.5591
  765MOL0     C 3207   3.020   5.672   8.923  0.0776 -1.1473  0.2751
  765MOL0     H 3208   3.040   5.220   8.998 -1.3385  1.6262 -1.5794
  765MOL0     H 3209   2.954   4.981   9.043  1.4386  0.6158 -0.7836
  765MOL0     H 3210   2.786   4.722   9.206  0.8921  0.2382  0.7979
  765MOL0     H 3211   2.923   4.825   9.166  3.3225  1.6482  2.8901
  765MOL0     H 3212   2.869   4.706   9.412  2.2387  0.2744 -0.4231
  765MOL0     H 3213   2.960   4.855   9.398 -0.7653  0.0755  3.7799
  765MOL0     H 3214   2.806   4.878   9.574 -0.6897 -0.6815  0.1123
  765MOL0     H 3215   2.769   4.989   9.434  2.8250 -0.9329 -2.9710
  765MOL0     H 3216   2.590   4.856   9.378 -0.1716  1.4509  0.4545
  765MOL0     H 3217   2.624   4.719   9.477 -2.1506  0.1224 -4.4996
  765MOL0     H 3218   2.573   4.870   9.683 -1.7775 -1.9540 -0.4527
  765MOL0     H 3219   2.555   5.011   9.562  1.4692 -1.2736 -4.2379
  765MOL0     H 3220   2.323   4.931   9.558  1.2260  0.2155 -1.1256
  765MOL0     H 3221   2.380   4.792   9.478  0.8343  0.5847 -0.2300
  765MOL0     H 3222   2.434   4.671   9.679 -0.9488 -0.2699 -0.7210
  765MOL0     H 3223   2.386   4.802   9.780  2.7416  0.1175  0.2708
  765MOL0     H 3224   2.204   4.653   9.594 -0.9820 -1.4748  1.2771
  765MOL0     H 3225   2.157   4.787   9.691  0.5415  0.4609 -2.4821
  765MOL0     H 3226   2.073   4.713   9.946  1.0537  1.7808 -1.1855
  765MOL0     H 3227   2.069   4.586  10.158  1.2247  0.0287 -0.7157
  765MOL0     H 3228   1.977   4.443  10.095  0.5260  0.2218 -2.9486
  765MOL0     H 3229   2.262   4.443  10.223  1.0738 -1.8669  1.8503
  765MOL0     H 3230   2.192   4.304  10.154 -1.6878 -0.0735 -0.9384
  765MOL0     H 3231   1.994   4.303  10.283  0.4269  0.3452 -1.1847
  765MOL0     H 3232   2.038   4.441  10.377 -1.4918 -0.2428 -1.1081
  765MOL0     H 3233   2.118   4.296  10.516  0.2799  1.4852  0.3815
  765MOL0     H 3234   2.272   4.324  10.419 -0.9854  0.5117  2.9838
  765MOL0     H 3235   2.280   4.177  10.638 -2.2834 -0.8840  1.3049
  765MOL0     H 3236   2.522   3.984  10.795  0.6549  0.5107 -1.9673
  765MOL0     H 3237   2.419   4.119  10.821  3.4778 -1.1496  2.8248
  765MOL0     H 3238   2.355   3.957  10.871 -0.9034  0.6545 -0.2068
  765MOL0     H 3239   2.716   3.593  10.492 -0.6070  2.8993  3.4754
  765MOL0     H 3240   2.861   3.435  10.562 -1.6415  3.4039 -3.2109
  765MOL0     H 3241   2.936   3.218  10.905  0.1224  1.3405  0.8625
  765MOL0     H 3242   2.776   3.296  10.943 -2.2031  1.3805 -2.7453
  765MOL0     H 3243   2.809   3.064  11.025 -1.7310  2.1262 -0.0176
  765MOL0     H 3244   2.675   3.063  10.901 -0.0192 -1.8637 -2.8982
  765MOL0     H 3245   2.818   2.990  10.734 -0.0127  1.3504 -0.4334
  765MOL0     H 3246   2.818   2.882  10.873 -0.9145 -0.2857 -0.3670
  765MOL0     H 3247   3.030   3.050  10.747  0.2892  0.0367 -0.3946
  765MOL0     H 3248   3.041   3.033  10.920  0.4046  1.2748 -1.7041
  765MOL0     H 3249   3.052   2.826  10.706 -6.1653  0.5848  0.4773
  765MOL0     H 3250   3.008   2.776  10.878 -1.0248  0.1559  0.1760
  765MOL0     H 3251   3.275   2.860  10.772  0.9242 -1.3365 -0.2573
  765MOL0     H 3252   3.225   2.911  10.932  0.0146  0.7170 -0.3366
  765MOL0     H 3253   3.242   2.617  10.858  1.4421  2.2696 -2.3585
  765MOL0     H 3254   3.178   2.683  10.998 -1.0054 -1.0521 -0.5275
  765MOL0     H 3255   3.406   2.721  11.090 -0.3300  0.7300 -0.8512
  765MOL0     H 3256   3.458   2.782  10.938 -0.3578  2.0439  2.4752
  765MOL0     H 3257   2.574   3.295  10.856  0.8413 -2.1768 -1.7584
  765MOL0     H 3258   2.408   3.468  10.756  0.5671  0.1211 -1.0000
  765MOL0     H 3259   2.300   3.728  10.422 -1.7097 -0.5152 -0.1131
  765MOL0     H 3260   2.200   3.911  10.311  0.6384  1.8234 -1.2501
  765MOL0     H 3261   2.620   5.165   9.254 -1.1898  1.3312 -2.0689
  765MOL0     H 3262   2.705   5.387   9.176 -2.0274 -0.5025  0.0330
  765MOL0     H 3263   2.841   5.530   8.671 -2.4742  1.6282 -1.0071
  765MOL0     H 3264   2.888   5.763   8.572 -1.5099 -1.0415 -0.4835
  765MOL0     H 3265   3.164   5.945   8.533 -1.1378 -1.8145  0.4855
  765MOL0     H 3266   2.992   5.938   8.485 -1.3659 -0.5173  1.1484
  765MOL0     H 3267   3.161   6.192   8.544  0.9120 -1.2042 -0.7260
  765MOL0     H 3268   2.983   6.188   8.577 -1.0151  1.0288 -1.7631
  765MOL0     H 3269   2.962   6.124   8.339 -1.4009  2.5085 -0.1027
  765MOL0     H 3270   3.137   6.105   8.324 -1.3011 -0.7131 -0.3413
  765MOL0     H 3271   3.031   6.382   8.404 -0.2778  1.4868 -0.6970
  765MOL0     H 3272   3.039   6.332   8.230  1.7657 -1.7934 -0.9192
  765MOL0     H 3273   3.436   6.423   8.262  1.1355 -0.6050 -0.3498
  765MOL0     H 3274   3.119   5.862   8.927 -0.9243 -0.6903  2.2566
  765MOL0     H 3275   3.075   5.642   9.012  0.5859  1.2940  0.8606
  766MOL0     O 3276   5.051   8.598   9.443 -0.3110  0.1987 -0.3216
  766MOL0     C 3277   4.996   8.642   9.550  0.2810  0.2952  0.8360
  766MOL0     O 3278   4.907   8.751   9.552  0.4554  0.5254 -0.3531
  766MOL0     C 3279   4.888   8.812   9.433  0.1420 -0.5718  0.0628
  766MOL0     C 3280   4.965   8.926   9.399 -0.6641  0.0346  0.6192
  766MOL0     C 3281   4.949   8.998   9.276  0.8198 -0.1674 -1.2458
  766MOL0     C 3282   4.834   8.968   9.197 -0.1414 -0.2308  0.5987
  766MOL0     O 3283   4.817   9.039   9.071 -0.1607 -0.1073  0.4416
  766MOL0     C 3284   4.688   9.097   9.052 -0.7004  0.6477  0.8720
  766MOL0     C 3285   4.676   9.218   9.145 -0.1823 -0.3717  0.0812
  766MOL0     C 3286   4.754   9.336   9.093 -0.5177  0.1518 -0.0254
  766MOL0     C 3287   4.743   9.453   9.190  0.0016  0.2644  0.4645
  766MOL0     C 3288   4.834   9.574   9.151  0.5857  0.3740 -0.7942
  766MOL0     C 3289   4.979   9.539   9.174 -0.6061 -0.1081 -0.3278
  766MOL0     C 3290   5.058   9.659   9.123  0.4870 -0.4910 -1.0051
  766MOL0     C 3291   5.150   9.608   9.016 -0.5265  0.6578  0.1696
  766MOL0     N 3292   5.238   9.710   8.975 -0.4967 -0.4148 -0.3016
  766MOL0     C 3293   5.363   9.675   8.942  0.1858  0.2050 -0.0144
  766MOL0     C 3294   5.422   9.795   8.928 -0.2354 -0.5016  0.9306
  766MOL0     C 3295   5.564   9.824   8.876  0.5186  0.1050  0.1605
  766MOL0     C 3296   5.672   9.768   8.958 -0.3927  0.7904 -0.3613
  766MOL0     C 3297   5.813   9.801   8.910  1.4401 -0.3304 -0.1842
  766MOL0     C 3298   5.916   9.771   9.017  1.1198  1.1196 -0.0882
  766MOL0     O 3299   5.954   9.637   9.001 -0.3619  0.7377 -0.6370
  766MOL0     C 3300   6.078   9.596   9.058  0.6604  1.0860  0.1840
  766MOL0     C 3301   6.156   9.673   9.143 -0.9497 -0.5130  0.1566
  766MOL0     C 3302   6.275   9.629   9.202  0.3513  0.0308 -0.6561
  766MOL0     C 3303   6.352   9.737   9.282 -0.0240 -0.3338  0.0897
  766MOL0     C 3304   6.322   9.498   9.170 -0.3324 -0.8881 -0.3489
  766MOL0     C 3305   6.444   9.437   9.232 -0.5835 -0.1537 -0.1390
  766MOL0     O 3306   6.450   9.457   9.367 -0.1922  0.3968 -0.6363
  766MOL0     C 3307   6.569   9.439   9.438  0.4894  0.1165  0.3240
  766MOL0     C 3308   6.696   9.382   9.394  0.0647 -0.2496 -0.2446
  766MOL0     C 3309   6.807   9.373   9.477 -0.3596  1.0745 -0.4722
  766MOL0     C 3310   6.795   9.411   9.616  0.7329  1.1066  0.0217
  766MOL0     O 3311   6.895   9.412   9.714 -0.4191 -0.5704  0.3497
  766MOL0     C 3312   6.984   9.307   9.715  0.1236  0.1200  0.0785
  766MOL0     C 3313   7.036   9.280   9.851  0.2410 -0.6617 -1.0284
  766MOL0     C 3314   7.077   9.137   9.888 -0.4393  0.2077 -0.9975
  766MOL0     C 3315   7.194   9.087   9.819 -0.2417  0.4228 -0.1225
  766MOL0     C 3316   7.238   8.951   9.860 -0.6573 -0.5411  0.2601
  766MOL0     C 3317   7.378   8.902   9.803  0.5672 -0.2653 -0.1064
  766MOL0     C 3318   7.363   8.869   9.650 -0.0911  0.5144  0.3438
  766MOL0     C 3319   7.491   8.802   9.584  0.1142 -0.4997  0.3428
  766MOL0    Cl 3320   7.513   8.833   9.422 -0.2503  0.0503  0.0737
  766MOL0     C 3321   6.674   9.460   9.659 -0.2013  0.3112 -0.3413
  766MOL0     C 3322   6.572   9.475   9.573  0.8510  0.0126  0.9387
  766MOL0     O 3323   6.513   9.362   9.166  0.5231 -0.5666 -0.3827
  766MOL0     C 3324   6.249   9.421   9.076 -0.1509 -0.3306 -0.0904
  766MOL0     C 3325   6.128   9.471   9.020 -0.3645 -0.3220 -0.4785
  766MOL0     N 3326   5.329   9.894   8.928  0.4702  0.7157  0.6315
  766MOL0     N 3327   5.207   9.841   8.944 -0.0466 -0.0467 -0.3291
  766MOL0     C 3328   4.742   8.862   9.249 -0.1573 -0.5085 -0.4621
  766MOL0     C 3329   4.774   8.785   9.366 -1.2806 -0.2238 -0.5189
  766MOL0     C 3330   5.036   8.587   9.679 -0.1865  0.6218 -0.1720
  766MOL0     C 3331   5.162   8.535   9.712 -0.3164 -0.1188  0.4452
  766MOL0     C 3332   5.207   8.503   9.838  0.4091 -0.2319  0.9956
  766MOL0     C 3333   5.125   8.529   9.948 -0.5536 -0.4685 -1.2430
  766MOL0     O 3334   5.165   8.505  10.077  0.1910  0.1184  0.9720
  766MOL0     C 3335   5.296   8.481  10.107 -0.8705  0.6024 -0.2860
  766MOL0     C 3336   5.331   8.468  10.256  0.8748  0.7557  0.6741
  766MOL0     C 3337   5.478   8.410  10.277  0.0472  0.1846 -0.5125
  766MOL0     C 3338   5.498   8.336  10.414 -0.7889 -0.4940 -0.4762
  766MOL0     C 3339   5.463   8.196  10.405  0.5284 -0.2978  0.2420
  766MOL0     C 3340   5.430   8.083  10.391  0.1912  0.1604 -0.9150
  766MOL0     C 3341   5.001   8.590   9.925 -0.8751 -0.6461  0.1622
  766MOL0     C 3342   4.956   8.611   9.793 -0.3468  0.1037 -0.5757
  766MOL0     H 3343   5.064   8.939   9.440  0.1448  0.6130 -1.3657
  766MOL0     H 3344   5.005   9.085   9.244 -1.3183  2.0877  0.7717
  766MOL0     H 3345   4.690   9.127   8.947  1.4962  0.8222  0.9223
  766MOL0     H 3346   4.601   9.034   9.070 -1.7432  1.4473 -1.0627
  766MOL0     H 3347   4.570   9.246   9.147  0.2427  1.4108  2.7504
  766MOL0     H 3348   4.707   9.195   9.247 -0.5004 -4.0059 -0.4860
  766MOL0     H 3349   4.858   9.304   9.075 -0.2101 -0.4366  2.3800
  766MOL0     H 3350   4.709   9.371   9.000 -1.8080  0.7571  0.8096
  766MOL0     H 3351   4.639   9.488   9.187  0.2060  1.0030  1.4036
  766MOL0     H 3352   4.770   9.417   9.290  2.4793 -0.0396 -0.2464
  766MOL0     H 3353   4.815   9.598   9.046  0.3329 -1.1458 -1.1151
  766MOL0     H 3354   4.815   9.665   9.209  0.6599  0.2661 -0.5986
  766MOL0     H 3355   4.990   9.533   9.282  1.7259  1.6200 -0.3803
  766MOL0     H 3356   5.013   9.443   9.134 -0.6003 -0.6163  0.8816
  766MOL0     H 3357   4.989   9.740   9.097 -1.0227 -1.6669 -0.8369
  766MOL0     H 3358   5.125   9.695   9.202  1.8906 -4.3676 -0.2207
  766MOL0     H 3359   5.085   9.580   8.932 -1.6175 -3.1255  2.0674
  766MOL0     H 3360   5.205   9.519   9.047  1.0432  1.6904  0.4582
  766MOL0     H 3361   5.407   9.576   8.941 -2.5210 -1.0903 -0.4542
  766MOL0     H 3362   5.564   9.772   8.780 -0.7401 -1.3139  0.8801
  766MOL0     H 3363   5.563   9.932   8.854 -1.6642 -0.1121 -1.0829
  766MOL0     H 3364   5.655   9.660   8.958  0.8912  0.5688 -0.2005
  766MOL0     H 3365   5.656   9.806   9.060 -0.3714  0.4274 -0.2189
  766MOL0     H 3366   5.809   9.909   8.894 -0.4221 -0.3737 -0.2962
  766MOL0     H 3367   5.832   9.750   8.815 -0.7902  1.4383 -1.7066
  766MOL0     H 3368   5.871   9.774   9.117 -2.1198 -0.8531 -1.3141
  766MOL0     H 3369   5.997   9.843   9.005 -0.4425  3.6679  3.0954
  766MOL0     H 3370   6.138   9.777   9.168  4.5146 -0.2148  5.1773
  766MOL0     H 3371   6.306   9.831   9.314  1.2885 -0.2748  2.0318
  766MOL0     H 3372   6.385   9.683   9.372  2.1273  0.7903  0.0376
  766MOL0     H 3373   6.442   9.772   9.230 -0.1674  2.2474  1.4215
  766MOL0     H 3374   6.703   9.359   9.288 -0.3109  1.4811 -0.6788
  766MOL0     H 3375   6.901   9.337   9.436 -0.8712 -0.6470 -0.2260
  766MOL0     H 3376   6.936   9.214   9.682  2.5400 -0.7589 -1.3151
  766MOL0     H 3377   7.057   9.330   9.637 -1.7723  1.0397 -1.5071
  766MOL0     H 3378   7.126   9.340   9.863 -0.3245  0.4429 -2.1153
  766MOL0     H 3379   6.965   9.329   9.917  1.7839  2.9433 -1.7821
  766MOL0     H 3380   6.992   9.075   9.856 -0.3550 -0.1130 -0.6101
  766MOL0     H 3381   7.095   9.112   9.993  3.8529  0.1842 -1.5723
  766MOL0     H 3382   7.176   9.073   9.712 -0.1703  0.5143 -0.1469
  766MOL0     H 3383   7.277   9.156   9.837  0.4501 -0.8683  2.1051
  766MOL0     H 3384   7.162   8.875   9.841 -1.3776 -0.0972  1.2556
  766MOL0     H 3385   7.245   8.949   9.969  2.2357 -1.7402  0.1318
  766MOL0     H 3386   7.454   8.977   9.827  0.0075  0.1540  0.4058
  766MOL0     H 3387   7.407   8.807   9.851  2.6223 -1.0814 -2.7139
  766MOL0     H 3388   7.353   8.960   9.590  0.0364 -0.1152 -0.6572
  766MOL0     H 3389   7.274   8.809   9.635 -0.2996  1.0950 -0.8650
  766MOL0     H 3390   7.496   8.694   9.604 -1.6078 -0.7436 -0.3068
  766MOL0     H 3391   7.578   8.841   9.638  0.9200 -1.9496  0.1543
  766MOL0     H 3392   6.650   9.482   9.763 -1.4860  0.3106 -0.6238
  766MOL0     H 3393   6.481   9.526   9.604  0.2755  1.0953 -2.1853
  766MOL0     H 3394   6.274   9.320   9.042 -4.3229 -1.0412 -1.6696
  766MOL0     H 3395   6.082   9.417   8.939 -2.7736  1.1689 -0.2166
  766MOL0     H 3396   4.653   8.842   9.190 -0.0992  0.8411 -1.0408
  766MOL0     H 3397   4.716   8.701   9.403 -1.1307  0.3223  1.0050
  766MOL0     H 3398   5.228   8.507   9.630  1.9265  1.2906  1.6853
  766MOL0     H 3399   5.308   8.465   9.847  0.9168  0.7260 -0.4413
  766MOL0     H 3400   5.317   8.385  10.060 -0.6326  1.1375 -1.3098
  766MOL0     H 3401   5.355   8.556  10.052 -0.5923 -0.4266 -1.4282
  766MOL0     H 3402   5.259   8.401  10.304  0.0532  0.0047 -1.4588
  766MOL0     H 3403   5.308   8.567  10.295  0.7643  0.7650  0.5877
  766MOL0     H 3404   5.540   8.501  10.280  0.6588 -0.2475  1.0745
  766MOL0     H 3405   5.509   8.340  10.199 -1.2862 -0.5451 -0.4074
  766MOL0     H 3406   5.468   8.396  10.500 -0.3737  0.0202 -0.6837
  766MOL0     H 3407   5.607   8.334  10.424 -0.8210 -1.9555 -0.2481
  766MOL0     H 3408   5.384   7.986  10.394 -1.5333  0.9484  1.3598
  766MOL0     H 3409   4.930   8.593  10.007  0.0906  1.2424  1.0104
  766MOL0     H 3410   4.861   8.661   9.780 -0.8986 -1.1038 -1.4428
  767MOL0     O 3411   8.879  11.437   4.189 -0.5979  0.1771  0.3049
  767MOL0     C 3412   8.972  11.393   4.254  0.0620 -0.0919  0.3085
  767MOL0     O 3413   8.960  11.333   4.372 -0.3903  0.8163  0.0838
  767MOL0     C 3414   8.841  11.352   4.443 -0.3136  0.8565 -0.8930
  767MOL0     C 3415   8.732  11.276   4.412  0.2608 -0.1099 -0.4866
  767MOL0     C 3416   8.611  11.291   4.490 -0.9401  0.2833 -1.4037
  767MOL0     C 3417   8.613  11.372   4.600  0.1070  0.1820 -1.1417
  767MOL0     O 3418   8.505  11.411   4.680 -0.3352 -0.4191  0.7468
  767MOL0     C 3419   8.377  11.408   4.618 -0.0532  0.1485  0.1064
  767MOL0     C 3420   8.313  11.279   4.667  0.7156 -0.5733  0.4203
  767MOL0     C 3421   8.159  11.258   4.625 -1.1748 -0.2076 -0.4640
  767MOL0     C 3422   8.100  11.142   4.702 -0.8703  0.3315  0.8371
  767MOL0     C 3423   8.011  11.051   4.607  0.5146 -0.4233  0.6942
  767MOL0     C 3424   7.905  10.977   4.699 -0.5652  0.4721  0.3031
  767MOL0     C 3425   7.804  10.898   4.616  0.0462 -0.1780 -1.0435
  767MOL0     C 3426   7.866  10.784   4.530  0.5201 -0.4727 -0.7077
  767MOL0     N 3427   7.759  10.717   4.456 -0.1883 -0.2190 -0.3842
  767MOL0     C 3428   7.689  10.776   4.350  0.1412  0.5091 -0.0159
  767MOL0     C 3429   7.631  10.677   4.283  0.3865 -0.6482  0.0502
  767MOL0     C 3430   7.527  10.680   4.167 -0.5882 -0.6740 -0.4752
  767MOL0     C 3431   7.400  10.761   4.212  0.3459  0.8186  0.2471
  767MOL0     C 3432   7.302  10.689   4.312  0.0499  1.1877  0.2588
  767MOL0     C 3433   7.212  10.783   4.368 -0.4057  0.4449 -0.5857
  767MOL0     O 3434   7.117  10.808   4.273 -0.3505  0.5802  0.5496
  767MOL0     C 3435   7.004  10.871   4.296 -0.3545  0.1514  0.4469
  767MOL0     C 3436   6.917  10.887   4.184 -0.0987  0.2617 -0.0118
  767MOL0     C 3437   6.797  10.947   4.200  0.0356 -0.6732 -0.3597
  767MOL0     C 3438   6.693  10.936   4.093  0.4094 -0.4835  0.4875
  767MOL0     C 3439   6.776  11.013   4.319  0.2742 -0.1177 -0.1378
  767MOL0     C 3440   6.646  11.077   4.342 -0.7351  1.0026 -0.4202
  767MOL0     O 3441   6.632  11.209   4.301 -0.4654  0.7591  0.1500
  767MOL0     C 3442   6.744  11.286   4.277 -0.8860 -0.2875 -0.1667
  767MOL0     C 3443   6.816  11.297   4.154  0.1856  0.0566  0.9180
  767MOL0     C 3444   6.936  11.378   4.149  0.8960 -0.2949  0.3967
  767MOL0     C 3445   6.978  11.451   4.265  0.2171  0.4850 -0.3389
  767MOL0     O 3446   7.102  11.514   4.248 -0.3202 -0.4898  0.0962
  767MOL0     C 3447   7.163  11.573   4.361 -0.0118 -0.1701 -0.5935
  767MOL0     C 3448   7.297  11.652   4.326 -0.2735  0.8460 -0.0477
  767MOL0     C 3449   7.289  11.754   4.220 -0.0007  0.2802 -0.4370
  767MOL0     C 3450   7.314  11.693   4.079  0.3157  0.4678  0.4362
  767MOL0     C 3451   7.287  11.795   3.973  0.4164  0.9251 -0.2251
  767MOL0     C 3452   7.243  11.747   3.835 -0.3179  0.1724 -0.2874
  767MOL0     C 3453   7.223  11.861   3.727  0.4177  0.4137  0.3459
  767MOL0     C 3454   7.350  11.953   3.708 -0.3556  0.1971 -0.1491
  767MOL0    Cl 3455   7.314  12.056   3.569  0.7783 -0.3017  0.0833
  767MOL0     C 3456   6.906  11.441   4.377 -0.0529 -0.4993 -0.4299
  767MOL0     C 3457   6.788  11.370   4.383  0.6170  0.7049 -0.1543
  767MOL0     O 3458   6.560  11.010   4.395 -0.8234 -0.0867  0.1531
  767MOL0     C 3459   6.860  11.010   4.431 -0.2495 -0.0365 -0.7790
  767MOL0     C 3460   6.971  10.920   4.422  0.5057 -0.1226 -0.3789
  767MOL0     N 3461   7.668  10.562   4.349  0.6062  0.1591  0.4120
  767MOL0     N 3462   7.761  10.588   4.434 -0.9563  0.2240  0.7046
  767MOL0     C 3463   8.730  11.448   4.625  0.2509 -0.0840  0.3332
  767MOL0     C 3464   8.841  11.440   4.544 -0.7455  0.4063 -0.0530
  767MOL0     C 3465   9.116  11.406   4.206 -0.3815  0.2716  1.6659
  767MOL0     C 3466   9.225  11.411   4.293 -0.1571 -0.5866  0.0974
  767MOL0     C 3467   9.358  11.433   4.261 -0.1576 -0.0289  0.5785
  767MOL0     C 3468   9.393  11.449   4.126  0.2683  0.1126 -0.3243
  767MOL0     O 3469   9.533  11.460   4.109 -0.1608 -0.5840 -0.7984
  767MOL0     C 3470   9.568  11.528   3.984  0.6617  0.0069  0.2727
  767MOL0     C 3471   9.686  11.611   4.017  1.0113 -0.2297 -0.3011
  767MOL0     C 3472   9.713  11.727   3.919  0.0079 -0.0122 -1.0098
  767MOL0     C 3473   9.738  11.666   3.779  0.0174  0.0402 -0.0168
  767MOL0     C 3474   9.835  11.744   3.697  0.6877 -1.2734 -0.3551
  767MOL0     C 3475   9.919  11.814   3.641 -0.0813 -0.1491 -0.2225
  767MOL0     C 3476   9.294  11.443   4.034  0.4212  0.5530 -0.0834
  767MOL0     C 3477   9.160  11.416   4.074 -0.4578  0.6308  0.2639
  767MOL0     H 3478   8.752  11.214   4.325  3.2662 -0.8669  0.6227
  767MOL0     H 3479   8.516  11.242   4.469 -2.0260 -0.0875  3.3007
  767MOL0     H 3480   8.327  11.503   4.641 -1.3303 -1.1168  2.9400
  767MOL0     H 3481   8.386  11.406   4.509  0.9705 -0.2320  0.1892
  767MOL0     H 3482   8.370  11.191   4.634  1.3886  0.5181 -1.4503
  767MOL0     H 3483   8.327  11.290   4.775 -0.5463 -2.5250  0.8251
  767MOL0     H 3484   8.102  11.350   4.641 -1.3446  0.0409 -2.2801
  767MOL0     H 3485   8.154  11.241   4.517 -1.6273 -0.3747 -0.4190
  767MOL0     H 3486   8.173  11.076   4.750  1.1782  1.4742 -0.5836
  767MOL0     H 3487   8.042  11.173   4.790 -2.0818 -3.6196  1.6307
  767MOL0     H 3488   7.961  11.104   4.525  1.6416  0.3879  0.5031
  767MOL0     H 3489   8.075  10.985   4.549  1.0978  1.7478 -1.2930
  767MOL0     H 3490   7.953  10.908   4.769 -1.0104  0.3681  0.5051
  767MOL0     H 3491   7.852  11.048   4.762 -1.3448  2.6437 -2.5710
  767MOL0     H 3492   7.728  10.857   4.683  0.7204 -0.6522 -0.5466
  767MOL0     H 3493   7.747  10.974   4.561 -0.8348  0.8563  1.2118
  767MOL0     H 3494   7.919  10.715   4.596 -4.0873  0.0197  4.1345
  767MOL0     H 3495   7.946  10.831   4.471  0.9876  2.2009  1.7797
  767MOL0     H 3496   7.670  10.881   4.330 -6.4010 -0.4307 -1.0141
  767MOL0     H 3497   7.572  10.725   4.078  0.1048 -0.2935  0.0516
  767MOL0     H 3498   7.496  10.576   4.159 -0.4123 -1.0499  2.4228
  767MOL0     H 3499   7.329  10.785   4.132 -1.0167 -3.1718  0.0769
  767MOL0     H 3500   7.437  10.857   4.250 -0.0623  0.5138  1.4541
  767MOL0     H 3501   7.359  10.643   4.393 -3.0984 -3.8009  0.0525
  767MOL0     H 3502   7.236  10.609   4.278 -0.4056 -0.7978  5.0937
  767MOL0     H 3503   7.270  10.869   4.404  1.8606 -1.0714 -0.3605
  767MOL0     H 3504   7.169  10.736   4.457  1.3542  0.0009  0.0853
  767MOL0     H 3505   6.946  10.844   4.088  0.5911 -0.2763  0.4236
  767MOL0     H 3506   6.596  10.972   4.130  0.2857 -0.1835 -0.1004
  767MOL0     H 3507   6.720  11.000   4.008  0.1356 -1.9920 -0.7690
  767MOL0     H 3508   6.679  10.836   4.052 -3.9033  0.0279  0.2393
  767MOL0     H 3509   6.804  11.231   4.070  0.6445  2.3455 -1.0468
  767MOL0     H 3510   7.001  11.368   4.064  3.3794  0.0829  2.1462
  767MOL0     H 3511   7.089  11.641   4.404  0.6587 -1.0706  2.1915
  767MOL0     H 3512   7.188  11.507   4.445  0.6175  2.4464  1.4115
  767MOL0     H 3513   7.332  11.699   4.418  2.3185  1.2712 -1.1621
  767MOL0     H 3514   7.381  11.583   4.311 -0.0017  0.8707  1.2184
  767MOL0     H 3515   7.370  11.825   4.238 -0.1105  0.1960  0.4362
  767MOL0     H 3516   7.191  11.801   4.225  0.4930  1.2341  2.8780
  767MOL0     H 3517   7.418  11.661   4.077 -0.0158 -0.6571 -1.5403
  767MOL0     H 3518   7.252  11.603   4.064  0.4188  0.3335  0.7938
  767MOL0     H 3519   7.383  11.845   3.957  0.8206  0.6457  1.2389
  767MOL0     H 3520   7.217  11.871   4.008  0.3984 -0.3762  2.8217
  767MOL0     H 3521   7.322  11.682   3.798 -1.3123 -0.2858 -1.6950
  767MOL0     H 3522   7.148  11.692   3.837 -0.2633 -0.1286 -2.6100
  767MOL0     H 3523   7.143  11.923   3.767  1.4904  0.7446  2.1136
  767MOL0     H 3524   7.183  11.815   3.636  0.7412 -0.6513  0.7274
  767MOL0     H 3525   7.444  11.898   3.693  0.3593  0.9715  1.2269
  767MOL0     H 3526   7.380  12.004   3.801  1.9682 -3.4960  1.3920
  767MOL0     H 3527   6.944  11.482   4.470  0.4915 -1.8573 -0.0303
  767MOL0     H 3528   6.739  11.359   4.479 -1.0009 -1.9265 -1.1570
  767MOL0     H 3529   6.838  11.050   4.530  2.9151  1.9613 -0.7371
  767MOL0     H 3530   7.030  10.899   4.511 -0.4171  1.4260  0.6396
  767MOL0     H 3531   8.742  11.519   4.706  3.8745  0.3751 -0.4018
  767MOL0     H 3532   8.935  11.492   4.559 -0.3663 -0.0545 -0.7550
  767MOL0     H 3533   9.199  11.417   4.398  0.0691 -1.1839  0.1915
  767MOL0     H 3534   9.435  11.441   4.337 -0.2937 -0.7041  0.7989
  767MOL0     H 3535   9.604  11.455   3.911 -1.7605 -1.4397  0.4218
  767MOL0     H 3536   9.490  11.591   3.940  1.7193  1.6680  0.7116
  767MOL0     H 3537   9.767  11.539   4.032  0.7121 -0.8580 -1.5776
  767MOL0     H 3538   9.662  11.662   4.111  0.3798  0.0896 -0.6249
  767MOL0     H 3539   9.798  11.781   3.963  0.4450 -0.7011 -1.0021
  767MOL0     H 3540   9.629  11.797   3.910  2.0079  2.2650 -4.7013
  767MOL0     H 3541   9.646  11.644   3.726  0.3220 -2.1999  0.3055
  767MOL0     H 3542   9.782  11.567   3.791  0.3073  0.3777  2.3603
  767MOL0     H 3543   9.984  11.882   3.590  1.8192  1.2632  3.7212
  767MOL0     H 3544   9.306  11.434   3.926  0.3954 -0.8606  0.0095
  767MOL0     H 3545   9.083  11.403   3.998 -1.6184  1.6626  1.2288
  768MOL0     O 3546   5.835   6.301   0.290  0.2614  0.5490  0.8857
  768MOL0     C 3547   5.764   6.260   0.189  0.3410  0.6891 -0.0633
  768MOL0     O 3548   5.817   6.188   0.085  0.1297 -1.0917 -0.0129
  768MOL0     C 3549   5.957   6.166   0.083  0.2719 -0.5791  1.1255
  768MOL0     C 3550   6.038   6.279   0.071  0.3179 -0.6250 -0.1816
  768MOL0     C 3551   6.176   6.265   0.079 -0.1035 -0.2222  0.9790
  768MOL0     C 3552   6.236   6.140   0.082  0.7203 -0.2073 -0.1056
  768MOL0     O 3553   6.372   6.141   0.093  0.3641 -0.3798 -0.3449
  768MOL0     C 3554   6.450   6.088  -0.014 -0.0543  0.0021 -0.1851
  768MOL0     C 3555   6.450   6.199  -0.113  1.0687 -0.2552  0.0015
  768MOL0     C 3556   6.573   6.203  -0.202 -0.8403  0.3217  0.8589
  768MOL0     C 3557   6.550   6.300  -0.320 -1.1475 -0.5431 -0.4666
  768MOL0     C 3558   6.687   6.356  -0.368 -0.6499  0.1547 -0.0929
  768MOL0     C 3559   6.771   6.255  -0.460  0.6145 -0.0290 -0.7868
  768MOL0     C 3560   6.886   6.313  -0.545  0.1250 -0.8398 -0.0033
  768MOL0     C 3561   6.995   6.384  -0.463  0.2188 -0.2772 -0.5165
  768MOL0     N 3562   7.101   6.443  -0.541 -0.2030  0.4708 -0.3630
  768MOL0     C 3563   7.237   6.416  -0.538 -0.0078  0.0356  0.2789
  768MOL0     C 3564   7.291   6.498  -0.627 -0.8312 -0.2448 -0.4277
  768MOL0     C 3565   7.434   6.494  -0.660  0.4299 -0.0031  0.7894
  768MOL0     C 3566   7.471   6.365  -0.741 -0.2185 -0.1533  0.5958
  768MOL0     C 3567   7.629   6.332  -0.754 -0.1100  0.1603  0.6789
  768MOL0     C 3568   7.727   6.419  -0.842 -1.0013 -0.1320 -0.1415
  768MOL0     O 3569   7.694   6.413  -0.984 -0.1187  0.1431  0.8123
  768MOL0     C 3570   7.738   6.315  -1.075  0.2142  0.7652  0.7118
  768MOL0     C 3571   7.833   6.211  -1.044 -0.5367  0.0496  0.0854
  768MOL0     C 3572   7.880   6.122  -1.143 -0.8799 -0.2138  0.5567
  768MOL0     C 3573   7.994   6.032  -1.093 -0.0618 -0.0525 -0.8575
  768MOL0     C 3574   7.825   6.130  -1.271  0.7756 -1.5818  0.1841
  768MOL0     C 3575   7.876   6.055  -1.383 -0.3541  0.1679 -0.4412
  768MOL0     O 3576   7.999   5.986  -1.363 -0.0326  0.3281  0.4094
  768MOL0     C 3577   8.067   5.914  -1.464 -0.7596  0.3435 -0.4045
  768MOL0     C 3578   8.022   5.874  -1.591 -0.2711 -0.0638  0.2256
  768MOL0     C 3579   8.107   5.807  -1.673 -0.1828 -0.1906 -0.1425
  768MOL0     C 3580   8.237   5.771  -1.642 -0.2017 -0.5162  0.8369
  768MOL0     O 3581   8.317   5.707  -1.739  0.4632  0.1901 -0.6563
  768MOL0     C 3582   8.444   5.659  -1.692 -0.5396  0.0253  0.6912
  768MOL0     C 3583   8.527   5.618  -1.807 -1.0122 -0.3521  0.4138
  768MOL0     C 3584   8.679   5.600  -1.771 -0.2746  0.0893  0.7754
  768MOL0     C 3585   8.756   5.601  -1.898  0.0073 -1.0509  0.6710
  768MOL0     C 3586   8.911   5.614  -1.883  0.4777  0.0289 -0.2136
  768MOL0     C 3587   8.980   5.637  -2.016  0.6066  0.1980  1.1260
  768MOL0     C 3588   9.139   5.651  -1.992  0.3739 -0.8260  0.3362
  768MOL0     C 3589   9.234   5.684  -2.115  0.1831 -0.2719  0.3573
  768MOL0    Cl 3590   9.198   5.568  -2.255 -0.0628 -0.1170 -0.2428
  768MOL0     C 3591   8.275   5.795  -1.512  1.0805  0.9489  0.4859
  768MOL0     C 3592   8.197   5.869  -1.421  0.8549 -0.1978  1.3485
  768MOL0     O 3593   7.807   6.046  -1.482 -0.2346 -0.3885 -0.2942
  768MOL0     C 3594   7.739   6.236  -1.302  0.9952 -0.2360 -0.0906
  768MOL0     C 3595   7.685   6.316  -1.200  0.7329  1.0245 -0.4393
  768MOL0     N 3596   7.198   6.584  -0.677  0.1985  0.3443  0.1059
  768MOL0     N 3597   7.084   6.550  -0.622  0.3550  0.5497  0.2799
  768MOL0     C 3598   6.157   6.027   0.094 -0.1328  1.0797  0.1790
  768MOL0     C 3599   6.020   6.043   0.090  0.1575  0.0606  0.8326
  768MOL0     C 3600   5.618   6.290   0.172 -0.1534 -0.9139  0.0761
  768MOL0     C 3601   5.517   6.208   0.118 -0.7344 -0.7313  0.1093
  768MOL0     C 3602   5.389   6.231   0.140  0.2293 -0.4907  1.5916
  768MOL0     C 3603   5.338   6.347   0.187 -0.2367 -0.1866  0.7925
  768MOL0     O 3604   5.201   6.372   0.215 -0.3770  0.2644  0.5819
  768MOL0     C 3605   5.114   6.289   0.140  0.5708 -0.3055 -0.0816
  768MOL0     C 3606   4.969   6.333   0.149 -0.4675  0.3570 -0.9579
  768MOL0     C 3607   4.853   6.260   0.080 -0.4408  0.2490 -1.0889
  768MOL0     C 3608   4.721   6.343   0.109  0.0788 -0.0440  0.4824
  768MOL0     C 3609   4.680   6.408  -0.014 -0.5269  0.8211  0.2513
  768MOL0     C 3610   4.638   6.474  -0.115 -0.2229  0.6528 -0.0190
  768MOL0     C 3611   5.433   6.447   0.224  0.2973 -0.1605  0.1128
  768MOL0     C 3612   5.571   6.415   0.221 -0.2449 -0.7190 -0.0509
  768MOL0     H 3613   5.996   6.379   0.062 -1.1129 -1.1886 -0.1031
  768MOL0     H 3614   6.249   6.346   0.069 -1.2810  0.6713 -1.0456
  768MOL0     H 3615   6.552   6.059   0.009 -0.3518 -2.1369 -1.3206
  768MOL0     H 3616   6.405   5.996  -0.053  0.7574  0.4824 -2.4514
  768MOL0     H 3617   6.362   6.199  -0.179  2.5803  1.0970 -2.1680
  768MOL0     H 3618   6.460   6.292  -0.055  3.7914 -0.8012  0.5410
  768MOL0     H 3619   6.667   6.220  -0.149 -0.2454 -0.4676  0.0821
  768MOL0     H 3620   6.583   6.107  -0.252 -1.5942  1.1416 -0.9593
  768MOL0     H 3621   6.498   6.248  -0.400 -2.9526 -1.6232  1.3187
  768MOL0     H 3622   6.487   6.383  -0.285  1.0730  0.6913  0.8414
  768MOL0     H 3623   6.664   6.443  -0.430 -0.2850  1.6845  1.8123
  768MOL0     H 3624   6.743   6.397  -0.284  0.9473 -0.5710 -0.7458
  768MOL0     H 3625   6.796   6.170  -0.395  0.4726  0.9639  0.6147
  768MOL0     H 3626   6.698   6.215  -0.531  0.3495  1.7314 -1.5500
  768MOL0     H 3627   6.947   6.244  -0.605 -1.3904 -1.0700 -1.3638
  768MOL0     H 3628   6.839   6.379  -0.619 -1.1254 -0.3054  1.2291
  768MOL0     H 3629   7.025   6.316  -0.383 -0.6353 -0.1186 -0.0597
  768MOL0     H 3630   6.962   6.474  -0.410 -0.2478 -0.8429  0.1742
  768MOL0     H 3631   7.280   6.331  -0.485  3.2516  1.3164 -0.0835
  768MOL0     H 3632   7.476   6.575  -0.720  4.3287 -2.2511  0.1991
  768MOL0     H 3633   7.478   6.484  -0.561 -0.2749 -1.4006  0.9799
  768MOL0     H 3634   7.429   6.393  -0.838 -3.5746 -2.3205  1.2875
  768MOL0     H 3635   7.424   6.273  -0.707  0.5166 -1.1242 -0.8985
  768MOL0     H 3636   7.642   6.234  -0.802 -1.4677  0.7228 -0.9326
  768MOL0     H 3637   7.666   6.317  -0.653 -1.0312 -3.4166  0.6069
  768MOL0     H 3638   7.833   6.398  -0.825  0.0026  3.0849 -1.5371
  768MOL0     H 3639   7.724   6.524  -0.812 -0.6599 -0.2090  0.1700
  768MOL0     H 3640   7.870   6.209  -0.942  0.9661  1.8547 -0.3621
  768MOL0     H 3641   7.963   5.927  -1.090  1.1799 -0.4110  0.9668
  768MOL0     H 3642   8.089   6.048  -1.145  0.8964  2.1391  1.3792
  768MOL0     H 3643   8.009   6.047  -0.986 -0.7863 -0.4657 -0.6910
  768MOL0     H 3644   7.920   5.893  -1.622  0.8163  4.1218 -1.3739
  768MOL0     H 3645   8.075   5.775  -1.772  0.8873  1.4890 -1.0800
  768MOL0     H 3646   8.508   5.733  -1.643  0.1094  0.2229 -0.4233
  768MOL0     H 3647   8.432   5.572  -1.626  2.8525 -2.5523 -1.7040
  768MOL0     H 3648   8.493   5.522  -1.847 -1.0582  0.5114 -1.7622
  768MOL0     H 3649   8.518   5.695  -1.885 -3.1220 -2.9582 -2.1558
  768MOL0     H 3650   8.692   5.504  -1.720 -2.7480 -2.4590 -2.8907
  768MOL0     H 3651   8.722   5.673  -1.702 -0.7954  0.5216  0.6558
  768MOL0     H 3652   8.747   5.508  -1.955  1.4298 -1.7564  1.5300
  768MOL0     H 3653   8.715   5.686  -1.952  2.1304  1.7927  3.1739
  768MOL0     H 3654   8.961   5.527  -1.840  0.5464 -0.8241 -1.9549
  768MOL0     H 3655   8.932   5.696  -1.813  1.7736 -1.0190  0.6799
  768MOL0     H 3656   8.967   5.562  -2.094  0.0008 -0.0030  1.4174
  768MOL0     H 3657   8.940   5.730  -2.056 -0.5152  0.1449  2.0830
  768MOL0     H 3658   9.158   5.549  -1.956  1.5810 -1.3295 -1.5745
  768MOL0     H 3659   9.168   5.725  -1.917  1.1141  3.4800 -3.7288
  768MOL0     H 3660   9.340   5.670  -2.089  0.3551 -0.4635 -0.4255
  768MOL0     H 3661   9.225   5.789  -2.146  2.4532 -0.6856 -2.0481
  768MOL0     H 3662   8.377   5.775  -1.481  1.3463 -1.2023 -1.4628
  768MOL0     H 3663   8.227   5.905  -1.323  0.3225  0.1433  1.3907
  768MOL0     H 3664   7.701   6.237  -1.404  1.3408 -3.4334 -0.3338
  768MOL0     H 3665   7.599   6.379  -1.217  0.5108  0.8648  0.0910
  768MOL0     H 3666   6.205   5.929   0.088  1.3738  1.8586 -2.2115
  768MOL0     H 3667   5.946   5.964   0.084  0.1431  0.1542 -0.6273
  768MOL0     H 3668   5.544   6.118   0.064  1.0618 -2.1838  3.1946
  768MOL0     H 3669   5.332   6.150   0.095  3.1492 -1.3190 -0.9333
  768MOL0     H 3670   5.159   6.278   0.041  4.0553  1.6059  1.1346
  768MOL0     H 3671   5.115   6.186   0.178  0.3464  0.1012  1.0836
  768MOL0     H 3672   4.975   6.428   0.095  4.8950  0.8203 -0.0394
  768MOL0     H 3673   4.940   6.344   0.254  1.9810  1.1797 -0.3102
  768MOL0     H 3674   4.846   6.159   0.122 -1.4217  0.7425 -0.0039
  768MOL0     H 3675   4.878   6.250  -0.026  0.2845  3.2675 -1.3009
  768MOL0     H 3676   4.738   6.421   0.183 -2.2448  1.5597 -0.5382
  768MOL0     H 3677   4.642   6.272   0.138 -1.2749  1.3285  0.2942
  768MOL0     H 3678   4.606   6.541  -0.192 -1.3323  0.3058  0.1235
  768MOL0     H 3679   5.394   6.536   0.273 -3.4706 -1.4262 -0.2021
  768MOL0     H 3680   5.639   6.481   0.275 -1.4313 -1.9875  3.2909
  769MOL0     O 3681   2.505  10.033   5.697  0.0041 -0.4996 -0.9722
  769MOL0     C 3682   2.545  10.147   5.739  0.4878  0.7092  0.5016
  769MOL0     O 3683   2.487  10.266   5.702 -0.8420 -1.2154 -0.2457
  769MOL0     C 3684   2.376  10.271   5.614 -0.6021  0.6383 -0.2089
  769MOL0     C 3685   2.257  10.190   5.622 -0.1893  0.1984 -0.1811
  769MOL0     C 3686   2.158  10.188   5.527  0.8462 -1.0340  0.4322
  769MOL0     C 3687   2.161  10.274   5.414  0.3729  0.3984  0.7132
  769MOL0     O 3688   2.057  10.284   5.325 -0.1499  0.4784  1.1325
  769MOL0     C 3689   2.079  10.197   5.210  0.4449 -0.8354 -0.4491
  769MOL0     C 3690   2.149  10.274   5.095  0.6020 -0.6265 -0.6929
  769MOL0     C 3691   2.064  10.386   5.034  0.5177 -0.6684  0.2112
  769MOL0     C 3692   2.079  10.395   4.879  0.3100  0.6577 -0.5817
  769MOL0     C 3693   2.027  10.512   4.805 -0.3293  0.3113 -0.9546
  769MOL0     C 3694   1.874  10.542   4.821 -0.7100 -0.5288 -0.0018
  769MOL0     C 3695   1.800  10.574   4.687  1.3274 -0.1688  0.1314
  769MOL0     C 3696   1.856  10.691   4.606  0.7382  0.6271  0.2214
  769MOL0     N 3697   1.761  10.730   4.493 -0.5338 -0.4960  0.1213
  769MOL0     C 3698   1.797  10.755   4.365 -0.0426  0.4838 -0.0196
  769MOL0     C 3699   1.701  10.838   4.320 -0.1539 -0.5315  0.6982
  769MOL0     C 3700   1.684  10.901   4.180 -0.6548 -0.1192  0.6795
  769MOL0     C 3701   1.807  10.953   4.124 -0.0494 -0.6195 -0.7419
  769MOL0     C 3702   1.857  11.087   4.190  0.1979  0.4378 -0.1695
  769MOL0     C 3703   2.006  11.101   4.175 -0.0518  1.4275  0.8700
  769MOL0     O 3704   2.074  10.996   4.242  0.4512  0.8700 -0.5743
  769MOL0     C 3705   2.075  10.986   4.381 -0.5856 -0.5209  0.5406
  769MOL0     C 3706   2.039  11.099   4.461 -0.1120 -0.2760  0.8568
  769MOL0     C 3707   2.060  11.088   4.600  0.4394 -0.7821  0.2403
  769MOL0     C 3708   1.977  11.184   4.690 -0.6584  0.1233 -0.5611
  769MOL0     C 3709   2.105  10.967   4.654 -0.3203  0.0188 -0.4723
  769MOL0     C 3710   2.117  10.944   4.800 -0.7596  0.1224  0.5220
  769MOL0     O 3711   2.197  11.027   4.874 -0.7393 -0.0318  0.0625
  769MOL0     C 3712   2.263  10.979   4.983 -0.3279 -0.0844  0.5102
  769MOL0     C 3713   2.343  11.078   5.037  0.4893  0.0358 -0.4925
  769MOL0     C 3714   2.421  11.050   5.143 -0.9825  0.3735 -0.4889
  769MOL0     C 3715   2.412  10.919   5.205 -0.3278  0.8490 -0.2740
  769MOL0     O 3716   2.513  10.877   5.296 -0.4270 -0.0586 -0.2043
  769MOL0     C 3717   2.569  10.976   5.398  0.5289  2.1453  0.6423
  769MOL0     C 3718   2.460  11.019   5.504  0.1204  0.4115  0.3578
  769MOL0     C 3719   2.391  10.913   5.581 -1.2762 -0.6628  0.0798
  769MOL0     C 3720   2.476  10.874   5.701  0.6607 -0.3564 -0.1127
  769MOL0     C 3721   2.400  10.782   5.805 -0.5072 -0.4216 -0.6546
  769MOL0     C 3722   2.354  10.653   5.738  0.2219 -0.6706  0.3764
  769MOL0     C 3723   2.273  10.557   5.833  0.6985  0.4720 -0.1250
  769MOL0     C 3724   2.365  10.488   5.939 -0.7043  0.2407 -0.5235
  769MOL0    Cl 3725   2.265  10.373   6.037  0.3047 -0.0798  0.3729
  769MOL0     C 3726   2.326  10.822   5.154 -0.1368  0.0011 -0.1948
  769MOL0     C 3727   2.246  10.853   5.043 -0.2447 -0.0938  0.2581
  769MOL0     O 3728   2.048  10.855   4.846 -0.0410  0.1941  0.2859
  769MOL0     C 3729   2.156  10.866   4.569  0.1554 -0.6127  0.4860
  769MOL0     C 3730   2.136  10.876   4.433 -0.8973 -0.6595 -0.5863
  769MOL0     N 3731   1.597  10.845   4.408  0.0410  0.2456  0.2063
  769MOL0     N 3732   1.637  10.780   4.513  0.5846 -0.4855 -0.2656
  769MOL0     C 3733   2.273  10.362   5.401 -0.1513  0.2191  0.5370
  769MOL0     C 3734   2.374  10.365   5.506 -0.5721 -0.6880 -0.4560
  769MOL0     C 3735   2.660  10.155   5.833 -0.3253 -0.2468 -0.2689
  769MOL0     C 3736   2.702  10.281   5.887  0.5567  0.3558 -0.1489
  769MOL0     C 3737   2.810  10.292   5.978 -0.3137  0.5889 -0.3286
  769MOL0     C 3738   2.872  10.171   6.020  0.3441  0.3179 -0.4350
  769MOL0     O 3739   2.961  10.197   6.119 -0.1683 -0.1030  0.4210
  769MOL0     C 3740   3.015  10.082   6.195 -0.3382 -0.0303  0.0558
  769MOL0     C 3741   3.114  10.123   6.302  0.0044 -0.4739 -0.0629
  769MOL0     C 3742   3.046  10.151   6.430 -0.2108 -0.3591  0.9968
  769MOL0     C 3743   3.148  10.204   6.522  0.3325 -0.1649  0.2779
  769MOL0     C 3744   3.092  10.195   6.661 -0.0117  0.5633  0.5537
  769MOL0     C 3745   3.067  10.177   6.774 -0.7720 -0.0783 -0.8684
  769MOL0     C 3746   2.816  10.039   5.989  0.9406 -0.5872 -0.2131
  769MOL0     C 3747   2.720  10.041   5.887 -0.4036 -0.1642  0.7656
  769MOL0     H 3748   2.239  10.130   5.711 -0.0946 -0.3427 -0.5199
  769MOL0     H 3749   2.057  10.150   5.541 -1.2368  3.8488  0.8408
  769MOL0     H 3750   2.137  10.110   5.245 -1.8412 -1.8054  1.1839
  769MOL0     H 3751   1.984  10.149   5.184 -0.1140  2.4650 -6.2458
  769MOL0     H 3752   2.234  10.332   5.132 -2.4377  4.1071 -0.3125
  769MOL0     H 3753   2.185  10.211   5.012  2.4511  1.0883 -1.2667
  769MOL0     H 3754   1.960  10.360   5.058 -0.1271  1.8939  0.4402
  769MOL0     H 3755   2.095  10.484   5.070  1.4393 -0.4930 -0.9947
  769MOL0     H 3756   2.187  10.394   4.867  0.0846 -0.6142 -3.1420
  769MOL0     H 3757   2.030  10.310   4.831  2.8473 -1.0551 -0.3169
  769MOL0     H 3758   2.067  10.607   4.839 -3.3456  1.6700 -0.8561
  769MOL0     H 3759   2.046  10.505   4.698  1.0864 -0.0360 -0.6978
  769MOL0     H 3760   1.837  10.449   4.866 -0.3801 -1.9818 -2.5575
  769MOL0     H 3761   1.857  10.635   4.876  1.1112  0.3764 -0.8667
  769MOL0     H 3762   1.794  10.484   4.625 -1.7340 -0.9480  1.3838
  769MOL0     H 3763   1.695  10.594   4.709  1.9602  1.5710  1.8879
  769MOL0     H 3764   1.953  10.669   4.562  1.0118 -0.0884  1.1613
  769MOL0     H 3765   1.880  10.776   4.672  1.8197 -1.3512  2.5092
  769MOL0     H 3766   1.887  10.726   4.312  0.2021  3.0986 -1.2005
  769MOL0     H 3767   1.646  10.819   4.119 -0.2675 -0.8231  1.3645
  769MOL0     H 3768   1.609  10.981   4.188 -0.1281  0.3427  1.0831
  769MOL0     H 3769   1.796  10.963   4.016  0.7985 -1.5024 -0.9241
  769MOL0     H 3770   1.878  10.873   4.146  2.6710  2.3641  2.5572
  769MOL0     H 3771   1.825  11.099   4.293  0.5756  2.5728 -0.2534
  769MOL0     H 3772   1.820  11.169   4.128  1.4397  1.1858  0.0629
  769MOL0     H 3773   2.046  11.196   4.211  4.7860  0.8243 -1.9319
  769MOL0     H 3774   2.026  11.091   4.068  0.0876  1.4831  0.8913
  769MOL0     H 3775   1.996  11.193   4.428  2.0410 -0.0508 -1.6915
  769MOL0     H 3776   1.872  11.156   4.707 -0.8278  0.0153 -1.7445
  769MOL0     H 3777   2.036  11.196   4.782  0.3000  0.3438 -1.1917
  769MOL0     H 3778   1.980  11.282   4.643  1.1850 -0.2901 -1.3910
  769MOL0     H 3779   2.344  11.178   4.994  0.7867  0.3402  0.1978
  769MOL0     H 3780   2.481  11.123   5.195 -0.2229 -2.1468  2.4925
  769MOL0     H 3781   2.638  10.913   5.454 -1.5048 -0.8185  0.0384
  769MOL0     H 3782   2.616  11.059   5.344  2.5208  0.9337  0.4041
  769MOL0     H 3783   2.514  11.073   5.582 -1.7526 -0.7860  2.6421
  769MOL0     H 3784   2.394  11.079   5.440 -0.2853  0.2811  0.6491
  769MOL0     H 3785   2.378  10.824   5.517 -0.0189  2.1071 -4.5380
  769MOL0     H 3786   2.296  10.960   5.606 -0.2976  1.3107  0.2312
  769MOL0     H 3787   2.565  10.829   5.656  0.1481 -0.5415 -0.9482
  769MOL0     H 3788   2.517  10.958   5.758  2.1387 -0.7080 -0.6027
  769MOL0     H 3789   2.334  10.853   5.854  0.5059 -0.6495  1.1337
  769MOL0     H 3790   2.468  10.755   5.887 -0.0454 -0.5812 -1.0831
  769MOL0     H 3791   2.281  10.683   5.662  0.8943 -2.0337 -0.8393
  769MOL0     H 3792   2.437  10.599   5.691  0.2464  0.2854 -0.7164
  769MOL0     H 3793   2.214  10.490   5.771  0.0314 -0.3033  1.3119
  769MOL0     H 3794   2.194  10.621   5.872  1.2750  0.6657  0.7579
  769MOL0     H 3795   2.419  10.561   5.999  3.0464 -1.7948 -1.1002
  769MOL0     H 3796   2.443  10.433   5.885  0.7268  0.3712  1.3361
  769MOL0     H 3797   2.324  10.725   5.202 -0.5231 -0.1347 -0.4764
  769MOL0     H 3798   2.194  10.769   4.996 -1.5628 -0.6902  2.6219
  769MOL0     H 3799   2.198  10.771   4.601 -1.9272 -0.7633  3.0875
  769MOL0     H 3800   2.137  10.786   4.372 -2.5662 -0.8233 -0.4088
  769MOL0     H 3801   2.275  10.426   5.313 -0.2247 -2.5868 -1.6732
  769MOL0     H 3802   2.461  10.426   5.484 -1.8844  1.2546 -0.4769
  769MOL0     H 3803   2.657  10.371   5.845 -4.7880 -0.7140  2.3570
  769MOL0     H 3804   2.851  10.388   6.008  2.9939 -0.1208 -2.1290
  769MOL0     H 3805   2.933  10.019   6.230 -2.5616  2.0270 -1.1263
  769MOL0     H 3806   3.065  10.020   6.120  0.4376 -2.1517  2.2172
  769MOL0     H 3807   3.165  10.214   6.269 -0.3233 -0.4635 -0.5422
  769MOL0     H 3808   3.192  10.049   6.325  1.1899  0.4282 -1.0750
  769MOL0     H 3809   3.009  10.061   6.481  2.3980  0.3123  4.4176
  769MOL0     H 3810   2.965  10.225   6.423  0.9317  0.8460  0.0804
  769MOL0     H 3811   3.171  10.306   6.490  1.9330 -1.0745 -1.6893
  769MOL0     H 3812   3.244  10.153   6.511  0.5518 -0.5945  3.2869
  769MOL0     H 3813   3.043  10.146   6.874 -1.6057  0.6994 -0.8160
  769MOL0     H 3814   2.846   9.951   6.044 -0.6970  0.4494  2.5549
  769MOL0     H 3815   2.675   9.952   5.844 -3.5311  0.9818  1.4227
  770MOL0     O 3816   1.012   7.444   1.595  0.5554  0.7054  0.4901
  770MOL0     C 3817   1.031   7.322   1.574  0.4974 -0.8968  1.0864
  770MOL0     O 3818   0.949   7.242   1.493  0.0173  0.3566  0.5801
  770MOL0     C 3819   0.854   7.312   1.424  0.9007  0.7751 -1.1363
  770MOL0     C 3820   0.893   7.390   1.321  0.2382 -0.2144  0.6278
  770MOL0     C 3821   0.794   7.458   1.244 -0.5071  0.0924 -0.2423
  770MOL0     C 3822   0.666   7.451   1.293  1.4711  0.3028 -0.3042
  770MOL0     O 3823   0.564   7.499   1.227  0.0378  1.1419  1.1810
  770MOL0     C 3824   0.555   7.639   1.209 -0.2627  0.4459  0.3478
  770MOL0     C 3825   0.425   7.693   1.142  0.0545  0.1018 -0.3328
  770MOL0     C 3826   0.397   7.623   1.004  0.3973  1.0188  0.8332
  770MOL0     C 3827   0.263   7.660   0.918  0.3434 -0.7211 -0.0600
  770MOL0     C 3828   0.245   7.587   0.782 -1.3465 -0.0494 -0.3726
  770MOL0     C 3829   0.133   7.475   0.780 -1.0180  0.1699  0.2080
  770MOL0     C 3830  -0.008   7.536   0.799 -0.2658  0.1978 -1.0919
  770MOL0     C 3831  -0.117   7.466   0.721  0.2099  0.2103  0.3564
  770MOL0     N 3832  -0.129   7.322   0.766 -0.8563 -0.2135  0.9572
  770MOL0     C 3833  -0.177   7.281   0.887 -0.1034  0.0351  0.0975
  770MOL0     C 3834  -0.173   7.147   0.876  0.5126 -0.4960 -0.4329
  770MOL0     C 3835  -0.218   7.063   0.990  1.5441 -0.9115 -0.6474
  770MOL0     C 3836  -0.116   6.967   1.046 -0.2588 -0.2758 -0.3405
  770MOL0     C 3837  -0.174   6.852   1.131 -0.5741  0.6231 -0.0430
  770MOL0     C 3838  -0.221   6.742   1.041 -1.2471  0.3489 -0.2980
  770MOL0     O 3839  -0.233   6.622   1.116  0.3072  0.7598  0.2456
  770MOL0     C 3840  -0.227   6.504   1.047  0.0623 -0.3191  0.8785
  770MOL0     C 3841  -0.192   6.386   1.111 -0.1218 -0.1118 -0.6064
  770MOL0     C 3842  -0.191   6.261   1.053  0.0897 -0.0425  0.7018
  770MOL0     C 3843  -0.141   6.138   1.136  1.0309 -0.2707  0.3784
  770MOL0     C 3844  -0.206   6.255   0.907  0.6174 -0.8203 -0.5562
  770MOL0     C 3845  -0.210   6.131   0.834  0.3622 -0.2789  0.5268
  770MOL0     O 3846  -0.276   6.139   0.710 -0.3564  0.8641  0.0574
  770MOL0     C 3847  -0.253   6.036   0.622 -0.1039 -0.4595 -0.3276
  770MOL0     C 3848  -0.200   6.074   0.501  1.6586 -0.0478 -0.9247
  770MOL0     C 3849  -0.166   5.982   0.407  0.4767  0.2891  1.2648
  770MOL0     C 3850  -0.201   5.845   0.425  0.0559  0.0754  0.5256
  770MOL0     O 3851  -0.175   5.745   0.340  0.2828 -0.4414 -0.2392
  770MOL0     C 3852  -0.204   5.773   0.194  0.4425 -0.3339 -0.3050
  770MOL0     C 3853  -0.186   5.660   0.087 -1.2537  0.1270 -0.0086
  770MOL0     C 3854  -0.041   5.606   0.083  0.0553  0.5452 -0.2633
  770MOL0     C 3855   0.004   5.571  -0.065  0.2569 -0.5515  0.8478
  770MOL0     C 3856   0.139   5.501  -0.085  0.0306 -0.0260  0.2520
  770MOL0     C 3857   0.187   5.490  -0.227 -0.2698  0.2333 -0.6583
  770MOL0     C 3858   0.341   5.464  -0.238 -0.3477 -0.0928 -0.2976
  770MOL0     C 3859   0.362   5.347  -0.335 -0.1334  0.0751  0.5955
  770MOL0    Cl 3860   0.366   5.203  -0.227 -0.1051 -0.1087 -0.2378
  770MOL0     C 3861  -0.264   5.807   0.540  0.1113 -0.2941 -0.1518
  770MOL0     C 3862  -0.294   5.905   0.635  0.4334  0.4671 -0.8011
  770MOL0     O 3863  -0.151   6.032   0.870  0.0448  0.1149  0.2501
  770MOL0     C 3864  -0.240   6.375   0.838 -0.6158 -0.6698 -0.0597
  770MOL0     C 3865  -0.260   6.495   0.910 -1.2263  0.7406 -1.5263
  770MOL0     N 3866  -0.127   7.111   0.751  0.3953  0.5785  0.3713
  770MOL0     N 3867  -0.093   7.219   0.692 -0.7554 -0.6400  0.0831
  770MOL0     C 3868   0.619   7.368   1.393 -0.7899 -0.3182 -0.2024
  770MOL0     C 3869   0.720   7.316   1.472  0.1121 -0.0827 -0.1261
  770MOL0     C 3870   1.144   7.258   1.642 -0.1900 -0.1962  0.2540
  770MOL0     C 3871   1.241   7.322   1.717  0.5876 -0.1849  0.4804
  770MOL0     C 3872   1.346   7.266   1.784 -0.3211 -1.0546 -0.3688
  770MOL0     C 3873   1.359   7.129   1.772  0.6470 -0.0497 -1.7210
  770MOL0     O 3874   1.452   7.058   1.841  0.3618 -0.7615 -0.4696
  770MOL0     C 3875   1.436   7.052   1.980 -0.4499 -0.3598 -0.6800
  770MOL0     C 3876   1.427   6.906   2.031  0.7707 -0.1790 -0.1020
  770MOL0     C 3877   1.553   6.833   2.073  0.3952 -0.6069 -0.8063
  770MOL0     C 3878   1.651   6.918   2.158 -0.1394 -0.8295 -0.2009
  770MOL0     C 3879   1.594   6.955   2.289  0.6577  0.0367 -0.1555
  770MOL0     C 3880   1.582   6.992   2.410 -0.2167 -0.6599  0.5994
  770MOL0     C 3881   1.270   7.060   1.696  0.1810 -0.8595 -0.3165
  770MOL0     C 3882   1.164   7.120   1.635  0.5170 -0.1176  0.8219
  770MOL0     H 3883   0.995   7.382   1.286  0.1950  0.2411  0.4010
  770MOL0     H 3884   0.833   7.512   1.159  0.4144  2.0289  1.3235
  770MOL0     H 3885   0.565   7.688   1.307  0.2631  2.0174 -0.4490
  770MOL0     H 3886   0.636   7.674   1.144 -1.3266 -1.4480 -2.1240
  770MOL0     H 3887   0.351   7.662   1.216  0.3384 -1.8038 -0.7930
  770MOL0     H 3888   0.432   7.801   1.123  0.2355  0.2428  0.4930
  770MOL0     H 3889   0.488   7.631   0.944 -0.7829 -2.2006 -1.6846
  770MOL0     H 3890   0.389   7.514   1.016 -1.3981  1.3247  2.9672
  770MOL0     H 3891   0.175   7.650   0.983  0.4926  5.0166  1.5547
  770MOL0     H 3892   0.264   7.766   0.891  0.2391 -0.2907  1.4923
  770MOL0     H 3893   0.223   7.665   0.709 -0.1244  2.0408  1.3770
  770MOL0     H 3894   0.342   7.545   0.750 -1.5341  0.1823 -1.2918
  770MOL0     H 3895   0.128   7.436   0.677 -2.4146  0.0011  0.3256
  770MOL0     H 3896   0.156   7.396   0.852  1.5540 -0.2888 -0.9836
  770MOL0     H 3897  -0.021   7.535   0.907  2.3307 -1.1692 -0.7121
  770MOL0     H 3898  -0.025   7.640   0.769 -1.0800  1.2775  2.6286
  770MOL0     H 3899  -0.084   7.450   0.618 -0.6221 -3.0277  0.4753
  770MOL0     H 3900  -0.213   7.518   0.724 -0.9118 -1.4751 -2.2012
  770MOL0     H 3901  -0.210   7.344   0.969  1.7488  1.8242 -0.4292
  770MOL0     H 3902  -0.266   7.129   1.063 -0.0428  1.9411 -3.9887
  770MOL0     H 3903  -0.301   7.003   0.951  0.0471 -0.5090  1.7055
  770MOL0     H 3904  -0.046   7.028   1.105 -0.0721  1.9907 -2.7315
  770MOL0     H 3905  -0.045   6.928   0.973 -0.7010 -3.1934  0.6490
  770MOL0     H 3906  -0.267   6.889   1.175 -0.7955 -0.5806  0.5214
  770MOL0     H 3907  -0.093   6.821   1.197  1.6237 -0.8843 -3.1673
  770MOL0     H 3908  -0.157   6.740   0.952 -3.8632  0.8299 -2.2975
  770MOL0     H 3909  -0.322   6.765   1.006 -1.4886  0.4170  0.4205
  770MOL0     H 3910  -0.179   6.398   1.219 -2.8881  1.9432 -0.4165
  770MOL0     H 3911  -0.063   6.086   1.079  0.8591  0.8524 -0.9439
  770MOL0     H 3912  -0.100   6.158   1.236  0.4015 -1.8307  0.9778
  770MOL0     H 3913  -0.219   6.063   1.149 -2.0239  2.2211 -2.1225
  770MOL0     H 3914  -0.175   6.178   0.483  1.7480  0.0940 -0.0612
  770MOL0     H 3915  -0.113   6.014   0.318 -0.2542  0.7053  0.9728
  770MOL0     H 3916  -0.309   5.801   0.187  0.4552 -0.5470 -1.8350
  770MOL0     H 3917  -0.133   5.853   0.168 -0.6570  2.1118  3.4085
  770MOL0     H 3918  -0.254   5.575   0.099 -0.5822 -0.2262  1.6005
  770MOL0     H 3919  -0.212   5.701  -0.011  1.7776 -0.1949 -1.0677
  770MOL0     H 3920  -0.035   5.517   0.148 -0.1836 -1.0577 -2.3263
  770MOL0     H 3921   0.031   5.681   0.115  0.1541  0.9016 -1.2932
  770MOL0     H 3922  -0.071   5.505  -0.109  1.4226 -0.7575 -0.9377
  770MOL0     H 3923   0.008   5.660  -0.129  1.4531 -0.1555  1.4603
  770MOL0     H 3924   0.130   5.400  -0.043 -2.6549  0.4016  0.8884
  770MOL0     H 3925   0.207   5.559  -0.023 -1.5138  3.6711 -1.2137
  770MOL0     H 3926   0.135   5.414  -0.286  0.2810  1.1500 -2.4151
  770MOL0     H 3927   0.171   5.586  -0.278  1.2263  1.3165  0.8010
  770MOL0     H 3928   0.384   5.444  -0.139  0.6868  3.9731  0.2608
  770MOL0     H 3929   0.391   5.555  -0.270 -0.5099 -0.3659 -1.3507
  770MOL0     H 3930   0.459   5.366  -0.380  0.2725 -0.4835  1.2112
  770MOL0     H 3931   0.291   5.339  -0.418  0.7472 -1.0914 -0.0796
  770MOL0     H 3932  -0.287   5.704   0.567 -2.5068  0.5731  1.1568
  770MOL0     H 3933  -0.351   5.885   0.725 -2.5864  2.5955 -2.0482
  770MOL0     H 3934  -0.247   6.373   0.730 -2.2657 -2.2077  0.0129
  770MOL0     H 3935  -0.281   6.581   0.847 -0.7601  2.1942  0.2170
  770MOL0     H 3936   0.518   7.385   1.431 -0.5989 -2.2723  1.3770
  770MOL0     H 3937   0.701   7.271   1.570  1.7812  0.0307  0.2800
  770MOL0     H 3938   1.221   7.428   1.733 -0.7369 -0.2568 -0.5427
  770MOL0     H 3939   1.423   7.321   1.836 -2.3691  1.0025  0.6870
  770MOL0     H 3940   1.521   7.103   2.025  0.7957 -1.0370 -2.1702
  770MOL0     H 3941   1.354   7.114   2.016 -0.0849  0.5644 -1.4275
  770MOL0     H 3942   1.382   6.843   1.954  0.2308 -3.3332  2.5385
  770MOL0     H 3943   1.353   6.915   2.112 -0.0739 -1.2199 -0.7311
  770MOL0     H 3944   1.599   6.791   1.982  0.5651  2.1239 -2.0767
  770MOL0     H 3945   1.535   6.743   2.132  1.5713 -1.1526 -1.2520
  770MOL0     H 3946   1.669   7.013   2.107 -0.9053  0.3734  1.6657
  770MOL0     H 3947   1.751   6.874   2.162 -0.0371 -0.5854 -0.0878
  770MOL0     H 3948   1.561   7.009   2.513  0.6197 -0.0075  0.6749
  770MOL0     H 3949   1.290   6.955   1.677  0.5338 -0.5182 -1.9959
  770MOL0     H 3950   1.101   7.054   1.575  0.4663  4.0345 -4.3659
  771MOL0     O 3951  11.106   4.143  11.335 -0.5237 -0.2203  0.0205
  771MOL0     C 3952  11.042   4.250  11.328  1.2425  0.6025  1.0036
  771MOL0     O 3953  10.943   4.293  11.410  0.4031 -0.0630  0.1081
  771MOL0     C 3954  10.901   4.199  11.495 -0.1088  0.0844 -0.4779
  771MOL0     C 3955  10.929   4.214  11.626 -0.0497 -1.1344 -0.5133
  771MOL0     C 3956  10.870   4.138  11.728  0.8728 -0.7763  0.0233
  771MOL0     C 3957  10.768   4.046  11.692 -0.7471 -0.0240  0.8261
  771MOL0     O 3958  10.672   3.978  11.761  0.0842 -0.3922 -0.2833
  771MOL0     C 3959  10.695   3.926  11.893  0.6556  0.3898 -0.3243
  771MOL0     C 3960  10.766   3.793  11.898 -0.0198  0.1558  0.4024
  771MOL0     C 3961  10.807   3.764  12.038  0.3928  0.4628  0.5717
  771MOL0     C 3962  10.810   3.613  12.063 -0.0889  0.2104 -0.6532
  771MOL0     C 3963  10.858   3.588  12.201  0.6944 -0.0350  0.5631
  771MOL0     C 3964  10.802   3.454  12.255 -0.3100  0.0469 -0.7584
  771MOL0     C 3965  10.857   3.410  12.394 -0.5442 -0.2000  0.9653
  771MOL0     C 3966  10.780   3.293  12.464  0.2470  0.5156 -0.5589
  771MOL0     N 3967  10.817   3.283  12.603  0.4364  0.6943  0.5837
  771MOL0     C 3968  10.925   3.208  12.645 -0.0061  1.0174 -1.3379
  771MOL0     C 3969  10.909   3.198  12.776  0.5457  0.5019  0.1418
  771MOL0     C 3970  11.006   3.119  12.858  0.5418  1.0697  0.7484
  771MOL0     C 3971  10.970   3.127  12.999  0.6272 -0.5198  0.5578
  771MOL0     C 3972  10.854   3.031  13.039 -0.7221 -1.2459  0.8047
  771MOL0     C 3973  10.792   3.072  13.173 -0.2061  0.1299 -1.0046
  771MOL0     O 3974  10.672   2.990  13.187 -0.2184 -0.2144  0.3719
  771MOL0     C 3975  10.563   3.022  13.106  0.4771  0.4965  0.4610
  771MOL0     C 3976  10.539   3.150  13.046  0.4626  0.6071  0.4906
  771MOL0     C 3977  10.448   3.161  12.939  0.3149 -0.3809 -0.3743
  771MOL0     C 3978  10.436   3.287  12.848  0.1255 -0.4188 -0.4744
  771MOL0     C 3979  10.363   3.049  12.903  0.4711  0.4641 -0.6355
  771MOL0     C 3980  10.265   3.057  12.793  1.0022 -0.3715 -0.2818
  771MOL0     O 3981  10.313   3.077  12.666 -0.5593 -1.1112 -0.1608
  771MOL0     C 3982  10.229   3.109  12.567  0.0252  1.3447  0.6201
  771MOL0     C 3983  10.093   3.172  12.581 -0.4873  0.1756  1.4502
  771MOL0     C 3984  10.022   3.215  12.463 -0.2058  0.1812  0.3013
  771MOL0     C 3985  10.094   3.211  12.343 -0.3171 -0.2640 -0.2486
  771MOL0     O 3986  10.030   3.287  12.252 -0.5632 -0.2055 -0.0480
  771MOL0     C 3987  10.090   3.302  12.123  0.5256  0.1117 -0.0497
  771MOL0     C 3988   9.983   3.364  12.033 -0.1189  0.5097 -0.1186
  771MOL0     C 3989  10.030   3.366  11.886  0.3605 -0.8570 -0.4035
  771MOL0     C 3990   9.908   3.407  11.802 -0.3585 -0.1046 -0.3177
  771MOL0     C 3991   9.854   3.562  11.836 -0.3207  0.2854  1.1252
  771MOL0     C 3992   9.958   3.662  11.860  0.0120 -0.1512  0.3642
  771MOL0     C 3993   9.913   3.809  11.828  0.3635 -0.4592 -0.5560
  771MOL0     C 3994   9.969   3.908  11.927  0.1874 -0.4579 -0.1041
  771MOL0    Cl 3995  10.102   4.001  11.850  0.1403  0.4064 -1.0066
  771MOL0     C 3996  10.219   3.152  12.332 -0.3272 -0.5533 -0.7312
  771MOL0     C 3997  10.284   3.097  12.442 -0.6023 -0.5878  0.7790
  771MOL0     O 3998  10.145   3.038  12.830  0.0736  0.5278 -0.0957
  771MOL0     C 3999  10.372   2.938  12.982  1.7035  0.8148  0.1292
  771MOL0     C 4000  10.474   2.915  13.072  0.6092 -0.1053  0.4458
  771MOL0     N 4001  10.796   3.275  12.817 -0.1534  0.4483  0.2698
  771MOL0     N 4002  10.750   3.316  12.713  0.4846  0.0110  0.7904
  771MOL0     C 4003  10.737   4.033  11.558 -0.2357  0.7665  0.2764
  771MOL0     C 4004  10.801   4.110  11.466  0.7907 -0.2458  0.4154
  771MOL0     C 4005  11.080   4.343  11.218  0.5565 -0.1691  0.9198
  771MOL0     C 4006  11.185   4.314  11.126  0.0604  0.0424  0.0384
  771MOL0     C 4007  11.206   4.395  11.019  0.2217 -0.0633  1.1967
  771MOL0     C 4008  11.146   4.522  11.007 -0.4328 -0.3114  0.5242
  771MOL0     O 4009  11.165   4.622  10.907 -0.7999  0.1113 -0.5628
  771MOL0     C 4010  11.202   4.596  10.770  0.3937  0.2022  0.1777
  771MOL0     C 4011  11.082   4.561  10.674  0.4681  0.0142  1.2694
  771MOL0     C 4012  10.948   4.626  10.714 -0.2756 -0.2406 -0.2727
  771MOL0     C 4013  10.819   4.575  10.646 -0.5901  1.2697 -0.3793
  771MOL0     C 4014  10.842   4.615  10.510 -0.5863  0.2828 -0.5622
  771MOL0     C 4015  10.872   4.636  10.398 -0.5553 -0.6215  0.1927
  771MOL0     C 4016  11.042   4.556  11.101 -0.0584  0.8845  0.0575
  771MOL0     C 4017  11.009   4.461  11.200 -0.0684 -0.3935 -0.2466
  771MOL0     H 4018  10.994   4.290  11.668 -7.0092  2.5257  6.3984
  771MOL0     H 4019  10.886   4.175  11.829 -1.5810  2.3010 -0.5646
  771MOL0     H 4020  10.754   4.004  11.942 -1.5722  2.7384 -1.1336
  771MOL0     H 4021  10.596   3.913  11.938 -1.9077 -1.9397 -5.6322
  771MOL0     H 4022  10.713   3.707  11.856 -0.0150  0.3810 -0.0673
  771MOL0     H 4023  10.857   3.802  11.839  0.9667  0.7111  1.9326
  771MOL0     H 4024  10.904   3.807  12.065  0.2565  0.3569  1.2556
  771MOL0     H 4025  10.723   3.802  12.097 -0.0981 -0.0308  0.2054
  771MOL0     H 4026  10.712   3.566  12.049  0.0172 -0.6140  1.1644
  771MOL0     H 4027  10.884   3.577  11.990 -0.6103  1.2318 -1.7090
  771MOL0     H 4028  10.967   3.584  12.199  0.6778 -1.7488  1.8771
  771MOL0     H 4029  10.836   3.669  12.272  0.7152 -0.2783  0.8447
  771MOL0     H 4030  10.695   3.470  12.267  0.3262  2.3326  4.2848
  771MOL0     H 4031  10.831   3.373  12.188  0.2444 -1.3388  1.0570
  771MOL0     H 4032  10.963   3.382  12.392 -0.5521 -0.2737  1.3659
  771MOL0     H 4033  10.838   3.504  12.446 -1.7399  0.1524 -0.0811
  771MOL0     H 4034  10.805   3.203  12.408  0.5419 -0.4009  1.0154
  771MOL0     H 4035  10.672   3.312  12.467  0.6269  2.8256  0.6813
  771MOL0     H 4036  11.005   3.166  12.585  0.2956 -1.7570  0.7860
  771MOL0     H 4037  11.017   3.015  12.826 -0.4262  1.9850 -3.1794
  771MOL0     H 4038  11.103   3.168  12.847  0.3480  1.1655 -0.8498
  771MOL0     H 4039  10.943   3.231  13.016  1.7682 -0.0068 -0.5840
  771MOL0     H 4040  11.064   3.106  13.050  2.2344  0.5612 -1.7432
  771MOL0     H 4041  10.892   2.930  13.055 -0.2328 -1.1980  0.0444
  771MOL0     H 4042  10.785   3.030  12.954  1.5084  0.9187 -1.2210
  771MOL0     H 4043  10.759   3.176  13.174  0.8911  0.4928 -0.5113
  771MOL0     H 4044  10.860   3.063  13.259  0.5765  0.0352 -1.6185
  771MOL0     H 4045  10.594   3.241  13.069  1.3904  0.1578  0.0707
  771MOL0     H 4046  10.472   3.380  12.894 -3.0504  1.9014 -2.2440
  771MOL0     H 4047  10.494   3.267  12.758  1.4800  2.1656 -0.2898
  771MOL0     H 4048  10.330   3.299  12.823  0.3298 -1.2127 -1.8221
  771MOL0     H 4049  10.047   3.185  12.679  0.8568 -3.5557  2.7598
  771MOL0     H 4050   9.928   3.269  12.474 -3.1879 -4.2804 -0.5142
  771MOL0     H 4051  10.183   3.359  12.126 -0.0075  0.9785  0.8929
  771MOL0     H 4052  10.113   3.203  12.081  1.1025  0.1738  0.1128
  771MOL0     H 4053   9.891   3.305  12.033 -0.6120  1.2209  1.5855
  771MOL0     H 4054   9.953   3.457  12.082 -1.5146 -0.9865  2.0745
  771MOL0     H 4055  10.040   3.265  11.847  2.5101 -0.0010 -2.2627
  771MOL0     H 4056  10.117   3.428  11.862  0.1548  0.3079  1.5572
  771MOL0     H 4057   9.947   3.393  11.701  0.0663 -0.5328 -0.1006
  771MOL0     H 4058   9.822   3.341  11.815 -0.1295 -0.4868 -0.7632
  771MOL0     H 4059   9.775   3.551  11.910 -3.0630  2.1389 -1.2935
  771MOL0     H 4060   9.800   3.583  11.743  0.5942 -4.1923 -0.6943
  771MOL0     H 4061   9.993   3.651  11.963 -0.2194  2.7867  0.8203
  771MOL0     H 4062  10.050   3.641  11.805  0.8979 -0.9569  2.0582
  771MOL0     H 4063   9.805   3.809  11.844 -0.0721 -0.3617 -3.1644
  771MOL0     H 4064   9.934   3.837  11.724  0.4658  1.4418 -0.0543
  771MOL0     H 4065  10.004   3.870  12.023  5.2476  2.3691 -0.4739
  771MOL0     H 4066   9.887   3.978  11.947  0.1225 -0.5427 -0.0774
  771MOL0     H 4067  10.260   3.150  12.231 -1.7352 -2.6323 -1.3140
  771MOL0     H 4068  10.378   3.042  12.433 -0.3971 -0.2126  0.6157
  771MOL0     H 4069  10.301   2.860  12.958  0.2384  1.5902  1.6732
  771MOL0     H 4070  10.479   2.827  13.134  0.4481 -0.3527  0.1103
  771MOL0     H 4071  10.672   3.954  11.522  0.4187  0.6140 -0.6026
  771MOL0     H 4072  10.765   4.110  11.364  1.9988  2.0779 -0.0682
  771MOL0     H 4073  11.249   4.226  11.130  0.0669  0.0971  1.3943
  771MOL0     H 4074  11.285   4.376  10.947  0.3312  2.3337  0.6098
  771MOL0     H 4075  11.256   4.686  10.738  3.3025 -1.4745 -0.0306
  771MOL0     H 4076  11.267   4.507  10.767 -2.0671 -1.6782 -0.0734
  771MOL0     H 4077  11.073   4.454  10.657  0.2886  0.1081  0.7705
  771MOL0     H 4078  11.114   4.588  10.573  2.9565 -1.0548  1.7053
  771MOL0     H 4079  10.953   4.730  10.680 -0.0592 -0.0682  0.2838
  771MOL0     H 4080  10.936   4.603  10.820 -3.2094 -0.1406 -0.4953
  771MOL0     H 4081  10.726   4.627  10.671 -0.4798  2.1642 -1.7172
  771MOL0     H 4082  10.803   4.468  10.661  0.2937  1.1573 -0.2141
  771MOL0     H 4083  10.911   4.652  10.299  0.5723 -2.2645  0.3489
  771MOL0     H 4084  10.986   4.648  11.086 -1.3354 -0.0282 -0.9578
  771MOL0     H 4085  10.927   4.489  11.265  0.1532  0.5953 -0.3791
  772MOL0     O 4086   4.887   3.761  11.120  0.4266 -0.2389  0.6781
  772MOL0     C 4087   4.823   3.865  11.145 -0.3271  0.6160  0.7448
  772MOL0     O 4088   4.823   3.982  11.066 -0.1712  1.0675 -0.5105
  772MOL0     C 4089   4.891   3.992  10.949  0.3102 -0.3778 -0.3083
  772MOL0     C 4090   5.008   3.933  10.919  0.1021  1.1196  0.6444
  772MOL0     C 4091   5.072   3.944  10.790  1.2521 -0.1508  0.1370
  772MOL0     C 4092   5.018   4.024  10.687 -0.1759 -0.5899 -0.8881
  772MOL0     O 4093   5.072   4.043  10.563  0.3987 -0.0659  0.5111
  772MOL0     C 4094   5.215   4.048  10.555  0.7487  0.1682 -1.1458
  772MOL0     C 4095   5.259   4.129  10.431 -0.7921  0.6401 -1.0915
  772MOL0     C 4096   5.215   4.076  10.297  0.0268  0.2508  0.4289
  772MOL0     C 4097   5.150   3.939  10.286  0.7145  0.3668 -0.0555
  772MOL0     C 4098   5.137   3.910  10.131  0.9014  0.2973  1.2635
  772MOL0     C 4099   5.086   3.765  10.117 -0.4515  0.1252 -0.8694
  772MOL0     C 4100   5.085   3.724   9.968  0.1518 -0.4286 -0.6250
  772MOL0     C 4101   4.989   3.612   9.930  1.3563  0.2194 -0.1442
  772MOL0     N 4102   4.857   3.635   9.987 -0.7357 -0.1593  0.0093
  772MOL0     C 4103   4.786   3.747   9.975 -0.7370 -0.6883 -0.4475
  772MOL0     C 4104   4.682   3.716  10.049  0.9763  0.1178 -0.4288
  772MOL0     C 4105   4.585   3.815  10.100  0.9128 -0.7842 -0.1690
  772MOL0     C 4106   4.538   3.914   9.993  0.2045  0.6523  0.7686
  772MOL0     C 4107   4.482   3.846   9.864 -0.6773 -0.4703  0.5455
  772MOL0     C 4108   4.350   3.775   9.891 -0.3234 -0.5115 -0.1626
  772MOL0     O 4109   4.293   3.707   9.776  0.7755 -0.5301  0.1848
  772MOL0     C 4110   4.195   3.770   9.701  0.1767 -0.1498  0.1069
  772MOL0     C 4111   4.207   3.890   9.636  0.0078  0.5549 -0.9310
  772MOL0     C 4112   4.105   3.943   9.547  0.0618  0.1956 -0.6048
  772MOL0     C 4113   4.115   4.082   9.497  0.3492 -0.5423 -0.3036
  772MOL0     C 4114   3.989   3.860   9.528  0.1716 -0.5442  0.3574
  772MOL0     C 4115   3.872   3.914   9.444  0.3036 -0.0905  0.3246
  772MOL0     O 4116   3.751   3.848   9.469  0.0096 -0.2586  0.2745
  772MOL0     C 4117   3.635   3.853   9.387 -0.8887 -0.3440  0.2544
  772MOL0     C 4118   3.575   3.731   9.353  0.5656 -0.3787 -0.0121
  772MOL0     C 4119   3.461   3.721   9.273 -0.4206 -0.7863 -0.4778
  772MOL0     C 4120   3.393   3.834   9.229  0.5582  0.2080  1.1143
  772MOL0     O 4121   3.277   3.810   9.151  0.0949  0.6227  0.2468
  772MOL0     C 4122   3.190   3.923   9.128 -0.6592  0.4673 -0.2687
  772MOL0     C 4123   3.058   3.873   9.071 -0.0708 -0.3042 -0.2864
  772MOL0     C 4124   2.945   3.964   9.131 -0.0521 -0.6959  0.3377
  772MOL0     C 4125   2.911   3.907   9.261 -0.0087 -0.4780 -0.7227
  772MOL0     C 4126   2.826   3.988   9.355  0.2127 -0.2404  0.8282
  772MOL0     C 4127   2.803   3.927   9.482  0.6014  0.0168 -0.7353
  772MOL0     C 4128   2.725   3.797   9.483  0.0363 -0.2461 -0.3279
  772MOL0     C 4129   2.814   3.676   9.520 -0.5479 -0.0040 -0.0628
  772MOL0    Cl 4130   2.885   3.698   9.685 -0.1121  0.3446  0.0007
  772MOL0     C 4131   3.457   3.959   9.256 -0.2770  0.0958  0.1804
  772MOL0     C 4132   3.574   3.968   9.336  0.2352  0.1191  2.1150
  772MOL0     O 4133   3.900   3.988   9.347 -0.2784  0.4556  0.5034
  772MOL0     C 4134   3.984   3.739   9.586 -0.0465 -0.2899  0.5931
  772MOL0     C 4135   4.088   3.697   9.658  0.2051 -0.0284 -0.5359
  772MOL0     N 4136   4.684   3.583  10.088 -0.0928  0.5591  0.6511
  772MOL0     N 4137   4.796   3.537  10.059 -0.2225 -0.3095 -1.0419
  772MOL0     C 4138   4.899   4.092  10.728 -0.1966 -0.3976 -0.6770
  772MOL0     C 4139   4.834   4.075  10.852  0.3812  0.4096 -0.0880
  772MOL0     C 4140   4.729   3.865  11.260 -0.1686  0.1202 -1.1096
  772MOL0     C 4141   4.648   3.969  11.289 -0.3135 -0.6057  0.4131
  772MOL0     C 4142   4.578   3.982  11.408 -1.0007 -0.6503  0.0743
  772MOL0     C 4143   4.576   3.881  11.498  0.4000  0.7461 -0.2296
  772MOL0     O 4144   4.497   3.889  11.613  0.1310  0.4585 -0.6285
  772MOL0     C 4145   4.582   3.934  11.711  0.3773  1.0988 -0.3820
  772MOL0     C 4146   4.505   3.946  11.839  0.6378 -0.5106 -0.2840
  772MOL0     C 4147   4.588   4.011  11.948 -0.7075 -0.4517 -0.1447
  772MOL0     C 4148   4.495   4.049  12.060 -0.0511  0.0775  0.3949
  772MOL0     C 4149   4.418   4.171  12.026  0.0499 -0.3316  0.2341
  772MOL0     C 4150   4.348   4.269  11.996  0.1711  0.4174  0.0944
  772MOL0     C 4151   4.661   3.771  11.474  1.0509 -0.4849  0.3087
  772MOL0     C 4152   4.737   3.761  11.355  0.0244  0.2175  0.7676
  772MOL0     H 4153   5.063   3.881  10.998  1.1019  2.2948  0.7671
  772MOL0     H 4154   5.157   3.881  10.764  0.0201 -1.2480 -1.4643
  772MOL0     H 4155   5.245   4.103  10.645 -2.0080 -1.1850  0.7197
  772MOL0     H 4156   5.258   3.948  10.557 -0.5872 -0.4198 -1.2267
  772MOL0     H 4157   5.231   4.233  10.450 -0.0280  0.2934  2.6397
  772MOL0     H 4158   5.368   4.129  10.427 -0.7629 -0.4772 -0.6513
  772MOL0     H 4159   5.153   4.149  10.243  2.7837  2.2387 -0.2937
  772MOL0     H 4160   5.308   4.074  10.240 -0.6242 -2.5887 -0.7020
  772MOL0     H 4161   5.219   3.864  10.325  1.0457 -0.4328 -2.0321
  772MOL0     H 4162   5.053   3.938  10.336  0.2468  4.2070 -0.6288
  772MOL0     H 4163   5.088   3.994  10.080  0.8379 -0.7764 -0.5082
  772MOL0     H 4164   5.234   3.917  10.082 -0.4930  1.2360 -1.5896
  772MOL0     H 4165   5.145   3.697  10.178 -1.2742  3.2564  3.9615
  772MOL0     H 4166   4.983   3.764  10.156 -1.0242 -2.4363 -2.2460
  772MOL0     H 4167   5.049   3.816   9.921 -3.0051 -1.6516 -0.8332
  772MOL0     H 4168   5.185   3.695   9.935  0.4266 -0.4105  0.1725
  772MOL0     H 4169   5.017   3.509   9.954  1.0231  0.1274 -0.1476
  772MOL0     H 4170   4.991   3.610   9.821 -1.8545  0.7513 -0.3081
  772MOL0     H 4171   4.807   3.841   9.924 -0.0882 -1.0636 -0.8791
  772MOL0     H 4172   4.501   3.758  10.139 -1.1434  0.5655 -2.3746
  772MOL0     H 4173   4.627   3.874  10.182  1.7576  0.1615 -1.2448
  772MOL0     H 4174   4.625   3.971   9.960  0.7694 -1.5251 -1.8827
  772MOL0     H 4175   4.463   3.986  10.024  0.5752  0.8944  1.1032
  772MOL0     H 4176   4.549   3.768   9.825  1.0813  1.4445 -0.4526
  772MOL0     H 4177   4.472   3.930   9.795 -2.5258 -1.4261 -0.4426
  772MOL0     H 4178   4.278   3.851   9.922  1.5898  0.4613  2.2752
  772MOL0     H 4179   4.353   3.708   9.977 -0.0225  0.9879  1.0310
  772MOL0     H 4180   4.295   3.948   9.663 -0.9918  1.2357  1.0724
  772MOL0     H 4181   4.018   4.133   9.503  1.3874  1.4351  0.5280
  772MOL0     H 4182   4.191   4.137   9.553  2.4968 -0.6654 -2.8760
  772MOL0     H 4183   4.153   4.088   9.395  2.5445 -0.4474  0.4772
  772MOL0     H 4184   3.641   3.651   9.387  3.0696  1.7863  0.5048
  772MOL0     H 4185   3.413   3.631   9.237  2.5334 -1.2580 -3.7746
  772MOL0     H 4186   3.171   3.977   9.221 -1.8524 -1.4270  0.6427
  772MOL0     H 4187   3.228   3.992   9.052 -2.8413  0.3486 -1.5675
  772MOL0     H 4188   3.063   3.897   8.964  0.4322  1.5460  0.1086
  772MOL0     H 4189   3.055   3.768   9.100 -1.6238 -0.2149 -0.0718
  772MOL0     H 4190   2.864   3.956   9.059 -0.6657 -3.0098  1.1949
  772MOL0     H 4191   2.981   4.067   9.136 -0.9620 -0.1281 -2.5722
  772MOL0     H 4192   2.868   3.808   9.247 -0.5764 -0.0609 -2.1173
  772MOL0     H 4193   3.002   3.888   9.319 -0.0601 -1.3357 -0.9142
  772MOL0     H 4194   2.732   4.014   9.304  0.5074  0.2703  0.5282
  772MOL0     H 4195   2.874   4.081   9.388 -2.1065  0.9983  0.9184
  772MOL0     H 4196   2.898   3.918   9.535 -0.2626 -4.0795  0.4971
  772MOL0     H 4197   2.739   3.995   9.540 -0.6809 -1.1772 -0.6856
  772MOL0     H 4198   2.678   3.775   9.386  0.1311 -1.4673 -0.1199
  772MOL0     H 4199   2.639   3.808   9.550  0.0469  1.2151 -0.5244
  772MOL0     H 4200   2.880   3.655   9.436 -1.6680  2.6691 -1.7506
  772MOL0     H 4201   2.752   3.586   9.521 -1.1396  0.3201 -2.3994
  772MOL0     H 4202   3.412   4.047   9.211 -1.8329 -0.9673 -0.4266
  772MOL0     H 4203   3.630   4.055   9.368 -1.0004  0.6740  2.8629
  772MOL0     H 4204   3.892   3.685   9.566 -3.5815  3.8529  3.6229
  772MOL0     H 4205   4.084   3.591   9.683  0.4794 -0.2511 -1.3836
  772MOL0     H 4206   4.855   4.164  10.660 -2.5887  0.2778  1.4349
  772MOL0     H 4207   4.745   4.129  10.883  2.5006  1.5833  5.1125
  772MOL0     H 4208   4.656   4.052  11.219  2.4728 -2.6438 -1.9149
  772MOL0     H 4209   4.517   4.071  11.416 -1.5495 -1.1274  1.6180
  772MOL0     H 4210   4.668   3.869  11.725  1.1619  1.9734 -0.9872
  772MOL0     H 4211   4.617   4.035  11.686  0.1683  1.4672  0.7422
  772MOL0     H 4212   4.460   3.849  11.866 -0.6553  0.1970  0.2038
  772MOL0     H 4213   4.424   4.015  11.812  0.3059 -0.9511 -0.4385
  772MOL0     H 4214   4.640   4.100  11.911 -1.0372 -0.0277  0.3937
  772MOL0     H 4215   4.665   3.942  11.984 -0.9525  0.3227  1.9708
  772MOL0     H 4216   4.556   4.058  12.151  0.1385  1.3921  0.1676
  772MOL0     H 4217   4.425   3.968  12.078  0.4501 -1.2874 -3.1068
  772MOL0     H 4218   4.301   4.360  11.963  2.8953  1.2118 -1.9133
  772MOL0     H 4219   4.678   3.696  11.551  2.8043  1.0073  1.4673
  772MOL0     H 4220   4.807   3.681  11.335 -0.7480 -0.3032  0.0873
  773MOL0     O 4221   3.369   1.648   7.788 -0.2884  0.3945  0.1086
  773MOL0     C 4222   3.314   1.675   7.678 -0.5498 -0.1708  0.4693
  773MOL0     O 4223   3.380   1.704   7.553  0.6434 -0.4117  0.6086
  773MOL0     C 4224   3.516   1.715   7.560  0.0468  0.5642  1.1062
  773MOL0     C 4225   3.577   1.686   7.436 -0.4004 -1.0249  0.3558
  773MOL0     C 4226   3.717   1.709   7.419  0.1927 -0.4264 -0.7458
  773MOL0     C 4227   3.789   1.752   7.531  0.1251  0.3860  1.1716
  773MOL0     O 4228   3.926   1.767   7.534  0.0240  0.0326 -0.5336
  773MOL0     C 4229   3.975   1.816   7.406 -0.3725 -0.0492  0.1218
  773MOL0     C 4230   4.122   1.860   7.428  0.3266  0.2669  0.0176
  773MOL0     C 4231   4.195   1.881   7.294  0.5859  0.5679 -0.0754
  773MOL0     C 4232   4.326   1.937   7.333 -0.2832  0.4118 -0.2047
  773MOL0     C 4233   4.395   1.979   7.205 -0.5953  1.1302 -0.6560
  773MOL0     C 4234   4.541   2.010   7.238  0.0310  0.1672 -0.5273
  773MOL0     C 4235   4.579   2.135   7.319 -0.1899 -0.1427 -0.2976
  773MOL0     C 4236   4.570   2.260   7.227 -0.4162 -0.2332 -0.0886
  773MOL0     N 4237   4.613   2.386   7.296 -0.6599  0.8471  0.7679
  773MOL0     C 4238   4.717   2.461   7.249  0.0623 -0.0535  0.2429
  773MOL0     C 4239   4.747   2.548   7.345  0.4960 -0.3636  0.3126
  773MOL0     C 4240   4.865   2.636   7.330 -0.5696  0.0935 -0.0141
  773MOL0     C 4241   4.872   2.696   7.194 -0.5728 -0.3584  0.2323
  773MOL0     C 4242   4.974   2.806   7.188  0.9822 -1.0950  0.5549
  773MOL0     C 4243   5.011   2.839   7.036  0.4528  0.2515 -0.0219
  773MOL0     O 4244   4.905   2.837   6.944  0.1245 -0.2604 -0.3246
  773MOL0     C 4245   4.933   2.854   6.810 -0.2732  0.7515  0.6976
  773MOL0     C 4246   4.831   2.868   6.714  0.0523 -0.0559 -0.2291
  773MOL0     C 4247   4.855   2.863   6.575  1.1637 -0.0109  0.1289
  773MOL0     C 4248   4.730   2.909   6.497 -0.8475  0.9705  0.1034
  773MOL0     C 4249   4.978   2.822   6.526  0.1989  0.4665 -0.8816
  773MOL0     C 4250   4.996   2.799   6.384 -0.1420 -0.5231  0.0272
  773MOL0     O 4251   4.896   2.782   6.293  0.0792  0.8431  0.2767
  773MOL0     C 4252   4.934   2.764   6.161  0.1694  0.1779 -0.8356
  773MOL0     C 4253   5.017   2.651   6.122 -0.3175  0.3403  0.5975
  773MOL0     C 4254   5.050   2.637   5.990  0.4794 -0.3039 -0.1014
  773MOL0     C 4255   4.990   2.723   5.898 -0.3998 -0.0325  0.1505
  773MOL0     O 4256   5.035   2.701   5.775  0.6267  0.3794 -0.4356
  773MOL0     C 4257   4.968   2.757   5.662 -0.3990  0.3988  0.2856
  773MOL0     C 4258   5.068   2.770   5.544 -0.8039  0.1353 -0.5854
  773MOL0     C 4259   5.003   2.801   5.412 -0.5608  0.6915  0.7677
  773MOL0     C 4260   5.107   2.811   5.303 -0.7426  0.0320  0.1403
  773MOL0     C 4261   5.041   2.861   5.169 -0.0346 -0.1315 -0.1049
  773MOL0     C 4262   5.135   2.896   5.055 -0.1382  1.0527  0.3366
  773MOL0     C 4263   5.240   3.002   5.085 -0.3814  0.4790 -0.2593
  773MOL0     C 4264   5.319   3.028   4.949 -1.0948 -0.3379 -1.2005
  773MOL0    Cl 4265   5.421   3.167   4.946 -0.2534 -0.3117  0.3645
  773MOL0     C 4266   4.909   2.840   5.936 -0.0207  0.4185 -0.0496
  773MOL0     C 4267   4.882   2.854   6.071  0.2057  0.9162  0.2058
  773MOL0     O 4268   5.124   2.784   6.362  0.2440 -0.0255  0.3692
  773MOL0     C 4269   5.084   2.825   6.618 -0.4559 -0.1578 -0.2066
  773MOL0     C 4270   5.056   2.823   6.754 -0.4408 -0.4194 -0.1238
  773MOL0     N 4271   4.661   2.524   7.450  0.4497  0.7559  0.0018
  773MOL0     N 4272   4.583   2.427   7.419  0.4742  0.4291  0.4854
  773MOL0     C 4273   3.724   1.784   7.649 -0.0309  0.4678  0.6163
  773MOL0     C 4274   3.584   1.774   7.667 -0.0342  0.4515  0.0429
  773MOL0     C 4275   3.165   1.661   7.676 -0.2129  0.1218 -0.2976
  773MOL0     C 4276   3.109   1.555   7.759  0.3383 -0.4062 -0.5256
  773MOL0     C 4277   2.965   1.544   7.770  0.2131  1.0443  0.3415
  773MOL0     C 4278   2.889   1.634   7.694 -0.8781  0.1392 -0.9482
  773MOL0     O 4279   2.758   1.625   7.705  0.2591 -0.5013  0.1208
  773MOL0     C 4280   2.707   1.509   7.642  0.3370 -0.3971  0.1530
  773MOL0     C 4281   2.558   1.538   7.633 -0.2872 -0.2308 -1.2016
  773MOL0     C 4282   2.480   1.496   7.763 -0.1703 -0.3247  0.6052
  773MOL0     C 4283   2.334   1.526   7.741  0.4540 -0.6866 -0.9298
  773MOL0     C 4284   2.268   1.446   7.634 -0.5003  0.6165  0.7939
  773MOL0     C 4285   2.221   1.364   7.560  0.6887 -0.4716 -0.1240
  773MOL0     C 4286   2.952   1.729   7.619 -0.2458  0.4790  0.6618
  773MOL0     C 4287   3.089   1.734   7.596 -0.1146  0.3282  0.5054
  773MOL0     H 4288   3.510   1.657   7.356 -1.5018 -0.0140  0.8851
  773MOL0     H 4289   3.764   1.694   7.322  2.7585 -1.4109  0.5373
  773MOL0     H 4290   3.980   1.732   7.336 -0.3582 -2.7969  3.1832
  773MOL0     H 4291   3.926   1.898   7.352  1.3174  1.0881  0.2404
  773MOL0     H 4292   4.121   1.958   7.476  4.4893  1.3932 -1.7805
  773MOL0     H 4293   4.166   1.789   7.499 -0.4238  2.8500  3.3061
  773MOL0     H 4294   4.213   1.789   7.237  1.5909 -0.8825  2.4183
  773MOL0     H 4295   4.145   1.957   7.234  1.2895 -1.1226 -3.0012
  773MOL0     H 4296   4.316   2.026   7.395  0.9772 -0.2568  1.0080
  773MOL0     H 4297   4.380   1.857   7.384 -0.2673 -0.8995 -2.1611
  773MOL0     H 4298   4.399   1.891   7.139  2.9665  2.3303 -2.3240
  773MOL0     H 4299   4.342   2.057   7.150 -0.2655  1.1504 -0.9521
  773MOL0     H 4300   4.584   1.916   7.276 -0.8319 -0.6865 -1.5887
  773MOL0     H 4301   4.591   2.008   7.141  4.1675 -2.4972  1.3335
  773MOL0     H 4302   4.513   2.142   7.406 -0.5175 -0.2281 -0.5388
  773MOL0     H 4303   4.680   2.124   7.360  0.7812 -0.4423 -2.6533
  773MOL0     H 4304   4.466   2.270   7.194  0.2827  2.1183 -1.8768
  773MOL0     H 4305   4.629   2.250   7.135 -1.8077  1.1295 -1.1770
  773MOL0     H 4306   4.774   2.441   7.159  5.0548  2.2167  2.5140
  773MOL0     H 4307   4.858   2.702   7.416  0.3832  1.1243 -0.7011
  773MOL0     H 4308   4.951   2.568   7.334  0.0071  0.8129 -0.0538
  773MOL0     H 4309   4.773   2.728   7.161 -0.2250  0.1902 -0.2804
  773MOL0     H 4310   4.894   2.617   7.122 -0.1975 -1.1157  1.1472
  773MOL0     H 4311   5.064   2.770   7.239  1.9340 -2.8102 -2.1187
  773MOL0     H 4312   4.934   2.899   7.231 -1.6168 -0.8543 -2.0726
  773MOL0     H 4313   5.079   2.757   7.010  0.1695  0.1047 -0.3025
  773MOL0     H 4314   5.071   2.928   7.016 -0.0386  0.5106 -0.3560
  773MOL0     H 4315   4.739   2.910   6.752  1.5392  2.1951  1.1285
  773MOL0     H 4316   4.652   2.967   6.548  0.1573  1.5248  1.0406
  773MOL0     H 4317   4.763   2.981   6.421  1.1712  0.4210  0.4098
  773MOL0     H 4318   4.703   2.816   6.446 -1.8797  0.4349  1.5603
  773MOL0     H 4319   5.062   2.595   6.204  0.2632 -0.6084 -0.3350
  773MOL0     H 4320   5.104   2.554   5.945  0.9230  0.2817 -0.6760
  773MOL0     H 4321   4.884   2.689   5.642  0.1211 -0.0014 -0.6269
  773MOL0     H 4322   4.932   2.859   5.678 -1.8953  0.0880 -0.8101
  773MOL0     H 4323   5.147   2.845   5.561 -0.0942 -1.0248  1.6919
  773MOL0     H 4324   5.113   2.672   5.525 -1.3899  0.1248 -1.9835
  773MOL0     H 4325   4.960   2.902   5.411 -0.0688  0.9205 -0.5286
  773MOL0     H 4326   4.936   2.719   5.388  2.2169 -1.7737  0.8356
  773MOL0     H 4327   5.186   2.884   5.326  1.9667 -1.5852 -3.1954
  773MOL0     H 4328   5.157   2.714   5.294  0.3596  0.6425 -0.6094
  773MOL0     H 4329   4.993   2.955   5.198  1.5366  0.6964 -0.0567
  773MOL0     H 4330   4.968   2.786   5.137  0.5483 -0.2411 -1.2066
  773MOL0     H 4331   5.188   2.809   5.016 -1.1943  0.7902 -0.5554
  773MOL0     H 4332   5.075   2.929   4.970  4.0875  1.1016 -2.9075
  773MOL0     H 4333   5.315   2.965   5.156  0.4009 -1.1254 -1.8343
  773MOL0     H 4334   5.203   3.096   5.127  2.2198  1.0223  1.0875
  773MOL0     H 4335   5.253   3.031   4.862  3.0636 -0.8304 -4.7454
  773MOL0     H 4336   5.382   2.941   4.933  1.8626  1.1665  1.1790
  773MOL0     H 4337   4.878   2.912   5.861 -1.6923 -0.2046 -0.0035
  773MOL0     H 4338   4.820   2.936   6.105 -3.1942 -1.2045 -0.4668
  773MOL0     H 4339   5.189   2.806   6.595  0.6497  0.0268  3.8472
  773MOL0     H 4340   5.155   2.820   6.798  0.2021  3.7247 -0.9104
  773MOL0     H 4341   3.781   1.813   7.737  0.1589 -2.3427  1.5272
  773MOL0     H 4342   3.554   1.803   7.767 -1.5497  1.6892 -0.7338
  773MOL0     H 4343   3.176   1.495   7.819  0.1438  0.7757  0.9226
  773MOL0     H 4344   2.918   1.470   7.834  1.5892 -0.8572 -0.7454
  773MOL0     H 4345   2.751   1.489   7.544  0.0840  1.7751 -0.4535
  773MOL0     H 4346   2.716   1.419   7.704  0.4651 -0.8419 -0.4926
  773MOL0     H 4347   2.518   1.478   7.551 -3.8290 -1.6778  1.3393
  773MOL0     H 4348   2.540   1.644   7.612  0.2591 -0.0952 -0.9996
  773MOL0     H 4349   2.528   1.539   7.851 -0.2362  3.5227 -1.0361
  773MOL0     H 4350   2.492   1.388   7.776 -1.3460 -0.4171  0.9787
  773MOL0     H 4351   2.327   1.629   7.706 -0.5751 -0.7252 -0.8693
  773MOL0     H 4352   2.272   1.527   7.832 -0.0233 -1.3678 -1.2313
  773MOL0     H 4353   2.177   1.282   7.508  1.7491  0.2827 -2.3069
  773MOL0     H 4354   2.898   1.806   7.565  1.7984  2.1056  0.7770
  773MOL0     H 4355   3.132   1.798   7.520  0.6750 -0.0478  0.6284
  774MOL0     O 4356   8.366   7.679   1.832 -0.7808 -0.2506 -0.4647
  774MOL0     C 4357   8.394   7.785   1.782  0.6048 -0.6459  0.4302
  774MOL0     O 4358   8.300   7.883   1.763 -0.3465  0.1722 -0.1812
  774MOL0     C 4359   8.170   7.848   1.756  0.1400  0.5122  0.0266
  774MOL0     C 4360   8.123   7.783   1.636 -0.4248  0.4939  0.3342
  774MOL0     C 4361   7.992   7.743   1.630  0.0199 -0.2784 -0.4521
  774MOL0     C 4362   7.901   7.769   1.733  0.2105 -0.2135 -0.7631
  774MOL0     O 4363   7.771   7.722   1.739 -0.7977  0.2970 -0.3406
  774MOL0     C 4364   7.705   7.678   1.617 -0.7465 -0.2049 -0.2099
  774MOL0     C 4365   7.555   7.630   1.627 -0.6984 -1.2549  0.2390
  774MOL0     C 4366   7.533   7.538   1.748  0.5315 -0.2890  0.3808
  774MOL0     C 4367   7.387   7.504   1.766  0.3185 -0.0836  0.1356
  774MOL0     C 4368   7.369   7.420   1.885 -1.1003 -0.0457 -0.3094
  774MOL0     C 4369   7.213   7.402   1.902 -0.1679 -0.6843  0.6733
  774MOL0     C 4370   7.181   7.319   2.024 -0.4810  0.5081  0.5475
  774MOL0     C 4371   7.040   7.274   2.013  0.6633  0.3408 -0.2623
  774MOL0     N 4372   6.942   7.372   2.058 -0.0884  0.3655 -0.3360
  774MOL0     C 4373   6.904   7.478   1.984  0.2779 -1.0422 -0.2745
  774MOL0     C 4374   6.818   7.545   2.063  0.8538  0.0744  0.3258
  774MOL0     C 4375   6.757   7.680   2.026  0.0654 -0.7071  0.9222
  774MOL0     C 4376   6.769   7.795   2.127  0.5688  0.0004 -0.5165
  774MOL0     C 4377   6.646   7.821   2.225 -0.3062 -0.0480  0.3292
  774MOL0     C 4378   6.584   7.696   2.276 -0.0554  0.5486 -0.6196
  774MOL0     O 4379   6.492   7.732   2.374 -0.5166 -0.1126  0.2969
  774MOL0     C 4380   6.436   7.623   2.445  0.8160  0.2465 -0.2033
  774MOL0     C 4381   6.319   7.653   2.523 -0.5102  0.2699 -0.9810
  774MOL0     C 4382   6.257   7.551   2.605  0.2723 -1.0856 -0.1577
  774MOL0     C 4383   6.138   7.588   2.694  0.1164 -0.3009 -0.7989
  774MOL0     C 4384   6.299   7.419   2.583  0.3333 -0.9401 -0.2835
  774MOL0     C 4385   6.250   7.305   2.642  0.4680  0.6815  0.5464
  774MOL0     O 4386   6.240   7.186   2.571 -0.5996 -0.4365  0.0063
  774MOL0     C 4387   6.221   7.069   2.637 -0.1927  0.5717  0.4311
  774MOL0     C 4388   6.089   7.043   2.685 -0.1051  0.3578  0.1949
  774MOL0     C 4389   6.072   6.930   2.765 -0.4181 -0.3154 -0.5151
  774MOL0     C 4390   6.182   6.843   2.793 -0.7805 -0.5474  0.9050
  774MOL0     O 4391   6.172   6.736   2.879 -0.5815  1.0098  0.3949
  774MOL0     C 4392   6.064   6.711   2.966 -0.8536 -0.9938  0.2052
  774MOL0     C 4393   6.081   6.619   3.076 -0.2106 -0.1688  0.4433
  774MOL0     C 4394   6.198   6.662   3.170 -0.1400  0.0260 -0.4292
  774MOL0     C 4395   6.169   6.597   3.308 -0.0565 -0.2219 -0.1393
  774MOL0     C 4396   6.286   6.611   3.411 -0.1150 -0.1896 -0.6641
  774MOL0     C 4397   6.315   6.756   3.454  0.3848 -0.3663  0.2269
  774MOL0     C 4398   6.370   6.757   3.595 -0.3622 -0.5865 -0.1361
  774MOL0     C 4399   6.511   6.708   3.631 -0.6860  0.0842 -0.8189
  774MOL0    Cl 4400   6.645   6.757   3.516 -0.6633 -0.4713  0.5027
  774MOL0     C 4401   6.305   6.867   2.741  0.3379 -0.4457  0.2918
  774MOL0     C 4402   6.326   6.984   2.662 -0.5739  0.5924 -0.2146
  774MOL0     O 4403   6.240   7.319   2.767  0.1689 -0.1735 -0.4847
  774MOL0     C 4404   6.398   7.390   2.495 -0.2941  0.1427 -0.5445
  774MOL0     C 4405   6.474   7.492   2.438 -0.3304  0.2135 -0.0676
  774MOL0     N 4406   6.815   7.479   2.192 -0.3219 -0.1256  0.0413
  774MOL0     N 4407   6.891   7.376   2.190 -0.0622 -0.1438 -0.4973
  774MOL0     C 4408   7.949   7.840   1.841 -0.2300  0.5260 -0.8453
  774MOL0     C 4409   8.081   7.886   1.856 -0.6800 -0.7228  0.1131
  774MOL0     C 4410   8.541   7.810   1.763 -0.3109  0.8190 -0.9039
  774MOL0     C 4411   8.589   7.932   1.707 -0.3526  0.3321 -0.7622
  774MOL0     C 4412   8.729   7.936   1.673 -0.5361 -0.0239 -1.3462
  774MOL0     C 4413   8.814   7.821   1.687  1.0299 -0.0061 -0.8193
  774MOL0     O 4414   8.940   7.829   1.642  0.0216 -0.6097  0.2819
  774MOL0     C 4415   9.024   7.711   1.633 -0.1773  0.2525 -0.1641
  774MOL0     C 4416   9.137   7.736   1.534 -0.1595 -0.8329 -0.0293
  774MOL0     C 4417   9.086   7.782   1.391 -0.0049 -0.0398 -0.6656
  774MOL0     C 4418   9.172   7.894   1.334 -0.4465 -0.2525 -0.2100
  774MOL0     C 4419   9.311   7.855   1.304  0.6778 -0.3735 -0.1004
  774MOL0     C 4420   9.422   7.827   1.278  0.6535  0.1234 -0.1380
  774MOL0     C 4421   8.757   7.709   1.744  1.0710 -0.6198  0.3850
  774MOL0     C 4422   8.633   7.696   1.796  0.7332 -0.5901  0.1066
  774MOL0     H 4423   8.190   7.770   1.552 -1.6368 -3.5362 -0.1792
  774MOL0     H 4424   7.961   7.698   1.536  0.2725 -0.5087 -0.4263
  774MOL0     H 4425   7.704   7.758   1.543 -1.5866 -2.0160 -2.2567
  774MOL0     H 4426   7.767   7.593   1.584  0.7013 -0.7382  3.3476
  774MOL0     H 4427   7.499   7.724   1.633  0.3409 -0.0285 -4.8248
  774MOL0     H 4428   7.531   7.575   1.536  0.5807 -0.8870 -0.3447
  774MOL0     H 4429   7.593   7.447   1.737  1.4053  0.3232  0.0086
  774MOL0     H 4430   7.574   7.589   1.835 -1.1601  0.2461  0.9024
  774MOL0     H 4431   7.334   7.598   1.787 -1.5966 -0.8698 -0.9707
  774MOL0     H 4432   7.346   7.472   1.670  1.2291  0.6109 -0.5044
  774MOL0     H 4433   7.414   7.322   1.866  1.3270  0.9057  0.1832
  774MOL0     H 4434   7.429   7.469   1.962  2.1257 -0.2309 -2.5226
  774MOL0     H 4435   7.177   7.504   1.920  0.2967 -0.6726  1.5723
  774MOL0     H 4436   7.180   7.362   1.806 -1.4521  0.6939  0.5046
  774MOL0     H 4437   7.260   7.243   2.031  0.3339  1.1748 -1.0164
  774MOL0     H 4438   7.182   7.386   2.111 -2.5723  0.5217  0.6192
  774MOL0     H 4439   7.038   7.189   2.082 -0.3406  0.4360 -0.1576
  774MOL0     H 4440   7.020   7.234   1.914 -2.1355 -0.1664  0.4462
  774MOL0     H 4441   6.937   7.502   1.883  0.3722  0.1859  0.0309
  774MOL0     H 4442   6.813   7.713   1.937 -1.0601 -4.3809 -1.3902
  774MOL0     H 4443   6.655   7.674   1.986  0.4232  0.1966 -0.1928
  774MOL0     H 4444   6.788   7.891   2.077  1.7212  0.7322  1.1922
  774MOL0     H 4445   6.866   7.779   2.175 -0.2808 -4.4249  0.1259
  774MOL0     H 4446   6.579   7.883   2.165 -1.2780 -2.2158 -0.9255
  774MOL0     H 4447   6.681   7.871   2.316 -0.2961 -1.3241  1.0403
  774MOL0     H 4448   6.654   7.628   2.326 -1.4271 -1.3512 -1.1735
  774MOL0     H 4449   6.546   7.624   2.204  0.8259 -1.2593  0.6501
  774MOL0     H 4450   6.281   7.754   2.524  1.3484  1.0557 -2.4013
  774MOL0     H 4451   6.165   7.582   2.799 -3.2263  0.3372  0.2065
  774MOL0     H 4452   6.109   7.693   2.693  0.3076 -0.2177  0.5853
  774MOL0     H 4453   6.053   7.520   2.682 -1.9870  1.7472  1.4611
  774MOL0     H 4454   6.006   7.108   2.657 -1.0549 -1.3332 -1.0492
  774MOL0     H 4455   5.977   6.903   2.810 -0.3091 -0.6376 -0.4710
  774MOL0     H 4456   6.037   6.803   3.017 -0.6574 -0.4620 -0.6224
  774MOL0     H 4457   5.972   6.687   2.911 -2.1004  0.8832  1.3629
  774MOL0     H 4458   5.988   6.618   3.133 -0.1404 -0.2227  0.5560
  774MOL0     H 4459   6.099   6.516   3.044 -0.7267 -0.6574  1.6876
  774MOL0     H 4460   6.197   6.771   3.169 -1.4174  0.1737  3.0062
  774MOL0     H 4461   6.293   6.630   3.126  0.1132  3.6447 -2.9327
  774MOL0     H 4462   6.076   6.632   3.354  0.7629 -1.0498  2.2668
  774MOL0     H 4463   6.157   6.490   3.291 -0.8614 -0.1821  0.1210
  774MOL0     H 4464   6.380   6.564   3.382  0.8022  0.7500  0.6600
  774MOL0     H 4465   6.251   6.562   3.503 -3.9795  1.0576 -1.2893
  774MOL0     H 4466   6.366   6.809   3.373 -2.7627  4.2814  0.9478
  774MOL0     H 4467   6.219   6.807   3.459  0.7808  0.5033 -0.6815
  774MOL0     H 4468   6.298   6.703   3.658 -0.1367 -2.4789 -1.4090
  774MOL0     H 4469   6.375   6.864   3.615 -2.4428 -0.5478  0.4006
  774MOL0     H 4470   6.508   6.598   3.633 -2.3611  0.1044  1.5824
  774MOL0     H 4471   6.537   6.736   3.733 -2.0203 -2.4732  0.3199
  774MOL0     H 4472   6.381   6.792   2.754  2.0395  1.0647 -0.4587
  774MOL0     H 4473   6.424   6.987   2.615 -1.1576 -1.7216 -1.7692
  774MOL0     H 4474   6.430   7.289   2.473 -0.1244 -0.1004  0.7366
  774MOL0     H 4475   6.566   7.462   2.389  0.3214 -0.6928  1.6260
  774MOL0     H 4476   7.874   7.857   1.919 -1.9341 -1.4645 -1.9438
  774MOL0     H 4477   8.123   7.921   1.950 -0.5845  1.6193 -0.7461
  774MOL0     H 4478   8.509   8.002   1.688 -0.1867  0.5069 -0.8271
  774MOL0     H 4479   8.769   8.028   1.633 -1.8856  0.9796 -0.4426
  774MOL0     H 4480   9.066   7.694   1.732 -2.5767  0.6518  0.9975
  774MOL0     H 4481   8.976   7.617   1.605 -1.0685 -0.2135  2.6129
  774MOL0     H 4482   9.203   7.649   1.533  1.2959  0.0425  3.6834
  774MOL0     H 4483   9.198   7.817   1.574  2.0178 -2.6156  0.4696
  774MOL0     H 4484   8.981   7.811   1.400 -1.2591 -3.4654 -2.4630
  774MOL0     H 4485   9.086   7.688   1.336 -1.9282 -0.6342  0.2615
  774MOL0     H 4486   9.172   7.982   1.399 -1.1208  0.4745 -1.1542
  774MOL0     H 4487   9.140   7.924   1.234  1.5585  1.7575 -0.3151
  774MOL0     H 4488   9.519   7.793   1.248  1.0804  0.0034  1.3204
  774MOL0     H 4489   8.821   7.623   1.763  2.1114  0.1921  0.6091
  774MOL0     H 4490   8.595   7.600   1.830 -0.9311 -1.4272 -3.6151
  775MOL0     O 4491   8.318   3.252  10.246 -0.8393  0.1415  0.3209
  775MOL0     C 4492   8.259   3.353  10.198  0.7586 -0.3091 -0.9260
  775MOL0     O 4493   8.328   3.464  10.150 -0.1055  0.5176 -0.7371
  775MOL0     C 4494   8.465   3.471  10.158 -1.0546 -1.1090 -0.2493
  775MOL0     C 4495   8.559   3.364  10.140 -0.7478 -0.1899  0.1962
  775MOL0     C 4496   8.694   3.389  10.174 -0.3355  1.4413  0.7651
  775MOL0     C 4497   8.735   3.509  10.225 -0.3861  0.6425 -0.1833
  775MOL0     O 4498   8.867   3.534  10.278  1.0611 -0.8307  0.6912
  775MOL0     C 4499   8.976   3.473  10.208  0.0826 -0.0759 -0.3236
  775MOL0     C 4500   9.028   3.360  10.297  0.8375  0.9436  0.2157
  775MOL0     C 4501   9.166   3.302  10.273 -1.4000 -0.3616  0.1597
  775MOL0     C 4502   9.208   3.193  10.373  0.0219  0.8008 -0.2986
  775MOL0     C 4503   9.359   3.178  10.403 -0.3290  0.1347 -0.0104
  775MOL0     C 4504   9.444   3.132  10.288  0.6124  0.4017  0.4536
  775MOL0     C 4505   9.401   2.997  10.241  0.8386 -0.3698  0.4308
  775MOL0     C 4506   9.490   2.930  10.135  0.1511 -0.6790 -0.6105
  775MOL0     N 4507   9.500   3.036  10.026  0.0028  0.0689  0.1334
  775MOL0     C 4508   9.401   3.079   9.935  0.2900  0.2744  0.0677
  775MOL0     C 4509   9.461   3.180   9.865  0.4086 -0.6922 -0.5209
  775MOL0     C 4510   9.396   3.250   9.745  0.6318  0.1805 -0.9082
  775MOL0     C 4511   9.376   3.141   9.639 -0.1644  0.6067 -0.6926
  775MOL0     C 4512   9.285   3.193   9.520 -0.1810 -0.8158 -0.3901
  775MOL0     C 4513   9.174   3.282   9.565 -0.5208  0.1238 -0.0894
  775MOL0     O 4514   9.094   3.316   9.453  0.0151  0.2826 -0.3210
  775MOL0     C 4515   8.962   3.269   9.453  0.3218  1.5975  0.1174
  775MOL0     C 4516   8.871   3.263   9.563  0.1546  0.3192  0.0719
  775MOL0     C 4517   8.743   3.200   9.547 -0.9394  0.3034  0.3719
  775MOL0     C 4518   8.651   3.179   9.665  0.2214  0.0779 -0.4836
  775MOL0     C 4519   8.696   3.169   9.421 -0.2304  0.2832  0.0828
  775MOL0     C 4520   8.575   3.099   9.405 -0.2661 -0.2178 -0.0084
  775MOL0     O 4521   8.472   3.181   9.373  0.0107 -0.1221  0.0448
  775MOL0     C 4522   8.350   3.112   9.355 -0.5308 -0.3951 -0.0775
  775MOL0     C 4523   8.269   3.110   9.468 -0.4061 -0.8056 -0.2387
  775MOL0     C 4524   8.150   3.043   9.456  0.3117  0.7311  0.2556
  775MOL0     C 4525   8.111   2.983   9.331  0.2166 -0.8887  0.3827
  775MOL0     O 4526   7.984   2.937   9.310  0.6420 -0.3025 -0.0716
  775MOL0     C 4527   7.885   3.039   9.317 -1.3875 -0.3313  0.5399
  775MOL0     C 4528   7.769   3.006   9.219  0.3227  0.4029  0.4427
  775MOL0     C 4529   7.647   3.103   9.230  0.7782 -0.0532  0.6093
  775MOL0     C 4530   7.676   3.248   9.268  0.6633 -0.5801 -0.1290
  775MOL0     C 4531   7.747   3.326   9.151 -0.4573 -0.2374  0.5094
  775MOL0     C 4532   7.798   3.477   9.184 -0.1703  0.5232 -0.0613
  775MOL0     C 4533   7.901   3.478   9.301 -0.2789 -0.2588 -0.0039
  775MOL0     C 4534   8.036   3.438   9.243 -0.2879  0.2706  0.1449
  775MOL0    Cl 4535   8.160   3.469   9.379 -0.2551 -0.1385 -0.0928
  775MOL0     C 4536   8.197   2.982   9.226 -0.4472 -0.3024 -0.4190
  775MOL0     C 4537   8.314   3.052   9.234  0.1495 -0.2204 -0.1866
  775MOL0     O 4538   8.564   2.982   9.438 -0.1500  0.6054  0.6323
  775MOL0     C 4539   8.782   3.187   9.307  0.2526  0.1266 -0.0135
  775MOL0     C 4540   8.914   3.232   9.326 -0.1181 -0.6919 -0.5516
  775MOL0     N 4541   9.596   3.191   9.894 -0.0263  1.5519 -0.4573
  775MOL0     N 4542   9.614   3.096   9.988  1.4514 -0.1606  0.4040
  775MOL0     C 4543   8.642   3.611  10.251  0.3300 -0.0173  0.5138
  775MOL0     C 4544   8.511   3.595  10.212 -0.2814  0.3060  0.5827
  775MOL0     C 4545   8.115   3.345  10.209  0.6133 -0.1679 -0.2349
  775MOL0     C 4546   8.049   3.274  10.305  0.8222  0.7902  0.3420
  775MOL0     C 4547   7.910   3.281  10.307 -1.0112  1.0603  0.5568
  775MOL0     C 4548   7.829   3.347  10.210 -1.2487  0.5249  0.1478
  775MOL0     O 4549   7.692   3.348  10.199 -0.2078 -0.1902 -0.1397
  775MOL0     C 4550   7.618   3.258  10.281 -0.3915 -0.5592 -0.5516
  775MOL0     C 4551   7.627   3.106  10.256 -0.1878 -0.6889  0.5465
  775MOL0     C 4552   7.576   3.079  10.112 -0.2940 -0.1052 -0.0780
  775MOL0     C 4553   7.560   2.927  10.092  0.3101 -0.1377  1.0318
  775MOL0     C 4554   7.544   2.899   9.950  0.4381 -0.8743  0.2109
  775MOL0     C 4555   7.528   2.884   9.826 -0.0701 -0.0100 -1.0418
  775MOL0     C 4556   7.906   3.425  10.122  0.1351 -0.7336  0.4675
  775MOL0     C 4557   8.040   3.433  10.126  0.5332 -0.7668 -0.0967
  775MOL0     H 4558   8.530   3.264  10.108 -0.4831 -0.2835  0.2440
  775MOL0     H 4559   8.765   3.310  10.151  0.6576  2.2693  0.9513
  775MOL0     H 4560   8.936   3.439  10.112 -1.6781 -2.2541  1.0723
  775MOL0     H 4561   9.056   3.546  10.198 -1.0651  1.3633  0.5802
  775MOL0     H 4562   9.031   3.400  10.398  0.6742 -1.4041  1.1945
  775MOL0     H 4563   8.959   3.275  10.300 -0.3113  1.8576  0.7096
  775MOL0     H 4564   9.185   3.245  10.181  1.9536 -0.7633  0.9409
  775MOL0     H 4565   9.244   3.378  10.283 -0.7282 -0.9256 -0.6317
  775MOL0     H 4566   9.168   3.221  10.471  0.0017 -0.7498  0.1631
  775MOL0     H 4567   9.167   3.096  10.345  1.0874  0.4632 -0.7294
  775MOL0     H 4568   9.388   3.279  10.433 -2.3368  1.1821 -1.4113
  775MOL0     H 4569   9.374   3.120  10.495 -2.8846 -2.0834 -0.8494
  775MOL0     H 4570   9.426   3.210  10.213 -1.2612  0.4181  0.8920
  775MOL0     H 4571   9.548   3.124  10.323  0.2858 -0.5300  1.2262
  775MOL0     H 4572   9.374   2.933  10.325  1.8158  0.2292  1.2321
  775MOL0     H 4573   9.298   3.015  10.207  1.0358  3.8475  1.4294
  775MOL0     H 4574   9.431   2.847  10.097 -1.3092  0.8053 -1.7396
  775MOL0     H 4575   9.588   2.893  10.169  0.0730  0.3781  0.9180
  775MOL0     H 4576   9.303   3.034   9.927  0.3863 -0.2264  1.5057
  775MOL0     H 4577   9.309   3.309   9.776 -0.6407 -3.2613  2.9308
  775MOL0     H 4578   9.472   3.322   9.711  1.7639 -0.1950  0.6995
  775MOL0     H 4579   9.330   3.049   9.677  0.1372  0.8350  0.2449
  775MOL0     H 4580   9.470   3.117   9.589  0.2435  0.8642 -0.0471
  775MOL0     H 4581   9.245   3.105   9.469 -4.7670  0.4908  0.5108
  775MOL0     H 4582   9.336   3.264   9.454  1.2861 -0.4307  1.0996
  775MOL0     H 4583   9.221   3.376   9.594 -0.7226  0.0322  0.5522
  775MOL0     H 4584   9.121   3.242   9.652 -1.0879  0.3162 -0.3381
  775MOL0     H 4585   8.909   3.294   9.660  3.6182 -0.2466 -0.9681
  775MOL0     H 4586   8.669   3.077   9.701  1.1280  0.6765  0.8510
  775MOL0     H 4587   8.666   3.254   9.744 -2.3592 -1.0483  1.2165
  775MOL0     H 4588   8.545   3.193   9.643  0.1918  1.8369  0.5623
  775MOL0     H 4589   8.292   3.155   9.564 -1.9825 -0.7992  0.1615
  775MOL0     H 4590   8.078   3.024   9.535  0.0295 -1.0952 -0.3945
  775MOL0     H 4591   7.858   3.056   9.422 -0.9376 -2.0025  0.9467
  775MOL0     H 4592   7.931   3.131   9.279  0.5674 -1.0185  1.1297
  775MOL0     H 4593   7.808   3.003   9.117 -0.4867  1.8342  0.0613
  775MOL0     H 4594   7.740   2.901   9.236 -0.3135 -0.0450 -2.7552
  775MOL0     H 4595   7.576   3.072   9.308 -2.3061  0.4320 -1.7961
  775MOL0     H 4596   7.585   3.090   9.141 -1.1183 -1.8061  2.0708
  775MOL0     H 4597   7.589   3.308   9.294  0.3425 -0.9299 -0.3810
  775MOL0     H 4598   7.731   3.244   9.363  1.1161  0.3420 -0.3395
  775MOL0     H 4599   7.679   3.328   9.066 -0.4526 -1.0922  0.4785
  775MOL0     H 4600   7.829   3.269   9.107  1.4598  2.4624  0.3391
  775MOL0     H 4601   7.845   3.522   9.096  3.2865  1.5450  2.0824
  775MOL0     H 4602   7.713   3.541   9.207 -0.6715 -0.5415  1.1947
  775MOL0     H 4603   7.862   3.416   9.382  0.4793 -2.2295 -1.0614
  775MOL0     H 4604   7.926   3.578   9.337 -1.4794  0.5833 -1.4172
  775MOL0     H 4605   8.062   3.505   9.161 -0.4938 -0.6062 -0.6460
  775MOL0     H 4606   8.036   3.338   9.200 -2.5142  1.5579 -3.2606
  775MOL0     H 4607   8.159   2.943   9.132 -0.2084 -1.7054  0.0473
  775MOL0     H 4608   8.376   3.072   9.147  0.1466  2.5709  0.3739
  775MOL0     H 4609   8.760   3.157   9.205 -3.1833 -0.8096  0.8842
  775MOL0     H 4610   8.987   3.245   9.246  1.5411  1.8634  1.2367
  775MOL0     H 4611   8.671   3.703  10.300  1.7879 -1.2935  2.1788
  775MOL0     H 4612   8.447   3.679  10.238  1.6426  1.8757  0.4456
  775MOL0     H 4613   8.083   3.190  10.365 -2.9384 -0.1213  1.5123
  775MOL0     H 4614   7.855   3.218  10.377 -3.2926 -0.0660 -2.0745
  775MOL0     H 4615   7.635   3.280  10.386 -2.2351 -1.9301  0.0919
  775MOL0     H 4616   7.513   3.287  10.271 -0.2644 -0.7791 -4.0541
  775MOL0     H 4617   7.574   3.043  10.327 -1.6084 -1.4534 -1.1176
  775MOL0     H 4618   7.731   3.071  10.262  0.7644  2.0570  1.6233
  775MOL0     H 4619   7.654   3.116  10.045  1.1581  1.2106  2.2099
  775MOL0     H 4620   7.479   3.128  10.098 -1.6404 -2.6841 -0.3229
  775MOL0     H 4621   7.469   2.890  10.139 -0.8597 -0.6393 -1.4911
  775MOL0     H 4622   7.651   2.883  10.133  0.3765 -1.5356 -0.5331
  775MOL0     H 4623   7.517   2.858   9.722 -2.2335 -3.7057 -0.0942
  775MOL0     H 4624   7.857   3.485  10.046  3.7357  0.4527 -1.1910
  775MOL0     H 4625   8.092   3.498  10.056  0.3446 -0.3444  0.1535
  776MOL0     O 4626   4.260   6.491   3.080 -0.2717 -0.7983  0.3935
  776MOL0     C 4627   4.242   6.375   3.061  0.0611  0.1985  0.2120
  776MOL0     O 4628   4.252   6.276   3.152 -0.1552 -0.5933 -0.8817
  776MOL0     C 4629   4.292   6.310   3.283  0.5011  0.1755 -0.7232
  776MOL0     C 4630   4.402   6.391   3.315  0.8284 -0.5641 -0.5638
  776MOL0     C 4631   4.419   6.412   3.457 -0.4212  0.0425  0.5623
  776MOL0     C 4632   4.343   6.357   3.555 -0.7749 -0.2640 -0.8070
  776MOL0     O 4633   4.359   6.383   3.683 -0.2483  0.9929 -0.0298
  776MOL0     C 4634   4.490   6.439   3.726  0.3460  0.0361 -0.0760
  776MOL0     C 4635   4.493   6.452   3.876 -0.4540  0.4142 -0.6655
  776MOL0     C 4636   4.468   6.326   3.949  0.0686  0.2375  0.8764
  776MOL0     C 4637   4.472   6.319   4.107  0.0877 -0.6136  0.6243
  776MOL0     C 4638   4.593   6.269   4.160  0.7584  0.3705  0.5905
  776MOL0     C 4639   4.710   6.374   4.156  0.1530 -0.5434 -1.1740
  776MOL0     C 4640   4.828   6.336   4.245 -0.3304  0.2980 -1.5208
  776MOL0     C 4641   4.951   6.417   4.204  1.4721  0.6235  0.2292
  776MOL0     N 4642   5.063   6.404   4.300 -0.8407 -0.2712  0.0650
  776MOL0     C 4643   5.083   6.487   4.407 -0.2611 -0.6436  0.6207
  776MOL0     C 4644   5.170   6.423   4.481  0.4618 -0.1789 -0.2279
  776MOL0     C 4645   5.231   6.465   4.610 -0.2863 -0.2698  0.8434
  776MOL0     C 4646   5.340   6.569   4.570  0.0433  0.5896  0.1427
  776MOL0     C 4647   5.476   6.512   4.504  0.5794  0.3058 -0.4168
  776MOL0     C 4648   5.583   6.628   4.497 -0.2742 -0.1278  0.6002
  776MOL0     O 4649   5.639   6.683   4.625 -0.3219  0.6552  0.0608
  776MOL0     C 4650   5.596   6.803   4.667 -0.0965 -0.4620  0.5771
  776MOL0     C 4651   5.554   6.815   4.797  0.4326  0.9754 -0.2847
  776MOL0     C 4652   5.510   6.937   4.856  0.5352 -0.8753  0.1847
  776MOL0     C 4653   5.449   6.946   4.994 -0.4924  0.5430  0.1454
  776MOL0     C 4654   5.515   7.056   4.775 -0.7834  0.0217 -0.4834
  776MOL0     C 4655   5.467   7.189   4.819  0.2514  0.2573 -0.6228
  776MOL0     O 4656   5.549   7.297   4.773 -0.2547 -0.2199  0.6493
  776MOL0     C 4657   5.515   7.425   4.800 -1.1665  0.5821 -0.4149
  776MOL0     C 4658   5.387   7.461   4.756  0.0122  0.0796  0.3181
  776MOL0     C 4659   5.343   7.592   4.785 -0.2099 -0.5978  0.1773
  776MOL0     C 4660   5.423   7.686   4.855 -0.9136 -0.0842 -0.6483
  776MOL0     O 4661   5.376   7.810   4.881  0.7592 -0.0852 -0.1430
  776MOL0     C 4662   5.393   7.870   5.011  0.9574 -0.1434  0.0229
  776MOL0     C 4663   5.297   7.994   5.019  0.1646 -0.8158  0.8144
  776MOL0     C 4664   5.344   8.123   4.952 -0.8176 -0.1082 -0.1257
  776MOL0     C 4665   5.381   8.105   4.804  0.6480  0.0987  0.0082
  776MOL0     C 4666   5.385   8.246   4.736  0.4018  0.1382 -0.4983
  776MOL0     C 4667   5.248   8.282   4.677  0.3991 -0.0511  0.0146
  776MOL0     C 4668   5.236   8.404   4.583 -0.3592 -0.4165  0.5755
  776MOL0     C 4669   5.237   8.539   4.650  0.1090 -0.4215  0.2305
  776MOL0    Cl 4670   5.408   8.566   4.701 -0.0358  0.3387  0.4115
  776MOL0     C 4671   5.558   7.642   4.883 -0.5962  0.0559 -0.1110
  776MOL0     C 4672   5.603   7.513   4.865 -0.2556 -0.2308  0.4109
  776MOL0     O 4673   5.357   7.209   4.882  0.0357 -0.9191  0.2632
  776MOL0     C 4674   5.563   7.047   4.644  0.3418  0.8752 -0.9758
  776MOL0     C 4675   5.601   6.925   4.596 -0.8859 -0.6177 -0.0801
  776MOL0     N 4676   5.207   6.304   4.424  0.6111 -0.4656  0.4783
  776MOL0     N 4677   5.143   6.301   4.310 -0.3501 -0.7778  0.4659
  776MOL0     C 4678   4.232   6.281   3.518  0.0903 -0.0737 -0.0283
  776MOL0     C 4679   4.203   6.255   3.382 -0.2910 -0.0227  0.2214
  776MOL0     C 4680   4.179   6.354   2.931 -0.2569  0.5872  1.1774
  776MOL0     C 4681   4.149   6.460   2.847 -0.4203 -1.3507  0.6995
  776MOL0     C 4682   4.121   6.448   2.707 -0.8706  0.5341  0.3928
  776MOL0     C 4683   4.107   6.321   2.652 -1.2637  0.3566 -0.5751
  776MOL0     O 4684   4.065   6.330   2.525 -0.0390 -0.4456  1.3535
  776MOL0     C 4685   4.036   6.201   2.454 -0.0581 -0.0462 -0.2636
  776MOL0     C 4686   3.892   6.165   2.473 -0.1160 -0.0516  0.3798
  776MOL0     C 4687   3.783   6.252   2.402  0.7770  0.0196 -0.4601
  776MOL0     C 4688   3.783   6.272   2.248  0.2115  1.4770  0.1944
  776MOL0     C 4689   3.657   6.327   2.198  0.8073 -0.8071  0.5376
  776MOL0     C 4690   3.543   6.374   2.171 -0.5888  1.0980 -0.1393
  776MOL0     C 4691   4.126   6.208   2.737 -0.5292  0.0052  0.7937
  776MOL0     C 4692   4.165   6.227   2.869 -0.0626 -0.3092  0.0294
  776MOL0     H 4693   4.472   6.449   3.256  2.6869 -1.3591  0.7690
  776MOL0     H 4694   4.506   6.476   3.471  0.7496 -1.1507 -0.9292
  776MOL0     H 4695   4.571   6.375   3.690 -1.1026 -0.8914 -1.9120
  776MOL0     H 4696   4.499   6.541   3.687  0.6793 -0.2605 -0.7860
  776MOL0     H 4697   4.591   6.496   3.894  0.5667 -2.7584  3.0686
  776MOL0     H 4698   4.416   6.521   3.911  0.8765  2.8427 -2.2830
  776MOL0     H 4699   4.366   6.306   3.915  0.4361  1.3101 -1.0271
  776MOL0     H 4700   4.531   6.246   3.908 -0.2531  1.2072 -1.7385
  776MOL0     H 4701   4.460   6.424   4.136  0.6273 -0.2404 -0.4640
  776MOL0     H 4702   4.386   6.266   4.149 -2.9041  1.0433 -2.8301
  776MOL0     H 4703   4.577   6.214   4.253  0.0671 -0.9451 -0.2795
  776MOL0     H 4704   4.626   6.187   4.096 -1.6698 -1.0915  1.1140
  776MOL0     H 4705   4.753   6.381   4.055 -2.4263  3.9599 -2.2078
  776MOL0     H 4706   4.675   6.473   4.184 -1.9262  0.1236 -5.3301
  776MOL0     H 4707   4.804   6.350   4.351 -1.6035 -1.2691 -1.5758
  776MOL0     H 4708   4.860   6.232   4.232 -1.2900 -0.0149 -1.4326
  776MOL0     H 4709   4.929   6.524   4.198 -1.8330  0.1502  1.5432
  776MOL0     H 4710   4.964   6.382   4.101 -3.6439 -3.6150  0.6091
  776MOL0     H 4711   5.018   6.572   4.425 -1.6687 -1.3285 -0.9072
  776MOL0     H 4712   5.160   6.512   4.679 -0.0341 -1.1765  1.7629
  776MOL0     H 4713   5.284   6.385   4.663  1.2619  1.7507  2.5552
  776MOL0     H 4714   5.365   6.615   4.666  0.0354  0.4946  0.1895
  776MOL0     H 4715   5.305   6.652   4.508 -2.4229  4.3767  5.7522
  776MOL0     H 4716   5.444   6.499   4.400 -2.7340 -0.3987  0.5834
  776MOL0     H 4717   5.524   6.423   4.545 -0.7988 -0.3789 -0.2221
  776MOL0     H 4718   5.531   6.706   4.441 -1.9271 -2.2605 -1.0227
  776MOL0     H 4719   5.670   6.601   4.437 -0.8155 -2.0536  0.6136
  776MOL0     H 4720   5.542   6.730   4.864 -4.0091  0.0955 -1.8233
  776MOL0     H 4721   5.354   7.000   5.004  0.5614  2.6202 -0.3879
  776MOL0     H 4722   5.433   6.843   5.026  0.9205  0.0957 -0.4830
  776MOL0     H 4723   5.518   6.997   5.062 -0.5521 -2.5083  2.6910
  776MOL0     H 4724   5.317   7.396   4.704  0.1935 -1.3950  1.8411
  776MOL0     H 4725   5.243   7.613   4.751 -0.8314 -0.3965  2.0010
  776MOL0     H 4726   5.353   7.800   5.085 -1.7478  2.9705  1.7789
  776MOL0     H 4727   5.494   7.900   5.040  0.6335 -0.4245  1.5349
  776MOL0     H 4728   5.194   7.977   4.987 -0.9896  1.7085  2.8447
  776MOL0     H 4729   5.278   8.021   5.124  0.0538 -1.4498  0.9583
  776MOL0     H 4730   5.440   8.159   4.991 -0.8599 -0.2990  0.1550
  776MOL0     H 4731   5.268   8.197   4.976 -0.9509 -0.7654  1.6352
  776MOL0     H 4732   5.472   8.046   4.792  0.5091 -0.3040  0.8436
  776MOL0     H 4733   5.293   8.058   4.759 -0.1022  0.5127  0.9926
  776MOL0     H 4734   5.456   8.238   4.654  2.0933 -0.3157  0.9408
  776MOL0     H 4735   5.421   8.330   4.797 -0.0668  0.8963 -1.2511
  776MOL0     H 4736   5.215   8.192   4.623 -1.4054  0.0237  0.9119
  776MOL0     H 4737   5.174   8.295   4.757  1.5294  3.3956  0.6423
  776MOL0     H 4738   5.134   8.402   4.543 -1.3083  0.7757  2.7620
  776MOL0     H 4739   5.318   8.393   4.512  1.3525 -1.6932  2.6228
  776MOL0     H 4740   5.164   8.548   4.730 -2.1408  2.3647 -1.9099
  776MOL0     H 4741   5.216   8.620   4.579 -0.1666  1.2951  2.1482
  776MOL0     H 4742   5.627   7.709   4.934 -1.0416 -0.5411  1.3118
  776MOL0     H 4743   5.702   7.472   4.884 -0.1250  0.1383  0.5205
  776MOL0     H 4744   5.540   7.131   4.579  0.6340 -0.3680 -2.7666
  776MOL0     H 4745   5.636   6.937   4.494  1.3222  2.2367  0.8821
  776MOL0     H 4746   4.156   6.249   3.588  2.2205  1.3426  3.1490
  776MOL0     H 4747   4.114   6.201   3.353  0.8077 -1.2966 -0.9421
  776MOL0     H 4748   4.157   6.566   2.870  1.7368 -0.6147 -2.6815
  776MOL0     H 4749   4.099   6.533   2.643  0.1948  0.7773  0.3260
  776MOL0     H 4750   4.068   6.221   2.352 -0.6828  2.7807  0.0237
  776MOL0     H 4751   4.104   6.120   2.484  2.5029  1.9797 -0.2293
  776MOL0     H 4752   3.875   6.176   2.581  0.7865  0.3172  0.4922
  776MOL0     H 4753   3.886   6.058   2.453 -1.7093 -0.1893  1.3612
  776MOL0     H 4754   3.794   6.350   2.449  1.8587 -1.4328  2.5864
  776MOL0     H 4755   3.691   6.205   2.440 -0.1840  1.9950 -0.2266
  776MOL0     H 4756   3.803   6.180   2.192  1.6710  2.8490 -1.7080
  776MOL0     H 4757   3.861   6.343   2.218 -0.2557  1.7795 -0.3176
  776MOL0     H 4758   3.453   6.421   2.137  0.6569  4.3249  0.6271
  776MOL0     H 4759   4.115   6.107   2.700 -1.2942 -0.5543  2.4411
  776MOL0     H 4760   4.207   6.143   2.923 -0.9555 -0.6925  0.1546
  777MOL0     O 4761   5.512   7.887   1.841 -0.3189  0.4191 -0.2702
  777MOL0     C 4762   5.394   7.916   1.866  0.9760 -0.9596 -0.0264
  777MOL0     O 4763   5.334   8.042   1.857  0.7052 -0.4230  0.0941
  777MOL0     C 4764   5.404   8.153   1.802  0.0009 -0.4011 -0.1291
  777MOL0     C 4765   5.526   8.147   1.738  1.0346  1.0323 -0.4416
  777MOL0     C 4766   5.587   8.266   1.681 -0.5011 -0.0056  0.0864
  777MOL0     C 4767   5.519   8.387   1.685  0.3839 -0.4233 -0.9799
  777MOL0     O 4768   5.563   8.518   1.645  0.6545  0.1014 -0.0228
  777MOL0     C 4769   5.709   8.525   1.628  0.6625  0.2486  0.0335
  777MOL0     C 4770   5.792   8.535   1.756  0.0705  0.4633  0.1403
  777MOL0     C 4771   5.944   8.523   1.740  0.8797 -0.0039 -0.4866
  777MOL0     C 4772   5.982   8.376   1.697 -0.6650  0.4144 -0.5182
  777MOL0     C 4773   6.135   8.365   1.727 -0.2946  0.7024  0.1075
  777MOL0     C 4774   6.189   8.235   1.679 -0.5284  0.4137 -0.8632
  777MOL0     C 4775   6.340   8.254   1.710  0.1819  0.6017  0.0341
  777MOL0     C 4776   6.427   8.127   1.679 -0.2707  0.9703 -0.4697
  777MOL0     N 4777   6.402   8.035   1.786 -0.3854  0.4430  0.5651
  777MOL0     C 4778   6.301   7.942   1.793 -1.1191  0.1552 -0.3982
  777MOL0     C 4779   6.327   7.862   1.900 -0.1838 -1.1871 -0.5607
  777MOL0     C 4780   6.245   7.750   1.956  1.0338  0.2516  0.4543
  777MOL0     C 4781   6.334   7.678   2.057  0.4798  0.6801  0.3689
  777MOL0     C 4782   6.273   7.536   2.101  0.2694  0.2630  0.7151
  777MOL0     C 4783   6.283   7.437   1.988 -0.8960  0.8041  0.1379
  777MOL0     O 4784   6.254   7.308   2.046 -0.2649  0.0652 -0.1293
  777MOL0     C 4785   6.352   7.228   2.100  0.2060  0.4199 -0.5765
  777MOL0     C 4786   6.311   7.101   2.135 -0.2957 -0.6653 -0.3276
  777MOL0     C 4787   6.406   7.010   2.186  0.5650  0.9265  0.4885
  777MOL0     C 4788   6.339   6.882   2.240  0.5638  0.3251  0.0457
  777MOL0     C 4789   6.541   7.048   2.207  0.6169 -0.4955  0.0436
  777MOL0     C 4790   6.646   6.959   2.261 -0.2310 -0.3547  0.2381
  777MOL0     O 4791   6.775   7.002   2.241 -0.0673  0.0897  1.0417
  777MOL0     C 4792   6.869   6.936   2.155  0.1801 -0.2974  0.0476
  777MOL0     C 4793   6.988   6.894   2.205  0.1455 -0.2071 -0.6699
  777MOL0     C 4794   7.088   6.836   2.121  0.4653 -0.7150 -0.5374
  777MOL0     C 4795   7.056   6.808   1.989  0.2279  0.3789 -0.7389
  777MOL0     O 4796   7.153   6.738   1.924 -0.2284  0.4243  0.4978
  777MOL0     C 4797   7.103   6.662   1.812  0.1898  0.2124  0.7251
  777MOL0     C 4798   7.203   6.553   1.770  0.5546 -0.4527  0.3417
  777MOL0     C 4799   7.262   6.468   1.881 -0.4760 -0.9833 -0.7646
  777MOL0     C 4800   7.323   6.332   1.833 -0.3019 -0.8297 -0.1785
  777MOL0     C 4801   7.385   6.327   1.692 -0.2827 -0.2224 -0.5997
  777MOL0     C 4802   7.467   6.205   1.673  0.1787 -0.7707  0.3840
  777MOL0     C 4803   7.554   6.227   1.547 -0.0437  0.2228  0.3172
  777MOL0     C 4804   7.628   6.101   1.506 -0.4464  0.5043 -0.6035
  777MOL0    Cl 4805   7.748   6.027   1.609  0.4107  0.0783  0.4991
  777MOL0     C 4806   6.925   6.840   1.942 -0.2549  0.6446  0.2952
  777MOL0     C 4807   6.834   6.904   2.027  0.1852 -0.0645 -0.2759
  777MOL0     O 4808   6.617   6.849   2.312 -0.2753 -0.4326  0.1378
  777MOL0     C 4809   6.585   7.174   2.154  0.9520 -0.4981  0.5415
  777MOL0     C 4810   6.484   7.259   2.103 -0.2540  0.1208 -1.3364
  777MOL0     N 4811   6.445   7.924   1.958  0.6496 -0.8970 -0.2963
  777MOL0     N 4812   6.489   8.019   1.891  1.2949 -0.0481  0.8244
  777MOL0     C 4813   5.401   8.396   1.759  0.0805 -0.0641  0.3872
  777MOL0     C 4814   5.344   8.279   1.815 -0.1349 -0.0197 -0.3942
  777MOL0     C 4815   5.304   7.811   1.921 -0.4519 -1.1249  0.4485
  777MOL0     C 4816   5.212   7.843   2.017 -0.4217  0.1793  0.4017
  777MOL0     C 4817   5.135   7.742   2.074 -0.4250  0.1608 -0.8815
  777MOL0     C 4818   5.142   7.605   2.029  0.0156 -0.0225  0.3251
  777MOL0     O 4819   5.049   7.506   2.079 -0.2729 -0.3838 -0.7983
  777MOL0     C 4820   4.938   7.545   2.171 -0.8541 -0.2799 -0.6137
  777MOL0     C 4821   4.864   7.420   2.218 -0.4253  1.2367 -0.7207
  777MOL0     C 4822   4.734   7.448   2.285  0.6884  1.1275 -0.0807
  777MOL0     C 4823   4.663   7.316   2.325 -0.1042 -0.1990  0.6387
  777MOL0     C 4824   4.603   7.305   2.460  1.4743 -0.0167 -0.3628
  777MOL0     C 4825   4.543   7.314   2.569 -0.6684  0.4229 -0.2461
  777MOL0     C 4826   5.233   7.572   1.931 -0.3806  0.4114 -0.6271
  777MOL0     C 4827   5.308   7.678   1.873 -0.0002  0.2315 -0.2518
  777MOL0     H 4828   5.591   8.061   1.733  0.8664  0.8751  0.0179
  777MOL0     H 4829   5.686   8.260   1.638 -0.0936  0.7244  0.9018
  777MOL0     H 4830   5.736   8.439   1.565 -0.8696  0.6941 -1.3221
  777MOL0     H 4831   5.726   8.614   1.567 -3.1653  1.8572  1.0209
  777MOL0     H 4832   5.775   8.637   1.793  2.5097  1.0835 -0.2223
  777MOL0     H 4833   5.758   8.474   1.840 -2.5398  3.4347  1.4434
  777MOL0     H 4834   5.984   8.594   1.667  0.3368  1.7698  0.8584
  777MOL0     H 4835   5.987   8.547   1.837  0.2542  1.0447 -0.4502
  777MOL0     H 4836   5.929   8.312   1.768  1.7315 -2.1148 -0.8283
  777MOL0     H 4837   5.955   8.353   1.593 -0.2238  0.7387 -0.7046
  777MOL0     H 4838   6.182   8.451   1.679 -0.2171  1.3163  1.2460
  777MOL0     H 4839   6.144   8.371   1.836 -1.3001  0.4178  0.2133
  777MOL0     H 4840   6.145   8.156   1.740  3.3954 -1.8656 -0.6951
  777MOL0     H 4841   6.184   8.211   1.572  1.6926 -1.1039 -0.6923
  777MOL0     H 4842   6.380   8.340   1.655  0.3313 -0.5193 -1.6894
  777MOL0     H 4843   6.358   8.269   1.817  1.7107 -0.9926  0.0448
  777MOL0     H 4844   6.534   8.149   1.688 -0.3865  0.8319  1.6578
  777MOL0     H 4845   6.399   8.080   1.584 -2.0431 -0.1335  0.5480
  777MOL0     H 4846   6.219   7.919   1.726 -1.4781 -1.4610  0.5306
  777MOL0     H 4847   6.148   7.780   1.997  0.6887  0.2001 -0.3237
  777MOL0     H 4848   6.221   7.683   1.874  1.0277  2.2734 -1.2812
  777MOL0     H 4849   6.357   7.735   2.148  2.0955  0.0716  0.3635
  777MOL0     H 4850   6.436   7.656   2.025 -0.3337 -2.7837 -0.1833
  777MOL0     H 4851   6.172   7.533   2.142  0.3652 -0.5481  0.9275
  777MOL0     H 4852   6.346   7.501   2.175  0.4756 -3.2566 -0.9413
  777MOL0     H 4853   6.386   7.431   1.952 -1.1050  0.5137 -0.4347
  777MOL0     H 4854   6.204   7.460   1.915 -2.2521 -2.0337  0.5709
  777MOL0     H 4855   6.205   7.082   2.116 -0.4734 -0.6173  0.5849
  777MOL0     H 4856   6.341   6.806   2.161  1.6984 -0.1951  0.5536
  777MOL0     H 4857   6.377   6.851   2.337 -1.5648  0.8658  1.1122
  777MOL0     H 4858   6.234   6.909   2.256 -0.4649 -1.3456 -3.0300
  777MOL0     H 4859   7.004   6.919   2.309 -0.2770  0.1083 -0.6800
  777MOL0     H 4860   7.182   6.807   2.167  1.5331  3.1748  0.0663
  777MOL0     H 4861   7.007   6.618   1.839 -1.3912  2.3092 -1.0934
  777MOL0     H 4862   7.082   6.717   1.720  2.9090 -1.9572 -1.4062
  777MOL0     H 4863   7.151   6.483   1.704 -0.4233  0.2491  0.3447
  777MOL0     H 4864   7.286   6.609   1.724 -1.5575  2.4336 -0.2476
  777MOL0     H 4865   7.184   6.444   1.953  2.0764 -1.6184  1.9531
  777MOL0     H 4866   7.341   6.530   1.926 -1.4635 -0.9815  1.0647
  777MOL0     H 4867   7.393   6.300   1.911  0.8948 -2.8848 -1.9940
  777MOL0     H 4868   7.240   6.261   1.826 -2.8501  1.6889  2.0922
  777MOL0     H 4869   7.464   6.403   1.689 -0.1822 -0.3332 -0.8598
  777MOL0     H 4870   7.312   6.339   1.611 -1.3272  2.3913  0.6184
  777MOL0     H 4871   7.528   6.191   1.763  0.5990 -2.2532 -0.1121
  777MOL0     H 4872   7.409   6.113   1.659  0.2551 -0.3613 -4.0085
  777MOL0     H 4873   7.617   6.316   1.538  2.4923 -1.5896 -1.8920
  777MOL0     H 4874   7.496   6.252   1.458  4.6682 -0.7723 -3.4879
  777MOL0     H 4875   7.684   6.106   1.412 -2.9020 -4.8717 -2.8121
  777MOL0     H 4876   7.550   6.027   1.483  1.1040 -1.2169 -0.5942
  777MOL0     H 4877   6.895   6.819   1.840 -0.1311 -2.8684  0.8645
  777MOL0     H 4878   6.737   6.936   1.991  0.6137  1.0372 -0.4953
  777MOL0     H 4879   6.689   7.206   2.159  0.5395  1.5046 -1.8728
  777MOL0     H 4880   6.519   7.358   2.076 -1.2379  1.8753  2.9415
  777MOL0     H 4881   5.363   8.497   1.774  0.0698 -0.0056 -0.0213
  777MOL0     H 4882   5.257   8.287   1.879  0.6432  1.1141  0.5513
  777MOL0     H 4883   5.200   7.946   2.049  1.0795  0.8457 -1.0394
  777MOL0     H 4884   5.063   7.775   2.148 -0.3274  0.8853 -1.1064
  777MOL0     H 4885   4.989   7.590   2.257 -1.2201 -0.1313 -0.4731
  777MOL0     H 4886   4.865   7.614   2.128  0.5020  0.7704 -1.3262
  777MOL0     H 4887   4.918   7.361   2.293 -1.9352  2.5098  1.5198
  777MOL0     H 4888   4.844   7.351   2.135  1.8431  0.2984 -0.5621
  777MOL0     H 4889   4.659   7.507   2.231 -0.1440 -0.5932 -0.8998
  777MOL0     H 4890   4.762   7.492   2.381  0.6535  0.2288  0.3481
  777MOL0     H 4891   4.737   7.235   2.313 -3.1234 -2.9982 -0.7320
  777MOL0     H 4892   4.591   7.304   2.244  0.6734  1.0899 -0.2674
  777MOL0     H 4893   4.502   7.316   2.668  3.4586  0.8107  1.6975
  777MOL0     H 4894   5.240   7.468   1.899 -1.6818 -0.1434  0.7969
  777MOL0     H 4895   5.388   7.654   1.804 -1.8181 -0.6909 -2.1380
  778MOL0     O 4896   3.521   6.552   4.656  0.0776  0.7956 -0.4930
  778MOL0     C 4897   3.462   6.479   4.585 -0.2728  0.4421  0.4819
  778MOL0     O 4898   3.447   6.341   4.597  1.0189 -0.1657 -0.6741
  778MOL0     C 4899   3.519   6.286   4.698 -0.4713  0.6394 -0.0514
  778MOL0     C 4900   3.463   6.186   4.775  0.6572  0.0199 -0.0946
  778MOL0     C 4901   3.528   6.124   4.880 -1.0989  0.0860  0.3791
  778MOL0     C 4902   3.656   6.157   4.913  0.7356 -0.4433  0.0018
  778MOL0     O 4903   3.710   6.083   5.011 -0.9806  0.4178  0.2339
  778MOL0     C 4904   3.778   6.160   5.109  0.3616  0.4053  0.3227
  778MOL0     C 4905   3.825   6.078   5.227 -1.1123 -0.1849  0.7068
  778MOL0     C 4906   3.718   5.992   5.292  0.0811 -0.0326 -0.8917
  778MOL0     C 4907   3.663   6.057   5.422 -0.1654 -0.3619 -0.6167
  778MOL0     C 4908   3.568   5.955   5.487 -0.8403  0.5404 -0.2625
  778MOL0     C 4909   3.453   5.903   5.399 -0.5440  0.1435 -0.1605
  778MOL0     C 4910   3.346   5.820   5.473 -0.2727 -0.4456  0.1377
  778MOL0     C 4911   3.217   5.841   5.390 -0.6678 -1.2302  0.4000
  778MOL0     N 4912   3.178   5.730   5.301  0.3851 -0.0816 -0.6903
  778MOL0     C 4913   3.258   5.673   5.195 -0.0570 -0.4389 -0.0691
  778MOL0     C 4914   3.186   5.566   5.155 -0.4373 -0.0791 -0.4003
  778MOL0     C 4915   3.208   5.469   5.047  0.5347  0.2041  0.3549
  778MOL0     C 4916   3.346   5.497   4.984  0.5845  0.5117  0.6407
  778MOL0     C 4917   3.332   5.592   4.869  0.5601  0.5049 -0.6401
  778MOL0     C 4918   3.478   5.624   4.807 -0.3464  0.3746 -0.4911
  778MOL0     O 4919   3.506   5.759   4.781  0.2760 -0.7646  0.4407
  778MOL0     C 4920   3.480   5.807   4.652 -0.7694 -0.1884 -0.6798
  778MOL0     C 4921   3.561   5.917   4.616 -0.4501  0.6275 -0.3086
  778MOL0     C 4922   3.559   5.976   4.487  0.1950  0.7882 -0.4621
  778MOL0     C 4923   3.675   6.066   4.446 -0.0423 -0.3569 -0.3137
  778MOL0     C 4924   3.464   5.938   4.393 -0.4667  0.1880  0.6155
  778MOL0     C 4925   3.432   6.000   4.263 -0.0161  0.5815 -0.6553
  778MOL0     O 4926   3.387   5.924   4.165  0.2826 -0.7413 -0.2730
  778MOL0     C 4927   3.338   5.981   4.048 -1.1232  0.0819 -0.5721
  778MOL0     C 4928   3.205   6.015   4.040  0.7256  0.7847 -0.2926
  778MOL0     C 4929   3.144   6.048   3.915 -0.3802  0.4316  0.0992
  778MOL0     C 4930   3.222   6.054   3.799  0.0523 -0.5827  0.7888
  778MOL0     O 4931   3.175   6.126   3.686 -0.1080  1.1002 -0.0197
  778MOL0     C 4932   3.038   6.096   3.650  0.3460  0.2743 -0.9134
  778MOL0     C 4933   2.968   6.225   3.590 -0.8431 -0.4884  0.0475
  778MOL0     C 4934   2.821   6.195   3.564 -1.1451 -0.3199 -0.5739
  778MOL0     C 4935   2.750   6.315   3.495 -0.6626 -0.4848  0.5343
  778MOL0     C 4936   2.602   6.309   3.505  0.6201 -0.6384  0.1284
  778MOL0     C 4937   2.529   6.440   3.481  1.4300  0.0924 -0.2774
  778MOL0     C 4938   2.377   6.416   3.504 -1.1666  0.1886  0.1434
  778MOL0     C 4939   2.283   6.535   3.502 -0.7870 -0.0905  0.0958
  778MOL0    Cl 4940   2.286   6.579   3.331 -0.2757  0.3623  0.2954
  778MOL0     C 4941   3.360   6.019   3.809  0.6959 -0.5402 -0.4766
  778MOL0     C 4942   3.423   5.984   3.935  0.3558 -0.5680  0.4716
  778MOL0     O 4943   3.472   6.115   4.245  0.6999  0.6037  0.2467
  778MOL0     C 4944   3.382   5.832   4.426  0.5624  0.7402  0.0083
  778MOL0     C 4945   3.393   5.768   4.550  0.4431  0.6935 -0.0349
  778MOL0     N 4946   3.066   5.574   5.224  0.6799  1.1892  0.4771
  778MOL0     N 4947   3.057   5.663   5.314 -0.9222  0.4745  0.4521
  778MOL0     C 4948   3.715   6.259   4.841 -0.0742 -0.0722  0.0459
  778MOL0     C 4949   3.654   6.317   4.725 -0.7390  0.4562  0.1784
  778MOL0     C 4950   3.426   6.550   4.459  0.4684  0.1887  0.7493
  778MOL0     C 4951   3.408   6.475   4.342  1.1865 -0.0218  0.7088
  778MOL0     C 4952   3.394   6.532   4.215 -0.0170 -0.7210 -0.6099
  778MOL0     C 4953   3.371   6.673   4.207 -0.3241  0.2993 -0.6120
  778MOL0     O 4954   3.318   6.719   4.092 -0.1707 -0.2041 -0.3017
  778MOL0     C 4955   3.331   6.853   4.057 -0.1725 -0.4004  0.4347
  778MOL0     C 4956   3.255   6.892   3.931 -0.8307 -0.1903  0.2979
  778MOL0     C 4957   3.253   7.053   3.925 -0.7671  0.4227 -0.8308
  778MOL0     C 4958   3.266   7.108   3.786 -0.4129 -0.8829  0.2250
  778MOL0     C 4959   3.146   7.079   3.707 -0.1426 -0.4152  0.0507
  778MOL0     C 4960   3.049   7.049   3.652 -0.0118 -0.7328  0.3552
  778MOL0     C 4961   3.372   6.748   4.326 -0.1430  0.6672 -0.0203
  778MOL0     C 4962   3.398   6.684   4.450  0.3467 -0.1208  0.0922
  778MOL0     H 4963   3.362   6.163   4.743 -1.0289  2.8201  2.6389
  778MOL0     H 4964   3.472   6.045   4.929 -0.3756  0.0881  1.2268
  778MOL0     H 4965   3.857   6.221   5.064 -0.4301  0.5054 -0.9655
  778MOL0     H 4966   3.703   6.227   5.151 -2.1009 -2.9084  1.6168
  778MOL0     H 4967   3.908   6.018   5.190 -2.5750 -2.8625  1.5455
  778MOL0     H 4968   3.877   6.142   5.299  0.8060 -0.8813  0.0075
  778MOL0     H 4969   3.631   5.978   5.226 -0.3022 -1.0087 -0.2116
  778MOL0     H 4970   3.745   5.887   5.306 -1.7522 -0.6877 -1.8195
  778MOL0     H 4971   3.753   6.091   5.474  1.4066 -1.8885 -2.1976
  778MOL0     H 4972   3.607   6.145   5.389 -1.8901 -1.1122  0.1763
  778MOL0     H 4973   3.630   5.870   5.514 -1.7568  0.0982  0.4929
  778MOL0     H 4974   3.525   5.987   5.582 -0.0412 -2.9012  1.3797
  778MOL0     H 4975   3.426   5.994   5.345  0.8687 -0.3813 -1.8415
  778MOL0     H 4976   3.499   5.834   5.328  0.1474 -2.4539  2.5706
  778MOL0     H 4977   3.372   5.714   5.481 -0.0689 -0.8059 -3.5362
  778MOL0     H 4978   3.338   5.864   5.573  0.5939  0.1652 -0.0561
  778MOL0     H 4979   3.201   5.929   5.327 -4.4249 -2.0009  0.0493
  778MOL0     H 4980   3.142   5.874   5.463  1.3645  3.1932  0.8564
  778MOL0     H 4981   3.343   5.715   5.143  1.3753  0.1072  2.5369
  778MOL0     H 4982   3.202   5.368   5.086  0.3321  1.2600  3.2917
  778MOL0     H 4983   3.142   5.481   4.961  1.1859  2.2627  0.0775
  778MOL0     H 4984   3.385   5.401   4.948 -1.4694 -0.8718  1.8383
  778MOL0     H 4985   3.417   5.529   5.061 -1.4053 -2.3513  4.0392
  778MOL0     H 4986   3.291   5.686   4.910  0.7610  0.7274 -0.9420
  778MOL0     H 4987   3.266   5.558   4.789  0.8495 -0.9849 -0.2653
  778MOL0     H 4988   3.494   5.562   4.718 -0.3235  0.4839 -0.5632
  778MOL0     H 4989   3.552   5.612   4.886  0.1356  2.6149 -0.5424
  778MOL0     H 4990   3.637   5.953   4.684  0.4373 -0.7875 -0.5013
  778MOL0     H 4991   3.644   6.166   4.415  1.5707 -0.0489 -1.0543
  778MOL0     H 4992   3.748   6.079   4.526 -1.5110  2.1011  0.7316
  778MOL0     H 4993   3.727   6.020   4.361 -1.9917  0.1569 -1.8592
  778MOL0     H 4994   3.128   6.010   4.116 -2.7858 -0.1851 -3.5816
  778MOL0     H 4995   3.037   6.054   3.930 -0.0549  1.2340  2.4270
  778MOL0     H 4996   3.030   6.009   3.583  0.4749  1.0712 -1.9843
  778MOL0     H 4997   2.976   6.069   3.736 -0.9399  1.4603 -1.4279
  778MOL0     H 4998   2.987   6.313   3.652  0.8192 -1.2001  0.6115
  778MOL0     H 4999   3.013   6.247   3.493 -0.2823 -1.0413  0.1729
  778MOL0     H 5000   2.784   6.165   3.662 -1.0002  3.6784  0.8776
  778MOL0     H 5001   2.809   6.110   3.496  2.1720 -2.9722  1.8143
  778MOL0     H 5002   2.787   6.405   3.546 -0.1416  0.5875 -1.6522
  778MOL0     H 5003   2.790   6.321   3.394 -0.0080 -3.6551  0.5203
  778MOL0     H 5004   2.568   6.276   3.604 -3.2304 -1.3999 -1.2714
  778MOL0     H 5005   2.566   6.225   3.445 -2.3544 -1.4481  2.7691
  778MOL0     H 5006   2.563   6.510   3.558  0.8962 -1.3254  1.2944
  778MOL0     H 5007   2.543   6.474   3.378  2.5983 -1.9687 -0.8534
  778MOL0     H 5008   2.366   6.364   3.599  0.0693 -0.2953  0.0501
  778MOL0     H 5009   2.354   6.335   3.433  1.7046 -0.4350 -0.2067
  778MOL0     H 5010   2.322   6.617   3.564 -0.7617  0.0663 -0.1256
  778MOL0     H 5011   2.182   6.510   3.536 -1.2365  0.2147 -0.9694
  778MOL0     H 5012   3.437   6.026   3.732 -0.9593 -1.1069 -2.2671
  778MOL0     H 5013   3.527   5.956   3.946 -0.1404 -1.5651  3.3986
  778MOL0     H 5014   3.306   5.807   4.352  1.5575 -1.2645 -0.4286
  778MOL0     H 5015   3.327   5.688   4.581  2.6905 -0.5986  1.7305
  778MOL0     H 5016   3.812   6.301   4.867  0.3809  1.0096 -2.9827
  778MOL0     H 5017   3.707   6.395   4.671 -0.4527 -0.0493 -0.2869
  778MOL0     H 5018   3.434   6.370   4.353  3.3762  0.3984 -0.0495
  778MOL0     H 5019   3.391   6.469   4.127 -0.2496  0.9677 -1.8696
  778MOL0     H 5020   3.300   6.900   4.151  0.1835  0.2795  0.2250
  778MOL0     H 5021   3.435   6.886   4.047 -0.2842  0.1398  0.9568
  778MOL0     H 5022   3.156   6.850   3.908 -1.0800 -0.3732  1.6045
  778MOL0     H 5023   3.326   6.860   3.854 -1.1222 -0.8627  0.2950
  778MOL0     H 5024   3.342   7.086   3.980 -2.0586  0.0777  1.6178
  778MOL0     H 5025   3.170   7.085   3.987 -3.0562 -2.2368 -2.2754
  778MOL0     H 5026   3.357   7.071   3.737  0.3595  0.6544  0.4146
  778MOL0     H 5027   3.285   7.215   3.797  2.8425 -1.5690  3.0558
  778MOL0     H 5028   2.954   7.024   3.609 -1.0664  3.4252 -0.1111
  778MOL0     H 5029   3.361   6.856   4.323  3.0319  1.0856 -0.9419
  778MOL0     H 5030   3.416   6.752   4.533  1.7942  2.4703 -2.1808
  779MOL0     O 5031   9.475   8.212   6.213 -0.3080 -0.1606  0.8062
  779MOL0     C 5032   9.536   8.277   6.121 -0.0192 -0.0451  0.3001
  779MOL0     O 5033   9.641   8.233   6.047 -0.4132 -0.5030  1.0645
  779MOL0     C 5034   9.694   8.110   6.068 -0.1570  0.2857 -0.4099
  779MOL0     C 5035   9.772   8.091   6.182 -1.1776 -0.2167  0.3358
  779MOL0     C 5036   9.818   7.964   6.216  0.0001 -0.3357 -0.2243
  779MOL0     C 5037   9.790   7.850   6.144 -0.0766  0.6191 -0.3412
  779MOL0     O 5038   9.862   7.738   6.192 -0.2104 -0.2926  0.2254
  779MOL0     C 5039   9.825   7.609   6.134 -0.0903  0.0813  1.5200
  779MOL0     C 5040   9.881   7.492   6.213 -0.2536  0.9121  0.6872
  779MOL0     C 5041   9.889   7.357   6.150 -0.2945  0.1111  0.1977
  779MOL0     C 5042   9.988   7.259   6.218  0.1430 -0.4205 -0.2120
  779MOL0     C 5043   9.974   7.119   6.151  0.1431 -0.6789 -0.4247
  779MOL0     C 5044   9.871   7.033   6.216 -0.2670 -0.6260 -0.1015
  779MOL0     C 5045   9.873   6.900   6.151 -0.5993  0.1850  0.5374
  779MOL0     C 5046   9.771   6.800   6.203  0.2354 -0.4613  0.0213
  779MOL0     N 5047   9.640   6.819   6.144  0.1362  0.0703 -0.2250
  779MOL0     C 5048   9.598   6.840   6.009  0.5474  0.4121  0.3841
  779MOL0     C 5049   9.477   6.889   6.021  0.4997 -0.2801  0.3027
  779MOL0     C 5050   9.406   6.950   5.907  0.3160 -0.4312  0.2335
  779MOL0     C 5051   9.393   7.105   5.910  0.4166 -0.5897  0.4962
  779MOL0     C 5052   9.508   7.199   5.895 -0.9765 -0.0253 -1.3097
  779MOL0     C 5053   9.450   7.342   5.907  0.0445 -0.1879  0.5094
  779MOL0     O 5054   9.555   7.421   5.950  0.6549 -0.6057 -0.0664
  779MOL0     C 5055   9.579   7.534   5.872 -0.0306 -0.0234  0.1143
  779MOL0     C 5056   9.690   7.548   5.796  0.6745  0.4917 -0.0277
  779MOL0     C 5057   9.713   7.661   5.723 -0.0155 -0.0928 -0.0591
  779MOL0     C 5058   9.857   7.679   5.670 -0.1239 -0.0608  0.5286
  779MOL0     C 5059   9.612   7.763   5.717  1.5488 -0.0874  0.8196
  779MOL0     C 5060   9.603   7.883   5.631 -1.0554 -1.1633  0.5215
  779MOL0     O 5061   9.488   7.947   5.598  0.5377 -0.0482  0.0876
  779MOL0     C 5062   9.495   8.081   5.575 -0.4175 -0.0465  0.7220
  779MOL0     C 5063   9.394   8.123   5.495  0.6177  0.2111  0.1241
  779MOL0     C 5064   9.398   8.262   5.468  0.1528  1.1129 -0.7728
  779MOL0     C 5065   9.494   8.347   5.516 -0.0705 -0.0000  0.5373
  779MOL0     O 5066   9.502   8.473   5.479 -0.3960 -0.7624 -0.5148
  779MOL0     C 5067   9.455   8.505   5.346  0.4174  0.1745 -0.8281
  779MOL0     C 5068   9.527   8.621   5.289 -0.0643  0.4866 -0.0276
  779MOL0     C 5069   9.485   8.754   5.343 -0.0845 -0.7208 -0.9729
  779MOL0     C 5070   9.580   8.870   5.282 -0.1524 -0.8420  0.4428
  779MOL0     C 5071   9.527   9.010   5.301 -0.0671 -0.0665 -0.5478
  779MOL0     C 5072   9.612   9.108   5.223 -0.3077  0.0127  0.1450
  779MOL0     C 5073   9.568   9.255   5.258  0.3730 -0.1396 -0.2149
  779MOL0     C 5074   9.686   9.355   5.253  0.2835  0.1425 -1.1955
  779MOL0    Cl 5075   9.732   9.375   5.075  0.0754  0.1589  0.0057
  779MOL0     C 5076   9.588   8.308   5.606  0.0676  0.8134 -0.0505
  779MOL0     C 5077   9.589   8.173   5.646 -0.4207 -0.0158 -0.1779
  779MOL0     O 5078   9.716   7.920   5.588  0.4941  0.0895 -0.3123
  779MOL0     C 5079   9.494   7.753   5.795 -0.3256  0.4197  0.2122
  779MOL0     C 5080   9.479   7.639   5.880  0.0788  0.2469  0.0495
  779MOL0     N 5081   9.425   6.867   6.151 -0.1377 -1.1818 -0.9062
  779MOL0     N 5082   9.523   6.814   6.220 -0.6652 -0.5183  0.5778
  779MOL0     C 5083   9.701   7.869   6.033 -0.4146  0.4050 -0.6165
  779MOL0     C 5084   9.667   8.000   5.990  0.6808 -0.1071 -0.1883
  779MOL0     C 5085   9.480   8.409   6.100 -0.6246  0.7200 -0.3489
  779MOL0     C 5086   9.453   8.483   6.216  1.1499  0.8886  0.2459
  779MOL0     C 5087   9.413   8.614   6.200  0.2569  1.7399  0.4825
  779MOL0     C 5088   9.412   8.683   6.070 -0.8991 -1.0329 -0.5712
  779MOL0     O 5089   9.362   8.815   6.053 -0.7205  0.2801 -0.9716
  779MOL0     C 5090   9.463   8.903   6.020 -0.4009  0.3352 -0.0196
  779MOL0     C 5091   9.428   9.041   6.080 -0.4716  0.4314  0.6733
  779MOL0     C 5092   9.280   9.082   6.061  0.1533  0.9946  0.1814
  779MOL0     C 5093   9.204   9.051   6.194 -0.5246 -0.2233 -0.3417
  779MOL0     C 5094   9.067   9.103   6.186 -0.4040 -0.0399 -0.0474
  779MOL0     C 5095   8.956   9.144   6.205  0.1675 -0.6961 -0.3517
  779MOL0     C 5096   9.438   8.604   5.959  0.1369  0.2834  0.4287
  779MOL0     C 5097   9.473   8.466   5.976  0.1456  1.2124  0.1411
  779MOL0     H 5098   9.793   8.176   6.247  1.1149  1.5375 -2.4045
  779MOL0     H 5099   9.873   7.945   6.308  0.8296 -2.9008 -1.1576
  779MOL0     H 5100   9.717   7.602   6.116  0.2836  2.9759 -4.1286
  779MOL0     H 5101   9.863   7.606   6.031 -2.0351 -0.3145  0.7784
  779MOL0     H 5102   9.985   7.518   6.235  1.0711 -1.9112 -1.5783
  779MOL0     H 5103   9.838   7.478   6.313 -0.8115 -2.2389  0.1220
  779MOL0     H 5104   9.794   7.302   6.154 -0.2621 -0.2499 -2.1424
  779MOL0     H 5105   9.911   7.366   6.043  1.5372 -4.2494 -0.0144
  779MOL0     H 5106  10.087   7.304   6.211 -0.8555  1.9213 -0.2412
  779MOL0     H 5107   9.955   7.246   6.322  1.6456 -0.1071  0.3340
  779MOL0     H 5108   9.970   7.123   6.042  2.7955  1.0521 -0.5604
  779MOL0     H 5109  10.067   7.068   6.175  1.1305  1.0377 -0.4455
  779MOL0     H 5110   9.902   7.024   6.320  1.3359  2.2125 -0.2354
  779MOL0     H 5111   9.776   7.087   6.210  0.7992  1.2950 -0.4951
  779MOL0     H 5112   9.850   6.918   6.046 -0.2420  0.5924  0.5300
  779MOL0     H 5113   9.973   6.857   6.163 -0.5892 -0.2351 -0.8337
  779MOL0     H 5114   9.767   6.802   6.313 -0.8743 -0.1203 -0.0135
  779MOL0     H 5115   9.808   6.701   6.174  0.7476 -0.0204 -0.8587
  779MOL0     H 5116   9.657   6.839   5.918 -0.1584  0.9419 -0.0904
  779MOL0     H 5117   9.445   6.914   5.812  3.0165  2.1378  0.2347
  779MOL0     H 5118   9.303   6.917   5.922 -0.7172  1.9123 -1.2223
  779MOL0     H 5119   9.356   7.133   6.009  0.1232 -0.7272  0.4245
  779MOL0     H 5120   9.320   7.129   5.833  0.9675 -0.2534  0.0661
  779MOL0     H 5121   9.548   7.192   5.793 -2.5331 -1.5182 -1.8550
  779MOL0     H 5122   9.581   7.180   5.975  2.1639  0.3189 -3.8771
  779MOL0     H 5123   9.357   7.351   5.964 -0.0666  2.5451  0.0185
  779MOL0     H 5124   9.422   7.378   5.808  0.2043  2.1851  1.2778
  779MOL0     H 5125   9.757   7.462   5.796 -0.5267 -0.5033 -1.0218
  779MOL0     H 5126   9.870   7.671   5.562  4.2337  0.3881  0.8547
  779MOL0     H 5127   9.903   7.778   5.674 -0.3600  0.1232 -0.7160
  779MOL0     H 5128   9.914   7.601   5.721 -0.1394 -0.1241  0.4484
  779MOL0     H 5129   9.326   8.048   5.456  0.9836  0.0630 -0.2316
  779MOL0     H 5130   9.316   8.288   5.402  0.8621  0.0528 -2.1390
  779MOL0     H 5131   9.471   8.422   5.276  0.4486 -0.0657 -0.5386
  779MOL0     H 5132   9.347   8.519   5.341  0.1804 -1.5081 -1.0733
  779MOL0     H 5133   9.634   8.601   5.285  0.0439  0.1081  2.7807
  779MOL0     H 5134   9.493   8.631   5.186 -0.7625  0.6119  0.2090
  779MOL0     H 5135   9.504   8.754   5.451  2.8833  0.7853 -1.3734
  779MOL0     H 5136   9.381   8.769   5.313 -0.9083 -0.9978  1.4973
  779MOL0     H 5137   9.682   8.870   5.321  1.2380  0.3456 -2.8132
  779MOL0     H 5138   9.596   8.860   5.174 -1.8429  2.1147 -0.1732
  779MOL0     H 5139   9.552   9.028   5.406  1.0022 -1.3821 -0.5561
  779MOL0     H 5140   9.420   9.012   5.280 -0.7797  2.7245  2.4998
  779MOL0     H 5141   9.719   9.093   5.242 -0.0938 -0.0431 -1.0068
  779MOL0     H 5142   9.585   9.097   5.118  1.4436 -0.1498 -0.3322
  779MOL0     H 5143   9.528   9.265   5.360  0.0918  1.9986 -0.4990
  779MOL0     H 5144   9.495   9.291   5.186  1.6863 -0.9687 -2.0305
  779MOL0     H 5145   9.770   9.330   5.319 -0.9604 -0.9030  0.0590
  779MOL0     H 5146   9.643   9.447   5.292  0.1082  0.0754 -1.2323
  779MOL0     H 5147   9.666   8.375   5.639  2.5298 -0.9031 -1.9605
  779MOL0     H 5148   9.662   8.129   5.713 -0.3545  0.2766 -0.0534
  779MOL0     H 5149   9.412   7.824   5.799 -0.2767  0.4233  1.2449
  779MOL0     H 5150   9.393   7.627   5.945 -0.2814 -2.0477 -0.7459
  779MOL0     H 5151   9.668   7.781   5.979  1.4361 -2.0319  1.9044
  779MOL0     H 5152   9.610   8.006   5.898  0.6062  1.3700 -0.0692
  779MOL0     H 5153   9.457   8.425   6.307  2.2233 -1.3621 -1.1550
  779MOL0     H 5154   9.383   8.671   6.287  0.9230  0.0469  1.8749
  779MOL0     H 5155   9.560   8.872   6.059 -0.6115  1.8873  1.8855
  779MOL0     H 5156   9.476   8.907   5.911 -2.4698  1.3458 -0.2896
  779MOL0     H 5157   9.490   9.126   6.049  0.4857 -0.2159  0.7492
  779MOL0     H 5158   9.453   9.030   6.186  3.0872 -1.8489 -0.2360
  779MOL0     H 5159   9.239   9.028   5.975  0.5750  0.3154  0.3976
  779MOL0     H 5160   9.282   9.190   6.040  1.0966  1.3856  2.0440
  779MOL0     H 5161   9.250   9.112   6.273  1.8355 -0.2580 -1.6004
  779MOL0     H 5162   9.203   8.947   6.229 -1.4472  0.1654  0.8656
  779MOL0     H 5163   8.854   9.174   6.218  0.6706  0.6285  0.7186
  779MOL0     H 5164   9.429   8.639   5.856  2.9926  1.1065  0.3782
  779MOL0     H 5165   9.494   8.408   5.887  1.7925  0.8936  0.7010
  780MOL0     O 5166   8.993   4.139   2.864 -0.6591  0.1334  0.2356
  780MOL0     C 5167   8.884   4.186   2.894  0.5613 -0.6399 -0.2490
  780MOL0     O 5168   8.859   4.277   2.987  0.0610 -0.2559  0.2153
  780MOL0     C 5169   8.982   4.344   3.031 -0.0984 -0.9891  1.0835
  780MOL0     C 5170   9.006   4.480   3.005 -0.2637  0.1516  0.7259
  780MOL0     C 5171   9.107   4.553   3.065 -0.0964 -0.3519 -0.1826
  780MOL0     C 5172   9.194   4.492   3.157  0.2840  0.2560  0.5838
  780MOL0     O 5173   9.285   4.578   3.218 -0.1249 -0.0283  0.1221
  780MOL0     C 5174   9.360   4.534   3.322 -0.9579 -0.7052  0.9638
  780MOL0     C 5175   9.453   4.665   3.349  0.0942  0.0233  0.1578
  780MOL0     C 5176   9.577   4.646   3.439 -0.5871  0.5260 -0.2491
  780MOL0     C 5177   9.618   4.785   3.503  0.0652 -0.2026 -0.7374
  780MOL0     C 5178   9.732   4.775   3.600 -0.3093  0.3522 -0.3368
  780MOL0     C 5179   9.787   4.907   3.634 -0.0791 -0.2137 -0.0885
  780MOL0     C 5180   9.890   4.903   3.748 -1.2085  0.4128  0.5982
  780MOL0     C 5181  10.027   4.850   3.695  0.4221  0.7100 -0.4270
  780MOL0     N 5182  10.142   4.891   3.772  0.5956  0.7978 -0.7585
  780MOL0     C 5183  10.169   4.850   3.907 -0.0035  0.4847  0.1437
  780MOL0     C 5184  10.286   4.907   3.926 -0.0135 -0.1984 -0.5195
  780MOL0     C 5185  10.358   4.893   4.053 -0.5972  0.2257  0.1471
  780MOL0     C 5186  10.513   4.911   4.036 -1.1219  0.1295  0.2111
  780MOL0     C 5187  10.589   4.844   4.152  0.7820  0.2800 -0.2231
  780MOL0     C 5188  10.567   4.909   4.290 -0.5985 -0.4280  0.3120
  780MOL0     O 5189  10.625   4.832   4.395  0.1990 -0.0453 -0.8283
  780MOL0     C 5190  10.762   4.816   4.417 -0.5655  0.6517  0.7179
  780MOL0     C 5191  10.807   4.759   4.537  0.7471  0.4451  0.0355
  780MOL0     C 5192  10.942   4.735   4.571 -0.2584  0.1147 -0.0799
  780MOL0     C 5193  10.967   4.660   4.695  0.4335 -0.7241 -0.1804
  780MOL0     C 5194  11.039   4.786   4.494  0.2829 -0.6635 -0.7420
  780MOL0     C 5195  11.179   4.779   4.530  0.8349  0.2462 -0.0230
  780MOL0     O 5196  11.212   4.767   4.664  0.3622 -0.3370  0.1191
  780MOL0     C 5197  11.335   4.793   4.704  0.3187  1.0805  0.2368
  780MOL0     C 5198  11.403   4.912   4.695 -0.4242 -0.4870 -0.0208
  780MOL0     C 5199  11.528   4.923   4.753 -0.8460  0.3021 -0.1427
  780MOL0     C 5200  11.606   4.812   4.808  0.6403 -0.4197  0.1932
  780MOL0     O 5201  11.737   4.819   4.852  0.0165  0.4337 -0.3808
  780MOL0     C 5202  11.823   4.899   4.784 -0.3716  0.0636  0.2190
  780MOL0     C 5203  11.973   4.867   4.816 -0.0614 -0.2568  0.3582
  780MOL0     C 5204  12.072   4.970   4.755  0.5009  0.2692  0.1789
  780MOL0     C 5205  12.185   4.976   4.867 -0.2548  0.6384  0.0833
  780MOL0     C 5206  12.259   5.112   4.857  0.5146 -0.2850 -0.3247
  780MOL0     C 5207  12.312   5.156   4.721  0.6680  0.4524  0.2579
  780MOL0     C 5208  12.421   5.267   4.748  0.8327 -0.3152  0.1495
  780MOL0     C 5209  12.462   5.318   4.612 -0.0223  0.4946 -0.9733
  780MOL0    Cl 5210  12.609   5.418   4.646  0.1083 -0.1141  0.5196
  780MOL0     C 5211  11.538   4.693   4.815  0.7510  0.1745  0.4721
  780MOL0     C 5212  11.401   4.690   4.774  0.1961  0.2458  0.5758
  780MOL0     O 5213  11.254   4.765   4.430  0.4775  0.7194 -0.7543
  780MOL0     C 5214  11.008   4.851   4.381 -0.0417 -0.2217  1.2306
  780MOL0     C 5215  10.871   4.866   4.339  0.0725 -1.2644 -0.4219
  780MOL0     N 5216  10.322   4.989   3.816 -0.9402 -0.2725  0.5921
  780MOL0     N 5217  10.234   4.980   3.732 -0.4911 -0.0220 -0.5287
  780MOL0     C 5218   9.173   4.352   3.188  0.1459 -0.3098  0.7393
  780MOL0     C 5219   9.070   4.274   3.113 -0.5718  0.6526 -0.1255
  780MOL0     C 5220   8.763   4.152   2.808 -0.3347 -0.4739  0.0511
  780MOL0     C 5221   8.767   4.035   2.740  0.5699  0.5138  1.2088
  780MOL0     C 5222   8.677   4.006   2.636 -0.2597  0.4655 -0.0942
  780MOL0     C 5223   8.574   4.101   2.603 -0.1840  0.2995 -0.1936
  780MOL0     O 5224   8.495   4.092   2.491  0.0085 -0.1276 -1.0791
  780MOL0     C 5225   8.460   3.968   2.427 -0.1735  0.1656  0.3048
  780MOL0     C 5226   8.331   3.973   2.338  0.1752 -0.9329  0.6463
  780MOL0     C 5227   8.226   4.065   2.399  0.8749  0.1384 -0.0566
  780MOL0     C 5228   8.198   4.029   2.544 -1.0384 -0.3279  0.5388
  780MOL0     C 5229   8.130   4.146   2.599 -0.0858 -0.7988 -0.3688
  780MOL0     C 5230   8.082   4.239   2.655 -0.1630 -0.0968 -1.3652
  780MOL0     C 5231   8.563   4.217   2.685 -0.2793  0.4273 -0.1762
  780MOL0     C 5232   8.648   4.236   2.790 -0.8348  0.3282  1.0070
  780MOL0     H 5233   8.955   4.537   2.928  3.5840  2.7579 -0.1476
  780MOL0     H 5234   9.115   4.659   3.044 -0.7899 -0.3210 -0.2956
  780MOL0     H 5235   9.300   4.511   3.410 -0.1469  0.5183  1.8779
  780MOL0     H 5236   9.418   4.443   3.305 -1.4105 -0.8988  0.4399
  780MOL0     H 5237   9.489   4.708   3.256  1.5102  2.7162  1.8174
  780MOL0     H 5238   9.388   4.740   3.395  2.3749  0.5392  2.8647
  780MOL0     H 5239   9.556   4.575   3.519  2.5718 -0.2985 -0.0069
  780MOL0     H 5240   9.663   4.611   3.382  1.4100  3.9092  0.4052
  780MOL0     H 5241   9.638   4.862   3.427  0.9604  1.5517  1.1729
  780MOL0     H 5242   9.530   4.810   3.563  0.6950 -0.3096  0.2586
  780MOL0     H 5243   9.702   4.731   3.696 -1.4444  0.7591 -0.4916
  780MOL0     H 5244   9.811   4.715   3.554  1.3521  1.4912  0.9073
  780MOL0     H 5245   9.817   4.968   3.549 -0.3875  0.3841  0.2278
  780MOL0     H 5246   9.705   4.961   3.682 -0.4669  0.5507 -1.5427
  780MOL0     H 5247   9.906   5.006   3.780 -0.9598  0.1782  1.2467
  780MOL0     H 5248   9.848   4.843   3.829  0.3075  0.2042  1.2587
  780MOL0     H 5249  10.039   4.881   3.591 -0.7136  0.1867 -0.7386
  780MOL0     H 5250  10.024   4.741   3.683  2.6878  0.4616  0.7192
  780MOL0     H 5251  10.114   4.782   3.972  0.9276  0.0260  0.4860
  780MOL0     H 5252  10.333   4.977   4.120  1.0781  1.1276 -0.2890
  780MOL0     H 5253  10.341   4.795   4.098  2.6039 -0.7745 -0.5487
  780MOL0     H 5254  10.557   5.012   4.036 -0.7542 -0.0140 -1.1272
  780MOL0     H 5255  10.545   4.876   3.937 -0.4138  1.6807 -0.1508
  780MOL0     H 5256  10.696   4.850   4.133  0.2498  3.7099 -3.1516
  780MOL0     H 5257  10.553   4.741   4.164 -0.7717  0.7709 -0.3994
  780MOL0     H 5258  10.462   4.914   4.319 -0.8632  1.7375 -0.8434
  780MOL0     H 5259  10.616   5.006   4.300 -0.1930 -0.7638  1.9308
  780MOL0     H 5260  10.732   4.732   4.611 -1.7195 -0.0788 -2.4765
  780MOL0     H 5261  11.047   4.586   4.683  0.6959 -0.9723  2.3855
  780MOL0     H 5262  10.996   4.722   4.781 -3.7474  2.4849 -0.7627
  780MOL0     H 5263  10.874   4.611   4.725  0.8091 -0.6133  1.2513
  780MOL0     H 5264  11.350   4.998   4.657 -2.0473 -1.5679 -0.3292
  780MOL0     H 5265  11.572   5.022   4.747  2.2981 -0.7570  2.3526
  780MOL0     H 5266  11.801   4.871   4.681  3.8168 -2.3189 -0.2544
  780MOL0     H 5267  11.816   5.008   4.790  2.1598  0.2845  0.6134
  780MOL0     H 5268  11.986   4.856   4.924 -0.7474 -0.9071  0.3872
  780MOL0     H 5269  11.997   4.765   4.784 -0.2883  0.4830 -2.3893
  780MOL0     H 5270  12.025   5.068   4.742 -1.0962 -0.6553 -1.6447
  780MOL0     H 5271  12.103   4.939   4.655 -3.8065  1.9780 -1.9437
  780MOL0     H 5272  12.141   4.979   4.967 -1.7915  1.9120 -0.5793
  780MOL0     H 5273  12.251   4.889   4.865 -1.1861 -0.0822 -0.5668
  780MOL0     H 5274  12.346   5.105   4.923  1.3040 -2.2390 -1.4793
  780MOL0     H 5275  12.197   5.188   4.904 -0.2269 -0.8464 -0.3635
  780MOL0     H 5276  12.356   5.076   4.661  1.7675  1.0065  0.3039
  780MOL0     H 5277  12.233   5.201   4.660  2.1713  2.2550 -0.4609
  780MOL0     H 5278  12.508   5.234   4.806  1.5802 -1.7294 -1.6947
  780MOL0     H 5279  12.385   5.358   4.797  0.8908  0.2211 -0.7847
  780MOL0     H 5280  12.381   5.373   4.564  0.7515  2.7487  0.1451
  780MOL0     H 5281  12.486   5.233   4.548  2.2953 -0.9471  1.5530
  780MOL0     H 5282  11.591   4.610   4.860  1.3334 -0.3235 -1.0506
  780MOL0     H 5283  11.350   4.595   4.785  2.5483 -0.8726  2.6043
  780MOL0     H 5284  11.077   4.900   4.313 -2.8968  3.1986  0.4776
  780MOL0     H 5285  10.869   4.919   4.244  3.2849 -1.8961 -0.9457
  780MOL0     H 5286   9.229   4.301   3.265 -0.4443 -0.2440  1.2127
  780MOL0     H 5287   9.061   4.167   3.127  1.8571 -0.0411 -2.8281
  780MOL0     H 5288   8.849   3.967   2.760 -0.8648 -0.9224  2.4405
  780MOL0     H 5289   8.689   3.915   2.579  1.0924 -0.4227  1.5026
  780MOL0     H 5290   8.543   3.925   2.370 -1.4198 -1.0562 -0.6435
  780MOL0     H 5291   8.439   3.890   2.500 -2.2088 -0.4705 -0.8812
  780MOL0     H 5292   8.291   3.872   2.343  1.0738 -1.2407  3.0990
  780MOL0     H 5293   8.347   4.001   2.234 -0.4270 -5.1074 -0.7431
  780MOL0     H 5294   8.132   4.056   2.342 -0.5745 -0.9542  2.3241
  780MOL0     H 5295   8.266   4.165   2.387  0.2305  0.1287 -3.0089
  780MOL0     H 5296   8.282   4.009   2.612 -0.4652  0.3520  0.0465
  780MOL0     H 5297   8.129   3.944   2.551 -2.3720  0.7919  1.5661
  780MOL0     H 5298   8.039   4.311   2.721  0.0129 -0.6520 -0.6377
  780MOL0     H 5299   8.473   4.276   2.670  0.8180  1.9250 -1.0476
  780MOL0     H 5300   8.629   4.331   2.840  0.5058  1.0135  0.2799
  781MOL0     O 5301   0.094   9.359   4.426  0.0656 -0.1176 -0.8709
  781MOL0     C 5302   0.113   9.455   4.502  0.5002 -0.3457  0.3736
  781MOL0     O 5303   0.186   9.449   4.614 -0.0014 -0.1382  0.8906
  781MOL0     C 5304   0.275   9.349   4.645  1.3337 -0.3057 -1.0784
  781MOL0     C 5305   0.294   9.329   4.785  0.0391 -0.1380  0.9028
  781MOL0     C 5306   0.368   9.219   4.831 -0.7799 -0.2554  0.3124
  781MOL0     C 5307   0.432   9.136   4.741  0.0739 -0.3480  0.1174
  781MOL0     O 5308   0.498   9.014   4.772  0.7764 -0.3072 -0.3966
  781MOL0     C 5309   0.491   8.951   4.895  0.6360 -0.3526  0.2987
  781MOL0     C 5310   0.575   8.829   4.889 -0.1289  0.5421  0.0487
  781MOL0     C 5311   0.715   8.867   4.847 -0.1603 -0.9605 -0.6112
  781MOL0     C 5312   0.813   8.748   4.873 -0.3107 -0.1957  0.1686
  781MOL0     C 5313   0.790   8.623   4.787 -0.7085 -0.2734 -0.8968
  781MOL0     C 5314   0.866   8.495   4.845  0.0888 -0.7690 -0.1060
  781MOL0     C 5315   0.851   8.378   4.740 -0.9482  0.4803 -0.5105
  781MOL0     C 5316   0.945   8.270   4.767 -0.4015  0.4685  0.2093
  781MOL0     N 5317   0.934   8.164   4.671  0.2062  0.9403  0.2163
  781MOL0     C 5318   0.944   8.165   4.541  0.0585  0.3800  0.0584
  781MOL0     C 5319   0.910   8.045   4.499  0.1948  1.4532  0.0978
  781MOL0     C 5320   0.902   7.973   4.360 -1.1816 -0.3719  0.4565
  781MOL0     C 5321   0.831   8.066   4.253 -0.2890  0.0933  0.4820
  781MOL0     C 5322   0.836   8.001   4.119 -0.6370  0.3203 -0.5703
  781MOL0     C 5323   0.978   7.985   4.059 -0.2107 -0.7312  0.0177
  781MOL0     O 5324   1.034   8.117   4.060  0.4856 -1.1341 -1.1842
  781MOL0     C 5325   1.123   8.147   3.960 -0.5780 -0.3517  1.0050
  781MOL0     C 5326   1.199   8.050   3.888 -0.2167 -0.7515  0.4736
  781MOL0     C 5327   1.286   8.091   3.790 -0.3178  0.3997  0.6366
  781MOL0     C 5328   1.379   7.989   3.730  0.5726 -0.6366 -0.3640
  781MOL0     C 5329   1.298   8.223   3.751 -0.3169 -0.0407  0.8757
  781MOL0     C 5330   1.378   8.284   3.650 -0.1295  0.7679  0.2518
  781MOL0     O 5331   1.351   8.252   3.519  0.8324  0.1106  0.1056
  781MOL0     C 5332   1.436   8.272   3.421 -0.8069 -0.3537 -0.2327
  781MOL0     C 5333   1.546   8.191   3.389  0.4393  1.0061 -0.2014
  781MOL0     C 5334   1.639   8.236   3.293  0.7569  0.3733 -0.1856
  781MOL0     C 5335   1.620   8.358   3.226 -0.3345  0.0572 -0.6123
  781MOL0     O 5336   1.698   8.395   3.123  0.1148  0.3376  0.3784
  781MOL0     C 5337   1.817   8.464   3.165  0.9545 -0.0220  0.0112
  781MOL0     C 5338   1.836   8.590   3.075  0.2993  0.6505 -0.6225
  781MOL0     C 5339   1.818   8.563   2.921 -1.0901  0.1785  0.8749
  781MOL0     C 5340   1.809   8.679   2.828 -0.8147 -0.0526 -0.3151
  781MOL0     C 5341   1.787   8.622   2.685  0.3825  0.4344 -0.1982
  781MOL0     C 5342   1.792   8.729   2.574  0.1673 -0.6591  0.0273
  781MOL0     C 5343   1.692   8.701   2.459 -0.2045  0.6294 -0.6618
  781MOL0     C 5344   1.720   8.782   2.337  0.0981 -1.2454 -0.1852
  781MOL0    Cl 5345   1.706   8.955   2.382  0.7950 -0.2899  0.2609
  781MOL0     C 5346   1.507   8.431   3.256  0.6971  0.9952 -0.6005
  781MOL0     C 5347   1.411   8.392   3.356 -0.4140 -0.6510  0.0893
  781MOL0     O 5348   1.476   8.346   3.690 -0.8490 -0.3258 -0.1730
  781MOL0     C 5349   1.224   8.318   3.827  0.0416  0.9936  0.0844
  781MOL0     C 5350   1.132   8.279   3.930 -0.4480 -0.5629 -0.8738
  781MOL0     N 5351   0.880   7.967   4.611  0.4945  0.1563 -0.5930
  781MOL0     N 5352   0.913   8.038   4.713  0.6527  0.3947 -0.8707
  781MOL0     C 5353   0.421   9.164   4.604  0.1474 -0.1370 -0.1407
  781MOL0     C 5354   0.348   9.276   4.560 -0.4779  0.0261  0.5936
  781MOL0     C 5355   0.038   9.583   4.476  0.3653  0.0133 -0.5906
  781MOL0     C 5356   0.059   9.694   4.563  0.0146 -0.1945  0.8813
  781MOL0     C 5357  -0.033   9.802   4.555 -0.5185  0.2398 -0.4358
  781MOL0     C 5358  -0.140   9.798   4.466 -0.2846 -0.9687 -0.8752
  781MOL0     O 5359  -0.240   9.892   4.490  0.0726 -0.3400 -0.0689
  781MOL0     C 5360  -0.349   9.901   4.391 -0.8442  0.9345 -0.6703
  781MOL0     C 5361  -0.438  10.022   4.421  0.7539 -0.1259 -0.3325
  781MOL0     C 5362  -0.378  10.162   4.393 -0.5965 -0.0596  0.3324
  781MOL0     C 5363  -0.452  10.273   4.461  0.1346  0.4558 -0.0480
  781MOL0     C 5364  -0.601  10.268   4.441  0.2154  0.4072 -1.0316
  781MOL0     C 5365  -0.722  10.260   4.439 -0.6788 -0.0872 -0.3938
  781MOL0     C 5366  -0.146   9.696   4.378 -1.4462  0.0938  0.1089
  781MOL0     C 5367  -0.053   9.592   4.377  0.5256 -0.3104  1.1706
  781MOL0     H 5368   0.250   9.394   4.860  0.7980  0.8271  0.5381
  781MOL0     H 5369   0.368   9.181   4.932  2.4359  0.2469  0.5983
  781MOL0     H 5370   0.521   9.014   4.979  0.2460 -1.5784  1.3957
  781MOL0     H 5371   0.389   8.913   4.907  0.8287 -0.6110  1.2448
  781MOL0     H 5372   0.574   8.770   4.981  0.4610  0.0156 -0.2697
  781MOL0     H 5373   0.549   8.766   4.803 -0.4961  0.5505  0.1533
  781MOL0     H 5374   0.715   8.899   4.743 -1.1063 -0.9106 -0.6035
  781MOL0     H 5375   0.751   8.956   4.899  1.0702 -2.2647  0.8870
  781MOL0     H 5376   0.916   8.783   4.860 -0.3542  0.7974  2.2009
  781MOL0     H 5377   0.810   8.723   4.979  1.8604  3.4847  1.2881
  781MOL0     H 5378   0.685   8.592   4.791 -0.6612 -0.3949 -0.6125
  781MOL0     H 5379   0.809   8.651   4.683 -2.3211  1.5550 -0.7653
  781MOL0     H 5380   0.973   8.515   4.851 -0.1469  0.9016 -0.7849
  781MOL0     H 5381   0.823   8.468   4.942 -4.2351  2.1747 -0.8935
  781MOL0     H 5382   0.754   8.327   4.738  0.9160 -3.4627 -0.4535
  781MOL0     H 5383   0.872   8.424   4.643 -0.9537  0.4757 -0.5138
  781MOL0     H 5384   0.922   8.226   4.865 -1.0699  0.5055  0.0751
  781MOL0     H 5385   1.044   8.316   4.774 -0.9916  1.7278  0.5034
  781MOL0     H 5386   0.957   8.256   4.483 -1.4911  1.3227  1.0855
  781MOL0     H 5387   1.004   7.953   4.327 -1.4860  1.7713 -2.1427
  781MOL0     H 5388   0.843   7.881   4.364 -3.2624  0.9058  0.4578
  781MOL0     H 5389   0.870   8.167   4.252 -3.6148  1.6458  3.5837
  781MOL0     H 5390   0.726   8.074   4.284  0.4331 -3.0788  4.6143
  781MOL0     H 5391   0.776   8.068   4.057  0.5116  2.7790  0.8291
  781MOL0     H 5392   0.789   7.904   4.138  1.1521 -1.2246 -3.3416
  781MOL0     H 5393   0.969   7.933   3.963 -1.4191 -0.6788  0.0886
  781MOL0     H 5394   1.051   7.922   4.112  2.9819  1.3376 -1.5996
  781MOL0     H 5395   1.193   7.946   3.919  1.4483 -0.8781  0.4731
  781MOL0     H 5396   1.476   8.034   3.752  0.3291  2.4162 -4.2829
  781MOL0     H 5397   1.367   7.887   3.768 -0.5776  0.1346  1.4752
  781MOL0     H 5398   1.361   7.986   3.622  0.5100  0.8457 -0.4144
  781MOL0     H 5399   1.559   8.101   3.448 -0.4287  1.2957  0.4520
  781MOL0     H 5400   1.720   8.173   3.258 -1.0453 -0.7255 -2.8019
  781MOL0     H 5401   1.807   8.498   3.269 -0.9737  0.9826 -0.4509
  781MOL0     H 5402   1.897   8.390   3.162 -0.5055 -1.6364 -1.9630
  781MOL0     H 5403   1.755   8.661   3.095  1.6997  2.7481 -1.9983
  781MOL0     H 5404   1.932   8.641   3.088  0.4287  0.7922 -1.9822
  781MOL0     H 5405   1.716   8.528   2.901 -0.6519  0.7792 -3.0033
  781MOL0     H 5406   1.888   8.488   2.882 -0.1283  1.1369  0.7262
  781MOL0     H 5407   1.736   8.753   2.860  0.1528  0.0613  1.7437
  781MOL0     H 5408   1.901   8.738   2.822 -0.3035 -0.9556 -1.8955
  781MOL0     H 5409   1.688   8.575   2.690 -0.3072  1.9653  1.7989
  781MOL0     H 5410   1.857   8.541   2.665 -0.3993 -0.7348  1.5750
  781MOL0     H 5411   1.770   8.819   2.632  0.4141 -0.1671 -0.6355
  781MOL0     H 5412   1.896   8.725   2.538 -0.3844 -0.8217 -1.6135
  781MOL0     H 5413   1.592   8.718   2.501 -0.8101 -1.2966 -1.2467
  781MOL0     H 5414   1.700   8.595   2.434  1.4166  0.3472  0.8458
  781MOL0     H 5415   1.658   8.756   2.251 -1.6186  2.6908 -0.3158
  781MOL0     H 5416   1.824   8.774   2.303 -0.3055 -0.1031 -1.8222
  781MOL0     H 5417   1.498   8.526   3.204 -0.4750  1.4104  0.3210
  781MOL0     H 5418   1.324   8.451   3.381  0.6360  1.4217 -0.8692
  781MOL0     H 5419   1.240   8.424   3.810  2.3715  1.0145  1.8180
  781MOL0     H 5420   1.075   8.347   3.992  1.5885 -0.2677  0.8078
  781MOL0     H 5421   0.456   9.084   4.539 -0.6633 -2.8645  2.5372
  781MOL0     H 5422   0.335   9.285   4.452  0.0651  0.7406  0.5797
  781MOL0     H 5423   0.136   9.693   4.639  1.5326 -0.0051 -0.5811
  781MOL0     H 5424  -0.016   9.871   4.636  1.3912 -1.7289  0.9452
  781MOL0     H 5425  -0.326   9.908   4.285 -1.6016 -0.1419 -0.9253
  781MOL0     H 5426  -0.407   9.809   4.405 -0.2123  0.6249  0.0323
  781MOL0     H 5427  -0.471  10.026   4.525 -0.6310 -0.2043 -0.7430
  781MOL0     H 5428  -0.525  10.013   4.355  1.2724 -3.5829 -0.7552
  781MOL0     H 5429  -0.392  10.179   4.286  1.5981 -0.2474 -0.0374
  781MOL0     H 5430  -0.272  10.169   4.420  0.3723  1.9189 -3.3380
  781MOL0     H 5431  -0.415  10.366   4.416  3.2907  0.7541  2.7149
  781MOL0     H 5432  -0.449  10.269   4.570 -0.3104  4.4405  0.2654
  781MOL0     H 5433  -0.829  10.250   4.443 -0.6970  0.4170  2.1917
  781MOL0     H 5434  -0.222   9.690   4.301 -0.3268 -0.0685 -1.0144
  781MOL0     H 5435  -0.071   9.517   4.300 -3.4307  1.9349 -0.4073
  782MOL0     O 5436   1.050  11.334   2.447  0.5822 -0.2863  0.4874
  782MOL0     C 5437   1.151  11.362   2.384  0.4605 -0.6678 -0.6315
  782MOL0     O 5438   1.242  11.462   2.407  0.5470 -0.0215 -0.0684
  782MOL0     C 5439   1.203  11.559   2.496 -0.3995  0.7273 -0.8522
  782MOL0     C 5440   1.229  11.536   2.637  0.4057 -0.8621  0.2668
  782MOL0     C 5441   1.231  11.647   2.724 -0.2585  0.2439 -0.7553
  782MOL0     C 5442   1.210  11.777   2.679  0.2545 -0.1139  0.0817
  782MOL0     O 5443   1.223  11.889   2.759 -1.1167  0.1009 -0.3500
  782MOL0     C 5444   1.361  11.925   2.755 -0.4360 -0.1164 -0.5955
  782MOL0     C 5445   1.382  12.068   2.698 -0.5216  0.8491 -0.4130
  782MOL0     C 5446   1.335  12.184   2.783  0.9385 -0.6355 -0.1875
  782MOL0     C 5447   1.378  12.316   2.727 -0.1772 -0.5568 -0.7792
  782MOL0     C 5448   1.320  12.417   2.825 -0.2724 -0.7325  0.4452
  782MOL0     C 5449   1.322  12.559   2.763  0.7712  0.1515 -0.1847
  782MOL0     C 5450   1.237  12.660   2.845 -0.1522  0.4703 -0.1914
  782MOL0     C 5451   1.233  12.798   2.790 -0.7489  0.7662 -0.2966
  782MOL0     N 5452   1.171  12.804   2.654 -0.0843  0.2586 -0.0341
  782MOL0     C 5453   1.035  12.805   2.623 -0.3272 -0.3245 -0.6878
  782MOL0     C 5454   1.046  12.807   2.488  0.1329  0.1735 -0.4311
  782MOL0     C 5455   0.925  12.816   2.394 -0.3645  0.1289 -0.4708
  782MOL0     C 5456   0.835  12.691   2.385 -0.1000  0.0023 -0.6189
  782MOL0     C 5457   0.753  12.687   2.251  0.4314 -0.3669 -0.1842
  782MOL0     C 5458   0.641  12.583   2.244 -0.1661  0.5698 -0.2342
  782MOL0     O 5459   0.679  12.451   2.293  0.0528 -0.9548 -0.3296
  782MOL0     C 5460   0.754  12.356   2.218  0.8305  0.7267 -0.9374
  782MOL0     C 5461   0.755  12.228   2.262  0.0278  0.4278 -0.1460
  782MOL0     C 5462   0.815  12.123   2.190 -0.2045 -0.5110 -0.3180
  782MOL0     C 5463   0.823  11.981   2.233 -0.2253  0.1172 -0.4606
  782MOL0     C 5464   0.879  12.156   2.068  0.9682  0.3400 -0.2097
  782MOL0     C 5465   0.954  12.062   1.990  0.3986  0.2345  0.9050
  782MOL0     O 5466   1.069  12.019   2.043 -0.4771 -0.0087  0.6470
  782MOL0     C 5467   1.138  11.910   1.986 -0.2881 -0.1182 -0.5077
  782MOL0     C 5468   1.275  11.921   1.951 -0.2477 -0.1383  0.6662
  782MOL0     C 5469   1.354  11.809   1.931 -0.5988  0.9326  0.4925
  782MOL0     C 5470   1.297  11.680   1.933  0.7539 -0.8060 -0.1658
  782MOL0     O 5471   1.359  11.566   1.891 -0.4980  0.3538 -0.0330
  782MOL0     C 5472   1.451  11.580   1.785  0.9343 -0.0803  0.1028
  782MOL0     C 5473   1.520  11.447   1.754 -0.9140  0.2171  0.7584
  782MOL0     C 5474   1.596  11.462   1.621 -0.3351  0.2487  0.3404
  782MOL0     C 5475   1.745  11.431   1.625 -0.5483 -0.1840 -0.2486
  782MOL0     C 5476   1.792  11.413   1.477  0.3116  0.0759  0.0168
  782MOL0     C 5477   1.934  11.442   1.463  0.3628  0.0036 -0.7794
  782MOL0     C 5478   1.983  11.460   1.318 -0.3980  0.2981 -0.0833
  782MOL0     C 5479   1.998  11.321   1.246  0.6546 -0.1342 -0.5155
  782MOL0    Cl 5480   2.091  11.201   1.342  0.2025  0.3637 -0.1945
  782MOL0     C 5481   1.156  11.669   1.953 -0.1170 -0.3223  0.4184
  782MOL0     C 5482   1.076  11.783   1.976 -0.6113  1.1603  0.9384
  782MOL0     O 5483   0.914  12.047   1.870 -0.0229 -0.0693  0.2457
  782MOL0     C 5484   0.875  12.287   2.025 -0.0367 -0.0807  0.6000
  782MOL0     C 5485   0.819  12.393   2.098 -0.3408 -0.5626  0.5616
  782MOL0     N 5486   1.174  12.800   2.432  0.4553 -0.6095  0.5528
  782MOL0     N 5487   1.250  12.798   2.539 -0.2392  0.5623 -0.1987
  782MOL0     C 5488   1.187  11.802   2.543 -0.2760 -0.1971 -1.2344
  782MOL0     C 5489   1.176  11.693   2.451  1.2579 -0.4486 -0.3071
  782MOL0     C 5490   1.186  11.277   2.275  1.0972  0.1102  0.4764
  782MOL0     C 5491   1.255  11.337   2.164  0.0457  1.2042 -1.3450
  782MOL0     C 5492   1.311  11.247   2.066  0.7439 -0.0127 -0.2454
  782MOL0     C 5493   1.283  11.111   2.074  0.0191 -0.7845  0.3178
  782MOL0     O 5494   1.337  11.016   1.984  0.3338  1.3339 -0.4670
  782MOL0     C 5495   1.478  11.025   1.951 -0.1016 -0.3015  0.3386
  782MOL0     C 5496   1.481  11.004   1.802  0.5407 -0.2135 -0.0540
  782MOL0     C 5497   1.611  11.053   1.746 -1.0241  0.8519  0.4523
  782MOL0     C 5498   1.602  11.073   1.597 -0.1471 -0.2697 -0.1301
  782MOL0     C 5499   1.545  10.962   1.530 -1.2628 -0.2401  0.8133
  782MOL0     C 5500   1.481  10.875   1.473 -0.2844  0.2886  0.8214
  782MOL0     C 5501   1.195  11.062   2.166 -0.0547 -0.1717 -0.2529
  782MOL0     C 5502   1.153  11.141   2.268  0.1876  0.1205 -0.7527
  782MOL0     H 5503   1.275  11.444   2.673  0.8382 -0.1858  1.5206
  782MOL0     H 5504   1.261  11.627   2.826  0.9930  0.2179 -1.1014
  782MOL0     H 5505   1.394  11.923   2.859 -0.2150  3.3088 -0.5001
  782MOL0     H 5506   1.421  11.847   2.705  0.0475 -0.8241  1.0303
  782MOL0     H 5507   1.490  12.080   2.688 -0.4159  1.3220  1.0251
  782MOL0     H 5508   1.331  12.072   2.602 -1.8213 -5.2527 -0.3657
  782MOL0     H 5509   1.226  12.189   2.794  1.0532  3.8138  0.7126
  782MOL0     H 5510   1.379  12.166   2.882 -0.9095 -2.4317  0.3905
  782MOL0     H 5511   1.487  12.313   2.721 -0.0725 -1.1349  1.0042
  782MOL0     H 5512   1.332  12.335   2.629 -1.7080  3.6531  0.5266
  782MOL0     H 5513   1.214  12.399   2.847 -0.6899 -2.5203 -2.4663
  782MOL0     H 5514   1.381  12.424   2.916  2.0546  1.4181 -1.1559
  782MOL0     H 5515   1.427  12.589   2.766  0.8564 -0.1314 -0.3278
  782MOL0     H 5516   1.283  12.545   2.662 -1.5453  0.1077  0.6593
  782MOL0     H 5517   1.134  12.622   2.845 -0.1758  0.4691  1.3358
  782MOL0     H 5518   1.278  12.667   2.947 -0.0537 -0.0953 -0.1893
  782MOL0     H 5519   1.335  12.837   2.783 -1.2438  2.6200  1.5716
  782MOL0     H 5520   1.186  12.859   2.868  3.0511  2.5914  0.7893
  782MOL0     H 5521   0.953  12.806   2.694 -0.9986  0.7362 -1.4382
  782MOL0     H 5522   0.859  12.899   2.419 -0.6350 -0.3398  0.4482
  782MOL0     H 5523   0.972  12.832   2.297  0.9273 -0.1678  0.0701
  782MOL0     H 5524   0.772  12.685   2.474  2.1113 -0.8691  0.9591
  782MOL0     H 5525   0.900  12.603   2.382  1.1765  0.9486 -2.7419
  782MOL0     H 5526   0.822  12.687   2.166 -0.2523  2.3214 -0.8142
  782MOL0     H 5527   0.700  12.782   2.246 -0.4399 -0.8112  0.3813
  782MOL0     H 5528   0.602  12.569   2.142 -1.4533  2.2539 -0.0163
  782MOL0     H 5529   0.553  12.620   2.297 -0.8848 -1.3522  0.0118
  782MOL0     H 5530   0.713  12.199   2.358  1.9721  0.0155  0.6465
  782MOL0     H 5531   0.781  11.979   2.335 -1.1898  0.2304 -0.8408
  782MOL0     H 5532   0.769  11.917   2.164 -2.5779  1.5967 -0.1209
  782MOL0     H 5533   0.927  11.949   2.230 -0.7270 -1.6348 -0.1213
  782MOL0     H 5534   1.320  12.019   1.957  2.0498 -0.9837 -1.2012
  782MOL0     H 5535   1.458  11.830   1.904  0.0949 -1.7730  0.7844
  782MOL0     H 5536   1.399  11.616   1.696  1.7841 -2.3162 -1.3969
  782MOL0     H 5537   1.532  11.649   1.808  2.2296 -1.2644 -0.7101
  782MOL0     H 5538   1.591  11.416   1.832  1.8629 -0.4677 -1.8399
  782MOL0     H 5539   1.451  11.364   1.735 -1.1897  0.9688 -1.8747
  782MOL0     H 5540   1.567  11.558   1.577  0.0555 -0.0924 -0.6894
  782MOL0     H 5541   1.550  11.389   1.555 -0.4563  0.6042  0.0286
  782MOL0     H 5542   1.789  11.520   1.672 -5.4439  2.4517  0.0037
  782MOL0     H 5543   1.772  11.336   1.672  2.2864 -0.4964 -2.2099
  782MOL0     H 5544   1.726  11.478   1.419  2.6005  2.1458 -0.4024
  782MOL0     H 5545   1.769  11.314   1.435 -3.9380  0.2918  1.3556
  782MOL0     H 5546   1.945  11.543   1.505 -0.4532  0.2216 -1.0743
  782MOL0     H 5547   1.994  11.365   1.511  0.2334 -0.0994 -0.7829
  782MOL0     H 5548   2.085  11.498   1.328 -0.8951  1.4934  0.5877
  782MOL0     H 5549   1.932  11.534   1.257 -1.4259  0.5074  0.9809
  782MOL0     H 5550   2.059  11.337   1.157  1.0180  1.5796  0.0133
  782MOL0     H 5551   1.896  11.290   1.218  0.0723  0.8277  0.4602
  782MOL0     H 5552   1.097  11.578   1.956 -0.9400  0.1025 -1.5730
  782MOL0     H 5553   0.969  11.780   1.994 -0.8888  1.3395 -0.5465
  782MOL0     H 5554   0.931  12.317   1.937  1.1535 -0.6682  1.1305
  782MOL0     H 5555   0.811  12.498   2.069 -0.8283 -1.3669 -2.5215
  782MOL0     H 5556   1.167  11.901   2.503  0.3819  0.2732 -0.4246
  782MOL0     H 5557   1.162  11.726   2.349  0.6460 -1.3929 -0.5331
  782MOL0     H 5558   1.280  11.442   2.162  0.5930  1.0927 -0.7562
  782MOL0     H 5559   1.366  11.291   1.983  2.0754  2.0443  1.6306
  782MOL0     H 5560   1.512  11.125   1.976  0.3222 -1.1416  3.5335
  782MOL0     H 5561   1.550  10.959   2.000  0.6952 -2.2609 -3.1008
  782MOL0     H 5562   1.409  11.067   1.749  2.2883 -1.2702 -4.0437
  782MOL0     H 5563   1.468  10.896   1.794 -0.3154 -0.2817  1.7080
  782MOL0     H 5564   1.691  10.979   1.760 -3.3983 -2.0186 -0.2140
  782MOL0     H 5565   1.655  11.145   1.786 -0.5624  0.0146  1.9368
  782MOL0     H 5566   1.704  11.078   1.559 -0.3567 -2.3372 -1.1586
  782MOL0     H 5567   1.545  11.163   1.574 -0.7217 -1.0900 -2.1200
  782MOL0     H 5568   1.436  10.786   1.434  3.4412 -1.9015  1.1154
  782MOL0     H 5569   1.182  10.954   2.173 -0.1088 -0.1105  0.7354
  782MOL0     H 5570   1.101  11.092   2.350  0.5143  0.1007 -0.5568
  783MOL0     O 5571   5.837  10.216   9.026 -0.2162 -1.1855 -0.2766
  783MOL0     C 5572   5.793  10.227   9.144 -0.0116 -0.8410  0.9104
  783MOL0     O 5573   5.667  10.270   9.178 -0.0594  0.4163 -0.0242
  783MOL0     C 5574   5.578  10.302   9.086  0.2793 -0.8203 -0.3696
  783MOL0     C 5575   5.480  10.202   9.055  0.1946  0.0993  0.5000
  783MOL0     C 5576   5.367  10.226   8.976 -0.2273  0.1419  0.6365
  783MOL0     C 5577   5.343  10.359   8.937  0.4041  0.1067  0.2077
  783MOL0     O 5578   5.229  10.388   8.855 -0.5907  0.1860 -0.1139
  783MOL0     C 5579   5.133  10.463   8.927  0.5621  0.1274  0.0147
  783MOL0     C 5580   5.077  10.584   8.854 -1.1618 -1.2201 -0.0887
  783MOL0     C 5581   5.043  10.563   8.711  0.4323  1.0906 -0.1938
  783MOL0     C 5582   5.003  10.697   8.648 -0.4411  0.0429  1.0709
  783MOL0     C 5583   5.030  10.696   8.494  0.1341 -0.5066 -0.5990
  783MOL0     C 5584   5.014  10.841   8.428 -0.0942 -0.0928  0.3561
  783MOL0     C 5585   4.881  10.913   8.472 -0.1072 -0.4027  0.4710
  783MOL0     C 5586   4.856  11.026   8.370 -0.3584  0.3250  0.0366
  783MOL0     N 5587   4.948  11.141   8.393 -0.3272 -0.7933 -0.8864
  783MOL0     C 5588   4.921  11.240   8.491  0.4201  0.0303  0.5285
  783MOL0     C 5589   5.012  11.337   8.471  1.4458 -0.0834  0.7480
  783MOL0     C 5590   5.012  11.463   8.545  0.0050 -0.1254 -0.0953
  783MOL0     C 5591   5.117  11.562   8.495 -0.2826 -0.8252 -0.1717
  783MOL0     C 5592   5.122  11.683   8.593 -0.3868 -0.0986 -0.0807
  783MOL0     C 5593   5.258  11.745   8.607  0.1429  0.5293  0.6457
  783MOL0     O 5594   5.252  11.872   8.673 -0.3827 -0.4031 -0.1186
  783MOL0     C 5595   5.279  11.901   8.806  0.3035 -0.1815 -0.9009
  783MOL0     C 5596   5.406  11.874   8.866 -0.0132  0.8368 -0.5271
  783MOL0     C 5597   5.431  11.889   9.003 -0.5165  1.0015  0.0249
  783MOL0     C 5598   5.565  11.834   9.061 -0.2822  0.3557 -0.3358
  783MOL0     C 5599   5.326  11.943   9.084 -0.2562 -0.7159 -0.3324
  783MOL0     C 5600   5.342  11.960   9.234 -0.2958  0.4912 -0.0243
  783MOL0     O 5601   5.304  12.080   9.286  0.4949  0.4784 -0.1301
  783MOL0     C 5602   5.299  12.109   9.426  0.6769 -0.9585 -0.9536
  783MOL0     C 5603   5.301  12.245   9.477 -0.2007  0.3211 -0.7718
  783MOL0     C 5604   5.261  12.272   9.607 -0.3888  0.0701 -0.8314
  783MOL0     C 5605   5.231  12.166   9.698  0.1800 -0.0632 -0.3374
  783MOL0     O 5606   5.208  12.186   9.830  0.2115  0.0965  0.8643
  783MOL0     C 5607   5.126  12.293   9.876  0.1716 -0.6015  0.3940
  783MOL0     C 5608   5.110  12.263  10.024  0.3582 -1.1409  0.1196
  783MOL0     C 5609   5.065  12.118  10.058  0.0187  0.1772  0.3885
  783MOL0     C 5610   5.052  12.091  10.198  1.1236  0.0272 -0.0034
  783MOL0     C 5611   5.034  11.942  10.224  0.6946  0.2804 -0.2441
  783MOL0     C 5612   5.015  11.907  10.364 -0.2647  0.0428  0.6364
  783MOL0     C 5613   4.884  11.956  10.423 -0.5749  0.1968 -0.2060
  783MOL0     C 5614   4.855  11.891  10.555 -0.0063  0.0004 -0.7412
  783MOL0    Cl 5615   4.962  11.977  10.674 -0.0584  0.7456 -0.0547
  783MOL0     C 5616   5.223  12.036   9.649 -0.1306 -0.0582 -0.2544
  783MOL0     C 5617   5.254  12.013   9.511 -0.1395 -0.5681 -0.5534
  783MOL0     O 5618   5.370  11.863   9.299 -0.8505  0.7948  0.6115
  783MOL0     C 5619   5.208  11.981   9.027  0.0559 -0.1238  0.5316
  783MOL0     C 5620   5.187  11.962   8.889  0.1175 -0.5857 -0.0059
  783MOL0     N 5621   5.094  11.300   8.370  0.3903  0.0149 -0.0393
  783MOL0     N 5622   5.051  11.185   8.318  1.0494  0.8944  0.0321
  783MOL0     C 5623   5.428  10.465   8.988  0.1010  0.4431  0.4564
  783MOL0     C 5624   5.546  10.436   9.068  0.5885 -0.3830 -0.0261
  783MOL0     C 5625   5.877  10.196   9.266 -0.0066 -0.7777 -0.0144
  783MOL0     C 5626   5.822  10.196   9.394 -0.0582 -0.6958 -0.8059
  783MOL0     C 5627   5.895  10.136   9.493  0.4751  0.0278  0.8138
  783MOL0     C 5628   6.028  10.089   9.477 -0.4307 -0.0054  0.3876
  783MOL0     O 5629   6.087  10.035   9.593  0.5784 -0.3625  0.3306
  783MOL0     C 5630   6.226  10.018   9.600 -0.3166 -0.3140 -0.1702
  783MOL0     C 5631   6.274  10.022   9.743  0.4900 -0.5184 -1.2253
  783MOL0     C 5632   6.302   9.885   9.798 -0.2530 -0.5766  0.0209
  783MOL0     C 5633   6.181   9.793   9.821  1.1436 -0.7712 -0.4344
  783MOL0     C 5634   6.196   9.671   9.901  0.0301  0.8919 -0.7800
  783MOL0     C 5635   6.211   9.565   9.961 -0.7623 -0.0082  0.3054
  783MOL0     C 5636   6.081  10.095   9.345 -0.1355 -0.4280 -0.2753
  783MOL0     C 5637   6.006  10.139   9.244  0.2665 -0.5564 -0.6172
  783MOL0     H 5638   5.500  10.105   9.099 -0.1935 -0.2357 -0.0591
  783MOL0     H 5639   5.311  10.140   8.941  1.4233  0.1226 -2.2286
  783MOL0     H 5640   5.051  10.400   8.964 -1.3337  2.7696  0.5946
  783MOL0     H 5641   5.181  10.499   9.019 -0.1543 -0.3214  0.5820
  783MOL0     H 5642   4.999  10.623   8.921  0.0835 -0.6623  1.0847
  783MOL0     H 5643   5.149  10.666   8.849 -3.2879  0.8723  1.1174
  783MOL0     H 5644   5.130  10.516   8.665 -0.1243 -1.5485  1.2594
  783MOL0     H 5645   4.959  10.492   8.704 -0.7183  2.5384 -3.6647
  783MOL0     H 5646   4.898  10.718   8.674 -1.3802 -3.4211  0.4901
  783MOL0     H 5647   5.062  10.775   8.697  0.9137 -1.0121  1.1625
  783MOL0     H 5648   5.133  10.662   8.479  1.2266  1.5425  1.5785
  783MOL0     H 5649   4.967  10.627   8.437  0.3953  0.8128 -2.5928
  783MOL0     H 5650   5.098  10.904   8.459  0.9655 -1.8118  1.0647
  783MOL0     H 5651   5.005  10.828   8.319 -3.6741 -0.0875  0.5292
  783MOL0     H 5652   4.810  10.831   8.461  0.4339 -0.8255  0.1066
  783MOL0     H 5653   4.890  10.948   8.576 -0.1783 -0.5776  0.5357
  783MOL0     H 5654   4.754  11.061   8.386 -0.4450 -0.4440  1.4276
  783MOL0     H 5655   4.871  11.000   8.265 -1.1259  3.3628 -0.9200
  783MOL0     H 5656   4.834  11.249   8.555 -1.1460  0.4744 -1.5305
  783MOL0     H 5657   4.910  11.501   8.540 -0.3370 -1.0510 -0.6155
  783MOL0     H 5658   5.040  11.429   8.645  0.0907 -0.7905 -0.3391
  783MOL0     H 5659   5.103  11.599   8.393 -1.6392  1.4111  0.7526
  783MOL0     H 5660   5.217  11.517   8.497  0.5569  0.9366  2.0251
  783MOL0     H 5661   5.110  11.644   8.695  1.3733  0.3760  0.3433
  783MOL0     H 5662   5.040  11.749   8.563 -0.3620 -0.4865 -1.0395
  783MOL0     H 5663   5.292  11.757   8.503  0.7858 -1.7994  0.5228
  783MOL0     H 5664   5.333  11.676   8.648 -0.5384  0.6804  2.2007
  783MOL0     H 5665   5.481  11.820   8.810  1.8883  2.3664  0.4156
  783MOL0     H 5666   5.612  11.913   9.120  1.2164 -1.2514  0.7029
  783MOL0     H 5667   5.556  11.742   9.121  4.5458 -0.3898 -0.3584
  783MOL0     H 5668   5.635  11.800   8.984  0.3770 -0.3435  0.5512
  783MOL0     H 5669   5.325  12.329   9.412 -0.9237  1.6610  0.6187
  783MOL0     H 5670   5.236  12.372   9.642 -0.7203 -0.1752 -0.3620
  783MOL0     H 5671   5.161  12.395   9.863 -1.0583  0.3538  3.6042
  783MOL0     H 5672   5.029  12.282   9.828  0.4049 -0.9659 -0.0027
  783MOL0     H 5673   5.202  12.267  10.082 -0.5230 -0.3279  1.5249
  783MOL0     H 5674   5.040  12.336  10.066  0.6162 -0.4671 -0.5882
  783MOL0     H 5675   5.138  12.054  10.007 -0.5365  0.3692 -0.6663
  783MOL0     H 5676   4.969  12.100  10.009  0.9351 -0.1971 -1.3304
  783MOL0     H 5677   5.144  12.116  10.251  0.5566 -3.7074  3.2716
  783MOL0     H 5678   4.978  12.154  10.247  2.0891  1.3515 -0.2148
  783MOL0     H 5679   5.128  11.903  10.182  0.5224  0.1376 -0.4990
  783MOL0     H 5680   4.947  11.910  10.166  1.6737  0.9300 -2.1523
  783MOL0     H 5681   5.019  11.798  10.368  0.1787 -0.0777 -1.6352
  783MOL0     H 5682   5.104  11.950  10.410 -0.7148  2.4904 -0.6050
  783MOL0     H 5683   4.803  11.930  10.354 -1.3360 -1.8916  1.3563
  783MOL0     H 5684   4.884  12.064  10.434 -0.8537  0.0230  1.8179
  783MOL0     H 5685   4.884  11.786  10.546  0.6336  0.3230 -3.2316
  783MOL0     H 5686   4.752  11.898  10.592  0.0164 -1.1357 -0.4376
  783MOL0     H 5687   5.202  11.947   9.707 -0.8371  1.8902  2.6888
  783MOL0     H 5688   5.244  11.910   9.479  1.5053 -1.1214  0.5488
  783MOL0     H 5689   5.134  12.019   9.096  0.1239  0.8307  0.1031
  783MOL0     H 5690   5.088  11.984   8.850  1.0981 -1.7547 -3.4479
  783MOL0     H 5691   5.388  10.566   8.976 -0.2722  0.0425 -2.3234
  783MOL0     H 5692   5.607  10.520   9.101 -0.5720  0.2923  0.4915
  783MOL0     H 5693   5.725  10.237   9.421 -0.3376 -1.0447 -1.2559
  783MOL0     H 5694   5.857  10.142   9.594  0.3896  1.3543  0.7269
  783MOL0     H 5695   6.259   9.928   9.546 -1.5546  1.1886 -3.6801
  783MOL0     H 5696   6.276  10.101   9.550 -0.4689  0.8678  1.5531
  783MOL0     H 5697   6.188  10.071   9.790  0.7716 -0.4300 -0.7944
  783MOL0     H 5698   6.365  10.082   9.759 -0.1946  0.0731  0.8301
  783MOL0     H 5699   6.356   9.903   9.891 -2.0265 -1.2548  1.2132
  783MOL0     H 5700   6.362   9.831   9.723  0.4347 -1.1458  0.9677
  783MOL0     H 5701   6.131   9.763   9.729  2.1234 -1.7232 -0.6825
  783MOL0     H 5702   6.112   9.838   9.893  1.4291 -3.0353  1.3794
  783MOL0     H 5703   6.220   9.468  10.004  0.6320 -1.2930 -2.6346
  783MOL0     H 5704   6.180  10.057   9.323 -0.4108 -0.4541 -1.5397
  783MOL0     H 5705   6.045  10.136   9.142 -2.4214  0.0470 -1.7641
  784MOL0     O 5706   4.370   5.975   2.507  0.4583  0.6314  0.2110
  784MOL0     C 5707   4.314   5.935   2.406 -0.1568  1.1209  0.1656
  784MOL0     O 5708   4.377   5.931   2.282  0.2905  0.7486 -0.2066
  784MOL0     C 5709   4.514   5.949   2.270 -0.4656  0.2938 -1.5093
  784MOL0     C 5710   4.554   6.002   2.150  0.2683 -1.3269 -0.2587
  784MOL0     C 5711   4.684   6.036   2.128  1.1775  0.7829  0.5535
  784MOL0     C 5712   4.791   6.007   2.216  0.6817 -0.7221 -0.6513
  784MOL0     O 5713   4.927   6.034   2.198  0.1765 -0.9114 -0.0691
  784MOL0     C 5714   4.946   6.066   2.061  0.1229  0.5666 -1.5415
  784MOL0     C 5715   5.097   6.086   2.042 -0.5182 -0.5488 -0.2841
  784MOL0     C 5716   5.174   5.953   2.025 -0.1901 -0.2690 -0.6099
  784MOL0     C 5717   5.155   5.904   1.888 -0.7254 -0.2370  0.2719
  784MOL0     C 5718   5.256   5.788   1.874  0.0893 -0.6362  0.2369
  784MOL0     C 5719   5.247   5.711   1.740  0.5976  0.2300  0.4042
  784MOL0     C 5720   5.373   5.620   1.726 -0.4430  0.0981  0.8946
  784MOL0     C 5721   5.461   5.638   1.608 -0.4305 -0.3830 -0.1450
  784MOL0     N 5722   5.557   5.747   1.622 -0.3646 -0.0921  0.3354
  784MOL0     C 5723   5.526   5.881   1.640 -0.4413 -1.4881 -0.4282
  784MOL0     C 5724   5.644   5.949   1.645 -0.0292  0.9664  0.3490
  784MOL0     C 5725   5.671   6.087   1.678  0.0525 -0.2933  0.2691
  784MOL0     C 5726   5.547   6.171   1.720 -0.5851  0.0627  0.0851
  784MOL0     C 5727   5.595   6.309   1.781 -0.0005  0.3598  0.5859
  784MOL0     C 5728   5.466   6.389   1.790  0.1111  1.3326 -0.0874
  784MOL0     O 5729   5.475   6.496   1.885 -0.2991  0.6669 -0.6346
  784MOL0     C 5730   5.488   6.469   2.022 -0.9847  0.1243 -0.0757
  784MOL0     C 5731   5.440   6.354   2.094  0.5989  0.0413  0.9936
  784MOL0     C 5732   5.459   6.350   2.235 -0.8742 -1.3798 -1.1066
  784MOL0     C 5733   5.390   6.238   2.309  0.0347  1.0897  0.0859
  784MOL0     C 5734   5.526   6.459   2.303 -0.2914  0.5287  0.9723
  784MOL0     C 5735   5.551   6.476   2.445 -0.5052  0.0572  0.3151
  784MOL0     O 5736   5.576   6.599   2.483 -0.0871 -0.4732 -0.0237
  784MOL0     C 5737   5.589   6.636   2.611  0.0582  0.3043 -0.0967
  784MOL0     C 5738   5.483   6.611   2.697  0.9381 -0.0204  0.1591
  784MOL0     C 5739   5.492   6.659   2.828 -0.5099  0.3584  0.4252
  784MOL0     C 5740   5.594   6.735   2.879 -0.0181 -0.4649  1.0529
  784MOL0     O 5741   5.598   6.777   3.007  0.0340 -0.0845 -0.1279
  784MOL0     C 5742   5.601   6.672   3.106 -0.2789 -0.2144  0.4087
  784MOL0     C 5743   5.664   6.724   3.239  0.6118  0.7411  0.2432
  784MOL0     C 5744   5.661   6.609   3.345 -0.3369  0.0589 -1.0203
  784MOL0     C 5745   5.769   6.650   3.452 -0.5333  0.5276  0.5463
  784MOL0     C 5746   5.753   6.554   3.570 -0.1389  0.7899  0.8145
  784MOL0     C 5747   5.799   6.405   3.553  0.7270  0.6259  0.1337
  784MOL0     C 5748   5.933   6.383   3.468  1.0647  0.0312 -0.0031
  784MOL0     C 5749   5.980   6.238   3.459  0.4141  1.0808 -0.9255
  784MOL0    Cl 5750   6.031   6.182   3.612 -0.0837 -0.0268  0.0798
  784MOL0     C 5751   5.686   6.775   2.782 -0.2181  0.1922 -0.0657
  784MOL0     C 5752   5.688   6.724   2.650  0.8822 -0.3355  0.4799
  784MOL0     O 5753   5.535   6.382   2.520  0.2775  0.5534  0.3787
  784MOL0     C 5754   5.564   6.569   2.227 -0.3550 -0.8200  0.2951
  784MOL0     C 5755   5.549   6.571   2.089 -0.4829  0.0258  0.7439
  784MOL0     N 5756   5.746   5.853   1.616  0.5981  0.1815  0.2070
  784MOL0     N 5757   5.691   5.737   1.619 -0.0694  0.3329  0.2888
  784MOL0     C 5758   4.751   5.954   2.339  0.2920 -0.2424 -0.1837
  784MOL0     C 5759   4.617   5.920   2.360  0.0693  0.6135 -0.5430
  784MOL0     C 5760   4.180   5.879   2.417  0.5819  0.1178  0.2492
  784MOL0     C 5761   4.110   5.878   2.534  0.3741 -0.3585 -0.2799
  784MOL0     C 5762   3.984   5.821   2.546  0.1953 -0.2069  0.3606
  784MOL0     C 5763   3.918   5.772   2.433 -1.0581  0.4298 -0.8179
  784MOL0     O 5764   3.797   5.708   2.442 -0.5503  0.3425 -0.0737
  784MOL0     C 5765   3.738   5.659   2.556  0.7089 -0.6561 -0.3194
  784MOL0     C 5766   3.696   5.509   2.513  0.3919 -1.1839  0.2719
  784MOL0     C 5767   3.628   5.422   2.614  0.2963  0.4355 -0.0077
  784MOL0     C 5768   3.614   5.287   2.546 -0.1850  0.1276 -0.0105
  784MOL0     C 5769   3.577   5.174   2.626  0.0745 -0.5108 -0.4153
  784MOL0     C 5770   3.538   5.079   2.691 -0.5354 -0.2525  0.1350
  784MOL0     C 5771   3.979   5.784   2.305  0.1806 -0.6572 -0.6242
  784MOL0     C 5772   4.111   5.833   2.295  0.2727  0.5281  1.1628
  784MOL0     H 5773   4.477   5.997   2.073 -0.1875  0.6401  0.0164
  784MOL0     H 5774   4.703   6.073   2.028 -0.0044 -0.9941 -0.3980
  784MOL0     H 5775   4.905   5.994   1.989  0.2395  1.0467 -2.0997
  784MOL0     H 5776   4.906   6.164   2.035 -0.4879  0.7883  0.1444
  784MOL0     H 5777   5.109   6.152   1.956 -0.0376  0.7726  0.7723
  784MOL0     H 5778   5.138   6.147   2.123 -1.0656 -0.6712  0.0938
  784MOL0     H 5779   5.280   5.978   2.036 -0.8321  3.1899 -1.0396
  784MOL0     H 5780   5.144   5.891   2.110  1.7908  3.0607  2.8991
  784MOL0     H 5781   5.052   5.874   1.869 -0.7466 -0.5838  0.9240
  784MOL0     H 5782   5.170   5.986   1.817 -2.2740  0.7856  1.0863
  784MOL0     H 5783   5.356   5.832   1.866  0.6309 -2.0383 -1.3479
  784MOL0     H 5784   5.248   5.709   1.949  0.7942 -0.0408  0.9577
  784MOL0     H 5785   5.154   5.654   1.745 -0.6146  2.1024  0.2475
  784MOL0     H 5786   5.239   5.781   1.656  1.7356 -0.7822 -0.5884
  784MOL0     H 5787   5.441   5.627   1.811 -1.7556 -0.0754  1.9845
  784MOL0     H 5788   5.335   5.518   1.720 -2.7680  0.8216  2.1504
  784MOL0     H 5789   5.399   5.664   1.522  1.7511  1.2416 -1.3463
  784MOL0     H 5790   5.517   5.546   1.591  0.6025  0.2269 -0.1408
  784MOL0     H 5791   5.435   5.937   1.652  1.3109  2.0359 -2.1287
  784MOL0     H 5792   5.735   6.075   1.766 -1.0922 -3.1550  0.8020
  784MOL0     H 5793   5.734   6.140   1.606  0.0861  4.2400  3.2070
  784MOL0     H 5794   5.490   6.123   1.800 -0.3637  1.5383  1.1646
  784MOL0     H 5795   5.479   6.182   1.635  0.5157  1.3110 -0.6687
  784MOL0     H 5796   5.664   6.361   1.714 -2.1053 -1.3137 -3.1557
  784MOL0     H 5797   5.640   6.298   1.880  1.5983  0.0225 -0.1474
  784MOL0     H 5798   5.379   6.325   1.808  0.4187 -0.2229 -3.3251
  784MOL0     H 5799   5.453   6.439   1.693 -2.7492  0.0818 -0.4462
  784MOL0     H 5800   5.391   6.278   2.034  4.8112 -1.3270 -1.1512
  784MOL0     H 5801   5.364   6.169   2.228  0.7913  0.4230  0.4008
  784MOL0     H 5802   5.456   6.200   2.388  1.2011  1.2235 -0.8083
  784MOL0     H 5803   5.291   6.269   2.344  0.4389 -0.1448  2.5199
  784MOL0     H 5804   5.394   6.559   2.663 -0.6057  2.9459 -0.6819
  784MOL0     H 5805   5.411   6.628   2.894 -0.6251  1.1935  0.6836
  784MOL0     H 5806   5.494   6.655   3.123 -0.4697 -1.8111 -1.8768
  784MOL0     H 5807   5.638   6.575   3.071 -2.0270 -0.8686  0.2325
  784MOL0     H 5808   5.769   6.745   3.215  1.1600 -1.1075  0.8244
  784MOL0     H 5809   5.612   6.810   3.279 -0.4147  0.4664 -0.4461
  784MOL0     H 5810   5.676   6.514   3.294 -0.8470 -0.4523 -0.2281
  784MOL0     H 5811   5.565   6.612   3.398  0.1104  1.2934 -0.2201
  784MOL0     H 5812   5.871   6.648   3.411  0.0221  0.2792  1.8842
  784MOL0     H 5813   5.752   6.749   3.494 -0.0820 -0.9951  4.8427
  784MOL0     H 5814   5.646   6.571   3.591  0.2446  2.2596  1.7805
  784MOL0     H 5815   5.801   6.592   3.661 -0.2412 -0.1814  1.2795
  784MOL0     H 5816   5.798   6.375   3.658  0.6272  0.8678  0.2031
  784MOL0     H 5817   5.714   6.350   3.511 -0.0513  2.9391 -1.5461
  784MOL0     H 5818   6.010   6.442   3.518 -1.5950  1.7670  2.3841
  784MOL0     H 5819   5.918   6.424   3.368  1.6214 -2.0950 -1.0294
  784MOL0     H 5820   6.058   6.222   3.385  1.4089  1.8404 -0.0653
  784MOL0     H 5821   5.903   6.163   3.440  2.1863 -1.1141  0.1249
  784MOL0     H 5822   5.763   6.847   2.806 -0.6282  2.1683 -3.9206
  784MOL0     H 5823   5.766   6.732   2.575  0.9302 -0.1215  0.5518
  784MOL0     H 5824   5.612   6.659   2.265  1.5730 -1.4446 -0.4949
  784MOL0     H 5825   5.587   6.651   2.026 -1.0187  2.1515  2.9782
  784MOL0     H 5826   4.823   5.925   2.416 -0.6812 -0.6094  0.6018
  784MOL0     H 5827   4.604   5.866   2.454 -3.5088  1.0531 -0.6489
  784MOL0     H 5828   4.159   5.918   2.622 -0.8817 -1.2296  0.8551
  784MOL0     H 5829   3.937   5.818   2.644  1.1292  0.5454  0.8490
  784MOL0     H 5830   3.803   5.646   2.643 -0.2460  0.8487  0.6516
  784MOL0     H 5831   3.645   5.712   2.575 -0.4753 -3.1362  1.2956
  784MOL0     H 5832   3.790   5.461   2.486  0.7368  0.5180 -1.8835
  784MOL0     H 5833   3.645   5.511   2.416  1.3844  0.8387 -0.2735
  784MOL0     H 5834   3.531   5.471   2.628 -0.5733 -0.5752 -2.1039
  784MOL0     H 5835   3.682   5.423   2.709  2.5461  3.0220 -1.1894
  784MOL0     H 5836   3.711   5.255   2.507 -0.3660 -2.3865  1.3258
  784MOL0     H 5837   3.552   5.283   2.456 -0.8620 -0.4712  0.4640
  784MOL0     H 5838   3.503   4.993   2.745  0.8302  0.1146  1.6886
  784MOL0     H 5839   3.929   5.757   2.212 -1.4267 -1.5064  0.4447
  784MOL0     H 5840   4.162   5.847   2.201 -0.7620  0.9696  0.6521
  785MOL0     O 5841   4.246   1.317   2.311 -0.5799  0.3322 -0.0051
  785MOL0     C 5842   4.288   1.218   2.373 -0.1930 -0.4426  0.5858
  785MOL0     O 5843   4.415   1.175   2.385  0.4653  0.1774 -0.9774
  785MOL0     C 5844   4.518   1.237   2.332  0.2625  0.3252 -0.0494
  785MOL0     C 5845   4.619   1.155   2.275 -0.4566  0.0284 -0.1078
  785MOL0     C 5846   4.744   1.209   2.240  0.8359 -1.3095  0.6611
  785MOL0     C 5847   4.756   1.348   2.255 -1.0684  0.7341  0.2296
  785MOL0     O 5848   4.860   1.423   2.209  0.9311 -0.6914 -0.7416
  785MOL0     C 5849   4.963   1.367   2.130 -0.3070  0.4255 -0.0527
  785MOL0     C 5850   5.039   1.479   2.060  0.3605 -1.0788  0.3472
  785MOL0     C 5851   5.101   1.579   2.160  0.2012 -0.8086  1.0131
  785MOL0     C 5852   5.173   1.695   2.089 -0.1060  0.4959  0.6478
  785MOL0     C 5853   5.222   1.800   2.191 -0.0287 -0.3334 -0.7926
  785MOL0     C 5854   5.331   1.770   2.299  0.4282  0.2075  0.1565
  785MOL0     C 5855   5.460   1.721   2.233  0.2612 -0.8663 -0.2050
  785MOL0     C 5856   5.588   1.795   2.276  0.4922  0.1150 -1.2042
  785MOL0     N 5857   5.625   1.910   2.201 -0.0605 -0.2373 -1.0689
  785MOL0     C 5858   5.750   1.974   2.185 -0.9055  0.3102  0.1720
  785MOL0     C 5859   5.727   2.086   2.128  0.8559  0.3214  0.3134
  785MOL0     C 5860   5.812   2.196   2.096  0.2506  0.1699 -0.1258
  785MOL0     C 5861   5.861   2.275   2.216 -1.1108  0.3787 -0.5315
  785MOL0     C 5862   6.018   2.253   2.234  0.7155 -0.8349  0.0500
  785MOL0     C 5863   6.064   2.377   2.312  0.7054  0.3006 -0.9390
  785MOL0     O 5864   6.176   2.339   2.403 -0.0159 -0.1776  0.5459
  785MOL0     C 5865   6.254   2.428   2.471 -1.8387 -1.0974 -0.2609
  785MOL0     C 5866   6.387   2.399   2.510  1.3899  0.0847 -0.4071
  785MOL0     C 5867   6.463   2.487   2.579 -0.0173 -0.7169 -0.3417
  785MOL0     C 5868   6.596   2.432   2.627  0.6051  0.2789 -0.8882
  785MOL0     C 5869   6.414   2.614   2.614  0.4238 -1.5399 -0.6769
  785MOL0     C 5870   6.484   2.723   2.690 -0.5793  0.5586 -1.0435
  785MOL0     O 5871   6.417   2.847   2.693  0.0907  0.4701  0.2808
  785MOL0     C 5872   6.464   2.957   2.763  0.1977  0.0553 -0.5429
  785MOL0     C 5873   6.429   2.989   2.893 -0.1756 -0.1084 -0.7664
  785MOL0     C 5874   6.484   3.100   2.962 -0.1357 -0.2172 -0.0282
  785MOL0     C 5875   6.584   3.178   2.901 -0.6188  0.0803  0.5823
  785MOL0     O 5876   6.642   3.287   2.968  0.1867 -0.5229 -0.5285
  785MOL0     C 5877   6.629   3.297   3.118  0.5176 -0.2782  1.2988
  785MOL0     C 5878   6.485   3.361   3.157  0.3817 -0.0417  0.8510
  785MOL0     C 5879   6.452   3.380   3.302  0.1318  0.4142  0.3083
  785MOL0     C 5880   6.554   3.475   3.370 -0.3462 -0.0507 -0.6628
  785MOL0     C 5881   6.511   3.509   3.507  0.0638  0.3484 -0.1402
  785MOL0     C 5882   6.573   3.647   3.538  0.3567  0.2708  1.1885
  785MOL0     C 5883   6.492   3.755   3.462  1.2649  0.2262 -0.4831
  785MOL0     C 5884   6.579   3.873   3.414  0.2693  0.8542 -1.0180
  785MOL0    Cl 5885   6.654   3.961   3.547  0.1709  0.4025 -0.2560
  785MOL0     C 5886   6.622   3.142   2.768 -0.3324  0.7049  0.4737
  785MOL0     C 5887   6.564   3.035   2.696 -0.1521 -0.0333  0.0587
  785MOL0     O 5888   6.594   2.708   2.749  0.8311  0.4083  0.0257
  785MOL0     C 5889   6.283   2.648   2.579  0.7596  0.0396  0.5988
  785MOL0     C 5890   6.216   2.555   2.504  0.7479 -0.5898  0.4031
  785MOL0     N 5891   5.585   2.103   2.108 -0.3404  0.5553 -0.2925
  785MOL0     N 5892   5.531   1.991   2.147  0.1304 -0.4802  0.0636
  785MOL0     C 5893   4.664   1.423   2.307  0.0984 -0.5173 -0.1421
  785MOL0     C 5894   4.538   1.374   2.340 -0.7439  0.1925  0.0982
  785MOL0     C 5895   4.185   1.131   2.445  1.3332 -0.4652  0.4235
  785MOL0     C 5896   4.064   1.185   2.482 -0.4194  1.0671 -0.2729
  785MOL0     C 5897   3.981   1.112   2.572  0.2595 -0.4690  0.4515
  785MOL0     C 5898   4.022   0.987   2.616 -0.4309 -0.3137 -0.1170
  785MOL0     O 5899   3.958   0.908   2.704  0.0006  0.9271  0.6686
  785MOL0     C 5900   3.826   0.939   2.747 -0.3869 -0.7857  0.5347
  785MOL0     C 5901   3.809   1.060   2.841 -0.3409  0.4865 -0.5488
  785MOL0     C 5902   3.656   1.098   2.846  0.1376  0.5216  0.1841
  785MOL0     C 5903   3.639   1.214   2.945  0.2115 -0.3112  0.5410
  785MOL0     C 5904   3.680   1.184   3.078 -0.5123 -0.2032 -0.0663
  785MOL0     C 5905   3.712   1.159   3.197 -0.5845 -0.1368  0.8177
  785MOL0     C 5906   4.141   0.929   2.565  0.1585  0.6224  0.0063
  785MOL0     C 5907   4.218   0.999   2.480  0.8979  0.7758 -0.3865
  785MOL0     H 5908   4.591   1.050   2.279  2.4167 -0.8195  4.2137
  785MOL0     H 5909   4.821   1.153   2.186  1.6196  2.0090 -2.0200
  785MOL0     H 5910   5.030   1.301   2.185  0.5192 -1.0598 -2.6795
  785MOL0     H 5911   4.925   1.297   2.055 -0.3769 -3.5319  3.3732
  785MOL0     H 5912   5.117   1.435   1.998 -2.3350 -0.6709 -3.7145
  785MOL0     H 5913   4.968   1.534   1.998  1.1738 -0.3878  0.0234
  785MOL0     H 5914   5.021   1.618   2.224 -1.2492 -0.1046 -1.1092
  785MOL0     H 5915   5.173   1.520   2.217  0.5889 -1.1999  0.1385
  785MOL0     H 5916   5.251   1.652   2.026 -0.7131 -2.6547  1.8450
  785MOL0     H 5917   5.099   1.750   2.031 -1.3848  0.5282  2.2363
  785MOL0     H 5918   5.272   1.876   2.130  0.4418  1.1931  1.3930
  785MOL0     H 5919   5.137   1.845   2.243  2.1872  1.5116  1.4570
  785MOL0     H 5920   5.360   1.859   2.355 -0.2584 -0.2651  1.2976
  785MOL0     H 5921   5.298   1.694   2.370  0.2321  1.3791  1.3695
  785MOL0     H 5922   5.463   1.614   2.254  3.6227 -0.2415  3.7226
  785MOL0     H 5923   5.452   1.740   2.125 -1.3631 -0.4650 -0.0523
  785MOL0     H 5924   5.674   1.730   2.261  0.8732  0.8118 -2.0871
  785MOL0     H 5925   5.587   1.815   2.384 -2.8813  1.8470 -1.4153
  785MOL0     H 5926   5.848   1.935   2.210  0.4129  4.4987  2.4129
  785MOL0     H 5927   5.901   2.146   2.058 -0.7238 -1.5979 -0.1577
  785MOL0     H 5928   5.771   2.259   2.017  0.2648  2.1134  1.3192
  785MOL0     H 5929   5.807   2.250   2.308 -1.6500 -6.5315 -2.1967
  785MOL0     H 5930   5.848   2.380   2.187 -3.8252  0.9395  2.2035
  785MOL0     H 5931   6.067   2.240   2.137 -0.4034  1.3030 -0.8934
  785MOL0     H 5932   6.025   2.165   2.298 -1.4861 -0.5835  0.7205
  785MOL0     H 5933   5.981   2.412   2.374 -0.5733  1.5435 -3.2430
  785MOL0     H 5934   6.095   2.460   2.248  0.0009  1.8771  0.6876
  785MOL0     H 5935   6.429   2.301   2.489  1.1031 -0.0347 -0.4243
  785MOL0     H 5936   6.638   2.343   2.579  3.7548 -1.0648  3.6602
  785MOL0     H 5937   6.681   2.500   2.629  0.4619  0.5003  1.7224
  785MOL0     H 5938   6.580   2.405   2.732 -1.1085  3.3831 -0.2288
  785MOL0     H 5939   6.356   2.934   2.952 -0.5393  0.9230 -0.2447
  785MOL0     H 5940   6.458   3.104   3.068 -3.2515 -2.4823 -0.5727
  785MOL0     H 5941   6.651   3.201   3.165  1.7701 -1.6819 -1.8383
  785MOL0     H 5942   6.704   3.369   3.151 -0.4987  1.8630 -0.7975
  785MOL0     H 5943   6.488   3.457   3.105  1.3274 -1.3209 -1.6050
  785MOL0     H 5944   6.394   3.311   3.122  1.2512  0.5525 -2.6073
  785MOL0     H 5945   6.452   3.278   3.341 -1.2621 -0.1270 -0.9893
  785MOL0     H 5946   6.350   3.416   3.315 -0.5028 -1.9513  2.8552
  785MOL0     H 5947   6.643   3.411   3.373 -1.5275 -1.7382  1.4015
  785MOL0     H 5948   6.574   3.560   3.305  1.3841  0.0437 -0.0552
  785MOL0     H 5949   6.559   3.434   3.570  1.9688  1.2416 -0.4515
  785MOL0     H 5950   6.403   3.510   3.527  0.3206  1.5344  1.3039
  785MOL0     H 5951   6.564   3.665   3.646  0.6654  1.0807  1.0803
  785MOL0     H 5952   6.679   3.651   3.515  0.0917 -0.0383 -0.1392
  785MOL0     H 5953   6.405   3.793   3.517  0.6940  1.4456 -2.1542
  785MOL0     H 5954   6.444   3.712   3.374  1.1746 -3.5196  1.1809
  785MOL0     H 5955   6.512   3.926   3.346 -1.1668 -3.6620 -3.6224
  785MOL0     H 5956   6.658   3.837   3.347 -0.1422 -0.8733 -0.6289
  785MOL0     H 5957   6.702   3.187   2.711  0.3171 -0.2501  0.5963
  785MOL0     H 5958   6.602   3.017   2.597  1.5476 -0.3620  0.7341
  785MOL0     H 5959   6.237   2.744   2.600  0.5801 -0.1258  0.9647
  785MOL0     H 5960   6.115   2.588   2.482  0.0963 -0.2560  3.3814
  785MOL0     H 5961   4.682   1.529   2.320  1.9989 -1.1122  3.1782
  785MOL0     H 5962   4.463   1.447   2.371  1.8306  3.4036 -0.6051
  785MOL0     H 5963   4.037   1.287   2.459  0.5480  1.9092  2.0441
  785MOL0     H 5964   3.884   1.158   2.590  0.2008 -1.0205  1.7378
  785MOL0     H 5965   3.769   0.964   2.656  2.4763  2.2624 -0.6136
  785MOL0     H 5966   3.777   0.856   2.798 -1.6788 -1.4167 -1.5824
  785MOL0     H 5967   3.866   1.148   2.809  0.4227  0.5092  0.7870
  785MOL0     H 5968   3.848   1.044   2.942  0.2126  2.0869 -0.4831
  785MOL0     H 5969   3.596   1.012   2.876  1.3649 -0.0262  1.1548
  785MOL0     H 5970   3.641   1.127   2.742  3.2048 -2.4291 -1.2399
  785MOL0     H 5971   3.533   1.237   2.936 -0.4615 -2.9860  0.5932
  785MOL0     H 5972   3.693   1.306   2.921 -0.7339 -0.0405 -0.6390
  785MOL0     H 5973   3.735   1.154   3.301 -2.8416  0.7405  1.4258
  785MOL0     H 5974   4.173   0.831   2.598  2.9668  2.1624  2.3007
  785MOL0     H 5975   4.309   0.950   2.447  1.3786  1.0267  0.5368
  786MOL0     O 5976   2.233   7.044   2.947 -0.7039  0.2363  0.7159
  786MOL0     C 5977   2.269   6.991   2.841 -0.4189  0.0511  0.0874
  786MOL0     O 5978   2.218   6.874   2.790  0.0155 -0.3365 -0.2297
  786MOL0     C 5979   2.125   6.804   2.861 -0.5800 -0.3092 -0.3738
  786MOL0     C 5980   2.150   6.710   2.954  0.4643 -0.0650  0.4845
  786MOL0     C 5981   2.047   6.631   3.000  0.2456 -0.7634 -0.3177
  786MOL0     C 5982   1.911   6.660   2.966  0.1069  0.3272  1.1901
  786MOL0     O 5983   1.801   6.599   3.020 -0.2351 -0.5416 -0.0179
  786MOL0     C 5984   1.790   6.458   2.993  0.8998  0.2713 -0.7147
  786MOL0     C 5985   1.638   6.419   2.998 -0.6053 -0.2577 -0.3910
  786MOL0     C 5986   1.565   6.510   3.101 -0.6147 -0.0919  0.1174
  786MOL0     C 5987   1.419   6.472   3.131 -0.9993  0.0345 -0.1401
  786MOL0     C 5988   1.304   6.537   3.035  0.8264  0.0902  1.1758
  786MOL0     C 5989   1.156   6.495   3.073 -0.1544  0.0860  0.0658
  786MOL0     C 5990   1.052   6.577   2.993  0.1187 -0.0278  0.9391
  786MOL0     C 5991   0.914   6.514   3.001 -0.5901  0.2263 -0.4435
  786MOL0     N 5992   0.863   6.525   3.139  0.0178  0.0318  0.1231
  786MOL0     C 5993   0.888   6.443   3.254  1.1441  0.3081  1.4775
  786MOL0     C 5994   0.813   6.497   3.345  0.9198 -0.4949 -1.0362
  786MOL0     C 5995   0.815   6.425   3.482 -0.2850  0.0037 -0.3021
  786MOL0     C 5996   0.680   6.397   3.535 -0.5347  0.2595  0.3760
  786MOL0     C 5997   0.657   6.320   3.673  0.1208 -0.3983  0.3333
  786MOL0     C 5998   0.725   6.185   3.688  0.9386 -0.7884 -0.4365
  786MOL0     O 5999   0.658   6.100   3.773 -0.0386 -0.0703 -0.3810
  786MOL0     C 6000   0.697   5.970   3.761  0.2154  0.2132  0.7906
  786MOL0     C 6001   0.600   5.880   3.733 -0.2654 -0.0328  0.1476
  786MOL0     C 6002   0.623   5.743   3.715 -0.0926  0.4870  0.8564
  786MOL0     C 6003   0.516   5.659   3.641  0.7685 -0.3845 -0.7595
  786MOL0     C 6004   0.750   5.691   3.744  0.6850 -0.3261  1.0471
  786MOL0     C 6005   0.787   5.547   3.738  0.0061  0.2801 -1.0354
  786MOL0     O 6006   0.695   5.458   3.777  0.3454 -0.5833  0.4396
  786MOL0     C 6007   0.728   5.327   3.791  0.1338 -0.3509  0.9619
  786MOL0     C 6008   0.665   5.234   3.702  0.4763  0.1055  0.4637
  786MOL0     C 6009   0.708   5.103   3.708  0.1290 -0.3155  0.1707
  786MOL0     C 6010   0.807   5.058   3.794 -0.6034  0.4746 -0.9559
  786MOL0     O 6011   0.840   4.922   3.807 -0.1615 -0.1431  0.3995
  786MOL0     C 6012   0.864   4.874   3.940  0.0027  0.4038 -0.2643
  786MOL0     C 6013   0.840   4.727   3.965  0.6188  0.8063 -0.5243
  786MOL0     C 6014   0.906   4.639   3.866 -0.3857 -0.3915  0.8779
  786MOL0     C 6015   0.899   4.486   3.911  0.0968 -0.5254  0.0391
  786MOL0     C 6016   0.957   4.394   3.793 -0.2404  0.4544  0.1060
  786MOL0     C 6017   0.931   4.246   3.829 -0.4341 -0.9368 -0.5216
  786MOL0     C 6018   0.988   4.148   3.714  0.4992 -0.3740 -0.7628
  786MOL0     C 6019   1.122   4.081   3.743 -0.4137 -0.3076 -0.3593
  786MOL0    Cl 6020   1.201   4.034   3.596 -0.0190  0.1107  0.9005
  786MOL0     C 6021   0.872   5.156   3.876  0.3933  1.1575  0.3117
  786MOL0     C 6022   0.833   5.282   3.876 -0.7644 -0.3941 -0.4506
  786MOL0     O 6023   0.910   5.530   3.717 -0.8227  0.1244 -0.7597
  786MOL0     C 6024   0.851   5.777   3.782 -0.2073  0.2002 -0.7440
  786MOL0     C 6025   0.825   5.921   3.786  0.1389 -0.6691 -0.5222
  786MOL0     N 6026   0.754   6.607   3.300  0.0333 -0.1887  0.3623
  786MOL0     N 6027   0.783   6.627   3.176  1.0860 -0.4542  0.8085
  786MOL0     C 6028   1.884   6.761   2.878 -0.3516 -0.2076  0.6689
  786MOL0     C 6029   1.992   6.830   2.830  0.2873  0.4247  1.2907
  786MOL0     C 6030   2.373   7.063   2.763  0.3950  0.5147 -0.9337
  786MOL0     C 6031   2.459   7.152   2.829 -0.3348  0.1235  0.3397
  786MOL0     C 6032   2.560   7.215   2.761 -0.2810 -1.2035 -0.6576
  786MOL0     C 6033   2.566   7.201   2.621  0.1992 -0.0894  0.0172
  786MOL0     O 6034   2.673   7.267   2.570  0.0105  0.1263 -0.4690
  786MOL0     C 6035   2.692   7.257   2.429  0.5294  0.1818 -0.3609
  786MOL0     C 6036   2.810   7.345   2.403 -0.6350  0.2732  0.2640
  786MOL0     C 6037   2.867   7.349   2.260  0.3794 -0.1925  0.5966
  786MOL0     C 6038   2.964   7.470   2.239  0.2900  0.4039  0.0021
  786MOL0     C 6039   3.011   7.477   2.095 -0.0742  0.2347 -0.2927
  786MOL0     C 6040   3.032   7.496   1.979  0.6905  0.1156  0.9961
  786MOL0     C 6041   2.476   7.117   2.559 -0.3654  0.2068 -0.1269
  786MOL0     C 6042   2.385   7.049   2.628  0.0450  0.2379  0.5928
  786MOL0     H 6043   2.256   6.697   2.972  0.1293 -2.0385  1.2246
  786MOL0     H 6044   2.086   6.560   3.073  0.2979 -1.2009 -0.7712
  786MOL0     H 6045   1.826   6.414   2.900 -0.3619 -0.1221 -1.0336
  786MOL0     H 6046   1.846   6.414   3.076  1.6606  0.3993 -1.1468
  786MOL0     H 6047   1.597   6.420   2.896  1.9762  0.2571 -1.5073
  786MOL0     H 6048   1.628   6.314   3.027  1.6747 -0.5870 -0.6133
  786MOL0     H 6049   1.616   6.488   3.195  0.6954 -4.6607 -1.4170
  786MOL0     H 6050   1.560   6.616   3.073 -2.1882  0.0847  0.9040
  786MOL0     H 6051   1.409   6.364   3.114 -2.4646  0.4525 -2.3863
  786MOL0     H 6052   1.405   6.497   3.236 -1.1008  0.4276 -0.2459
  786MOL0     H 6053   1.313   6.646   3.030 -1.9233  0.4675 -4.5803
  786MOL0     H 6054   1.318   6.493   2.936 -1.7869  0.6640  0.4835
  786MOL0     H 6055   1.141   6.389   3.055  0.7935 -0.0958  0.2667
  786MOL0     H 6056   1.139   6.520   3.179  1.0825  2.9184 -0.2963
  786MOL0     H 6057   1.051   6.680   3.029 -2.2122 -0.1663  1.4526
  786MOL0     H 6058   1.066   6.578   2.884  2.1578  1.9240  1.1447
  786MOL0     H 6059   0.925   6.416   2.953  0.1909  0.0772  0.0199
  786MOL0     H 6060   0.849   6.566   2.931  0.1132  1.8418  0.0588
  786MOL0     H 6061   0.947   6.352   3.249 -0.7216 -1.0158 -3.8463
  786MOL0     H 6062   0.866   6.329   3.469  1.9528  0.6535  2.7688
  786MOL0     H 6063   0.869   6.484   3.556  2.0155 -1.5250 -0.6891
  786MOL0     H 6064   0.614   6.356   3.458 -1.5668  1.5545  0.5240
  786MOL0     H 6065   0.658   6.503   3.553 -0.4236 -0.1569  3.3515
  786MOL0     H 6066   0.547   6.313   3.673 -0.1029  1.3629 -2.6176
  786MOL0     H 6067   0.694   6.388   3.750  5.6268 -3.5804  0.9934
  786MOL0     H 6068   0.831   6.187   3.714  0.8258 -1.4862  0.1057
  786MOL0     H 6069   0.716   6.145   3.586  1.3388  0.8349 -1.1306
  786MOL0     H 6070   0.501   5.914   3.706 -1.2984 -0.3555  3.1038
  786MOL0     H 6071   0.470   5.589   3.712  1.0974  0.2802  0.1247
  786MOL0     H 6072   0.442   5.724   3.592  1.5485  2.8587  1.9370
  786MOL0     H 6073   0.558   5.600   3.559  0.3205  0.8020 -1.8923
  786MOL0     H 6074   0.591   5.260   3.629  0.2696 -0.1841  0.5658
  786MOL0     H 6075   0.669   5.031   3.638  2.3253 -0.8179 -0.6348
  786MOL0     H 6076   0.971   4.887   3.959  0.5545 -1.8521 -1.5318
  786MOL0     H 6077   0.822   4.941   4.016 -1.8783 -2.3274  1.2732
  786MOL0     H 6078   0.884   4.700   4.061  2.2072 -0.7484 -1.6322
  786MOL0     H 6079   0.735   4.703   3.980  0.5528  1.6773  0.5648
  786MOL0     H 6080   1.010   4.670   3.860 -1.5274  3.9376 -0.7315
  786MOL0     H 6081   0.868   4.647   3.763 -0.4697  0.0040  0.9363
  786MOL0     H 6082   0.939   4.475   4.012 -1.4399  1.7013  0.9628
  786MOL0     H 6083   0.793   4.461   3.921 -0.3857  1.2173 -0.4932
  786MOL0     H 6084   1.061   4.414   3.764 -0.9734  2.5770 -1.3467
  786MOL0     H 6085   0.903   4.419   3.702  2.4469  2.0299 -1.1982
  786MOL0     H 6086   0.977   4.228   3.926  4.2024  0.7820 -2.1140
  786MOL0     H 6087   0.822   4.236   3.830 -0.7128  1.4509  1.1299
  786MOL0     H 6088   1.018   4.226   3.643 -1.1960  1.7700  0.7374
  786MOL0     H 6089   0.911   4.078   3.680  1.7067 -2.0387 -0.1777
  786MOL0     H 6090   1.109   3.998   3.813  3.9294 -0.3933  0.6550
  786MOL0     H 6091   1.188   4.146   3.803 -2.9725  1.3603  0.8231
  786MOL0     H 6092   0.949   5.121   3.944  0.1439 -2.1073 -0.9167
  786MOL0     H 6093   0.884   5.352   3.943 -1.0081  0.3430 -1.0243
  786MOL0     H 6094   0.952   5.746   3.808  0.7097  0.0961 -3.9359
  786MOL0     H 6095   0.903   5.991   3.816  1.5684 -2.0729 -0.8549
  786MOL0     H 6096   1.781   6.792   2.862 -0.1751 -0.8132 -2.0439
  786MOL0     H 6097   1.971   6.901   2.751  1.4293 -1.0629 -0.4063
  786MOL0     H 6098   2.443   7.159   2.937 -1.0464 -0.4853  0.2859
  786MOL0     H 6099   2.627   7.271   2.825 -0.4031 -2.5096  0.6851
  786MOL0     H 6100   2.715   7.158   2.386 -1.6099  0.9613 -3.6976
  786MOL0     H 6101   2.605   7.297   2.378  0.1306  0.2265  0.3509
  786MOL0     H 6102   2.886   7.325   2.478  0.4488  5.5480  0.9427
  786MOL0     H 6103   2.801   7.449   2.436  4.7792  0.0972  3.3710
  786MOL0     H 6104   2.788   7.352   2.185  0.7501  0.0348  0.2060
  786MOL0     H 6105   2.931   7.261   2.246  1.5921  0.6690  0.5327
  786MOL0     H 6106   3.053   7.447   2.298  0.9172 -2.4511 -1.8803
  786MOL0     H 6107   2.913   7.566   2.253 -1.8979 -0.8569  1.1201
  786MOL0     H 6108   3.048   7.509   1.874 -2.2114 -0.6602  0.3465
  786MOL0     H 6109   2.492   7.092   2.454 -0.5544  1.2046 -0.4034
  786MOL0     H 6110   2.332   6.973   2.572  0.3539  1.2751 -1.1699
  787MOL0     O 6111   8.833   5.779   8.571  0.0508  0.2231  0.0485
  787MOL0     C 6112   8.948   5.815   8.604 -0.2347 -0.3377 -0.7391
  787MOL0     O 6113   9.038   5.736   8.668 -0.0431 -0.4127  0.0648
  787MOL0     C 6114   9.036   5.601   8.651 -0.5701 -0.4331 -0.4817
  787MOL0     C 6115   9.107   5.533   8.743 -0.4730  0.6777 -1.4040
  787MOL0     C 6116   9.125   5.397   8.727  0.6314  0.7510  0.4483
  787MOL0     C 6117   9.056   5.330   8.621  0.5510 -0.1851 -0.0486
  787MOL0     O 6118   9.076   5.195   8.629 -0.5421 -0.1142  0.2466
  787MOL0     C 6119   9.052   5.110   8.527  0.3539  0.3280  0.4580
  787MOL0     C 6120   9.169   5.103   8.419  0.8205 -0.2012 -0.2554
  787MOL0     C 6121   9.150   4.989   8.320  0.5733  0.4278 -0.0110
  787MOL0     C 6122   9.071   5.031   8.195  0.3062 -0.1381 -0.0752
  787MOL0     C 6123   9.124   4.956   8.072  0.1527 -0.4104 -0.1182
  787MOL0     C 6124   9.255   5.017   8.017 -0.4345 -0.0748  0.0551
  787MOL0     C 6125   9.303   4.937   7.893  0.7615 -0.4052  0.4292
  787MOL0     C 6126   9.202   4.937   7.780  0.0990  0.1393 -0.5966
  787MOL0     N 6127   9.159   5.066   7.732 -0.2820 -0.1867  0.5690
  787MOL0     C 6128   9.229   5.142   7.643  0.6919  0.3409  0.4451
  787MOL0     C 6129   9.144   5.246   7.626 -0.1724  0.2592  0.5676
  787MOL0     C 6130   9.171   5.357   7.533 -0.3088 -0.1918  0.7607
  787MOL0     C 6131   9.149   5.325   7.387 -0.0518 -0.6926 -0.5519
  787MOL0     C 6132   8.999   5.296   7.352  0.8061 -0.0372  0.0044
  787MOL0     C 6133   8.990   5.228   7.210  0.1932  0.0683 -0.0286
  787MOL0     O 6134   9.030   5.088   7.214 -0.1501  0.3837  0.6994
  787MOL0     C 6135   9.043   5.022   7.088 -1.0804 -0.9356  0.0370
  787MOL0     C 6136   8.959   4.913   7.060  0.0879 -0.6872 -0.3604
  787MOL0     C 6137   8.970   4.838   6.943 -0.0218 -0.0221 -0.2677
  787MOL0     C 6138   8.879   4.727   6.934  0.4554  0.3903 -0.6132
  787MOL0     C 6139   9.071   4.872   6.848  0.8457 -0.2484  0.4133
  787MOL0     C 6140   9.081   4.792   6.724  0.8878  0.0366 -0.1145
  787MOL0     O 6141   9.212   4.776   6.690 -0.3278  0.2549  0.2896
  787MOL0     C 6142   9.233   4.711   6.564 -0.0310 -0.8480  0.0673
  787MOL0     C 6143   9.223   4.571   6.552 -0.0085 -0.4760 -0.6295
  787MOL0     C 6144   9.255   4.510   6.427 -0.1763 -0.2880 -0.4380
  787MOL0     C 6145   9.298   4.587   6.320 -0.6281 -0.3974 -0.1042
  787MOL0     O 6146   9.297   4.522   6.198  0.1328 -0.0592 -0.1459
  787MOL0     C 6147   9.291   4.610   6.092  0.2246 -0.3578  0.5792
  787MOL0     C 6148   9.262   4.523   5.973  0.2246 -0.3575 -0.9672
  787MOL0     C 6149   9.231   4.606   5.855  0.2234  0.5512  0.8281
  787MOL0     C 6150   9.284   4.556   5.720  0.2289  0.4731 -0.3290
  787MOL0     C 6151   9.228   4.633   5.602 -0.9121  0.9082 -0.8344
  787MOL0     C 6152   9.277   4.774   5.600  0.3260 -0.9307  0.3777
  787MOL0     C 6153   9.261   4.824   5.458 -0.1967 -0.3365  0.3007
  787MOL0     C 6154   9.323   4.958   5.433 -0.0291 -0.5642 -0.6691
  787MOL0    Cl 6155   9.258   5.079   5.542 -0.0992  0.3941 -0.0966
  787MOL0     C 6156   9.313   4.728   6.339 -0.0167  0.1733  0.7199
  787MOL0     C 6157   9.285   4.795   6.463 -0.5445  0.8773  0.6627
  787MOL0     O 6158   8.982   4.746   6.669 -1.0603  0.8685 -0.4032
  787MOL0     C 6159   9.147   4.992   6.867  0.4527  0.1329  0.0267
  787MOL0     C 6160   9.137   5.064   6.984 -0.2396  0.4356 -0.4382
  787MOL0     N 6161   9.025   5.225   7.686 -0.3623 -0.0305  0.8703
  787MOL0     N 6162   9.044   5.121   7.759  0.5111  0.1954  0.5353
  787MOL0     C 6163   9.000   5.402   8.519 -0.0191  0.3698 -0.0357
  787MOL0     C 6164   8.997   5.541   8.536 -0.3026  0.2482  0.5284
  787MOL0     C 6165   8.963   5.955   8.591  0.1743  0.0058 -0.5860
  787MOL0     C 6166   8.895   6.034   8.492 -0.1355 -1.2472  0.8362
  787MOL0     C 6167   8.908   6.177   8.486  0.2198 -0.8298 -1.0542
  787MOL0     C 6168   8.973   6.241   8.589 -1.3450  0.3115 -0.9014
  787MOL0     O 6169   8.987   6.378   8.613 -0.6248 -0.2093  0.6337
  787MOL0     C 6170   8.917   6.471   8.527 -0.8126 -0.3307 -0.1513
  787MOL0     C 6171   8.767   6.474   8.571  0.5523  0.1115  0.1217
  787MOL0     C 6172   8.668   6.504   8.451  0.1378 -0.7401 -0.2884
  787MOL0     C 6173   8.685   6.638   8.386 -0.0160  0.4089 -0.5812
  787MOL0     C 6174   8.664   6.748   8.484  0.3156  0.9231  0.1060
  787MOL0     C 6175   8.664   6.846   8.553  0.6978 -0.0061 -0.7437
  787MOL0     C 6176   9.038   6.162   8.692  0.2696 -0.8691 -0.4311
  787MOL0     C 6177   9.032   6.026   8.687  0.1155 -0.0598  0.1018
  787MOL0     H 6178   9.151   5.588   8.826  2.2412 -0.5576 -1.9082
  787MOL0     H 6179   9.178   5.339   8.802 -0.1181  1.1115  1.2663
  787MOL0     H 6180   9.045   5.015   8.581 -1.1469  0.7075  0.9825
  787MOL0     H 6181   8.960   5.137   8.476 -0.6412 -0.2840  1.8769
  787MOL0     H 6182   9.163   5.201   8.369  1.3135  0.9554  1.8208
  787MOL0     H 6183   9.265   5.114   8.471  0.1341  2.0699  0.6941
  787MOL0     H 6184   9.242   4.941   8.288 -0.2162 -1.4006  0.3158
  787MOL0     H 6185   9.097   4.917   8.384  0.7164  0.5265  0.2196
  787MOL0     H 6186   8.966   5.018   8.223  0.5078  2.3283  2.2929
  787MOL0     H 6187   9.086   5.139   8.191  0.7329 -0.1316  1.3003
  787MOL0     H 6188   9.130   4.848   8.088  0.4684 -0.8077 -2.6169
  787MOL0     H 6189   9.046   4.964   7.996 -2.4793 -0.1605  2.3974
  787MOL0     H 6190   9.231   5.118   7.982  0.0655 -0.1321 -0.4605
  787MOL0     H 6191   9.329   5.033   8.096 -0.5692  2.5890 -0.2703
  787MOL0     H 6192   9.398   4.969   7.851  0.2008 -0.7344 -1.1972
  787MOL0     H 6193   9.321   4.833   7.923  1.1247 -0.4463  0.0808
  787MOL0     H 6194   9.113   4.878   7.804 -0.2413  0.7381 -0.3726
  787MOL0     H 6195   9.242   4.884   7.693 -0.9036  0.9837 -1.5975
  787MOL0     H 6196   9.324   5.120   7.595 -0.4763 -2.2347 -0.8411
  787MOL0     H 6197   9.119   5.449   7.563 -0.1540  0.0497  0.3066
  787MOL0     H 6198   9.277   5.385   7.541 -0.2936 -0.4019  1.3617
  787MOL0     H 6199   9.211   5.238   7.363  1.6104  1.0088 -2.9524
  787MOL0     H 6200   9.186   5.408   7.326 -2.7992  0.0767 -1.2766
  787MOL0     H 6201   8.948   5.392   7.352 -0.3938 -0.5069 -3.8673
  787MOL0     H 6202   8.961   5.226   7.427 -0.3230  1.5833  1.0051
  787MOL0     H 6203   9.042   5.280   7.128  3.3814 -3.6137 -0.6148
  787MOL0     H 6204   8.889   5.215   7.171  0.7515 -1.7663 -0.9524
  787MOL0     H 6205   8.896   4.895   7.146 -2.8917  0.6444 -2.1205
  787MOL0     H 6206   8.821   4.704   7.024 -0.2543 -0.1262 -1.1824
  787MOL0     H 6207   8.812   4.752   6.851 -0.9586  2.8121  1.1706
  787MOL0     H 6208   8.931   4.633   6.912 -0.0970 -0.4541  1.4868
  787MOL0     H 6209   9.180   4.524   6.639  0.1593 -0.3173 -0.4608
  787MOL0     H 6210   9.233   4.405   6.410  0.8056 -0.6455  0.4049
  787MOL0     H 6211   9.214   4.686   6.109  2.3885  1.3663  3.6025
  787MOL0     H 6212   9.390   4.656   6.081 -0.5315  1.9714  2.7473
  787MOL0     H 6213   9.345   4.456   5.950 -0.5819 -0.9258 -2.3080
  787MOL0     H 6214   9.175   4.460   5.990  1.5803 -2.0267  0.1797
  787MOL0     H 6215   9.277   4.705   5.865  3.2172 -0.4121 -1.7636
  787MOL0     H 6216   9.125   4.632   5.849  0.9547  3.4662 -1.2986
  787MOL0     H 6217   9.393   4.565   5.720  0.4107 -0.3607 -3.5377
  787MOL0     H 6218   9.258   4.450   5.712 -1.6841  0.6458  2.3163
  787MOL0     H 6219   9.119   4.630   5.592 -1.1154  0.5266  1.0350
  787MOL0     H 6220   9.265   4.569   5.521  2.0892 -0.7005  1.5995
  787MOL0     H 6221   9.219   4.836   5.669  1.0053 -0.9000  0.9365
  787MOL0     H 6222   9.383   4.784   5.623  0.0772  0.2084  1.0777
  787MOL0     H 6223   9.157   4.855   5.445  0.2131  1.4407  0.9602
  787MOL0     H 6224   9.286   4.748   5.383 -0.4811 -2.0759  1.9036
  787MOL0     H 6225   9.301   4.986   5.330 -0.6854  0.3986 -0.2807
  787MOL0     H 6226   9.431   4.961   5.450 -0.2843  3.2746  1.2544
  787MOL0     H 6227   9.327   4.800   6.259  0.9284  0.9947  1.5983
  787MOL0     H 6228   9.275   4.903   6.477 -0.7371  1.0883 -0.9421
  787MOL0     H 6229   9.220   5.019   6.791  0.9672 -3.1079 -0.7840
  787MOL0     H 6230   9.205   5.147   6.996 -0.6101  0.7828 -0.7155
  787MOL0     H 6231   8.976   5.352   8.426 -0.6660  1.0294 -0.2346
  787MOL0     H 6232   8.957   5.604   8.457 -2.0942  0.6585  1.7013
  787MOL0     H 6233   8.826   5.995   8.419 -2.3095  1.4079  1.3393
  787MOL0     H 6234   8.867   6.236   8.404 -0.0669 -0.2570 -0.5036
  787MOL0     H 6235   8.945   6.576   8.541 -0.2406 -0.5592  0.4586
  787MOL0     H 6236   8.918   6.445   8.421  1.0738 -1.8444  0.1817
  787MOL0     H 6237   8.763   6.528   8.666  0.6898  0.4209 -0.0465
  787MOL0     H 6238   8.749   6.374   8.613 -1.5898 -0.0605 -1.1102
  787MOL0     H 6239   8.569   6.489   8.496  0.4511  1.8943  1.4424
  787MOL0     H 6240   8.665   6.426   8.374 -2.3128  0.0615 -1.0911
  787MOL0     H 6241   8.606   6.651   8.311 -0.2706 -0.5629 -0.4861
  787MOL0     H 6242   8.782   6.653   8.337 -0.1715 -1.7413 -1.6498
  787MOL0     H 6243   8.674   6.921   8.629  3.5078 -0.8519 -0.1598
  787MOL0     H 6244   9.068   6.225   8.775 -2.1040 -0.5142  0.2423
  787MOL0     H 6245   9.090   5.985   8.768  1.5421  3.5600  1.1076
  788MOL0     O 6246   4.105   8.404   9.969 -0.1332 -0.0550 -0.2226
  788MOL0     C 6247   4.167   8.388   9.866  0.7727  0.0216  0.5767
  788MOL0     O 6248   4.156   8.465   9.761 -0.1774 -1.1980  0.7909
  788MOL0     C 6249   4.098   8.593   9.767  0.1787 -0.2566 -0.1587
  788MOL0     C 6250   4.030   8.652   9.877  0.3702 -1.0589 -0.7076
  788MOL0     C 6251   3.971   8.777   9.885 -0.0504 -0.4415 -0.9657
  788MOL0     C 6252   3.968   8.862   9.774 -1.0455  0.6394 -0.6071
  788MOL0     O 6253   3.915   8.985   9.775 -0.0899  1.0366 -0.0394
  788MOL0     C 6254   3.985   9.074   9.685 -0.2513  0.3873 -0.7454
  788MOL0     C 6255   3.925   9.213   9.699  0.3663 -1.2107 -0.5188
  788MOL0     C 6256   3.918   9.272   9.840  0.1479  0.7171  0.2377
  788MOL0     C 6257   3.854   9.410   9.834 -0.0425  1.0713 -0.4116
  788MOL0     C 6258   3.926   9.524   9.759 -0.0905 -1.0474  0.2637
  788MOL0     C 6259   3.862   9.662   9.758  0.4842  0.5032 -0.1971
  788MOL0     C 6260   3.736   9.651   9.670 -0.8558 -0.5410  0.3378
  788MOL0     C 6261   3.712   9.786   9.599 -0.4092 -0.5022  0.2118
  788MOL0     N 6262   3.587   9.799   9.521  0.0154 -0.3876  0.6689
  788MOL0     C 6263   3.456   9.735   9.511  0.1289 -0.6500 -0.1206
  788MOL0     C 6264   3.381   9.817   9.426  0.1050 -0.4086 -0.8765
  788MOL0     C 6265   3.239   9.803   9.398 -0.1662 -0.3432  0.4600
  788MOL0     C 6266   3.209   9.662   9.346  0.3544 -0.1571 -0.4959
  788MOL0     C 6267   3.059   9.601   9.374 -0.5735 -0.4139  0.2279
  788MOL0     C 6268   3.031   9.613   9.527  0.7484  0.5767 -0.3051
  788MOL0     O 6269   3.130   9.558   9.612 -0.0592 -0.6182  0.0199
  788MOL0     C 6270   3.165   9.422   9.616  0.2190 -0.2952 -0.3991
  788MOL0     C 6271   3.277   9.391   9.692  0.0371 -1.1609  0.4065
  788MOL0     C 6272   3.326   9.262   9.706  0.9012  0.4927  0.1850
  788MOL0     C 6273   3.456   9.252   9.779 -0.0676  0.1132  0.0060
  788MOL0     C 6274   3.254   9.154   9.641  0.1860  0.0081  0.3212
  788MOL0     C 6275   3.290   9.008   9.640 -0.0616  0.5170  0.2462
  788MOL0     O 6276   3.222   8.926   9.542 -0.9350 -1.1588 -0.6519
  788MOL0     C 6277   3.218   8.794   9.556  0.4512 -1.3276 -0.6066
  788MOL0     C 6278   3.217   8.718   9.436 -0.2834 -0.6266  0.2937
  788MOL0     C 6279   3.229   8.580   9.444 -0.1152  0.4466  0.2069
  788MOL0     C 6280   3.252   8.513   9.558 -0.3967  0.2247 -1.3070
  788MOL0     O 6281   3.262   8.379   9.551  0.7604  0.1115  0.2234
  788MOL0     C 6282   3.243   8.290   9.660 -0.4230 -0.0204 -1.7744
  788MOL0     C 6283   3.262   8.147   9.621 -0.5241  0.3425 -0.1480
  788MOL0     C 6284   3.168   8.104   9.506 -0.4234 -0.2006 -0.4398
  788MOL0     C 6285   3.159   7.952   9.502  0.2096  0.2551  0.3062
  788MOL0     C 6286   3.065   7.911   9.393  0.3683  0.1050  0.6686
  788MOL0     C 6287   3.034   7.756   9.405  0.8794 -0.5129 -0.1255
  788MOL0     C 6288   2.923   7.729   9.308  0.0718  0.3902 -0.5210
  788MOL0     C 6289   2.871   7.580   9.303 -0.3175 -0.1514 -0.4298
  788MOL0    Cl 6290   2.717   7.550   9.214  0.1137 -0.1549 -0.4730
  788MOL0     C 6291   3.232   8.589   9.671  0.4003 -0.3771 -0.3358
  788MOL0     C 6292   3.217   8.730   9.678 -0.4685 -0.2105 -0.2710
  788MOL0     O 6293   3.386   8.972   9.704  0.3423 -0.2439 -0.0570
  788MOL0     C 6294   3.125   9.179   9.581 -1.0886 -0.0099  0.0452
  788MOL0     C 6295   3.098   9.313   9.560  0.1729 -0.4867 -0.3815
  788MOL0     N 6296   3.466   9.919   9.382  0.2869 -0.3536  0.1850
  788MOL0     N 6297   3.583   9.911   9.444  0.9390 -0.1913  0.0298
  788MOL0     C 6298   4.029   8.804   9.655 -0.2998 -0.6409  0.7526
  788MOL0     C 6299   4.086   8.669   9.651 -1.2534  0.1867  0.3161
  788MOL0     C 6300   4.222   8.252   9.853 -0.0493 -0.3662 -0.0434
  788MOL0     C 6301   4.265   8.197   9.730 -0.1864  0.0306  0.0090
  788MOL0     C 6302   4.309   8.064   9.721 -0.2497  0.0771 -0.2740
  788MOL0     C 6303   4.310   7.978   9.838  0.1131 -0.9487 -0.1298
  788MOL0     O 6304   4.366   7.850   9.829 -0.1461 -0.6004  0.3332
  788MOL0     C 6305   4.350   7.766   9.936  0.2600  0.1031 -0.4941
  788MOL0     C 6306   4.395   7.623   9.896 -0.2012  0.5852  0.0158
  788MOL0     C 6307   4.287   7.557   9.798  0.2971  0.0544 -0.1563
  788MOL0     C 6308   4.292   7.408   9.816  0.5411  0.6755 -0.0337
  788MOL0     C 6309   4.418   7.350   9.760  0.4223  0.0344 -1.0201
  788MOL0     C 6310   4.522   7.318   9.702  0.7346 -0.0235  0.5898
  788MOL0     C 6311   4.263   8.036   9.956  0.6469 -0.5389  0.1499
  788MOL0     C 6312   4.217   8.164   9.960  0.6684 -0.1897 -0.7247
  788MOL0     H 6313   4.001   8.595   9.965  2.7970 -1.0222  0.1743
  788MOL0     H 6314   3.911   8.811   9.969 -0.5685 -3.5915  0.0916
  788MOL0     H 6315   4.092   9.079   9.709  0.5507 -2.4056 -3.1931
  788MOL0     H 6316   3.987   9.041   9.581  0.2603  0.7984 -0.8720
  788MOL0     H 6317   3.978   9.281   9.632  2.1665 -1.1094  0.9625
  788MOL0     H 6318   3.822   9.207   9.662 -0.1907  1.5978  0.3915
  788MOL0     H 6319   3.848   9.217   9.904  2.1914 -0.2522  1.7616
  788MOL0     H 6320   4.014   9.271   9.891  1.3892  1.7476 -1.9406
  788MOL0     H 6321   3.753   9.395   9.796  0.1313 -2.7928  0.1895
  788MOL0     H 6322   3.846   9.444   9.938 -5.2929 -0.3918 -0.0379
  788MOL0     H 6323   4.028   9.532   9.799  0.0995  0.8577 -0.4579
  788MOL0     H 6324   3.934   9.493   9.654  0.1068  1.0492 -0.3900
  788MOL0     H 6325   3.837   9.683   9.862 -0.0182  0.1492 -0.2407
  788MOL0     H 6326   3.936   9.736   9.727  0.5864  1.4922  2.2529
  788MOL0     H 6327   3.760   9.579   9.592  0.6846  2.0605 -1.7442
  788MOL0     H 6328   3.646   9.619   9.724 -2.6658  2.5102 -0.6107
  788MOL0     H 6329   3.800   9.796   9.534  0.8797 -0.0859  1.9344
  788MOL0     H 6330   3.708   9.864   9.676  1.5203 -1.6723  1.6091
  788MOL0     H 6331   3.418   9.655   9.573 -3.3545 -0.2139 -1.4603
  788MOL0     H 6332   3.177   9.819   9.486 -1.9764 -2.0911 -0.4245
  788MOL0     H 6333   3.221   9.875   9.318  0.6607  0.9512  1.4005
  788MOL0     H 6334   3.270   9.586   9.396 -0.6979  0.1051  1.2906
  788MOL0     H 6335   3.235   9.661   9.240 -1.5080 -1.6825 -1.0009
  788MOL0     H 6336   3.056   9.496   9.343  1.3650 -1.2049  2.4359
  788MOL0     H 6337   2.986   9.653   9.312 -0.2637 -0.9971 -0.6461
  788MOL0     H 6338   2.937   9.558   9.536 -0.4669  2.1671 -2.3606
  788MOL0     H 6339   3.018   9.718   9.555 -1.1359  0.9600 -2.3023
  788MOL0     H 6340   3.318   9.478   9.743 -4.2475  2.8221 -2.0736
  788MOL0     H 6341   3.536   9.201   9.725 -1.3580  0.7612 -2.6765
  788MOL0     H 6342   3.492   9.346   9.823 -2.8815  0.0535  2.8032
  788MOL0     H 6343   3.427   9.194   9.867  1.3908  0.4436  0.7418
  788MOL0     H 6344   3.214   8.768   9.339 -0.3689 -0.7792  0.2181
  788MOL0     H 6345   3.238   8.511   9.361  0.7583 -1.7855  2.0685
  788MOL0     H 6346   3.329   8.297   9.727 -2.7350 -1.0014  1.5249
  788MOL0     H 6347   3.151   8.319   9.710  1.3779  1.6784  0.8071
  788MOL0     H 6348   3.364   8.140   9.583  0.1465  2.6041  1.0481
  788MOL0     H 6349   3.252   8.074   9.702 -1.8670 -0.7793 -1.2562
  788MOL0     H 6350   3.211   8.143   9.413 -0.3491 -1.7607 -1.0881
  788MOL0     H 6351   3.067   8.142   9.517 -1.0635 -1.7672 -0.6206
  788MOL0     H 6352   3.252   7.898   9.485 -0.2358 -0.9717  1.5666
  788MOL0     H 6353   3.130   7.907   9.598  1.3085 -3.2625 -0.8554
  788MOL0     H 6354   3.097   7.933   9.291  0.0837 -1.8953  0.1162
  788MOL0     H 6355   2.973   7.966   9.414  0.5227  1.0449 -0.9366
  788MOL0     H 6356   3.126   7.699   9.387 -0.0997 -1.5203 -2.3996
  788MOL0     H 6357   2.998   7.753   9.508 -0.8723 -1.9657 -0.7161
  788MOL0     H 6358   2.932   7.760   9.204 -0.6083  1.3472 -0.3033
  788MOL0     H 6359   2.834   7.783   9.343  1.8016  0.4657  4.5513
  788MOL0     H 6360   2.869   7.550   9.408 -1.5674  1.7789  0.1613
  788MOL0     H 6361   2.952   7.531   9.249  3.3745  2.7906  1.9193
  788MOL0     H 6362   3.234   8.545   9.770  2.9587  1.0018  0.3191
  788MOL0     H 6363   3.212   8.779   9.775 -2.2888 -0.4106 -0.2301
  788MOL0     H 6364   3.043   9.117   9.546 -1.4687  0.5627 -0.0919
  788MOL0     H 6365   2.999   9.327   9.517  1.1595 -3.2972 -3.9737
  788MOL0     H 6366   4.025   8.852   9.558 -1.9467  1.7163  1.8932
  788MOL0     H 6367   4.134   8.645   9.556  0.8049  1.9167  0.8386
  788MOL0     H 6368   4.276   8.271   9.652 -0.3718 -0.0341 -0.0792
  788MOL0     H 6369   4.360   8.042   9.627 -0.9927 -0.3442 -0.5834
  788MOL0     H 6370   4.404   7.784  10.029 -1.6075  1.8131  0.3449
  788MOL0     H 6371   4.243   7.773   9.957  0.4192 -0.9752  0.8018
  788MOL0     H 6372   4.390   7.567   9.990 -2.9711  0.7487  0.0468
  788MOL0     H 6373   4.501   7.628   9.868  0.1405  1.2040  1.3459
  788MOL0     H 6374   4.306   7.580   9.693  2.8333 -1.3624 -0.1047
  788MOL0     H 6375   4.193   7.593   9.840  1.3058  0.7652  1.6567
  788MOL0     H 6376   4.223   7.355   9.750 -2.4269  1.1296  2.5354
  788MOL0     H 6377   4.268   7.381   9.919 -1.3004  2.7756  0.1625
  788MOL0     H 6378   4.610   7.265   9.674  0.2145  0.0687 -1.3758
  788MOL0     H 6379   4.260   7.993  10.056 -3.9055 -1.9418 -0.3603
  788MOL0     H 6380   4.173   8.198  10.053 -0.8460  0.7778 -1.7533
  789MOL0     O 6381   6.035   2.642   0.662 -0.1635  0.0405  0.0379
  789MOL0     C 6382   5.967   2.681   0.564  0.2299 -0.1988 -0.4189
  789MOL0     O 6383   5.831   2.682   0.546 -0.1673  0.9354  0.0434
  789MOL0     C 6384   5.760   2.630   0.650  0.5886  0.7603  0.0757
  789MOL0     C 6385   5.683   2.516   0.622  0.7829  0.0876  0.1174
  789MOL0     C 6386   5.598   2.461   0.718 -0.2155  0.6014 -0.6319
  789MOL0     C 6387   5.603   2.521   0.849 -0.0787  0.3341 -0.2695
  789MOL0     O 6388   5.504   2.488   0.939 -0.5923 -1.1178 -0.2573
  789MOL0     C 6389   5.430   2.363   0.937  0.5196 -0.3998  0.9483
  789MOL0     C 6390   5.372   2.338   1.084  0.7039  0.6378  0.8483
  789MOL0     C 6391   5.470   2.298   1.196  0.0347  0.3685  0.2683
  789MOL0     C 6392   5.540   2.415   1.267  0.3518 -0.3949 -1.0343
  789MOL0     C 6393   5.645   2.362   1.358  0.6198  0.0629 -0.6612
  789MOL0     C 6394   5.686   2.463   1.470  0.6100 -0.3531 -0.2133
  789MOL0     C 6395   5.747   2.595   1.412 -1.0925  0.1882 -1.3570
  789MOL0     C 6396   5.896   2.584   1.369  0.6856 -0.0213 -0.8547
  789MOL0     N 6397   5.962   2.711   1.334  0.5664  0.6951 -0.6340
  789MOL0     C 6398   5.931   2.779   1.216 -0.4695  0.7371  0.4459
  789MOL0     C 6399   6.031   2.868   1.220 -0.3731 -0.1436 -0.0686
  789MOL0     C 6400   6.064   2.954   1.101  0.1608  0.3021  0.2339
  789MOL0     C 6401   6.083   2.875   0.975  0.7502 -0.0961 -0.7270
  789MOL0     C 6402   6.145   2.950   0.857 -0.3924  0.3636 -0.6005
  789MOL0     C 6403   6.053   3.045   0.792  0.5701 -0.6340  0.1051
  789MOL0     O 6404   6.114   3.176   0.791  0.3854 -0.0072  0.1149
  789MOL0     C 6405   6.209   3.205   0.697 -0.1241  0.2641  0.9088
  789MOL0     C 6406   6.256   3.334   0.682 -0.1449 -0.6580 -0.2253
  789MOL0     C 6407   6.357   3.377   0.584  0.5601 -0.3181 -0.1373
  789MOL0     C 6408   6.407   3.516   0.576 -0.1168 -0.2184 -0.2126
  789MOL0     C 6409   6.417   3.271   0.508  0.2534  0.4008 -0.5657
  789MOL0     C 6410   6.531   3.289   0.410 -0.3923  0.5367 -0.2730
  789MOL0     O 6411   6.561   3.412   0.368 -0.8299 -0.9087 -0.5333
  789MOL0     C 6412   6.635   3.440   0.256 -0.2427 -0.6919  1.0224
  789MOL0     C 6413   6.698   3.569   0.251 -0.4788  0.0615  0.1038
  789MOL0     C 6414   6.750   3.613   0.137  0.3019 -0.2907  0.6889
  789MOL0     C 6415   6.780   3.529   0.036  0.0571 -0.3956  1.2578
  789MOL0     O 6416   6.859   3.583  -0.066  0.2361  0.5498 -0.0323
  789MOL0     C 6417   6.889   3.497  -0.184 -0.7344  0.2484 -0.1257
  789MOL0     C 6418   7.010   3.560  -0.252 -0.5493 -0.7484 -0.3593
  789MOL0     C 6419   6.980   3.701  -0.288 -0.8630 -0.0392  0.6082
  789MOL0     C 6420   7.062   3.752  -0.413  0.0034 -0.3582  0.1109
  789MOL0     C 6421   6.995   3.874  -0.483  0.1185  0.2496 -0.0094
  789MOL0     C 6422   7.003   4.005  -0.409  0.0091 -0.1208 -0.1489
  789MOL0     C 6423   6.895   4.105  -0.461  0.7446 -0.3772  0.0603
  789MOL0     C 6424   6.833   4.184  -0.361 -1.2125 -0.2134  0.3205
  789MOL0    Cl 6425   6.761   4.075  -0.228  0.0370 -0.0108  0.4912
  789MOL0     C 6426   6.722   3.401   0.037 -0.9181  0.1309 -0.1093
  789MOL0     C 6427   6.647   3.364   0.144  0.3680 -0.4597 -0.7342
  789MOL0     O 6428   6.588   3.189   0.376  0.9619 -0.1847  0.0731
  789MOL0     C 6429   6.366   3.141   0.524  0.0618 -0.1559 -0.1332
  789MOL0     C 6430   6.264   3.113   0.606 -0.1474  0.3789 -0.8735
  789MOL0     N 6431   6.111   2.852   1.333  0.0489  0.7408 -0.0155
  789MOL0     N 6432   6.057   2.768   1.409  0.4935 -0.1392  0.8392
  789MOL0     C 6433   5.689   2.632   0.873 -0.0179 -0.9636 -0.1018
  789MOL0     C 6434   5.769   2.690   0.778  0.1436  0.0278 -0.2585
  789MOL0     C 6435   6.056   2.747   0.451 -0.3600  0.5739  0.5922
  789MOL0     C 6436   6.187   2.714   0.423 -0.1408 -0.7609 -0.7126
  789MOL0     C 6437   6.260   2.779   0.327 -0.4995  0.3775 -0.1333
  789MOL0     C 6438   6.207   2.881   0.250  0.2963 -0.6792 -0.1357
  789MOL0     O 6439   6.281   2.950   0.160 -0.1459  0.2935 -0.0658
  789MOL0     C 6440   6.415   2.901   0.144 -0.1950 -0.5468 -0.9191
  789MOL0     C 6441   6.491   2.996   0.059 -0.7391 -0.5516  0.4945
  789MOL0     C 6442   6.642   2.952   0.046  0.6538 -0.2638 -0.4693
  789MOL0     C 6443   6.691   2.999  -0.092  0.5062 -0.0271  1.2157
  789MOL0     C 6444   6.830   2.959  -0.112  0.0838 -0.1921  0.2012
  789MOL0     C 6445   6.939   2.931  -0.154 -0.4534  0.0839  0.0766
  789MOL0     C 6446   6.075   2.916   0.266  0.5784  0.3628 -0.0141
  789MOL0     C 6447   6.009   2.850   0.367  0.2333 -0.8236  0.3617
  789MOL0     H 6448   5.692   2.469   0.524 -1.8291  1.9714 -1.1534
  789MOL0     H 6449   5.534   2.374   0.708  1.1030 -0.8486  2.3403
  789MOL0     H 6450   5.351   2.383   0.864  0.4961  4.1509  1.9537
  789MOL0     H 6451   5.492   2.281   0.900 -1.2396 -0.6094 -1.7646
  789MOL0     H 6452   5.331   2.435   1.113 -1.6970  1.3702 -3.9909
  789MOL0     H 6453   5.293   2.262   1.078  0.4204  0.9097  1.1374
  789MOL0     H 6454   5.407   2.245   1.269 -1.4044  1.4827 -0.1155
  789MOL0     H 6455   5.534   2.217   1.160  0.1565 -1.3327  3.8354
  789MOL0     H 6456   5.591   2.483   1.198  0.5414  2.5460  1.7695
  789MOL0     H 6457   5.464   2.475   1.318  2.9608 -0.2426  3.2012
  789MOL0     H 6458   5.601   2.285   1.421 -1.3620  2.3323  0.9045
  789MOL0     H 6459   5.720   2.305   1.302  1.8730  0.6879  0.3237
  789MOL0     H 6460   5.599   2.478   1.534  0.7641  0.0513 -0.0963
  789MOL0     H 6461   5.752   2.405   1.536 -1.0723 -1.7214  0.3211
  789MOL0     H 6462   5.699   2.629   1.320 -0.8046 -3.1704 -2.9026
  789MOL0     H 6463   5.744   2.672   1.490 -1.3257  0.0177 -1.1961
  789MOL0     H 6464   5.906   2.517   1.283  1.4930 -1.9188  0.6222
  789MOL0     H 6465   5.949   2.527   1.446  0.0342  2.1600  1.3155
  789MOL0     H 6466   5.859   2.774   1.135  3.9152  1.2599 -3.9003
  789MOL0     H 6467   5.986   3.031   1.087  1.9502  2.0945 -0.2995
  789MOL0     H 6468   6.157   3.009   1.118  0.6799 -0.6739  0.5751
  789MOL0     H 6469   5.985   2.834   0.952 -0.9087  0.8272  3.7236
  789MOL0     H 6470   6.152   2.795   1.000  0.6404  0.6594  2.4313
  789MOL0     H 6471   6.149   2.870   0.783 -0.3574  1.3021 -1.6574
  789MOL0     H 6472   6.245   2.985   0.883 -0.1762 -0.0658 -0.8544
  789MOL0     H 6473   5.958   3.048   0.847  1.4645 -1.8479  1.7714
  789MOL0     H 6474   6.018   3.020   0.691 -2.4885 -0.4076  1.0051
  789MOL0     H 6475   6.206   3.399   0.754  3.3282  0.1751  1.6381
  789MOL0     H 6476   6.356   3.582   0.647 -2.3950 -2.7125  0.6536
  789MOL0     H 6477   6.510   3.521   0.610 -0.7156  0.2270  1.6607
  789MOL0     H 6478   6.400   3.561   0.477  2.5263 -1.8156 -1.2312
  789MOL0     H 6479   6.693   3.639   0.333 -2.5848  0.2794 -0.1537
  789MOL0     H 6480   6.809   3.704   0.139  2.3945 -1.5672  0.1676
  789MOL0     H 6481   6.918   3.394  -0.159 -2.6240 -0.7472 -1.7163
  789MOL0     H 6482   6.810   3.487  -0.259  1.9905  2.1538 -3.5381
  789MOL0     H 6483   7.101   3.561  -0.190 -0.9216  2.5189  0.3274
  789MOL0     H 6484   7.027   3.500  -0.341  1.0847 -2.0512  0.7677
  789MOL0     H 6485   6.997   3.766  -0.202 -0.0024 -0.4495  0.7646
  789MOL0     H 6486   6.873   3.701  -0.310 -1.2132 -3.0943  1.8131
  789MOL0     H 6487   7.159   3.787  -0.375 -1.2211  3.2522  0.2848
  789MOL0     H 6488   7.072   3.660  -0.471 -3.1523 -3.0502  3.3659
  789MOL0     H 6489   6.892   3.843  -0.502  0.0753  0.3889  0.0019
  789MOL0     H 6490   7.040   3.900  -0.579 -3.8647  2.2868 -1.5175
  789MOL0     H 6491   6.990   3.973  -0.305 -3.9131  0.6304 -0.2431
  789MOL0     H 6492   7.104   4.046  -0.417  0.6725 -1.5841  0.2862
  789MOL0     H 6493   6.825   4.062  -0.532 -0.7114  1.8242  0.0830
  789MOL0     H 6494   6.951   4.181  -0.517  0.9015 -0.4198  0.1561
  789MOL0     H 6495   6.770   4.260  -0.409  0.4297  0.6974 -0.4502
  789MOL0     H 6496   6.922   4.234  -0.320 -0.9880 -0.8658  0.6338
  789MOL0     H 6497   6.709   3.348  -0.057  0.1591 -0.3624  0.0061
  789MOL0     H 6498   6.581   3.278   0.138 -1.7038  0.9011  1.0599
  789MOL0     H 6499   6.400   3.058   0.464  0.8301  0.4343 -0.5341
  789MOL0     H 6500   6.233   3.009   0.611 -0.9841  0.6597  0.3213
  789MOL0     H 6501   5.692   2.668   0.976 -0.7602  0.3149 -0.5184
  789MOL0     H 6502   5.834   2.776   0.794  0.4059 -0.7149  3.8330
  789MOL0     H 6503   6.234   2.623   0.459  2.7536  0.1852 -1.7787
  789MOL0     H 6504   6.356   2.730   0.320 -0.1024  1.1659 -0.3592
  789MOL0     H 6505   6.471   2.902   0.238 -2.1967 -0.1015  0.3284
  789MOL0     H 6506   6.419   2.801   0.101 -1.7594 -0.6957 -0.7693
  789MOL0     H 6507   6.474   3.102   0.079  0.1474  0.1306 -1.9129
  789MOL0     H 6508   6.447   2.988  -0.041 -1.1162 -0.2326  0.6331
  789MOL0     H 6509   6.663   2.845   0.057  2.8956 -0.1496 -2.8060
  789MOL0     H 6510   6.716   3.001   0.111  1.9953 -0.0382 -2.0968
  789MOL0     H 6511   6.693   3.107  -0.104 -0.4429 -0.0839  0.4766
  789MOL0     H 6512   6.634   2.952  -0.172  3.9205 -2.9129  0.1990
  789MOL0     H 6513   7.038   2.905  -0.187 -0.8634  1.2585 -2.2517
  789MOL0     H 6514   6.035   2.992   0.200  2.1128  1.8426  0.6971
  789MOL0     H 6515   5.905   2.873   0.392 -0.3657 -1.7387 -1.1566
  790MOL0     O 6516   8.169  11.019   8.875  0.3044 -0.0979 -0.0509
  790MOL0     C 6517   8.085  10.952   8.803 -0.3726  0.1962  0.8401
  790MOL0     O 6518   8.099  10.819   8.757  0.3408  0.1208 -0.4000
  790MOL0     C 6519   8.217  10.760   8.803 -1.2450 -0.5972  0.8106
  790MOL0     C 6520   8.245  10.732   8.938 -0.0285  0.0274  0.1833
  790MOL0     C 6521   8.364  10.673   8.988  0.4169 -0.3630  0.0669
  790MOL0     C 6522   8.471  10.654   8.899 -0.6686 -1.4190 -0.0873
  790MOL0     O 6523   8.603  10.620   8.924  0.7917 -0.3777  0.4300
  790MOL0     C 6524   8.637  10.547   9.044 -0.1666 -0.1210 -0.9302
  790MOL0     C 6525   8.582  10.400   9.033 -0.2735  0.3847  0.1313
  790MOL0     C 6526   8.659  10.306   9.134 -0.2696  0.4909 -0.6131
  790MOL0     C 6527   8.593  10.164   9.122  0.9737 -0.0861  0.3937
  790MOL0     C 6528   8.668  10.071   9.223 -0.3754  0.6951 -0.0441
  790MOL0     C 6529   8.632   9.918   9.209 -0.2186  0.7300  0.3841
  790MOL0     C 6530   8.647   9.853   9.073 -0.2412 -1.0333 -0.7104
  790MOL0     C 6531   8.533   9.760   9.037 -0.4500 -0.1670  1.1115
  790MOL0     N 6532   8.526   9.744   8.893 -0.3142 -0.3006  0.0900
  790MOL0     C 6533   8.622   9.679   8.819 -0.5656  0.2104 -0.0442
  790MOL0     C 6534   8.568   9.653   8.697  0.3452 -0.9243  0.3865
  790MOL0     C 6535   8.631   9.589   8.582 -0.2663  0.7325  0.1386
  790MOL0     C 6536   8.750   9.678   8.552 -0.7866  0.0050  0.1446
  790MOL0     C 6537   8.812   9.646   8.414  0.3616 -1.3518  0.4605
  790MOL0     C 6538   8.947   9.720   8.404  0.3924  0.4729 -1.0776
  790MOL0     O 6539   8.966   9.752   8.273 -0.7573  0.2376 -0.3324
  790MOL0     C 6540   9.093   9.805   8.247 -0.4294  0.0902  0.0067
  790MOL0     C 6541   9.192   9.843   8.335  0.6292 -0.3561  0.2817
  790MOL0     C 6542   9.317   9.875   8.300 -1.1507 -0.6509  0.9436
  790MOL0     C 6543   9.402   9.931   8.411 -0.1073  0.3729 -0.0052
  790MOL0     C 6544   9.354   9.872   8.162  0.3085 -0.4735 -0.3400
  790MOL0     C 6545   9.486   9.884   8.113 -0.8219 -0.0232 -0.2726
  790MOL0     O 6546   9.509   9.906   7.989  0.0955  0.1508 -0.6657
  790MOL0     C 6547   9.639   9.873   7.950  0.0688 -0.3805  0.5560
  790MOL0     C 6548   9.672   9.749   7.891  0.1060 -0.0786  1.3774
  790MOL0     C 6549   9.808   9.724   7.865  0.1956  0.3750  0.3400
  790MOL0     C 6550   9.911   9.815   7.898  0.3454 -0.7447  0.2294
  790MOL0     O 6551  10.052   9.797   7.897 -0.4333  0.5658  0.3154
  790MOL0     C 6552  10.099   9.658   7.921 -0.0777  0.3313  0.6985
  790MOL0     C 6553  10.241   9.660   8.005  0.1086 -1.1022  0.6633
  790MOL0     C 6554  10.252   9.747   8.134 -0.3755  0.0343  0.4216
  790MOL0     C 6555  10.391   9.740   8.203 -0.2067  0.6942  0.0209
  790MOL0     C 6556  10.412   9.846   8.314 -0.7771 -0.3227 -0.2257
  790MOL0     C 6557  10.563   9.856   8.350 -0.3127 -0.1194 -0.7566
  790MOL0     C 6558  10.597   9.966   8.459  1.1065  0.1215  0.2134
  790MOL0     C 6559  10.580   9.900   8.602 -0.1779  0.2692  1.3777
  790MOL0    Cl 6560  10.594  10.019   8.729 -0.1670 -0.7365  0.1357
  790MOL0     C 6561   9.871   9.935   7.951 -0.5169 -0.8144 -0.1511
  790MOL0     C 6562   9.735   9.968   7.981 -0.9379  0.0949 -0.1549
  790MOL0     O 6563   9.577   9.854   8.191  0.9016 -0.2567 -0.4817
  790MOL0     C 6564   9.261   9.825   8.070  1.2746  0.1471 -1.0059
  790MOL0     C 6565   9.132   9.787   8.115 -0.2911 -0.0284 -0.0963
  790MOL0     N 6566   8.435   9.687   8.701  0.0565  0.9187 -1.2462
  790MOL0     N 6567   8.411   9.746   8.822  0.1253  0.2712 -0.6637
  790MOL0     C 6568   8.449  10.690   8.761  0.0576 -0.5071 -0.3192
  790MOL0     C 6569   8.331  10.740   8.718 -0.4228 -0.1764  0.6344
  790MOL0     C 6570   7.944  11.010   8.779 -0.1260  0.0317 -0.2885
  790MOL0     C 6571   7.839  10.945   8.700  0.3317 -0.0784 -0.8181
  790MOL0     C 6572   7.715  11.009   8.680  0.6560 -0.4984 -0.0392
  790MOL0     C 6573   7.688  11.139   8.717 -0.1261  0.2465 -0.3136
  790MOL0     O 6574   7.567  11.187   8.681 -0.2455 -0.3225  0.5637
  790MOL0     C 6575   7.573  11.294   8.584 -0.4924  0.7531 -0.2910
  790MOL0     C 6576   7.445  11.383   8.602 -0.2507  0.8859 -0.5583
  790MOL0     C 6577   7.451  11.513   8.532 -0.6434  0.2663 -0.2078
  790MOL0     C 6578   7.462  11.502   8.380 -0.5434  0.5225 -0.8380
  790MOL0     C 6579   7.343  11.518   8.302  0.3056  0.8522  0.6039
  790MOL0     C 6580   7.245  11.520   8.239  0.0606  0.3987 -0.2147
  790MOL0     C 6581   7.792  11.199   8.788  0.2357  0.0717  0.4660
  790MOL0     C 6582   7.911  11.141   8.820  0.2063  0.8988 -0.3777
  790MOL0     H 6583   8.172  10.771   9.008 -1.1222 -0.2147 -0.7935
  790MOL0     H 6584   8.373  10.659   9.096  1.6842  4.7559  0.8587
  790MOL0     H 6585   8.745  10.552   9.060 -0.3579  0.2363  0.3501
  790MOL0     H 6586   8.588  10.601   9.125  2.3297  2.1902 -0.8122
  790MOL0     H 6587   8.477  10.391   9.062  0.0907 -0.9289  1.1812
  790MOL0     H 6588   8.582  10.378   8.926  0.2989  1.1557 -0.0354
  790MOL0     H 6589   8.768  10.309   9.120 -0.0869  0.0603  0.5829
  790MOL0     H 6590   8.651  10.348   9.235  1.4881 -0.8872  0.1656
  790MOL0     H 6591   8.486  10.167   9.144  0.3700 -2.3880 -1.8242
  790MOL0     H 6592   8.597  10.135   9.017  3.8622  0.6499  0.2128
  790MOL0     H 6593   8.773  10.076   9.193 -0.6782 -0.3005 -1.4070
  790MOL0     H 6594   8.638  10.101   9.323 -1.6575  2.0608 -0.8032
  790MOL0     H 6595   8.679   9.868   9.293 -2.0441  1.7395  2.0841
  790MOL0     H 6596   8.526   9.907   9.236 -0.8595 -1.6574 -2.5305
  790MOL0     H 6597   8.645   9.928   8.993 -2.4111 -1.3302 -0.9981
  790MOL0     H 6598   8.744   9.804   9.075 -0.3249 -1.2219 -1.1333
  790MOL0     H 6599   8.439   9.801   9.074 -0.8357  0.4915 -0.5250
  790MOL0     H 6600   8.552   9.669   9.094  0.8593  0.6802  2.0914
  790MOL0     H 6601   8.727   9.661   8.837 -0.2447  0.2294 -1.7584
  790MOL0     H 6602   8.667   9.487   8.597  0.3030  1.2479  2.8678
  790MOL0     H 6603   8.567   9.589   8.493 -0.1468 -1.2657  0.0060
  790MOL0     H 6604   8.816   9.634   8.627 -1.2010  2.8117  2.3136
  790MOL0     H 6605   8.744   9.786   8.566  3.6164  0.4336  0.1768
  790MOL0     H 6606   8.749   9.698   8.341  0.1820  0.1816  1.6521
  790MOL0     H 6607   8.821   9.538   8.404 -1.7774 -1.6469  1.1524
  790MOL0     H 6608   9.031   9.666   8.448  0.9712  0.9143 -1.6210
  790MOL0     H 6609   8.924   9.816   8.451  3.8381  0.6804  0.4639
  790MOL0     H 6610   9.163   9.850   8.440  1.4129 -1.2887  0.5725
  790MOL0     H 6611   9.339   9.957   8.497 -0.2618 -1.5416  0.4987
  790MOL0     H 6612   9.482   9.861   8.433  1.8354  2.1943 -0.8498
  790MOL0     H 6613   9.453  10.016   8.365  2.0407 -0.8714 -0.0319
  790MOL0     H 6614   9.591   9.678   7.875  1.0663 -0.7592 -0.8497
  790MOL0     H 6615   9.831   9.630   7.814 -3.3173 -1.3838  1.6905
  790MOL0     H 6616  10.026   9.605   7.983 -0.7637 -1.5375 -1.5609
  790MOL0     H 6617  10.117   9.604   7.827  2.7757 -1.1666  1.9661
  790MOL0     H 6618  10.276   9.557   8.020 -1.3458 -1.8421 -0.7646
  790MOL0     H 6619  10.320   9.702   7.942 -0.0715  2.1107  2.3606
  790MOL0     H 6620  10.180   9.714   8.209  0.6530  0.1748  1.5144
  790MOL0     H 6621  10.232   9.851   8.105 -0.0874  0.3333  1.2546
  790MOL0     H 6622  10.409   9.642   8.248  0.0979  3.0570  5.9730
  790MOL0     H 6623  10.474   9.746   8.132  3.3286 -1.1329  3.5907
  790MOL0     H 6624  10.359   9.826   8.408  2.2180  1.5602  2.0377
  790MOL0     H 6625  10.371   9.935   8.265 -0.5553  1.0965  2.0455
  790MOL0     H 6626  10.591   9.758   8.388 -1.7702  0.1581  1.1885
  790MOL0     H 6627  10.620   9.875   8.258 -2.8330  0.6922 -2.2608
  790MOL0     H 6628  10.539  10.055   8.434  1.8719  0.4691 -0.3775
  790MOL0     H 6629  10.702   9.997   8.451  2.4200 -3.7976  0.1980
  790MOL0     H 6630  10.659   9.827   8.623 -0.4523 -0.7443 -0.8457
  790MOL0     H 6631  10.482   9.853   8.610  0.2827 -1.8347 -2.7560
  790MOL0     H 6632   9.940  10.015   7.976 -1.3540 -0.3303  0.6857
  790MOL0     H 6633   9.703  10.066   8.016  0.6536  1.3209 -1.9062
  790MOL0     H 6634   9.281   9.797   7.967 -5.6043  0.4931 -2.9232
  790MOL0     H 6635   9.062   9.729   8.056 -1.8075  2.2030 -0.6325
  790MOL0     H 6636   8.530  10.685   8.689  2.0006 -2.2036  1.8316
  790MOL0     H 6637   8.320  10.758   8.611  3.3254 -1.5159 -0.1260
  790MOL0     H 6638   7.850  10.846   8.656  4.5185 -0.9338  1.5659
  790MOL0     H 6639   7.650  10.958   8.609  1.0433 -1.0925  0.0174
  790MOL0     H 6640   7.663  11.353   8.597 -2.5635  5.0151 -2.9805
  790MOL0     H 6641   7.559  11.236   8.492 -1.0359 -1.5423  1.1410
  790MOL0     H 6642   7.430  11.405   8.708  1.9510  2.6644 -0.5311
  790MOL0     H 6643   7.364  11.327   8.555 -1.3025  3.1461 -1.6200
  790MOL0     H 6644   7.542  11.561   8.569  0.2023 -3.0172  2.4252
  790MOL0     H 6645   7.373  11.585   8.559 -0.6561  0.5129 -0.8977
  790MOL0     H 6646   7.530  11.421   8.351  5.2931  3.9803  1.3735
  790MOL0     H 6647   7.524  11.588   8.351  1.3058  0.0057  1.3751
  790MOL0     H 6648   7.151  11.522   8.189 -0.5756 -2.1934  0.7114
  790MOL0     H 6649   7.773  11.305   8.803  2.2595  0.7078 -0.9984
  790MOL0     H 6650   7.979  11.201   8.880 -1.6740  2.2836  0.4773
  791MOL0     O 6651   9.078   1.154  10.949  0.1263  0.0624  0.6202
  791MOL0     C 6652   9.051   1.061  10.868 -0.1364  0.4724 -0.2573
  791MOL0     O 6653   8.992   1.076  10.742  0.2331 -0.5551 -0.5223
  791MOL0     C 6654   8.942   1.200  10.714 -0.4505 -0.5436  0.5631
  791MOL0     C 6655   8.854   1.277  10.793  0.4557 -0.7137  0.0879
  791MOL0     C 6656   8.809   1.408  10.752 -2.1422 -0.0917 -1.5228
  791MOL0     C 6657   8.857   1.461  10.632 -0.1263  0.0681 -0.8393
  791MOL0     O 6658   8.802   1.584  10.602 -0.7606  0.1706  0.4213
  791MOL0     C 6659   8.896   1.694  10.600 -0.6761 -0.6549  0.2996
  791MOL0     C 6660   8.923   1.733  10.454 -0.9959  0.1195 -0.5982
  791MOL0     C 6661   8.808   1.816  10.406  0.0915  0.1076 -0.6251
  791MOL0     C 6662   8.832   1.868  10.265  0.3016  0.7119  0.1476
  791MOL0     C 6663   8.943   1.978  10.244  0.4682 -0.3734 -0.2781
  791MOL0     C 6664   8.948   2.021  10.085 -0.1655  0.6274 -0.3219
  791MOL0     C 6665   9.077   2.108  10.061 -0.2096  0.2898 -1.0509
  791MOL0     C 6666   9.083   2.245  10.131  0.4322  0.2683 -0.1769
  791MOL0     N 6667   9.175   2.334  10.056 -0.0285  0.4980  0.1750
  791MOL0     C 6668   9.288   2.294   9.992 -0.6862  0.6519 -0.0839
  791MOL0     C 6669   9.356   2.406   9.954 -0.4202 -0.5179  0.2068
  791MOL0     C 6670   9.497   2.401   9.894  0.7743 -0.8110 -0.0127
  791MOL0     C 6671   9.582   2.532   9.878 -0.5650  0.4642  0.1176
  791MOL0     C 6672   9.530   2.627   9.770  0.0015  0.5042  0.1571
  791MOL0     C 6673   9.568   2.777   9.798 -0.3601  0.3163  0.3233
  791MOL0     O 6674   9.693   2.799   9.874  0.5662 -0.5115 -0.1909
  791MOL0     C 6675   9.815   2.794   9.835  0.7884 -0.4169 -0.4111
  791MOL0     C 6676   9.907   2.851   9.922  0.5886 -1.1162  0.8295
  791MOL0     C 6677  10.051   2.866   9.890  0.3870 -0.1141  0.1706
  791MOL0     C 6678  10.136   2.924   9.992 -0.1741 -1.3157 -0.3614
  791MOL0     C 6679  10.097   2.788   9.777  0.3919 -0.2047  0.4200
  791MOL0     C 6680  10.239   2.756   9.745 -0.4284  0.0387  0.2824
  791MOL0     O 6681  10.275   2.708   9.626  0.8036  0.4750  0.2651
  791MOL0     C 6682  10.376   2.767   9.562 -0.4388  0.0571 -0.1991
  791MOL0     C 6683  10.341   2.829   9.448 -0.1278  0.2488  0.7804
  791MOL0     C 6684  10.433   2.889   9.366  0.7343 -0.0691 -0.4170
  791MOL0     C 6685  10.573   2.885   9.398  1.0049  0.3711  0.3700
  791MOL0     O 6686  10.659   2.950   9.318  0.5207  0.1949 -0.3238
  791MOL0     C 6687  10.614   3.069   9.248  0.6745 -0.3367  0.0496
  791MOL0     C 6688  10.731   3.134   9.170 -0.5585  1.5241  0.7914
  791MOL0     C 6689  10.783   3.049   9.062 -0.1728  0.5510  0.4387
  791MOL0     C 6690  10.940   3.071   9.061 -0.7082  0.8715 -0.1450
  791MOL0     C 6691  11.012   2.970   9.156 -0.9409  0.7687 -0.7429
  791MOL0     C 6692  11.163   2.993   9.139 -0.1133  0.2193 -0.3364
  791MOL0     C 6693  11.222   3.117   9.205 -0.4196  1.2469  0.2708
  791MOL0     C 6694  11.373   3.141   9.159  1.0166 -0.9430 -0.3728
  791MOL0    Cl 6695  11.403   3.170   8.974 -0.3484  0.4345  0.2289
  791MOL0     C 6696  10.612   2.812   9.515 -0.0299 -0.0256 -0.2678
  791MOL0     C 6697  10.511   2.752   9.590  0.3277  0.9628 -0.3891
  791MOL0     O 6698  10.323   2.777   9.832  1.1079 -0.1270 -0.1687
  791MOL0     C 6699  10.001   2.721   9.697  0.1694 -0.6597 -0.2105
  791MOL0     C 6700   9.861   2.733   9.722  0.1152  0.1611 -0.0211
  791MOL0     N 6701   9.291   2.517  10.003  0.4481 -0.8346  0.4404
  791MOL0     N 6702   9.189   2.465  10.078  0.3873 -0.0175  0.6068
  791MOL0     C 6703   8.954   1.389  10.561 -0.0760 -0.0791 -0.1520
  791MOL0     C 6704   8.992   1.259  10.596 -0.1457  0.6643  0.6068
  791MOL0     C 6705   9.120   0.931  10.888  0.5907  1.0233  0.3993
  791MOL0     C 6706   9.099   0.824  10.800  0.4816  0.3059 -1.0673
  791MOL0     C 6707   9.146   0.697  10.825  1.3034 -1.0406 -0.7504
  791MOL0     C 6708   9.225   0.666  10.935  0.8905  0.1089 -0.6191
  791MOL0     O 6709   9.274   0.539  10.946  0.1059 -0.0543 -0.4479
  791MOL0     C 6710   9.308   0.505  11.081 -0.0023  0.3409  1.0183
  791MOL0     C 6711   9.342   0.355  11.069  0.3282  0.2652  0.1384
  791MOL0     C 6712   9.238   0.270  10.980 -0.3809 -0.8060 -0.6105
  791MOL0     C 6713   9.246   0.120  11.009  0.0273 -0.0813 -0.5100
  791MOL0     C 6714   9.164   0.069  11.117  0.2046  0.6946 -0.0458
  791MOL0     C 6715   9.088   0.031  11.198  0.3610  0.9750  0.1247
  791MOL0     C 6716   9.243   0.768  11.025  0.5481 -0.5865 -0.2772
  791MOL0     C 6717   9.196   0.904  11.006 -0.2217 -0.1806  0.3868
  791MOL0     H 6718   8.816   1.236  10.886 -0.4389 -0.7172 -0.2707
  791MOL0     H 6719   8.721   1.439  10.806  0.2160  0.1299  2.6279
  791MOL0     H 6720   8.866   1.784  10.654 -2.6415  0.5428 -2.5541
  791MOL0     H 6721   8.989   1.665  10.650  0.5084  0.8369 -0.9386
  791MOL0     H 6722   9.018   1.787  10.447 -1.2983  0.9717  1.2556
  791MOL0     H 6723   8.928   1.649  10.385 -1.7288 -0.4666  0.0346
  791MOL0     H 6724   8.712   1.765  10.407 -0.2226  0.6890 -0.4806
  791MOL0     H 6725   8.802   1.899  10.478  2.7641 -0.7165  0.6635
  791MOL0     H 6726   8.854   1.780  10.203 -0.0208 -0.5083  1.7032
  791MOL0     H 6727   8.740   1.914  10.227 -0.0740 -2.0767 -2.7966
  791MOL0     H 6728   8.931   2.072  10.298 -0.4483 -1.2161  1.0390
  791MOL0     H 6729   9.041   1.942  10.278  0.1605 -1.1104 -0.1390
  791MOL0     H 6730   8.967   1.936  10.019 -0.9304  1.0052 -1.0400
  791MOL0     H 6731   8.862   2.076  10.047  1.4276  3.7160  0.1477
  791MOL0     H 6732   9.168   2.049  10.079 -0.0314  0.1965 -2.2213
  791MOL0     H 6733   9.081   2.117   9.952 -1.6954  2.1868 -1.0041
  791MOL0     H 6734   9.107   2.238  10.237 -0.1734 -3.7909 -0.1769
  791MOL0     H 6735   8.987   2.297  10.129  0.3393  0.2092  1.3831
  791MOL0     H 6736   9.323   2.196   9.961 -0.5201  1.1787 -1.6677
  791MOL0     H 6737   9.551   2.333   9.960  1.6206 -0.4765 -0.3475
  791MOL0     H 6738   9.482   2.352   9.797  2.3966  2.3486 -1.9999
  791MOL0     H 6739   9.685   2.509   9.850 -1.4780 -1.9954 -1.6774
  791MOL0     H 6740   9.583   2.593   9.969 -2.7469  1.8138 -0.6757
  791MOL0     H 6741   9.421   2.623   9.759  0.2895 -1.2932 -3.1815
  791MOL0     H 6742   9.580   2.604   9.675 -2.4393  0.2315 -1.1488
  791MOL0     H 6743   9.478   2.819   9.843 -1.5759 -2.6230  0.9143
  791MOL0     H 6744   9.575   2.823   9.699 -0.3224 -1.0751 -0.3534
  791MOL0     H 6745   9.861   2.878  10.017 -3.5644 -0.2680 -1.1912
  791MOL0     H 6746  10.122   3.032   9.996  1.8228 -1.0501  0.6905
  791MOL0     H 6747  10.118   2.893  10.096  2.5817  1.5260  1.1393
  791MOL0     H 6748  10.244   2.914   9.980 -0.2271 -2.5072 -0.0314
  791MOL0     H 6749  10.238   2.831   9.414  0.6088  1.1432 -1.5866
  791MOL0     H 6750  10.412   2.934   9.270  3.0581 -0.0169 -0.9711
  791MOL0     H 6751  10.544   3.045   9.168  1.6385 -4.2420  0.1357
  791MOL0     H 6752  10.563   3.143   9.309 -0.6481 -0.7008 -0.5864
  791MOL0     H 6753  10.702   3.229   9.126  0.2139  0.9768 -0.9944
  791MOL0     H 6754  10.816   3.152   9.237  0.3097  0.2529  0.0825
  791MOL0     H 6755  10.747   3.086   8.966  0.4082  0.9148  0.3528
  791MOL0     H 6756  10.756   2.943   9.067 -4.6604  1.5038  0.5578
  791MOL0     H 6757  10.972   3.073   8.957 -0.2659 -0.5818 -0.0697
  791MOL0     H 6758  10.971   3.168   9.099  2.7840 -0.0608 -0.2779
  791MOL0     H 6759  10.998   2.870   9.113 -1.2587  0.1435  0.7463
  791MOL0     H 6760  10.986   2.969   9.262  0.2655 -0.2032 -0.4297
  791MOL0     H 6761  11.214   2.902   9.170 -1.5405 -0.6363 -0.3794
  791MOL0     H 6762  11.190   2.989   9.033  1.8542 -4.0910  0.1319
  791MOL0     H 6763  11.234   3.095   9.311  1.5595  2.0663  0.2614
  791MOL0     H 6764  11.160   3.207   9.199 -0.8659  0.9764  0.7148
  791MOL0     H 6765  11.436   3.061   9.198  0.7605 -1.6758 -1.4232
  791MOL0     H 6766  11.404   3.232   9.213 -1.5942 -0.0818 -0.1766
  791MOL0     H 6767  10.714   2.778   9.531 -0.7558 -3.3013 -1.7359
  791MOL0     H 6768  10.541   2.678   9.664 -2.3792  0.8987  0.7575
  791MOL0     H 6769  10.024   2.657   9.612 -1.1704  1.3381 -2.1928
  791MOL0     H 6770   9.798   2.675   9.656  1.5528  2.0188 -3.2650
  791MOL0     H 6771   8.997   1.434  10.472  1.4743  0.3337  0.7553
  791MOL0     H 6772   9.064   1.218  10.525 -0.0195  1.7424  0.0885
  791MOL0     H 6773   9.038   0.832  10.711  1.2161 -0.0510 -1.6080
  791MOL0     H 6774   9.129   0.626  10.744 -0.0564  0.4071 -1.8117
  791MOL0     H 6775   9.398   0.559  11.109  0.4570 -0.4550  1.1194
  791MOL0     H 6776   9.217   0.509  11.142 -0.7423 -0.7180  0.0421
  791MOL0     H 6777   9.322   0.314  11.169 -2.5322  2.6362  0.6855
  791MOL0     H 6778   9.443   0.337  11.030 -0.0232 -3.4190  0.5820
  791MOL0     H 6779   9.266   0.294  10.877  0.7002  5.1550  0.7038
  791MOL0     H 6780   9.141   0.308  11.013  0.6727  3.3068 -1.7459
  791MOL0     H 6781   9.349   0.085  11.024 -0.4155 -1.4318 -0.5595
  791MOL0     H 6782   9.218   0.073  10.915  2.3362  3.3078 -3.1460
  791MOL0     H 6783   9.014  -0.023  11.254  0.7399 -2.5160 -2.4648
  791MOL0     H 6784   9.304   0.743  11.111  2.3404 -1.4739 -1.7326
  791MOL0     H 6785   9.221   0.987  11.071 -1.1995  1.4844 -1.2469
  792MOL0     O 6786   6.596  10.049   6.451 -0.4699 -0.4485 -0.1035
  792MOL0     C 6787   6.507  10.111   6.508  0.3769  0.6157 -0.0707
  792MOL0     O 6788   6.448  10.226   6.458  0.6080  0.1919  0.3603
  792MOL0     C 6789   6.427  10.245   6.323 -0.1992 -0.8210  0.2317
  792MOL0     C 6790   6.424  10.388   6.294 -0.2689  0.5861 -0.4377
  792MOL0     C 6791   6.399  10.421   6.164  0.3309  0.0311  0.0037
  792MOL0     C 6792   6.391  10.327   6.057 -1.0573 -0.0560 -0.3263
  792MOL0     O 6793   6.393  10.378   5.930  0.1850 -0.5933 -1.2287
  792MOL0     C 6794   6.439  10.292   5.825 -0.2810  0.4550 -0.1852
  792MOL0     C 6795   6.446  10.375   5.699 -0.2722 -0.1138 -0.6833
  792MOL0     C 6796   6.456  10.285   5.582  0.2376  0.5167  0.7889
  792MOL0     C 6797   6.315  10.245   5.529 -0.3827  0.0357 -0.5700
  792MOL0     C 6798   6.334  10.145   5.416  0.3597 -0.4387  0.1553
  792MOL0     C 6799   6.341  10.201   5.265 -0.0402  0.7998  0.3742
  792MOL0     C 6800   6.408  10.091   5.178  0.5090 -0.1673 -0.1868
  792MOL0     C 6801   6.439  10.140   5.033  0.2585 -0.0356  0.4376
  792MOL0     N 6802   6.571  10.197   5.035  0.4068 -0.3477  0.4778
  792MOL0     C 6803   6.673  10.150   4.956  0.4080  0.3942  0.0463
  792MOL0     C 6804   6.762  10.240   4.973 -0.4413  0.0429  0.4216
  792MOL0     C 6805   6.883  10.255   4.884 -0.4206  0.7040  0.7866
  792MOL0     C 6806   6.837  10.308   4.751 -0.4995 -0.6702 -0.1569
  792MOL0     C 6807   6.950  10.300   4.651 -1.5156 -0.6527 -0.2214
  792MOL0     C 6808   6.952  10.419   4.550 -0.1571 -0.0936  0.1771
  792MOL0     O 6809   7.035  10.397   4.438 -0.2511  0.3169 -0.0350
  792MOL0     C 6810   7.169  10.396   4.466  0.9112  0.3130  0.1292
  792MOL0     C 6811   7.238  10.470   4.566  0.5596  0.2317  0.5475
  792MOL0     C 6812   7.369  10.434   4.595 -0.2423 -0.4368 -0.9243
  792MOL0     C 6813   7.427  10.504   4.704  0.6050  0.1305 -0.0047
  792MOL0     C 6814   7.445  10.333   4.518  0.6323  0.2568  0.7513
  792MOL0     C 6815   7.582  10.286   4.545  0.3144 -0.7138  1.1189
  792MOL0     O 6816   7.647  10.216   4.442  0.3807 -0.2406  0.1831
  792MOL0     C 6817   7.772  10.166   4.471 -0.3998  0.8636 -0.8588
  792MOL0     C 6818   7.870  10.238   4.533 -0.4502 -0.2471 -0.4517
  792MOL0     C 6819   7.994  10.181   4.552 -1.0900 -1.4234 -0.2854
  792MOL0     C 6820   8.025  10.056   4.502  0.0648  0.5830  1.1223
  792MOL0     O 6821   8.148  10.003   4.517 -0.8215  0.0969 -0.3747
  792MOL0     C 6822   8.260  10.065   4.448  0.4644 -0.2799  0.0099
  792MOL0     C 6823   8.394  10.015   4.492 -0.6052 -0.4819 -0.5180
  792MOL0     C 6824   8.422  10.026   4.633 -0.2622 -1.2613 -0.4533
  792MOL0     C 6825   8.442  10.173   4.676  0.5772  0.1090  0.0506
  792MOL0     C 6826   8.501  10.182   4.819 -0.0955 -0.5539  0.0971
  792MOL0     C 6827   8.487  10.327   4.860 -0.0930 -0.2565 -0.2210
  792MOL0     C 6828   8.548  10.363   4.994  0.8966 -0.0121 -0.5229
  792MOL0     C 6829   8.684  10.308   5.039  0.8772  0.2154  0.5654
  792MOL0    Cl 6830   8.793  10.348   4.907  0.1764  0.2157  0.0903
  792MOL0     C 6831   7.930   9.977   4.437  0.8081 -0.2198 -0.3265
  792MOL0     C 6832   7.802  10.041   4.419 -0.2719  0.8537  0.1929
  792MOL0     O 6833   7.629  10.307   4.656 -0.3184 -0.0574  0.0595
  792MOL0     C 6834   7.371  10.277   4.406  0.3003  0.5695  0.0137
  792MOL0     C 6835   7.236  10.303   4.381 -0.2886 -0.4375 -0.5376
  792MOL0     N 6836   6.729  10.329   5.067  0.4798  0.0897 -0.1811
  792MOL0     N 6837   6.614  10.309   5.110 -0.8905  0.8664  0.0107
  792MOL0     C 6838   6.400  10.193   6.086  0.0531  0.7822 -0.2076
  792MOL0     C 6839   6.418  10.148   6.223 -0.6977  0.2452  0.0933
  792MOL0     C 6840   6.448  10.056   6.632 -0.0947  0.4267 -0.4954
  792MOL0     C 6841   6.320  10.093   6.673 -0.3045 -0.4989 -0.2012
  792MOL0     C 6842   6.272  10.028   6.798 -0.4053 -0.5242 -0.3548
  792MOL0     C 6843   6.351   9.933   6.865 -0.6445  0.5471  0.5433
  792MOL0     O 6844   6.302   9.855   6.963 -0.5052  0.0980 -0.1994
  792MOL0     C 6845   6.238   9.738   6.916 -0.4678 -0.2498  0.1375
  792MOL0     C 6846   6.168   9.666   7.035 -0.2762 -0.0883  0.0363
  792MOL0     C 6847   6.275   9.609   7.128 -0.8918  0.1321 -0.5838
  792MOL0     C 6848   6.374   9.501   7.069  0.7808 -1.2803  0.1631
  792MOL0     C 6849   6.487   9.479   7.157 -0.2565 -0.6125  0.9280
  792MOL0     C 6850   6.586   9.455   7.222 -0.2824  0.3908  1.0371
  792MOL0     C 6851   6.476   9.903   6.807  0.5443  0.1194 -0.0155
  792MOL0     C 6852   6.524   9.961   6.698  0.0465  0.8099  0.3379
  792MOL0     H 6853   6.444  10.470   6.361 -3.2074  2.4523 -1.6509
  792MOL0     H 6854   6.386  10.525   6.134 -3.3203 -0.7521 -1.6003
  792MOL0     H 6855   6.542  10.269   5.854  0.2474 -2.3135 -3.6139
  792MOL0     H 6856   6.397  10.192   5.813  1.0982  0.0452 -1.8878
  792MOL0     H 6857   6.351  10.428   5.689 -1.2147 -2.1477 -3.8061
  792MOL0     H 6858   6.535  10.438   5.701  0.0331 -0.5461  0.8249
  792MOL0     H 6859   6.515  10.343   5.510  0.2075  0.6211  0.8490
  792MOL0     H 6860   6.514  10.194   5.600  0.6844  0.5669 -0.3020
  792MOL0     H 6861   6.247  10.189   5.595 -0.6761  0.6991 -0.3074
  792MOL0     H 6862   6.261  10.336   5.504  1.1668  1.7335  1.7871
  792MOL0     H 6863   6.428  10.092   5.435  0.6450  0.3883  1.1474
  792MOL0     H 6864   6.254  10.071   5.427  0.2862 -0.7637 -2.2016
  792MOL0     H 6865   6.237  10.214   5.234 -0.2672  0.2960  0.8980
  792MOL0     H 6866   6.402  10.291   5.257  0.1931  0.5805 -0.3170
  792MOL0     H 6867   6.500  10.056   5.226  0.7499 -2.9067 -2.3944
  792MOL0     H 6868   6.343  10.004   5.184 -0.5834  0.5219 -1.4752
  792MOL0     H 6869   6.356  10.197   4.990 -0.8532 -2.1619 -0.3758
  792MOL0     H 6870   6.458  10.051   4.972  2.1775 -0.3527  1.4083
  792MOL0     H 6871   6.685  10.064   4.890  1.6380  0.4345  0.1928
  792MOL0     H 6872   6.970  10.297   4.934  2.2135 -0.7322 -2.1842
  792MOL0     H 6873   6.917  10.153   4.861  3.4084  2.7098 -4.5741
  792MOL0     H 6874   6.795  10.409   4.760  0.8235  0.0285 -1.4012
  792MOL0     H 6875   6.766  10.243   4.699  0.9317  0.0056 -3.2036
  792MOL0     H 6876   6.937  10.206   4.597 -3.1639 -0.9731  0.6611
  792MOL0     H 6877   7.044  10.303   4.708 -1.1704  1.6575 -0.7992
  792MOL0     H 6878   6.977  10.511   4.605  1.6653 -0.5645  0.1858
  792MOL0     H 6879   6.854  10.443   4.507  0.5037  0.7731 -0.8796
  792MOL0     H 6880   7.182  10.532   4.634 -0.9810  0.8248 -1.1633
  792MOL0     H 6881   7.425  10.458   4.803 -1.2788  1.8078  0.8204
  792MOL0     H 6882   7.529  10.518   4.669  0.2819 -1.6518 -1.8523
  792MOL0     H 6883   7.392  10.608   4.713  0.0121 -0.2480  2.9886
  792MOL0     H 6884   7.845  10.336   4.571 -1.3740 -0.4983 -0.3777
  792MOL0     H 6885   8.081  10.222   4.602 -3.5684  2.2705  1.4908
  792MOL0     H 6886   8.254  10.050   4.340 -2.3631 -1.7732  0.2725
  792MOL0     H 6887   8.264  10.171   4.477 -1.5722 -0.3759  0.8041
  792MOL0     H 6888   8.403   9.911   4.461 -1.1483  0.2285 -3.3183
  792MOL0     H 6889   8.471  10.071   4.437 -0.4246 -0.5906 -0.3781
  792MOL0     H 6890   8.511   9.967   4.658 -0.2058 -0.5405  1.2218
  792MOL0     H 6891   8.339   9.975   4.684  1.0103  0.4420  3.7751
  792MOL0     H 6892   8.502  10.239   4.612 -3.2438  4.1738  0.1408
  792MOL0     H 6893   8.346  10.225   4.681  0.2203  0.0150 -3.4345
  792MOL0     H 6894   8.608  10.160   4.825  0.8438  3.5733  1.9534
  792MOL0     H 6895   8.452  10.126   4.899  1.9547 -1.6230  0.6660
  792MOL0     H 6896   8.528  10.382   4.775  0.0597  1.7354  1.0669
  792MOL0     H 6897   8.385  10.367   4.862  0.2009  0.4940  1.4029
  792MOL0     H 6898   8.482  10.328   5.075  0.1851  2.3069 -0.0312
  792MOL0     H 6899   8.554  10.472   5.003 -1.2095  0.1698 -0.6963
  792MOL0     H 6900   8.685  10.203   5.072  2.1752  0.0513  0.0532
  792MOL0     H 6901   8.708  10.369   5.126 -3.2961  0.1545  2.0142
  792MOL0     H 6902   7.958   9.881   4.395  2.1515  0.5870 -1.3787
  792MOL0     H 6903   7.724   9.984   4.370  2.0919 -1.1779 -1.4721
  792MOL0     H 6904   7.425  10.210   4.339 -2.8663 -0.9216 -1.2935
  792MOL0     H 6905   7.187  10.247   4.302  1.6572  0.2565 -2.3460
  792MOL0     H 6906   6.384  10.121   6.006  0.6707  2.4100 -1.8501
  792MOL0     H 6907   6.435  10.041   6.226 -0.5085  0.1660 -2.1932
  792MOL0     H 6908   6.267  10.173   6.622  1.8749  0.3957 -1.1968
  792MOL0     H 6909   6.177  10.058   6.842 -1.0408 -3.1459  0.2141
  792MOL0     H 6910   6.169   9.750   6.832 -0.5786  1.6816  0.4580
  792MOL0     H 6911   6.321   9.677   6.877 -0.1269 -1.0861  2.0350
  792MOL0     H 6912   6.094   9.590   7.007 -0.7991  0.4995 -0.2044
  792MOL0     H 6913   6.101   9.735   7.088  0.8070  0.2770  0.9638
  792MOL0     H 6914   6.227   9.577   7.221 -4.1555  2.8996 -1.0943
  792MOL0     H 6915   6.333   9.691   7.172 -1.3026 -0.4385  1.0989
  792MOL0     H 6916   6.400   9.512   6.964 -0.4167 -0.1757 -0.0381
  792MOL0     H 6917   6.307   9.415   7.062 -1.6993  0.6130 -0.7908
  792MOL0     H 6918   6.674   9.441   7.282 -1.6145 -0.4799  2.9199
  792MOL0     H 6919   6.544   9.825   6.841  1.1965  0.3700 -0.7187
  792MOL0     H 6920   6.623   9.931   6.669  0.2203 -2.8007  3.8971
  793MOL0     O 6921   5.895   7.178   4.421  0.2600 -0.3786 -0.7340
  793MOL0     C 6922   5.842   7.221   4.320  0.3726 -0.8518  0.8917
  793MOL0     O 6923   5.880   7.193   4.192 -0.7461  0.1998 -0.4506
  793MOL0     C 6924   5.984   7.103   4.171  0.0291 -0.5416 -1.4485
  793MOL0     C 6925   6.095   7.130   4.088 -0.7346 -0.0119 -0.7338
  793MOL0     C 6926   6.205   7.047   4.070 -0.2303  0.1426 -0.9322
  793MOL0     C 6927   6.213   6.919   4.125 -0.2833  0.2393 -1.1338
  793MOL0     O 6928   6.315   6.833   4.076 -0.1232 -0.8651 -0.3082
  793MOL0     C 6929   6.312   6.692   4.115 -0.2628  0.0345  0.7647
  793MOL0     C 6930   6.412   6.628   4.016  0.1476 -0.1805 -0.0177
  793MOL0     C 6931   6.408   6.469   4.011 -0.0367  0.8153  0.2498
  793MOL0     C 6932   6.543   6.425   3.952  0.2432  0.1916 -1.1856
  793MOL0     C 6933   6.569   6.270   3.969  0.3686 -0.0775 -0.1123
  793MOL0     C 6934   6.543   6.214   4.107 -0.5105  0.2712  0.0151
  793MOL0     C 6935   6.594   6.074   4.136 -0.4933  0.0614 -0.7884
  793MOL0     C 6936   6.553   6.036   4.276 -0.4717 -0.8185 -1.2509
  793MOL0     N 6937   6.574   5.896   4.307  0.0409 -0.2526  0.1856
  793MOL0     C 6938   6.519   5.811   4.404  0.6838  0.8525 -0.3816
  793MOL0     C 6939   6.565   5.690   4.392 -0.5438  0.9295  0.8908
  793MOL0     C 6940   6.535   5.567   4.468 -1.0999  1.0289 -0.0573
  793MOL0     C 6941   6.569   5.598   4.618 -0.2907 -0.7678  1.0119
  793MOL0     C 6942   6.710   5.626   4.646 -0.9594 -0.4346  0.0089
  793MOL0     C 6943   6.763   5.653   4.787 -0.2952  0.7115  0.4514
  793MOL0     O 6944   6.727   5.782   4.838 -0.6661 -0.0871  0.2523
  793MOL0     C 6945   6.768   5.890   4.768  0.8611 -0.3325  0.2267
  793MOL0     C 6946   6.890   5.951   4.784 -0.8960 -1.5038  0.2523
  793MOL0     C 6947   6.925   6.068   4.720  0.3295  0.5614  0.1530
  793MOL0     C 6948   7.072   6.122   4.728  0.6547 -0.2174 -0.0456
  793MOL0     C 6949   6.828   6.127   4.633 -0.0253 -0.5605  0.1074
  793MOL0     C 6950   6.841   6.262   4.567 -0.6529 -0.4438 -0.0926
  793MOL0     O 6951   6.769   6.269   4.454  0.4260 -0.6156 -0.4765
  793MOL0     C 6952   6.761   6.387   4.382  0.0931 -0.0880  0.7781
  793MOL0     C 6953   6.855   6.418   4.289 -0.0212  0.0294 -0.6297
  793MOL0     C 6954   6.855   6.536   4.215  0.4937  0.1716 -0.2233
  793MOL0     C 6955   6.742   6.626   4.232  1.2889 -0.1638 -0.1762
  793MOL0     O 6956   6.726   6.744   4.165  0.2623 -0.8784  0.0839
  793MOL0     C 6957   6.830   6.791   4.085 -0.7056 -0.4509  0.6072
  793MOL0     C 6958   6.794   6.936   4.044  0.3359  0.0042 -0.3405
  793MOL0     C 6959   6.703   6.927   3.921  0.7660  0.1003 -0.1417
  793MOL0     C 6960   6.625   7.059   3.890 -0.4211  0.5251 -0.7363
  793MOL0     C 6961   6.574   7.055   3.746  0.2648 -0.2143 -0.2278
  793MOL0     C 6962   6.493   7.180   3.731  0.3487 -0.7867  0.6339
  793MOL0     C 6963   6.432   7.190   3.596 -1.1156 -0.4095  0.9410
  793MOL0     C 6964   6.326   7.294   3.586 -0.3195  0.6024  0.3032
  793MOL0    Cl 6965   6.393   7.454   3.624 -0.5196 -0.0106 -0.3635
  793MOL0     C 6966   6.641   6.597   4.325  0.2432  0.0926  0.1597
  793MOL0     C 6967   6.653   6.477   4.393  0.6210  0.7514  0.4598
  793MOL0     O 6968   6.914   6.349   4.611 -0.1729 -0.8182  1.2259
  793MOL0     C 6969   6.705   6.065   4.615 -0.4760  1.1374  0.1609
  793MOL0     C 6970   6.676   5.949   4.676  1.0582 -0.4300 -1.0515
  793MOL0     N 6971   6.663   5.700   4.295  0.4168  0.7813  0.8014
  793MOL0     N 6972   6.670   5.818   4.246 -0.1343 -0.2771 -0.1442
  793MOL0     C 6973   6.103   6.894   4.216 -1.2262 -0.3135 -0.2244
  793MOL0     C 6974   5.991   6.982   4.241  1.1831 -0.5237  0.8115
  793MOL0     C 6975   5.706   7.284   4.321  0.1002 -0.7691  0.0091
  793MOL0     C 6976   5.647   7.328   4.198 -0.0568  0.7524 -0.3959
  793MOL0     C 6977   5.533   7.409   4.203 -0.4336 -0.4163 -0.0528
  793MOL0     C 6978   5.469   7.448   4.323  0.2521  0.6021  0.0764
  793MOL0     O 6979   5.363   7.529   4.314 -0.0021  0.5475 -0.0652
  793MOL0     C 6980   5.293   7.563   4.428  1.2374  0.1598 -0.3185
  793MOL0     C 6981   5.191   7.673   4.402  0.0889 -0.0464  0.1094
  793MOL0     C 6982   5.135   7.735   4.532  0.8582  0.1176  0.0586
  793MOL0     C 6983   5.047   7.854   4.485 -0.4260 -0.9752 -0.4842
  793MOL0     C 6984   4.990   7.919   4.603 -0.5547 -0.7492  0.4330
  793MOL0     C 6985   4.936   7.970   4.692  0.6158 -0.0833  0.3505
  793MOL0     C 6986   5.522   7.393   4.443 -1.0826  0.1167 -0.0267
  793MOL0     C 6987   5.640   7.321   4.441 -0.6467  0.3857  0.7133
  793MOL0     H 6988   6.087   7.226   4.040 -1.5020 -1.2432 -3.2422
  793MOL0     H 6989   6.295   7.089   4.026  0.8301  1.0645  1.8544
  793MOL0     H 6990   6.327   6.666   4.221 -1.9251 -1.2301  0.7382
  793MOL0     H 6991   6.215   6.660   4.078  0.5001 -0.9318 -0.4835
  793MOL0     H 6992   6.377   6.644   3.914 -1.0418 -3.3217 -0.2048
  793MOL0     H 6993   6.511   6.671   4.035 -0.0103 -1.0416  3.6350
  793MOL0     H 6994   6.389   6.434   4.113  1.4972 -0.8001  0.0295
  793MOL0     H 6995   6.322   6.447   3.947 -0.9449  1.7961  1.1070
  793MOL0     H 6996   6.554   6.452   3.847  2.4854 -2.0765 -1.6373
  793MOL0     H 6997   6.620   6.477   4.010 -0.0036  2.2648 -2.6072
  793MOL0     H 6998   6.503   6.215   3.901 -2.7049  1.9572  1.0097
  793MOL0     H 6999   6.669   6.233   3.947 -0.6808 -2.3617 -1.3684
  793MOL0     H 7000   6.577   6.277   4.189  0.8634  2.2581 -1.9551
  793MOL0     H 7001   6.435   6.217   4.120 -0.3200 -0.5098  2.2267
  793MOL0     H 7002   6.549   6.003   4.066  1.1893 -3.0197  1.0515
  793MOL0     H 7003   6.702   6.072   4.120 -0.5624 -0.1316 -1.2644
  793MOL0     H 7004   6.446   6.057   4.284  0.1419  3.5895 -1.6114
  793MOL0     H 7005   6.604   6.097   4.351  0.5542  1.7971 -3.8318
  793MOL0     H 7006   6.457   5.849   4.485  1.9365  0.0798  0.9899
  793MOL0     H 7007   6.432   5.529   4.464 -1.7468  2.6797  0.1538
  793MOL0     H 7008   6.607   5.489   4.442 -0.7238  0.6334  1.9653
  793MOL0     H 7009   6.534   5.521   4.687 -1.5015 -0.7875  0.3979
  793MOL0     H 7010   6.519   5.690   4.650  0.9207 -0.4935  2.2348
  793MOL0     H 7011   6.744   5.709   4.583 -2.2085  2.6142  3.0074
  793MOL0     H 7012   6.758   5.538   4.602  0.2616  1.2988 -2.3233
  793MOL0     H 7013   6.870   5.628   4.783 -1.0705 -3.2503  1.3707
  793MOL0     H 7014   6.714   5.591   4.862 -1.9541  0.7695 -0.5329
  793MOL0     H 7015   6.949   5.901   4.860  0.4422  0.8121  0.8387
  793MOL0     H 7016   7.086   6.199   4.804  1.3681 -0.9597  0.5963
  793MOL0     H 7017   7.139   6.047   4.771  0.3651 -0.4612 -0.0225
  793MOL0     H 7018   7.117   6.147   4.631  0.3051 -1.1822 -0.4677
  793MOL0     H 7019   6.935   6.350   4.262  0.3245  1.1695 -2.6738
  793MOL0     H 7020   6.945   6.544   4.154  0.9146 -2.8676 -0.1434
  793MOL0     H 7021   6.913   6.795   4.156 -2.1154 -0.0663  2.3226
  793MOL0     H 7022   6.847   6.721   4.004 -0.6264 -1.4056  1.4311
  793MOL0     H 7023   6.738   6.972   4.131 -1.8266 -1.4155 -1.0551
  793MOL0     H 7024   6.884   6.994   4.022  0.2679  0.7989  1.3419
  793MOL0     H 7025   6.620   6.857   3.939 -2.5037  2.7225 -3.3627
  793MOL0     H 7026   6.751   6.886   3.831 -3.9938 -0.9901 -2.5770
  793MOL0     H 7027   6.545   7.070   3.963 -0.7818  0.6044 -1.1431
  793MOL0     H 7028   6.689   7.148   3.889  0.7656 -0.3084 -1.0293
  793MOL0     H 7029   6.507   6.968   3.740  1.0326 -0.9029  0.8656
  793MOL0     H 7030   6.656   7.033   3.677  0.0006 -1.0231 -0.2943
  793MOL0     H 7031   6.415   7.164   3.806  0.9404 -0.0117  1.4454
  793MOL0     H 7032   6.547   7.272   3.754 -0.6146  0.6829 -2.3917
  793MOL0     H 7033   6.401   7.093   3.556 -0.7428 -0.7313  1.4118
  793MOL0     H 7034   6.498   7.225   3.516 -1.9612 -1.1225 -0.1110
  793MOL0     H 7035   6.245   7.281   3.659 -0.6695  0.8783 -0.0301
  793MOL0     H 7036   6.288   7.283   3.484 -0.6072  1.8195  0.2564
  793MOL0     H 7037   6.555   6.663   4.325  0.7089  0.8940 -3.7121
  793MOL0     H 7038   6.574   6.456   4.464 -1.1313  6.7163  0.8567
  793MOL0     H 7039   6.634   6.093   4.537 -1.4477  0.8686  0.9387
  793MOL0     H 7040   6.581   5.898   4.686 -0.4932  2.7066  2.2022
  793MOL0     H 7041   6.102   6.801   4.271  0.6452  0.7930  1.8315
  793MOL0     H 7042   5.918   6.953   4.315  1.5676 -1.8472  0.7004
  793MOL0     H 7043   5.685   7.314   4.097  0.0807  1.1448 -0.4034
  793MOL0     H 7044   5.487   7.450   4.114 -0.4309 -2.7717 -1.2403
  793MOL0     H 7045   5.244   7.478   4.474  0.0718  0.3180 -1.2194
  793MOL0     H 7046   5.357   7.616   4.499 -2.7476  2.6940  1.7152
  793MOL0     H 7047   5.106   7.633   4.344  0.5773  0.6327 -1.1109
  793MOL0     H 7048   5.238   7.751   4.342 -1.3058  1.1500  0.5226
  793MOL0     H 7049   5.208   7.766   4.607  0.0941  1.3841  0.3076
  793MOL0     H 7050   5.065   7.657   4.566 -0.2172  0.3929 -1.4440
  793MOL0     H 7051   4.966   7.825   4.416 -0.0591  1.9945 -2.3464
  793MOL0     H 7052   5.102   7.933   4.433 -0.7743  0.5912  1.4340
  793MOL0     H 7053   4.860   7.994   4.764 -0.4126 -3.0103  0.3581
  793MOL0     H 7054   5.472   7.403   4.539 -2.9837 -1.2098 -0.8046
  793MOL0     H 7055   5.690   7.303   4.536  2.0374  0.7754 -0.5575
  794MOL0     O 7056   4.372   7.869   7.174  0.2430 -0.4013  0.0237
  794MOL0     C 7057   4.383   7.765   7.104 -0.3109  0.7499  0.2670
  794MOL0     O 7058   4.386   7.641   7.144 -0.0815  0.5885 -0.3596
  794MOL0     C 7059   4.354   7.618   7.278  0.2716 -0.3698  0.1157
  794MOL0     C 7060   4.219   7.647   7.321 -0.0995 -0.2219  0.3904
  794MOL0     C 7061   4.184   7.648   7.452  0.0366  0.3271 -0.7824
  794MOL0     C 7062   4.280   7.604   7.548 -0.2987 -0.8299 -0.0653
  794MOL0     O 7063   4.235   7.585   7.680 -0.2502 -0.7158 -0.4934
  794MOL0     C 7064   4.312   7.518   7.783  0.3506  1.2770  0.7022
  794MOL0     C 7065   4.326   7.365   7.764  0.2333  0.6167 -1.0727
  794MOL0     C 7066   4.362   7.296   7.891  1.1319  0.1661 -0.4666
  794MOL0     C 7067   4.513   7.311   7.927 -0.0873  0.0739 -0.8326
  794MOL0     C 7068   4.546   7.213   8.041  0.2464 -0.1458  0.4700
  794MOL0     C 7069   4.455   7.218   8.170  0.5440 -0.2726  0.4583
  794MOL0     C 7070   4.442   7.356   8.234  0.8755  0.0150  0.6676
  794MOL0     C 7071   4.582   7.413   8.279  1.2427 -0.2089  0.2709
  794MOL0     N 7072   4.585   7.559   8.312  1.4542 -0.1006 -0.1110
  794MOL0     C 7073   4.542   7.669   8.243  0.6806 -0.1969  0.4684
  794MOL0     C 7074   4.558   7.770   8.333  0.0018 -0.3128  0.3161
  794MOL0     C 7075   4.499   7.915   8.316 -0.3447 -0.3061 -0.4592
  794MOL0     C 7076   4.351   7.917   8.335 -0.1137 -0.1463 -0.7586
  794MOL0     C 7077   4.277   8.037   8.261 -0.3495 -0.6474 -0.3262
  794MOL0     C 7078   4.263   8.030   8.104 -0.2151  0.1249 -0.6814
  794MOL0     O 7079   4.157   7.930   8.065 -0.3507 -0.3160  0.1111
  794MOL0     C 7080   4.030   7.974   8.067 -0.3308  0.4156  1.0123
  794MOL0     C 7081   3.984   8.101   8.095 -0.1541  0.0715  1.3664
  794MOL0     C 7082   3.853   8.148   8.102  0.7653  0.3299  0.2638
  794MOL0     C 7083   3.845   8.288   8.147  0.8207  0.3140 -0.1280
  794MOL0     C 7084   3.753   8.057   8.060 -0.3361 -0.4791 -1.2753
  794MOL0     C 7085   3.604   8.088   8.058  0.5383 -0.3245 -0.6475
  794MOL0     O 7086   3.564   8.187   8.150 -0.3167 -0.1885  0.1765
  794MOL0     C 7087   3.441   8.252   8.143  0.1553 -0.7756 -0.5620
  794MOL0     C 7088   3.338   8.173   8.200 -0.9420  1.5495 -1.0564
  794MOL0     C 7089   3.201   8.211   8.199  0.0247  0.0397  0.7401
  794MOL0     C 7090   3.170   8.336   8.129  0.8227 -0.0346 -0.5078
  794MOL0     O 7091   3.045   8.386   8.136  0.2388 -0.1172  0.0915
  794MOL0     C 7092   2.942   8.299   8.094  0.4996  0.8873  0.0384
  794MOL0     C 7093   2.841   8.350   8.000 -0.6641  0.9065 -0.0306
  794MOL0     C 7094   2.741   8.232   7.976  0.4434 -0.3594 -0.2567
  794MOL0     C 7095   2.643   8.241   8.097 -0.3169  0.3505  0.5610
  794MOL0     C 7096   2.552   8.126   8.084 -0.4774 -0.1067  0.5971
  794MOL0     C 7097   2.447   8.144   8.199  0.9467 -0.2732  0.1732
  794MOL0     C 7098   2.327   8.052   8.191 -0.3281  0.2216  0.2153
  794MOL0     C 7099   2.226   8.085   8.085 -0.3222  0.1058 -1.5719
  794MOL0    Cl 7100   2.089   7.971   8.084 -0.0632 -0.1361 -0.4896
  794MOL0     C 7101   3.273   8.413   8.067 -0.9478  0.7552 -0.5779
  794MOL0     C 7102   3.414   8.376   8.079 -0.1658 -0.0113 -0.6632
  794MOL0     O 7103   3.529   8.039   7.978 -0.3231 -0.2184 -0.5170
  794MOL0     C 7104   3.793   7.924   8.018 -0.8430 -0.2049 -0.3955
  794MOL0     C 7105   3.929   7.884   8.024  0.1512 -0.0348  1.6579
  794MOL0     N 7106   4.602   7.719   8.452  0.1136  0.5951 -1.2069
  794MOL0     N 7107   4.610   7.591   8.444 -0.6900  0.5977  1.6507
  794MOL0     C 7108   4.409   7.567   7.508  0.1172  0.7512 -0.1488
  794MOL0     C 7109   4.450   7.568   7.369  0.6259 -0.7615  0.8351
  794MOL0     C 7110   4.423   7.785   6.959  0.5129 -0.4657 -0.9314
  794MOL0     C 7111   4.383   7.683   6.864 -0.4801  0.7986 -0.1442
  794MOL0     C 7112   4.413   7.689   6.729  0.3984  0.1359  0.4230
  794MOL0     C 7113   4.496   7.794   6.690  0.0051 -0.1259 -0.2843
  794MOL0     O 7114   4.541   7.811   6.567 -0.0233  0.0603  0.3625
  794MOL0     C 7115   4.597   7.690   6.499 -0.0409 -0.7600 -1.0398
  794MOL0     C 7116   4.663   7.736   6.362  0.1920 -0.2278 -0.4881
  794MOL0     C 7117   4.549   7.774   6.253 -0.5959  0.4346  0.9352
  794MOL0     C 7118   4.621   7.800   6.122 -0.6453  0.0943  0.0552
  794MOL0     C 7119   4.527   7.846   6.023 -0.1103 -0.9942 -0.1162
  794MOL0     C 7120   4.429   7.890   5.962  0.2952  0.4759 -0.3656
  794MOL0     C 7121   4.542   7.892   6.777  0.7517 -0.1145  0.3786
  794MOL0     C 7122   4.515   7.885   6.911 -0.3608  0.1691  0.6570
  794MOL0     H 7123   4.147   7.686   7.251  0.9742  0.6205 -0.2746
  794MOL0     H 7124   4.084   7.677   7.485  1.3925  2.8045  1.5170
  794MOL0     H 7125   4.417   7.548   7.786  1.0018 -0.8374  1.0449
  794MOL0     H 7126   4.274   7.542   7.882  0.1609  1.9015  0.4780
  794MOL0     H 7127   4.230   7.334   7.721  0.8364  1.5477 -3.2027
  794MOL0     H 7128   4.402   7.331   7.693  1.3361 -0.6605  0.6482
  794MOL0     H 7129   4.294   7.336   7.966 -1.8221  0.2261 -2.9635
  794MOL0     H 7130   4.339   7.189   7.880  0.2303  0.4738 -1.8019
  794MOL0     H 7131   4.573   7.284   7.839 -1.2680 -3.3334 -0.7634
  794MOL0     H 7132   4.545   7.412   7.954  1.1858 -1.0370  2.2488
  794MOL0     H 7133   4.546   7.110   8.002  5.8566  0.2827 -1.5881
  794MOL0     H 7134   4.648   7.228   8.076 -0.3456  0.9057  1.8050
  794MOL0     H 7135   4.351   7.188   8.155 -0.0313  1.5218  0.5400
  794MOL0     H 7136   4.496   7.148   8.244  2.1992 -0.3410 -0.4648
  794MOL0     H 7137   4.384   7.428   8.174 -1.1515  0.3205  2.8412
  794MOL0     H 7138   4.383   7.327   8.321 -0.4232 -3.7442 -1.2376
  794MOL0     H 7139   4.647   7.401   8.192 -0.2994  0.4080 -1.0189
  794MOL0     H 7140   4.618   7.355   8.365 -1.0841 -2.3576 -0.0797
  794MOL0     H 7141   4.503   7.669   8.141 -0.4731 -0.6346  0.8920
  794MOL0     H 7142   4.554   7.973   8.392  1.6714 -3.4161  0.6403
  794MOL0     H 7143   4.515   7.960   8.217 -2.2165  0.3645 -0.5017
  794MOL0     H 7144   4.332   7.930   8.442 -2.4178 -1.9228 -0.9006
  794MOL0     H 7145   4.304   7.822   8.312  0.4610 -0.9753  1.2932
  794MOL0     H 7146   4.314   8.136   8.291 -1.4270 -0.5841  0.9123
  794MOL0     H 7147   4.178   8.028   8.306  0.4893 -3.4916  1.1689
  794MOL0     H 7148   4.360   7.993   8.070  1.5235  2.1097  1.7388
  794MOL0     H 7149   4.259   8.128   8.055  1.1150  0.7470  0.3716
  794MOL0     H 7150   4.057   8.177   8.122  1.1172 -1.2569  1.8270
  794MOL0     H 7151   3.938   8.339   8.174 -1.2888  2.7052  3.6320
  794MOL0     H 7152   3.784   8.357   8.089 -0.8429  0.7384  1.9877
  794MOL0     H 7153   3.800   8.288   8.247  0.5830  0.4682 -0.2352
  794MOL0     H 7154   3.368   8.081   8.248 -3.1896  0.9360 -0.7302
  794MOL0     H 7155   3.112   8.164   8.240 -0.4019  0.0726 -0.1157
  794MOL0     H 7156   2.988   8.211   8.047  0.3203  0.3910  0.7691
  794MOL0     H 7157   2.897   8.257   8.184 -0.1571 -1.4421 -1.2817
  794MOL0     H 7158   2.797   8.447   8.024 -0.3066  1.6085 -2.0119
  794MOL0     H 7159   2.885   8.373   7.903  3.2147 -2.4380  0.6474
  794MOL0     H 7160   2.792   8.137   7.965  0.7577 -0.0113 -2.1837
  794MOL0     H 7161   2.679   8.261   7.891  1.3069  0.7870 -0.5146
  794MOL0     H 7162   2.678   8.228   8.200 -1.4300  0.1345  0.9277
  794MOL0     H 7163   2.580   8.330   8.082 -2.8971 -1.3728  0.4863
  794MOL0     H 7164   2.615   8.038   8.099  0.6340  1.1524  4.4480
  794MOL0     H 7165   2.504   8.122   7.985  0.9316 -0.4141 -0.1019
  794MOL0     H 7166   2.499   8.142   8.295 -1.2923  2.0183  1.5486
  794MOL0     H 7167   2.400   8.242   8.202  2.6971  0.5825  1.7170
  794MOL0     H 7168   2.292   8.034   8.293 -3.0005  0.2095 -0.6193
  794MOL0     H 7169   2.365   7.955   8.158 -1.5313 -0.7765  1.6030
  794MOL0     H 7170   2.262   8.102   7.983  3.2166 -1.0212 -0.6326
  794MOL0     H 7171   2.180   8.178   8.120 -1.2960 -0.1135 -2.1944
  794MOL0     H 7172   3.236   8.503   8.019 -0.3045  1.2855 -0.0977
  794MOL0     H 7173   3.496   8.429   8.032 -1.0911  1.0537 -1.1221
  794MOL0     H 7174   3.721   7.851   7.982  2.4281 -5.7684  2.8840
  794MOL0     H 7175   3.948   7.780   8.001 -2.1930  0.2516 -2.5328
  794MOL0     H 7176   4.489   7.538   7.575  0.0488 -0.2596 -0.4989
  794MOL0     H 7177   4.553   7.551   7.338  0.4856  2.7640 -2.1559
  794MOL0     H 7178   4.327   7.602   6.909  0.7298  1.7466  3.3740
  794MOL0     H 7179   4.381   7.608   6.665  0.1220  1.5137 -1.2687
  794MOL0     H 7180   4.668   7.639   6.564  1.1847  0.2434 -1.5520
  794MOL0     H 7181   4.513   7.624   6.477  2.8535 -6.1113  2.0500
  794MOL0     H 7182   4.722   7.651   6.328  0.4815 -0.3483  0.2789
  794MOL0     H 7183   4.732   7.821   6.379 -0.3842  0.4362 -1.3992
  794MOL0     H 7184   4.481   7.856   6.279 -2.7587 -0.9457 -0.0747
  794MOL0     H 7185   4.479   7.690   6.243 -1.3542  1.1434  0.0423
  794MOL0     H 7186   4.671   7.706   6.097 -1.1300 -0.1456 -0.0161
  794MOL0     H 7187   4.694   7.879   6.141 -1.2763  1.0162 -1.2188
  794MOL0     H 7188   4.346   7.925   5.906 -0.5659  1.0307  1.1940
  794MOL0     H 7189   4.610   7.968   6.739  0.3390 -0.1114 -0.3768
  794MOL0     H 7190   4.566   7.955   6.976  1.7008  0.5860 -1.2785
  795MOL0     O 7191   7.686   6.308   7.417  0.4462  0.2049  0.0410
  795MOL0     C 7192   7.792   6.347   7.461  0.0690 -0.3255 -0.6059
  795MOL0     O 7193   7.838   6.335   7.590 -0.1615  0.6484  0.6002
  795MOL0     C 7194   7.778   6.260   7.697  0.7105 -0.4188  0.0800
  795MOL0     C 7195   7.651   6.203   7.693 -0.4178  0.0725  0.7600
  795MOL0     C 7196   7.596   6.126   7.797 -0.5781  0.3309  0.1269
  795MOL0     C 7197   7.663   6.104   7.914 -0.2343 -0.9687 -0.2034
  795MOL0     O 7198   7.609   6.022   8.011 -0.3854 -0.2841 -0.1717
  795MOL0     C 7199   7.696   5.935   8.081 -0.9436 -0.3586  0.6778
  795MOL0     C 7200   7.643   5.800   8.114  0.5414 -0.3039  1.1010
  795MOL0     C 7201   7.754   5.723   8.198 -0.6149  0.0214 -1.4127
  795MOL0     C 7202   7.888   5.690   8.135  0.5088 -0.2739 -0.1669
  795MOL0     C 7203   7.942   5.563   8.205  0.0571  0.0944 -0.2032
  795MOL0     C 7204   8.081   5.515   8.168 -0.0107 -0.6932  0.0453
  795MOL0     C 7205   8.073   5.423   8.044 -0.2128 -0.2204  0.1017
  795MOL0     C 7206   8.213   5.390   7.992 -0.8137 -0.1653 -0.3381
  795MOL0     N 7207   8.227   5.276   7.903 -0.4212 -0.2872 -0.0026
  795MOL0     C 7208   8.224   5.270   7.761  0.4587  0.3678  0.1491
  795MOL0     C 7209   8.258   5.136   7.744  0.8527 -0.7980  0.3403
  795MOL0     C 7210   8.253   5.072   7.608 -0.1660 -0.1600 -0.4893
  795MOL0     C 7211   8.355   4.955   7.624 -0.8792 -0.8688  0.1085
  795MOL0     C 7212   8.359   4.881   7.498  0.2100  0.3927  0.6140
  795MOL0     C 7213   8.442   4.750   7.501 -0.5859 -0.8257 -0.7614
  795MOL0     O 7214   8.427   4.679   7.378 -0.1936 -0.2788  0.3930
  795MOL0     C 7215   8.508   4.568   7.348  0.2751 -0.2911 -1.0175
  795MOL0     C 7216   8.591   4.505   7.436 -0.1987  0.7344  0.6314
  795MOL0     C 7217   8.677   4.400   7.408 -0.8978 -0.6628 -0.0963
  795MOL0     C 7218   8.756   4.347   7.525  1.0934  0.9762 -0.0019
  795MOL0     C 7219   8.675   4.352   7.271  0.2587 -0.1897 -0.4030
  795MOL0     C 7220   8.755   4.236   7.224 -0.5812 -0.3295  0.0715
  795MOL0     O 7221   8.703   4.171   7.120  0.1377 -0.7155 -0.0020
  795MOL0     C 7222   8.778   4.097   7.030  0.3108  0.0577 -1.0985
  795MOL0     C 7223   8.915   4.057   7.027  0.7488  0.6657  0.6447
  795MOL0     C 7224   8.964   3.969   6.925  0.1191  0.3376 -0.1912
  795MOL0     C 7225   8.878   3.916   6.823  0.2961  0.1106  0.9723
  795MOL0     O 7226   8.928   3.838   6.724 -0.6752  0.2241 -0.0353
  795MOL0     C 7227   8.838   3.767   6.633 -0.1232  0.0368 -0.5839
  795MOL0     C 7228   8.917   3.740   6.503  1.6661 -0.3144 -1.2454
  795MOL0     C 7229   9.052   3.662   6.519 -0.9631  0.4047  0.9419
  795MOL0     C 7230   9.176   3.744   6.490  0.2335  1.2410  0.3161
  795MOL0     C 7231   9.214   3.863   6.581  0.0843 -0.3056 -0.6382
  795MOL0     C 7232   9.339   3.943   6.537 -0.2338  1.0596 -0.1217
  795MOL0     C 7233   9.467   3.855   6.529 -0.2348  0.5801 -0.0614
  795MOL0     C 7234   9.591   3.933   6.496 -0.3907  0.5874 -0.3759
  795MOL0    Cl 7235   9.571   4.014   6.342  0.1447 -0.3570 -0.1152
  795MOL0     C 7236   8.741   3.945   6.841 -0.3972 -0.1397 -0.5545
  795MOL0     C 7237   8.697   4.027   6.943  0.2864  0.5554 -0.2842
  795MOL0     O 7238   8.856   4.205   7.283 -0.4005  0.2059 -0.4704
  795MOL0     C 7239   8.596   4.430   7.175 -0.3065  0.4810  0.8838
  795MOL0     C 7240   8.517   4.531   7.218 -0.2471  0.1152  0.0477
  795MOL0     N 7241   8.264   5.072   7.865  0.1377 -0.2707 -0.2237
  795MOL0     N 7242   8.243   5.153   7.962 -1.0473  0.8861 -0.3734
  795MOL0     C 7243   7.782   6.174   7.920 -0.2453 -0.3230  0.1804
  795MOL0     C 7244   7.835   6.253   7.815 -0.3537  0.9821 -1.1936
  795MOL0     C 7245   7.873   6.425   7.359  0.0723 -0.4182 -0.6771
  795MOL0     C 7246   7.818   6.453   7.228 -0.2885  0.1698 -0.3687
  795MOL0     C 7247   7.896   6.531   7.128  1.0729  0.5436  0.4205
  795MOL0     C 7248   8.016   6.577   7.168 -0.0082 -0.0922 -0.7544
  795MOL0     O 7249   8.079   6.651   7.071  0.0308  0.8506  0.3277
  795MOL0     C 7250   8.218   6.665   7.061 -0.4414 -0.0946 -0.2736
  795MOL0     C 7251   8.294   6.523   7.043 -0.3103 -1.2878  0.3476
  795MOL0     C 7252   8.448   6.538   7.016  0.1456  0.6508  0.2985
  795MOL0     C 7253   8.523   6.598   7.144  0.3819 -0.3893 -0.3007
  795MOL0     C 7254   8.512   6.493   7.252  0.3160 -0.0832  0.0670
  795MOL0     C 7255   8.501   6.412   7.341 -0.6296  0.4161 -0.2177
  795MOL0     C 7256   8.068   6.557   7.304  0.0676  1.0297  0.4278
  795MOL0     C 7257   7.999   6.482   7.396  1.5933 -0.8976 -0.6610
  795MOL0     H 7258   7.595   6.223   7.602  2.4699  0.3536 -1.0719
  795MOL0     H 7259   7.494   6.096   7.774 -0.4256 -0.7902  0.7881
  795MOL0     H 7260   7.783   5.924   8.016 -2.5414  0.4617 -1.7448
  795MOL0     H 7261   7.735   5.984   8.171  0.8105 -1.5893  0.6265
  795MOL0     H 7262   7.550   5.800   8.170 -0.5766 -3.1138 -0.5637
  795MOL0     H 7263   7.621   5.739   8.025  1.3034 -1.3642  1.6123
  795MOL0     H 7264   7.760   5.778   8.292 -1.5249 -0.7255 -0.9051
  795MOL0     H 7265   7.715   5.624   8.221  1.1434 -0.4051  0.0027
  795MOL0     H 7266   7.869   5.689   8.028  0.5889  4.6113 -0.4194
  795MOL0     H 7267   7.956   5.774   8.155  1.1321 -0.9650  0.7596
  795MOL0     H 7268   7.941   5.593   8.310 -1.1324  0.0214 -0.1737
  795MOL0     H 7269   7.870   5.481   8.197  0.2266 -0.1897  1.1000
  795MOL0     H 7270   8.138   5.604   8.139  2.5398 -1.4806  2.2956
  795MOL0     H 7271   8.141   5.463   8.242  0.6234 -4.3502 -2.7519
  795MOL0     H 7272   8.015   5.334   8.071 -1.0930 -0.8819 -3.4788
  795MOL0     H 7273   8.012   5.478   7.972  0.9483  0.4114 -0.4147
  795MOL0     H 7274   8.281   5.384   8.076 -0.0972 -1.2524 -0.9674
  795MOL0     H 7275   8.248   5.474   7.931  0.3234 -1.3007 -1.3111
  795MOL0     H 7276   8.214   5.341   7.679 -0.0867 -0.4607 -0.5229
  795MOL0     H 7277   8.150   5.038   7.600  0.2133 -1.3067 -0.7981
  795MOL0     H 7278   8.281   5.148   7.535 -0.0635 -0.4124 -0.7147
  795MOL0     H 7279   8.314   4.886   7.699 -1.3600 -2.2101 -1.3234
  795MOL0     H 7280   8.452   4.993   7.656 -1.3194  0.1663  0.2632
  795MOL0     H 7281   8.396   4.937   7.411 -0.3126 -2.0829 -1.3312
  795MOL0     H 7282   8.257   4.853   7.469 -0.0599  2.1429 -0.3133
  795MOL0     H 7283   8.410   4.696   7.590  2.1920 -1.1848  0.1214
  795MOL0     H 7284   8.546   4.778   7.523 -0.0908 -1.4744 -2.1675
  795MOL0     H 7285   8.590   4.532   7.541  2.9801 -0.2466  1.0226
  795MOL0     H 7286   8.728   4.373   7.627  2.1501 -2.5202  1.3407
  795MOL0     H 7287   8.727   4.242   7.517  1.3536  0.9791 -1.1539
  795MOL0     H 7288   8.860   4.363   7.497  1.3629  0.6216  0.7957
  795MOL0     H 7289   8.987   4.096   7.098  0.6336  0.9190  0.6199
  795MOL0     H 7290   9.069   3.946   6.916  0.8280  1.7592  3.1848
  795MOL0     H 7291   8.793   3.684   6.687  0.8326  0.3914  0.8078
  795MOL0     H 7292   8.760   3.833   6.594  2.8405  2.8478 -2.2775
  795MOL0     H 7293   8.848   3.682   6.441 -0.4094  2.6768 -1.9320
  795MOL0     H 7294   8.929   3.844   6.473  0.1972  0.4079  0.4211
  795MOL0     H 7295   9.059   3.566   6.467  1.2844 -0.5620  2.8317
  795MOL0     H 7296   9.073   3.629   6.621  1.1421  2.3530  1.2123
  795MOL0     H 7297   9.271   3.689   6.480 -0.0637  0.9266 -0.9530
  795MOL0     H 7298   9.157   3.797   6.397 -2.9533 -1.5435 -0.7990
  795MOL0     H 7299   9.237   3.838   6.685  0.1028 -2.0182 -1.0374
  795MOL0     H 7300   9.124   3.925   6.568 -0.1708 -1.0322 -2.8397
  795MOL0     H 7301   9.332   3.973   6.432 -0.6351  0.4062 -0.2919
  795MOL0     H 7302   9.352   4.028   6.604  0.3482 -0.7848  2.2785
  795MOL0     H 7303   9.465   3.788   6.442  2.2873 -0.0348  0.2725
  795MOL0     H 7304   9.477   3.795   6.620  2.0803  1.1730  0.1430
  795MOL0     H 7305   9.676   3.865   6.495 -0.2906  0.6591 -3.0274
  795MOL0     H 7306   9.605   4.009   6.573  2.9092 -0.8056  0.5559
  795MOL0     H 7307   8.659   3.901   6.784 -2.4264  1.5653  0.8809
  795MOL0     H 7308   8.588   4.030   6.950  0.3700  0.3908  2.3573
  795MOL0     H 7309   8.594   4.408   7.069 -1.5389 -0.6344  1.1065
  795MOL0     H 7310   8.460   4.589   7.145 -2.5639  3.3491  4.0050
  795MOL0     H 7311   7.855   6.157   7.999 -0.8011 -1.9267  0.3917
  795MOL0     H 7312   7.932   6.301   7.816  0.2925 -0.2634  0.2597
  795MOL0     H 7313   7.729   6.400   7.194  0.3169 -0.2653 -1.3413
  795MOL0     H 7314   7.866   6.532   7.024  1.2448 -3.1841  0.1972
  795MOL0     H 7315   8.241   6.713   6.965 -0.3733  0.9722  0.2656
  795MOL0     H 7316   8.256   6.722   7.146  1.3433  0.8484 -1.6431
  795MOL0     H 7317   8.247   6.460   6.968 -0.1436 -2.3097  1.0846
  795MOL0     H 7318   8.283   6.472   7.139 -1.3482 -2.3128 -0.2833
  795MOL0     H 7319   8.482   6.599   6.932  0.7242 -0.2126 -0.1125
  795MOL0     H 7320   8.497   6.443   6.994 -1.7896  0.3090 -3.2923
  795MOL0     H 7321   8.483   6.690   7.189  1.9219 -0.7363  1.9184
  795MOL0     H 7322   8.628   6.620   7.123  1.3409  1.5204  5.0408
  795MOL0     H 7323   8.487   6.339   7.418  1.0600  0.4091  0.1173
  795MOL0     H 7324   8.168   6.597   7.316  0.1842  2.5573 -3.8487
  795MOL0     H 7325   8.031   6.475   7.500 -0.0142  2.9518  0.2369
  796MOL0     O 7326   3.647   3.623   5.386 -0.8742 -1.0970 -0.6876
  796MOL0     C 7327   3.580   3.523   5.422 -0.2198  0.4902  0.5677
  796MOL0     O 7328   3.550   3.492   5.552 -0.3861  0.8084 -0.0478
  796MOL0     C 7329   3.592   3.571   5.661  0.0839  0.1118 -0.3839
  796MOL0     C 7330   3.630   3.505   5.775 -0.3918  0.5191 -0.3548
  796MOL0     C 7331   3.642   3.575   5.898  0.7505 -0.2856 -0.1340
  796MOL0     C 7332   3.624   3.712   5.908 -0.8101 -0.2487  0.4930
  796MOL0     O 7333   3.632   3.771   6.033 -0.5413 -0.1665  0.2884
  796MOL0     C 7334   3.570   3.899   6.049  0.1628 -0.3218  0.6189
  796MOL0     C 7335   3.419   3.899   6.036  0.1600 -0.1849  1.1169
  796MOL0     C 7336   3.348   4.025   6.084  0.1707  0.1848 -0.3287
  796MOL0     C 7337   3.316   4.017   6.231 -0.9424 -0.4548  0.3722
  796MOL0     C 7338   3.251   4.160   6.259 -0.2635  0.4242 -0.4002
  796MOL0     C 7339   3.214   4.175   6.415  0.8264 -0.3341  0.2456
  796MOL0     C 7340   3.113   4.287   6.428  0.5699 -1.0650  0.3739
  796MOL0     C 7341   3.110   4.365   6.559  0.9398 -0.4108 -0.2780
  796MOL0     N 7342   2.998   4.463   6.575 -0.5923  0.5565  0.0275
  796MOL0     C 7343   2.973   4.567   6.480 -0.0148 -0.4118  0.5564
  796MOL0     C 7344   2.852   4.619   6.521 -0.5760  0.7887 -0.3864
  796MOL0     C 7345   2.788   4.730   6.446  0.1483 -0.2649  0.3631
  796MOL0     C 7346   2.683   4.807   6.524  0.1904 -0.8151 -0.3614
  796MOL0     C 7347   2.750   4.900   6.612 -0.1590 -0.2547  0.0864
  796MOL0     C 7348   2.659   5.019   6.627  0.4694 -0.4057 -0.4772
  796MOL0     O 7349   2.630   5.088   6.508 -0.6437  0.4275  0.0324
  796MOL0     C 7350   2.606   5.223   6.516  0.1306  0.3532 -0.3521
  796MOL0     C 7351   2.542   5.281   6.623 -0.2846 -0.3763  0.5189
  796MOL0     C 7352   2.515   5.428   6.616 -0.1845  0.0896  0.4673
  796MOL0     C 7353   2.465   5.493   6.750  0.6776  0.3904 -0.3539
  796MOL0     C 7354   2.542   5.495   6.495 -0.8503  0.1800  0.9697
  796MOL0     C 7355   2.493   5.636   6.475 -0.3597  1.1658  0.0315
  796MOL0     O 7356   2.511   5.700   6.356 -0.5423 -0.0626  0.0764
  796MOL0     C 7357   2.461   5.821   6.319 -0.3752  0.1877 -0.9559
  796MOL0     C 7358   2.496   5.862   6.186  0.4458  0.6575  0.4903
  796MOL0     C 7359   2.445   5.978   6.124  0.5181 -0.4317  0.4192
  796MOL0     C 7360   2.347   6.050   6.194 -0.0360 -0.9583 -0.6557
  796MOL0     O 7361   2.267   6.148   6.140 -0.3751 -0.5034  0.8769
  796MOL0     C 7362   2.208   6.130   6.008  0.0046  0.1769 -0.3426
  796MOL0     C 7363   2.258   6.238   5.906  0.3190  0.2235 -0.3334
  796MOL0     C 7364   2.168   6.359   5.895 -0.6266  0.1666  0.3161
  796MOL0     C 7365   2.224   6.456   5.790  0.3958 -0.5878 -0.6532
  796MOL0     C 7366   2.136   6.574   5.774  0.1263  0.1827 -0.6533
  796MOL0     C 7367   1.996   6.546   5.716  0.9208 -0.0558  0.5733
  796MOL0     C 7368   1.914   6.667   5.720 -0.6906 -1.2351  0.7671
  796MOL0     C 7369   1.800   6.673   5.624 -0.3325  0.4032 -0.1971
  796MOL0    Cl 7370   1.685   6.544   5.671 -0.1313 -0.2442  0.2915
  796MOL0     C 7371   2.316   6.014   6.327 -0.6894 -0.4730  0.4122
  796MOL0     C 7372   2.381   5.906   6.387  0.3328 -0.1873  0.4658
  796MOL0     O 7373   2.429   5.692   6.570  0.9006  0.6018 -0.6625
  796MOL0     C 7374   2.612   5.429   6.393 -0.0683 -0.2330 -0.4397
  796MOL0     C 7375   2.648   5.292   6.400  0.7985 -0.0453 -0.2854
  796MOL0     N 7376   2.816   4.553   6.641 -0.2236  0.7260  0.0543
  796MOL0     N 7377   2.891   4.448   6.659  0.3956 -0.5079 -0.0119
  796MOL0     C 7378   3.590   3.778   5.789 -1.0152 -0.4042 -0.2553
  796MOL0     C 7379   3.586   3.712   5.665  0.2136 -0.2842 -0.4209
  796MOL0     C 7380   3.531   3.426   5.309  1.5946 -0.5132  0.6959
  796MOL0     C 7381   3.572   3.438   5.172 -0.1323  0.0417 -0.4333
  796MOL0     C 7382   3.519   3.364   5.070  1.0271  0.1076  0.4525
  796MOL0     C 7383   3.421   3.261   5.098  0.2683 -0.2183 -0.4949
  796MOL0     O 7384   3.351   3.182   5.007 -0.0353 -0.0647 -0.7524
  796MOL0     C 7385   3.393   3.171   4.872  0.3129 -1.0062  1.2554
  796MOL0     C 7386   3.541   3.117   4.835 -0.0872  0.4068  0.6105
  796MOL0     C 7387   3.538   2.970   4.858 -0.7686  0.4132 -0.9394
  796MOL0     C 7388   3.413   2.885   4.812  0.1655 -1.0333  0.4971
  796MOL0     C 7389   3.442   2.740   4.828  0.7674  0.0008 -0.0983
  796MOL0     C 7390   3.466   2.615   4.836  0.5390  0.0145 -0.2491
  796MOL0     C 7391   3.380   3.246   5.233  0.7190 -0.7309  1.4406
  796MOL0     C 7392   3.430   3.326   5.332  1.3464 -0.5763  0.6385
  796MOL0     H 7393   3.628   3.396   5.773 -0.6372  0.4230  1.9205
  796MOL0     H 7394   3.674   3.523   5.988 -2.0080  1.5522  2.1199
  796MOL0     H 7395   3.586   3.926   6.153 -0.5229 -1.6762  1.1090
  796MOL0     H 7396   3.618   3.983   5.998 -0.1820 -0.8151 -0.5766
  796MOL0     H 7397   3.393   3.890   5.930  2.6438  0.6465  0.3731
  796MOL0     H 7398   3.383   3.805   6.078 -1.0564 -0.1865  0.1547
  796MOL0     H 7399   3.408   4.111   6.054  0.0846  0.9739  1.6165
  796MOL0     H 7400   3.250   4.036   6.038 -1.2588  0.2381  2.5194
  796MOL0     H 7401   3.238   3.941   6.240 -1.9337  0.1537 -2.1844
  796MOL0     H 7402   3.403   4.001   6.296 -1.3538 -0.1416  1.0195
  796MOL0     H 7403   3.318   4.239   6.226 -0.2188 -0.2297 -1.9722
  796MOL0     H 7404   3.160   4.167   6.199  2.0982  0.6389 -4.2905
  796MOL0     H 7405   3.178   4.080   6.456 -1.6046  1.7833  3.5103
  796MOL0     H 7406   3.305   4.197   6.471  1.4258 -3.1550  0.5677
  796MOL0     H 7407   3.138   4.360   6.350 -1.0859 -0.3855  0.4332
  796MOL0     H 7408   3.012   4.253   6.401 -0.3710  1.6850  0.0377
  796MOL0     H 7409   3.206   4.418   6.564  1.3150 -0.9674 -1.2733
  796MOL0     H 7410   3.101   4.297   6.643 -0.7293 -2.0288 -1.6941
  796MOL0     H 7411   3.034   4.600   6.397 -1.7575  0.0415 -0.5942
  796MOL0     H 7412   2.861   4.787   6.388 -1.4803 -0.0974 -1.6725
  796MOL0     H 7413   2.734   4.690   6.360 -0.1580  0.3678  0.2527
  796MOL0     H 7414   2.636   4.724   6.578  2.0604 -2.2763 -0.8719
  796MOL0     H 7415   2.616   4.859   6.455  2.5440  2.9344 -0.0917
  796MOL0     H 7416   2.835   4.947   6.560 -0.1254  0.7378  0.9855
  796MOL0     H 7417   2.776   4.859   6.710 -0.3640 -0.0436  0.2320
  796MOL0     H 7418   2.713   5.091   6.690  0.7031  0.0090 -1.1450
  796MOL0     H 7419   2.568   4.986   6.678 -1.1133  1.9195 -1.6135
  796MOL0     H 7420   2.514   5.224   6.711 -2.8033 -1.1327 -0.6912
  796MOL0     H 7421   2.448   5.421   6.831  0.0170  0.2687 -0.5894
  796MOL0     H 7422   2.535   5.568   6.787  0.0341 -0.0930  1.9971
  796MOL0     H 7423   2.373   5.549   6.730 -0.1311 -0.7113  0.1485
  796MOL0     H 7424   2.561   5.794   6.131 -0.0316  1.5237 -1.2113
  796MOL0     H 7425   2.471   5.994   6.020 -2.5495  1.5663 -0.1809
  796MOL0     H 7426   2.231   6.031   5.967 -2.1747  0.0738 -1.4793
  796MOL0     H 7427   2.098   6.132   6.013  0.0347 -1.1513  2.1694
  796MOL0     H 7428   2.362   6.266   5.919 -0.1084  0.9409  2.0980
  796MOL0     H 7429   2.264   6.177   5.816 -0.7418 -0.7597  0.2299
  796MOL0     H 7430   2.174   6.411   5.991  1.3480  0.6584 -0.0345
  796MOL0     H 7431   2.066   6.331   5.868  0.0467 -2.1835 -0.0880
  796MOL0     H 7432   2.312   6.501   5.836  0.9344  1.0129 -3.0846
  796MOL0     H 7433   2.251   6.409   5.695  3.3707 -2.2339  0.8724
  796MOL0     H 7434   2.183   6.638   5.699 -1.8674  1.0366 -1.2284
  796MOL0     H 7435   2.132   6.630   5.868 -3.2491 -3.0092  1.3996
  796MOL0     H 7436   2.004   6.505   5.615  3.7737 -0.3762  0.8347
  796MOL0     H 7437   1.958   6.471   5.787 -0.1982  0.7250  0.8199
  796MOL0     H 7438   1.979   6.751   5.695 -0.9782 -1.8094 -2.3136
  796MOL0     H 7439   1.877   6.691   5.819 -4.0064  1.3153 -0.8913
  796MOL0     H 7440   1.820   6.647   5.520 -3.0157 -0.2102 -0.6469
  796MOL0     H 7441   1.750   6.770   5.620 -3.4601 -0.9914  1.3584
  796MOL0     H 7442   2.240   6.075   6.374 -1.0914  0.6375 -1.5688
  796MOL0     H 7443   2.354   5.888   6.491  1.6752 -0.3746  0.7972
  796MOL0     H 7444   2.609   5.474   6.295  0.4889 -1.3008 -0.9611
  796MOL0     H 7445   2.693   5.248   6.312  0.3023 -0.3228 -0.4093
  796MOL0     H 7446   3.579   3.886   5.792 -0.4353 -0.2148 -2.6383
  796MOL0     H 7447   3.558   3.760   5.572  4.0785 -1.1156 -2.2232
  796MOL0     H 7448   3.641   3.519   5.153 -0.5566  0.6032  0.3964
  796MOL0     H 7449   3.552   3.370   4.967 -2.7069 -1.1280 -0.9789
  796MOL0     H 7450   3.324   3.106   4.817 -0.7968 -0.2128  1.6750
  796MOL0     H 7451   3.376   3.270   4.829 -1.7964 -1.0636  1.8502
  796MOL0     H 7452   3.617   3.155   4.903 -0.3961  1.6213  0.3166
  796MOL0     H 7453   3.564   3.134   4.729 -2.8695  1.1596  0.0233
  796MOL0     H 7454   3.544   2.946   4.965 -0.8876 -0.4916 -1.1266
  796MOL0     H 7455   3.631   2.931   4.815  0.1569 -0.9216  2.0301
  796MOL0     H 7456   3.389   2.902   4.707  0.1216  0.0056  0.6645
  796MOL0     H 7457   3.329   2.917   4.875  2.1271 -0.2854  2.9210
  796MOL0     H 7458   3.479   2.509   4.841 -1.7420 -0.2697  0.8093
  796MOL0     H 7459   3.312   3.162   5.238 -1.6761  0.7950 -1.7943
  796MOL0     H 7460   3.389   3.307   5.431  0.5317 -1.6528  0.1041
  797MOL0     O 7461   4.568   2.792   0.837 -0.2735  0.4058  0.8241
  797MOL0     C 7462   4.651   2.817   0.922  0.3930 -0.9986 -0.0679
  797MOL0     O 7463   4.665   2.746   1.044 -0.2206 -0.6593  0.4379
  797MOL0     C 7464   4.585   2.641   1.082  0.3921  0.2328 -0.0094
  797MOL0     C 7465   4.499   2.564   1.002 -0.4535 -0.4405  0.8217
  797MOL0     C 7466   4.413   2.468   1.048 -0.0903  0.6477  0.0141
  797MOL0     C 7467   4.415   2.441   1.188  0.4885  0.0652 -0.0277
  797MOL0     O 7468   4.327   2.360   1.250  1.4811 -0.4562  0.4367
  797MOL0     C 7469   4.209   2.300   1.186 -0.1134  0.8050  0.2974
  797MOL0     C 7470   4.116   2.230   1.279  0.0017  1.0063  0.4580
  797MOL0     C 7471   4.074   2.326   1.391  0.5002  0.0264 -0.8850
  797MOL0     C 7472   4.164   2.324   1.524  0.2383  1.7449  0.8538
  797MOL0     C 7473   4.143   2.438   1.618 -0.0166  0.5599  0.0244
  797MOL0     C 7474   4.041   2.416   1.724 -0.0574 -0.3750  0.1038
  797MOL0     C 7475   4.062   2.514   1.848 -0.1605 -0.9916  0.2029
  797MOL0     C 7476   3.950   2.499   1.959 -0.7753 -0.1950  0.4377
  797MOL0     N 7477   3.973   2.604   2.063  0.4617  0.3422  0.5073
  797MOL0     C 7478   4.076   2.593   2.153 -0.0336  1.1742 -0.7423
  797MOL0     C 7479   4.053   2.683   2.244  0.1481 -0.6990 -0.6765
  797MOL0     C 7480   4.147   2.701   2.361 -0.8116  0.5315 -0.1381
  797MOL0     C 7481   4.214   2.833   2.342 -0.6837  0.3446  0.3584
  797MOL0     C 7482   4.125   2.959   2.372 -0.0255 -0.6786  0.0361
  797MOL0     C 7483   4.210   3.066   2.438 -0.8780 -0.3430 -0.6336
  797MOL0     O 7484   4.137   3.130   2.546 -0.3672  0.2042 -0.0889
  797MOL0     C 7485   4.174   3.248   2.605 -0.1854  0.4376 -0.3351
  797MOL0     C 7486   4.269   3.325   2.551 -0.7473 -1.0941  0.9147
  797MOL0     C 7487   4.320   3.441   2.614 -0.4600 -0.6736  0.0449
  797MOL0     C 7488   4.452   3.507   2.561 -0.1556  0.9049  0.1127
  797MOL0     C 7489   4.263   3.478   2.740  0.2586  1.2648  0.4725
  797MOL0     C 7490   4.298   3.599   2.828  0.1458 -0.1977  0.0477
  797MOL0     O 7491   4.339   3.707   2.757 -0.7034  0.7337 -0.4916
  797MOL0     C 7492   4.352   3.830   2.810 -0.2976 -0.0408 -0.1486
  797MOL0     C 7493   4.384   3.940   2.721 -0.8007 -0.1427 -0.6570
  797MOL0     C 7494   4.392   4.080   2.765  0.2469  0.2771 -0.0446
  797MOL0     C 7495   4.368   4.111   2.901  0.4352 -1.0824  0.4155
  797MOL0     O 7496   4.359   4.242   2.952  0.1500  0.8795  0.4293
  797MOL0     C 7497   4.438   4.345   2.894 -0.1006  0.2134  0.5625
  797MOL0     C 7498   4.433   4.471   2.975 -0.5235 -0.5122 -0.1027
  797MOL0     C 7499   4.492   4.465   3.123  0.8305  0.0930 -0.4655
  797MOL0     C 7500   4.391   4.427   3.233  0.3693  0.3757 -0.5912
  797MOL0     C 7501   4.455   4.445   3.375  0.5057 -0.2258 -0.7716
  797MOL0     C 7502   4.336   4.431   3.471 -0.1993 -0.6190  0.1209
  797MOL0     C 7503   4.266   4.571   3.489 -0.0810 -0.4382  0.0167
  797MOL0     C 7504   4.126   4.567   3.537  0.1563 -0.3799 -0.6281
  797MOL0    Cl 7505   4.018   4.506   3.407 -0.2800  0.1091 -0.2214
  797MOL0     C 7506   4.342   4.005   2.985 -0.1191  0.2110  0.0126
  797MOL0     C 7507   4.321   3.869   2.941  0.7120 -0.3458  0.4558
  797MOL0     O 7508   4.287   3.593   2.948 -0.4410 -0.2088 -0.0494
  797MOL0     C 7509   4.180   3.386   2.802  0.7732  0.2325 -0.5379
  797MOL0     C 7510   4.131   3.273   2.739  0.5558 -0.6343  0.5026
  797MOL0     N 7511   3.930   2.744   2.228  0.0823  0.2387 -0.1221
  797MOL0     N 7512   3.888   2.703   2.105 -0.0946 -1.3302  0.0966
  797MOL0     C 7513   4.491   2.526   1.274  0.0490 -0.7490  0.0665
  797MOL0     C 7514   4.583   2.626   1.219  0.9254  1.3707 -0.3618
  797MOL0     C 7515   4.736   2.933   0.902 -0.6413 -0.2356  0.4472
  797MOL0     C 7516   4.734   3.010   0.786 -0.5368  0.4098 -0.2367
  797MOL0     C 7517   4.833   3.114   0.763 -0.5969  0.4289  0.0433
  797MOL0     C 7518   4.929   3.140   0.857 -0.7958  0.6306  0.8100
  797MOL0     O 7519   5.013   3.251   0.842 -0.2899  0.1548 -0.3234
  797MOL0     C 7520   5.017   3.328   0.722  0.1744  0.3263  0.3374
  797MOL0     C 7521   5.108   3.451   0.732 -0.6609  0.2806  0.2373
  797MOL0     C 7522   5.253   3.398   0.721  0.1504 -0.2720 -0.2405
  797MOL0     C 7523   5.340   3.506   0.675 -0.3691  0.0574  0.4386
  797MOL0     C 7524   5.313   3.545   0.535  0.2882 -0.4354 -0.0210
  797MOL0     C 7525   5.298   3.579   0.420 -0.7501  1.0967  0.2366
  797MOL0     C 7526   4.923   3.064   0.980  0.2472 -0.1737  0.1740
  797MOL0     C 7527   4.838   2.952   0.987 -0.7737  0.1171  0.1760
  797MOL0     H 7528   4.499   2.566   0.894  1.1158 -0.5204  0.8106
  797MOL0     H 7529   4.355   2.413   0.975 -0.2640  1.2333 -0.2979
  797MOL0     H 7530   4.161   2.373   1.120 -0.0096  4.4389  3.7964
  797MOL0     H 7531   4.262   2.222   1.131  0.2437  0.8568  0.5651
  797MOL0     H 7532   4.027   2.193   1.229  1.1663  0.7036 -1.4855
  797MOL0     H 7533   4.167   2.140   1.314 -0.7539 -1.6040 -4.3315
  797MOL0     H 7534   4.076   2.431   1.359  1.3658 -0.2606 -1.8441
  797MOL0     H 7535   3.973   2.294   1.416  1.4355 -1.6227  1.0543
  797MOL0     H 7536   4.168   2.224   1.567  0.9423  0.1036 -2.6456
  797MOL0     H 7537   4.263   2.334   1.480  0.5637  4.6221  1.9773
  797MOL0     H 7538   4.234   2.441   1.680  0.5588 -1.0672 -0.6910
  797MOL0     H 7539   4.134   2.531   1.562  0.8107  0.1095 -0.8943
  797MOL0     H 7540   3.939   2.425   1.688 -0.2620 -1.1595  0.4689
  797MOL0     H 7541   4.064   2.318   1.766  3.5023  0.7824  1.2801
  797MOL0     H 7542   4.159   2.491   1.893  0.2078 -2.5023 -1.2894
  797MOL0     H 7543   4.066   2.620   1.818 -0.8880 -0.5774  1.4944
  797MOL0     H 7544   3.958   2.394   1.990  3.2474 -1.4035 -3.5596
  797MOL0     H 7545   3.854   2.515   1.909  0.5722  2.5166 -1.5289
  797MOL0     H 7546   4.161   2.526   2.155 -2.3479 -1.9838  2.0360
  797MOL0     H 7547   4.087   2.693   2.452 -1.1114 -1.3192 -0.4632
  797MOL0     H 7548   4.216   2.615   2.367 -0.7335  0.6223  0.3403
  797MOL0     H 7549   4.241   2.842   2.236 -0.6659  1.5813  0.4501
  797MOL0     H 7550   4.309   2.840   2.394  0.6452  0.6034 -1.9472
  797MOL0     H 7551   4.052   2.922   2.446 -0.0734  2.4746  1.7409
  797MOL0     H 7552   4.075   2.995   2.281 -0.2053  0.4292  0.5576
  797MOL0     H 7553   4.236   3.137   2.359  1.4064  0.4163  0.7204
  797MOL0     H 7554   4.294   3.018   2.488 -0.9033  2.2710  2.2761
  797MOL0     H 7555   4.322   3.299   2.459 -0.4485 -0.1891  0.8204
  797MOL0     H 7556   4.526   3.443   2.609 -1.9179 -2.0530 -0.8302
  797MOL0     H 7557   4.453   3.482   2.454 -2.3365 -4.0847  0.9193
  797MOL0     H 7558   4.460   3.614   2.576 -1.5172  1.0233  0.1838
  797MOL0     H 7559   4.408   3.914   2.618  0.6551  0.8241 -0.5880
  797MOL0     H 7560   4.411   4.160   2.695  2.0014 -0.6728 -0.7037
  797MOL0     H 7561   4.543   4.317   2.887  0.1865  1.4384 -0.5308
  797MOL0     H 7562   4.403   4.379   2.796 -0.7885 -1.0445  0.3425
  797MOL0     H 7563   4.505   4.541   2.932 -1.4190  0.8998  0.6130
  797MOL0     H 7564   4.329   4.502   2.987 -1.4130 -3.9866  3.2204
  797MOL0     H 7565   4.515   4.570   3.147  3.6092  0.7177 -4.6855
  797MOL0     H 7566   4.589   4.418   3.136  1.6548  2.3011  2.3946
  797MOL0     H 7567   4.303   4.492   3.224  0.3667  0.9923  2.8462
  797MOL0     H 7568   4.347   4.329   3.213  0.8388  0.6233 -3.2988
  797MOL0     H 7569   4.526   4.527   3.389  2.2296 -1.5515 -1.2667
  797MOL0     H 7570   4.508   4.350   3.393 -0.8852 -1.5289 -3.0789
  797MOL0     H 7571   4.263   4.363   3.427  0.0620  1.2730 -3.6065
  797MOL0     H 7572   4.378   4.409   3.570 -0.0542  3.0105  1.0245
  797MOL0     H 7573   4.264   4.614   3.389  0.9412 -0.3229  0.0350
  797MOL0     H 7574   4.324   4.644   3.547  0.8188 -0.6855 -0.5556
  797MOL0     H 7575   4.116   4.675   3.551 -0.3556  0.0540 -3.6429
  797MOL0     H 7576   4.122   4.519   3.635  0.0979 -0.0693 -0.4778
  797MOL0     H 7577   4.315   4.010   3.090 -3.8385 -1.5186 -0.6892
  797MOL0     H 7578   4.280   3.811   3.024  0.0824 -0.6390 -0.0548
  797MOL0     H 7579   4.141   3.415   2.899  1.6705  2.3114 -0.7336
  797MOL0     H 7580   4.051   3.215   2.784 -2.8951  3.4068  0.2651
  797MOL0     H 7581   4.486   2.525   1.382  0.2618 -0.4715  0.0795
  797MOL0     H 7582   4.639   2.691   1.286  0.3491  1.1881  0.3179
  797MOL0     H 7583   4.665   2.977   0.708  0.6436 -0.6950 -0.8584
  797MOL0     H 7584   4.847   3.168   0.670  1.3720 -1.8634 -1.1058
  797MOL0     H 7585   5.066   3.258   0.654  2.3861  1.9134  0.2229
  797MOL0     H 7586   4.921   3.354   0.675  0.1573  1.7761  1.1300
  797MOL0     H 7587   5.086   3.499   0.828  0.8782 -1.0294  1.2912
  797MOL0     H 7588   5.073   3.523   0.657 -2.0687  0.2273  0.8055
  797MOL0     H 7589   5.266   3.306   0.662  0.7795  0.0820 -0.6544
  797MOL0     H 7590   5.281   3.374   0.824  2.2050 -1.1807 -0.9641
  797MOL0     H 7591   5.442   3.473   0.693 -0.2920 -0.1163 -0.3095
  797MOL0     H 7592   5.307   3.586   0.742 -1.4143  0.8484 -0.9661
  797MOL0     H 7593   5.291   3.594   0.314 -2.6313 -0.9180 -0.0114
  797MOL0     H 7594   4.983   3.098   1.064  1.9745  0.4597 -1.2582
  797MOL0     H 7595   4.861   2.882   1.066  2.7615  0.2556 -0.5703
  798MOL0     O 7596   0.683   6.819   2.397 -0.3832  0.1959 -1.0914
  798MOL0     C 7597   0.700   6.761   2.290  0.4186  0.7055  0.5487
  798MOL0     O 7598   0.620   6.785   2.177  0.7832 -0.9369 -0.8349
  798MOL0     C 7599   0.514   6.868   2.210  0.6487 -0.2538  1.0484
  798MOL0     C 7600   0.522   7.015   2.223  0.2806 -0.4072 -0.2408
  798MOL0     C 7601   0.416   7.098   2.244  0.2935  0.8311 -0.1133
  798MOL0     C 7602   0.291   7.042   2.251  0.0668  0.7889 -0.4335
  798MOL0     O 7603   0.192   7.128   2.285  0.6946  0.0544 -0.0281
  798MOL0     C 7604   0.097   7.155   2.173  0.1218 -0.1463  0.1867
  798MOL0     C 7605  -0.039   7.192   2.223 -0.7425  0.0908 -0.3473
  798MOL0     C 7606  -0.030   7.290   2.336  0.8418  0.5853 -1.0336
  798MOL0     C 7607  -0.165   7.319   2.392 -0.6265 -0.5728 -0.6465
  798MOL0     C 7608  -0.158   7.384   2.528  0.6395 -0.2316 -1.0621
  798MOL0     C 7609  -0.095   7.526   2.528  0.2094  0.4792  0.5577
  798MOL0     C 7610  -0.145   7.601   2.649 -0.1369 -0.0783 -0.1286
  798MOL0     C 7611  -0.056   7.730   2.689 -0.3381  0.8332  0.0837
  798MOL0     N 7612  -0.039   7.810   2.566 -0.3217  0.3006 -0.4403
  798MOL0     C 7613  -0.129   7.846   2.466 -0.2185  0.6285 -0.4103
  798MOL0     C 7614  -0.072   7.936   2.385 -0.9936 -0.1346  0.8246
  798MOL0     C 7615  -0.126   8.010   2.260 -0.6741  0.6726  1.0912
  798MOL0     C 7616  -0.177   8.149   2.289  0.2839  1.3786  0.4522
  798MOL0     C 7617  -0.196   8.236   2.156  0.4317 -0.5370  0.3022
  798MOL0     C 7618  -0.267   8.365   2.188 -0.2980 -0.3477 -0.1739
  798MOL0     O 7619  -0.395   8.362   2.138 -0.2025 -0.4740 -0.2556
  798MOL0     C 7620  -0.466   8.478   2.147  0.8268  0.7239 -0.6512
  798MOL0     C 7621  -0.573   8.499   2.051  0.3002 -0.7711 -0.6401
  798MOL0     C 7622  -0.663   8.615   2.038 -0.5389  1.0027 -0.1809
  798MOL0     C 7623  -0.744   8.629   1.913 -0.8464  0.9043 -1.1315
  798MOL0     C 7624  -0.651   8.709   2.142  0.5080 -0.3523 -0.4214
  798MOL0     C 7625  -0.713   8.842   2.130 -0.1118 -0.4803  1.0131
  798MOL0     O 7626  -0.659   8.912   2.031 -0.5173  0.1615 -0.6217
  798MOL0     C 7627  -0.705   9.047   2.024 -0.1923 -0.2693 -0.5432
  798MOL0     C 7628  -0.638   9.142   2.101  0.5772  0.0512  0.2690
  798MOL0     C 7629  -0.688   9.275   2.099  0.5021 -0.5116 -0.1259
  798MOL0     C 7630  -0.793   9.310   2.019  0.3118  0.5162  0.2464
  798MOL0     O 7631  -0.841   9.435   2.032  0.0559  0.0952  0.3531
  798MOL0     C 7632  -0.974   9.470   2.004 -0.2135 -0.2338  1.1900
  798MOL0     C 7633  -1.015   9.592   2.081 -0.9451 -0.5057  0.5242
  798MOL0     C 7634  -1.014   9.586   2.237 -0.4240 -0.0605  0.0084
  798MOL0     C 7635  -0.958   9.713   2.309  0.1220 -1.1043 -0.4785
  798MOL0     C 7636  -1.043   9.841   2.286  0.0729  0.0589  0.2015
  798MOL0     C 7637  -1.189   9.825   2.327  1.0795 -0.0106  0.7795
  798MOL0     C 7638  -1.198   9.783   2.480 -0.0693 -0.1180  1.2363
  798MOL0     C 7639  -1.333   9.815   2.544 -0.5819  0.5883 -0.0759
  798MOL0    Cl 7640  -1.458   9.721   2.465  0.4441  0.3310 -0.0135
  798MOL0     C 7641  -0.856   9.209   1.930 -0.2123 -0.1463  0.0875
  798MOL0     C 7642  -0.809   9.080   1.939 -0.3233  0.6808  0.4509
  798MOL0     O 7643  -0.796   8.884   2.212 -0.0670  0.3371 -0.9927
  798MOL0     C 7644  -0.554   8.686   2.238 -0.9408  0.2260 -0.1188
  798MOL0     C 7645  -0.464   8.578   2.244  0.0585  0.4248 -0.2399
  798MOL0     N 7646   0.056   7.964   2.443 -0.1647 -0.5367  0.2257
  798MOL0     N 7647   0.078   7.882   2.535  0.0822  0.0556 -0.5491
  798MOL0     C 7648   0.267   6.906   2.228 -0.1979  0.4624  0.6594
  798MOL0     C 7649   0.379   6.823   2.202 -0.4391 -1.1463  0.0131
  798MOL0     C 7650   0.808   6.655   2.281  0.2275 -0.2264 -0.1637
  798MOL0     C 7651   0.895   6.623   2.387  0.0966  0.2563 -0.2336
  798MOL0     C 7652   0.995   6.527   2.380  1.0821 -0.0002 -1.2230
  798MOL0     C 7653   1.006   6.457   2.265  0.4817 -0.1976  0.3889
  798MOL0     O 7654   1.097   6.355   2.266  0.6272 -0.0370  0.6520
  798MOL0     C 7655   1.029   6.223   2.244 -0.8680 -0.5930  1.3900
  798MOL0     C 7656   1.110   6.109   2.296  0.7984  0.2265 -0.5885
  798MOL0     C 7657   1.115   6.115   2.451  0.4531  0.2085  0.1472
  798MOL0     C 7658   1.175   6.229   2.523  0.4501  0.7096  0.2601
  798MOL0     C 7659   1.242   6.175   2.642 -0.9229 -0.5520  0.0207
  798MOL0     C 7660   1.281   6.126   2.747 -0.3476  0.6917  0.7421
  798MOL0     C 7661   0.932   6.491   2.153  0.0563 -0.0212  0.2257
  798MOL0     C 7662   0.827   6.587   2.162 -0.5187 -0.9294 -0.6836
  798MOL0     H 7663   0.619   7.060   2.243  0.7030 -1.2846 -0.2263
  798MOL0     H 7664   0.425   7.205   2.256  0.1888  0.8618 -0.2936
  798MOL0     H 7665   0.137   7.240   2.117  3.8536 -0.9113  1.4314
  798MOL0     H 7666   0.075   7.076   2.100 -0.2561  1.3213 -1.3534
  798MOL0     H 7667  -0.087   7.239   2.136  0.7918  0.3192 -1.1091
  798MOL0     H 7668  -0.085   7.097   2.252  3.0105 -1.8406 -0.1951
  798MOL0     H 7669   0.019   7.244   2.422  0.7067  0.3829 -1.0672
  798MOL0     H 7670   0.027   7.381   2.313  1.2466  0.3454 -0.9849
  798MOL0     H 7671  -0.210   7.386   2.318  2.5282  3.7378  0.8463
  798MOL0     H 7672  -0.213   7.222   2.401 -2.0099 -0.1685 -2.8616
  798MOL0     H 7673  -0.260   7.399   2.566  1.9123  2.7639  1.6275
  798MOL0     H 7674  -0.112   7.318   2.601 -0.0960 -2.6921 -2.6920
  798MOL0     H 7675   0.012   7.507   2.524 -0.2305 -2.2287 -0.1474
  798MOL0     H 7676  -0.137   7.572   2.438 -2.8168 -2.6487  0.1508
  798MOL0     H 7677  -0.249   7.632   2.637 -0.3363  0.9260  3.1903
  798MOL0     H 7678  -0.141   7.533   2.735  2.1719 -0.5203 -0.4985
  798MOL0     H 7679   0.040   7.699   2.731 -2.2204 -4.9020  1.0427
  798MOL0     H 7680  -0.112   7.781   2.768 -0.7225  0.3714  0.1120
  798MOL0     H 7681  -0.233   7.818   2.458 -1.1588  1.1605  5.6055
  798MOL0     H 7682  -0.033   8.009   2.201 -0.9732 -1.2858  0.5728
  798MOL0     H 7683  -0.199   7.962   2.194 -0.9194  4.0753 -1.3972
  798MOL0     H 7684  -0.110   8.191   2.365  3.2350 -0.7414 -0.7642
  798MOL0     H 7685  -0.273   8.148   2.341  0.5169  0.4836  0.8773
  798MOL0     H 7686  -0.254   8.172   2.089  0.7032  0.4952 -0.9518
  798MOL0     H 7687  -0.106   8.254   2.097  0.4761 -0.6981  0.3182
  798MOL0     H 7688  -0.206   8.453   2.167 -2.5727  0.7759 -2.6954
  798MOL0     H 7689  -0.280   8.361   2.297  0.4864 -2.4200 -0.1082
  798MOL0     H 7690  -0.570   8.427   1.970  0.7271 -2.9193  1.1826
  798MOL0     H 7691  -0.810   8.543   1.912  1.7014 -1.3095  1.4694
  798MOL0     H 7692  -0.788   8.729   1.901 -0.2370  1.3948  0.4152
  798MOL0     H 7693  -0.664   8.616   1.840  0.8877 -0.6181  0.9153
  798MOL0     H 7694  -0.559   9.098   2.159  0.0680 -4.8418 -2.1929
  798MOL0     H 7695  -0.647   9.346   2.170  0.5762 -1.5016  0.8536
  798MOL0     H 7696  -0.989   9.482   1.896 -0.3391  2.1452  1.4147
  798MOL0     H 7697  -1.036   9.386   2.038  0.1304 -2.1083 -2.3674
  798MOL0     H 7698  -0.951   9.670   2.039  2.2721 -3.7848 -1.2738
  798MOL0     H 7699  -1.113   9.620   2.043  0.2962  0.9902 -1.7625
  798MOL0     H 7700  -0.943   9.512   2.276 -1.4589 -0.0756  2.0102
  798MOL0     H 7701  -1.112   9.559   2.276 -2.3046  0.7979 -3.7123
  798MOL0     H 7702  -0.945   9.689   2.415  2.9399 -0.0940 -0.5047
  798MOL0     H 7703  -0.860   9.739   2.266  1.2225  0.5842  2.6958
  798MOL0     H 7704  -1.034   9.870   2.181 -0.1986 -2.1564 -0.4712
  798MOL0     H 7705  -1.007   9.926   2.345  0.3266 -1.9442  3.1345
  798MOL0     H 7706  -1.247   9.917   2.316 -2.2195 -2.1138 -1.2074
  798MOL0     H 7707  -1.244   9.760   2.259  0.4918  2.1901 -0.9939
  798MOL0     H 7708  -1.114   9.821   2.539 -0.2707  0.1918  1.3228
  798MOL0     H 7709  -1.169   9.677   2.483 -2.2887 -0.7427  2.8024
  798MOL0     H 7710  -1.343   9.924   2.547  1.3873  0.7888  0.8412
  798MOL0     H 7711  -1.317   9.782   2.647 -2.3771  0.6103  0.2310
  798MOL0     H 7712  -0.941   9.221   1.864 -0.8005 -0.4153  0.7806
  798MOL0     H 7713  -0.850   9.005   1.872  1.1052  0.8435 -0.6688
  798MOL0     H 7714  -0.527   8.759   2.313  0.1923  2.1368 -2.2702
  798MOL0     H 7715  -0.406   8.573   2.336  1.3914  1.2815 -1.0084
  798MOL0     H 7716   0.167   6.864   2.236  0.2285 -0.8982 -0.7124
  798MOL0     H 7717   0.369   6.717   2.185 -0.9389 -0.8299 -1.8991
  798MOL0     H 7718   0.875   6.661   2.486 -1.5406 -0.2298 -0.3496
  798MOL0     H 7719   1.061   6.503   2.463 -0.6491  1.2737  0.6502
  798MOL0     H 7720   0.934   6.222   2.300 -0.9303 -1.1977  1.2752
  798MOL0     H 7721   1.011   6.204   2.138 -3.6254  1.8049  1.2733
  798MOL0     H 7722   1.214   6.111   2.263  1.4782 -0.6041  1.3201
  798MOL0     H 7723   1.073   6.011   2.264  0.0337  0.6915 -1.1658
  798MOL0     H 7724   1.156   6.019   2.485  2.1962  1.3157  1.3422
  798MOL0     H 7725   1.012   6.101   2.486  0.5208 -1.1769 -0.1236
  798MOL0     H 7726   1.101   6.303   2.556  3.0634  3.5207  0.3000
  798MOL0     H 7727   1.253   6.282   2.467  0.5928  0.0338 -0.1858
  798MOL0     H 7728   1.319   6.090   2.840  0.7443 -1.6535 -0.5153
  798MOL0     H 7729   0.944   6.443   2.057  2.7534  0.5545  0.1795
  798MOL0     H 7730   0.776   6.623   2.073  0.9498  3.0543 -0.1101
  799MOL0     O 7731   5.371   1.171  10.603  0.4832  0.5857 -0.0187
  799MOL0     C 7732   5.395   1.162  10.481 -0.2808 -0.8430  0.4376
  799MOL0     O 7733   5.312   1.121  10.380  0.0514  0.0996 -0.7844
  799MOL0     C 7734   5.187   1.082  10.421  0.0133  0.6140  1.1688
  799MOL0     C 7735   5.148   0.949  10.412 -0.4519  0.0174 -0.5942
  799MOL0     C 7736   5.024   0.912  10.467 -0.4117  0.8298  0.5536
  799MOL0     C 7737   4.943   1.001  10.539  0.4795  1.0661  0.5161
  799MOL0     O 7738   4.842   0.948  10.606 -0.3309 -0.0081  0.2284
  799MOL0     C 7739   4.721   0.923  10.545 -0.0650 -1.0286 -0.5704
  799MOL0     C 7740   4.610   0.872  10.635 -0.3460  0.3203 -0.5029
  799MOL0     C 7741   4.655   0.744  10.709  0.3731 -0.9347 -0.3387
  799MOL0     C 7742   4.596   0.731  10.851 -0.1687 -0.3215  0.0404
  799MOL0     C 7743   4.558   0.588  10.873  0.7501  1.5038 -0.5334
  799MOL0     C 7744   4.496   0.566  11.005 -0.4219 -0.5806 -0.5238
  799MOL0     C 7745   4.595   0.566  11.124 -0.1667 -1.0870  0.9329
  799MOL0     C 7746   4.544   0.486  11.240  0.7703 -0.2859  0.7398
  799MOL0     N 7747   4.628   0.480  11.361 -0.9134 -0.3747  0.0821
  799MOL0     C 7748   4.683   0.605  11.411 -0.3128  0.2013  0.1286
  799MOL0     C 7749   4.723   0.572  11.529  0.0372 -0.1753 -0.2170
  799MOL0     C 7750   4.796   0.667  11.631  0.1357  0.1664 -0.5538
  799MOL0     C 7751   4.944   0.641  11.621  0.0986 -0.5741 -0.5982
  799MOL0     C 7752   5.020   0.761  11.678 -0.6161  0.7093  0.3129
  799MOL0     C 7753   5.140   0.703  11.764  0.1651  0.4020  0.3065
  799MOL0     O 7754   5.099   0.626  11.881 -0.3093 -0.7763  0.3678
  799MOL0     C 7755   5.095   0.689  12.005  0.1649  0.3573  1.0201
  799MOL0     C 7756   5.127   0.815  12.029 -1.1304  0.3293 -0.3450
  799MOL0     C 7757   5.131   0.859  12.170 -0.0538 -0.2044 -0.8614
  799MOL0     C 7758   5.149   1.005  12.190 -0.1493  0.5604  0.8266
  799MOL0     C 7759   5.098   0.771  12.275  0.0732 -0.4971 -0.5154
  799MOL0     C 7760   5.070   0.804  12.411  1.0788 -1.0250  0.9127
  799MOL0     O 7761   5.120   0.708  12.502 -0.1412 -0.0124  0.1382
  799MOL0     C 7762   5.135   0.744  12.628  0.1459 -0.0922 -0.6210
  799MOL0     C 7763   5.262   0.787  12.661 -0.5893  0.2035 -0.5030
  799MOL0     C 7764   5.284   0.855  12.779  0.1540 -0.0455 -0.0994
  799MOL0     C 7765   5.178   0.883  12.868  0.6478 -0.6390 -0.3331
  799MOL0     O 7766   5.222   0.952  12.979  1.0622 -0.5720 -0.1272
  799MOL0     C 7767   5.129   1.018  13.066 -0.5505  0.2885  1.2286
  799MOL0     C 7768   5.187   1.148  13.133  0.5112  0.0557  0.4810
  799MOL0     C 7769   5.170   1.269  13.054  0.9736  0.4694 -0.1314
  799MOL0     C 7770   5.235   1.388  13.122  0.2871 -0.5724 -0.0609
  799MOL0     C 7771   5.189   1.520  13.060  0.0785  0.7026  0.1489
  799MOL0     C 7772   5.061   1.572  13.117 -0.1246 -0.2110  0.0225
  799MOL0     C 7773   5.031   1.711  13.063  0.4961 -0.5651 -0.5867
  799MOL0     C 7774   4.927   1.780  13.150  0.3725 -0.2947  0.6318
  799MOL0    Cl 7775   4.869   1.938  13.082 -0.0817  0.0567  0.0634
  799MOL0     C 7776   5.053   0.828  12.840 -0.6628  0.4433 -0.3051
  799MOL0     C 7777   5.026   0.764  12.715 -0.8770  0.5734  0.1617
  799MOL0     O 7778   5.014   0.909  12.436  0.3431 -0.1936  0.2724
  799MOL0     C 7779   5.058   0.647  12.235 -0.9852 -1.0096 -0.8925
  799MOL0     C 7780   5.059   0.598  12.103  0.1015  0.7415  0.0779
  799MOL0     N 7781   4.705   0.426  11.542  0.1167  0.0477  0.2004
  799MOL0     N 7782   4.638   0.379  11.446 -0.1915  0.5718 -0.0227
  799MOL0     C 7783   4.974   1.132  10.538 -0.9688  0.1342 -0.5045
  799MOL0     C 7784   5.095   1.168  10.481 -0.2420 -0.5969 -1.1559
  799MOL0     C 7785   5.536   1.195  10.434  0.2794  0.3518 -0.1359
  799MOL0     C 7786   5.588   1.123  10.334  1.1083  0.5668 -0.3121
  799MOL0     C 7787   5.719   1.132  10.284 -0.1650  0.0284 -0.0507
  799MOL0     C 7788   5.794   1.228  10.344 -0.6033  0.1710  0.0427
  799MOL0     O 7789   5.926   1.227  10.304  0.2638  0.4412 -0.6705
  799MOL0     C 7790   6.022   1.337  10.346  0.0419  0.3397  0.2938
  799MOL0     C 7791   6.085   1.380  10.214  0.1456 -0.6577  0.2157
  799MOL0     C 7792   5.985   1.446  10.139 -0.1140 -0.0691  0.1196
  799MOL0     C 7793   6.045   1.523  10.027 -0.2926 -0.2388  0.0124
  799MOL0     C 7794   5.943   1.591   9.946  0.6156 -0.5168  0.6443
  799MOL0     C 7795   5.865   1.617   9.856 -0.0235 -0.2027  0.0898
  799MOL0     C 7796   5.739   1.317  10.437 -0.1986  0.7768 -1.4640
  799MOL0     C 7797   5.612   1.302  10.479  0.7348 -0.1923  1.5452
  799MOL0     H 7798   5.223   0.887  10.365 -0.6132  0.4568 -1.4560
  799MOL0     H 7799   5.008   0.806  10.447  6.3645 -0.0720 -3.3919
  799MOL0     H 7800   4.681   1.007  10.488 -1.3852  0.4238  2.2727
  799MOL0     H 7801   4.743   0.850  10.467 -0.3131 -0.4583 -1.1806
  799MOL0     H 7802   4.582   0.941  10.714 -0.3620  1.4071 -1.4282
  799MOL0     H 7803   4.527   0.842  10.570 -1.0099  1.1342 -0.0366
  799MOL0     H 7804   4.622   0.665  10.641  0.7372  1.3575 -3.3880
  799MOL0     H 7805   4.764   0.751  10.702  0.3015  0.5545 -0.3600
  799MOL0     H 7806   4.671   0.737  10.931 -2.9278 -1.5117  2.9393
  799MOL0     H 7807   4.522   0.807  10.875 -0.3210  1.4668 -4.9530
  799MOL0     H 7808   4.478   0.555  10.805  0.2297 -1.1859  1.2456
  799MOL0     H 7809   4.653   0.537  10.856  1.9481  3.2386  0.5968
  799MOL0     H 7810   4.423   0.643  11.031  1.0935  0.5011  0.7185
  799MOL0     H 7811   4.446   0.469  11.017 -2.4561  0.6453  1.9031
  799MOL0     H 7812   4.690   0.535  11.080  0.8305  2.0091  0.6936
  799MOL0     H 7813   4.626   0.667  11.151  0.2210  0.8472 -5.3091
  799MOL0     H 7814   4.535   0.384  11.200 -1.5399 -0.2061  0.9220
  799MOL0     H 7815   4.441   0.517  11.259  0.7796  0.2886 -0.0809
  799MOL0     H 7816   4.683   0.706  11.372  3.6531  0.1532 -0.3301
  799MOL0     H 7817   4.752   0.766  11.616 -5.9934 -1.9461  0.4149
  799MOL0     H 7818   4.767   0.634  11.731  0.1458 -1.2270 -0.9775
  799MOL0     H 7819   4.979   0.617  11.520  0.0522 -0.4276 -0.6488
  799MOL0     H 7820   4.963   0.553  11.683  0.9774  0.6774  0.9877
  799MOL0     H 7821   4.947   0.823  11.732 -1.9106  0.4266 -1.0513
  799MOL0     H 7822   5.054   0.830  11.600  0.4349  1.1421  1.1218
  799MOL0     H 7823   5.211   0.781  11.791  0.1427  0.0219  1.5401
  799MOL0     H 7824   5.196   0.628  11.708 -1.2279 -1.8710  1.7818
  799MOL0     H 7825   5.155   0.877  11.945 -3.2939  1.8753  0.0001
  799MOL0     H 7826   5.185   1.061  12.104  2.1530 -0.4771  1.0382
  799MOL0     H 7827   5.054   1.051  12.220 -1.3658 -1.4933  0.3758
  799MOL0     H 7828   5.218   1.029  12.271 -1.0532  1.7551  1.2813
  799MOL0     H 7829   5.351   0.747  12.612  0.2832  2.0696 -0.5740
  799MOL0     H 7830   5.383   0.889  12.805 -0.0723  0.5173  0.0443
  799MOL0     H 7831   5.039   1.043  13.011  1.3207  2.9420 -0.9009
  799MOL0     H 7832   5.106   0.945  13.144 -2.7414 -2.7449 -1.9652
  799MOL0     H 7833   5.134   1.161  13.227 -1.2789 -0.9788 -0.3222
  799MOL0     H 7834   5.293   1.130  13.156  0.3948  2.1420  3.0938
  799MOL0     H 7835   5.062   1.291  13.060  0.4494 -2.1559  2.0805
  799MOL0     H 7836   5.212   1.253  12.955 -0.1302 -2.9910 -0.1613
  799MOL0     H 7837   5.204   1.391  13.227 -1.9567 -0.8739 -0.6448
  799MOL0     H 7838   5.344   1.382  13.126  0.2619 -0.5867  1.0194
  799MOL0     H 7839   5.183   1.512  12.951 -1.3144  0.3297  0.2282
  799MOL0     H 7840   5.269   1.592  13.079 -0.4998  1.0999  1.1453
  799MOL0     H 7841   4.973   1.515  13.086 -1.9549  1.9336  0.9859
  799MOL0     H 7842   5.066   1.575  13.227  1.4184 -0.4019 -0.0113
  799MOL0     H 7843   4.996   1.701  12.960  1.1885 -1.0779 -0.7850
  799MOL0     H 7844   5.120   1.775  13.065 -0.2675  0.5467 -1.1671
  799MOL0     H 7845   4.970   1.798  13.249  2.1789 -0.7834 -0.0292
  799MOL0     H 7846   4.842   1.712  13.147  0.9232 -1.0692  1.7589
  799MOL0     H 7847   4.972   0.844  12.911  0.0103 -1.5148  0.9994
  799MOL0     H 7848   4.926   0.741  12.681 -0.0026  0.5632 -2.6425
  799MOL0     H 7849   5.027   0.579  12.313 -2.9096 -1.0825 -1.6611
  799MOL0     H 7850   5.038   0.494  12.083  2.8539  0.0333  0.5068
  799MOL0     H 7851   4.911   1.202  10.591 -0.0335  0.0551  0.7794
  799MOL0     H 7852   5.132   1.270  10.480 -0.5039 -0.5028 -1.1131
  799MOL0     H 7853   5.532   1.036  10.301  2.6806 -0.4668 -0.4045
  799MOL0     H 7854   5.755   1.069  10.203  0.4280  0.7474 -0.3660
  799MOL0     H 7855   5.971   1.422  10.391  3.7888  3.1949 -0.2855
  799MOL0     H 7856   6.105   1.299  10.407  0.4643 -1.1062 -1.0950
  799MOL0     H 7857   6.122   1.291  10.164  2.5261 -0.2209  1.0397
  799MOL0     H 7858   6.170   1.449  10.223 -1.1301  1.2867 -1.7813
  799MOL0     H 7859   5.930   1.515  10.204 -0.1286 -0.5484  0.6226
  799MOL0     H 7860   5.911   1.372  10.107  1.2368 -1.5076  0.1764
  799MOL0     H 7861   6.098   1.460   9.954 -2.9158 -0.1129 -2.1653
  799MOL0     H 7862   6.111   1.602  10.065 -1.2699  1.1702 -1.1060
  799MOL0     H 7863   5.794   1.659   9.788  0.1158  0.6644  0.4646
  799MOL0     H 7864   5.798   1.392  10.489  0.9218 -2.0908  1.7745
  799MOL0     H 7865   5.575   1.370  10.555  0.8095 -0.6866  2.0320
  800MOL0     O 7866   2.701   2.955   5.418 -0.6768 -1.1266 -1.1464
  800MOL0     C 7867   2.695   3.029   5.522  0.2832  0.1332  0.6737
  800MOL0     O 7868   2.607   3.011   5.623 -0.0701  0.2178  0.0037
  800MOL0     C 7869   2.539   2.889   5.651 -0.2183 -1.2125 -0.0255
  800MOL0     C 7870   2.602   2.765   5.629 -0.0179 -0.5455  1.0058
  800MOL0     C 7871   2.552   2.644   5.682  0.0748  0.3946 -0.6631
  800MOL0     C 7872   2.433   2.635   5.761  0.3611 -0.1561 -0.5260
  800MOL0     O 7873   2.403   2.518   5.831  0.3418  0.4337 -0.6740
  800MOL0     C 7874   2.286   2.499   5.913  0.8867 -0.5377 -0.4159
  800MOL0     C 7875   2.267   2.355   5.964 -0.4904  0.8187  0.8450
  800MOL0     C 7876   2.200   2.275   5.845 -0.2659  0.0609  0.3127
  800MOL0     C 7877   2.198   2.123   5.866  0.2915 -0.9203 -0.6954
  800MOL0     C 7878   2.311   2.038   5.810  0.2423  0.3753  0.8554
  800MOL0     C 7879   2.448   2.047   5.899 -0.6040  0.1466  1.2998
  800MOL0     C 7880   2.450   1.963   6.026 -0.1850  0.0875  0.5841
  800MOL0     C 7881   2.491   1.818   6.006 -0.0072 -0.1986 -0.1146
  800MOL0     N 7882   2.527   1.756   6.135  0.7056 -0.2532  0.4790
  800MOL0     C 7883   2.590   1.635   6.146  0.2768  0.6261  0.2244
  800MOL0     C 7884   2.647   1.640   6.271  0.1299 -0.0462 -1.0233
  800MOL0     C 7885   2.730   1.537   6.338 -0.1141 -0.0892  0.0022
  800MOL0     C 7886   2.675   1.397   6.384  0.1077 -0.7310  1.2288
  800MOL0     C 7887   2.774   1.307   6.460  0.7165 -0.7061 -0.2917
  800MOL0     C 7888   2.901   1.271   6.389 -0.2393  0.1849 -0.4544
  800MOL0     O 7889   2.874   1.188   6.282  0.4479  0.6423  0.1613
  800MOL0     C 7890   2.972   1.123   6.222 -0.9179  0.1717 -0.3582
  800MOL0     C 7891   3.110   1.137   6.258 -0.3079  0.6763  0.6987
  800MOL0     C 7892   3.203   1.050   6.191  0.3754  0.4639  0.4813
  800MOL0     C 7893   3.342   1.054   6.244  0.4920  0.9688 -0.2407
  800MOL0     C 7894   3.170   0.952   6.097 -0.0924  0.2187 -0.3130
  800MOL0     C 7895   3.263   0.850   6.045  1.2757  0.8708  0.9619
  800MOL0     O 7896   3.279   0.737   6.112  0.5955 -0.0781 -0.2645
  800MOL0     C 7897   3.370   0.651   6.058  0.7267 -0.1646  0.3273
  800MOL0     C 7898   3.503   0.676   6.058 -0.4324  0.8376 -0.6657
  800MOL0     C 7899   3.595   0.586   5.999 -0.8899 -0.5452 -0.8960
  800MOL0     C 7900   3.554   0.462   5.941  0.0751 -0.1240 -0.2925
  800MOL0     O 7901   3.637   0.362   5.884  0.0695 -0.3712  0.1581
  800MOL0     C 7902   3.774   0.360   5.899  0.5794 -0.1102  0.2961
  800MOL0     C 7903   3.831   0.224   5.839  0.0384  0.0324 -0.0175
  800MOL0     C 7904   3.978   0.247   5.808  0.5220 -1.3114 -0.3919
  800MOL0     C 7905   4.067   0.124   5.786  0.2600  0.0256 -0.7166
  800MOL0     C 7906   4.211   0.143   5.747 -0.1356  0.3398  0.1439
  800MOL0     C 7907   4.293   0.210   5.855 -0.5326  0.0504  0.7838
  800MOL0     C 7908   4.338   0.120   5.977 -0.4825  0.2984  1.1086
  800MOL0     C 7909   4.261   0.149   6.101  0.8863  0.4139 -0.3299
  800MOL0    Cl 7910   4.312   0.046   6.240 -0.1327  0.1847 -0.1902
  800MOL0     C 7911   3.413   0.451   5.919 -0.6306  0.1524 -0.5071
  800MOL0     C 7912   3.324   0.541   5.985  0.0328 -0.4295 -0.7665
  800MOL0     O 7913   3.311   0.874   5.932  0.2142 -0.1801  0.2656
  800MOL0     C 7914   3.038   0.958   6.054  0.2577  0.2332 -0.2279
  800MOL0     C 7915   2.941   1.037   6.113 -0.4696 -0.2002 -0.1558
  800MOL0     N 7916   2.622   1.768   6.335  0.7792  0.2919  0.0683
  800MOL0     N 7917   2.544   1.825   6.254  0.0640  0.0893  1.0650
  800MOL0     C 7918   2.369   2.762   5.773 -0.0320 -0.7875 -0.4405
  800MOL0     C 7919   2.413   2.881   5.720 -1.3673 -0.2760 -0.8560
  800MOL0     C 7920   2.762   3.165   5.511 -0.1215 -0.7298  0.2393
  800MOL0     C 7921   2.839   3.200   5.401 -1.0696 -1.1844 -0.8168
  800MOL0     C 7922   2.904   3.324   5.391 -0.5004  0.4896 -0.3544
  800MOL0     C 7923   2.885   3.419   5.490 -0.2281  0.1447  0.5680
  800MOL0     O 7924   2.959   3.541   5.496  0.7844 -0.2664  0.0842
  800MOL0     C 7925   3.087   3.536   5.425  0.8656 -0.3512 -0.1966
  800MOL0     C 7926   3.177   3.649   5.461 -0.0996 -0.3670  0.2818
  800MOL0     C 7927   3.172   3.667   5.618  0.2130  0.4390 -0.2164
  800MOL0     C 7928   3.076   3.786   5.652 -0.1105 -0.8847 -0.5686
  800MOL0     C 7929   3.069   3.794   5.801 -0.0344  0.1259  0.1605
  800MOL0     C 7930   3.064   3.814   5.917 -0.4046  0.0237  0.1526
  800MOL0     C 7931   2.817   3.388   5.600  0.6810  0.6962 -0.0031
  800MOL0     C 7932   2.751   3.262   5.614 -0.1407  0.3082 -0.7522
  800MOL0     H 7933   2.691   2.751   5.569  1.5524 -1.7874  3.4705
  800MOL0     H 7934   2.613   2.557   5.660 -1.0832 -0.9697  1.2586
  800MOL0     H 7935   2.297   2.569   5.997  4.0113 -1.1988 -0.1363
  800MOL0     H 7936   2.194   2.532   5.865  0.1795  1.6008  2.1493
  800MOL0     H 7937   2.364   2.313   5.994 -1.5997 -2.0600  0.7061
  800MOL0     H 7938   2.197   2.356   6.048 -2.2606  0.2259 -0.5647
  800MOL0     H 7939   2.098   2.314   5.842 -0.0806  0.6403  1.2098
  800MOL0     H 7940   2.253   2.305   5.754  1.1511  3.1779  2.0401
  800MOL0     H 7941   2.175   2.090   5.968 -3.1004  1.7605 -0.4033
  800MOL0     H 7942   2.106   2.093   5.816 -0.3728  1.6891 -1.1801
  800MOL0     H 7943   2.283   1.933   5.799  0.6877  0.2527  0.8657
  800MOL0     H 7944   2.334   2.078   5.711  0.8704  0.5623  1.0725
  800MOL0     H 7945   2.536   2.025   5.838 -0.3480 -0.6295  1.9426
  800MOL0     H 7946   2.463   2.153   5.923 -0.3065  0.3354  0.3516
  800MOL0     H 7947   2.522   2.009   6.095  2.2193 -1.6378 -0.6243
  800MOL0     H 7948   2.350   1.974   6.068  0.6217 -0.4553  2.7972
  800MOL0     H 7949   2.572   1.798   5.935 -0.7918 -0.6409 -0.8927
  800MOL0     H 7950   2.406   1.767   5.962  0.4465  1.2637 -2.9053
  800MOL0     H 7951   2.599   1.574   6.057 -1.9656  1.6899 -0.8151
  800MOL0     H 7952   2.820   1.517   6.280  1.1885  0.2986  1.8021
  800MOL0     H 7953   2.770   1.574   6.433 -1.5859 -1.6222  1.2798
  800MOL0     H 7954   2.639   1.353   6.291 -0.3510 -1.1213  1.5837
  800MOL0     H 7955   2.584   1.408   6.444 -0.4471 -0.4775  0.3679
  800MOL0     H 7956   2.727   1.216   6.496 -1.3015  1.9380  4.6675
  800MOL0     H 7957   2.803   1.350   6.556  2.1090 -1.9834 -0.1132
  800MOL0     H 7958   2.961   1.213   6.460  2.0528  2.1105 -0.6834
  800MOL0     H 7959   2.968   1.356   6.370  1.8947 -1.0464  1.0864
  800MOL0     H 7960   3.158   1.195   6.336  1.4415  0.7676 -0.3953
  800MOL0     H 7961   3.407   0.986   6.188 -2.3002  0.2239 -2.8232
  800MOL0     H 7962   3.400   1.144   6.220  1.1955  1.4623  2.8249
  800MOL0     H 7963   3.340   1.028   6.350 -1.3797 -0.0677 -0.4911
  800MOL0     H 7964   3.536   0.761   6.117 -0.1955 -1.9512  3.7386
  800MOL0     H 7965   3.697   0.623   6.005 -0.6898 -0.7645 -2.4211
  800MOL0     H 7966   3.810   0.448   5.844 -0.2696  0.6270  0.9075
  800MOL0     H 7967   3.795   0.368   6.006  0.3042  4.4274  0.2105
  800MOL0     H 7968   3.803   0.151   5.915 -2.2857  2.1800  1.3436
  800MOL0     H 7969   3.783   0.198   5.745  1.0587  1.3815 -0.9631
  800MOL0     H 7970   4.015   0.303   5.895  3.1660 -1.4524 -1.3373
  800MOL0     H 7971   3.979   0.307   5.717 -0.9142  0.1015  0.4851
  800MOL0     H 7972   4.065   0.062   5.876 -0.7117  0.8804 -0.1270
  800MOL0     H 7973   4.010   0.079   5.704 -1.3810  1.6129 -0.5158
  800MOL0     H 7974   4.213   0.198   5.653 -0.4196 -0.2172 -0.1961
  800MOL0     H 7975   4.259   0.048   5.721  0.4455  0.7598 -0.3441
  800MOL0     H 7976   4.382   0.243   5.801 -1.9736 -1.2845 -2.6289
  800MOL0     H 7977   4.238   0.301   5.884  0.1477  1.6522 -2.4776
  800MOL0     H 7978   4.445   0.137   5.994 -0.3065 -2.3482  3.2748
  800MOL0     H 7979   4.332   0.014   5.952  2.4171  0.1301  0.7112
  800MOL0     H 7980   4.154   0.140   6.083  0.8670  1.3234 -0.7524
  800MOL0     H 7981   4.258   0.252   6.140 -3.9197 -1.1282  4.7153
  800MOL0     H 7982   3.378   0.371   5.854 -3.2208  0.0572  0.9055
  800MOL0     H 7983   3.219   0.527   5.963  0.1259  1.0119 -2.3129
  800MOL0     H 7984   3.004   0.901   5.968 -4.4652 -0.3001  1.6998
  800MOL0     H 7985   2.836   1.032   6.083 -1.4036 -2.3207  3.0066
  800MOL0     H 7986   2.277   2.761   5.830  0.2835 -0.1617  0.0841
  800MOL0     H 7987   2.352   2.970   5.730  1.1607  1.3438  1.3663
  800MOL0     H 7988   2.840   3.138   5.312  0.5780 -0.7635 -1.1280
  800MOL0     H 7989   2.945   3.343   5.292  1.7457 -2.5101 -0.1481
  800MOL0     H 7990   3.141   3.444   5.448  2.1871  0.0985 -1.3732
  800MOL0     H 7991   3.070   3.535   5.317 -1.1830 -3.9989  0.0021
  800MOL0     H 7992   3.144   3.739   5.410 -1.3980 -2.0940 -2.1182
  800MOL0     H 7993   3.276   3.624   5.421  0.3427 -0.6921  1.5179
  800MOL0     H 7994   3.268   3.700   5.656 -0.4191  2.7537 -0.4948
  800MOL0     H 7995   3.141   3.576   5.671  1.0110  0.0188 -0.4470
  800MOL0     H 7996   2.972   3.785   5.619 -0.7786  2.8835  0.8975
  800MOL0     H 7997   3.122   3.878   5.615 -1.3268 -0.3996 -0.9408
  800MOL0     H 7998   3.060   3.850   6.019  3.0579  0.2298  0.3466
  800MOL0     H 7999   2.815   3.446   5.692 -1.3146  2.6099 -1.1655
  800MOL0     H 8000   2.691   3.234   5.701 -1.2121  1.9552 -0.9138
  801MOL0     O 8001   1.873   7.317   4.486 -0.4305 -0.4117 -0.5325
  801MOL0     C 8002   1.806   7.249   4.412  0.1940  0.6242  1.3766
  801MOL0     O 8003   1.788   7.116   4.408 -0.0347 -0.4815 -0.6041
  801MOL0     C 8004   1.849   7.046   4.513 -1.1756 -0.6936  0.9478
  801MOL0     C 8005   1.916   6.928   4.473  0.4409  0.4963 -0.9439
  801MOL0     C 8006   1.993   6.850   4.554  0.7051  0.0957  0.0470
  801MOL0     C 8007   1.996   6.888   4.694 -0.6476  0.4606 -0.2806
  801MOL0     O 8008   2.084   6.816   4.762  0.0340 -0.1528 -0.5302
  801MOL0     C 8009   2.141   6.881   4.869  0.6476 -0.7575 -0.9242
  801MOL0     C 8010   2.267   6.808   4.927  0.1251 -0.5690  0.5512
  801MOL0     C 8011   2.325   6.896   5.046  0.0434  0.5076 -0.7154
  801MOL0     C 8012   2.443   6.815   5.111  0.7947 -0.2871  0.4285
  801MOL0     C 8013   2.527   6.892   5.214  0.0913 -0.0452  1.0301
  801MOL0     C 8014   2.629   6.814   5.303  0.5266  0.7239  0.3630
  801MOL0     C 8015   2.757   6.780   5.222 -0.7374 -0.3965 -0.2085
  801MOL0     C 8016   2.876   6.725   5.312  0.1996  0.5146  1.0395
  801MOL0     N 8017   2.859   6.588   5.353  0.4351  0.0988  1.0928
  801MOL0     C 8018   2.768   6.561   5.447  0.2663 -0.7849  1.0591
  801MOL0     C 8019   2.781   6.430   5.466  0.4640  1.0635  0.1223
  801MOL0     C 8020   2.719   6.336   5.570  0.4783  0.2437 -0.8630
  801MOL0     C 8021   2.642   6.416   5.681 -0.6450  0.3120  0.3949
  801MOL0     C 8022   2.566   6.314   5.759  0.1876  0.5127 -0.8852
  801MOL0     C 8023   2.648   6.243   5.868 -0.2404 -0.6691  0.0736
  801MOL0     O 8024   2.735   6.143   5.802 -0.2980  0.7794  0.1901
  801MOL0     C 8025   2.806   6.071   5.895  1.4463 -0.1066  0.2780
  801MOL0     C 8026   2.858   5.954   5.855 -0.0246 -0.4736 -1.4678
  801MOL0     C 8027   2.938   5.864   5.936  0.4862 -0.4032  0.5330
  801MOL0     C 8028   2.970   5.732   5.875  0.4034 -0.3791 -0.0621
  801MOL0     C 8029   2.974   5.906   6.067  0.3445 -0.3177  0.1193
  801MOL0     C 8030   3.067   5.833   6.154  0.0034  0.7554 -0.9768
  801MOL0     O 8031   3.090   5.873   6.284 -0.5407 -0.1879  0.1261
  801MOL0     C 8032   3.186   5.826   6.370 -0.5234 -0.3825  0.3603
  801MOL0     C 8033   3.309   5.769   6.344 -0.8785 -0.3707 -0.4801
  801MOL0     C 8034   3.382   5.725   6.446 -1.2598  0.4640 -0.8494
  801MOL0     C 8035   3.343   5.722   6.582 -0.1306 -0.3421 -0.2621
  801MOL0     O 8036   3.433   5.674   6.672  0.2073 -0.3221 -0.2531
  801MOL0     C 8037   3.408   5.661   6.814  0.1007  1.0095  0.3666
  801MOL0     C 8038   3.367   5.521   6.859 -0.0714  0.9318 -0.3999
  801MOL0     C 8039   3.361   5.526   7.016 -0.8471 -0.1173  0.3976
  801MOL0     C 8040   3.328   5.383   7.075 -0.6230 -0.0050  0.3990
  801MOL0     C 8041   3.310   5.387   7.233  0.1105 -0.2462 -0.3304
  801MOL0     C 8042   3.267   5.247   7.277 -0.3914 -0.5525  0.7086
  801MOL0     C 8043   3.258   5.256   7.423  0.1002  0.4402 -0.2344
  801MOL0     C 8044   3.188   5.126   7.478 -0.4076  0.5008 -1.0600
  801MOL0    Cl 8045   3.315   4.995   7.442  0.1189  0.4636  0.2361
  801MOL0     C 8046   3.213   5.774   6.617  0.2812 -0.1844 -0.0916
  801MOL0     C 8047   3.143   5.819   6.505 -0.3094 -0.1668 -0.2664
  801MOL0     O 8048   3.116   5.732   6.109  0.3178  0.6983 -0.6579
  801MOL0     C 8049   2.919   6.030   6.111 -0.0220 -0.7089 -0.3145
  801MOL0     C 8050   2.839   6.109   6.024 -0.6932 -0.2107 -0.6980
  801MOL0     N 8051   2.879   6.381   5.382  0.0634  0.1984  0.8878
  801MOL0     N 8052   2.933   6.479   5.317 -0.3199  0.3692  0.1953
  801MOL0     C 8053   1.925   7.007   4.742 -0.2284  0.1396  0.5631
  801MOL0     C 8054   1.848   7.079   4.651 -0.1566 -0.4067  0.1440
  801MOL0     C 8055   1.715   7.320   4.320  0.8127 -0.4281  0.1239
  801MOL0     C 8056   1.760   7.444   4.273  0.4692 -0.4200  0.5930
  801MOL0     C 8057   1.675   7.535   4.206 -0.4618  0.3407 -0.3698
  801MOL0     C 8058   1.537   7.498   4.190  0.2010  0.5771 -0.3234
  801MOL0     O 8059   1.438   7.578   4.139  0.4904  0.8952  0.2568
  801MOL0     C 8060   1.456   7.623   4.004 -0.3844  0.5339  0.0841
  801MOL0     C 8061   1.401   7.530   3.900  0.1278  0.4438  0.6102
  801MOL0     C 8062   1.422   7.578   3.755 -0.0891 -0.1688 -0.3332
  801MOL0     C 8063   1.383   7.476   3.642 -0.8578 -0.2460  0.4786
  801MOL0     C 8064   1.237   7.438   3.620  0.2499  0.0072 -0.1444
  801MOL0     C 8065   1.118   7.402   3.601 -0.0200 -0.8871  0.2729
  801MOL0     C 8066   1.490   7.375   4.237  0.0165  0.1184  0.4157
  801MOL0     C 8067   1.576   7.288   4.304 -0.2806  0.6286  1.2378
  801MOL0     H 8068   1.909   6.903   4.367  0.0818  0.7154 -0.9735
  801MOL0     H 8069   2.050   6.763   4.523  0.1776 -0.2870  0.1448
  801MOL0     H 8070   2.175   6.983   4.845  1.2381 -1.0809 -1.4823
  801MOL0     H 8071   2.060   6.900   4.940 -0.7940 -1.3198 -2.3704
  801MOL0     H 8072   2.233   6.709   4.957 -2.8662 -0.1471 -1.1087
  801MOL0     H 8073   2.344   6.800   4.850 -0.4337 -3.0846  0.1861
  801MOL0     H 8074   2.379   6.984   5.011 -1.5983  1.4131 -1.0489
  801MOL0     H 8075   2.254   6.929   5.123 -1.4321  1.7324 -2.5273
  801MOL0     H 8076   2.401   6.724   5.156  1.6086  0.9104  3.9297
  801MOL0     H 8077   2.510   6.783   5.030 -0.8987  1.3847 -1.7594
  801MOL0     H 8078   2.579   6.978   5.171 -0.8972  0.9096  1.7056
  801MOL0     H 8079   2.449   6.934   5.277 -0.1134 -1.4412  1.7484
  801MOL0     H 8080   2.655   6.866   5.396  0.6534  1.3718 -0.0225
  801MOL0     H 8081   2.583   6.720   5.335 -2.5975  1.7871 -0.6703
  801MOL0     H 8082   2.750   6.712   5.137 -3.2290 -2.1912  1.2906
  801MOL0     H 8083   2.802   6.875   5.194  3.1290 -1.5834  1.1987
  801MOL0     H 8084   2.896   6.793   5.394 -0.7188  0.6606  1.1552
  801MOL0     H 8085   2.949   6.731   5.231 -0.6234  1.1736  0.3249
  801MOL0     H 8086   2.706   6.629   5.504  1.5311  2.6448 -1.3285
  801MOL0     H 8087   2.647   6.267   5.525 -1.8146 -0.9861  4.0069
  801MOL0     H 8088   2.798   6.278   5.617  2.1315  4.4394  2.0832
  801MOL0     H 8089   2.573   6.488   5.636  0.7327  2.1059  1.0067
  801MOL0     H 8090   2.715   6.470   5.742 -0.7230  1.7883 -0.7542
  801MOL0     H 8091   2.509   6.240   5.702  1.1764  0.5536 -1.9555
  801MOL0     H 8092   2.503   6.383   5.815  0.2987  0.6071 -0.8770
  801MOL0     H 8093   2.588   6.188   5.941 -0.8212  0.0311  0.1297
  801MOL0     H 8094   2.707   6.308   5.933  2.1725 -0.8229 -1.8243
  801MOL0     H 8095   2.835   5.938   5.750 -0.4118  3.3496 -2.1372
  801MOL0     H 8096   2.929   5.652   5.938 -1.2140  0.1060 -0.4411
  801MOL0     H 8097   2.924   5.723   5.776 -0.0767  3.3214 -0.3293
  801MOL0     H 8098   3.079   5.732   5.865  0.4364 -2.2443 -0.0368
  801MOL0     H 8099   3.360   5.759   6.249 -0.3325 -0.4690 -0.1824
  801MOL0     H 8100   3.488   5.704   6.440 -0.3096  4.1740  0.2377
  801MOL0     H 8101   3.500   5.690   6.865 -1.2249 -0.3968  3.9144
  801MOL0     H 8102   3.328   5.730   6.842 -0.3941  2.8285 -4.5974
  801MOL0     H 8103   3.272   5.495   6.810  0.8374 -1.3807 -1.0555
  801MOL0     H 8104   3.444   5.456   6.816  1.1460  1.6209  0.6806
  801MOL0     H 8105   3.285   5.597   7.049 -1.3806  0.6559 -2.2534
  801MOL0     H 8106   3.459   5.559   7.053 -0.9873  3.3515 -1.8316
  801MOL0     H 8107   3.233   5.349   7.034 -0.3555  1.2390 -1.3610
  801MOL0     H 8108   3.410   5.311   7.062 -2.1105 -1.7511  0.2401
  801MOL0     H 8109   3.229   5.458   7.253  1.0610  0.4480  1.1427
  801MOL0     H 8110   3.396   5.424   7.288  0.3255  1.1049 -1.5294
  801MOL0     H 8111   3.178   5.204   7.230  1.4220 -0.4867 -3.2446
  801MOL0     H 8112   3.351   5.184   7.245  3.1382  3.6708  0.6469
  801MOL0     H 8113   3.192   5.342   7.441 -0.3028 -0.2926  2.0979
  801MOL0     H 8114   3.351   5.279   7.476 -0.2008  1.2843 -0.0539
  801MOL0     H 8115   3.093   5.098   7.430 -1.0458  2.4509 -1.0240
  801MOL0     H 8116   3.175   5.138   7.586 -1.3256  2.9775 -1.3914
  801MOL0     H 8117   3.166   5.766   6.714  0.0441 -0.8943 -0.2608
  801MOL0     H 8118   3.038   5.840   6.522 -0.8616 -0.8468 -2.4759
  801MOL0     H 8119   2.928   6.059   6.216 -1.1864 -1.6837  0.0746
  801MOL0     H 8120   2.799   6.197   6.074  0.3979 -1.6031  2.8809
  801MOL0     H 8121   1.936   7.052   4.840 -0.2717  0.3248  0.4828
  801MOL0     H 8122   1.782   7.161   4.679  1.9217  2.8416 -3.4502
  801MOL0     H 8123   1.860   7.480   4.295  0.3828  0.6588 -0.6261
  801MOL0     H 8124   1.716   7.630   4.174  2.4725 -0.5421  0.3686
  801MOL0     H 8125   1.413   7.722   3.989  0.2978  0.9090  0.5197
  801MOL0     H 8126   1.561   7.645   3.981  0.1943 -2.5621 -0.7554
  801MOL0     H 8127   1.292   7.523   3.907  0.0173  0.1199 -1.1004
  801MOL0     H 8128   1.426   7.425   3.917 -0.1905  0.2721  0.0348
  801MOL0     H 8129   1.528   7.601   3.740  0.0249  0.4521  1.2582
  801MOL0     H 8130   1.354   7.659   3.730  0.2805  0.0171 -0.7418
  801MOL0     H 8131   1.442   7.385   3.656 -2.4136 -1.5376 -0.9293
  801MOL0     H 8132   1.416   7.527   3.551 -1.4763  1.1536  1.0132
  801MOL0     H 8133   1.023   7.361   3.575 -0.4110  2.2253 -4.2839
  801MOL0     H 8134   1.385   7.351   4.225 -0.8007  3.7924 -1.3385
  801MOL0     H 8135   1.551   7.196   4.356 -1.0887 -0.3844 -0.8089
  802MOL0     O 8136   0.741   8.941   1.750  0.0768  0.0512 -0.2489
  802MOL0     C 8137   0.718   8.828   1.799  0.2465 -0.3089  0.9820
  802MOL0     O 8138   0.664   8.725   1.727 -0.4040  0.5635 -0.1476
  802MOL0     C 8139   0.635   8.751   1.595 -0.4394  1.8508  0.4411
  802MOL0     C 8140   0.726   8.715   1.493  0.2034  0.7846 -0.4210
  802MOL0     C 8141   0.683   8.744   1.360 -0.3052  0.2988  0.3998
  802MOL0     C 8142   0.560   8.801   1.329 -0.4758 -0.4385  0.0847
  802MOL0     O 8143   0.522   8.822   1.200  0.4398  0.2621 -0.6061
  802MOL0     C 8144   0.564   8.731   1.099 -0.0593 -0.3272  0.8161
  802MOL0     C 8145   0.452   8.730   0.997  0.4216  0.1902 -0.4620
  802MOL0     C 8146   0.483   8.618   0.890  0.5657 -0.1544 -0.4913
  802MOL0     C 8147   0.386   8.602   0.775 -0.0243 -0.0775 -0.5816
  802MOL0     C 8148   0.423   8.710   0.668  0.3567  0.5474 -1.1536
  802MOL0     C 8149   0.329   8.704   0.545  1.0023 -0.2322 -0.1964
  802MOL0     C 8150   0.189   8.750   0.594  0.3395 -0.1911 -0.6527
  802MOL0     C 8151   0.175   8.894   0.655  0.8258  0.8192  0.5343
  802MOL0     N 8152   0.231   9.011   0.579 -0.3504  0.3992  0.8524
  802MOL0     C 8153   0.237   9.028   0.446 -0.9130 -0.4503 -0.0006
  802MOL0     C 8154   0.312   9.136   0.420  0.9069  1.0769 -0.8205
  802MOL0     C 8155   0.316   9.204   0.284 -0.2229 -0.9340 -0.4074
  802MOL0     C 8156   0.190   9.290   0.256 -0.2962  0.3689 -0.4239
  802MOL0     C 8157   0.066   9.214   0.209  0.9718 -0.6000 -0.9939
  802MOL0     C 8158   0.094   9.153   0.070  0.5424 -0.5402 -0.0327
  802MOL0     O 8159   0.149   9.020   0.069 -0.5484  0.5818  0.1534
  802MOL0     C 8160   0.059   8.922   0.104 -0.9853  0.4793  0.4947
  802MOL0     C 8161  -0.071   8.917   0.155  1.2990 -0.1146  0.1565
  802MOL0     C 8162  -0.139   8.806   0.187 -0.0390 -0.8459 -0.3915
  802MOL0     C 8163  -0.281   8.822   0.245  0.1749 -0.7554 -0.1405
  802MOL0     C 8164  -0.073   8.677   0.178 -0.5694  0.4087 -0.5211
  802MOL0     C 8165  -0.131   8.547   0.225  0.0552 -0.3090 -0.5224
  802MOL0     O 8166  -0.139   8.453   0.124  0.1680  0.4584 -0.5963
  802MOL0     C 8167  -0.213   8.341   0.138 -0.7258 -0.2195 -1.0073
  802MOL0     C 8168  -0.294   8.302   0.035  0.5149 -0.6551 -0.0145
  802MOL0     C 8169  -0.358   8.172   0.041 -0.5028  0.3465  0.1195
  802MOL0     C 8170  -0.339   8.092   0.158 -0.2287  0.1352 -0.1162
  802MOL0     O 8171  -0.402   7.971   0.171 -0.0404  0.7139 -0.2716
  802MOL0     C 8172  -0.331   7.867   0.096 -0.2482 -0.6472 -0.2585
  802MOL0     C 8173  -0.416   7.747   0.066 -0.6029  0.7695 -0.3464
  802MOL0     C 8174  -0.345   7.621   0.031  0.2397  0.7760 -0.4335
  802MOL0     C 8175  -0.429   7.514  -0.024  0.5937  0.2722 -0.1212
  802MOL0     C 8176  -0.364   7.392  -0.082 -0.1115  0.2701  0.1955
  802MOL0     C 8177  -0.461   7.277  -0.127  0.1115 -0.3861 -0.6666
  802MOL0     C 8178  -0.390   7.149  -0.156  0.3579  0.1012 -0.7088
  802MOL0     C 8179  -0.489   7.043  -0.197  0.6310 -0.1601 -1.0467
  802MOL0    Cl 8180  -0.415   6.887  -0.239  0.4822 -0.3713  0.4076
  802MOL0     C 8181  -0.244   8.122   0.254  0.2934 -0.5374  0.1014
  802MOL0     C 8182  -0.184   8.248   0.246  0.4051  0.4942 -0.3783
  802MOL0     O 8183  -0.169   8.534   0.339  0.1123 -0.1741 -0.5503
  802MOL0     C 8184   0.054   8.674   0.129 -0.3867  0.1696  0.1155
  802MOL0     C 8185   0.112   8.794   0.081 -0.1296  0.4885  0.2962
  802MOL0     N 8186   0.350   9.182   0.547  0.3119 -0.4817  0.1738
  802MOL0     N 8187   0.306   9.106   0.639 -0.0595 -1.3491 -0.5512
  802MOL0     C 8188   0.475   8.840   1.424 -0.4770  0.6618 -0.2139
  802MOL0     C 8189   0.510   8.810   1.562  0.6742  0.1189  0.0627
  802MOL0     C 8190   0.745   8.810   1.942  0.0973 -0.5026 -0.3303
  802MOL0     C 8191   0.734   8.683   1.999  0.7556  0.4743  0.3304
  802MOL0     C 8192   0.757   8.658   2.139 -0.5169  0.3099  0.1364
  802MOL0     C 8193   0.806   8.764   2.216  1.1124  0.0386  0.1001
  802MOL0     O 8194   0.839   8.751   2.349  0.6009  0.0925  1.0989
  802MOL0     C 8195   0.821   8.618   2.411 -0.6642 -0.4239  0.1338
  802MOL0     C 8196   0.870   8.631   2.557  0.4966 -0.9365 -0.3284
  802MOL0     C 8197   0.818   8.508   2.638 -0.6873  0.7509  0.8723
  802MOL0     C 8198   0.902   8.495   2.771  0.4300 -0.1968 -0.7827
  802MOL0     C 8199   0.913   8.347   2.779 -0.2704  0.4999 -0.2399
  802MOL0     C 8200   0.910   8.228   2.790  0.2308 -1.1727 -0.3693
  802MOL0     C 8201   0.813   8.892   2.162  0.1650 -0.2450  0.5069
  802MOL0     C 8202   0.787   8.913   2.032 -0.2792  0.4310 -0.0324
  802MOL0     H 8203   0.824   8.673   1.512  0.4416  0.2419 -2.5408
  802MOL0     H 8204   0.761   8.721   1.288  1.4378  1.1380  1.9346
  802MOL0     H 8205   0.661   8.764   1.059  0.0717 -2.9940 -1.3244
  802MOL0     H 8206   0.574   8.630   1.138  3.6007 -0.3057  0.3325
  802MOL0     H 8207   0.352   8.715   1.039 -1.2119  1.1360 -3.6800
  802MOL0     H 8208   0.441   8.828   0.949  0.0435  1.4017  1.9615
  802MOL0     H 8209   0.589   8.620   0.862  0.8022 -0.4117  0.3481
  802MOL0     H 8210   0.473   8.525   0.947 -0.2630  0.6791  0.7678
  802MOL0     H 8211   0.387   8.503   0.727 -0.7250 -1.0090  1.2113
  802MOL0     H 8212   0.283   8.615   0.807  0.1114  0.4988 -0.3778
  802MOL0     H 8213   0.422   8.809   0.714 -0.6598  0.6114 -1.2850
  802MOL0     H 8214   0.526   8.685   0.641  0.1371 -0.2155 -1.2980
  802MOL0     H 8215   0.366   8.781   0.476  3.4662  1.4799  2.7835
  802MOL0     H 8216   0.335   8.604   0.501  0.1095 -0.8076  0.9450
  802MOL0     H 8217   0.121   8.752   0.508 -1.6832  1.1265  0.8733
  802MOL0     H 8218   0.156   8.673   0.665  2.0599 -2.3382 -2.0410
  802MOL0     H 8219   0.213   8.892   0.758  4.9553 -1.8964 -0.8142
  802MOL0     H 8220   0.068   8.917   0.663  0.2744 -1.2699 -0.2616
  802MOL0     H 8221   0.176   8.977   0.372 -0.5408  0.4142 -0.9332
  802MOL0     H 8222   0.400   9.271   0.265 -0.5002  0.3566  2.3783
  802MOL0     H 8223   0.319   9.122   0.212  1.9870  0.3920 -1.9126
  802MOL0     H 8224   0.209   9.364   0.178 -1.6543  1.0651 -0.1293
  802MOL0     H 8225   0.180   9.364   0.337 -3.1967 -0.5001  0.1315
  802MOL0     H 8226  -0.014   9.287   0.195  2.1401  0.3694 -3.0432
  802MOL0     H 8227   0.036   9.133   0.277  3.0821 -0.5248  0.1237
  802MOL0     H 8228   0.178   9.204   0.022 -0.4834  0.9752 -0.3004
  802MOL0     H 8229   0.005   9.157   0.006  1.6309  0.0632 -1.5805
  802MOL0     H 8230  -0.119   9.011   0.181  1.0686  0.0584 -0.8535
  802MOL0     H 8231  -0.320   8.719   0.246 -1.6822 -0.1772  2.9605
  802MOL0     H 8232  -0.284   8.869   0.344 -1.1679 -1.2314  0.0692
  802MOL0     H 8233  -0.341   8.879   0.173  1.9047  0.4251 -0.6983
  802MOL0     H 8234  -0.300   8.367  -0.051 -2.7967 -1.7813 -0.7918
  802MOL0     H 8235  -0.429   8.147  -0.037  0.7837 -1.7499 -0.4691
  802MOL0     H 8236  -0.281   7.898   0.004  0.1618 -1.9764 -0.5148
  802MOL0     H 8237  -0.242   7.832   0.149  0.5450  0.1667 -1.0119
  802MOL0     H 8238  -0.481   7.726   0.152 -2.1546  1.7271 -1.2297
  802MOL0     H 8239  -0.476   7.782  -0.019  0.0536 -0.5460 -1.3736
  802MOL0     H 8240  -0.301   7.572   0.119 -1.6153 -2.7369 -1.2471
  802MOL0     H 8241  -0.268   7.653  -0.039 -1.7130  1.4009 -2.4045
  802MOL0     H 8242  -0.501   7.484   0.053 -0.3601 -1.1361 -1.4751
  802MOL0     H 8243  -0.488   7.559  -0.104  1.4131 -1.8037 -2.0081
  802MOL0     H 8244  -0.278   7.367  -0.020  1.1774  0.9227 -1.2498
  802MOL0     H 8245  -0.316   7.437  -0.169  0.6506  0.7729  0.8601
  802MOL0     H 8246  -0.526   7.258  -0.042 -1.4288 -0.9438 -1.9275
  802MOL0     H 8247  -0.519   7.324  -0.206 -0.3434  2.6329  1.2861
  802MOL0     H 8248  -0.333   7.108  -0.073 -1.2020 -0.6175  0.0475
  802MOL0     H 8249  -0.311   7.156  -0.231  0.5194 -3.0280 -0.9913
  802MOL0     H 8250  -0.544   7.074  -0.287 -3.3681  1.1904  1.6057
  802MOL0     H 8251  -0.560   7.029  -0.115 -0.9455 -0.7597 -2.4555
  802MOL0     H 8252  -0.218   8.044   0.326  0.6404  1.5612  2.3913
  802MOL0     H 8253  -0.108   8.264   0.321  0.3180 -0.3577 -0.1011
  802MOL0     H 8254   0.108   8.581   0.114 -1.1517 -0.5295  1.5212
  802MOL0     H 8255   0.211   8.779   0.040 -1.6044 -2.0461 -2.8257
  802MOL0     H 8256   0.386   8.892   1.389 -0.7867  1.1598  1.2314
  802MOL0     H 8257   0.439   8.841   1.638  1.9266 -1.5530  2.0198
  802MOL0     H 8258   0.690   8.597   1.949  2.6926 -0.7353  0.6095
  802MOL0     H 8259   0.746   8.551   2.157  1.0830 -0.2693 -1.9591
  802MOL0     H 8260   0.717   8.584   2.412 -0.9820  0.2503  4.3294
  802MOL0     H 8261   0.884   8.553   2.349 -0.9657  0.4508 -1.1358
  802MOL0     H 8262   0.817   8.716   2.601  0.3255 -2.2398  2.2116
  802MOL0     H 8263   0.979   8.646   2.564  0.1000  2.1158  1.1414
  802MOL0     H 8264   0.837   8.422   2.572  0.5463  1.3084  0.4662
  802MOL0     H 8265   0.711   8.506   2.660 -0.5838  1.2942  1.4776
  802MOL0     H 8266   0.842   8.537   2.852 -0.5193 -1.2604 -0.9134
  802MOL0     H 8267   0.996   8.552   2.778 -0.5224  1.6349 -2.0983
  802MOL0     H 8268   0.895   8.125   2.812  1.8084 -1.2837  0.3640
  802MOL0     H 8269   0.854   8.969   2.226 -1.6200  1.9252 -0.8061
  802MOL0     H 8270   0.793   9.014   1.994 -0.8388  1.9761  3.5252
  803MOL0     O 8271   1.150   2.086   2.363  0.0783  0.5191 -0.4269
  803MOL0     C 8272   1.194   2.181   2.429  0.0517 -0.1042  0.4842
  803MOL0     O 8273   1.225   2.302   2.377 -1.2370 -0.6003  0.2271
  803MOL0     C 8274   1.189   2.339   2.252  1.0609 -0.8612  0.1506
  803MOL0     C 8275   1.069   2.295   2.189 -0.2839  0.5920  0.2824
  803MOL0     C 8276   1.031   2.339   2.065  0.6476 -0.6598  0.8039
  803MOL0     C 8277   1.114   2.434   1.997  0.0645 -0.2925 -0.4031
  803MOL0     O 8278   1.096   2.484   1.871 -0.1831  0.5762 -0.0778
  803MOL0     C 8279   0.961   2.475   1.817 -0.0906 -0.6975  0.5220
  803MOL0     C 8280   0.967   2.558   1.684  0.2942  0.9274 -0.5494
  803MOL0     C 8281   0.825   2.585   1.606 -1.7655 -0.0724 -0.5234
  803MOL0     C 8282   0.722   2.639   1.698  1.3949 -0.7731 -0.7288
  803MOL0     C 8283   0.592   2.698   1.627 -0.1007 -0.2816  0.4085
  803MOL0     C 8284   0.609   2.817   1.531 -0.9068 -0.7512  0.7090
  803MOL0     C 8285   0.511   2.835   1.417 -0.0875 -0.7229  0.3347
  803MOL0     C 8286   0.546   2.743   1.298  0.6470 -0.5338  0.1311
  803MOL0     N 8287   0.452   2.768   1.189  0.3011  0.3842 -0.3442
  803MOL0     C 8288   0.491   2.835   1.080 -0.2793 -0.2667 -0.2450
  803MOL0     C 8289   0.394   2.828   0.987  0.1564  0.3070 -0.4579
  803MOL0     C 8290   0.383   2.890   0.847  0.2195  0.5378  0.0331
  803MOL0     C 8291   0.423   2.796   0.731  0.2993 -1.0654  0.0673
  803MOL0     C 8292   0.568   2.772   0.701  0.4697 -0.3009  0.3787
  803MOL0     C 8293   0.597   2.693   0.571  0.3520  0.2244 -0.0845
  803MOL0     O 8294   0.737   2.700   0.549 -0.0272  0.7216 -0.0935
  803MOL0     C 8295   0.785   2.632   0.437  0.3662  0.1249  0.6081
  803MOL0     C 8296   0.912   2.650   0.392 -0.6917  0.2258  0.1646
  803MOL0     C 8297   0.980   2.577   0.290  0.4435  0.5800 -0.4511
  803MOL0     C 8298   1.126   2.620   0.255 -0.2208 -0.1893 -0.2242
  803MOL0     C 8299   0.899   2.486   0.221 -0.2221 -0.0657  0.1893
  803MOL0     C 8300   0.949   2.411   0.101  0.5861  0.4056 -0.0334
  803MOL0     O 8301   1.065   2.444   0.040 -0.2944 -0.4926 -0.4607
  803MOL0     C 8302   1.122   2.360  -0.042 -0.8943  0.1650 -0.0566
  803MOL0     C 8303   1.093   2.370  -0.177  0.7067  0.1042 -0.3518
  803MOL0     C 8304   1.166   2.295  -0.273  0.7864 -0.3703  0.3272
  803MOL0     C 8305   1.268   2.214  -0.231  0.5376  0.8508 -0.2453
  803MOL0     O 8306   1.343   2.159  -0.331 -0.4343  0.1721  0.3606
  803MOL0     C 8307   1.433   2.056  -0.304  0.2429 -0.1932 -0.1540
  803MOL0     C 8308   1.522   2.032  -0.413  0.1988 -0.7170  0.4386
  803MOL0     C 8309   1.454   1.970  -0.537 -0.4111  0.7251 -0.7103
  803MOL0     C 8310   1.560   1.924  -0.642 -0.6355  0.2804  0.4912
  803MOL0     C 8311   1.474   1.876  -0.765 -0.1505 -0.1668 -0.0715
  803MOL0     C 8312   1.373   1.757  -0.737 -0.1905  0.0566  0.2547
  803MOL0     C 8313   1.310   1.705  -0.870 -0.4461  0.1905  0.7313
  803MOL0     C 8314   1.211   1.595  -0.854  0.8235  0.5938 -0.0033
  803MOL0    Cl 8315   1.221   1.465  -0.995  0.1783  0.2098 -0.0883
  803MOL0     C 8316   1.296   2.200  -0.086 -0.4190  0.0445 -0.3998
  803MOL0     C 8317   1.226   2.276  -0.001  0.9877 -1.1182 -0.0568
  803MOL0     O 8318   0.869   2.333   0.055  0.4285 -0.0911  0.0532
  803MOL0     C 8319   0.764   2.468   0.264  0.8914 -0.0233 -0.3976
  803MOL0     C 8320   0.712   2.537   0.371  0.4453  0.3580  0.5486
  803MOL0     N 8321   0.291   2.754   1.048  0.1045  0.3647 -0.1922
  803MOL0     N 8322   0.333   2.708   1.163 -0.8470 -0.9130 -0.5876
  803MOL0     C 8323   1.228   2.485   2.064 -0.2370  0.0826 -0.7950
  803MOL0     C 8324   1.261   2.436   2.188  0.4276  0.3568  0.0960
  803MOL0     C 8325   1.179   2.179   2.576 -0.4255  0.6172 -0.3610
  803MOL0     C 8326   1.201   2.298   2.645 -0.4964 -0.4143  0.9326
  803MOL0     C 8327   1.195   2.306   2.787  0.2166 -0.0190 -0.4268
  803MOL0     C 8328   1.170   2.188   2.860 -0.2054 -0.6752 -1.2725
  803MOL0     O 8329   1.168   2.178   3.001 -0.5716  0.4468 -0.3056
  803MOL0     C 8330   1.232   2.064   3.068  0.2087  0.9941 -0.4653
  803MOL0     C 8331   1.355   2.108   3.157 -1.1532 -0.7314  0.3031
  803MOL0     C 8332   1.330   2.240   3.233  0.5284 -0.3224  0.0777
  803MOL0     C 8333   1.452   2.281   3.325 -1.0656 -0.5425  0.9922
  803MOL0     C 8334   1.499   2.194   3.429  0.4563  0.7152  0.2481
  803MOL0     C 8335   1.549   2.137   3.521  0.1925 -0.1415  0.0610
  803MOL0     C 8336   1.136   2.069   2.792 -0.4270  1.0132 -0.4642
  803MOL0     C 8337   1.135   2.069   2.652 -0.1997 -0.3578  0.3849
  803MOL0     H 8338   0.996   2.231   2.237 -0.6659  0.2095 -0.7968
  803MOL0     H 8339   0.935   2.307   2.027  0.8424 -0.3103 -0.0054
  803MOL0     H 8340   0.934   2.373   1.790 -1.1385  0.0829 -1.5456
  803MOL0     H 8341   0.890   2.520   1.886 -0.1130  0.5120 -0.2675
  803MOL0     H 8342   1.017   2.654   1.702  2.8296 -0.8549  3.0363
  803MOL0     H 8343   1.030   2.502   1.615  0.5478 -0.9673  1.1326
  803MOL0     H 8344   0.848   2.642   1.515  0.9961 -0.8673 -0.4153
  803MOL0     H 8345   0.788   2.494   1.559  0.3439  0.0865 -2.6738
  803MOL0     H 8346   0.698   2.554   1.764  0.5051  0.2364  0.2838
  803MOL0     H 8347   0.763   2.722   1.755  1.1097 -0.1734 -1.3851
  803MOL0     H 8348   0.549   2.618   1.566  0.5675  0.1237 -0.6337
  803MOL0     H 8349   0.510   2.728   1.692  0.6963 -0.3324  1.4609
  803MOL0     H 8350   0.589   2.909   1.586 -0.4277 -0.9895  1.2887
  803MOL0     H 8351   0.713   2.815   1.499 -1.1887  0.4021 -0.3436
  803MOL0     H 8352   0.408   2.812   1.447 -0.1492 -1.2014 -0.2172
  803MOL0     H 8353   0.504   2.940   1.384  0.9499 -0.0678  2.0498
  803MOL0     H 8354   0.523   2.640   1.327  3.2390 -0.8978  1.1269
  803MOL0     H 8355   0.647   2.770   1.264 -0.8462  4.2874 -1.2721
  803MOL0     H 8356   0.584   2.889   1.068 -1.8678  2.8395  0.2228
  803MOL0     H 8357   0.287   2.937   0.825  0.7299  1.1047 -1.0634
  803MOL0     H 8358   0.455   2.971   0.846 -1.3861  2.0448 -2.0111
  803MOL0     H 8359   0.367   2.842   0.649 -2.5979 -0.6390  2.1081
  803MOL0     H 8360   0.379   2.696   0.739 -0.8173 -0.7044 -1.1105
  803MOL0     H 8361   0.619   2.722   0.784  0.6892 -0.7645 -0.0260
  803MOL0     H 8362   0.623   2.866   0.694  2.4803 -1.0514  3.9229
  803MOL0     H 8363   0.536   2.740   0.493 -3.8855 -0.9441  2.2179
  803MOL0     H 8364   0.570   2.590   0.592  5.2353 -1.1543  0.7603
  803MOL0     H 8365   0.968   2.729   0.442  3.3550 -1.6975 -0.9259
  803MOL0     H 8366   1.198   2.540   0.240  1.0497  0.1469  3.3708
  803MOL0     H 8367   1.117   2.686   0.167 -0.5529 -0.0885 -0.1171
  803MOL0     H 8368   1.157   2.692   0.331 -3.2300  1.9953 -0.8657
  803MOL0     H 8369   1.033   2.454  -0.211 -0.9588 -0.6890  0.4947
  803MOL0     H 8370   1.140   2.311  -0.377 -1.8402 -0.9082  0.8236
  803MOL0     H 8371   1.499   2.080  -0.220  1.3303 -1.3383 -0.6503
  803MOL0     H 8372   1.375   1.970  -0.270  0.5626 -1.1904 -2.0148
  803MOL0     H 8373   1.565   2.125  -0.453 -3.2499  1.6255  1.7651
  803MOL0     H 8374   1.601   1.964  -0.381  2.8053  1.9220  0.1213
  803MOL0     H 8375   1.395   2.038  -0.599  0.6832  0.1605 -2.4342
  803MOL0     H 8376   1.393   1.885  -0.504  0.9194  1.3760  4.2759
  803MOL0     H 8377   1.617   2.011  -0.674  1.1552 -1.3179 -0.9119
  803MOL0     H 8378   1.618   1.844  -0.596  0.0070  1.3553  1.6060
  803MOL0     H 8379   1.550   1.849  -0.839 -0.1073 -1.1704  0.3221
  803MOL0     H 8380   1.415   1.961  -0.800 -0.2919  0.0430  0.6517
  803MOL0     H 8381   1.434   1.685  -0.681 -2.2305  0.1845  2.7865
  803MOL0     H 8382   1.301   1.794  -0.664  2.4689  2.0650  2.0735
  803MOL0     H 8383   1.396   1.666  -0.926 -0.2306  2.1904 -0.4443
  803MOL0     H 8384   1.271   1.784  -0.935  0.4822  0.2905  0.2684
  803MOL0     H 8385   1.111   1.638  -0.845 -0.2595 -1.7448 -0.0668
  803MOL0     H 8386   1.241   1.546  -0.761 -2.6467 -0.2597  0.8040
  803MOL0     H 8387   1.392   2.161  -0.052 -0.8570  0.2077  1.1075
  803MOL0     H 8388   1.257   2.276   0.103  2.6806 -0.6015 -0.5329
  803MOL0     H 8389   0.692   2.401   0.219  2.2688 -1.6474 -0.3061
  803MOL0     H 8390   0.610   2.513   0.399  0.0328  2.8807  1.5143
  803MOL0     H 8391   1.287   2.566   2.022  0.3826 -0.4629 -0.9874
  803MOL0     H 8392   1.343   2.473   2.249  1.3113 -3.0944  1.2705
  803MOL0     H 8393   1.228   2.395   2.605  2.4734 -0.9287  1.4275
  803MOL0     H 8394   1.200   2.398   2.844 -0.1304 -0.6645  0.6759
  803MOL0     H 8395   1.160   2.009   3.129  1.0563  0.6235  0.2247
  803MOL0     H 8396   1.272   1.992   2.996 -0.1281 -0.1631  0.4730
  803MOL0     H 8397   1.444   2.125   3.095 -0.4368  0.3673  1.5630
  803MOL0     H 8398   1.388   2.042   3.237  1.5570  0.2842  0.1426
  803MOL0     H 8399   1.239   2.228   3.292 -1.4021  0.7107 -2.4926
  803MOL0     H 8400   1.304   2.310   3.153 -1.8166 -0.6963  0.4532
  803MOL0     H 8401   1.438   2.380   3.370  1.4695 -0.0116  0.7789
  803MOL0     H 8402   1.539   2.295   3.260  0.1994 -0.8030  2.5600
  803MOL0     H 8403   1.611   2.085   3.591  0.1250 -1.4553 -0.8105
  803MOL0     H 8404   1.107   1.981   2.849  0.8262 -0.2595 -1.7053
  803MOL0     H 8405   1.095   1.984   2.598 -2.7106 -0.1042  1.6967
  804MOL0     O 8406   5.718   2.267   3.718 -0.1367 -0.3309  0.0688
  804MOL0     C 8407   5.628   2.243   3.798 -0.4215  0.0255  0.1982
  804MOL0     O 8408   5.632   2.288   3.930 -0.1695 -0.1461 -0.3242
  804MOL0     C 8409   5.729   2.365   3.993  0.2536 -0.4316 -0.6739
  804MOL0     C 8410   5.723   2.400   4.127  0.8566  0.4531 -0.9530
  804MOL0     C 8411   5.809   2.482   4.187  0.0660 -0.5619  0.5005
  804MOL0     C 8412   5.916   2.541   4.124  0.4704 -0.1974  0.4862
  804MOL0     O 8413   6.005   2.621   4.193 -0.2197 -0.6027 -0.3292
  804MOL0     C 8414   6.037   2.741   4.128  0.2582  0.0865  0.5235
  804MOL0     C 8415   6.104   2.841   4.227 -0.0720  0.2548  1.0396
  804MOL0     C 8416   6.215   2.769   4.316  0.5352  1.0038  0.5377
  804MOL0     C 8417   6.275   2.851   4.422 -0.2934 -0.7828  0.2851
  804MOL0     C 8418   6.391   2.774   4.488 -0.1417  0.0188  0.4950
  804MOL0     C 8419   6.422   2.857   4.617 -0.1015 -0.1207  0.6894
  804MOL0     C 8420   6.539   2.956   4.592  0.4629  0.0984  0.8062
  804MOL0     C 8421   6.610   3.007   4.717  0.6773 -0.5783  0.0520
  804MOL0     N 8422   6.752   3.052   4.690 -0.3038  0.5898 -0.2717
  804MOL0     C 8423   6.805   3.126   4.591 -1.0626 -0.7050  0.3285
  804MOL0     C 8424   6.938   3.118   4.608 -0.5164  1.0416 -0.5377
  804MOL0     C 8425   7.035   3.209   4.547 -0.5250  0.2956  0.3727
  804MOL0     C 8426   7.054   3.170   4.394 -0.3184 -0.7097 -0.4094
  804MOL0     C 8427   7.172   3.276   4.342  0.3412  0.4672 -0.1109
  804MOL0     C 8428   7.206   3.262   4.194 -0.7513 -0.9522  0.5692
  804MOL0     O 8429   7.280   3.143   4.181  0.2815  0.2261 -0.6658
  804MOL0     C 8430   7.272   3.074   4.063  0.3279 -0.1287 -0.0364
  804MOL0     C 8431   7.144   3.015   4.032  0.1385 -0.8924  0.3657
  804MOL0     C 8432   7.121   2.959   3.902  0.4318 -0.3948  0.3290
  804MOL0     C 8433   7.008   2.875   3.874  0.4981 -0.0919 -0.3455
  804MOL0     C 8434   7.228   2.963   3.807  1.0959 -0.6634  0.2078
  804MOL0     C 8435   7.212   2.908   3.676 -0.5469 -0.4531  0.5428
  804MOL0     O 8436   7.105   2.952   3.597  0.7780 -0.1677  0.2288
  804MOL0     C 8437   7.088   2.887   3.475 -0.3244  0.7343  0.1276
  804MOL0     C 8438   6.977   2.807   3.480 -0.5730  1.6603  0.1017
  804MOL0     C 8439   6.948   2.737   3.356 -0.1153 -0.2323  0.2725
  804MOL0     C 8440   7.022   2.761   3.239  0.5846 -0.8297 -0.0188
  804MOL0     O 8441   6.988   2.734   3.106  0.0127  0.2801 -0.4052
  804MOL0     C 8442   6.911   2.611   3.083 -1.1941  0.0966  0.6075
  804MOL0     C 8443   7.001   2.495   3.049 -0.3699 -0.2627  0.2622
  804MOL0     C 8444   6.932   2.390   2.959  0.4262 -0.6675  0.4351
  804MOL0     C 8445   7.035   2.281   2.918  0.3400  0.1650 -0.2079
  804MOL0     C 8446   6.990   2.177   2.806  0.4409 -0.8521  0.3136
  804MOL0     C 8447   6.890   2.074   2.865  0.0207  0.2526  0.5553
  804MOL0     C 8448   6.826   1.985   2.747 -0.4305  0.3468  0.0877
  804MOL0     C 8449   6.700   1.911   2.789  1.1993 -0.2872  0.3658
  804MOL0    Cl 8450   6.574   2.027   2.849 -0.1350 -0.2359  0.0910
  804MOL0     C 8451   7.144   2.830   3.249  0.4340  0.2870  1.4649
  804MOL0     C 8452   7.178   2.894   3.363  0.4851  0.4357 -0.6231
  804MOL0     O 8453   7.303   2.843   3.632 -0.3099  0.0227 -0.6194
  804MOL0     C 8454   7.345   3.030   3.840 -0.9226  0.3071  0.5038
  804MOL0     C 8455   7.364   3.085   3.962 -0.6097 -0.3149  0.9675
  804MOL0     N 8456   6.958   3.049   4.723 -0.5693 -0.0673  1.1740
  804MOL0     N 8457   6.853   3.009   4.773  0.3809  0.1181  0.7816
  804MOL0     C 8458   5.926   2.517   3.987  1.4989  1.1098  0.7327
  804MOL0     C 8459   5.831   2.434   3.925 -0.0484 -0.7013 -1.1190
  804MOL0     C 8460   5.513   2.170   3.746  0.0216 -0.0667 -0.2600
  804MOL0     C 8461   5.520   2.079   3.637 -0.3429  0.2749 -0.5917
  804MOL0     C 8462   5.404   2.007   3.604 -0.5751  0.3247 -0.0512
  804MOL0     C 8463   5.286   2.032   3.674  1.2797 -0.0073  0.1918
  804MOL0     O 8464   5.171   1.955   3.651  0.3387 -0.7078  0.2294
  804MOL0     C 8465   5.053   1.976   3.734  0.5026 -0.6417 -1.4951
  804MOL0     C 8466   4.934   1.901   3.693  0.3765  0.3348  0.0132
  804MOL0     C 8467   4.961   1.753   3.673 -0.1365 -0.2142  0.0267
  804MOL0     C 8468   4.844   1.658   3.627 -0.6300 -0.0049  0.6671
  804MOL0     C 8469   4.728   1.640   3.715 -0.1684 -0.7035  0.4794
  804MOL0     C 8470   4.644   1.626   3.800  0.2127  0.0136  0.5518
  804MOL0     C 8471   5.276   2.133   3.769 -0.4462 -0.1511  0.7871
  804MOL0     C 8472   5.393   2.186   3.813 -0.0432  0.4257 -0.2417
  804MOL0     H 8473   5.633   2.376   4.182  1.1525  0.5343 -0.4280
  804MOL0     H 8474   5.804   2.507   4.293  0.1443 -0.8107  0.5632
  804MOL0     H 8475   6.114   2.727   4.051  1.0518 -1.8686  1.6140
  804MOL0     H 8476   5.940   2.776   4.092  0.6727  0.0136 -0.6986
  804MOL0     H 8477   6.140   2.930   4.174 -2.5219  0.9052  0.3475
  804MOL0     H 8478   6.023   2.876   4.292 -0.9365  1.0682 -0.4220
  804MOL0     H 8479   6.171   2.677   4.356  0.3161  0.4326 -0.9650
  804MOL0     H 8480   6.300   2.738   4.254 -1.2691 -1.3206 -0.9339
  804MOL0     H 8481   6.309   2.952   4.398  0.0235 -0.5091  1.8154
  804MOL0     H 8482   6.203   2.873   4.501  0.7224  0.0682  0.9931
  804MOL0     H 8483   6.377   2.667   4.507  0.6236 -0.4394 -1.2422
  804MOL0     H 8484   6.476   2.762   4.420 -0.8667 -2.4712 -0.0846
  804MOL0     H 8485   6.333   2.905   4.658 -1.5510 -0.8915 -1.3879
  804MOL0     H 8486   6.463   2.778   4.681  1.3345 -0.1387 -0.2092
  804MOL0     H 8487   6.617   2.905   4.535 -0.7094  0.7067 -1.4758
  804MOL0     H 8488   6.506   3.042   4.533  3.4086 -0.2283 -1.5672
  804MOL0     H 8489   6.610   2.939   4.803 -0.0947  0.5429  0.9897
  804MOL0     H 8490   6.545   3.090   4.748  0.3212 -0.5188 -0.8223
  804MOL0     H 8491   6.766   3.181   4.505  1.8249 -0.3903 -0.8916
  804MOL0     H 8492   6.983   3.305   4.546 -0.7549  0.1754 -1.3891
  804MOL0     H 8493   7.126   3.210   4.608  0.3120 -0.5951 -0.8143
  804MOL0     H 8494   6.963   3.183   4.334 -0.1453 -1.1590 -0.7767
  804MOL0     H 8495   7.102   3.072   4.385  1.5710  0.0622  0.7095
  804MOL0     H 8496   7.265   3.271   4.399  1.9309 -1.0085 -2.6146
  804MOL0     H 8497   7.129   3.375   4.358  4.4275  2.1788  1.8311
  804MOL0     H 8498   7.269   3.348   4.172 -0.0334 -1.2965  1.2246
  804MOL0     H 8499   7.122   3.261   4.124 -2.4989 -1.6469  2.5657
  804MOL0     H 8500   7.067   3.035   4.107 -2.3740  0.7982 -2.4123
  804MOL0     H 8501   7.051   2.774   3.868  1.0125  0.2077 -2.8663
  804MOL0     H 8502   6.937   2.899   3.954  1.9363  3.7507 -0.0429
  804MOL0     H 8503   6.952   2.896   3.783  1.1621 -0.9590 -0.9739
  804MOL0     H 8504   6.912   2.808   3.567 -0.4514 -1.4737  0.3379
  804MOL0     H 8505   6.860   2.672   3.356  0.0779 -0.5118 -0.6362
  804MOL0     H 8506   6.834   2.584   3.156 -3.3060 -0.6093 -1.7448
  804MOL0     H 8507   6.858   2.647   2.994  2.1993  2.3916 -0.6842
  804MOL0     H 8508   7.075   2.541   2.982 -0.2819 -0.8949 -0.0840
  804MOL0     H 8509   7.044   2.444   3.135  3.6426  0.9779 -0.7851
  804MOL0     H 8510   6.880   2.432   2.872  0.5852 -0.6528  0.3481
  804MOL0     H 8511   6.846   2.343   3.008 -0.6584  1.8012  1.0916
  804MOL0     H 8512   7.114   2.341   2.872 -0.0982  2.0762  1.4001
  804MOL0     H 8513   7.070   2.228   3.007 -2.1308  0.9922  1.3538
  804MOL0     H 8514   7.084   2.132   2.773  0.4993 -1.0135  0.6972
  804MOL0     H 8515   6.939   2.239   2.731 -2.1666 -2.7056  0.4199
  804MOL0     H 8516   6.939   2.013   2.942 -0.5388 -0.8082  0.0885
  804MOL0     H 8517   6.805   2.123   2.914 -0.0146 -0.7405  1.5209
  804MOL0     H 8518   6.898   1.909   2.715 -0.9857 -0.9224  1.6810
  804MOL0     H 8519   6.812   2.055   2.665 -2.4172  0.3293  0.3765
  804MOL0     H 8520   6.712   1.822   2.851 -1.1729 -2.2847 -1.7827
  804MOL0     H 8521   6.666   1.865   2.695 -0.0561 -0.6945  0.9959
  804MOL0     H 8522   7.205   2.840   3.160  1.5209  3.5910  2.4544
  804MOL0     H 8523   7.266   2.955   3.379  1.0507  0.1096 -2.2527
  804MOL0     H 8524   7.429   3.033   3.771 -1.0678 -2.6421  0.0506
  804MOL0     H 8525   7.457   3.131   3.995 -1.8564  1.1110  2.6748
  804MOL0     H 8526   6.001   2.574   3.932  1.1977  0.7311 -0.0989
  804MOL0     H 8527   5.831   2.423   3.817 -1.6866  2.0255 -1.4962
  804MOL0     H 8528   5.613   2.042   3.595 -0.3214  1.9252 -2.1210
  804MOL0     H 8529   5.408   1.928   3.529 -3.0997  0.9168 -0.9198
  804MOL0     H 8530   5.091   1.955   3.834 -1.9608 -1.1134 -0.5686
  804MOL0     H 8531   5.025   2.082   3.733  0.4033 -0.6529 -0.7131
  804MOL0     H 8532   4.896   1.941   3.599  0.0732 -0.3310 -0.1539
  804MOL0     H 8533   4.859   1.898   3.772  0.6215 -2.8833  0.2567
  804MOL0     H 8534   5.012   1.715   3.762 -2.1942 -2.1356  0.4831
  804MOL0     H 8535   5.034   1.748   3.592 -0.8454 -1.6651 -0.5668
  804MOL0     H 8536   4.893   1.560   3.624  4.1984  1.7841  5.4081
  804MOL0     H 8537   4.817   1.686   3.524 -0.3603  0.2949  0.6768
  804MOL0     H 8538   4.560   1.630   3.868 -0.8529  0.8766 -0.7666
  804MOL0     H 8539   5.189   2.178   3.815 -0.6420  1.0491 -0.6680
  804MOL0     H 8540   5.377   2.254   3.896  1.1245  0.5524 -0.1092
  805MOL0     O 8541  10.442  11.296   2.256  0.5251  0.9315  0.2409
  805MOL0     C 8542  10.320  11.265   2.253  1.0092  0.0123  0.0028
  805MOL0     O 8543  10.272  11.155   2.323  0.2070  0.3292  0.5448
  805MOL0     C 8544  10.355  11.094   2.415  0.3294 -0.3358 -0.3874
  805MOL0     C 8545  10.363  10.953   2.427 -0.1340  0.8625 -0.1474
  805MOL0     C 8546  10.433  10.890   2.534 -1.0788 -0.2841  0.5380
  805MOL0     C 8547  10.507  10.968   2.631  0.0356  0.4466  0.4753
  805MOL0     O 8548  10.592  10.913   2.722 -0.5584 -0.2122 -0.0926
  805MOL0     C 8549  10.543  10.808   2.805  0.1508 -1.0585  0.1873
  805MOL0     C 8550  10.635  10.775   2.924 -0.8409 -0.9107  0.4178
  805MOL0     C 8551  10.586  10.837   3.050 -1.3422  0.3015  0.1892
  805MOL0     C 8552  10.672  10.802   3.173  0.4346 -0.2959 -0.1550
  805MOL0     C 8553  10.625  10.834   3.308 -0.7491  0.1282  0.3024
  805MOL0     C 8554  10.583  10.985   3.310  0.3368 -0.0794  0.0345
  805MOL0     C 8555  10.545  11.030   3.449  0.1662  0.3337 -0.1886
  805MOL0     C 8556  10.636  11.123   3.521 -0.6789  0.7730 -0.6680
  805MOL0     N 8557  10.642  11.244   3.449  0.7264 -0.5021  0.4422
  805MOL0     C 8558  10.545  11.340   3.404  0.5077  0.2483 -0.2880
  805MOL0     C 8559  10.609  11.407   3.302  0.2067  0.2907  0.4854
  805MOL0     C 8560  10.548  11.513   3.224 -0.0342 -0.5115 -0.5568
  805MOL0     C 8561  10.518  11.451   3.085  0.8535  0.3770 -0.7206
  805MOL0     C 8562  10.402  11.346   3.081  0.0684  0.6376  0.5219
  805MOL0     C 8563  10.383  11.304   2.938 -0.7541  0.1185  0.3936
  805MOL0     O 8564  10.331  11.395   2.843  0.3491  0.1600  0.1106
  805MOL0     C 8565  10.189  11.406   2.840  0.2552  0.5955  0.1338
  805MOL0     C 8566  10.096  11.371   2.936 -0.3096  0.4098 -0.2053
  805MOL0     C 8567   9.959  11.396   2.931 -0.6939  0.0030  0.8592
  805MOL0     C 8568   9.874  11.351   3.053 -1.1424  0.0384  0.4949
  805MOL0     C 8569   9.905  11.453   2.809  0.3188  0.8696 -0.1314
  805MOL0     C 8570   9.759  11.485   2.788  0.0185 -0.6792  0.2571
  805MOL0     O 8571   9.712  11.460   2.660  0.0201 -0.1723  0.7445
  805MOL0     C 8572   9.576  11.449   2.637  1.3375  0.0265  0.2992
  805MOL0     C 8573   9.527  11.500   2.517  1.3913 -0.6898 -0.8524
  805MOL0     C 8574   9.391  11.515   2.488 -0.1201  0.1287  0.1091
  805MOL0     C 8575   9.293  11.455   2.578  0.4213 -0.2725  0.3311
  805MOL0     O 8576   9.158  11.454   2.558  0.2952 -0.2971 -0.2143
  805MOL0     C 8577   9.106  11.469   2.427 -0.3904  0.3533 -0.3486
  805MOL0     C 8578   9.067  11.614   2.403  0.7207  0.1751 -0.8459
  805MOL0     C 8579   8.984  11.626   2.273  0.4889  0.0861  1.3968
  805MOL0     C 8580   9.077  11.588   2.157  0.3435  0.3600  0.0611
  805MOL0     C 8581   9.036  11.643   2.016  0.3697 -0.3257  0.2007
  805MOL0     C 8582   9.105  11.566   1.901 -0.6761 -1.0717  0.0309
  805MOL0     C 8583   9.033  11.574   1.763  0.7052 -0.3182 -0.9721
  805MOL0     C 8584   9.091  11.472   1.665  0.3720 -0.1977 -0.2244
  805MOL0    Cl 8585   9.031  11.313   1.730 -0.0021 -0.3535 -0.4438
  805MOL0     C 8586   9.345  11.397   2.686  0.6970 -0.0310 -1.4017
  805MOL0     C 8587   9.481  11.395   2.728 -0.0665  0.2746  0.9245
  805MOL0     O 8588   9.684  11.528   2.883 -0.1253 -0.3477 -0.2749
  805MOL0     C 8589  10.000  11.479   2.710  0.0818 -0.0804 -1.4140
  805MOL0     C 8590  10.135  11.454   2.726  0.0337 -0.1761  0.2129
  805MOL0     N 8591  10.740  11.367   3.295  0.6458  1.0844 -0.3457
  805MOL0     N 8592  10.761  11.271   3.383  0.7925 -0.4616 -0.3549
  805MOL0     C 8593  10.490  11.100   2.618  1.8870 -0.4807  0.5562
  805MOL0     C 8594  10.409  11.160   2.526 -0.3148 -0.2876  0.0913
  805MOL0     C 8595  10.227  11.349   2.177 -0.2987  0.2961  0.0343
  805MOL0     C 8596  10.278  11.448   2.097  0.1760  1.0086 -0.5164
  805MOL0     C 8597  10.194  11.525   2.016  0.0385  0.2169 -1.0846
  805MOL0     C 8598  10.052  11.509   2.024  0.1861  0.2518 -0.1251
  805MOL0     O 8599   9.969  11.588   1.956  0.4853 -0.2724 -0.2989
  805MOL0     C 8600   9.949  11.545   1.821 -1.5210  0.4299  0.0881
  805MOL0     C 8601   9.986  11.651   1.711 -0.6053  0.5872 -0.3126
  805MOL0     C 8602   9.876  11.755   1.687 -0.6787  0.7363 -0.8839
  805MOL0     C 8603   9.835  11.827   1.822  0.4415  0.0849  0.2979
  805MOL0     C 8604   9.954  11.893   1.884  0.5661 -0.0473  0.3681
  805MOL0     C 8605  10.056  11.936   1.935  1.4944 -0.1866 -0.0979
  805MOL0     C 8606  10.002  11.401   2.103 -0.8077  0.6284 -0.2975
  805MOL0     C 8607  10.090  11.318   2.170  0.2000  0.1303 -0.4607
  805MOL0     H 8608  10.311  10.885   2.360  2.2798  0.9453 -2.2511
  805MOL0     H 8609  10.440  10.782   2.527 -0.3195 -0.1441 -1.8689
  805MOL0     H 8610  10.443  10.833   2.842  0.8778  2.7544 -0.0441
  805MOL0     H 8611  10.545  10.718   2.744  1.5620 -1.1729  0.3708
  805MOL0     H 8612  10.639  10.667   2.933 -6.2104 -1.5132 -0.7238
  805MOL0     H 8613  10.734  10.818   2.908 -1.0473 -0.4596  0.3273
  805MOL0     H 8614  10.581  10.946   3.041 -1.4650  0.6162  3.1466
  805MOL0     H 8615  10.482  10.811   3.071 -1.5541 -1.1709 -2.2740
  805MOL0     H 8616  10.700  10.697   3.163  0.0754 -0.2614 -1.8005
  805MOL0     H 8617  10.759  10.869   3.166 -0.1411  0.4096 -0.7173
  805MOL0     H 8618  10.537  10.779   3.342  1.6696 -1.9761  3.8953
  805MOL0     H 8619  10.697  10.812   3.388 -1.4623 -0.9721  0.6577
  805MOL0     H 8620  10.660  11.053   3.271  1.6149 -1.0683  0.7381
  805MOL0     H 8621  10.495  11.002   3.248  1.5179 -2.0328 -2.3035
  805MOL0     H 8622  10.443  11.068   3.452  0.4181  1.0189  1.9163
  805MOL0     H 8623  10.548  10.938   3.508  3.5492 -0.9852 -2.1310
  805MOL0     H 8624  10.730  11.070   3.541 -1.1242  0.7465  1.5815
  805MOL0     H 8625  10.589  11.148   3.617  1.1378 -0.4181  0.6039
  805MOL0     H 8626  10.438  11.354   3.415  0.3930  0.2741 -1.3549
  805MOL0     H 8627  10.460  11.551   3.276  0.3425  2.6029 -1.9358
  805MOL0     H 8628  10.613  11.600   3.209 -2.3017  1.3877  0.0037
  805MOL0     H 8629  10.608  11.415   3.034  0.2950 -3.2891  0.5323
  805MOL0     H 8630  10.479  11.542   3.038 -1.8647  0.2374  1.0396
  805MOL0     H 8631  10.316  11.400   3.122 -1.0104  1.8064 -2.9094
  805MOL0     H 8632  10.428  11.258   3.140 -0.5902 -2.0847 -2.9055
  805MOL0     H 8633  10.324  11.213   2.944  1.5266 -1.7628 -2.4827
  805MOL0     H 8634  10.477  11.265   2.896 -1.9951 -1.3446 -1.1713
  805MOL0     H 8635  10.132  11.334   3.032 -1.2755 -1.5975 -0.5710
  805MOL0     H 8636   9.825  11.445   3.080  1.8067  2.0041 -0.5229
  805MOL0     H 8637   9.803  11.268   3.048  0.0893 -1.2496  2.7566
  805MOL0     H 8638   9.939  11.324   3.137  0.3849  0.2987 -0.5696
  805MOL0     H 8639   9.600  11.549   2.454  3.1250  1.0005  2.2563
  805MOL0     H 8640   9.387  11.570   2.394 -0.9702  0.4337  0.3164
  805MOL0     H 8641   9.178  11.445   2.347 -2.4110 -0.7481 -1.9274
  805MOL0     H 8642   9.026  11.397   2.411  0.6093 -1.0266  0.6123
  805MOL0     H 8643   8.999  11.645   2.482  1.7735 -0.7885  0.4843
  805MOL0     H 8644   9.160  11.672   2.403  1.9889 -1.6890  1.3287
  805MOL0     H 8645   8.936  11.722   2.253 -0.2982 -0.1770  1.9965
  805MOL0     H 8646   8.901  11.555   2.273 -1.3171  1.9576 -2.3864
  805MOL0     H 8647   9.178  11.616   2.188 -0.4337  1.6871  1.5241
  805MOL0     H 8648   9.080  11.479   2.149  0.2403  0.5085 -3.4607
  805MOL0     H 8649   9.066  11.747   1.998  2.5268 -0.8863  0.2998
  805MOL0     H 8650   8.927  11.650   2.011 -0.0267  0.1826  4.7643
  805MOL0     H 8651   9.209  11.597   1.891  0.6911 -4.8484  0.9114
  805MOL0     H 8652   9.101  11.464   1.941  1.3623 -1.2695 -0.1783
  805MOL0     H 8653   9.042  11.672   1.715  0.5558 -0.5294 -1.4367
  805MOL0     H 8654   8.927  11.558   1.783  0.5363  0.0848 -1.5125
  805MOL0     H 8655   9.198  11.479   1.682 -0.1389  0.4014  3.7954
  805MOL0     H 8656   9.072  11.479   1.557 -0.4592 -0.2992 -0.0980
  805MOL0     H 8657   9.288  11.342   2.760  1.7664 -0.3989 -0.8185
  805MOL0     H 8658   9.510  11.341   2.817  2.7711  2.9380  1.8164
  805MOL0     H 8659   9.970  11.522   2.615 -0.4912  1.3141 -0.6216
  805MOL0     H 8660  10.191  11.496   2.643 -3.5207  2.6462 -1.0273
  805MOL0     H 8661  10.518  11.173   2.694 -3.8478  1.5767  1.2022
  805MOL0     H 8662  10.385  11.266   2.535 -3.9004 -1.1348  4.2631
  805MOL0     H 8663  10.381  11.481   2.109  0.4686  0.1057 -0.4791
  805MOL0     H 8664  10.236  11.601   1.950  2.1737  1.3160  1.3233
  805MOL0     H 8665   9.998  11.449   1.802 -2.3603 -0.1563  0.8134
  805MOL0     H 8666   9.842  11.522   1.814 -0.9565 -2.0742 -2.8021
  805MOL0     H 8667  10.010  11.600   1.618 -0.5064 -2.6912  1.3514
  805MOL0     H 8668  10.074  11.691   1.763 -0.3398 -0.1582 -0.1663
  805MOL0     H 8669   9.786  11.700   1.656 -0.4141 -0.4464  0.3572
  805MOL0     H 8670   9.901  11.826   1.607 -0.0762  3.5694  1.6699
  805MOL0     H 8671   9.791  11.762   1.899 -3.2271  1.0278 -0.8256
  805MOL0     H 8672   9.751  11.890   1.792 -0.2885 -1.1307 -0.3131
  805MOL0     H 8673  10.142  11.971   1.988 -0.0923 -0.1050  2.6171
  805MOL0     H 8674   9.897  11.377   2.092 -1.0022  2.2851 -3.2292
  805MOL0     H 8675  10.045  11.236   2.225  2.4836 -0.4653  0.6192
  806MOL0     O 8676   0.899   6.435  10.667 -0.4782 -0.1235 -0.5397
  806MOL0     C 8677   0.842   6.344  10.602 -0.5108 -0.3936 -0.8205
  806MOL0     O 8678   0.904   6.255  10.526 -0.1836  0.0775 -0.2418
  806MOL0     C 8679   1.043   6.255  10.524 -0.4871  0.2566 -0.2368
  806MOL0     C 8680   1.110   6.250  10.402  0.5564 -0.2227 -0.1649
  806MOL0     C 8681   1.249   6.248  10.386 -0.6461 -0.1536 -0.1354
  806MOL0     C 8682   1.331   6.252  10.502  0.5747  1.0007  0.2162
  806MOL0     O 8683   1.464   6.260  10.473 -0.2891 -0.7034  0.5280
  806MOL0     C 8684   1.572   6.235  10.564  0.1271 -0.6070 -0.3459
  806MOL0     C 8685   1.706   6.233  10.493  0.0932 -0.5798  0.3976
  806MOL0     C 8686   1.817   6.185  10.582 -1.2232  0.3861 -0.1573
  806MOL0     C 8687   1.957   6.185  10.508  0.2825  0.6599 -0.4509
  806MOL0     C 8688   2.061   6.081  10.565 -0.0381 -0.4734  0.4527
  806MOL0     C 8689   2.025   5.931  10.543 -1.0081 -0.3012  0.4614
  806MOL0     C 8690   2.129   5.838  10.603  0.2723  0.1073 -0.1229
  806MOL0     C 8691   2.267   5.845  10.540 -0.4454 -0.0941  0.3297
  806MOL0     N 8692   2.351   5.736  10.580  0.1039 -0.9426  0.1977
  806MOL0     C 8693   2.333   5.609  10.563  0.7239  0.2534  0.0290
  806MOL0     C 8694   2.435   5.546  10.624  1.0345 -0.6692 -0.2394
  806MOL0     C 8695   2.449   5.395  10.649  0.9219 -0.4496  0.2695
  806MOL0     C 8696   2.588   5.355  10.608  0.3019  0.3016 -0.3205
  806MOL0     C 8697   2.611   5.360  10.463  0.1529 -0.6941  0.3142
  806MOL0     C 8698   2.726   5.266  10.416  0.3616 -0.2146 -0.1239
  806MOL0     O 8699   2.668   5.131  10.405  0.3791  0.0464  0.9886
  806MOL0     C 8700   2.761   5.031  10.372  0.4907 -0.3968  0.7936
  806MOL0     C 8701   2.885   5.062  10.311  0.1006  0.8030  0.8736
  806MOL0     C 8702   2.977   4.954  10.290  0.3143  0.2080 -0.0572
  806MOL0     C 8703   3.111   4.992  10.235  1.0278  0.1101 -0.3516
  806MOL0     C 8704   2.944   4.815  10.319 -0.7121 -0.3050 -0.8166
  806MOL0     C 8705   3.034   4.693  10.294  0.8816 -0.2579 -0.7709
  806MOL0     O 8706   2.980   4.581  10.349 -0.6712  0.5249 -0.4580
  806MOL0     C 8707   3.042   4.461  10.324 -0.1131  0.5249  1.0352
  806MOL0     C 8708   3.037   4.373  10.432 -0.8903  0.3640  0.7092
  806MOL0     C 8709   3.110   4.257  10.416  0.2227 -0.6293 -0.3535
  806MOL0     C 8710   3.159   4.208  10.296  0.1661 -0.6481 -0.7232
  806MOL0     O 8711   3.227   4.081  10.301 -0.8199 -1.1707  0.1914
  806MOL0     C 8712   3.331   4.050  10.205 -0.0412  0.3896  1.3253
  806MOL0     C 8713   3.394   3.913  10.227  0.4413  0.7531 -0.5317
  806MOL0     C 8714   3.466   3.911  10.375 -0.0376  0.1636 -0.7366
  806MOL0     C 8715   3.612   3.849  10.351  0.0192 -0.8630  0.5520
  806MOL0     C 8716   3.605   3.692  10.340 -0.0452  1.3662 -0.2993
  806MOL0     C 8717   3.733   3.615  10.386  0.2352 -0.5348 -0.6838
  806MOL0     C 8718   3.726   3.476  10.340 -1.1479  0.2298 -0.3379
  806MOL0     C 8719   3.837   3.391  10.411  0.2735  0.1913 -0.0614
  806MOL0    Cl 8720   3.997   3.453  10.354  0.1709  0.3564  0.5065
  806MOL0     C 8721   3.147   4.297  10.187 -0.7532  0.4906 -0.2594
  806MOL0     C 8722   3.097   4.421  10.204  0.4501  0.5645  0.7867
  806MOL0     O 8723   3.122   4.698  10.211  0.6895  1.0878 -0.4564
  806MOL0     C 8724   2.817   4.796  10.371  0.7471 -0.0171  0.1477
  806MOL0     C 8725   2.729   4.900  10.404  0.7611  0.7862  0.1450
  806MOL0     N 8726   2.514   5.646  10.672  0.2071 -0.8608 -0.2690
  806MOL0     N 8727   2.467   5.767  10.638 -0.3182  0.8723  0.6645
  806MOL0     C 8728   1.266   6.233  10.631  0.0821 -0.1148 -0.0675
  806MOL0     C 8729   1.126   6.236  10.641  0.2130 -0.0350  0.6833
  806MOL0     C 8730   0.695   6.327  10.613  0.6672  0.4751  0.2414
  806MOL0     C 8731   0.647   6.208  10.559 -0.8308  0.8738  0.3054
  806MOL0     C 8732   0.508   6.183  10.557  0.0305  0.0797 -1.4321
  806MOL0     C 8733   0.415   6.271  10.615  0.1976 -0.7189 -0.9081
  806MOL0     O 8734   0.284   6.238  10.638 -0.6316 -0.7396  0.6130
  806MOL0     C 8735   0.256   6.235  10.780  0.3271 -0.0038 -0.5373
  806MOL0     C 8736   0.135   6.161  10.829 -1.1082 -0.0215 -0.4613
  806MOL0     C 8737   0.146   6.023  10.773  0.5800 -0.5217  1.2545
  806MOL0     C 8738   0.028   5.932  10.816 -0.2873  0.1863 -0.4996
  806MOL0     C 8739   0.046   5.892  10.951 -0.5861 -0.2670  0.9272
  806MOL0     C 8740   0.047   5.871  11.065  0.5785  0.4887 -0.3060
  806MOL0     C 8741   0.472   6.391  10.656  0.1952  0.0133 -0.0699
  806MOL0     C 8742   0.610   6.426  10.668 -0.8061 -0.1237  0.8949
  806MOL0     H 8743   1.051   6.236  10.312 -1.6126  1.0523  0.9838
  806MOL0     H 8744   1.278   6.246  10.282  3.7863  2.1365  0.7749
  806MOL0     H 8745   1.566   6.297  10.653 -2.5107 -0.8804 -0.2558
  806MOL0     H 8746   1.555   6.136  10.608 -0.5538  1.0383  3.4723
  806MOL0     H 8747   1.689   6.159  10.414 -3.8594 -2.7492  2.9459
  806MOL0     H 8748   1.730   6.327  10.444 -1.2308 -1.4095 -2.0004
  806MOL0     H 8749   1.827   6.250  10.669  1.5770 -2.0492  1.5435
  806MOL0     H 8750   1.788   6.088  10.623 -0.6107  0.2482 -0.0436
  806MOL0     H 8751   1.948   6.177  10.399 -0.3133  1.8361 -0.5089
  806MOL0     H 8752   1.995   6.286  10.524 -0.2649  1.3417 -2.9930
  806MOL0     H 8753   2.163   6.098  10.531 -0.0352 -2.2764 -0.5843
  806MOL0     H 8754   2.075   6.094  10.673  0.6773 -3.6537  0.8334
  806MOL0     H 8755   1.933   5.917  10.602 -2.8875 -2.9983 -2.7520
  806MOL0     H 8756   2.007   5.896  10.441  3.8441 -0.5356 -0.5169
  806MOL0     H 8757   2.132   5.861  10.709  2.1235  1.6122 -0.4490
  806MOL0     H 8758   2.087   5.738  10.605 -1.7440  0.9183  2.3639
  806MOL0     H 8759   2.316   5.940  10.562  0.8095 -0.2715 -1.5093
  806MOL0     H 8760   2.261   5.829  10.432  1.0285 -1.2857  0.3758
  806MOL0     H 8761   2.240   5.563  10.534  0.5362 -0.1342  1.1912
  806MOL0     H 8762   2.432   5.373  10.755 -2.5254  1.5941  0.2986
  806MOL0     H 8763   2.369   5.338  10.600 -0.5292 -0.4255  2.4746
  806MOL0     H 8764   2.601   5.254  10.649 -1.7448 -0.4012 -1.3088
  806MOL0     H 8765   2.665   5.416  10.657  0.5284 -0.5796  0.4579
  806MOL0     H 8766   2.652   5.458  10.437  0.5108 -0.2674  2.3667
  806MOL0     H 8767   2.521   5.337  10.404 -0.4713  0.5300  0.7440
  806MOL0     H 8768   2.810   5.266  10.485  0.3825  2.0378 -0.0939
  806MOL0     H 8769   2.767   5.302  10.321  2.6701 -3.5835 -0.5869
  806MOL0     H 8770   2.924   5.161  10.288 -2.2803  1.9169  1.3648
  806MOL0     H 8771   3.129   4.933  10.144 -0.8740 -0.6203 -0.3068
  806MOL0     H 8772   3.124   5.096  10.206 -0.7181  0.7700  1.1128
  806MOL0     H 8773   3.185   4.956  10.307  1.9034  0.1687 -1.1984
  806MOL0     H 8774   2.989   4.400  10.526  3.9112  0.4554  3.4579
  806MOL0     H 8775   3.116   4.191  10.502 -1.1025 -0.1117  0.1712
  806MOL0     H 8776   3.289   4.062  10.105 -1.4208 -0.9498  1.7091
  806MOL0     H 8777   3.412   4.123  10.206  1.6547 -1.1479 -2.8632
  806MOL0     H 8778   3.322   3.834  10.201  1.5048  0.2886 -2.1607
  806MOL0     H 8779   3.481   3.907  10.161  2.2695 -1.8149  1.8302
  806MOL0     H 8780   3.414   3.852  10.451  1.8895 -0.9424 -0.2078
  806MOL0     H 8781   3.483   4.014  10.409 -1.1059  1.1807 -3.0876
  806MOL0     H 8782   3.668   3.899  10.272 -1.0859  2.5463  1.7638
  806MOL0     H 8783   3.669   3.865  10.443  0.4625  1.5283 -0.0728
  806MOL0     H 8784   3.582   3.659  10.238  2.2392 -0.9370 -0.1791
  806MOL0     H 8785   3.531   3.649  10.409  2.0457 -2.8608 -0.3407
  806MOL0     H 8786   3.825   3.666  10.357 -0.0071  0.5698  0.3839
  806MOL0     H 8787   3.749   3.626  10.493  0.3337  1.3765 -0.8636
  806MOL0     H 8788   3.733   3.477  10.231 -2.0116 -2.1693 -0.4726
  806MOL0     H 8789   3.635   3.425  10.372  0.5251 -2.4722  0.4716
  806MOL0     H 8790   3.822   3.289  10.375 -2.1566 -0.2353  1.9131
  806MOL0     H 8791   3.821   3.402  10.519 -3.2187  2.8773 -0.6586
  806MOL0     H 8792   3.172   4.265  10.086  0.2820  2.5297 -0.6964
  806MOL0     H 8793   3.093   4.482  10.114  1.0856  0.3030  0.5796
  806MOL0     H 8794   2.777   4.697  10.388 -4.8460  2.1297  1.5151
  806MOL0     H 8795   2.626   4.890  10.435 -0.1624  3.6344 -1.6055
  806MOL0     H 8796   1.322   6.237  10.724  2.4326 -1.4876 -1.3385
  806MOL0     H 8797   1.077   6.232  10.737 -0.2836 -1.4799  0.3834
  806MOL0     H 8798   0.706   6.122  10.529  0.2357  2.3279 -2.0568
  806MOL0     H 8799   0.468   6.096  10.508 -0.1325 -1.4084  1.1661
  806MOL0     H 8800   0.343   6.187  10.825  1.0483  1.3548 -0.4249
  806MOL0     H 8801   0.252   6.336  10.820  0.0039  0.2288 -1.1415
  806MOL0     H 8802   0.045   6.212  10.793 -1.4110 -0.0929  0.1826
  806MOL0     H 8803   0.132   6.172  10.938  0.3706  2.5485 -0.5949
  806MOL0     H 8804   0.241   5.983  10.809  1.1958 -2.6101 -2.2182
  806MOL0     H 8805   0.152   6.036  10.665  1.5023  0.7966  1.4345
  806MOL0     H 8806   0.036   5.841  10.757  0.7257 -2.2311  3.0086
  806MOL0     H 8807  -0.071   5.973  10.796 -0.9538 -0.6134  1.0131
  806MOL0     H 8808   0.025   5.848  11.168 -1.6581 -1.5781 -1.1532
  806MOL0     H 8809   0.406   6.473  10.682 -2.3472 -1.3317 -1.8567
  806MOL0     H 8810   0.651   6.518  10.709 -2.9681  1.9253 -1.2419
  807MOL0     O 8811  10.980   6.240   6.562 -0.2463 -0.2507  0.7746
  807MOL0     C 8812  10.959   6.358   6.586  1.0375 -0.5211 -0.6354
  807MOL0     O 8813  11.009   6.469   6.521  0.0530 -0.0953 -0.1820
  807MOL0     C 8814  11.120   6.459   6.439 -0.0463 -0.1468  0.3104
  807MOL0     C 8815  11.229   6.363   6.459  0.0997 -1.0942 -0.2288
  807MOL0     C 8816  11.333   6.355   6.378 -0.3736 -0.4430 -0.7008
  807MOL0     C 8817  11.347   6.438   6.265 -0.2957 -0.2338  0.2364
  807MOL0     O 8818  11.457   6.424   6.181 -0.2749 -0.1936 -0.0011
  807MOL0     C 8819  11.523   6.542   6.116  0.2377  0.3937  0.0352
  807MOL0     C 8820  11.670   6.499   6.101  0.2464 -0.3507 -0.4406
  807MOL0     C 8821  11.756   6.537   6.233  0.0648 -0.0909  0.9354
  807MOL0     C 8822  11.697   6.480   6.365 -1.6483  0.3209 -0.3029
  807MOL0     C 8823  11.797   6.485   6.482 -0.1296 -0.2074  1.4043
  807MOL0     C 8824  11.727   6.452   6.605  0.8312  0.1625 -0.9633
  807MOL0     C 8825  11.824   6.458   6.731  0.5563 -0.0545  0.8585
  807MOL0     C 8826  11.779   6.557   6.846 -0.2407  0.2966 -0.6465
  807MOL0     N 8827  11.883   6.578   6.946 -0.4728  0.8757  0.2111
  807MOL0     C 8828  11.930   6.473   7.032  0.1647 -0.2708  0.5310
  807MOL0     C 8829  12.051   6.522   7.071 -0.3070  0.1500 -0.4653
  807MOL0     C 8830  12.153   6.452   7.161  0.2049 -0.0952 -0.0051
  807MOL0     C 8831  12.132   6.448   7.306  0.0920  0.3615 -0.5186
  807MOL0     C 8832  11.985   6.410   7.353  0.6375 -0.2632  0.2383
  807MOL0     C 8833  11.993   6.383   7.504  0.0854  0.2251  0.5914
  807MOL0     O 8834  12.010   6.514   7.571  0.0030 -0.3574  0.5199
  807MOL0     C 8835  12.026   6.495   7.706  0.0014  0.0690 -0.6280
  807MOL0     C 8836  11.911   6.498   7.782 -0.0285  0.1889  0.2942
  807MOL0     C 8837  11.910   6.461   7.915 -0.3192  0.6756 -0.4031
  807MOL0     C 8838  11.771   6.460   7.981  0.0858  0.1441  0.0174
  807MOL0     C 8839  12.032   6.431   7.978  0.2902  0.3124  0.8884
  807MOL0     C 8840  12.050   6.360   8.103 -0.2108 -0.2839  0.1481
  807MOL0     O 8841  12.170   6.356   8.160 -0.4451 -0.3021  0.5829
  807MOL0     C 8842  12.218   6.237   8.201  0.3182  0.0193  0.3218
  807MOL0     C 8843  12.242   6.248   8.339  1.6654  0.0171 -0.9043
  807MOL0     C 8844  12.273   6.130   8.412  0.4512 -0.2134  0.0678
  807MOL0     C 8845  12.298   6.014   8.333 -0.2383  0.3637  0.4390
  807MOL0     O 8846  12.348   5.896   8.382  1.2646  1.1933 -0.3141
  807MOL0     C 8847  12.410   5.897   8.513  0.0407 -0.3926 -0.1559
  807MOL0     C 8848  12.534   5.813   8.507  0.1402  0.3978 -0.0070
  807MOL0     C 8849  12.516   5.669   8.445  0.5712 -0.1273 -0.4258
  807MOL0     C 8850  12.640   5.574   8.465  0.8787  0.3614 -0.3361
  807MOL0     C 8851  12.772   5.635   8.422  0.2183 -1.0025 -0.0723
  807MOL0     C 8852  12.767   5.684   8.275 -0.9768  0.0434  0.1520
  807MOL0     C 8853  12.903   5.731   8.231 -1.1808  0.4090  0.3528
  807MOL0     C 8854  13.017   5.630   8.239  0.7051  0.3834  0.1680
  807MOL0    Cl 8855  13.113   5.642   8.381  0.1481  0.1930  0.5376
  807MOL0     C 8856  12.284   6.014   8.195  0.0229 -0.5283  0.5953
  807MOL0     C 8857  12.244   6.120   8.121  0.1489 -0.5503  0.9492
  807MOL0     O 8858  11.950   6.295   8.147  0.2116 -0.4428  0.1891
  807MOL0     C 8859  12.152   6.427   7.900  1.0217  0.1117  0.4122
  807MOL0     C 8860  12.149   6.475   7.775  0.4517  0.0247 -0.0959
  807MOL0     N 8861  12.066   6.652   7.029  0.5156 -0.0270  0.3341
  807MOL0     N 8862  11.966   6.690   6.953  0.4478 -0.4021  0.1091
  807MOL0     C 8863  11.259   6.546   6.259 -0.3416 -0.4456  0.0788
  807MOL0     C 8864  11.147   6.551   6.347  0.6590  0.0124 -0.5525
  807MOL0     C 8865  10.862   6.392   6.689 -0.2556  0.6542 -0.9796
  807MOL0     C 8866  10.760   6.304   6.732 -0.1455  0.4913 -0.4234
  807MOL0     C 8867  10.683   6.336   6.848  0.3386  0.0525  0.1478
  807MOL0     C 8868  10.696   6.465   6.910 -0.3052  0.2525 -0.9575
  807MOL0     O 8869  10.612   6.506   7.010  1.0744 -0.1150  0.3270
  807MOL0     C 8870  10.641   6.474   7.144 -0.1803  0.3775 -0.0673
  807MOL0     C 8871  10.571   6.348   7.186  0.4547  0.2995 -0.9526
  807MOL0     C 8872  10.417   6.378   7.207 -0.2318  0.8170 -0.4452
  807MOL0     C 8873  10.383   6.481   7.311 -0.0877  1.1289  0.3501
  807MOL0     C 8874  10.446   6.449   7.441 -0.2758  0.2778 -0.8936
  807MOL0     C 8875  10.505   6.417   7.544  0.4705 -0.5162  0.2815
  807MOL0     C 8876  10.799   6.561   6.863 -0.3258  0.3465  0.4090
  807MOL0     C 8877  10.884   6.516   6.760 -0.0105 -0.5154  0.2519
  807MOL0     H 8878  11.224   6.288   6.537 -1.3263 -0.0222  0.7707
  807MOL0     H 8879  11.411   6.283   6.398  0.2102  0.1102 -0.9492
  807MOL0     H 8880  11.482   6.553   6.015  0.4383  0.0191 -0.0903
  807MOL0     H 8881  11.515   6.631   6.179  0.7730 -0.3419  1.1625
  807MOL0     H 8882  11.687   6.395   6.072 -2.4907 -0.6819 -1.1294
  807MOL0     H 8883  11.708   6.558   6.017  1.9166 -1.8895 -0.8256
  807MOL0     H 8884  11.857   6.497   6.216 -0.5670 -1.8985  1.3039
  807MOL0     H 8885  11.762   6.644   6.255  2.3997 -0.2227  1.2203
  807MOL0     H 8886  11.610   6.542   6.390 -1.9477  0.5876 -1.9239
  807MOL0     H 8887  11.674   6.374   6.347 -1.1142  0.3087 -0.9584
  807MOL0     H 8888  11.878   6.412   6.467  1.6739  1.8312  0.7325
  807MOL0     H 8889  11.840   6.586   6.484  0.6021 -0.4992  3.0671
  807MOL0     H 8890  11.631   6.503   6.617  1.0370  0.2022  0.6317
  807MOL0     H 8891  11.699   6.346   6.603 -0.8157  0.5686 -0.4082
  807MOL0     H 8892  11.835   6.360   6.777 -2.7002  0.3200  2.7489
  807MOL0     H 8893  11.921   6.485   6.689 -0.8482  3.6239 -0.4694
  807MOL0     H 8894  11.691   6.506   6.886 -0.8835  2.0971  0.3035
  807MOL0     H 8895  11.745   6.649   6.798 -1.7037 -0.1265 -0.4535
  807MOL0     H 8896  11.899   6.370   7.042 -0.3408 -0.0764  1.0385
  807MOL0     H 8897  12.184   6.353   7.129  1.5675  0.2591  0.1655
  807MOL0     H 8898  12.240   6.511   7.131  0.6460 -0.4140  0.6318
  807MOL0     H 8899  12.150   6.551   7.340 -1.2383 -0.1414  1.9251
  807MOL0     H 8900  12.207   6.382   7.350 -0.1443  0.8145  0.6006
  807MOL0     H 8901  11.947   6.323   7.298  1.0065  0.4875 -1.2612
  807MOL0     H 8902  11.914   6.488   7.327  0.7550  0.4194  1.8660
  807MOL0     H 8903  12.062   6.301   7.528  0.0224  0.0886  0.3088
  807MOL0     H 8904  11.896   6.348   7.539  0.3580  0.2126  1.3464
  807MOL0     H 8905  11.824   6.544   7.737 -1.3623 -1.6763  0.8848
  807MOL0     H 8906  11.702   6.540   7.951  0.5840  0.4122 -0.4487
  807MOL0     H 8907  11.724   6.366   7.952  0.2404  0.3814 -1.0451
  807MOL0     H 8908  11.776   6.482   8.088  3.7597 -0.3669  0.0747
  807MOL0     H 8909  12.216   6.338   8.393  1.0084  0.7849 -2.4538
  807MOL0     H 8910  12.262   6.137   8.519 -0.4721  1.9046 -0.1100
  807MOL0     H 8911  12.440   5.997   8.546  0.3194 -0.5927  0.2145
  807MOL0     H 8912  12.336   5.852   8.579 -3.6980  1.4496 -2.7513
  807MOL0     H 8913  12.608   5.864   8.444  1.1665 -0.2316  0.6672
  807MOL0     H 8914  12.574   5.804   8.608  1.4573 -1.8698 -0.6560
  807MOL0     H 8915  12.488   5.666   8.339  3.1835  1.6183 -1.2637
  807MOL0     H 8916  12.431   5.622   8.495  1.3973  0.6206  1.7745
  807MOL0     H 8917  12.654   5.542   8.568  1.4119 -1.9972 -1.0806
  807MOL0     H 8918  12.634   5.486   8.401 -1.3131 -2.0913  2.9734
  807MOL0     H 8919  12.851   5.560   8.436  0.8951 -0.2453  0.1903
  807MOL0     H 8920  12.795   5.714   8.494  0.1869 -0.3549 -0.7634
  807MOL0     H 8921  12.718   5.601   8.222  1.6042 -0.9937 -0.7449
  807MOL0     H 8922  12.703   5.773   8.273  0.6807  1.3242  1.1771
  807MOL0     H 8923  12.926   5.829   8.274 -0.8602  0.1179  0.8537
  807MOL0     H 8924  12.896   5.747   8.123  0.3138  0.3558  0.2292
  807MOL0     H 8925  13.074   5.624   8.146 -0.3453 -2.4391 -0.4055
  807MOL0     H 8926  12.982   5.526   8.234 -0.7801  0.7726  1.6225
  807MOL0     H 8927  12.323   5.936   8.131 -0.8582  3.2090 -5.2984
  807MOL0     H 8928  12.216   6.119   8.016 -0.7697  1.8647  1.1033
  807MOL0     H 8929  12.250   6.403   7.941  0.7005 -0.1475  1.0311
  807MOL0     H 8930  12.244   6.493   7.724  1.1646  4.7710  2.3187
  807MOL0     H 8931  11.267   6.623   6.183 -0.8280 -0.1024  0.3740
  807MOL0     H 8932  11.072   6.627   6.334 -0.0770 -0.8452 -1.4636
  807MOL0     H 8933  10.744   6.205   6.689 -1.1424  0.1083  0.7680
  807MOL0     H 8934  10.606   6.267   6.884  2.8095 -2.4271  1.0538
  807MOL0     H 8935  10.748   6.458   7.159 -0.4388 -1.1692  0.2849
  807MOL0     H 8936  10.612   6.564   7.198 -0.7213  0.5859 -0.6799
  807MOL0     H 8937  10.616   6.307   7.276 -0.2458 -1.3800 -1.3344
  807MOL0     H 8938  10.580   6.271   7.109  3.3147  0.2910 -0.6952
  807MOL0     H 8939  10.381   6.281   7.242  0.9711  0.0001 -1.3817
  807MOL0     H 8940  10.360   6.400   7.116 -2.1914 -1.7220  0.0372
  807MOL0     H 8941  10.277   6.465   7.334  0.7864 -1.4490  3.3208
  807MOL0     H 8942  10.401   6.584   7.279  0.2634  0.3089 -2.3206
  807MOL0     H 8943  10.540   6.401   7.644 -0.2060  2.2695  1.0607
  807MOL0     H 8944  10.792   6.664   6.896 -0.8081  0.8915 -1.3184
  807MOL0     H 8945  10.964   6.586   6.736 -1.0530  1.0243  1.1084
  808MOL0     O 8946   8.969  10.264  11.188  0.7097  0.4573  0.1687
  808MOL0     C 8947   8.850  10.233  11.157  0.5616  0.4174  0.1121
  808MOL0     O 8948   8.814  10.161  11.046 -0.9450  0.2210 -0.0483
  808MOL0     C 8949   8.916  10.129  10.949  0.1619  0.3661 -0.4414
  808MOL0     C 8950   8.993  10.018  10.975  0.3590  0.9966  0.0919
  808MOL0     C 8951   9.095   9.983  10.879  0.0780 -0.5136 -0.4322
  808MOL0     C 8952   9.103  10.048  10.753 -0.1434 -0.8586 -0.4688
  808MOL0     O 8953   9.190  10.007  10.654 -0.1919 -0.4573 -0.1052
  808MOL0     C 8954   9.254   9.883  10.663 -0.6408  0.0073 -0.6959
  808MOL0     C 8955   9.320   9.841  10.532  0.6145  0.2549  0.1402
  808MOL0     C 8956   9.443   9.759  10.554  0.2616 -1.1011  0.8109
  808MOL0     C 8957   9.499   9.711  10.428  0.3329  0.0179  0.1259
  808MOL0     C 8958   9.619   9.607  10.451  0.9184  0.1390  0.0603
  808MOL0     C 8959   9.647   9.528  10.311 -0.8297 -0.7144 -0.6002
  808MOL0     C 8960   9.760   9.420  10.324 -0.3069 -1.1952 -0.4138
  808MOL0     C 8961   9.901   9.476  10.351 -0.0852 -0.3461  0.6304
  808MOL0     N 8962   9.998   9.376  10.295  0.1059 -0.3529 -0.2755
  808MOL0     C 8963  10.050   9.291  10.390 -0.0325 -0.3978  0.0020
  808MOL0     C 8964  10.066   9.170  10.329  0.2921 -1.0361 -0.3666
  808MOL0     C 8965  10.114   9.037  10.380  0.4546  1.3329 -0.7299
  808MOL0     C 8966  10.237   9.045  10.478  0.4653  0.3751 -0.3697
  808MOL0     C 8967  10.266   8.914  10.553  0.5062  1.0285 -0.7138
  808MOL0     C 8968  10.334   8.934  10.689 -0.5240  0.6132  0.5224
  808MOL0     O 8969  10.460   8.994  10.663  0.0133  0.7528 -0.3946
  808MOL0     C 8970  10.522   9.089  10.746 -0.4995  1.0611 -0.5043
  808MOL0     C 8971  10.640   9.144  10.709 -0.1728 -0.5034  0.1006
  808MOL0     C 8972  10.714   9.230  10.789 -0.5109  0.0752  0.1909
  808MOL0     C 8973  10.840   9.298  10.729  0.2483  0.0355 -0.1004
  808MOL0     C 8974  10.675   9.264  10.922 -0.1291  1.1559  0.1373
  808MOL0     C 8975  10.743   9.353  11.018 -0.2101  0.2895 -0.8436
  808MOL0     O 8976  10.668   9.404  11.117  0.1139  0.4969 -0.0160
  808MOL0     C 8977  10.713   9.507  11.200 -0.3208  0.4184 -0.0668
  808MOL0     C 8978  10.706   9.491  11.340  0.5545  0.6270  0.8326
  808MOL0     C 8979  10.749   9.593  11.424  0.2104  0.0942 -0.7969
  808MOL0     C 8980  10.814   9.703  11.368 -0.1003  0.6365 -0.5882
  808MOL0     O 8981  10.864   9.804  11.444 -0.6264  0.5587  0.3418
  808MOL0     C 8982  10.984   9.760  11.521  0.9808  0.4217 -1.1592
  808MOL0     C 8983  11.088   9.864  11.528  0.0118  0.8792  0.6711
  808MOL0     C 8984  11.035  10.001  11.586 -0.1249 -0.4899 -0.4702
  808MOL0     C 8985  11.135  10.116  11.546 -0.2169  0.3545  0.1008
  808MOL0     C 8986  11.101  10.249  11.598 -0.3357 -0.0154  0.7720
  808MOL0     C 8987  11.190  10.363  11.536  0.3474  0.1104  0.0484
  808MOL0     C 8988  11.194  10.386  11.381  0.5370 -0.1067  1.3797
  808MOL0     C 8989  11.260  10.517  11.344  0.3044  0.4323  0.1351
  808MOL0    Cl 8990  11.270  10.488  11.165 -0.1484 -0.1236 -0.0114
  808MOL0     C 8991  10.824   9.716  11.231  0.3472  0.0383  0.3762
  808MOL0     C 8992  10.771   9.624  11.142 -0.6859  0.6672 -0.4236
  808MOL0     O 8993  10.863   9.371  11.004  0.0760 -0.0490  0.5037
  808MOL0     C 8994  10.549   9.204  10.962  0.7973  0.2069  0.1808
  808MOL0     C 8995  10.477   9.118  10.875 -0.1638  1.0687  0.8484
  808MOL0     N 8996  10.054   9.195  10.189 -0.4580 -0.0477 -0.3030
  808MOL0     N 8997  10.013   9.318  10.175  0.2449  0.4178 -0.6102
  808MOL0     C 8998   9.017  10.158  10.734  0.7715  0.1439 -0.4309
  808MOL0     C 8999   8.937  10.205  10.836  1.0846  0.4609  0.2785
  808MOL0     C 9000   8.742  10.274  11.243 -0.1275 -0.7074  0.7860
  808MOL0     C 9001   8.774  10.345  11.359  0.5529 -0.1837  0.4061
  808MOL0     C 9002   8.674  10.380  11.452  0.0721  0.0809 -0.4134
  808MOL0     C 9003   8.541  10.361  11.427 -0.0001  0.2913  0.2368
  808MOL0     O 9004   8.423  10.379  11.498 -0.9161  0.3982  0.1513
  808MOL0     C 9005   8.420  10.488  11.601  0.0120 -0.2029 -0.5225
  808MOL0     C 9006   8.278  10.496  11.654  0.2572  0.3299  0.1607
  808MOL0     C 9007   8.258  10.403  11.772  0.5405  0.6601  0.1728
  808MOL0     C 9008   8.120  10.414  11.839  0.2389 -0.5139  0.1962
  808MOL0     C 9009   8.084  10.551  11.883 -0.8272  0.3506  1.0240
  808MOL0     C 9010   8.053  10.657  11.933 -0.6168 -0.0789 -0.7108
  808MOL0     C 9011   8.515  10.296  11.300  0.3507  0.1293  0.9346
  808MOL0     C 9012   8.610  10.253  11.201  0.9169 -1.1561  0.1479
  808MOL0     H 9013   8.991   9.970  11.073  1.6027  0.9796  0.1284
  808MOL0     H 9014   9.168   9.905  10.899  2.8521  1.8632 -0.6054
  808MOL0     H 9015   9.323   9.899  10.746 -1.3719  0.3730 -0.1479
  808MOL0     H 9016   9.174   9.815  10.694  1.5726 -1.6103  1.8908
  808MOL0     H 9017   9.251   9.792  10.463 -2.6952  2.8066  1.3763
  808MOL0     H 9018   9.357   9.932  10.484 -0.1954  0.1786 -0.6676
  808MOL0     H 9019   9.513   9.835  10.589  1.1712 -1.7860  0.5389
  808MOL0     H 9020   9.434   9.680  10.629 -0.1640 -2.8854 -1.0197
  808MOL0     H 9021   9.423   9.649  10.379  2.6992 -3.1218  0.1107
  808MOL0     H 9022   9.525   9.798  10.367  0.5220 -0.4584 -0.4899
  808MOL0     H 9023   9.715   9.653  10.475  1.5400 -0.8361 -0.4955
  808MOL0     H 9024   9.586   9.543  10.533 -1.5616 -1.3405 -1.9412
  808MOL0     H 9025   9.561   9.477  10.265  0.8339 -1.8621 -2.6058
  808MOL0     H 9026   9.674   9.599  10.232  0.4834 -2.3525 -1.6789
  808MOL0     H 9027   9.738   9.372  10.420 -0.3060  0.7655  0.6252
  808MOL0     H 9028   9.754   9.355  10.237 -2.2247  1.0822 -2.1282
  808MOL0     H 9029   9.918   9.504  10.456 -1.1891 -1.4708  1.1352
  808MOL0     H 9030   9.920   9.561  10.286 -0.1190  0.7864  2.0500
  808MOL0     H 9031  10.062   9.307  10.497 -0.6060 -2.2625  0.3846
  808MOL0     H 9032  10.033   8.995  10.440 -1.6761  2.5159 -2.5984
  808MOL0     H 9033  10.141   8.961  10.306  1.4339  0.0959  0.8430
  808MOL0     H 9034  10.224   9.120  10.556  2.3650 -0.0195  0.3843
  808MOL0     H 9035  10.320   9.071  10.412 -0.6109  4.6651 -0.3525
  808MOL0     H 9036  10.327   8.849  10.489 -0.1611  1.4059 -1.7627
  808MOL0     H 9037  10.170   8.863  10.570  0.9565  1.1928  3.0882
  808MOL0     H 9038  10.354   8.833  10.726  1.7840  0.0307 -1.9802
  808MOL0     H 9039  10.268   9.006  10.737 -1.2779  1.9335 -2.2557
  808MOL0     H 9040  10.675   9.125  10.608 -0.8079 -2.0417  0.1460
  808MOL0     H 9041  10.825   9.401  10.696  1.1021  0.5743  1.1387
  808MOL0     H 9042  10.927   9.297  10.795 -0.8661  0.9486  1.4165
  808MOL0     H 9043  10.864   9.243  10.637 -1.8495 -1.6878  0.3096
  808MOL0     H 9044  10.666   9.397  11.376  2.5788 -1.3245 -1.6002
  808MOL0     H 9045  10.732   9.583  11.530  0.0472 -3.1094 -1.0216
  808MOL0     H 9046  10.956   9.733  11.623  6.0384  2.3454  1.0680
  808MOL0     H 9047  11.033   9.673  11.479  1.1509 -0.9211  1.6141
  808MOL0     H 9048  11.166   9.813  11.586  0.5512 -0.8226 -1.4215
  808MOL0     H 9049  11.124   9.870  11.425  0.3437 -2.0896  0.5276
  808MOL0     H 9050  11.010   9.994  11.692 -1.9535  5.1660 -0.2360
  808MOL0     H 9051  10.935  10.030  11.554 -0.3381 -1.5493 -0.8271
  808MOL0     H 9052  11.237  10.096  11.579  0.5737 -1.8619 -3.1906
  808MOL0     H 9053  11.136  10.136  11.439 -2.5224  1.2298  0.1825
  808MOL0     H 9054  11.120  10.246  11.705  0.6120  2.6643  0.7559
  808MOL0     H 9055  10.995  10.266  11.575 -0.6572 -0.8608  1.5804
  808MOL0     H 9056  11.139  10.451  11.575  0.2876  0.5634 -1.0088
  808MOL0     H 9057  11.292  10.371  11.573  0.5614  2.5632 -0.9363
  808MOL0     H 9058  11.091  10.382  11.343  1.6441 -1.3947 -1.7682
  808MOL0     H 9059  11.249  10.306  11.331  1.7538  1.1092  0.7068
  808MOL0     H 9060  11.361  10.529  11.385  0.3585  2.2003 -0.4468
  808MOL0     H 9061  11.198  10.596  11.388 -2.7358 -2.3761  1.3297
  808MOL0     H 9062  10.890   9.794  11.194  4.1441 -1.8552  2.5484
  808MOL0     H 9063  10.763   9.638  11.035  1.2335 -0.5949 -0.7902
  808MOL0     H 9064  10.499   9.234  11.054 -3.0388  0.7851 -1.8700
  808MOL0     H 9065  10.384   9.077  10.911 -0.1015 -3.8422 -3.4826
  808MOL0     H 9066   9.027  10.201  10.634  1.4824 -0.4616 -0.6337
  808MOL0     H 9067   8.875  10.290  10.810  3.5896  1.7011 -2.1293
  808MOL0     H 9068   8.880  10.351  11.379  0.7369 -0.8351 -0.3384
  808MOL0     H 9069   8.712  10.417  11.547  2.2015  0.3225 -1.2862
  808MOL0     H 9070   8.495  10.460  11.675  1.4245 -1.2178 -2.2377
  808MOL0     H 9071   8.445  10.580  11.547  0.7048 -1.0881 -1.7668
  808MOL0     H 9072   8.202  10.486  11.576  0.0524  2.3794  0.0574
  808MOL0     H 9073   8.280  10.597  11.695  2.1738  0.5926 -0.5157
  808MOL0     H 9074   8.339  10.427  11.841  1.7871  0.8840 -1.3349
  808MOL0     H 9075   8.274  10.297  11.749 -0.9736  0.7153 -1.3758
  808MOL0     H 9076   8.121  10.349  11.927  0.0691  0.2430  0.7654
  808MOL0     H 9077   8.040  10.386  11.770 -1.5837  1.4478  1.3961
  808MOL0     H 9078   8.027  10.756  11.964  4.2847  1.6509 -1.3458
  808MOL0     H 9079   8.411  10.266  11.297  0.4597 -0.6699  3.3098
  808MOL0     H 9080   8.576  10.195  11.115 -2.6616 -3.1405  2.6025
  809MOL0     O 9081   6.266   9.423   7.992 -0.0412 -0.6683  0.4494
  809MOL0     C 9082   6.359   9.446   8.068  0.4411 -0.0612  0.2550
  809MOL0     O 9083   6.414   9.571   8.095 -0.3467 -0.8857  0.6378
  809MOL0     C 9084   6.357   9.671   8.015 -1.6117  0.5145 -0.6575
  809MOL0     C 9085   6.216   9.690   8.014 -0.1009  0.3414 -0.0631
  809MOL0     C 9086   6.158   9.770   7.918  0.2624  0.8915  0.2788
  809MOL0     C 9087   6.245   9.854   7.850 -0.6405 -0.4280 -0.0811
  809MOL0     O 9088   6.176   9.943   7.777 -0.1613  0.4539 -0.5358
  809MOL0     C 9089   6.219  10.072   7.806  0.5227 -0.5137  0.0233
  809MOL0     C 9090   6.127  10.178   7.735 -0.1409 -0.0639  0.4181
  809MOL0     C 9091   5.983  10.189   7.800  1.1768  0.0846  0.7425
  809MOL0     C 9092   5.881  10.095   7.765 -1.4270  0.6134  0.2571
  809MOL0     C 9093   5.750  10.120   7.834 -1.4129  0.0436 -0.0749
  809MOL0     C 9094   5.624  10.096   7.746  0.7073 -0.0227 -1.1397
  809MOL0     C 9095   5.495  10.156   7.807 -0.8061 -0.0573 -0.9690
  809MOL0     C 9096   5.372  10.114   7.738 -0.0252 -0.0962 -0.2434
  809MOL0     N 9097   5.251  10.152   7.809 -0.0602  0.1576 -0.6625
  809MOL0     C 9098   5.233  10.278   7.870  0.3060  0.4114  0.5154
  809MOL0     C 9099   5.120  10.259   7.944  0.4622 -0.3586  0.5972
  809MOL0     C 9100   5.071  10.365   8.037  0.6583 -0.2243  0.2979
  809MOL0     C 9101   4.971  10.472   7.981 -0.7935 -0.6963  0.4569
  809MOL0     C 9102   4.857  10.439   7.890  0.1361  0.4577 -0.1655
  809MOL0     C 9103   4.765  10.349   7.972 -0.2258  0.1107 -1.1716
  809MOL0     O 9104   4.641  10.304   7.914 -0.5921  0.8734  0.7375
  809MOL0     C 9105   4.551  10.399   7.870 -0.2548 -0.1155 -0.8051
  809MOL0     C 9106   4.504  10.495   7.955 -0.4349  0.0747 -0.6479
  809MOL0     C 9107   4.406  10.589   7.929 -0.9891 -0.4504  0.5064
  809MOL0     C 9108   4.373  10.693   8.030 -0.0081  0.1313 -1.0621
  809MOL0     C 9109   4.340  10.567   7.808 -0.2049  0.1234  0.5028
  809MOL0     C 9110   4.209  10.631   7.775  0.2565  0.7990  0.1219
  809MOL0     O 9111   4.144  10.579   7.677  0.7622 -0.0844  0.3191
  809MOL0     C 9112   4.008  10.605   7.674  0.1482  0.3398  0.5724
  809MOL0     C 9113   3.953  10.695   7.593  0.1685 -1.1102  0.6679
  809MOL0     C 9114   3.817  10.727   7.591 -0.7680  0.5138 -0.5608
  809MOL0     C 9115   3.729  10.658   7.677 -0.0827 -1.0196 -0.2441
  809MOL0     O 9116   3.601  10.698   7.684  0.0668  0.3160  0.3439
  809MOL0     C 9117   3.542  10.724   7.807  0.4272 -0.1578 -0.3052
  809MOL0     C 9118   3.480  10.867   7.825 -0.1619 -0.3229 -0.6424
  809MOL0     C 9119   3.450  10.936   7.692  0.5853 -0.4481  0.0644
  809MOL0     C 9120   3.393  11.078   7.714  1.0347 -0.6862 -0.0778
  809MOL0     C 9121   3.349  11.150   7.592 -0.4084 -0.4064  0.0391
  809MOL0     C 9122   3.283  11.074   7.483 -0.5169 -0.2188  0.3605
  809MOL0     C 9123   3.165  10.988   7.523  0.6248 -0.9264  0.2928
  809MOL0     C 9124   3.023  11.038   7.502 -0.9871  0.2119 -0.8097
  809MOL0    Cl 9125   2.915  10.905   7.551  0.0031 -0.0644  0.5833
  809MOL0     C 9126   3.783  10.554   7.750 -0.4347  0.0449 -1.3951
  809MOL0     C 9127   3.926  10.536   7.764 -0.5731 -1.1560 -0.8568
  809MOL0     O 9128   4.172  10.734   7.840 -0.0480  0.9839  0.4258
  809MOL0     C 9129   4.394  10.482   7.713  0.3376 -0.1837  0.3264
  809MOL0     C 9130   4.496  10.396   7.746  0.0020 -0.4001 -0.6588
  809MOL0     N 9131   5.065  10.136   7.921 -0.8735  0.2367  0.0386
  809MOL0     N 9132   5.146  10.071   7.838 -0.0656  0.3562 -0.5104
  809MOL0     C 9133   6.386   9.843   7.863 -0.2449 -0.2084  1.0007
  809MOL0     C 9134   6.440   9.760   7.948 -0.5642  0.0858 -0.4582
  809MOL0     C 9135   6.433   9.333   8.120 -0.5468  0.9056  0.4881
  809MOL0     C 9136   6.461   9.319   8.251 -0.5015 -0.2276 -0.7152
  809MOL0     C 9137   6.539   9.211   8.298  0.4876  0.2401 -0.7487
  809MOL0     C 9138   6.584   9.119   8.204 -1.0534 -1.0250  0.7039
  809MOL0     O 9139   6.644   9.003   8.250 -0.3655  0.9726  0.1344
  809MOL0     C 9140   6.564   8.884   8.244 -0.4823 -0.1271 -0.4570
  809MOL0     C 9141   6.638   8.751   8.229  0.4761  0.1063 -1.4074
  809MOL0     C 9142   6.748   8.741   8.120  0.3014  0.5014 -0.2401
  809MOL0     C 9143   6.699   8.743   7.973 -0.5136 -0.4370 -0.1066
  809MOL0     C 9144   6.678   8.615   7.900  0.5568  0.2328  0.3051
  809MOL0     C 9145   6.648   8.510   7.842 -0.6270 -0.0224  0.7229
  809MOL0     C 9146   6.568   9.139   8.070 -0.2783 -1.0981  0.2007
  809MOL0     C 9147   6.486   9.255   8.030 -0.2682 -0.0707  0.4486
  809MOL0     H 9148   6.143   9.632   8.070 -1.1878  0.9033 -0.8683
  809MOL0     H 9149   6.054   9.776   7.890 -0.0906  0.9469  1.5778
  809MOL0     H 9150   6.223  10.100   7.911  3.4923 -2.4854  0.5421
  809MOL0     H 9151   6.320  10.091   7.768  0.9161 -0.4215  1.0980
  809MOL0     H 9152   6.175  10.276   7.746  1.5062 -0.7731 -0.1807
  809MOL0     H 9153   6.130  10.155   7.629  1.2581  1.4452  0.0919
  809MOL0     H 9154   5.988  10.191   7.909 -1.3899  1.8460  0.8968
  809MOL0     H 9155   5.930  10.282   7.780  1.4202  0.4259  1.6574
  809MOL0     H 9156   5.864  10.105   7.657 -1.6364  0.2432  0.2559
  809MOL0     H 9157   5.917   9.992   7.772 -4.0451 -0.3087  1.1260
  809MOL0     H 9158   5.754  10.066   7.929  0.9773  1.1761  0.5386
  809MOL0     H 9159   5.744  10.227   7.857 -1.2615  0.1781 -0.6521
  809MOL0     H 9160   5.642  10.147   7.650  1.3061 -4.4334 -3.6715
  809MOL0     H 9161   5.602   9.992   7.721 -2.2638 -0.0717  1.1764
  809MOL0     H 9162   5.490  10.130   7.913 -2.0026  3.0376 -0.1684
  809MOL0     H 9163   5.522  10.261   7.820  0.3827 -0.4908  0.3241
  809MOL0     H 9164   5.382  10.005   7.742  0.5153 -0.0159  1.0194
  809MOL0     H 9165   5.365  10.151   7.635 -1.5797  2.3551  0.6707
  809MOL0     H 9166   5.318  10.345   7.871  2.4471 -2.1219 -0.1359
  809MOL0     H 9167   5.008  10.315   8.111  1.6194 -0.2170  1.1395
  809MOL0     H 9168   5.153  10.417   8.086 -0.3317 -0.0822  1.8709
  809MOL0     H 9169   5.038  10.541   7.930  2.1397 -2.8237  1.1362
  809MOL0     H 9170   4.921  10.518   8.067  2.4354 -0.2612  2.2359
  809MOL0     H 9171   4.890  10.376   7.807 -2.4510 -1.6135  0.2222
  809MOL0     H 9172   4.806  10.529   7.856 -0.8065 -0.2400 -0.6524
  809MOL0     H 9173   4.740  10.400   8.065 -0.8236 -1.5013 -0.4144
  809MOL0     H 9174   4.823  10.258   7.988 -0.8261  0.2198  2.2604
  809MOL0     H 9175   4.537  10.497   8.059 -1.9017  1.8515 -0.1744
  809MOL0     H 9176   4.277  10.678   8.079 -0.0506 -0.8485 -1.4398
  809MOL0     H 9177   4.438  10.692   8.118 -2.8789  0.1398  1.2003
  809MOL0     H 9178   4.380  10.794   7.989  1.5398 -0.5646 -2.6463
  809MOL0     H 9179   4.019  10.746   7.524 -2.6509 -0.8052 -2.0712
  809MOL0     H 9180   3.790  10.812   7.529  0.9824  1.6111  0.1187
  809MOL0     H 9181   3.468  10.645   7.827  1.9159 -0.9590  2.6672
  809MOL0     H 9182   3.618  10.715   7.885 -1.1148  1.0126  1.4234
  809MOL0     H 9183   3.388  10.858   7.883  0.3232 -1.0157  0.0378
  809MOL0     H 9184   3.548  10.925   7.888 -0.2824  0.1629 -0.9546
  809MOL0     H 9185   3.379  10.884   7.626 -0.7512  0.5353  0.6765
  809MOL0     H 9186   3.544  10.959   7.640  0.9439  0.0096  0.9089
  809MOL0     H 9187   3.298  11.072   7.769  0.0958  3.5504 -0.8700
  809MOL0     H 9188   3.460  11.137   7.777 -0.0378  0.1123  0.3473
  809MOL0     H 9189   3.429  11.197   7.534 -2.5122  1.4320 -1.5585
  809MOL0     H 9190   3.292  11.237   7.627  2.0648  0.9384  0.9931
  809MOL0     H 9191   3.244  11.150   7.414 -2.4577  0.0010  1.6165
  809MOL0     H 9192   3.362  11.019   7.432  0.6207  0.4326  1.3871
  809MOL0     H 9193   3.175  10.975   7.631  1.0764 -0.4311  0.3148
  809MOL0     H 9194   3.179  10.891   7.475  0.6027 -0.5120 -0.5753
  809MOL0     H 9195   2.999  11.059   7.397 -2.3394  0.9944 -0.3747
  809MOL0     H 9196   3.005  11.124   7.566 -1.9988 -2.2165  2.4709
  809MOL0     H 9197   3.737  10.497   7.829  1.9087 -0.8090 -0.5500
  809MOL0     H 9198   3.979  10.484   7.843 -0.7098 -0.2003 -0.1236
  809MOL0     H 9199   4.348  10.469   7.615  1.1716  1.3070 -0.2840
  809MOL0     H 9200   4.537  10.344   7.660  0.1902 -4.7516  1.8125
  809MOL0     H 9201   6.440   9.915   7.801 -1.3394  1.0314  1.4452
  809MOL0     H 9202   6.544   9.737   7.965 -0.7995 -0.9268 -0.3059
  809MOL0     H 9203   6.418   9.389   8.322  2.5705 -0.1255  1.2207
  809MOL0     H 9204   6.557   9.200   8.404  0.9421  0.6606 -0.7791
  809MOL0     H 9205   6.525   8.881   8.346  1.9089 -0.7933  0.5204
  809MOL0     H 9206   6.498   8.888   8.157  0.8363 -3.6614 -1.8054
  809MOL0     H 9207   6.557   8.680   8.213 -0.0338  0.7158 -1.5923
  809MOL0     H 9208   6.685   8.723   8.324 -0.9023 -1.1017 -1.0522
  809MOL0     H 9209   6.806   8.649   8.127 -1.6509 -1.4746 -5.2066
  809MOL0     H 9210   6.814   8.825   8.141  0.4639  0.7475 -1.6188
  809MOL0     H 9211   6.778   8.776   7.904  1.4106 -0.1336  2.1301
  809MOL0     H 9212   6.612   8.809   7.970  0.1752  0.5082  0.3985
  809MOL0     H 9213   6.608   8.420   7.799 -0.1787 -0.4864  1.2603
  809MOL0     H 9214   6.620   9.074   8.000  4.0705  2.6821 -0.5519
  809MOL0     H 9215   6.458   9.269   7.926  0.7248 -2.1356 -0.1656
  810MOL0     O 9216   9.648  10.878  11.364  0.6369 -0.5114  0.6195
  810MOL0     C 9217   9.677  10.935  11.469 -0.5174  0.0875 -0.0840
  810MOL0     O 9218   9.590  11.012  11.532 -0.1801  0.1440 -0.3655
  810MOL0     C 9219   9.467  11.054  11.487  0.3351  1.0944  0.0969
  810MOL0     C 9220   9.382  11.104  11.590 -0.1163  0.0097  0.1399
  810MOL0     C 9221   9.244  11.133  11.567  0.0265  0.9952  0.6859
  810MOL0     C 9222   9.193  11.134  11.437 -0.8031  0.1249  0.1216
  810MOL0     O 9223   9.055  11.148  11.413 -0.4034  0.1909 -0.0387
  810MOL0     C 9224   8.986  11.168  11.287 -0.9647  0.4558  0.1346
  810MOL0     C 9225   8.835  11.193  11.317 -0.5878 -0.0643  1.2400
  810MOL0     C 9226   8.748  11.188  11.185  0.7896  0.4429  0.0483
  810MOL0     C 9227   8.772  11.306  11.090 -0.8278  0.1352 -0.1549
  810MOL0     C 9228   8.722  11.283  10.951  0.3975 -0.6627  0.5195
  810MOL0     C 9229   8.572  11.279  10.907 -0.2576 -0.3056 -0.0183
  810MOL0     C 9230   8.510  11.140  10.949  0.4784  0.8782  0.1985
  810MOL0     C 9231   8.540  11.029  10.844 -0.2191  1.0530 -0.4450
  810MOL0     N 9232   8.479  11.062  10.717  0.0956  0.1060  0.9727
  810MOL0     C 9233   8.531  11.063  10.595  1.3459 -0.3796  0.2193
  810MOL0     C 9234   8.421  11.085  10.517  0.3864 -0.9027 -0.9503
  810MOL0     C 9235   8.429  11.085  10.375 -0.4449 -0.2429  1.3298
  810MOL0     C 9236   8.308  11.139  10.310  0.6566 -0.1078  0.5721
  810MOL0     C 9237   8.289  11.287  10.305 -0.6603 -0.8470 -0.0886
  810MOL0     C 9238   8.144  11.315  10.332 -0.0073  0.2383 -0.6576
  810MOL0     O 9239   8.145  11.457  10.344  0.3276  0.3515  0.5339
  810MOL0     C 9240   8.156  11.505  10.472 -1.0079  0.3610  0.3403
  810MOL0     C 9241   8.141  11.636  10.483  0.1765 -0.5887  0.1528
  810MOL0     C 9242   8.160  11.717  10.599 -0.2725 -0.5252  0.1290
  810MOL0     C 9243   8.114  11.860  10.599 -0.1375  0.1921 -0.5652
  810MOL0     C 9244   8.200  11.647  10.714 -0.1143 -0.6610  0.6719
  810MOL0     C 9245   8.236  11.699  10.847  0.4286  0.2094 -0.7709
  810MOL0     O 9246   8.328  11.628  10.923 -0.1456 -0.0283  0.2075
  810MOL0     C 9247   8.336  11.671  11.048 -0.5286 -0.1011 -0.9110
  810MOL0     C 9248   8.435  11.765  11.073 -0.8460 -0.8072  0.1611
  810MOL0     C 9249   8.460  11.811  11.200  0.1219 -0.0150 -0.9258
  810MOL0     C 9250   8.364  11.776  11.304 -0.4301 -0.4436 -0.8890
  810MOL0     O 9251   8.374  11.835  11.430  0.0054  0.1903 -0.0949
  810MOL0     C 9252   8.357  11.979  11.426  0.3101 -0.0502 -0.7193
  810MOL0     C 9253   8.440  12.050  11.529 -0.5335 -0.6606  0.0950
  810MOL0     C 9254   8.393  12.185  11.586 -0.6441 -0.0566  0.5369
  810MOL0     C 9255   8.479  12.214  11.708  0.4067  0.0445 -0.7186
  810MOL0     C 9256   8.458  12.352  11.754 -0.5877  0.2641  0.0524
  810MOL0     C 9257   8.569  12.398  11.851  0.5400 -0.3505 -0.7297
  810MOL0     C 9258   8.535  12.541  11.908 -0.2403  0.0040 -0.5541
  810MOL0     C 9259   8.472  12.549  12.048  0.1109 -0.0483 -0.1344
  810MOL0    Cl 9260   8.306  12.498  12.026  0.1726  0.3159 -0.1356
  810MOL0     C 9261   8.262  11.687  11.270  0.2093  0.3584 -0.4679
  810MOL0     C 9262   8.249  11.629  11.149 -1.0396  0.8215  0.1251
  810MOL0     O 9263   8.183  11.803  10.888 -0.2197  0.4634 -0.2754
  810MOL0     C 9264   8.217  11.505  10.712 -0.0364 -0.1091  0.1690
  810MOL0     C 9265   8.195  11.438  10.595  0.5961 -0.1565  0.6749
  810MOL0     N 9266   8.308  11.098  10.591  0.3193 -0.9720  0.4069
  810MOL0     N 9267   8.352  11.089  10.715  1.5165  0.0405  0.8330
  810MOL0     C 9268   9.283  11.099  11.328  0.4808 -0.4425  0.0823
  810MOL0     C 9269   9.416  11.069  11.354 -0.9568 -0.4376  0.1853
  810MOL0     C 9270   9.811  10.916  11.525  0.6071 -0.1808  0.4184
  810MOL0     C 9271   9.903  10.869  11.444 -0.0575  0.1375 -1.2757
  810MOL0     C 9272  10.026  10.830  11.500  0.2694  0.2388  0.0907
  810MOL0     C 9273  10.058  10.848  11.636 -0.3406  0.4440 -0.2389
  810MOL0     O 9274  10.178  10.789  11.662 -0.8926 -0.1265 -0.5038
  810MOL0     C 9275  10.262  10.823  11.778 -0.2273 -0.0403 -0.4346
  810MOL0     C 9276  10.286  10.974  11.809 -0.2983 -0.3049 -0.0170
  810MOL0     C 9277  10.353  11.043  11.693  0.3479  0.5060 -0.9818
  810MOL0     C 9278  10.357  11.196  11.698  0.5096 -0.4547  0.6834
  810MOL0     C 9279  10.414  11.259  11.580 -0.3506  0.2966  0.0174
  810MOL0     C 9280  10.484  11.290  11.482  0.1138  0.8258 -0.4159
  810MOL0     C 9281   9.961  10.907  11.716  0.5800 -0.6871  0.7105
  810MOL0     C 9282   9.839  10.937  11.668  0.8010  0.1537 -0.0699
  810MOL0     H 9283   9.428  11.112  11.689 -2.1483  0.9152  1.0766
  810MOL0     H 9284   9.175  11.159  11.647  0.6432  0.6327  1.3469
  810MOL0     H 9285   9.039  11.240  11.224 -0.0138  0.3389  0.7772
  810MOL0     H 9286   9.001  11.074  11.234 -1.0801  0.9770 -0.8354
  810MOL0     H 9287   8.793  11.131  11.397 -3.7426  2.5114  1.8408
  810MOL0     H 9288   8.829  11.298  11.348  1.0854  0.3850  0.1455
  810MOL0     H 9289   8.755  11.086  11.146  1.7749  0.9099 -1.0586
  810MOL0     H 9290   8.642  11.190  11.213 -0.1098 -1.9030 -2.6917
  810MOL0     H 9291   8.732  11.397  11.135  0.4243  1.2412 -1.1687
  810MOL0     H 9292   8.879  11.325  11.078 -0.5858  1.3313  2.9647
  810MOL0     H 9293   8.769  11.357  10.886 -0.6763 -1.5936 -1.4319
  810MOL0     H 9294   8.775  11.192  10.917  1.3188 -0.3298  1.0284
  810MOL0     H 9295   8.529  11.367  10.957 -0.5070 -0.8456  0.7234
  810MOL0     H 9296   8.559  11.293  10.799 -0.4612 -1.6994 -0.1893
  810MOL0     H 9297   8.545  11.097  11.043  3.2122 -2.0416 -1.9584
  810MOL0     H 9298   8.401  11.146  10.961  0.7993  2.2543  3.7929
  810MOL0     H 9299   8.501  10.935  10.884  0.1949  1.8849  2.0625
  810MOL0     H 9300   8.649  11.016  10.838 -0.2217 -0.6265  1.7225
  810MOL0     H 9301   8.627  11.042  10.549  2.0266  1.8184  0.5092
  810MOL0     H 9302   8.522  11.131  10.339 -0.5790 -1.1140 -0.1762
  810MOL0     H 9303   8.423  10.984  10.334 -3.6017 -1.1568  3.6739
  810MOL0     H 9304   8.217  11.088  10.341 -1.8284  3.5311 -0.0155
  810MOL0     H 9305   8.309  11.112  10.204  0.1508 -0.1770  0.5853
  810MOL0     H 9306   8.306  11.335  10.208 -2.7846  2.1894  0.8896
  810MOL0     H 9307   8.358  11.329  10.378  2.6670 -2.3991 -2.0790
  810MOL0     H 9308   8.115  11.256  10.419 -0.0870 -0.6170 -1.2583
  810MOL0     H 9309   8.090  11.277  10.245 -0.5790  2.6385 -1.4303
  810MOL0     H 9310   8.112  11.683  10.389  0.5929  1.2533  0.8956
  810MOL0     H 9311   8.104  11.899  10.497 -1.0861  1.2733 -0.0802
  810MOL0     H 9312   8.020  11.870  10.653  1.5122 -0.7498  2.7283
  810MOL0     H 9313   8.188  11.917  10.656  0.5321 -0.4726 -0.7434
  810MOL0     H 9314   8.503  11.796  10.994  2.0705 -4.3578  0.9704
  810MOL0     H 9315   8.542  11.879  11.221 -1.6984  1.4891  2.1874
  810MOL0     H 9316   8.383  12.023  11.330 -1.3602  2.0671 -0.2619
  810MOL0     H 9317   8.251  11.997  11.447  1.0875  0.3731  3.7409
  810MOL0     H 9318   8.444  11.988  11.619 -0.6813  0.8166  1.1709
  810MOL0     H 9319   8.543  12.060  11.495 -0.1447 -2.8470  0.4780
  810MOL0     H 9320   8.286  12.180  11.611 -2.0652  0.9620 -4.2800
  810MOL0     H 9321   8.413  12.268  11.518  0.5626 -0.4734  0.3629
  810MOL0     H 9322   8.445  12.152  11.791  2.3650 -1.9144 -1.2898
  810MOL0     H 9323   8.585  12.196  11.684  0.1812 -1.6424 -0.5670
  810MOL0     H 9324   8.355  12.349  11.791 -0.6494 -0.4096 -0.1437
  810MOL0     H 9325   8.461  12.418  11.667 -4.1452 -0.4729 -0.8135
  810MOL0     H 9326   8.578  12.322  11.928 -2.7770  0.8136  1.0218
  810MOL0     H 9327   8.661  12.400  11.792 -0.9223  1.6626 -3.1300
  810MOL0     H 9328   8.484  12.596  11.829 -2.8811 -2.2469 -0.5511
  810MOL0     H 9329   8.633  12.590  11.915  0.1192 -0.8454  0.6037
  810MOL0     H 9330   8.468  12.648  12.093 -0.6444  0.0013 -0.3090
  810MOL0     H 9331   8.523  12.477  12.112 -0.6228 -1.2197 -0.8239
  810MOL0     H 9332   8.202  11.645  11.350 -3.4784  5.6357  0.0417
  810MOL0     H 9333   8.185  11.542  11.133  0.4788 -0.4227  0.5738
  810MOL0     H 9334   8.255  11.447  10.795 -0.2735  0.0727  0.4020
  810MOL0     H 9335   8.202  11.330  10.596 -2.0465 -0.5666 -3.3496
  810MOL0     H 9336   9.231  11.093  11.233  0.5943  0.4867 -0.0522
  810MOL0     H 9337   9.482  11.043  11.272  0.3145  1.5687  0.4910
  810MOL0     H 9338   9.888  10.852  11.338 -0.5693 -2.3978 -0.8684
  810MOL0     H 9339  10.094  10.786  11.428  0.2364  1.8588 -0.9774
  810MOL0     H 9340  10.210  10.767  11.856 -3.9509  1.4595 -1.6096
  810MOL0     H 9341  10.358  10.775  11.758 -0.2335 -0.6006  0.8314
  810MOL0     H 9342  10.345  10.975  11.901  1.7208 -6.0326 -0.8195
  810MOL0     H 9343  10.188  11.019  11.830  0.4189  0.8366  1.0577
  810MOL0     H 9344  10.305  11.000  11.605  0.2389 -0.2753 -0.5489
  810MOL0     H 9345  10.459  11.021  11.681  0.3614 -1.6048  1.9520
  810MOL0     H 9346  10.426  11.218  11.780 -0.0075 -0.2068  1.0599
  810MOL0     H 9347  10.256  11.234  11.715 -0.2182 -1.8538 -0.2739
  810MOL0     H 9348  10.550  11.286  11.398  1.0802 -2.2791  0.3787
  810MOL0     H 9349   9.974  10.917  11.823  0.1004  4.1838  0.5670
  810MOL0     H 9350   9.760  10.977  11.731  0.4075  1.2397 -1.2205
  811MOL0     O 9351   3.608   1.245   7.275  0.2251  0.5477  0.2293
  811MOL0     C 9352   3.582   1.344   7.209 -0.7902 -0.1955  0.3802
  811MOL0     O 9353   3.678   1.444   7.197  0.3497 -0.5430 -0.2601
  811MOL0     C 9354   3.801   1.433   7.253  0.9269 -0.5999 -0.5714
  811MOL0     C 9355   3.809   1.432   7.392  0.8614 -0.2769  0.1161
  811MOL0     C 9356   3.934   1.429   7.458  0.5557  0.4259 -0.1928
  811MOL0     C 9357   4.054   1.438   7.386  0.6770 -0.5066  0.6251
  811MOL0     O 9358   4.169   1.426   7.457  0.0386  0.5726  1.2755
  811MOL0     C 9359   4.295   1.431   7.389 -0.1585 -0.0138  0.5303
  811MOL0     C 9360   4.397   1.356   7.489 -0.7710  0.3949 -0.0169
  811MOL0     C 9361   4.426   1.429   7.614 -0.7304 -0.0577  0.3412
  811MOL0     C 9362   4.351   1.378   7.740  0.7029  0.3245 -0.3362
  811MOL0     C 9363   4.392   1.448   7.870 -0.1644  0.1162 -0.9822
  811MOL0     C 9364   4.410   1.608   7.862 -0.6348  0.9926 -0.3143
  811MOL0     C 9365   4.277   1.676   7.838 -0.8785 -0.0982 -0.2685
  811MOL0     C 9366   4.307   1.823   7.838 -0.8850  1.1551  0.3522
  811MOL0     N 9367   4.200   1.900   7.903 -0.8857 -0.1205  0.6837
  811MOL0     C 9368   4.072   1.899   7.871  0.2830 -0.4739  0.1556
  811MOL0     C 9369   4.007   1.979   7.961 -0.3818  0.6159 -0.3752
  811MOL0     C 9370   3.859   1.987   7.978  0.3454 -0.2990  0.6240
  811MOL0     C 9371   3.794   2.124   7.971 -0.5442 -0.0066  0.1061
  811MOL0     C 9372   3.692   2.146   8.076  0.5411  0.6236 -1.0215
  811MOL0     C 9373   3.550   2.132   8.018  0.7484  0.0265 -0.3166
  811MOL0     O 9374   3.524   2.247   7.953  0.7478 -0.3999  0.1646
  811MOL0     C 9375   3.427   2.237   7.852  0.1457  0.0347  0.5304
  811MOL0     C 9376   3.308   2.157   7.855 -0.3332 -0.9772  0.1615
  811MOL0     C 9377   3.204   2.149   7.762  0.2528 -0.8186  0.7788
  811MOL0     C 9378   3.093   2.050   7.799 -0.5164  0.3232  0.8880
  811MOL0     C 9379   3.220   2.239   7.649  0.5613 -0.4296  0.6004
  811MOL0     C 9380   3.129   2.250   7.533 -0.7589 -0.1806  0.2708
  811MOL0     O 9381   3.122   2.374   7.463 -0.7691  0.0864 -0.5605
  811MOL0     C 9382   3.052   2.378   7.341  0.2995 -0.2121 -0.0979
  811MOL0     C 9383   2.919   2.428   7.349 -0.0279  0.1854 -0.6805
  811MOL0     C 9384   2.842   2.434   7.226 -0.1379 -0.2225  0.7318
  811MOL0     C 9385   2.900   2.403   7.104  0.5831 -0.6207 -0.0333
  811MOL0     O 9386   2.832   2.399   6.984 -0.6087  0.0017  0.5550
  811MOL0     C 9387   2.701   2.458   6.969 -0.8598 -0.1493 -0.3919
  811MOL0     C 9388   2.631   2.409   6.843 -0.0014  0.0300 -0.0032
  811MOL0     C 9389   2.612   2.244   6.824  0.1374 -0.0672  0.0317
  811MOL0     C 9390   2.750   2.183   6.765  0.5687  0.2411 -0.0268
  811MOL0     C 9391   2.730   2.063   6.670  0.3420  0.0834 -0.2725
  811MOL0     C 9392   2.671   1.943   6.745  1.4769  0.7209  0.0138
  811MOL0     C 9393   2.676   1.809   6.673  0.5599 -0.0543 -0.1516
  811MOL0     C 9394   2.671   1.698   6.777  0.2987 -0.0614 -0.3202
  811MOL0    Cl 9395   2.674   1.534   6.711 -0.2016  0.0897 -0.0085
  811MOL0     C 9396   3.034   2.367   7.102 -0.4635  0.5121  0.1235
  811MOL0     C 9397   3.109   2.360   7.222 -0.1851 -0.9887  0.7562
  811MOL0     O 9398   3.087   2.142   7.483  0.1366 -0.2207  0.0508
  811MOL0     C 9399   3.325   2.337   7.664 -0.3268  0.3976 -0.3762
  811MOL0     C 9400   3.426   2.333   7.762  0.9507 -0.8160  0.4770
  811MOL0     N 9401   4.100   2.039   8.031 -0.1323  0.8646  0.3312
  811MOL0     N 9402   4.219   1.989   8.005 -0.2488  0.2461 -0.0010
  811MOL0     C 9403   4.041   1.448   7.246 -0.0968  0.2127  0.2963
  811MOL0     C 9404   3.916   1.461   7.184  0.3876  0.2796 -0.5811
  811MOL0     C 9405   3.460   1.341   7.131  0.6482 -0.3864 -0.2913
  811MOL0     C 9406   3.366   1.239   7.145  0.5761 -0.6862 -0.4174
  811MOL0     C 9407   3.249   1.237   7.063 -0.6167  0.6002  0.0347
  811MOL0     C 9408   3.209   1.330   6.969 -0.7470 -1.0506 -0.5486
  811MOL0     O 9409   3.110   1.335   6.879  0.5149 -0.1077  0.4807
  811MOL0     C 9410   3.035   1.218   6.856 -0.6010  0.3219  0.8547
  811MOL0     C 9411   2.921   1.201   6.949 -0.3376  0.6747 -0.3559
  811MOL0     C 9412   2.816   1.094   6.883 -0.4418 -0.0557 -0.4095
  811MOL0     C 9413   2.711   1.051   6.987  0.0831  0.9918 -0.6666
  811MOL0     C 9414   2.606   0.971   6.917  0.0123 -0.6970 -0.4647
  811MOL0     C 9415   2.511   0.903   6.868  0.1438 -0.7930  0.3348
  811MOL0     C 9416   3.305   1.431   6.962  0.8408 -0.3179  0.1825
  811MOL0     C 9417   3.421   1.438   7.037  0.2903 -0.4319  0.4223
  811MOL0     H 9418   3.717   1.421   7.449 -0.1310  0.5824 -1.2577
  811MOL0     H 9419   3.932   1.400   7.563 -1.2435 -0.2938 -0.3777
  811MOL0     H 9420   4.295   1.382   7.291 -1.1614 -2.3359  1.6171
  811MOL0     H 9421   4.328   1.535   7.378  1.3453 -0.3353  1.6820
  811MOL0     H 9422   4.366   1.251   7.495  2.4700 -0.8618 -2.5024
  811MOL0     H 9423   4.489   1.350   7.431 -2.0199 -1.1995 -1.9678
  811MOL0     H 9424   4.530   1.428   7.648 -1.4321  1.0238  2.7661
  811MOL0     H 9425   4.400   1.534   7.597 -2.0988 -0.4977 -0.4310
  811MOL0     H 9426   4.248   1.411   7.723  1.0107  1.9203  0.6523
  811MOL0     H 9427   4.348   1.271   7.763  2.4665  0.5193  0.9934
  811MOL0     H 9428   4.313   1.432   7.943  0.2463 -0.4290 -0.6516
  811MOL0     H 9429   4.488   1.414   7.911 -0.6203  0.3401  0.2938
  811MOL0     H 9430   4.450   1.640   7.959  0.4563 -2.6321  0.6042
  811MOL0     H 9431   4.484   1.632   7.784 -1.1665  2.6215 -0.3487
  811MOL0     H 9432   4.225   1.640   7.749 -0.1126  1.2719 -1.3039
  811MOL0     H 9433   4.219   1.655   7.929 -2.1215  2.3675 -0.4058
  811MOL0     H 9434   4.320   1.860   7.736  1.2465  1.3140  0.6355
  811MOL0     H 9435   4.396   1.846   7.896 -0.9136  1.4658  0.2762
  811MOL0     H 9436   4.030   1.848   7.785 -1.0302  2.3572 -0.9951
  811MOL0     H 9437   3.810   1.930   7.898 -1.0571  1.3499  0.2460
  811MOL0     H 9438   3.833   1.944   8.075  3.5141  2.3111  2.8459
  811MOL0     H 9439   3.746   2.126   7.872 -1.7637  0.2537  0.6817
  811MOL0     H 9440   3.866   2.204   7.984  0.5707 -1.4073  3.3909
  811MOL0     H 9441   3.712   2.241   8.126 -0.0410  0.9334 -1.3692
  811MOL0     H 9442   3.689   2.071   8.155  0.3671 -1.5432 -2.9756
  811MOL0     H 9443   3.476   2.121   8.097  1.8110  1.5218  0.9595
  811MOL0     H 9444   3.542   2.048   7.948 -1.3818 -0.7337  0.7502
  811MOL0     H 9445   3.293   2.089   7.939 -1.8690  0.3711  1.0255
  811MOL0     H 9446   3.055   2.058   7.901 -1.5500  2.0963  0.4254
  811MOL0     H 9447   3.003   2.075   7.741  0.8426  2.0901 -0.5861
  811MOL0     H 9448   3.133   1.952   7.774  1.7257  0.6385  2.9150
  811MOL0     H 9449   2.875   2.438   7.447  1.2717  0.5827 -0.1072
  811MOL0     H 9450   2.737   2.461   7.229  0.0144  0.4494  0.1955
  811MOL0     H 9451   2.632   2.438   7.051 -2.5075 -0.5674 -1.8051
  811MOL0     H 9452   2.708   2.567   6.977  3.2881 -0.3618  4.9914
  811MOL0     H 9453   2.531   2.452   6.847 -0.1776 -0.4019  0.2582
  811MOL0     H 9454   2.688   2.436   6.753  2.2198 -0.1434  1.2590
  811MOL0     H 9455   2.523   2.210   6.771 -0.7778 -0.4575  1.7607
  811MOL0     H 9456   2.601   2.211   6.928 -0.0201 -1.3079 -0.3628
  811MOL0     H 9457   2.807   2.263   6.718  0.0771  1.6307  1.6558
  811MOL0     H 9458   2.800   2.139   6.852  5.1565  1.6639 -1.6835
  811MOL0     H 9459   2.829   2.033   6.635 -0.6616 -4.0752 -0.0006
  811MOL0     H 9460   2.668   2.085   6.582 -1.0217 -2.2966  0.0072
  811MOL0     H 9461   2.717   1.937   6.845  2.0404 -2.7167 -0.3354
  811MOL0     H 9462   2.567   1.955   6.777  1.4811  1.6022 -0.2624
  811MOL0     H 9463   2.760   1.802   6.603 -0.6106 -4.1796 -1.4400
  811MOL0     H 9464   2.586   1.794   6.612  0.9148 -0.7628 -0.5215
  811MOL0     H 9465   2.585   1.709   6.845  1.4910 -1.2558  1.4437
  811MOL0     H 9466   2.753   1.704   6.848 -2.3573 -0.8896  3.1183
  811MOL0     H 9467   3.082   2.340   7.008  2.1593  2.6573  0.7168
  811MOL0     H 9468   3.218   2.357   7.226  0.2506  2.8388 -2.3530
  811MOL0     H 9469   3.330   2.419   7.593  0.1314  0.5100 -0.2211
  811MOL0     H 9470   3.504   2.408   7.774  0.7700 -1.0887  4.7199
  811MOL0     H 9471   4.134   1.467   7.192 -0.6721  0.1342 -0.7553
  811MOL0     H 9472   3.908   1.489   7.080 -0.2577  1.6856 -0.1750
  811MOL0     H 9473   3.378   1.151   7.207 -0.9820 -0.7012 -0.1073
  811MOL0     H 9474   3.183   1.151   7.064 -1.9811  1.5510 -1.5520
  811MOL0     H 9475   3.007   1.202   6.751  3.1614  1.0361 -0.4103
  811MOL0     H 9476   3.097   1.128   6.868  0.3264  0.4012 -2.3472
  811MOL0     H 9477   2.873   1.299   6.961 -2.4106 -0.4369  0.9777
  811MOL0     H 9478   2.938   1.169   7.052  0.1933  1.3594 -0.2275
  811MOL0     H 9479   2.864   1.001   6.850 -0.5134 -1.1636  2.3762
  811MOL0     H 9480   2.767   1.147   6.802  0.7922  0.9886 -0.5103
  811MOL0     H 9481   2.654   1.135   7.029 -0.3393 -1.0190  3.2248
  811MOL0     H 9482   2.738   1.007   7.083 -1.4292  1.5888  0.0728
  811MOL0     H 9483   2.436   0.844   6.821 -1.0688  0.3902  0.7361
  811MOL0     H 9484   3.277   1.504   6.887  2.5628  1.5571  1.2627
  811MOL0     H 9485   3.492   1.518   7.018 -0.7744  0.3423 -0.3798
  812MOL0     O 9486   1.048  11.478  10.249  0.1248  0.3612 -0.2091
  812MOL0     C 9487   1.079  11.453  10.130 -0.0424  0.7405 -0.0059
  812MOL0     O 9488   1.207  11.460  10.074 -0.5767 -0.2683 -0.3148
  812MOL0     C 9489   1.319  11.518  10.134  0.1998  0.4014 -0.1240
  812MOL0     C 9490   1.436  11.476  10.091 -0.0030 -0.9266  0.3169
  812MOL0     C 9491   1.558  11.526  10.139 -0.5898  0.1452  0.3480
  812MOL0     C 9492   1.571  11.628  10.235  0.0448  0.1454 -0.7962
  812MOL0     O 9493   1.685  11.684  10.275 -0.3240 -0.1225  0.0364
  812MOL0     C 9494   1.683  11.829  10.279 -0.4895  0.3423 -0.4874
  812MOL0     C 9495   1.783  11.882  10.370 -0.0646 -0.7209 -0.0227
  812MOL0     C 9496   1.920  11.878  10.315  0.2085 -0.5510 -0.2882
  812MOL0     C 9497   2.003  11.973  10.395  0.7726 -0.2892  0.9307
  812MOL0     C 9498   2.151  11.970  10.344  0.3659  0.4195 -0.4321
  812MOL0     C 9499   2.240  12.063  10.424 -0.0433  0.0239  0.2868
  812MOL0     C 9500   2.369  12.083  10.348 -1.0512  0.4495  0.1453
  812MOL0     C 9501   2.450  11.954  10.327  1.0864 -0.2811  0.3335
  812MOL0     N 9502   2.590  11.983  10.369 -0.4883  0.4418  0.1338
  812MOL0     C 9503   2.650  11.974  10.502 -0.0611 -0.0328 -0.4209
  812MOL0     C 9504   2.778  11.951  10.481 -0.7050 -0.3854  0.3994
  812MOL0     C 9505   2.893  11.981  10.574  0.7317  0.7428 -0.2350
  812MOL0     C 9506   2.873  12.002  10.726  0.0884 -0.8775  0.0881
  812MOL0     C 9507   3.006  12.051  10.782 -1.0494 -0.0445 -0.5436
  812MOL0     C 9508   2.991  12.109  10.917 -0.1235 -0.8469 -0.4704
  812MOL0     O 9509   3.099  12.191  10.960 -0.4665 -0.8500 -0.3719
  812MOL0     C 9510   3.209  12.144  11.027 -1.0552 -0.0963 -0.2026
  812MOL0     C 9511   3.221  12.012  11.057  0.1393  0.6303 -0.6347
  812MOL0     C 9512   3.338  11.956  11.122 -0.9242  0.2044  0.3176
  812MOL0     C 9513   3.362  11.806  11.124  0.1900  0.0162  0.5921
  812MOL0     C 9514   3.429  12.046  11.183 -0.8320 -0.0811  0.6107
  812MOL0     C 9515   3.553  12.011  11.258 -0.0721  0.1637 -0.1274
  812MOL0     O 9516   3.612  12.117  11.325  0.2279 -0.1187  0.6740
  812MOL0     C 9517   3.739  12.093  11.364  0.0018  0.1287  0.4117
  812MOL0     C 9518   3.768  12.049  11.498  0.2201  0.0396  0.7924
  812MOL0     C 9519   3.900  12.044  11.546  0.1802 -1.0365  0.2528
  812MOL0     C 9520   4.009  12.088  11.464  0.4751 -0.5207  0.1148
  812MOL0     O 9521   4.140  12.098  11.498  0.2147  0.3023  0.7570
  812MOL0     C 9522   4.172  12.062  11.634  1.5623 -0.1715  0.4958
  812MOL0     C 9523   4.321  12.074  11.668 -0.7910 -1.4411 -0.1958
  812MOL0     C 9524   4.360  12.024  11.806 -0.0855 -0.3263 -0.9721
  812MOL0     C 9525   4.508  12.060  11.846  0.0931  0.9291  1.0505
  812MOL0     C 9526   4.525  12.047  12.005 -0.0547 -0.0472  0.5060
  812MOL0     C 9527   4.665  12.058  12.047  0.4241 -0.1086  0.3988
  812MOL0     C 9528   4.707  12.017  12.187  0.3644  0.9947 -0.4295
  812MOL0     C 9529   4.692  12.143  12.274 -0.2502  0.0891  0.6024
  812MOL0    Cl 9530   4.763  12.132  12.442 -0.6236 -0.1390 -0.2829
  812MOL0     C 9531   3.977  12.123  11.327  0.2506  0.3478  0.6967
  812MOL0     C 9532   3.842  12.117  11.278 -1.1027 -0.1459  0.9289
  812MOL0     O 9533   3.598  11.897  11.254 -0.1986 -0.5930  0.8423
  812MOL0     C 9534   3.407  12.179  11.160  0.4689  0.8567 -0.1573
  812MOL0     C 9535   3.303  12.232  11.079 -0.5825  0.8103 -0.0843
  812MOL0     N 9536   2.794  11.929  10.346 -0.0318  0.0105  0.3927
  812MOL0     N 9537   2.687  11.948  10.281 -0.1075  0.1306  0.1356
  812MOL0     C 9538   1.443  11.663  10.293  0.1708  0.5541 -0.5295
  812MOL0     C 9539   1.319  11.611  10.234 -0.3026 -0.9618  0.3741
  812MOL0     C 9540   0.978  11.389  10.047 -0.4487 -0.7424  0.6551
  812MOL0     C 9541   1.011  11.331   9.924 -0.6699 -0.1492 -0.0967
  812MOL0     C 9542   0.916  11.269   9.841 -0.6221 -1.5581 -0.4040
  812MOL0     C 9543   0.789  11.262   9.888 -0.7111  0.2837 -1.3217
  812MOL0     O 9544   0.691  11.194   9.815  0.2201  0.6549 -0.2462
  812MOL0     C 9545   0.549  11.218   9.838  0.2171  1.3885 -0.2503
  812MOL0     C 9546   0.497  11.108   9.937 -1.6257 -0.0261 -0.1577
  812MOL0     C 9547   0.493  10.970   9.867 -0.1074  0.0539 -0.0229
  812MOL0     C 9548   0.368  10.964   9.783  0.9703 -0.4312  0.7123
  812MOL0     C 9549   0.359  10.825   9.745  0.6479 -0.5191 -0.1934
  812MOL0     C 9550   0.358  10.706   9.711  0.8251  0.3565 -0.5306
  812MOL0     C 9551   0.751  11.310  10.014  0.2690  0.5975  0.2251
  812MOL0     C 9552   0.845  11.381  10.090 -0.1368  0.0814 -0.0852
  812MOL0     H 9553   1.437  11.390  10.025 -1.1379 -1.4552  0.9598
  812MOL0     H 9554   1.647  11.473  10.104 -0.4326  1.5873 -1.5469
  812MOL0     H 9555   1.705  11.879  10.184  0.0913  0.3663 -0.3490
  812MOL0     H 9556   1.592  11.861  10.330 -0.4341 -0.0479 -0.1341
  812MOL0     H 9557   1.757  11.986  10.395 -1.2572 -0.7338 -1.0889
  812MOL0     H 9558   1.774  11.825  10.463 -0.4133  0.0151  0.4039
  812MOL0     H 9559   1.956  11.776  10.293  0.0000 -0.6925  0.0243
  812MOL0     H 9560   1.909  11.914  10.212 -2.7965 -1.3371 -0.3278
  812MOL0     H 9561   1.966  12.074  10.375 -0.1070 -1.0263 -1.5100
  812MOL0     H 9562   2.006  11.941  10.500 -1.1115  0.7380  1.3443
  812MOL0     H 9563   2.199  11.872  10.356  0.4001  0.4349 -0.4428
  812MOL0     H 9564   2.150  11.986  10.236 -0.6881  1.6373 -0.2570
  812MOL0     H 9565   2.199  12.162  10.446  1.3652  0.6806  0.0562
  812MOL0     H 9566   2.260  12.006  10.515  2.2261 -2.5626 -1.6839
  812MOL0     H 9567   2.361  12.139  10.254 -0.2726 -3.3129 -2.4123
  812MOL0     H 9568   2.428  12.142  10.418 -0.1843 -1.6106  1.2388
  812MOL0     H 9569   2.440  11.926  10.222  0.8732  2.5745 -0.4853
  812MOL0     H 9570   2.417  11.871  10.390 -1.3386  1.0573  0.9425
  812MOL0     H 9571   2.607  12.006  10.597  1.3562 -1.6872  0.8302
  812MOL0     H 9572   2.954  11.891  10.570  0.3357  0.5214 -1.6969
  812MOL0     H 9573   2.952  12.064  10.533  0.9607  0.8403  0.2723
  812MOL0     H 9574   2.825  11.916  10.774 -1.1538 -3.3477 -4.8519
  812MOL0     H 9575   2.808  12.090  10.735  2.4437  0.9717 -0.1475
  812MOL0     H 9576   3.065  12.113  10.715  0.6736 -0.2518  0.6989
  812MOL0     H 9577   3.061  11.956  10.786 -0.9357  0.0469  0.2362
  812MOL0     H 9578   2.965  12.027  10.986  2.7459 -2.6628 -1.3781
  812MOL0     H 9579   2.900  12.170  10.916 -0.2353 -1.0169 -0.9825
  812MOL0     H 9580   3.153  11.936  11.022  0.4847  0.1550 -0.2770
  812MOL0     H 9581   3.365  11.777  11.229 -1.1569  0.7522  0.8562
  812MOL0     H 9582   3.281  11.752  11.075 -0.6111  0.4784  1.3724
  812MOL0     H 9583   3.460  11.786  11.081  0.6246  1.9966  0.5506
  812MOL0     H 9584   3.685  12.021  11.562  0.7868 -4.3285 -0.0454
  812MOL0     H 9585   3.904  12.003  11.646  0.7017  0.5118  0.8939
  812MOL0     H 9586   4.116  12.127  11.702  0.9904 -0.3343  0.1837
  812MOL0     H 9587   4.128  11.962  11.643 -0.6727  0.3829 -2.5042
  812MOL0     H 9588   4.384  12.026  11.593  2.5265  3.0326 -0.6660
  812MOL0     H 9589   4.329  12.183  11.661 -0.5509 -1.5584 -3.8443
  812MOL0     H 9590   4.352  11.915  11.812  2.4550 -0.5079  0.7883
  812MOL0     H 9591   4.297  12.064  11.886  0.4785 -2.6193  0.7393
  812MOL0     H 9592   4.580  11.999  11.791  1.1814  4.0641 -1.2534
  812MOL0     H 9593   4.540  12.161  11.820 -2.0735  0.8459 -2.4666
  812MOL0     H 9594   4.485  11.952  12.042 -3.9942  2.1640  2.6043
  812MOL0     H 9595   4.460  12.113  12.063  0.5409 -1.6263  3.1484
  812MOL0     H 9596   4.716  11.991  11.977  0.3855  2.3076 -2.1066
  812MOL0     H 9597   4.701  12.159  12.024  2.6611 -1.6438 -3.7253
  812MOL0     H 9598   4.810  11.982  12.194  0.8921  2.7423  1.5583
  812MOL0     H 9599   4.649  11.933  12.224  0.0902  1.1897 -0.4120
  812MOL0     H 9600   4.587  12.174  12.276 -0.3255  0.0906 -1.4470
  812MOL0     H 9601   4.748  12.224  12.227  1.3850 -1.2899  0.0999
  812MOL0     H 9602   4.059  12.152  11.262  0.5325  0.9285  1.2941
  812MOL0     H 9603   3.822  12.140  11.174  1.4506 -2.1448 -0.1054
  812MOL0     H 9604   3.473  12.263  11.181 -0.5929  2.4667 -2.6610
  812MOL0     H 9605   3.295  12.339  11.061 -0.9000  0.5653 -1.5936
  812MOL0     H 9606   1.417  11.721  10.381  2.0340  0.4114  0.1551
  812MOL0     H 9607   1.222  11.649  10.264 -0.5807  1.6316 -3.1709
  812MOL0     H 9608   1.110  11.337   9.880  1.5751 -1.3366  4.1970
  812MOL0     H 9609   0.936  11.218   9.747 -0.9514 -1.7460 -0.3750
  812MOL0     H 9610   0.543  11.319   9.878 -1.2275  0.6669  1.5120
  812MOL0     H 9611   0.498  11.201   9.743  3.0939 -3.5566 -1.2640
  812MOL0     H 9612   0.403  11.145   9.979 -0.7506  3.0396 -0.6209
  812MOL0     H 9613   0.576  11.101  10.012 -1.8536  1.3747  0.2454
  812MOL0     H 9614   0.484  10.903   9.953  0.6082  1.8433  1.5105
  812MOL0     H 9615   0.588  10.948   9.818  0.4887  1.6834  0.3070
  812MOL0     H 9616   0.378  11.023   9.692  1.5197  2.2122  2.3659
  812MOL0     H 9617   0.272  10.996   9.826 -0.7347 -0.5525 -2.6484
  812MOL0     H 9618   0.359  10.605   9.676  0.3180  0.0981  0.1775
  812MOL0     H 9619   0.655  11.290  10.059 -0.6593  2.2779 -0.8920
  812MOL0     H 9620   0.819  11.426  10.185  2.9228  0.4048  0.7147
  813MOL0     O 9621   8.244   2.208   0.741  0.1058  0.6201 -0.4761
  813MOL0     C 9622   8.295   2.239   0.846 -0.1228 -0.7784  0.8203
  813MOL0     O 9623   8.255   2.189   0.968 -0.1010  0.1381  0.0740
  813MOL0     C 9624   8.155   2.085   0.981 -0.1758 -0.3452  0.0604
  813MOL0     C 9625   8.143   1.976   0.900 -0.2768 -0.5038  0.1966
  813MOL0     C 9626   8.067   1.868   0.926 -0.4764  0.1201  0.1491
  813MOL0     C 9627   7.980   1.872   1.042 -0.9359  0.6910  0.7811
  813MOL0     O 9628   7.893   1.768   1.091  0.0993  0.2884 -0.5299
  813MOL0     C 9629   7.936   1.638   1.048 -1.5287  0.4338 -0.9318
  813MOL0     C 9630   7.858   1.612   0.918  0.8883 -0.1110 -1.1742
  813MOL0     C 9631   7.906   1.492   0.834 -0.4793 -0.3873  0.2948
  813MOL0     C 9632   7.829   1.468   0.699 -0.4028 -0.7002  0.3451
  813MOL0     C 9633   7.850   1.325   0.659  0.3768  0.5696 -0.1815
  813MOL0     C 9634   7.765   1.280   0.534  0.1122 -0.2753  0.8674
  813MOL0     C 9635   7.614   1.316   0.523 -0.5800 -0.6363 -0.8874
  813MOL0     C 9636   7.543   1.269   0.394 -0.0871  0.3676 -0.0537
  813MOL0     N 9637   7.517   1.129   0.389  0.2371  0.0182  0.8628
  813MOL0     C 9638   7.431   1.065   0.456  0.2322  0.0629 -1.0107
  813MOL0     C 9639   7.474   0.933   0.451  1.0712  0.6825  0.4116
  813MOL0     C 9640   7.403   0.802   0.481  0.3928 -1.0360 -0.3456
  813MOL0     C 9641   7.254   0.819   0.430 -0.2048 -0.5569  0.1779
  813MOL0     C 9642   7.205   0.694   0.363 -0.2567 -0.6040  0.0168
  813MOL0     C 9643   7.088   0.727   0.259 -0.9406  0.1062 -0.9532
  813MOL0     O 9644   6.978   0.782   0.318 -0.0180 -0.5934  0.0262
  813MOL0     C 9645   6.862   0.796   0.241 -0.2517 -0.4232  0.0251
  813MOL0     C 9646   6.751   0.795   0.318  0.6062  0.1879  0.4273
  813MOL0     C 9647   6.619   0.812   0.260  0.0366 -0.8518  0.1465
  813MOL0     C 9648   6.507   0.804   0.357  0.2955 -0.9913 -0.0738
  813MOL0     C 9649   6.612   0.827   0.120 -0.3761 -0.5872 -0.5996
  813MOL0     C 9650   6.486   0.867   0.042  0.2554 -0.1397  0.6484
  813MOL0     O 9651   6.466   0.836  -0.089 -0.6505  0.0149  0.9883
  813MOL0     C 9652   6.341   0.856  -0.149  0.8472  0.1045 -0.7589
  813MOL0     C 9653   6.353   0.892  -0.284 -0.1697 -0.1233  0.6540
  813MOL0     C 9654   6.249   0.889  -0.370 -0.0695  1.1165  0.7795
  813MOL0     C 9655   6.117   0.862  -0.323  1.0117  0.2977  0.2112
  813MOL0     O 9656   6.006   0.856  -0.404  0.3561 -0.2006  0.5133
  813MOL0     C 9657   6.039   0.857  -0.539  0.2508  0.6324  0.5656
  813MOL0     C 9658   5.908   0.830  -0.617 -0.2693 -0.7137  0.3758
  813MOL0     C 9659   5.791   0.931  -0.608 -0.3640 -1.0621 -1.1551
  813MOL0     C 9660   5.655   0.847  -0.618  0.0566 -0.0895 -0.3049
  813MOL0     C 9661   5.536   0.945  -0.655 -0.6318  0.2650  0.7862
  813MOL0     C 9662   5.404   0.870  -0.649 -0.6612 -0.0351  0.1462
  813MOL0     C 9663   5.370   0.820  -0.782 -0.1682  0.6512 -0.2991
  813MOL0     C 9664   5.233   0.766  -0.788 -0.2327 -0.1878  0.2964
  813MOL0    Cl 9665   5.228   0.621  -0.686 -0.0392  0.0489  0.1702
  813MOL0     C 9666   6.100   0.834  -0.187  0.6702  0.6345  0.4319
  813MOL0     C 9667   6.210   0.823  -0.104  0.0498 -0.1603  0.8131
  813MOL0     O 9668   6.402   0.919   0.109  0.6001  0.1882  0.7868
  813MOL0     C 9669   6.724   0.807   0.041 -0.5353 -0.7895  0.4642
  813MOL0     C 9670   6.848   0.796   0.094 -0.1877  0.1197  0.4861
  813MOL0     N 9671   7.589   0.932   0.385  0.2826 -1.0306 -0.1144
  813MOL0     N 9672   7.613   1.051   0.345 -0.0923 -0.3591  0.6030
  813MOL0     C 9673   7.985   1.992   1.118  0.8184 -0.2383  0.3687
  813MOL0     C 9674   8.070   2.094   1.081  0.0543  0.6356 -1.3142
  813MOL0     C 9675   8.417   2.319   0.838 -0.6611  0.2475  0.4395
  813MOL0     C 9676   8.448   2.407   0.729  0.6598 -0.2404 -0.2749
  813MOL0     C 9677   8.536   2.507   0.742 -0.4757  0.9794 -0.1325
  813MOL0     C 9678   8.613   2.515   0.861  0.0134  0.6338  0.7617
  813MOL0     O 9679   8.715   2.607   0.867 -0.0883  0.7553 -0.0862
  813MOL0     C 9680   8.665   2.741   0.875 -0.0760 -1.1600 -0.5846
  813MOL0     C 9681   8.765   2.827   0.956  0.5217  0.3159  0.1203
  813MOL0     C 9682   8.707   2.971   0.977  0.1487 -0.5646 -0.4250
  813MOL0     C 9683   8.598   2.989   1.085  0.0202 -0.6313  0.4823
  813MOL0     C 9684   8.556   3.129   1.106  0.1423 -1.3968  0.1189
  813MOL0     C 9685   8.493   3.228   1.125 -0.3578  0.2092 -0.0192
  813MOL0     C 9686   8.601   2.421   0.962  0.9617  0.0020 -0.2681
  813MOL0     C 9687   8.496   2.332   0.954 -0.0321  0.0399  0.2879
  813MOL0     H 9688   8.203   1.959   0.811  1.3168 -3.7162  1.6985
  813MOL0     H 9689   8.068   1.787   0.853  0.7818 -0.3467  0.6609
  813MOL0     H 9690   8.044   1.634   1.034 -1.5261 -0.6270 -0.7220
  813MOL0     H 9691   7.909   1.561   1.121  0.5224 -1.7338 -2.3227
  813MOL0     H 9692   7.753   1.603   0.950  0.8698  2.0215 -0.4854
  813MOL0     H 9693   7.858   1.710   0.867 -1.9324 -0.7553 -2.6537
  813MOL0     H 9694   8.011   1.512   0.811 -0.6041  2.2342  1.6185
  813MOL0     H 9695   7.899   1.404   0.898 -0.8436 -2.9156 -2.9446
  813MOL0     H 9696   7.725   1.496   0.715 -0.3717 -1.4879  2.2274
  813MOL0     H 9697   7.878   1.526   0.620 -0.6426 -1.4858 -0.3900
  813MOL0     H 9698   7.956   1.301   0.647  0.9174  2.9630 -0.6062
  813MOL0     H 9699   7.826   1.267   0.749 -0.2592 -0.1557 -0.8034
  813MOL0     H 9700   7.819   1.328   0.452 -0.3156 -1.3795 -0.0929
  813MOL0     H 9701   7.771   1.171   0.520 -2.0351 -0.3205 -0.0346
  813MOL0     H 9702   7.559   1.274   0.608 -1.0439 -2.7362 -2.1433
  813MOL0     H 9703   7.614   1.425   0.531  1.3138 -0.6721  0.7899
  813MOL0     H 9704   7.607   1.301   0.310  0.2698  1.9768  0.7828
  813MOL0     H 9705   7.445   1.315   0.380 -2.3203 -4.1622 -1.2133
  813MOL0     H 9706   7.339   1.104   0.499 -0.0909 -2.4514  0.7954
  813MOL0     H 9707   7.454   0.713   0.443  0.7579 -1.8871  1.9745
  813MOL0     H 9708   7.405   0.786   0.589  0.6304 -1.9600 -0.4769
  813MOL0     H 9709   7.246   0.897   0.353 -2.8344 -0.7197  0.2093
  813MOL0     H 9710   7.192   0.850   0.515 -0.8051  0.7506 -0.6961
  813MOL0     H 9711   7.187   0.613   0.434  4.8394 -2.4350 -0.3971
  813MOL0     H 9712   7.287   0.656   0.302  0.0579 -0.9561  0.6475
  813MOL0     H 9713   7.059   0.639   0.201  0.7038  0.4382 -2.3693
  813MOL0     H 9714   7.133   0.800   0.191  2.7494 -2.6298 -1.7734
  813MOL0     H 9715   6.769   0.786   0.425  0.9097 -1.8050  0.2330
  813MOL0     H 9716   6.490   0.907   0.388 -3.1318 -0.7577 -2.2120
  813MOL0     H 9717   6.412   0.772   0.313  0.2274 -1.1898  0.2132
  813MOL0     H 9718   6.526   0.750   0.451 -0.7015  1.1537  1.4524
  813MOL0     H 9719   6.453   0.922  -0.313 -0.0310  1.0314  2.1950
  813MOL0     H 9720   6.281   0.899  -0.473  0.7684 -0.6593  0.8313
  813MOL0     H 9721   6.078   0.957  -0.564  0.5925  0.4328  0.2864
  813MOL0     H 9722   6.100   0.775  -0.577 -0.0495 -0.1834  1.7993
  813MOL0     H 9723   5.932   0.815  -0.723  0.2760  1.2943  0.1741
  813MOL0     H 9724   5.874   0.732  -0.582 -2.5801 -0.7954 -1.7719
  813MOL0     H 9725   5.779   1.002  -0.689  1.3677  1.0598  0.3292
  813MOL0     H 9726   5.793   0.984  -0.512  0.6080  1.3987 -2.4763
  813MOL0     H 9727   5.667   0.762  -0.686 -0.4063  0.7365 -1.4435
  813MOL0     H 9728   5.632   0.805  -0.519  0.1503 -2.9881 -1.4311
  813MOL0     H 9729   5.559   0.986  -0.754  1.0586  1.8630  1.7826
  813MOL0     H 9730   5.539   1.029  -0.585  0.9336 -0.3947  1.5630
  813MOL0     H 9731   5.387   0.792  -0.574 -2.9017 -0.5085 -0.7657
  813MOL0     H 9732   5.338   0.955  -0.631 -1.0857 -0.5584  1.1527
  813MOL0     H 9733   5.439   0.738  -0.805 -0.4733  1.0665 -3.1360
  813MOL0     H 9734   5.370   0.893  -0.863  0.4350  1.4776  0.4292
  813MOL0     H 9735   5.218   0.726  -0.888 -1.4019 -0.4756  0.5759
  813MOL0     H 9736   5.153   0.835  -0.758 -3.1493 -1.9979 -2.6699
  813MOL0     H 9737   5.999   0.808  -0.156 -0.6373  1.5833 -2.6564
  813MOL0     H 9738   6.209   0.771  -0.009 -2.5103 -1.9528 -0.0817
  813MOL0     H 9739   6.710   0.810  -0.067  3.2903 -2.9533 -0.2836
  813MOL0     H 9740   6.927   0.781   0.021 -0.8646 -2.9327  0.2445
  813MOL0     H 9741   7.927   2.000   1.209  1.0455 -0.8723  0.5798
  813MOL0     H 9742   8.069   2.188   1.136 -2.4070  1.0461 -1.9546
  813MOL0     H 9743   8.379   2.404   0.646  1.6562 -0.9661 -1.1083
  813MOL0     H 9744   8.556   2.582   0.666 -0.3516  0.0775 -0.9997
  813MOL0     H 9745   8.670   2.784   0.774  2.3972  3.6594  1.2634
  813MOL0     H 9746   8.564   2.742   0.917  0.5260 -1.4376  0.9226
  813MOL0     H 9747   8.861   2.828   0.904 -0.9212  1.8751 -2.7946
  813MOL0     H 9748   8.774   2.778   1.053  2.1652  2.7907  1.2894
  813MOL0     H 9749   8.662   3.017   0.888 -0.1118  0.0435  0.0164
  813MOL0     H 9750   8.796   3.030   1.000 -0.5356 -0.5665  2.6777
  813MOL0     H 9751   8.638   2.943   1.176  1.5153  0.9894  0.6883
  813MOL0     H 9752   8.515   2.925   1.054  1.4028 -3.2019  1.7938
  813MOL0     H 9753   8.434   3.315   1.143 -2.4006 -0.7911 -1.4156
  813MOL0     H 9754   8.658   2.405   1.053 -0.3902 -2.1538  0.2955
  813MOL0     H 9755   8.485   2.261   1.035  1.5547  1.0715  1.4642
  814MOL0     O 9756   4.724   7.106   1.876  0.2685 -0.5443  0.2505
  814MOL0     C 9757   4.804   7.058   1.801 -0.0254  0.2876  0.5777
  814MOL0     O 9758   4.783   6.937   1.727  0.0052 -0.6553 -0.4773
  814MOL0     C 9759   4.657   6.884   1.731 -0.0545  0.0989  0.0168
  814MOL0     C 9760   4.639   6.760   1.782  0.1870 -0.4567 -1.4111
  814MOL0     C 9761   4.512   6.702   1.776 -0.2799  1.1014  0.0601
  814MOL0     C 9762   4.397   6.772   1.728  0.3080 -0.9601 -0.0100
  814MOL0     O 9763   4.266   6.721   1.740 -0.5890  0.0839  0.2784
  814MOL0     C 9764   4.152   6.777   1.679 -0.3016 -0.3642 -0.9398
  814MOL0     C 9765   4.033   6.714   1.744  0.0748 -0.9179 -0.1182
  814MOL0     C 9766   4.027   6.561   1.717  0.6248 -0.0333 -1.0358
  814MOL0     C 9767   3.877   6.516   1.732  0.0125 -0.5009 -0.5264
  814MOL0     C 9768   3.868   6.369   1.755  0.4256 -0.5269 -0.2641
  814MOL0     C 9769   3.716   6.338   1.790 -1.1638 -0.7120  0.8176
  814MOL0     C 9770   3.707   6.196   1.827  0.4935  0.3349 -0.0509
  814MOL0     C 9771   3.570   6.156   1.857  0.5953 -0.2051 -0.6019
  814MOL0     N 9772   3.496   6.135   1.735  0.3530 -0.2614 -0.1328
  814MOL0     C 9773   3.525   6.043   1.634 -0.7971  0.1852  0.3747
  814MOL0     C 9774   3.443   6.075   1.528 -0.0073  0.4362  0.1426
  814MOL0     C 9775   3.442   6.006   1.387  0.1042 -0.6306  0.5491
  814MOL0     C 9776   3.388   5.863   1.382  0.3799  0.7554 -0.0122
  814MOL0     C 9777   3.392   5.795   1.244  0.1867 -0.6955 -0.5262
  814MOL0     C 9778   3.537   5.776   1.195  0.5526  0.0652  0.1176
  814MOL0     O 9779   3.628   5.688   1.266  0.3164  0.5579  0.2348
  814MOL0     C 9780   3.754   5.676   1.222  0.6354  0.8671 -0.1567
  814MOL0     C 9781   3.793   5.720   1.097 -1.9272  0.6119  1.0141
  814MOL0     C 9782   3.918   5.692   1.042 -0.5835 -1.1473  0.3852
  814MOL0     C 9783   3.943   5.724   0.905 -0.0254  0.0134  0.3902
  814MOL0     C 9784   4.009   5.623   1.124 -0.1923  0.6935  0.3105
  814MOL0     C 9785   4.135   5.549   1.076  0.1639 -0.2419  0.2228
  814MOL0     O 9786   4.189   5.470   1.163 -0.3726  0.0802 -0.1640
  814MOL0     C 9787   4.324   5.428   1.166 -0.9774  0.4313 -0.4790
  814MOL0     C 9788   4.369   5.326   1.253 -0.5382 -0.7171  0.3351
  814MOL0     C 9789   4.505   5.282   1.259 -1.1048 -1.0395  0.0149
  814MOL0     C 9790   4.594   5.342   1.165  0.4375 -0.4227  0.5038
  814MOL0     O 9791   4.727   5.321   1.161 -0.2362  0.5574  0.5106
  814MOL0     C 9792   4.802   5.260   1.265  0.1384  0.3691  0.9179
  814MOL0     C 9793   4.943   5.316   1.270  0.0075 -0.3045 -0.7636
  814MOL0     C 9794   4.944   5.473   1.276 -0.3279  0.7725 -0.1298
  814MOL0     C 9795   5.078   5.530   1.291 -0.0268  0.0414  0.7312
  814MOL0     C 9796   5.068   5.683   1.334  0.1164  0.5069 -0.1270
  814MOL0     C 9797   5.196   5.759   1.301  0.1337 -1.0268 -0.3187
  814MOL0     C 9798   5.184   5.905   1.367 -1.0899 -1.1593 -0.4594
  814MOL0     C 9799   5.322   5.969   1.377 -0.3719 -0.5248 -0.2374
  814MOL0    Cl 9800   5.297   6.117   1.474 -0.6621 -0.2130 -0.4983
  814MOL0     C 9801   4.551   5.435   1.072  1.3375 -0.3429 -0.3019
  814MOL0     C 9802   4.426   5.484   1.083  1.0560 -0.2921 -0.7425
  814MOL0     O 9803   4.184   5.577   0.968 -0.0333  0.2984 -1.0792
  814MOL0     C 9804   3.970   5.603   1.255  0.2817 -0.3269  0.4829
  814MOL0     C 9805   3.848   5.629   1.305 -0.4676  0.4858 -0.1471
  814MOL0     N 9806   3.368   6.178   1.560 -0.1397  0.1692 -1.1830
  814MOL0     N 9807   3.403   6.222   1.679 -0.1538  0.4775 -0.6366
  814MOL0     C 9808   4.422   6.906   1.686  0.9501 -0.3574  0.1720
  814MOL0     C 9809   4.547   6.957   1.677  0.5396  0.0216 -0.8435
  814MOL0     C 9810   4.934   7.129   1.770  0.0071 -0.0967 -0.0304
  814MOL0     C 9811   4.955   7.265   1.800  0.0340  0.4667 -0.1155
  814MOL0     C 9812   5.048   7.347   1.745 -0.2341  0.3097  0.0304
  814MOL0     C 9813   5.148   7.290   1.662  0.3782  0.8413  0.1772
  814MOL0     O 9814   5.254   7.367   1.627 -0.3382 -0.5380  0.7416
  814MOL0     C 9815   5.316   7.341   1.501  0.0909 -0.5648 -0.2143
  814MOL0     C 9816   5.375   7.478   1.460 -0.4964  0.0668 -0.1978
  814MOL0     C 9817   5.476   7.549   1.560  0.1162 -0.0572  0.0186
  814MOL0     C 9818   5.502   7.691   1.535  0.3786 -0.7527  0.4877
  814MOL0     C 9819   5.556   7.717   1.398 -0.0255 -0.4965  0.2153
  814MOL0     C 9820   5.605   7.745   1.288 -0.4292 -0.6545  0.3787
  814MOL0     C 9821   5.134   7.158   1.621 -0.1768 -0.2544 -0.0785
  814MOL0     C 9822   5.033   7.080   1.677  0.5508 -0.0479  1.0787
  814MOL0     H 9823   4.728   6.717   1.826 -0.9002 -0.0397  1.3532
  814MOL0     H 9824   4.503   6.610   1.833 -0.8154  0.7520 -0.5750
  814MOL0     H 9825   4.151   6.884   1.701  1.0421 -0.8060  1.7839
  814MOL0     H 9826   4.162   6.757   1.572  2.8416 -3.0428 -0.3112
  814MOL0     H 9827   4.025   6.738   1.850 -1.2450  0.7628 -0.5432
  814MOL0     H 9828   3.949   6.758   1.690  1.7200 -1.7043 -3.6295
  814MOL0     H 9829   4.068   6.522   1.624  1.3814  2.6463 -1.9216
  814MOL0     H 9830   4.091   6.514   1.793  2.2801  2.6242 -0.6640
  814MOL0     H 9831   3.826   6.578   1.806  0.6765  0.6867 -1.0297
  814MOL0     H 9832   3.838   6.537   1.632  1.4148  0.6780 -0.8666
  814MOL0     H 9833   3.896   6.323   1.660 -0.6797  2.3903 -2.1477
  814MOL0     H 9834   3.936   6.334   1.833  3.8076 -1.6188 -3.4016
  814MOL0     H 9835   3.695   6.402   1.876 -1.1413  1.4747 -0.7123
  814MOL0     H 9836   3.657   6.359   1.701 -0.6304 -0.9870  0.3888
  814MOL0     H 9837   3.754   6.129   1.755  3.8060 -0.2103  2.4050
  814MOL0     H 9838   3.767   6.188   1.918  1.1060  1.5232 -0.3282
  814MOL0     H 9839   3.529   6.233   1.923 -0.1977 -1.3814  0.3287
  814MOL0     H 9840   3.568   6.062   1.913  2.4615 -0.6128 -1.1631
  814MOL0     H 9841   3.601   5.965   1.628 -1.7136 -0.8052  1.1988
  814MOL0     H 9842   3.377   6.063   1.321  2.0388 -1.1200 -1.9252
  814MOL0     H 9843   3.546   6.000   1.353 -0.1131 -2.6913  0.1110
  814MOL0     H 9844   3.281   5.865   1.400  0.4408  1.2480  0.3296
  814MOL0     H 9845   3.436   5.796   1.455 -2.0277 -0.4773  0.5190
  814MOL0     H 9846   3.347   5.866   1.174 -0.5217 -0.3047  0.3129
  814MOL0     H 9847   3.338   5.701   1.241  0.0924 -0.7581  1.7815
  814MOL0     H 9848   3.579   5.877   1.182  0.3102  0.1565  0.0455
  814MOL0     H 9849   3.526   5.741   1.092  4.0174 -0.6702 -0.1290
  814MOL0     H 9850   3.712   5.757   1.034 -2.4311  1.2524  2.0058
  814MOL0     H 9851   4.050   5.719   0.881 -0.4900 -2.1354 -1.5827
  814MOL0     H 9852   3.888   5.645   0.853 -2.2088 -0.6943  3.4756
  814MOL0     H 9853   3.896   5.819   0.882 -0.2060  0.5111  2.5725
  814MOL0     H 9854   4.301   5.296   1.332 -0.3623  1.7516  1.5366
  814MOL0     H 9855   4.539   5.213   1.335 -0.4191  0.3009  0.9697
  814MOL0     H 9856   4.772   5.275   1.369  0.9470 -2.7985  1.7437
  814MOL0     H 9857   4.823   5.153   1.254  0.9554  0.5762  0.3563
  814MOL0     H 9858   4.986   5.278   1.363 -4.5593 -1.3590  1.1902
  814MOL0     H 9859   4.999   5.286   1.181 -0.2922  0.1364 -1.1057
  814MOL0     H 9860   4.908   5.504   1.375  0.5333  1.0517  0.1088
  814MOL0     H 9861   4.877   5.519   1.203 -1.2893 -0.4014 -0.0125
  814MOL0     H 9862   5.145   5.471   1.355  2.0999 -2.0681 -3.1287
  814MOL0     H 9863   5.138   5.530   1.200  0.8776 -5.9785  0.9384
  814MOL0     H 9864   5.066   5.680   1.443  0.8031  0.7466 -0.1043
  814MOL0     H 9865   4.975   5.724   1.293  1.0996  0.7971 -2.2207
  814MOL0     H 9866   5.274   5.699   1.348  0.8566 -0.2225 -0.4711
  814MOL0     H 9867   5.219   5.756   1.194  1.2500  0.5968 -0.1739
  814MOL0     H 9868   5.129   5.915   1.461  0.4676  1.8573  0.2751
  814MOL0     H 9869   5.121   5.965   1.302 -0.4929  0.4301  0.3804
  814MOL0     H 9870   5.363   5.995   1.279  1.2536 -3.1398 -0.3580
  814MOL0     H 9871   5.392   5.901   1.428 -0.4837 -0.8655 -0.5383
  814MOL0     H 9872   4.627   5.489   1.016 -0.8946  1.2792 -1.9253
  814MOL0     H 9873   4.403   5.580   1.037 -4.0476 -0.9392 -0.1420
  814MOL0     H 9874   4.038   5.560   1.328  3.2888  3.0090 -0.0832
  814MOL0     H 9875   3.817   5.613   1.408 -2.1641  1.5876 -0.4617
  814MOL0     H 9876   4.332   6.963   1.662 -1.0118 -1.7512  3.5650
  814MOL0     H 9877   4.561   7.052   1.627  0.2939  0.6786  0.2828
  814MOL0     H 9878   4.876   7.326   1.841  0.5489  1.4758 -0.5989
  814MOL0     H 9879   5.047   7.450   1.781  1.4810 -0.1189  1.4153
  814MOL0     H 9880   5.396   7.268   1.515  1.1970  0.5726 -0.5148
  814MOL0     H 9881   5.248   7.310   1.421  1.1303  1.2807 -1.8827
  814MOL0     H 9882   5.297   7.553   1.440  0.9409  1.3372 -1.3042
  814MOL0     H 9883   5.419   7.460   1.361  3.0160  1.4336  0.9823
  814MOL0     H 9884   5.574   7.500   1.553  0.9347  0.9893  2.7646
  814MOL0     H 9885   5.426   7.539   1.657 -2.9217  1.1031 -1.3181
  814MOL0     H 9886   5.567   7.745   1.604 -1.4901  0.9874  0.9706
  814MOL0     H 9887   5.404   7.738   1.547  1.0228  0.9937 -0.6421
  814MOL0     H 9888   5.627   7.765   1.185  0.4510 -0.8942  0.5121
  814MOL0     H 9889   5.205   7.113   1.552 -0.6443  0.7095 -1.2257
  814MOL0     H 9890   5.025   6.975   1.654 -2.9334  0.3249 -0.0829
  815MOL0     O 9891   1.451   5.220   5.976  0.1518  0.2232 -0.4938
  815MOL0     C 9892   1.365   5.269   6.045  0.3472 -1.1423  0.1297
  815MOL0     O 9893   1.263   5.351   5.998  0.3021  0.1515  0.0471
  815MOL0     C 9894   1.252   5.369   5.857 -0.6496  0.0423 -0.6153
  815MOL0     C 9895   1.267   5.266   5.769 -0.1156  0.0867 -0.6447
  815MOL0     C 9896   1.276   5.287   5.636  0.1512  0.5725  1.7604
  815MOL0     C 9897   1.248   5.416   5.590  0.1482  0.5709  0.5928
  815MOL0     O 9898   1.251   5.422   5.456 -0.2355  0.8370  0.6991
  815MOL0     C 9899   1.220   5.546   5.388 -0.0165 -1.1809  0.4233
  815MOL0     C 9900   1.343   5.623   5.342  0.3096 -0.8754 -0.3523
  815MOL0     C 9901   1.303   5.751   5.262  0.4149 -0.6536 -0.2399
  815MOL0     C 9902   1.240   5.736   5.127 -0.3894 -0.5746 -0.1594
  815MOL0     C 9903   1.177   5.867   5.063 -0.2091 -0.5991 -1.1926
  815MOL0     C 9904   1.100   5.822   4.940 -0.7576 -0.6994  0.0132
  815MOL0     C 9905   1.021   5.939   4.875 -0.4464 -0.5776 -0.3855
  815MOL0     C 9906   0.950   5.899   4.750  0.7163 -0.3542  0.2032
  815MOL0     N 9907   1.034   5.897   4.635 -0.0210  0.2463  0.6307
  815MOL0     C 9908   1.054   5.790   4.551 -0.2700  0.0256 -0.9532
  815MOL0     C 9909   1.136   5.835   4.451 -0.1503  0.1860 -0.7583
  815MOL0     C 9910   1.175   5.769   4.330 -0.4434 -0.2891  0.2261
  815MOL0     C 9911   1.177   5.607   4.341 -0.5521  0.0002 -0.1060
  815MOL0     C 9912   1.243   5.564   4.209  1.0765  0.3928  0.3894
  815MOL0     C 9913   1.275   5.411   4.201  0.8638 -0.2745 -0.5469
  815MOL0     O 9914   1.149   5.337   4.213  0.5813 -0.3226  0.3212
  815MOL0     C 9915   1.157   5.202   4.226 -0.7575 -0.2010 -0.1296
  815MOL0     C 9916   1.032   5.156   4.269  0.4443 -0.5849  1.2629
  815MOL0     C 9917   1.011   5.022   4.305  0.3609 -0.3105 -0.6804
  815MOL0     C 9918   0.873   4.975   4.344  0.4122  0.0828  0.0493
  815MOL0     C 9919   1.119   4.928   4.279 -0.1130 -0.6094  0.8460
  815MOL0     C 9920   1.120   4.780   4.302  0.8371 -0.0377  0.6307
  815MOL0     O 9921   1.231   4.712   4.279  0.4238  0.3977 -0.2647
  815MOL0     C 9922   1.225   4.581   4.298  0.2921  0.1661 -0.7964
  815MOL0     C 9923   1.216   4.495   4.180  0.7255  0.5074 -0.2364
  815MOL0     C 9924   1.222   4.360   4.193  0.2056  0.8652 -1.2727
  815MOL0     C 9925   1.238   4.308   4.325  0.8585  0.4973  0.0310
  815MOL0     O 9926   1.240   4.175   4.344  0.3945 -0.3073 -0.4567
  815MOL0     C 9927   1.266   4.074   4.247 -0.0834 -0.0159  0.3675
  815MOL0     C 9928   1.142   4.032   4.164 -0.7696  0.9537 -1.3181
  815MOL0     C 9929   1.057   3.930   4.236 -0.4515  0.2368  0.6788
  815MOL0     C 9930   0.952   3.847   4.158 -0.2056 -0.9010 -0.4173
  815MOL0     C 9931   0.855   3.770   4.255  0.1544  0.8874  0.2349
  815MOL0     C 9932   0.751   3.691   4.180 -0.2526 -0.7226  0.5199
  815MOL0     C 9933   0.689   3.578   4.252  0.0783 -0.0528 -0.7895
  815MOL0     C 9934   0.622   3.610   4.385  1.1152  0.1171  0.0074
  815MOL0    Cl 9935   0.490   3.726   4.369  0.1597 -0.1740  0.5078
  815MOL0     C 9936   1.252   4.386   4.435 -1.0892  0.8778 -0.4940
  815MOL0     C 9937   1.255   4.528   4.423 -0.0769  0.1220  0.4515
  815MOL0     O 9938   1.011   4.726   4.328  0.0557 -0.9727 -0.3485
  815MOL0     C 9939   1.244   4.986   4.235 -0.2815 -0.1744 -0.3150
  815MOL0     C 9940   1.265   5.118   4.207 -0.4949  0.1265  0.1038
  815MOL0     N 9941   1.163   5.965   4.480  0.7633 -0.1721  0.2302
  815MOL0     N 9942   1.086   6.006   4.573 -0.3391  0.0972 -0.5418
  815MOL0     C 9943   1.251   5.531   5.676  0.3663 -0.2875  0.5404
  815MOL0     C 9944   1.252   5.501   5.815  0.8755 -0.1074 -0.7804
  815MOL0     C 9945   1.375   5.263   6.195 -0.0956 -0.2703  0.1957
  815MOL0     C 9946   1.450   5.152   6.250 -0.3624  0.5043 -0.4597
  815MOL0     C 9947   1.444   5.133   6.390  0.0768 -0.6307  0.2983
  815MOL0     C 9948   1.364   5.227   6.475  0.0516  0.0666  0.1322
  815MOL0     O 9949   1.327   5.199   6.605 -0.2344  0.4499 -0.3485
  815MOL0     C 9950   1.380   5.074   6.667  0.6188 -0.7765  0.2803
  815MOL0     C 9951   1.388   5.093   6.812 -0.1237 -0.3510  0.3446
  815MOL0     C 9952   1.500   5.180   6.863 -0.7019 -0.1660 -0.4539
  815MOL0     C 9953   1.637   5.139   6.820 -0.2910  0.3507  0.1979
  815MOL0     C 9954   1.676   5.017   6.894  0.0384 -0.7883 -0.3984
  815MOL0     C 9955   1.706   4.917   6.948 -0.6887  0.5143  0.4436
  815MOL0     C 9956   1.299   5.333   6.422 -0.9640 -0.6999  0.1337
  815MOL0     C 9957   1.293   5.345   6.278 -0.0026  0.0064 -0.2533
  815MOL0     H 9958   1.277   5.165   5.807 -0.5908  0.7832  1.4880
  815MOL0     H 9959   1.286   5.208   5.563  0.3407 -0.4920  2.8999
  815MOL0     H 9960   1.177   5.519   5.291 -0.0669 -3.9832  1.1474
  815MOL0     H 9961   1.161   5.605   5.458 -0.2575 -2.7484  1.5965
  815MOL0     H 9962   1.407   5.660   5.423  0.8685 -0.8595 -0.7952
  815MOL0     H 9963   1.412   5.564   5.281  1.6758  0.6677 -0.3901
  815MOL0     H 9964   1.240   5.816   5.324 -3.5978 -1.7886 -2.7599
  815MOL0     H 9965   1.399   5.799   5.240 -1.3174  3.3635 -0.0386
  815MOL0     H 9966   1.327   5.712   5.064  0.0374 -0.8475  0.5161
  815MOL0     H 9967   1.174   5.648   5.126  0.3154 -1.1140 -0.6951
  815MOL0     H 9968   1.112   5.911   5.138 -0.0579 -0.7643 -0.9620
  815MOL0     H 9969   1.262   5.932   5.039  1.6263 -1.8277  1.4345
  815MOL0     H 9970   1.176   5.787   4.869 -0.3138  2.8817 -1.4561
  815MOL0     H 9971   1.035   5.734   4.952 -0.3372 -1.0259 -0.0534
  815MOL0     H 9972   0.940   5.958   4.947 -0.9368  0.1758 -1.1132
  815MOL0     H 9973   1.080   6.029   4.858  1.7077 -1.4240  1.9546
  815MOL0     H 9974   0.863   5.959   4.719  0.7071 -1.4369 -2.0907
  815MOL0     H 9975   0.907   5.801   4.771 -0.8748 -0.2069 -2.0109
  815MOL0     H 9976   1.019   5.689   4.567 -0.0760 -0.2688 -2.2758
  815MOL0     H 9977   1.111   5.800   4.247  0.6021  0.1580 -0.4326
  815MOL0     H 9978   1.276   5.801   4.306 -0.3300  0.1092  1.2056
  815MOL0     H 9979   1.075   5.573   4.358 -1.1058  2.3001  1.6138
  815MOL0     H 9980   1.236   5.557   4.419 -1.3240 -1.3335 -0.3509
  815MOL0     H 9981   1.333   5.623   4.190 -0.2364  2.1620 -0.5472
  815MOL0     H 9982   1.166   5.583   4.133 -1.1513  0.8264  2.6231
  815MOL0     H 9983   1.337   5.391   4.288  0.9423  0.1385 -0.5097
  815MOL0     H 9984   1.326   5.387   4.107 -1.6444  2.4427 -2.8006
  815MOL0     H 9985   0.950   5.227   4.272  0.4871 -0.5110  0.8080
  815MOL0     H 9986   0.833   4.903   4.272 -3.2912  0.9507  1.0158
  815MOL0     H 9987   0.862   4.927   4.442 -2.6651  1.6016  0.5607
  815MOL0     H 9988   0.795   5.051   4.346 -0.7652 -1.0504  2.7019
  815MOL0     H 9989   1.200   4.528   4.078  1.3594  1.8984  0.0876
  815MOL0     H 9990   1.208   4.301   4.103 -0.7847 -0.9346 -0.0121
  815MOL0     H 9991   1.341   4.123   4.185  1.6399 -2.7109  0.1607
  815MOL0     H 9992   1.312   3.990   4.300 -0.1072  1.8950  3.7416
  815MOL0     H 9993   1.074   4.115   4.143 -3.8530 -0.9712  0.3989
  815MOL0     H 9994   1.177   3.986   4.071  0.8394 -0.1402 -0.2293
  815MOL0     H 9995   0.993   3.983   4.307 -0.6708  1.8149 -0.6468
  815MOL0     H 9996   1.118   3.865   4.299 -0.5346  0.3717  0.8999
  815MOL0     H 9997   0.909   3.923   4.092 -2.3108 -0.8786  0.9013
  815MOL0     H 9998   1.003   3.778   4.090  0.7181  0.0916 -0.7755
  815MOL0     H 9999   0.803   3.833   4.328 -2.0331  1.3471 -1.5739
  815MOL0     H10000   0.923   3.703   4.307 -0.6238 -0.3480 -0.2872
  815MOL0     H10001   0.674   3.757   4.139  2.2089  1.5310 -0.7908
  815MOL0     H10002   0.806   3.651   4.094  2.1945  2.4320  0.4483
  815MOL0     H10003   0.752   3.490   4.268 -1.0564 -0.5347  1.5308
  815MOL0     H10004   0.603   3.543   4.195 -0.8166  1.3083 -0.3196
  815MOL0     H10005   0.698   3.653   4.451  3.5767 -4.8014  0.8366
  815MOL0     H10006   0.589   3.524   4.445  0.6449  0.7799  0.7267
  815MOL0     H10007   1.281   4.342   4.530  2.2276 -0.1167 -1.8355
  815MOL0     H10008   1.275   4.582   4.515 -1.4411  1.4398  0.0112
  815MOL0     H10009   1.325   4.915   4.219 -0.2612 -0.3707  0.6062
  815MOL0     H10010   1.364   5.157   4.186 -0.1103 -1.5917 -1.4925
  815MOL0     H10011   1.253   5.633   5.639  1.4845 -0.0702  1.1589
  815MOL0     H10012   1.249   5.572   5.897  1.4222 -0.3550 -0.5488
  815MOL0     H10013   1.501   5.075   6.192  1.5392  0.4203  1.2458
  815MOL0     H10014   1.489   5.041   6.427 -0.1411 -1.3501 -1.1188
  815MOL0     H10015   1.311   4.992   6.644  1.1207 -0.6970 -1.6285
  815MOL0     H10016   1.482   5.052   6.634  2.6378  3.3868  2.9397
  815MOL0     H10017   1.384   4.997   6.866  1.3146  1.3257  3.7324
  815MOL0     H10018   1.304   5.147   6.855 -0.3432 -0.6925  0.3535
  815MOL0     H10019   1.499   5.180   6.973 -0.5177  1.0121 -0.4363
  815MOL0     H10020   1.483   5.281   6.825  0.5890 -0.2477 -1.2887
  815MOL0     H10021   1.706   5.216   6.856  1.5498 -2.0193  2.1169
  815MOL0     H10022   1.651   5.139   6.712 -0.4947  1.5854  0.1576
  815MOL0     H10023   1.710   4.813   6.976  1.9369  0.4297  0.0527
  815MOL0     H10024   1.250   5.402   6.491 -0.3360 -0.5394  0.4282
  815MOL0     H10025   1.241   5.431   6.237 -0.6637  0.1031  0.7547
  816MOL0     O10026   4.083   6.971   5.635 -0.0056  0.0188  0.3746
  816MOL0     C10027   3.966   6.933   5.648 -0.1475 -0.3247 -0.1809
  816MOL0     O10028   3.892   6.943   5.759  0.2869  0.4312 -0.2853
  816MOL0     C10029   3.943   7.002   5.872 -0.6231 -0.1742 -0.4786
  816MOL0     C10030   3.907   7.135   5.916  0.5340  0.5554 -0.4718
  816MOL0     C10031   3.960   7.180   6.038  0.4604 -0.1077 -0.6794
  816MOL0     C10032   4.054   7.110   6.113 -0.1190 -0.5350 -0.0604
  816MOL0     O10033   4.102   7.165   6.234 -0.5923  0.1005  0.5183
  816MOL0     C10034   4.244   7.182   6.244  0.3883 -0.2383  0.6384
  816MOL0     C10035   4.260   7.314   6.322  0.2323 -0.7518  0.3203
  816MOL0     C10036   4.188   7.424   6.247 -0.3084  0.3566  0.2239
  816MOL0     C10037   4.198   7.572   6.291 -0.5075 -0.6135  0.3931
  816MOL0     C10038   4.151   7.661   6.183  0.5849 -0.0537  1.1635
  816MOL0     C10039   4.134   7.808   6.223 -0.1828  0.3234 -0.1546
  816MOL0     C10040   4.075   7.879   6.100  0.4003  1.0954  0.0718
  816MOL0     C10041   3.991   8.008   6.138  0.0219  0.9663 -0.2797
  816MOL0     N10042   3.926   8.050   6.013 -0.2386 -0.7325 -0.2922
  816MOL0     C10043   3.923   7.985   5.890  0.4273  0.2213  0.0522
  816MOL0     C10044   3.871   8.073   5.808  1.3583 -0.9161  0.0427
  816MOL0     C10045   3.857   8.039   5.657  0.8335 -0.1328 -0.1578
  816MOL0     C10046   3.732   8.112   5.593 -0.0387  0.4564  0.3234
  816MOL0     C10047   3.747   8.268   5.581  0.3114  1.2722  0.1389
  816MOL0     C10048   3.882   8.317   5.533  0.1845  0.3617 -0.8759
  816MOL0     O10049   3.922   8.258   5.403 -1.1308  0.3104 -0.5832
  816MOL0     C10050   3.901   8.315   5.279  1.1566  1.4333  0.1323
  816MOL0     C10051   3.953   8.243   5.174 -0.4472 -0.8059  0.1738
  816MOL0     C10052   3.947   8.300   5.046 -0.4669  1.0282  1.4037
  816MOL0     C10053   3.985   8.213   4.923 -0.4446  1.0717  0.1574
  816MOL0     C10054   3.889   8.418   5.020  0.0969 -0.6495  0.2889
  816MOL0     C10055   3.867   8.489   4.884  0.1964 -1.0938 -0.2097
  816MOL0     O10056   3.807   8.617   4.892 -0.5453 -0.4177  0.1735
  816MOL0     C10057   3.794   8.687   4.773 -0.0220 -0.4678  0.8239
  816MOL0     C10058   3.854   8.809   4.773  0.3837 -1.3565 -0.2952
  816MOL0     C10059   3.852   8.890   4.657 -0.0853 -0.2145 -0.5958
  816MOL0     C10060   3.791   8.838   4.543 -0.7503  1.2451 -0.7155
  816MOL0     O10061   3.781   8.918   4.425 -0.6990  0.3303 -0.1480
  816MOL0     C10062   3.894   8.942   4.346  0.7257  0.1456  0.4782
  816MOL0     C10063   3.904   8.836   4.237  0.2382  0.5104 -0.1530
  816MOL0     C10064   4.030   8.873   4.149  0.3287  0.0262 -0.8072
  816MOL0     C10065   4.055   8.774   4.041 -0.1000  0.6823 -0.2389
  816MOL0     C10066   4.175   8.813   3.953  0.3104  0.8117 -0.9405
  816MOL0     C10067   4.297   8.846   4.033  0.6509  0.7107 -0.3926
  816MOL0     C10068   4.402   8.865   3.927 -0.2607  0.1022  0.5272
  816MOL0     C10069   4.523   8.936   3.981  0.0673 -0.6291  0.5292
  816MOL0    Cl10070   4.642   8.921   3.855 -0.3560 -0.3819 -0.4382
  816MOL0     C10071   3.727   8.716   4.547  0.3392  0.2807 -0.0344
  816MOL0     C10072   3.732   8.639   4.658 -0.1318  0.5180 -0.4114
  816MOL0     O10073   3.912   8.441   4.783 -0.1883 -0.5006  0.0660
  816MOL0     C10074   3.828   8.488   5.132  0.4774  0.5470  1.5268
  816MOL0     C10075   3.837   8.428   5.255  0.8361 -0.0400 -0.3151
  816MOL0     N10076   3.835   8.194   5.869 -0.0913 -0.0293 -0.6393
  816MOL0     N10077   3.872   8.178   5.998 -0.5487 -0.3508  0.2203
  816MOL0     C10078   4.102   6.994   6.055 -0.2260 -0.6388 -0.3617
  816MOL0     C10079   4.047   6.937   5.940  0.7528  0.0908  0.9640
  816MOL0     C10080   3.891   6.885   5.528  0.3521 -0.7672  0.0912
  816MOL0     C10081   3.970   6.838   5.424 -0.2735 -0.7797 -0.7493
  816MOL0     C10082   3.910   6.797   5.310  0.3189 -0.0488  0.3402
  816MOL0     C10083   3.771   6.774   5.290 -0.0389 -0.5224 -0.5567
  816MOL0     O10084   3.734   6.713   5.177 -0.5472 -0.0153 -0.2374
  816MOL0     C10085   3.593   6.693   5.153 -0.3351  0.1981 -0.0143
  816MOL0     C10086   3.541   6.589   5.248 -0.0305 -0.0571 -0.0335
  816MOL0     C10087   3.405   6.522   5.213  0.0364  0.1453  1.3696
  816MOL0     C10088   3.295   6.556   5.320 -1.1216  0.8839  0.2428
  816MOL0     C10089   3.265   6.697   5.314  0.2466  0.1491 -0.5481
  816MOL0     C10090   3.221   6.807   5.289 -0.4840 -0.4188  0.0108
  816MOL0     C10091   3.692   6.817   5.401 -0.1253 -0.1129  0.0797
  816MOL0     C10092   3.750   6.869   5.525 -0.0092  0.6060  0.6197
  816MOL0     H10093   3.832   7.191   5.861 -0.8997  1.8003  2.5564
  816MOL0     H10094   3.931   7.276   6.078 -1.6600 -1.4311  1.2078
  816MOL0     H10095   4.302   7.106   6.297  2.8753  1.2589  0.1893
  816MOL0     H10096   4.297   7.188   6.149  1.4042 -2.1507  1.0173
  816MOL0     H10097   4.223   7.316   6.426  1.9032  0.5961  0.9380
  816MOL0     H10098   4.362   7.352   6.326 -0.6694  1.7971  0.6989
  816MOL0     H10099   4.220   7.406   6.144  0.6699 -1.2253  0.7696
  816MOL0     H10100   4.080   7.408   6.254 -0.3488 -0.1789 -1.2832
  816MOL0     H10101   4.138   7.572   6.383 -0.8473 -0.3606  0.1764
  816MOL0     H10102   4.302   7.601   6.308 -0.0444 -0.3938 -2.3880
  816MOL0     H10103   4.232   7.651   6.109 -1.2751 -0.8575 -0.8694
  816MOL0     H10104   4.063   7.625   6.130  2.8500 -1.8243 -1.7844
  816MOL0     H10105   4.076   7.827   6.314  0.2041  0.9422 -0.0321
  816MOL0     H10106   4.229   7.853   6.254 -0.6646  1.4949 -0.2981
  816MOL0     H10107   4.140   7.892   6.014 -0.2940 -0.2346 -0.6760
  816MOL0     H10108   4.002   7.805   6.067  1.3692 -1.6109  3.4085
  816MOL0     H10109   4.064   8.079   6.178  2.3973 -1.6495  0.3813
  816MOL0     H10110   3.919   7.987   6.218  1.1025  2.4457  1.1774
  816MOL0     H10111   3.972   7.891   5.867 -0.9762 -1.0671  1.9547
  816MOL0     H10112   3.948   8.070   5.606  1.1880 -1.1103 -0.1296
  816MOL0     H10113   3.843   7.931   5.652  0.5622 -0.0336 -2.1273
  816MOL0     H10114   3.641   8.075   5.642 -1.3807  0.8721 -1.7103
  816MOL0     H10115   3.723   8.076   5.490  4.2899  1.1638 -0.4680
  816MOL0     H10116   3.727   8.306   5.682  0.0481 -1.4943  1.2306
  816MOL0     H10117   3.664   8.308   5.522 -1.7529 -1.2775  1.0984
  816MOL0     H10118   3.962   8.284   5.601  0.5491  0.6222 -1.1742
  816MOL0     H10119   3.880   8.426   5.529 -1.2554  0.3551 -0.8271
  816MOL0     H10120   4.008   8.150   5.186 -0.7804 -1.0501 -0.1608
  816MOL0     H10121   4.025   8.117   4.956 -0.3065  1.0332 -0.1123
  816MOL0     H10122   3.901   8.200   4.854 -0.1868  0.4783 -0.0568
  816MOL0     H10123   4.074   8.255   4.874  0.1026 -2.1593 -1.9315
  816MOL0     H10124   3.907   8.850   4.858  1.6965 -2.7922 -0.3906
  816MOL0     H10125   3.889   8.992   4.662 -2.0685  0.8578 -4.1989
  816MOL0     H10126   3.874   9.038   4.298  2.9548  1.6676  2.3874
  816MOL0     H10127   3.978   8.943   4.416  0.0124 -1.3018  1.4127
  816MOL0     H10128   3.915   8.735   4.279 -2.3715 -0.1449 -0.8667
  816MOL0     H10129   3.820   8.830   4.168  0.3652 -1.9525 -0.1811
  816MOL0     H10130   4.123   8.886   4.205 -1.6320 -1.0629  2.9938
  816MOL0     H10131   4.017   8.969   4.096 -5.5043  0.5799  0.9317
  816MOL0     H10132   4.067   8.670   4.073 -0.2000  0.0953 -1.9965
  816MOL0     H10133   3.970   8.781   3.972  0.6198  1.8676 -1.0465
  816MOL0     H10134   4.156   8.913   3.913  0.4638  1.4863  0.6253
  816MOL0     H10135   4.187   8.740   3.872 -0.5933  1.4324 -1.6496
  816MOL0     H10136   4.277   8.941   4.083 -2.0737 -0.5017  1.0235
  816MOL0     H10137   4.335   8.772   4.104 -0.5969  0.7324  0.3165
  816MOL0     H10138   4.367   8.930   3.846 -1.1689  0.5759  1.2774
  816MOL0     H10139   4.417   8.766   3.882 -4.2063 -1.5832  2.4480
  816MOL0     H10140   4.548   8.903   4.082 -1.2370  3.6840  2.5366
  816MOL0     H10141   4.510   9.045   3.989  1.6788 -0.4511  1.0846
  816MOL0     H10142   3.667   8.685   4.461  0.6821  1.5138 -0.7440
  816MOL0     H10143   3.688   8.541   4.643 -2.8943  1.9775 -2.8415
  816MOL0     H10144   3.779   8.584   5.123 -1.8567 -0.5803  1.3885
  816MOL0     H10145   3.797   8.486   5.337  1.9004 -1.1423  1.0328
  816MOL0     H10146   4.183   6.938   6.099 -0.5452 -1.0451 -0.2789
  816MOL0     H10147   4.090   6.846   5.901 -0.4842 -0.6725  1.3304
  816MOL0     H10148   4.078   6.849   5.428 -0.3350 -0.4879  1.0571
  816MOL0     H10149   3.963   6.750   5.228  1.9662  2.3948 -0.1066
  816MOL0     H10150   3.544   6.788   5.177 -1.5271 -0.5283  0.5378
  816MOL0     H10151   3.579   6.668   5.047 -1.1055  3.0858 -0.7062
  816MOL0     H10152   3.544   6.620   5.353  0.2350  1.2909 -0.4144
  816MOL0     H10153   3.618   6.510   5.251 -0.3502 -0.3829  3.2618
  816MOL0     H10154   3.419   6.415   5.198 -0.4162  0.2532  0.0761
  816MOL0     H10155   3.365   6.567   5.122  0.3021  1.2217  1.7676
  816MOL0     H10156   3.319   6.521   5.421  3.2709 -0.8659 -1.1941
  816MOL0     H10157   3.210   6.495   5.286 -1.2064 -0.2655  2.3528
  816MOL0     H10158   3.172   6.901   5.280 -4.0127 -1.7509  2.7796
  816MOL0     H10159   3.584   6.820   5.392 -0.0463 -1.1380 -1.4638
  816MOL0     H10160   3.693   6.906   5.610  0.9799 -0.0474  1.5868
  817MOL0     O10161   9.725   5.526   1.036  0.1131 -1.0748 -0.3175
  817MOL0     C10162   9.824   5.522   0.967  0.0069 -1.4211 -0.5875
  817MOL0     O10163   9.830   5.519   0.832  1.0731  1.1858 -0.8690
  817MOL0     C10164   9.724   5.524   0.750  0.2758  0.4356  0.8775
  817MOL0     C10165   9.742   5.577   0.620  0.4490 -0.1997  0.1464
  817MOL0     C10166   9.644   5.588   0.527  0.0194 -0.2973 -0.0182
  817MOL0     C10167   9.522   5.535   0.552 -0.2061 -0.7034  0.4893
  817MOL0     O10168   9.430   5.549   0.452  0.3915  1.2433  0.2156
  817MOL0     C10169   9.300   5.505   0.466 -0.7177  0.5820 -0.2733
  817MOL0     C10170   9.212   5.568   0.355  0.4901  0.4064  0.2090
  817MOL0     C10171   9.153   5.691   0.416  0.3882  0.5330  0.2771
  817MOL0     C10172   9.093   5.779   0.310  0.1397  0.4896  0.8135
  817MOL0     C10173   9.007   5.882   0.366  0.7145  0.0297 -0.2059
  817MOL0     C10174   9.085   5.993   0.439  0.3181  0.1075 -0.5834
  817MOL0     C10175   8.993   6.114   0.465 -0.1853  0.3503 -0.7439
  817MOL0     C10176   8.889   6.106   0.585 -0.2094  0.3095  0.6417
  817MOL0     N10177   8.765   6.056   0.525 -0.1344 -0.1335  0.2848
  817MOL0     C10178   8.675   5.989   0.595 -0.1336  0.5807 -0.6304
  817MOL0     C10179   8.569   5.982   0.523  0.8304  0.0046  1.0770
  817MOL0     C10180   8.436   5.923   0.547 -0.0125 -0.2656 -0.7743
  817MOL0     C10181   8.359   6.006   0.646 -0.0480  0.2986  0.1039
  817MOL0     C10182   8.239   5.940   0.708  0.6713  0.7884  0.0841
  817MOL0     C10183   8.185   6.009   0.830 -0.0831  0.4035 -0.2079
  817MOL0     O10184   8.109   6.127   0.796 -0.0360 -0.6924 -0.0399
  817MOL0     C10185   8.038   6.202   0.887 -0.2996  0.0346 -0.5388
  817MOL0     C10186   7.977   6.318   0.847 -0.2408  0.1909 -0.2400
  817MOL0     C10187   7.907   6.398   0.942 -0.2353  0.2912  0.0922
  817MOL0     C10188   7.844   6.524   0.882 -0.4820  0.2727  0.4692
  817MOL0     C10189   7.892   6.356   1.072 -1.1017 -0.0180  0.6252
  817MOL0     C10190   7.834   6.440   1.182 -1.0950  0.4532 -0.0328
  817MOL0     O10191   7.753   6.538   1.140  0.1831 -0.3759  0.4436
  817MOL0     C10192   7.680   6.594   1.239  0.2363 -0.4940  0.1215
  817MOL0     C10193   7.666   6.736   1.233 -0.0531 -0.2928 -0.0365
  817MOL0     C10194   7.601   6.804   1.346  0.2597  0.2088  0.3476
  817MOL0     C10195   7.526   6.727   1.444 -0.5073 -0.5681  0.5996
  817MOL0     O10196   7.448   6.791   1.541 -0.3695 -0.2195  0.0578
  817MOL0     C10197   7.445   6.935   1.541 -1.3421  0.2449 -0.1709
  817MOL0     C10198   7.350   6.982   1.653 -0.0031  0.1756  0.2150
  817MOL0     C10199   7.208   6.953   1.611 -0.1588  0.3957 -0.2368
  817MOL0     C10200   7.148   7.022   1.491 -0.2242 -0.9588  0.5318
  817MOL0     C10201   7.174   7.180   1.494 -0.4884 -0.5258  0.2182
  817MOL0     C10202   7.072   7.247   1.388  0.0915 -0.4078  0.2457
  817MOL0     C10203   7.076   7.402   1.412  0.6964  0.6429 -0.2202
  817MOL0     C10204   6.977   7.467   1.321 -0.1826  0.0103 -0.3806
  817MOL0    Cl10205   7.016   7.640   1.316 -0.3567 -0.1122 -0.2636
  817MOL0     C10206   7.541   6.586   1.446 -0.1063  0.2348 -0.0764
  817MOL0     C10207   7.617   6.524   1.343  0.1579  0.4358 -0.1502
  817MOL0     O10208   7.873   6.419   1.295  0.6619  0.3367 -0.5727
  817MOL0     C10209   7.942   6.225   1.107 -0.5887 -0.8060 -0.1642
  817MOL0     C10210   8.010   6.148   1.018  0.2023 -0.0622  0.9239
  817MOL0     N10211   8.582   6.071   0.418 -0.2558 -0.1574 -0.1765
  817MOL0     N10212   8.705   6.116   0.419  0.3044  0.7653  0.8418
  817MOL0     C10213   9.499   5.483   0.678  0.2371  0.4215  1.1750
  817MOL0     C10214   9.596   5.471   0.778  0.4247 -0.2769  0.3512
  817MOL0     C10215   9.948   5.513   1.035  0.3922  0.2212 -0.9149
  817MOL0     C10216   9.951   5.524   1.173  1.2413 -1.0358 -0.0893
  817MOL0     C10217  10.072   5.527   1.247  0.9285  0.3756 -0.2061
  817MOL0     C10218  10.188   5.512   1.172  0.1393  0.0359 -0.5370
  817MOL0     O10219  10.320   5.510   1.234  1.0067 -0.4126  0.0058
  817MOL0     C10220  10.317   5.484   1.376  0.3873 -0.3949 -1.2577
  817MOL0     C10221  10.428   5.393   1.427 -0.2578 -0.2669  0.5996
  817MOL0     C10222  10.421   5.250   1.373  0.1752 -0.0056  0.1807
  817MOL0     C10223  10.520   5.146   1.434  0.4638 -0.0235  0.2799
  817MOL0     C10224  10.504   5.010   1.381  0.2516 -0.8403  0.3444
  817MOL0     C10225  10.483   4.898   1.344 -0.0962  0.3244 -0.3164
  817MOL0     C10226  10.180   5.505   1.038 -0.2199 -0.5306 -0.1969
  817MOL0     C10227  10.066   5.489   0.971  0.4873 -0.7885  0.3779
  817MOL0     H10228   9.836   5.622   0.592 -0.6151  3.4556  1.7179
  817MOL0     H10229   9.676   5.637   0.435 -2.8447  2.3279  0.2422
  817MOL0     H10230   9.293   5.397   0.450  0.4461 -0.0443  2.7973
  817MOL0     H10231   9.251   5.534   0.560 -2.0626 -0.7645 -0.5189
  817MOL0     H10232   9.267   5.586   0.262  0.9483 -1.6136  0.0511
  817MOL0     H10233   9.133   5.507   0.310  1.1091  0.5275 -1.0862
  817MOL0     H10234   9.071   5.662   0.482 -0.2865 -2.8860 -1.8156
  817MOL0     H10235   9.237   5.733   0.472 -0.5466 -0.5832  2.6503
  817MOL0     H10236   9.163   5.838   0.251 -0.1407  0.8764  0.8672
  817MOL0     H10237   9.033   5.718   0.242  0.7291 -0.2720  0.9593
  817MOL0     H10238   8.954   5.934   0.286 -3.0341  2.7630  3.5700
  817MOL0     H10239   8.931   5.850   0.438 -1.2403  0.7366 -1.8492
  817MOL0     H10240   9.125   5.954   0.533  1.7817 -1.8232 -1.9239
  817MOL0     H10241   9.167   6.029   0.376  1.1742 -3.2061 -1.5652
  817MOL0     H10242   9.059   6.197   0.492 -1.3549  1.2527 -0.5877
  817MOL0     H10243   8.941   6.134   0.371  1.3414  0.1654 -1.6611
  817MOL0     H10244   8.867   6.204   0.629  0.2227 -0.1501  1.9277
  817MOL0     H10245   8.929   6.049   0.669 -1.4634 -0.9978  0.3917
  817MOL0     H10246   8.684   5.939   0.691 -0.8144 -1.1352 -1.4312
  817MOL0     H10247   8.391   5.898   0.450  0.3866 -3.4902 -0.2408
  817MOL0     H10248   8.466   5.831   0.597  0.0368 -0.2068 -0.6954
  817MOL0     H10249   8.314   6.096   0.601 -1.0579 -0.4167 -0.3414
  817MOL0     H10250   8.420   6.031   0.733  0.6178 -2.4753  0.5108
  817MOL0     H10251   8.258   5.839   0.745 -0.4573 -0.5271 -2.6074
  817MOL0     H10252   8.168   5.926   0.625 -0.5981 -1.4729  1.4638
  817MOL0     H10253   8.270   6.035   0.894 -0.5950  0.5563  0.4197
  817MOL0     H10254   8.128   5.928   0.877  3.0896 -1.4912  0.7282
  817MOL0     H10255   7.985   6.352   0.744 -0.4395  0.2420 -0.2400
  817MOL0     H10256   7.736   6.513   0.880 -0.3710 -0.8445  0.2583
  817MOL0     H10257   7.876   6.614   0.936  2.0354  0.4636 -1.1482
  817MOL0     H10258   7.878   6.533   0.778  0.7051 -2.0926  0.5955
  817MOL0     H10259   7.725   6.788   1.159  1.0619 -0.7393  0.5041
  817MOL0     H10260   7.612   6.909   1.321  2.7584 -0.6913 -3.0316
  817MOL0     H10261   7.545   6.975   1.559 -0.7454 -1.8709  1.8733
  817MOL0     H10262   7.413   6.963   1.441 -2.3333  0.1574  0.1116
  817MOL0     H10263   7.361   6.921   1.743 -1.5876 -0.8197 -0.2283
  817MOL0     H10264   7.354   7.087   1.681  3.9704 -0.5661  3.3643
  817MOL0     H10265   7.133   6.984   1.684  0.0395 -0.2216  0.2409
  817MOL0     H10266   7.215   6.845   1.590  0.7425  0.1650  1.1566
  817MOL0     H10267   7.200   6.996   1.398  0.8799  3.2392 -0.2499
  817MOL0     H10268   7.042   6.998   1.480 -0.3215  0.0406 -1.0984
  817MOL0     H10269   7.278   7.191   1.463 -0.3878  0.4508  0.8457
  817MOL0     H10270   7.168   7.225   1.594 -0.2561 -2.6879  1.2630
  817MOL0     H10271   7.096   7.216   1.286 -2.2672  0.4754 -0.6587
  817MOL0     H10272   6.972   7.207   1.408 -0.7257  1.9061  1.1843
  817MOL0     H10273   7.174   7.439   1.382 -0.2172  3.1641 -0.3356
  817MOL0     H10274   7.056   7.422   1.518  1.8839  3.3322 -0.4065
  817MOL0     H10275   6.874   7.438   1.343  0.6155 -2.4662  0.4742
  817MOL0     H10276   6.998   7.429   1.220 -0.0020 -1.8982  0.3381
  817MOL0     H10277   7.476   6.538   1.519 -4.5640  1.0912 -3.1220
  817MOL0     H10278   7.612   6.415   1.345 -1.5833  0.4648 -1.1215
  817MOL0     H10279   7.922   6.190   1.208  2.3978  2.1402  1.6553
  817MOL0     H10280   8.035   6.044   1.038 -1.7653 -1.1649 -1.7399
  817MOL0     H10281   9.407   5.430   0.699  1.0742 -0.4397  2.8710
  817MOL0     H10282   9.574   5.435   0.878  2.3321  2.3473  1.8501
  817MOL0     H10283   9.858   5.533   1.229  0.2980  0.5284 -1.8272
  817MOL0     H10284  10.058   5.548   1.353 -0.8817 -3.1309  0.4092
  817MOL0     H10285  10.322   5.580   1.428  3.6810 -0.2179 -1.6741
  817MOL0     H10286  10.233   5.424   1.413  0.0045  0.0152 -1.4584
  817MOL0     H10287  10.446   5.392   1.535  1.9828  0.0955  0.2915
  817MOL0     H10288  10.522   5.435   1.390  0.6020 -2.0411  0.6141
  817MOL0     H10289  10.440   5.263   1.266  1.9853  0.5493  0.5326
  817MOL0     H10290  10.323   5.204   1.385  2.1397 -4.8535 -0.3211
  817MOL0     H10291  10.516   5.153   1.543 -2.2115  0.9164  0.1998
  817MOL0     H10292  10.614   5.184   1.392 -0.3261 -1.0266 -2.6320
  817MOL0     H10293  10.469   4.800   1.303  2.4238  1.1155 -3.5218
  817MOL0     H10294  10.272   5.486   0.984  0.7047 -1.8133  1.7306
  817MOL0     H10295  10.070   5.461   0.866  1.7675 -1.7079  0.6500
  818MOL0     O10296   6.268   5.524   6.949  0.7343  0.3193  0.9058
  818MOL0     C10297   6.297   5.643   6.932  0.5750  1.0068  0.0015
  818MOL0     O10298   6.301   5.736   7.033  0.4000 -0.4173 -0.0929
  818MOL0     C10299   6.268   5.707   7.164  0.8266 -0.4297  0.1474
  818MOL0     C10300   6.360   5.726   7.269  0.3440 -0.5482 -0.5537
  818MOL0     C10301   6.312   5.699   7.400  0.2857  0.7733 -0.2141
  818MOL0     C10302   6.187   5.650   7.424  0.3727 -0.1229  0.0806
  818MOL0     O10303   6.143   5.604   7.546 -0.1823  0.2561 -0.0293
  818MOL0     C10304   6.138   5.716   7.635  0.0104  0.4866  0.4963
  818MOL0     C10305   6.000   5.790   7.624  0.1907 -0.1176  0.6876
  818MOL0     C10306   5.885   5.731   7.706 -0.7700 -1.0712 -0.8991
  818MOL0     C10307   5.758   5.785   7.652  0.9089  0.0315 -0.0228
  818MOL0     C10308   5.642   5.743   7.744 -0.5748  0.5078 -0.1036
  818MOL0     C10309   5.502   5.755   7.683 -0.0400  0.6032 -0.4235
  818MOL0     C10310   5.453   5.886   7.640 -0.0946  0.2793  1.0652
  818MOL0     C10311   5.480   6.002   7.737  0.0987 -0.2796 -0.1060
  818MOL0     N10312   5.410   5.979   7.861  0.3351  0.0679 -0.0294
  818MOL0     C10313   5.277   5.992   7.892  0.3832  0.0140 -0.2549
  818MOL0     C10314   5.253   5.941   8.006 -0.1257 -0.4186  0.5404
  818MOL0     C10315   5.127   5.917   8.077  0.2029  0.0492 -0.2473
  818MOL0     C10316   5.109   6.036   8.182 -0.2326 -0.6184  0.5662
  818MOL0     C10317   5.015   6.141   8.111 -0.0312 -0.9315 -0.1716
  818MOL0     C10318   4.987   6.276   8.198 -0.3139 -1.0208 -1.2808
  818MOL0     O10319   4.948   6.370   8.105 -0.2053 -0.7111 -0.4664
  818MOL0     C10320   4.891   6.492   8.151  0.0040  0.4217 -0.1740
  818MOL0     C10321   4.775   6.550   8.080 -0.2214  0.3555  0.7044
  818MOL0     C10322   4.703   6.658   8.125  0.5626  0.6793  0.6016
  818MOL0     C10323   4.590   6.701   8.041  0.6315  0.0068 -0.2950
  818MOL0     C10324   4.735   6.721   8.247 -0.0394  0.3464 -0.1314
  818MOL0     C10325   4.660   6.834   8.311 -0.2002  0.2300  0.0616
  818MOL0     O10326   4.672   6.847   8.446 -0.0469  0.5830 -0.4475
  818MOL0     C10327   4.611   6.949   8.510 -0.2862 -0.5570  1.0655
  818MOL0     C10328   4.483   6.936   8.553 -0.7340 -0.1342  0.2390
  818MOL0     C10329   4.417   7.036   8.623 -0.2002  0.1135  0.4509
  818MOL0     C10330   4.481   7.158   8.653 -0.1486  0.1123 -0.5019
  818MOL0     O10331   4.403   7.258   8.711  1.3257  0.0926  0.5936
  818MOL0     C10332   4.427   7.398   8.665 -0.8094  0.0800  0.3022
  818MOL0     C10333   4.288   7.462   8.659  0.5008  0.5279 -1.2146
  818MOL0     C10334   4.231   7.499   8.525 -0.5257  1.3239  0.7151
  818MOL0     C10335   4.109   7.589   8.527 -0.3680 -0.9437 -0.6288
  818MOL0     C10336   4.003   7.559   8.417 -1.2541 -0.0075 -0.8120
  818MOL0     C10337   4.066   7.534   8.276 -0.2127 -0.2253 -0.8269
  818MOL0     C10338   3.965   7.542   8.164  0.1643 -0.6390  0.1831
  818MOL0     C10339   3.911   7.401   8.119  0.2186 -0.0063 -0.8544
  818MOL0    Cl10340   4.041   7.293   8.041 -0.0964  0.1648  0.2914
  818MOL0     C10341   4.619   7.169   8.621  0.9199  0.0238  0.6829
  818MOL0     C10342   4.686   7.061   8.550 -0.1352 -0.1845 -0.3695
  818MOL0     O10343   4.606   6.914   8.241 -0.0735 -0.4277  0.1860
  818MOL0     C10344   4.845   6.661   8.320 -0.2367 -0.5027  0.4153
  818MOL0     C10345   4.910   6.547   8.272 -0.7604 -0.2101 -0.2717
  818MOL0     N10346   5.374   5.896   8.057 -0.9301  0.0718  0.2276
  818MOL0     N10347   5.471   5.922   7.969  0.9358  0.1467  0.0221
  818MOL0     C10348   6.098   5.621   7.319  0.3229 -0.3989 -0.3452
  818MOL0     C10349   6.137   5.645   7.186  0.2605 -0.6106 -0.9092
  818MOL0     C10350   6.320   5.681   6.788  0.0062  0.6844  0.4056
  818MOL0     C10351   6.269   5.600   6.678  0.0473  0.3304  0.8245
  818MOL0     C10352   6.271   5.647   6.547  0.4666 -0.6541  0.3673
  818MOL0     C10353   6.345   5.763   6.515  0.8494  0.7196 -0.7223
  818MOL0     O10354   6.353   5.803   6.382 -0.1627 -0.0945 -0.0981
  818MOL0     C10355   6.427   5.914   6.332 -0.2090 -0.3541  0.8886
  818MOL0     C10356   6.344   6.045   6.342  0.0877  0.2622  0.3405
  818MOL0     C10357   6.417   6.168   6.263 -0.0285 -0.0977 -0.5525
  818MOL0     C10358   6.394   6.298   6.343 -0.3088 -0.0184  0.4785
  818MOL0     C10359   6.420   6.419   6.261 -0.4481  0.5083 -1.1313
  818MOL0     C10360   6.451   6.520   6.194 -0.0087  0.0727 -0.3515
  818MOL0     C10361   6.406   5.833   6.620 -0.2508  0.0173 -0.6383
  818MOL0     C10362   6.384   5.799   6.757 -0.3908  0.0152 -0.7080
  818MOL0     H10363   6.451   5.781   7.250  2.7655 -3.1260  2.5068
  818MOL0     H10364   6.373   5.718   7.488  0.8079 -1.8571  0.0841
  818MOL0     H10365   6.150   5.683   7.738  0.6883 -0.7213  0.0456
  818MOL0     H10366   6.221   5.783   7.611 -0.0611 -0.0259 -1.3892
  818MOL0     H10367   6.000   5.896   7.653  0.3884 -0.3013  1.3789
  818MOL0     H10368   5.972   5.791   7.518  1.5368  1.8137  0.2960
  818MOL0     H10369   5.881   5.622   7.700  4.1558 -1.5611  0.2386
  818MOL0     H10370   5.886   5.764   7.810 -0.4345  0.1012 -1.2497
  818MOL0     H10371   5.748   5.893   7.637 -1.3519 -0.3505 -1.7347
  818MOL0     H10372   5.734   5.739   7.555  0.3516 -0.9664  0.5669
  818MOL0     H10373   5.659   5.639   7.774 -1.3066  0.8540  1.6779
  818MOL0     H10374   5.647   5.810   7.831  0.3468 -0.2386  0.4467
  818MOL0     H10375   5.493   5.694   7.592  1.0813  0.4972 -0.4844
  818MOL0     H10376   5.435   5.709   7.756  1.9799 -1.2432  0.3546
  818MOL0     H10377   5.509   5.914   7.550 -1.0321  2.1238  0.9988
  818MOL0     H10378   5.346   5.874   7.618  0.1457  1.4107 -1.0936
  818MOL0     H10379   5.437   6.088   7.686  2.1554 -0.4294 -2.2940
  818MOL0     H10380   5.586   6.015   7.761  0.0667 -0.3898  0.0981
  818MOL0     H10381   5.208   6.024   7.815  0.0190 -0.7647 -0.2621
  818MOL0     H10382   5.045   5.905   8.006  0.2152  1.1367 -0.4609
  818MOL0     H10383   5.134   5.817   8.123 -0.7373 -0.5860 -1.4290
  818MOL0     H10384   5.202   6.085   8.214 -1.8065  1.4143  2.2975
  818MOL0     H10385   5.066   6.008   8.278 -0.6485  1.5841  1.0650
  818MOL0     H10386   4.915   6.111   8.078 -1.7163  3.3495  0.3809
  818MOL0     H10387   5.074   6.167   8.023  1.0550 -1.5431  0.3489
  818MOL0     H10388   5.068   6.307   8.263  0.0485 -3.6476 -0.3363
  818MOL0     H10389   4.901   6.241   8.256 -1.0951 -2.5331 -3.2343
  818MOL0     H10390   4.752   6.489   7.993  2.8777 -0.4971  0.3416
  818MOL0     H10391   4.562   6.622   7.971 -0.1128  1.2820 -1.4777
  818MOL0     H10392   4.506   6.732   8.103 -0.5801  0.0037 -1.8754
  818MOL0     H10393   4.627   6.789   7.987 -2.3372  1.3016 -0.3838
  818MOL0     H10394   4.442   6.837   8.539  1.1269 -0.6570 -2.0264
  818MOL0     H10395   4.315   7.025   8.658 -0.4864 -0.3560 -0.5084
  818MOL0     H10396   4.501   7.442   8.732  1.1592 -1.7078 -0.5549
  818MOL0     H10397   4.457   7.388   8.560 -0.1400  1.6470  0.3264
  818MOL0     H10398   4.209   7.403   8.707  0.9789  1.3862  0.7226
  818MOL0     H10399   4.285   7.555   8.717 -1.3704  0.0572 -0.4854
  818MOL0     H10400   4.207   7.408   8.469  4.6133 -0.2627  0.5668
  818MOL0     H10401   4.305   7.548   8.461  1.3236  2.8638  3.8393
  818MOL0     H10402   4.058   7.608   8.622  1.7651  4.1177 -0.1428
  818MOL0     H10403   4.146   7.690   8.506  1.1983 -1.1262  1.0054
  818MOL0     H10404   3.933   7.642   8.411  0.1477  1.4804  1.5601
  818MOL0     H10405   3.953   7.465   8.445  0.0290 -0.9239 -1.4739
  818MOL0     H10406   4.143   7.612   8.272 -0.5979  0.3516  1.4869
  818MOL0     H10407   4.114   7.436   8.281  1.7523  0.7292  2.6554
  818MOL0     H10408   4.008   7.588   8.075  1.3571  0.2986  1.2070
  818MOL0     H10409   3.884   7.605   8.201  1.8902  2.5982 -1.2195
  818MOL0     H10410   3.835   7.420   8.042 -2.0909 -2.3587  0.6756
  818MOL0     H10411   3.850   7.350   8.195  2.2593 -0.7669  0.3615
  818MOL0     H10412   4.657   7.268   8.646  0.3655  0.2367  0.6986
  818MOL0     H10413   4.793   7.047   8.537  0.5685  3.3496  0.5907
  818MOL0     H10414   4.871   6.690   8.421  0.5761 -0.0854  0.0925
  818MOL0     H10415   4.984   6.507   8.341 -1.6573  1.1206  1.5492
  818MOL0     H10416   6.005   5.582   7.360  0.5790  0.6005  1.3069
  818MOL0     H10417   6.071   5.641   7.100 -0.5422 -3.1045 -0.2626
  818MOL0     H10418   6.242   5.496   6.689  0.7250  0.2013  1.3964
  818MOL0     H10419   6.218   5.589   6.473  0.1154  0.6443 -0.4343
  818MOL0     H10420   6.518   5.930   6.391 -0.0822  0.4483  0.4854
  818MOL0     H10421   6.453   5.891   6.229  1.6310 -3.0748  1.8457
  818MOL0     H10422   6.333   6.068   6.449  2.9976  2.3799  0.3128
  818MOL0     H10423   6.248   6.042   6.289  0.6111 -0.4625 -0.5889
  818MOL0     H10424   6.375   6.168   6.163  3.2320  0.9131 -2.0732
  818MOL0     H10425   6.525   6.151   6.258 -0.2624 -1.2392 -2.9488
  818MOL0     H10426   6.454   6.308   6.434  0.1376 -0.2867  0.2204
  818MOL0     H10427   6.292   6.293   6.382  0.3566  0.0870  2.3586
  818MOL0     H10428   6.480   6.601   6.130 -1.2226  0.4654 -0.4248
  818MOL0     H10429   6.468   5.921   6.610 -1.4041  0.9350  0.0369
  818MOL0     H10430   6.409   5.877   6.829  1.2796  1.2840 -2.5464
  819MOL0     O10431   8.463   9.229   0.921  0.0808 -0.0222  0.5787
  819MOL0     C10432   8.516   9.240   0.812  0.0922  1.0817  0.1731
  819MOL0     O10433   8.510   9.142   0.722  0.5239 -0.1293 -0.8288
  819MOL0     C10434   8.456   9.022   0.758 -0.9188  0.1651 -0.8236
  819MOL0     C10435   8.341   8.981   0.714 -0.0785 -0.6471 -1.1957
  819MOL0     C10436   8.298   8.851   0.750  0.3024 -0.0628 -0.5081
  819MOL0     C10437   8.378   8.757   0.811  0.6640 -0.4113 -0.5108
  819MOL0     O10438   8.348   8.630   0.838  0.6414  0.0960 -0.6506
  819MOL0     C10439   8.243   8.561   0.767 -0.2197 -0.6453  0.0932
  819MOL0     C10440   8.216   8.425   0.829  0.2227 -0.4948 -0.3161
  819MOL0     C10441   8.098   8.340   0.774 -0.2623 -0.4921 -0.8386
  819MOL0     C10442   8.106   8.193   0.841  0.1605  0.3279  1.0424
  819MOL0     C10443   7.993   8.114   0.776 -0.9927 -0.8005  0.0447
  819MOL0     C10444   7.987   7.962   0.821 -0.0336 -0.2695 -0.0935
  819MOL0     C10445   8.119   7.894   0.847 -0.4588  0.0603  0.8476
  819MOL0     C10446   8.100   7.745   0.867  0.5910 -0.7051  0.6818
  819MOL0     N10447   8.031   7.682   0.752  0.3981 -0.3965 -0.1648
  819MOL0     C10448   8.043   7.714   0.620  1.1493 -1.1173 -0.4264
  819MOL0     C10449   7.932   7.648   0.567 -0.1419 -0.6356 -0.1955
  819MOL0     C10450   7.883   7.655   0.429 -0.8898 -0.7329  0.1945
  819MOL0     C10451   7.802   7.523   0.392  0.5410  1.3377  0.4567
  819MOL0     C10452   7.652   7.534   0.447  0.1600 -0.2202 -0.7619
  819MOL0     C10453   7.565   7.609   0.357 -0.0998 -0.4691  0.2250
  819MOL0     O10454   7.538   7.520   0.255  0.0306  0.2861  0.6773
  819MOL0     C10455   7.485   7.574   0.145 -0.6536  0.5209  0.3780
  819MOL0     C10456   7.430   7.480   0.059  0.9206 -0.2407  0.1118
  819MOL0     C10457   7.360   7.527  -0.053 -0.7807  0.2052  0.6830
  819MOL0     C10458   7.321   7.424  -0.146 -0.6541  1.7587  0.8007
  819MOL0     C10459   7.340   7.667  -0.077  0.6741  0.2395 -0.3236
  819MOL0     C10460   7.253   7.729  -0.182 -1.0293 -0.0303 -0.6802
  819MOL0     O10461   7.167   7.823  -0.136 -0.6620  0.0279  0.2355
  819MOL0     C10462   7.128   7.933  -0.213 -0.4439  0.0355 -0.6929
  819MOL0     C10463   7.215   8.025  -0.270 -0.1300  0.5265  0.1888
  819MOL0     C10464   7.163   8.141  -0.341  0.2848 -0.8257 -0.1735
  819MOL0     C10465   7.026   8.164  -0.337 -0.2871 -0.1760  0.7995
  819MOL0     O10466   6.974   8.276  -0.393  0.4118  0.2018  0.3931
  819MOL0     C10467   7.049   8.403  -0.386  0.1632 -0.5941 -0.5579
  819MOL0     C10468   6.941   8.512  -0.366 -1.5566  0.1597 -0.6347
  819MOL0     C10469   6.982   8.647  -0.427 -0.4896 -0.0463  0.4184
  819MOL0     C10470   6.865   8.751  -0.386 -0.5624  0.6622  0.0903
  819MOL0     C10471   6.833   8.774  -0.241  0.7629  0.0384 -0.2995
  819MOL0     C10472   6.948   8.809  -0.144 -0.3513  0.5385 -1.0824
  819MOL0     C10473   6.892   8.854  -0.017  0.2406  0.1846 -0.3162
  819MOL0     C10474   6.990   8.903   0.092  0.0185  0.3157  0.3097
  819MOL0    Cl10475   7.091   8.764   0.141 -0.1281  0.4741  0.4600
  819MOL0     C10476   6.942   8.074  -0.281 -0.2089 -0.4680  0.5581
  819MOL0     C10477   6.995   7.961  -0.228 -0.0406 -0.5312  0.5002
  819MOL0     O10478   7.264   7.702  -0.301 -0.3056  0.5925  0.7335
  819MOL0     C10479   7.388   7.757   0.018  0.1156 -0.8428 -0.1365
  819MOL0     C10480   7.469   7.712   0.120  1.3699 -0.2896  0.5817
  819MOL0     N10481   7.871   7.575   0.663  0.8053 -0.1310  0.3397
  819MOL0     N10482   7.923   7.597   0.775 -0.0925 -0.6033  0.1956
  819MOL0     C10483   8.500   8.809   0.862 -0.6054 -0.4959 -0.4928
  819MOL0     C10484   8.542   8.940   0.833 -0.1524  0.5340 -1.1596
  819MOL0     C10485   8.576   9.365   0.777 -0.5764  0.4036 -0.2924
  819MOL0     C10486   8.593   9.396   0.639  1.3375  0.1288  0.1825
  819MOL0     C10487   8.657   9.507   0.598 -0.6054  0.1537  0.3630
  819MOL0     C10488   8.689   9.606   0.689  0.8177  0.5466  0.1498
  819MOL0     O10489   8.741   9.714   0.635 -0.3519  0.1441 -0.6881
  819MOL0     C10490   8.722   9.844   0.693 -0.5074  0.4354  0.5297
  819MOL0     C10491   8.798   9.950   0.612 -0.4387 -0.8024  0.7474
  819MOL0     C10492   8.944   9.919   0.575  0.7372  0.1378 -0.3915
  819MOL0     C10493   9.008  10.025   0.477  0.6239 -0.0371  0.1077
  819MOL0     C10494   8.960  10.160   0.516 -0.2804  0.0596  0.1525
  819MOL0     C10495   8.930  10.269   0.548 -0.7940 -0.3757  0.4217
  819MOL0     C10496   8.673   9.577   0.827  0.7779  0.6608 -0.0307
  819MOL0     C10497   8.627   9.449   0.873  0.7739  0.3027  0.3924
  819MOL0     H10498   8.286   9.062   0.668  1.6171  1.0762 -0.3319
  819MOL0     H10499   8.200   8.827   0.708 -1.1811  2.5983  1.1692
  819MOL0     H10500   8.158   8.628   0.778  0.5726 -0.0531  4.5044
  819MOL0     H10501   8.273   8.554   0.662 -1.9468  4.3541 -0.9917
  819MOL0     H10502   8.305   8.363   0.811  0.4152 -1.8926  4.2559
  819MOL0     H10503   8.200   8.450   0.934  2.3357 -2.8952  0.6836
  819MOL0     H10504   8.005   8.394   0.795 -0.4488 -1.3139  0.6058
  819MOL0     H10505   8.115   8.326   0.667 -0.3152 -0.8215 -0.8060
  819MOL0     H10506   8.202   8.153   0.808 -0.3939  0.8292 -1.4017
  819MOL0     H10507   8.102   8.191   0.950  0.2460 -2.4973  1.0611
  819MOL0     H10508   7.901   8.159   0.816 -0.5926 -0.3722  0.4932
  819MOL0     H10509   8.000   8.136   0.669  4.3865  1.8704  0.6413
  819MOL0     H10510   7.925   7.947   0.910 -0.1763 -2.9392 -0.5652
  819MOL0     H10511   7.913   7.926   0.749 -1.2255  2.0463 -0.1252
  819MOL0     H10512   8.176   7.900   0.754  2.7382 -3.9260  2.1856
  819MOL0     H10513   8.177   7.934   0.931 -1.5601  0.8387  1.2552
  819MOL0     H10514   8.044   7.733   0.961  1.8717 -1.2180  1.3969
  819MOL0     H10515   8.193   7.694   0.890  1.6179  1.1420  0.8028
  819MOL0     H10516   8.121   7.779   0.584  1.9107 -2.6688 -1.7304
  819MOL0     H10517   7.835   7.751   0.414  4.3619  2.0982 -0.9557
  819MOL0     H10518   7.976   7.662   0.372  0.8872  1.6581  3.0626
  819MOL0     H10519   7.855   7.436   0.432  1.2757  2.7309  2.7141
  819MOL0     H10520   7.803   7.507   0.284 -2.5431 -1.0710  0.6448
  819MOL0     H10521   7.665   7.590   0.540 -0.9234  0.0635 -0.7666
  819MOL0     H10522   7.606   7.435   0.459  1.2861 -0.8260 -1.1893
  819MOL0     H10523   7.607   7.710   0.342 -1.4175 -0.0107 -0.4837
  819MOL0     H10524   7.471   7.631   0.409  1.0864 -1.6739  3.1188
  819MOL0     H10525   7.421   7.376   0.088 -1.5247  0.4715  2.3310
  819MOL0     H10526   7.345   7.439  -0.251 -1.8217  1.2736  0.4392
  819MOL0     H10527   7.363   7.328  -0.115 -3.0664  0.5627  0.6473
  819MOL0     H10528   7.211   7.420  -0.153 -0.5484  1.0472 -0.7933
  819MOL0     H10529   7.322   8.008  -0.267 -0.1044  0.8511  2.0959
  819MOL0     H10530   7.214   8.207  -0.411 -0.5532 -0.7031 -0.6918
  819MOL0     H10531   7.119   8.411  -0.303 -0.7509 -3.6511  0.6791
  819MOL0     H10532   7.101   8.433  -0.477  0.4692  0.0392 -0.1836
  819MOL0     H10533   6.847   8.480  -0.412 -2.1481  2.0086 -0.7986
  819MOL0     H10534   6.925   8.518  -0.258  2.3558  0.5272  0.0516
  819MOL0     H10535   6.982   8.638  -0.536  0.5256  3.9970 -0.0952
  819MOL0     H10536   7.079   8.686  -0.395 -0.0029  1.3281 -2.4882
  819MOL0     H10537   6.910   8.848  -0.409  0.7904  0.5650  2.1102
  819MOL0     H10538   6.773   8.730  -0.442 -1.2782 -1.4597  1.9370
  819MOL0     H10539   6.775   8.684  -0.216  0.0531  1.1601  2.4208
  819MOL0     H10540   6.755   8.851  -0.240  1.3622  0.6421 -0.0346
  819MOL0     H10541   7.006   8.718  -0.125 -0.7662  0.1715 -1.5559
  819MOL0     H10542   7.009   8.891  -0.182  3.1206 -0.6289  1.4297
  819MOL0     H10543   6.836   8.769   0.023  0.1033  0.3767 -0.0957
  819MOL0     H10544   6.820   8.930  -0.048  0.2897  0.1041 -0.6288
  819MOL0     H10545   6.939   8.953   0.175 -1.2001 -0.1667 -0.1129
  819MOL0     H10546   7.053   8.977   0.043 -2.2846  0.7805 -2.1886
  819MOL0     H10547   6.836   8.100  -0.280 -0.2503 -0.4398  3.5808
  819MOL0     H10548   6.918   7.901  -0.180 -0.1498 -1.8157 -1.1962
  819MOL0     H10549   7.394   7.864  -0.000  1.3522 -1.2134 -2.1667
  819MOL0     H10550   7.497   7.794   0.185  2.9372  0.7452 -1.2669
  819MOL0     H10551   8.573   8.747   0.912  1.0321  0.6820 -1.3254
  819MOL0     H10552   8.636   8.991   0.851 -0.1978  1.2620 -2.7796
  819MOL0     H10553   8.563   9.334   0.554  5.6037  1.6631 -2.7903
  819MOL0     H10554   8.661   9.511   0.490 -0.7355 -2.6765  0.1747
  819MOL0     H10555   8.616   9.870   0.700 -1.0714 -1.8180  0.9917
  819MOL0     H10556   8.763   9.851   0.794  2.8641 -1.2074 -0.5772
  819MOL0     H10557   8.802  10.035   0.681  1.8398 -0.8533  0.7443
  819MOL0     H10558   8.740   9.981   0.524 -0.1056  0.7156  1.0447
  819MOL0     H10559   8.956   9.826   0.518 -0.2041  0.6242 -1.4391
  819MOL0     H10560   9.001   9.910   0.668  1.4898 -0.1492 -0.8665
  819MOL0     H10561   8.962  10.010   0.378 -2.3803 -0.9446  1.5110
  819MOL0     H10562   9.115  10.007   0.472  1.3275  2.8145  2.0288
  819MOL0     H10563   8.905  10.369   0.575  0.5363 -0.3240  1.5581
  819MOL0     H10564   8.692   9.654   0.900 -1.4367  1.2787 -0.0246
  819MOL0     H10565   8.625   9.418   0.977 -4.0710 -2.2267 -0.1520
  820MOL0     O10566   0.280  11.226   5.255 -0.1491  0.5135  0.3879
  820MOL0     C10567   0.165  11.216   5.228 -0.9154 -0.0269 -0.2560
  820MOL0     O10568   0.077  11.318   5.206  0.0942  0.8662  0.0947
  820MOL0     C10569   0.138  11.440   5.178  0.0281  0.5621 -0.9348
  820MOL0     C10570   0.172  11.518   5.291  0.3512 -1.1189  0.6787
  820MOL0     C10571   0.206  11.650   5.269 -0.6946 -0.5280  0.1251
  820MOL0     C10572   0.237  11.699   5.140  0.2639 -0.3086 -0.5497
  820MOL0     O10573   0.297  11.827   5.125 -0.1909  1.2984 -0.2529
  820MOL0     C10574   0.376  11.892   5.225  0.5535 -0.5632 -0.2448
  820MOL0     C10575   0.511  11.816   5.233  0.2880 -0.3795  0.7669
  820MOL0     C10576   0.597  11.895   5.332 -0.1072  0.3623 -0.1888
  820MOL0     C10577   0.728  11.815   5.340  0.9319  0.4772 -0.4206
  820MOL0     C10578   0.833  11.884   5.430 -0.5693  0.7463 -0.2622
  820MOL0     C10579   0.873  12.033   5.410  0.0839  1.1850  0.4200
  820MOL0     C10580   0.930  12.052   5.258  0.3617  0.6845 -0.9788
  820MOL0     C10581   0.985  12.196   5.234  0.2319 -0.6273  0.0630
  820MOL0     N10582   1.111  12.219   5.287  0.5438  0.2435 -0.4151
  820MOL0     C10583   1.201  12.315   5.223  0.7200 -0.0082  0.1734
  820MOL0     C10584   1.301  12.325   5.315 -0.1295  0.0040  0.2686
  820MOL0     C10585   1.430  12.393   5.272  0.5934 -0.1847 -0.7114
  820MOL0     C10586   1.416  12.539   5.309 -0.1021 -0.3750 -1.0440
  820MOL0     C10587   1.338  12.626   5.210  0.0004 -0.1934  0.4488
  820MOL0     C10588   1.423  12.647   5.085 -0.0790  0.9123 -0.3644
  820MOL0     O10589   1.365  12.725   4.987 -0.0480 -0.2351  0.7267
  820MOL0     C10590   1.248  12.693   4.924 -0.0429 -0.2971 -0.4211
  820MOL0     C10591   1.141  12.778   4.917  0.8803  0.1953  0.6389
  820MOL0     C10592   1.019  12.748   4.856 -0.4811  0.3617 -0.3843
  820MOL0     C10593   0.924  12.872   4.841 -0.3758 -0.2120  0.2299
  820MOL0     C10594   1.002  12.617   4.797 -0.1504 -0.1176  0.1484
  820MOL0     C10595   0.886  12.572   4.711 -1.1820  0.1905  0.4079
  820MOL0     O10596   0.815  12.666   4.651 -0.0258  0.1374  0.1067
  820MOL0     C10597   0.710  12.644   4.559 -0.4679  1.4240  0.8909
  820MOL0     C10598   0.608  12.548   4.584  0.0636 -1.0445  0.5642
  820MOL0     C10599   0.502  12.537   4.494  0.9719 -0.7456  0.1104
  820MOL0     C10600   0.495  12.620   4.378 -0.4701  0.3581  0.3396
  820MOL0     O10601   0.404  12.587   4.280  1.1746 -1.1023  0.2359
  820MOL0     C10602   0.338  12.702   4.221  0.5852  0.1621 -0.0256
  820MOL0     C10603   0.221  12.653   4.124 -0.8114  0.0402 -0.1569
  820MOL0     C10604   0.128  12.570   4.201 -0.0160  1.2318 -0.0609
  820MOL0     C10605   0.025  12.509   4.102  0.1067 -0.7417 -0.6972
  820MOL0     C10606  -0.092  12.478   4.198 -0.2206  0.0431 -0.3850
  820MOL0     C10607  -0.060  12.373   4.294  0.4594 -0.0792 -1.6122
  820MOL0     C10608  -0.183  12.313   4.365 -0.8623  0.9722  0.9585
  820MOL0     C10609  -0.152  12.198   4.454  0.7066  0.3180 -0.0158
  820MOL0    Cl10610  -0.302  12.166   4.543 -0.0214  0.2485  0.0515
  820MOL0     C10611   0.598  12.716   4.353  0.0203 -0.0571  0.6400
  820MOL0     C10612   0.710  12.727   4.444  0.4549 -0.0133 -0.3365
  820MOL0     O10613   0.858  12.455   4.707 -0.7450  0.4509 -0.3620
  820MOL0     C10614   1.113  12.529   4.798  0.4254 -0.3844 -0.2518
  820MOL0     C10615   1.235  12.568   4.862  1.3196  0.7589  0.4141
  820MOL0     N10616   1.263  12.263   5.430 -0.0623  0.6901  0.5604
  820MOL0     N10617   1.143  12.203   5.416 -0.0399  0.4115  0.0238
  820MOL0     C10618   0.206  11.613   5.031  1.1074 -0.5818 -0.1503
  820MOL0     C10619   0.149  11.487   5.054  0.6146  0.4697  0.7385
  820MOL0     C10620   0.131  11.083   5.189  0.7379  0.3505  0.3605
  820MOL0     C10621   0.196  10.965   5.230 -0.7997  0.8665  0.5962
  820MOL0     C10622   0.152  10.841   5.186 -0.3878 -0.7029 -0.0936
  820MOL0     C10623   0.048  10.815   5.105 -0.2449  0.1285 -0.2436
  820MOL0     O10624   0.030  10.681   5.071  0.2381 -0.2068  0.2801
  820MOL0     C10625  -0.060  10.640   4.964 -0.5802  0.4033  0.4122
  820MOL0     C10626   0.030  10.543   4.879  0.7267 -0.1993 -0.7989
  820MOL0     C10627  -0.072  10.457   4.795 -0.4008 -0.1246 -0.3539
  820MOL0     C10628   0.008  10.377   4.685 -0.0856  0.2711  0.2313
  820MOL0     C10629   0.136  10.326   4.726  0.2536  0.4047  0.8134
  820MOL0     C10630   0.240  10.263   4.727  0.3850  0.7503 -0.1617
  820MOL0     C10631  -0.038  10.925   5.082  0.3158  1.2835  0.7698
  820MOL0     C10632   0.010  11.053   5.110  0.1487 -0.6993  0.5085
  820MOL0     H10633   0.149  11.478   5.389 -1.4958  0.6423  1.0298
  820MOL0     H10634   0.225  11.710   5.358 -0.9780 -0.5781  0.2188
  820MOL0     H10635   0.392  11.993   5.187  1.4537  0.5317  2.7411
  820MOL0     H10636   0.334  11.905   5.325  0.6534  2.4483 -0.5176
  820MOL0     H10637   0.497  11.709   5.253 -1.2716 -0.5577 -0.9914
  820MOL0     H10638   0.553  11.822   5.132 -1.3137 -1.6453 -0.0244
  820MOL0     H10639   0.618  11.993   5.289 -0.6345 -0.4128 -2.3595
  820MOL0     H10640   0.556  11.924   5.429  0.1126  4.7455 -1.2041
  820MOL0     H10641   0.703  11.724   5.395 -2.9234  2.3309  1.2101
  820MOL0     H10642   0.768  11.784   5.243 -3.3451 -5.2195 -0.8824
  820MOL0     H10643   0.790  11.888   5.530  0.4529  0.6916  0.1945
  820MOL0     H10644   0.920  11.818   5.441 -2.7583 -1.8869  3.4155
  820MOL0     H10645   0.784  12.091   5.435 -1.8739 -1.7653  0.7904
  820MOL0     H10646   0.955  12.056   5.478  1.9141 -1.0395 -0.8681
  820MOL0     H10647   0.998  11.967   5.242 -1.2394 -1.0820  0.9646
  820MOL0     H10648   0.851  12.031   5.185  1.9440 -0.8308 -2.3682
  820MOL0     H10649   0.914  12.267   5.277 -1.6898  0.0993 -3.8336
  820MOL0     H10650   1.002  12.218   5.128  2.9651 -0.2893  0.5052
  820MOL0     H10651   1.195  12.369   5.129 -2.9327  2.6252  1.6794
  820MOL0     H10652   1.517  12.351   5.323  1.2292  0.7310 -1.0237
  820MOL0     H10653   1.458  12.375   5.167  0.3044 -0.3972 -0.7535
  820MOL0     H10654   1.509  12.588   5.340 -0.5196  0.1795 -0.6364
  820MOL0     H10655   1.364  12.539   5.406  1.3925  0.1435 -0.2066
  820MOL0     H10656   1.336  12.721   5.265 -3.4014 -1.0018  1.9427
  820MOL0     H10657   1.238  12.591   5.184 -1.2230  3.2105 -0.0159
  820MOL0     H10658   1.440  12.548   5.040  1.6068  0.6140  0.8338
  820MOL0     H10659   1.518  12.687   5.122  0.0036  1.0137 -0.6775
  820MOL0     H10660   1.152  12.883   4.946 -2.7075  1.3690 -1.6121
  820MOL0     H10661   0.901  12.924   4.934  2.1914 -0.5153  1.1291
  820MOL0     H10662   0.966  12.951   4.778  0.2990  0.1968  1.1698
  820MOL0     H10663   0.822  12.849   4.810 -1.7262  1.7282  2.9363
  820MOL0     H10664   0.610  12.499   4.681  1.2210  0.2555  1.2323
  820MOL0     H10665   0.432  12.457   4.515 -3.4555  2.4956 -0.7781
  820MOL0     H10666   0.301  12.756   4.309  1.5282 -2.4018  2.1113
  820MOL0     H10667   0.412  12.764   4.170 -0.0621  0.4151 -0.6714
  820MOL0     H10668   0.171  12.747   4.099  1.4847  2.3917  3.1658
  820MOL0     H10669   0.257  12.601   4.035 -0.8585 -0.7735  0.2923
  820MOL0     H10670   0.096  12.638   4.280 -4.5887  0.1608 -0.7378
  820MOL0     H10671   0.184  12.486   4.246 -0.4778 -0.0776 -1.8193
  820MOL0     H10672  -0.015  12.582   4.032  1.9474  0.9256 -0.1081
  820MOL0     H10673   0.058  12.420   4.046  0.3843  0.8178 -3.1425
  820MOL0     H10674  -0.166  12.430   4.133  1.9006 -4.7856  0.3470
  820MOL0     H10675  -0.121  12.569   4.252  2.0516 -1.0301  2.9806
  820MOL0     H10676  -0.013  12.288   4.245  1.1118  1.0246 -2.9626
  820MOL0     H10677   0.006  12.416   4.370 -0.9052 -4.4529  2.5747
  820MOL0     H10678  -0.262  12.300   4.291 -1.4932  3.7553  1.0146
  820MOL0     H10679  -0.224  12.394   4.426 -1.6969  2.1002 -1.0233
  820MOL0     H10680  -0.073  12.232   4.522 -0.8109  2.4606  0.7669
  820MOL0     H10681  -0.112  12.113   4.397  1.5909 -0.7475  2.0992
  820MOL0     H10682   0.585  12.772   4.261  0.9859 -1.8449 -0.6318
  820MOL0     H10683   0.785  12.805   4.435  0.9470  0.1557  3.3955
  820MOL0     H10684   1.096  12.426   4.769 -0.6209 -0.2726 -0.0977
  820MOL0     H10685   1.315  12.498   4.885  1.0780  1.1329  2.6953
  820MOL0     H10686   0.221  11.652   4.931  2.0575  1.1494  0.6161
  820MOL0     H10687   0.123  11.415   4.977  3.8065 -0.4587  0.3970
  820MOL0     H10688   0.286  10.976   5.291  0.6416 -0.1522 -1.2534
  820MOL0     H10689   0.214  10.757   5.218  0.6356 -0.1042 -0.4770
  820MOL0     H10690  -0.150  10.590   5.002 -0.7926  1.1868  0.9619
  820MOL0     H10691  -0.098  10.726   4.909 -0.1517  0.9174  0.9132
  820MOL0     H10692   0.083  10.473   4.945  0.8135  0.8925  0.3409
  820MOL0     H10693   0.093  10.605   4.814  0.5666 -0.7785 -1.5065
  820MOL0     H10694  -0.145  10.521   4.744 -0.7580  1.6031  2.1472
  820MOL0     H10695  -0.128  10.391   4.861 -0.7300 -1.4264 -1.8703
  820MOL0     H10696   0.028  10.439   4.597  3.0342  2.1918  2.0944
  820MOL0     H10697  -0.062  10.295   4.668  0.5519 -0.6635  1.8732
  820MOL0     H10698   0.326  10.200   4.728  1.4426  2.0887  2.3852
  820MOL0     H10699  -0.127  10.904   5.023 -0.0140 -0.3991  1.8145
  820MOL0     H10700  -0.047  11.132   5.063  1.8222  0.6567  0.6366
  821MOL0     O10701   0.710   8.196   7.040 -0.3210 -0.3008  0.2768
  821MOL0     C10702   0.758   8.141   6.943 -0.1525  0.7851  0.3623
  821MOL0     O10703   0.733   8.014   6.907 -1.1777 -0.4956  0.4431
  821MOL0     C10704   0.626   7.942   6.953 -0.0653  0.3051  0.5615
  821MOL0     C10705   0.532   7.894   6.857 -0.0721  0.0158  0.7504
  821MOL0     C10706   0.428   7.805   6.887  0.7246  0.3710 -0.1594
  821MOL0     C10707   0.424   7.749   7.019 -0.1207 -0.0453  0.4550
  821MOL0     O10708   0.324   7.662   7.040  0.4593 -0.0918 -0.4879
  821MOL0     C10709   0.311   7.595   7.163  0.5380 -0.4611  0.6653
  821MOL0     C10710   0.188   7.513   7.173 -0.0079  0.4296 -0.0259
  821MOL0     C10711   0.214   7.378   7.099  0.1203 -1.0766 -0.6638
  821MOL0     C10712   0.155   7.255   7.170  0.8796 -0.1415  0.0858
  821MOL0     C10713   0.157   7.129   7.079 -0.3100  0.1351  1.0756
  821MOL0     C10714   0.091   7.015   7.160 -0.6397  0.0101  0.4084
  821MOL0     C10715   0.144   6.879   7.123  0.3789 -0.6407  0.0841
  821MOL0     C10716   0.058   6.754   7.164 -0.1649 -1.0269  0.3029
  821MOL0     N10717   0.001   6.748   7.298  0.0732  0.1808 -0.3781
  821MOL0     C10718   0.049   6.734   7.431 -0.1778 -0.0958  0.3685
  821MOL0     C10719  -0.062   6.723   7.509 -0.8544 -0.4409 -0.0934
  821MOL0     C10720  -0.076   6.707   7.652  0.4673 -0.5772 -0.0906
  821MOL0     C10721  -0.030   6.829   7.741 -0.3492  0.8257  0.7748
  821MOL0     C10722  -0.030   6.791   7.895 -0.7177  0.3141 -0.9053
  821MOL0     C10723   0.002   6.915   7.991  0.8594  0.0658 -0.5126
  821MOL0     O10724  -0.106   7.013   7.995  0.4630 -0.2608 -0.1083
  821MOL0     C10725  -0.098   7.094   8.107 -0.6705 -0.2807 -0.5232
  821MOL0     C10726   0.014   7.185   8.115  0.4697  0.0723  0.5088
  821MOL0     C10727   0.036   7.266   8.227 -0.0957  0.6232 -0.0220
  821MOL0     C10728   0.147   7.364   8.206  0.3577  0.0009 -1.1153
  821MOL0     C10729  -0.053   7.254   8.339 -0.1897 -0.9650  0.3787
  821MOL0     C10730  -0.013   7.326   8.472  0.4973  0.6560  0.4385
  821MOL0     O10731   0.114   7.372   8.486  0.3688  0.0133  0.1507
  821MOL0     C10732   0.177   7.379   8.606 -0.9189  0.3902  0.0401
  821MOL0     C10733   0.134   7.352   8.739  0.3533 -0.1395 -0.2888
  821MOL0     C10734   0.220   7.363   8.846  1.2027 -0.2616 -0.1541
  821MOL0     C10735   0.349   7.396   8.829 -0.5794  1.4516 -0.4078
  821MOL0     O10736   0.440   7.394   8.925  0.4082  0.3858 -0.2261
  821MOL0     C10737   0.410   7.434   9.057 -0.4114  0.0192 -0.5350
  821MOL0     C10738   0.545   7.458   9.127 -0.1276 -1.7201  0.0092
  821MOL0     C10739   0.601   7.597   9.077 -0.8500  0.6291 -0.3548
  821MOL0     C10740   0.728   7.641   9.149  0.1239 -0.8370 -0.3498
  821MOL0     C10741   0.768   7.789   9.115 -0.0320  0.4971 -0.1535
  821MOL0     C10742   0.838   7.803   8.987  0.3923  0.6874 -0.3180
  821MOL0     C10743   0.859   7.951   8.954 -0.5766  0.4811  0.4294
  821MOL0     C10744   1.002   7.990   8.999  0.6688 -0.3727  0.3101
  821MOL0    Cl10745   1.140   7.943   8.887  0.1024  0.0211  0.0068
  821MOL0     C10746   0.398   7.416   8.707  0.1705  0.4797  0.3033
  821MOL0     C10747   0.314   7.404   8.593 -0.0575 -0.5595 -0.2192
  821MOL0     O10748  -0.101   7.342   8.556 -0.2056 -0.2201  0.2190
  821MOL0     C10749  -0.169   7.181   8.322  0.1639  0.4100  0.8767
  821MOL0     C10750  -0.192   7.098   8.208 -0.5129  0.3194 -0.4216
  821MOL0     N10751  -0.172   6.718   7.428 -0.9994  0.0363 -0.4686
  821MOL0     N10752  -0.138   6.747   7.306  0.6491  0.0933  0.0540
  821MOL0     C10753   0.513   7.800   7.118 -0.7800  0.1933 -0.4187
  821MOL0     C10754   0.616   7.894   7.085 -0.7895  0.1908 -0.0506
  821MOL0     C10755   0.866   8.207   6.868 -0.8082  0.3461 -0.4231
  821MOL0     C10756   0.917   8.143   6.750 -0.0945 -0.3155  0.6632
  821MOL0     C10757   0.978   8.217   6.651 -0.2321 -0.3282  0.4628
  821MOL0     C10758   1.007   8.350   6.679  0.4435 -0.1787 -0.3071
  821MOL0     O10759   1.072   8.429   6.583 -0.0159 -0.1057  0.4209
  821MOL0     C10760   1.121   8.563   6.602  1.2336 -0.1202 -0.4507
  821MOL0     C10761   1.236   8.560   6.703 -0.2247  0.8050 -0.8091
  821MOL0     C10762   1.271   8.709   6.734  0.0672  0.6246 -0.6243
  821MOL0     C10763   1.401   8.775   6.676 -0.2141  0.4441 -0.3336
  821MOL0     C10764   1.514   8.695   6.715  0.1206 -0.7054  0.1833
  821MOL0     C10765   1.599   8.630   6.774  0.0862 -0.1416  0.5613
  821MOL0     C10766   0.969   8.407   6.792 -0.3465 -0.2060  0.1336
  821MOL0     C10767   0.901   8.338   6.894  0.7579 -0.2506 -0.2682
  821MOL0     H10768   0.535   7.949   6.763  1.1369 -0.2848  0.5905
  821MOL0     H10769   0.349   7.769   6.823 -0.4028 -0.7103  1.7342
  821MOL0     H10770   0.397   7.530   7.182 -0.3789 -1.1608  2.6195
  821MOL0     H10771   0.310   7.672   7.241  1.0151 -0.2847  0.5043
  821MOL0     H10772   0.168   7.501   7.280 -1.3314 -0.0035 -0.2994
  821MOL0     H10773   0.108   7.559   7.114 -2.5463 -1.4414  1.7464
  821MOL0     H10774   0.171   7.383   6.999  1.8313  0.3061 -1.3659
  821MOL0     H10775   0.319   7.356   7.077  0.5703 -0.0816  0.3850
  821MOL0     H10776   0.222   7.246   7.256  1.1740 -0.7735 -0.1999
  821MOL0     H10777   0.051   7.278   7.193 -0.6354 -0.3277 -5.1855
  821MOL0     H10778   0.113   7.154   6.982 -0.1725 -0.5500  0.8350
  821MOL0     H10779   0.262   7.112   7.054  0.2821  2.6422  1.5795
  821MOL0     H10780   0.134   7.029   7.260  1.6069  1.6885 -0.6938
  821MOL0     H10781  -0.017   7.031   7.149 -0.5881  1.2289  1.4420
  821MOL0     H10782   0.145   6.881   7.014  1.3593 -1.0587  0.0768
  821MOL0     H10783   0.250   6.875   7.150  0.8568  3.2316 -0.6173
  821MOL0     H10784   0.120   6.667   7.143  0.8928 -0.2043 -0.0454
  821MOL0     H10785  -0.020   6.766   7.088  3.6454 -0.7746 -4.0403
  821MOL0     H10786   0.152   6.725   7.465  0.5299  0.1892 -1.5742
  821MOL0     H10787  -0.181   6.685   7.672  0.3282  1.6868  2.1757
  821MOL0     H10788  -0.008   6.624   7.678 -0.3826 -0.4406  2.9471
  821MOL0     H10789  -0.093   6.919   7.735 -1.3165  0.1812  0.9497
  821MOL0     H10790   0.074   6.840   7.711 -0.7525 -3.0021 -2.8685
  821MOL0     H10791   0.034   6.704   7.910 -2.1056 -0.4712  0.7056
  821MOL0     H10792  -0.132   6.759   7.917 -0.9424  1.6887  0.1908
  821MOL0     H10793   0.094   6.971   7.969  0.7446  1.2345  1.6769
  821MOL0     H10794   0.012   6.874   8.092 -0.6527  0.6721 -0.0860
  821MOL0     H10795   0.073   7.201   8.025  2.1532 -2.3832  1.1105
  821MOL0     H10796   0.141   7.391   8.100  1.0092  0.6913 -0.9895
  821MOL0     H10797   0.119   7.450   8.268 -0.2828 -0.8584 -0.1841
  821MOL0     H10798   0.244   7.326   8.240  0.0046  0.3086  0.3117
  821MOL0     H10799   0.038   7.304   8.758  0.2026  0.5755  0.9333
  821MOL0     H10800   0.173   7.337   8.941 -3.1215 -1.2461 -2.2951
  821MOL0     H10801   0.351   7.527   9.054 -2.5834 -1.3166 -1.1888
  821MOL0     H10802   0.347   7.361   9.108  1.8006 -1.7923 -0.2710
  821MOL0     H10803   0.538   7.472   9.235  3.7837  3.1785 -0.0179
  821MOL0     H10804   0.604   7.369   9.102 -0.4850 -1.4926 -1.7832
  821MOL0     H10805   0.526   7.674   9.097 -2.2420 -0.3685 -1.5273
  821MOL0     H10806   0.614   7.595   8.968 -1.2277 -0.3195 -0.3891
  821MOL0     H10807   0.711   7.630   9.257  2.5950  0.8284  0.2925
  821MOL0     H10808   0.814   7.583   9.114  0.9688 -2.3846  3.7272
  821MOL0     H10809   0.835   7.831   9.191  1.8549  1.4462 -2.2371
  821MOL0     H10810   0.672   7.836   9.094 -0.9135 -1.5435 -1.0113
  821MOL0     H10811   0.933   7.749   8.988 -1.4561 -2.8351  0.3720
  821MOL0     H10812   0.770   7.768   8.909  1.3206 -1.9727 -0.0169
  821MOL0     H10813   0.784   8.008   9.009  0.4351 -0.2908  2.7490
  821MOL0     H10814   0.858   7.976   8.847  0.3837 -0.0042  0.2983
  821MOL0     H10815   1.014   7.943   9.097 -1.2247 -1.4733  0.0719
  821MOL0     H10816   1.014   8.099   9.005 -4.8801  0.4733  1.6311
  821MOL0     H10817   0.505   7.405   8.688  0.2979 -0.7060  1.5294
  821MOL0     H10818   0.355   7.431   8.496 -0.6476 -1.6614 -0.7902
  821MOL0     H10819  -0.244   7.179   8.400 -0.9964  0.1312 -0.2097
  821MOL0     H10820  -0.283   7.044   8.185 -0.9772  1.2719 -0.8844
  821MOL0     H10821   0.510   7.753   7.215  0.8075 -0.5714 -0.7088
  821MOL0     H10822   0.697   7.918   7.154 -0.2656  6.7162 -2.2547
  821MOL0     H10823   0.892   8.040   6.725  1.1871 -0.5349  0.2223
  821MOL0     H10824   1.008   8.184   6.552  1.4218  1.2166  0.3927
  821MOL0     H10825   1.148   8.611   6.508  2.4261  0.6352  0.2472
  821MOL0     H10826   1.041   8.622   6.647  3.0854  2.3886 -0.2292
  821MOL0     H10827   1.318   8.498   6.666 -0.6541 -1.3618  1.6333
  821MOL0     H10828   1.209   8.508   6.795 -0.0708  0.8037 -0.7651
  821MOL0     H10829   1.268   8.741   6.838  2.5927  0.6284 -0.4774
  821MOL0     H10830   1.199   8.769   6.679 -0.3431 -1.1896 -2.1864
  821MOL0     H10831   1.406   8.869   6.731  0.0809 -0.1935  0.7816
  821MOL0     H10832   1.390   8.789   6.568  0.9100 -1.5340 -0.7728
  821MOL0     H10833   1.672   8.575   6.831 -0.9362 -0.3118  1.7592
  821MOL0     H10834   0.990   8.511   6.813 -1.4107 -0.5950  3.6662
  821MOL0     H10835   0.850   8.390   6.975  0.0257 -0.9255 -0.2901
  822MOL0     O10836   1.256   5.350   0.617  0.3373  0.6057  2.0688
  822MOL0     C10837   1.183   5.323   0.517  0.1017  0.4096  0.1804
  822MOL0     O10838   1.060   5.280   0.526  0.9265  0.0965 -0.1219
  822MOL0     C10839   0.992   5.321   0.643  0.0484  0.0468 -0.2944
  822MOL0     C10840   0.984   5.453   0.706 -0.5844  0.2639  0.1690
  822MOL0     C10841   0.908   5.464   0.823 -1.0488  0.1582 -0.4927
  822MOL0     C10842   0.843   5.350   0.886 -0.5573  0.1474  0.2717
  822MOL0     O10843   0.784   5.349   1.010  0.7488 -0.0919 -0.8231
  822MOL0     C10844   0.782   5.474   1.084  0.2127  0.4538 -0.2293
  822MOL0     C10845   0.675   5.466   1.201 -0.1810 -0.5870 -0.0074
  822MOL0     C10846   0.707   5.372   1.312 -0.0754 -0.0109  1.0822
  822MOL0     C10847   0.613   5.375   1.428 -0.7092 -1.0847  0.0056
  822MOL0     C10848   0.657   5.283   1.539 -0.0115 -0.5748 -0.3553
  822MOL0     C10849   0.591   5.308   1.679  0.5030 -0.0161 -0.2176
  822MOL0     C10850   0.575   5.187   1.762 -0.4676 -0.0498  0.7907
  822MOL0     C10851   0.553   5.222   1.910  0.0370  0.0404 -0.7258
  822MOL0     N10852   0.408   5.230   1.946 -0.2365 -0.0815  0.2104
  822MOL0     C10853   0.319   5.315   1.886 -0.1191 -0.3243 -1.1924
  822MOL0     C10854   0.196   5.279   1.937  0.0242  0.0370 -0.9847
  822MOL0     C10855   0.057   5.339   1.921  0.5650  0.7754 -0.0103
  822MOL0     C10856   0.046   5.402   1.785 -0.4023 -0.5208  0.3621
  822MOL0     C10857  -0.094   5.437   1.734 -0.2870  0.0699  0.0482
  822MOL0     C10858  -0.158   5.549   1.817  1.0254  0.3236  0.0171
  822MOL0     O10859  -0.070   5.671   1.835 -0.7463 -0.3803  0.1381
  822MOL0     C10860  -0.135   5.767   1.911  0.2772 -0.2954  0.2853
  822MOL0     C10861  -0.126   5.769   2.050 -0.3404 -0.4736 -0.7248
  822MOL0     C10862  -0.201   5.851   2.132  0.2720  0.0462  0.2641
  822MOL0     C10863  -0.178   5.832   2.280 -0.2162 -0.0620 -0.0459
  822MOL0     C10864  -0.278   5.957   2.076  0.2396  0.5283  0.3930
  822MOL0     C10865  -0.354   6.054   2.157  0.5724  0.1784  0.1712
  822MOL0     O10866  -0.424   6.139   2.083 -0.3717 -0.8775 -0.1230
  822MOL0     C10867  -0.498   6.238   2.144  0.5373  0.1112  0.0884
  822MOL0     C10868  -0.474   6.313   2.260 -0.4524 -0.1879 -0.6385
  822MOL0     C10869  -0.561   6.422   2.287 -0.4380  1.0809  0.2935
  822MOL0     C10870  -0.672   6.451   2.217  0.3870 -0.1322 -0.8724
  822MOL0     O10871  -0.756   6.548   2.270  0.1391 -0.0680  0.3170
  822MOL0     C10872  -0.889   6.563   2.217 -0.2231  0.9993 -0.1012
  822MOL0     C10873  -0.958   6.685   2.277 -0.1260  0.1683  0.2878
  822MOL0     C10874  -1.011   6.787   2.175 -0.1722 -0.2308 -0.9696
  822MOL0     C10875  -1.048   6.917   2.250  0.4552  0.4277 -0.0873
  822MOL0     C10876  -1.134   7.014   2.155  0.5414  0.3764  0.3495
  822MOL0     C10877  -1.224   7.122   2.212  0.0304 -0.1855 -0.1900
  822MOL0     C10878  -1.155   7.213   2.315 -0.7706 -0.0101 -0.3010
  822MOL0     C10879  -1.026   7.283   2.263  0.0286 -0.6603 -0.4649
  822MOL0    Cl10880  -1.082   7.439   2.186  0.5448 -0.2653 -0.3273
  822MOL0     C10881  -0.701   6.375   2.102  0.0642  0.1244 -0.3559
  822MOL0     C10882  -0.617   6.266   2.071  0.0542 -0.7352 -1.4420
  822MOL0     O10883  -0.347   6.048   2.287  0.6174 -0.2228  0.4043
  822MOL0     C10884  -0.263   5.979   1.935  0.0309 -0.5928  0.2897
  822MOL0     C10885  -0.194   5.885   1.856 -0.5553 -0.6752  0.1040
  822MOL0     N10886   0.223   5.187   2.036  0.9265 -0.3187  0.0812
  822MOL0     N10887   0.348   5.166   2.050  0.1579 -0.8424 -0.4130
  822MOL0     C10888   0.853   5.227   0.812  0.4222  0.8273  0.9064
  822MOL0     C10889   0.929   5.214   0.698 -0.0224 -0.2088  0.4318
  822MOL0     C10890   1.242   5.316   0.384 -0.1987 -0.4283 -0.6755
  822MOL0     C10891   1.371   5.359   0.355  1.0198  0.0620 -0.2655
  822MOL0     C10892   1.436   5.328   0.228 -0.2547 -0.5130 -0.4835
  822MOL0     C10893   1.357   5.269   0.126  0.0976 -0.6480  0.2165
  822MOL0     O10894   1.414   5.239   0.002  0.3636 -0.0741  0.2901
  822MOL0     C10895   1.512   5.142  -0.002  0.1925 -0.5216  0.2740
  822MOL0     C10896   1.432   5.012  -0.020 -0.1134 -0.0414 -0.5846
  822MOL0     C10897   1.386   4.969  -0.162  0.1183 -0.2071  0.1731
  822MOL0     C10898   1.257   4.898  -0.161  0.4616 -0.3700 -0.2166
  822MOL0     C10899   1.137   4.993  -0.134 -0.0140 -0.2752  0.1073
  822MOL0     C10900   1.044   5.072  -0.143  0.0748 -0.4644 -0.6549
  822MOL0     C10901   1.223   5.253   0.153  0.1660 -0.0013  0.5859
  822MOL0     C10902   1.163   5.278   0.274 -0.4562 -0.2967  0.2567
  822MOL0     H10903   1.025   5.549   0.676  0.9949  0.5863  3.0674
  822MOL0     H10904   0.908   5.565   0.863  4.7418  0.1913  0.2669
  822MOL0     H10905   0.880   5.498   1.124 -0.3008 -1.5774  2.5627
  822MOL0     H10906   0.755   5.558   1.019  0.6751  0.8129  0.0373
  822MOL0     H10907   0.680   5.563   1.252  0.2482 -1.2168  1.1749
  822MOL0     H10908   0.575   5.456   1.158  0.1623  1.1642 -1.3421
  822MOL0     H10909   0.704   5.274   1.264  0.5800  0.5251 -0.0796
  822MOL0     H10910   0.807   5.396   1.349 -0.6156  2.7773  0.9534
  822MOL0     H10911   0.599   5.478   1.462  1.9869 -0.2681 -1.0924
  822MOL0     H10912   0.511   5.346   1.403 -0.9818  0.8278 -1.3468
  822MOL0     H10913   0.638   5.178   1.516 -1.7100 -0.6158  1.0581
  822MOL0     H10914   0.764   5.299   1.552 -0.2198  3.0885 -1.8048
  822MOL0     H10915   0.642   5.391   1.727 -0.0313  1.3455 -1.9110
  822MOL0     H10916   0.490   5.349   1.665  0.6513  0.1601 -0.7865
  822MOL0     H10917   0.498   5.130   1.709  1.3762  0.5210 -2.7823
  822MOL0     H10918   0.659   5.118   1.761 -0.6356 -0.4741 -3.7863
  822MOL0     H10919   0.590   5.322   1.935 -1.8805  0.2389  1.5958
  822MOL0     H10920   0.594   5.144   1.975 -2.9943 -0.4417  0.7813
  822MOL0     H10921   0.340   5.396   1.817  1.2392 -0.3242 -0.8110
  822MOL0     H10922  -0.017   5.259   1.931  2.0447 -0.7497 -0.6447
  822MOL0     H10923   0.046   5.421   1.991 -1.8609  2.3968 -2.1321
  822MOL0     H10924   0.091   5.331   1.715 -2.1762 -0.9852 -0.3789
  822MOL0     H10925   0.115   5.487   1.781 -2.2749  1.0420 -0.8528
  822MOL0     H10926  -0.162   5.352   1.727  0.0247 -0.2037  0.2801
  822MOL0     H10927  -0.085   5.468   1.629  1.2638 -3.0997 -0.9016
  822MOL0     H10928  -0.181   5.513   1.918  2.2751  2.6597  1.2232
  822MOL0     H10929  -0.255   5.579   1.775  1.1731 -0.4977 -0.9481
  822MOL0     H10930  -0.054   5.697   2.087 -0.6196  0.3294  1.5040
  822MOL0     H10931  -0.108   5.749   2.298 -1.3245 -1.4673 -1.8573
  822MOL0     H10932  -0.119   5.917   2.314  0.4589 -0.3563 -0.4691
  822MOL0     H10933  -0.270   5.813   2.337 -0.7272  4.3875  0.9581
  822MOL0     H10934  -0.386   6.289   2.319 -2.4294 -2.1528  1.7214
  822MOL0     H10935  -0.556   6.463   2.387 -0.3690 -2.2732  1.7672
  822MOL0     H10936  -0.891   6.564   2.108 -0.8788 -0.9045 -0.1477
  822MOL0     H10937  -0.946   6.479   2.257 -2.6778  2.9817  0.8386
  822MOL0     H10938  -1.049   6.655   2.330 -2.4877  0.1697 -3.3601
  822MOL0     H10939  -0.882   6.726   2.344  1.6680 -0.3084 -1.3328
  822MOL0     H10940  -1.087   6.748   2.108  0.4553 -0.7171 -1.4173
  822MOL0     H10941  -0.930   6.829   2.113 -1.1506 -0.2569 -2.3098
  822MOL0     H10942  -1.114   6.879   2.328 -1.7594  3.2638 -0.4150
  822MOL0     H10943  -0.967   6.979   2.289  1.1989 -1.2972  1.2174
  822MOL0     H10944  -1.204   6.954   2.098  0.5539  0.7637 -0.0791
  822MOL0     H10945  -1.063   7.065   2.088  0.9745 -0.2888  0.2909
  822MOL0     H10946  -1.257   7.191   2.133 -1.6455 -0.8784 -0.1322
  822MOL0     H10947  -1.310   7.078   2.263  2.1593 -2.4584  1.7055
  822MOL0     H10948  -1.113   7.152   2.396  4.1738  2.0425 -0.9260
  822MOL0     H10949  -1.219   7.286   2.365  0.3327  1.4372 -0.9254
  822MOL0     H10950  -0.971   7.219   2.194  0.0408  1.3720 -2.4460
  822MOL0     H10951  -0.971   7.314   2.353 -0.5416 -3.1526  0.8442
  822MOL0     H10952  -0.799   6.382   2.056 -0.3405 -0.1049  0.4425
  822MOL0     H10953  -0.624   6.199   1.986 -0.5586 -1.4611 -0.8397
  822MOL0     H10954  -0.306   6.067   1.889  0.7317 -0.6979 -0.5920
  822MOL0     H10955  -0.203   5.911   1.751 -2.1603  2.2607  0.8465
  822MOL0     H10956   0.805   5.140   0.856  0.7841  0.5101  0.6691
  822MOL0     H10957   0.951   5.125   0.640 -0.6211 -1.4986  2.1065
  822MOL0     H10958   1.439   5.402   0.428  0.8123  0.1334 -0.1141
  822MOL0     H10959   1.537   5.353   0.201 -0.4188  2.5567  1.2641
  822MOL0     H10960   1.582   5.152  -0.086  2.7555 -3.7114  1.8138
  822MOL0     H10961   1.584   5.145   0.081  0.2751  1.4761  0.1871
  822MOL0     H10962   1.349   5.016   0.052 -0.3865  1.6148 -0.9515
  822MOL0     H10963   1.471   4.923   0.030 -0.8243  1.2513  2.5662
  822MOL0     H10964   1.467   4.905  -0.199 -0.6116 -0.7345 -0.5280
  822MOL0     H10965   1.386   5.060  -0.221  0.6120 -1.8604 -2.5284
  822MOL0     H10966   1.254   4.826  -0.078 -3.5988 -1.4200 -1.0164
  822MOL0     H10967   1.239   4.852  -0.259  0.2751  2.0253 -1.3723
  822MOL0     H10968   0.979   5.154  -0.120 -0.2386 -1.2242  1.3728
  822MOL0     H10969   1.159   5.222   0.072 -0.4343 -1.1205  1.4639
  822MOL0     H10970   1.057   5.255   0.279 -0.2702 -1.1483  0.5633
  823MOL0     O10971   0.894   0.417   6.382  1.2811  0.9828  0.4178
  823MOL0     C10972   0.855   0.483   6.286  0.8197 -0.2548 -0.2193
  823MOL0     O10973   0.939   0.515   6.180 -0.4177  0.0235  0.2750
  823MOL0     C10974   1.059   0.447   6.185  0.8398  0.2365  0.9573
  823MOL0     C10975   1.176   0.521   6.190  0.4650  1.1358 -0.6765
  823MOL0     C10976   1.301   0.460   6.216  0.4125  0.7591 -1.0296
  823MOL0     C10977   1.311   0.313   6.222  0.3171  0.2605 -0.2725
  823MOL0     O10978   1.422   0.241   6.235  0.2317  0.3817  0.3005
  823MOL0     C10979   1.526   0.290   6.320  0.5420 -0.2334  0.8867
  823MOL0     C10980   1.624   0.179   6.338 -1.2399  0.1024 -0.1092
  823MOL0     C10981   1.747   0.226   6.422 -0.1827  0.6828  0.0491
  823MOL0     C10982   1.831   0.326   6.342  0.6756  1.1409  0.0989
  823MOL0     C10983   1.958   0.344   6.430 -0.5132 -0.6017  0.6897
  823MOL0     C10984   2.042   0.462   6.369 -0.9583  0.3700  0.3131
  823MOL0     C10985   2.189   0.473   6.435  0.7169 -0.4507 -1.1881
  823MOL0     C10986   2.176   0.536   6.579 -0.5311 -0.2985  0.4868
  823MOL0     N10987   2.313   0.534   6.650 -0.2045  0.3004 -1.1686
  823MOL0     C10988   2.333   0.452   6.752  0.2989  0.3003 -1.0838
  823MOL0     C10989   2.458   0.469   6.788 -0.1839  0.3858 -0.7587
  823MOL0     C10990   2.542   0.403   6.899  0.2068 -0.0608  0.1880
  823MOL0     C10991   2.499   0.440   7.041  0.5899 -0.0303 -0.2489
  823MOL0     C10992   2.489   0.593   7.050  0.7612  0.1816  1.4180
  823MOL0     C10993   2.488   0.629   7.201  0.6244  0.5351  1.3058
  823MOL0     O10994   2.408   0.535   7.283  0.1713 -0.2075  0.6076
  823MOL0     C10995   2.414   0.553   7.413 -0.5416  0.5196 -0.5814
  823MOL0     C10996   2.334   0.463   7.488  0.5198  0.7898 -0.8253
  823MOL0     C10997   2.296   0.483   7.621 -0.4457 -0.4155 -0.1334
  823MOL0     C10998   2.182   0.393   7.672 -0.1709  0.5978 -0.0278
  823MOL0     C10999   2.364   0.587   7.690  0.4754 -0.6686 -1.1724
  823MOL0     C11000   2.350   0.612   7.840 -1.1824 -0.2476  0.6420
  823MOL0     O11001   2.457   0.660   7.907 -0.1563  0.2695  0.3166
  823MOL0     C11002   2.436   0.690   8.036 -0.5984 -0.1566 -0.0834
  823MOL0     C11003   2.395   0.601   8.136 -0.3660  0.1901  0.5490
  823MOL0     C11004   2.375   0.640   8.269  0.1396 -0.1027 -0.0472
  823MOL0     C11005   2.388   0.778   8.302 -0.6237  0.1267 -1.0323
  823MOL0     O11006   2.384   0.816   8.431  0.2610 -0.2832 -0.7021
  823MOL0     C11007   2.341   0.729   8.531  0.1924  0.0448  0.8046
  823MOL0     C11008   2.328   0.820   8.655  0.4541 -0.3780  0.4076
  823MOL0     C11009   2.291   0.751   8.789  0.0733  1.2039  0.8979
  823MOL0     C11010   2.401   0.685   8.886 -1.0439 -0.4180  0.0628
  823MOL0     C11011   2.527   0.612   8.820 -0.0407 -0.3803 -0.6984
  823MOL0     C11012   2.628   0.580   8.934 -0.1659  0.1592 -0.3667
  823MOL0     C11013   2.752   0.504   8.891  0.8789  0.1751  0.1109
  823MOL0     C11014   2.841   0.496   9.003 -0.5007  0.0729  0.3085
  823MOL0    Cl11015   2.940   0.643   9.020  0.3267  0.1034  0.1308
  823MOL0     C11016   2.419   0.870   8.200  0.0873  0.3283  0.5447
  823MOL0     C11017   2.447   0.821   8.068 -0.4117 -0.2902 -0.0569
  823MOL0     O11018   2.239   0.594   7.888  1.1203 -0.3146 -0.8096
  823MOL0     C11019   2.452   0.673   7.621 -0.3010  0.3167 -0.5086
  823MOL0     C11020   2.475   0.654   7.491  0.7288 -0.1116  0.3491
  823MOL0     N11021   2.512   0.558   6.713 -0.1533 -0.0567  0.5540
  823MOL0     N11022   2.426   0.606   6.630 -0.4224 -0.8302  0.9309
  823MOL0     C11023   1.189   0.249   6.205  0.0401 -0.2212  0.7352
  823MOL0     C11024   1.064   0.309   6.184 -0.4755  0.7010 -0.3323
  823MOL0     C11025   0.725   0.539   6.288  0.7390 -0.7156  0.2516
  823MOL0     C11026   0.679   0.630   6.190  0.2375  0.4943 -0.5979
  823MOL0     C11027   0.541   0.682   6.190 -1.0685 -0.5854  0.5216
  823MOL0     C11028   0.458   0.648   6.297 -0.5250 -0.4252  0.3003
  823MOL0     O11029   0.330   0.683   6.314  0.5649  0.3524 -0.5155
  823MOL0     C11030   0.298   0.814   6.274 -0.4954  0.4843 -0.8033
  823MOL0     C11031   0.357   0.928   6.356  1.0394 -0.1599  0.2892
  823MOL0     C11032   0.342   0.905   6.507  0.4881  0.6685  0.0719
  823MOL0     C11033   0.390   1.016   6.603  0.6282 -0.4496  0.6694
  823MOL0     C11034   0.377   0.972   6.743 -0.6766 -1.3029  0.2364
  823MOL0     C11035   0.362   0.953   6.860  0.5617 -0.9048 -0.0266
  823MOL0     C11036   0.504   0.547   6.379  0.0893 -0.2409  0.8863
  823MOL0     C11037   0.632   0.493   6.376  0.0323  0.2322 -0.0290
  823MOL0     H11038   1.166   0.630   6.189 -0.2850  1.0900  0.3100
  823MOL0     H11039   1.386   0.527   6.226 -0.7507  2.2751 -0.8764
  823MOL0     H11040   1.575   0.371   6.265 -1.3919 -0.0395 -0.6425
  823MOL0     H11041   1.477   0.326   6.411 -2.9226  2.6226 -1.8153
  823MOL0     H11042   1.579   0.100   6.399  2.5982 -0.1373  2.8788
  823MOL0     H11043   1.645   0.142   6.238  1.5598  1.8794 -0.3162
  823MOL0     H11044   1.729   0.267   6.522  3.7350  1.7300  0.5158
  823MOL0     H11045   1.798   0.131   6.442 -2.6143 -1.0177 -1.3682
  823MOL0     H11046   1.843   0.286   6.241 -0.3230  3.9263 -1.2366
  823MOL0     H11047   1.784   0.424   6.331 -2.2143 -0.1338  0.1169
  823MOL0     H11048   1.923   0.365   6.531 -2.2741 -0.4602  0.0860
  823MOL0     H11049   2.018   0.253   6.423  2.0005  1.0328 -4.8475
  823MOL0     H11050   2.043   0.450   6.260 -0.2558  2.3968  0.0335
  823MOL0     H11051   1.988   0.555   6.390 -1.3067  0.0630  0.7773
  823MOL0     H11052   2.219   0.367   6.436 -2.6344 -1.5190 -1.6558
  823MOL0     H11053   2.253   0.539   6.375 -0.6671  0.5257 -1.6315
  823MOL0     H11054   2.097   0.500   6.645 -0.6728 -0.0117  0.4733
  823MOL0     H11055   2.159   0.641   6.553 -0.7520 -0.2691  0.7474
  823MOL0     H11056   2.265   0.382   6.800  0.8113 -0.0487 -0.8438
  823MOL0     H11057   2.531   0.294   6.896  1.2678 -0.1626 -0.2319
  823MOL0     H11058   2.648   0.423   6.882  0.2913 -0.9195 -0.3683
  823MOL0     H11059   2.568   0.394   7.112 -0.8926 -0.5451  0.9356
  823MOL0     H11060   2.399   0.398   7.060 -1.9657  3.7576 -3.7094
  823MOL0     H11061   2.398   0.625   7.000  0.2882 -0.6816  1.6983
  823MOL0     H11062   2.571   0.642   6.996  0.0447 -1.3218 -1.2087
  823MOL0     H11063   2.464   0.735   7.203 -0.3479  0.5026 -2.3147
  823MOL0     H11064   2.593   0.626   7.233  1.0783  2.5926  0.2198
  823MOL0     H11065   2.296   0.375   7.438 -2.0710  0.9341  0.7584
  823MOL0     H11066   2.088   0.435   7.636  1.3376  1.8921 -2.7667
  823MOL0     H11067   2.186   0.294   7.626 -2.0672  1.1415 -1.4548
  823MOL0     H11068   2.177   0.382   7.781  1.6365 -0.9790 -0.0371
  823MOL0     H11069   2.393   0.495   8.112  0.6341  0.7792 -2.7266
  823MOL0     H11070   2.340   0.574   8.348 -1.3444  1.5029  0.7073
  823MOL0     H11071   2.253   0.671   8.502  1.8683 -1.3139 -1.9648
  823MOL0     H11072   2.431   0.668   8.546  1.1551  1.3888  0.6856
  823MOL0     H11073   2.422   0.876   8.658 -0.4084  1.2855 -1.3523
  823MOL0     H11074   2.245   0.887   8.633 -1.3707 -2.7525 -0.4271
  823MOL0     H11075   2.208   0.685   8.764 -0.1248  1.7306  0.1055
  823MOL0     H11076   2.251   0.823   8.861  1.3628 -1.2953  4.3558
  823MOL0     H11077   2.415   0.760   8.964 -2.2976 -1.9454  1.8175
  823MOL0     H11078   2.360   0.600   8.941 -1.5002 -2.1648 -2.7558
  823MOL0     H11079   2.579   0.674   8.747  2.5790  3.4454  3.8166
  823MOL0     H11080   2.502   0.522   8.764 -1.5703  1.5838 -3.3821
  823MOL0     H11081   2.649   0.675   8.985  2.1061 -0.5172  0.0326
  823MOL0     H11082   2.574   0.509   8.997 -1.3047  1.9944  0.8577
  823MOL0     H11083   2.802   0.548   8.805  0.4330 -1.4070 -0.9938
  823MOL0     H11084   2.709   0.407   8.863  1.4888 -0.0040 -0.2110
  823MOL0     H11085   2.909   0.413   8.981  2.4894  2.6324 -0.8326
  823MOL0     H11086   2.788   0.470   9.095 -1.4148  0.6154 -0.0547
  823MOL0     H11087   2.429   0.977   8.216 -1.4066  0.5373  0.1708
  823MOL0     H11088   2.464   0.889   7.985  1.0812 -1.5675 -0.8580
  823MOL0     H11089   2.500   0.753   7.675  0.6465  1.3729 -2.7614
  823MOL0     H11090   2.537   0.731   7.447  2.1802 -1.4440 -0.0502
  823MOL0     H11091   1.192   0.141   6.211 -0.1755 -0.1477  4.8364
  823MOL0     H11092   0.972   0.251   6.192 -0.0283 -0.0950 -0.8405
  823MOL0     H11093   0.755   0.682   6.133 -0.2891 -0.2078 -1.9933
  823MOL0     H11094   0.513   0.764   6.125  0.9350  0.4008  0.8326
  823MOL0     H11095   0.317   0.828   6.167 -0.0224 -0.7447 -0.8953
  823MOL0     H11096   0.190   0.821   6.285 -0.3889  1.3490 -0.2326
  823MOL0     H11097   0.301   1.015   6.322 -1.1528 -2.3665 -2.1549
  823MOL0     H11098   0.465   0.935   6.339  1.0643  1.8853  0.9462
  823MOL0     H11099   0.405   0.817   6.526  0.8118  0.7629 -0.5327
  823MOL0     H11100   0.239   0.873   6.521 -0.0700 -0.2239 -4.4088
  823MOL0     H11101   0.333   1.108   6.588  1.4158  0.0284  0.5602
  823MOL0     H11102   0.493   1.049   6.585 -0.1639  2.4689  1.0617
  823MOL0     H11103   0.353   0.924   6.962 -3.8462 -0.9553 -0.2655
  823MOL0     H11104   0.425   0.514   6.445 -0.6431 -0.5756 -0.1441
  823MOL0     H11105   0.660   0.413   6.444  0.6862  0.9582  0.5623
  824MOL0     O11106   6.573   1.319   6.983  0.2710  0.0108  0.1917
  824MOL0     C11107   6.576   1.237   6.901  0.4551  0.8285 -0.6919
  824MOL0     O11108   6.689   1.196   6.829  0.0151 -0.4806 -0.0033
  824MOL0     C11109   6.815   1.240   6.848  0.0472 -0.6474 -0.7695
  824MOL0     C11110   6.896   1.275   6.747 -0.4810  0.3742  0.1887
  824MOL0     C11111   7.031   1.278   6.764 -0.3529  0.4399 -0.6947
  824MOL0     C11112   7.096   1.249   6.887 -0.1148  0.1807 -0.6876
  824MOL0     O11113   7.228   1.283   6.906  0.6243 -0.2483  0.1504
  824MOL0     C11114   7.278   1.237   7.032  0.0290 -1.2848  0.1653
  824MOL0     C11115   7.429   1.254   7.021 -0.5118 -0.4113 -0.3987
  824MOL0     C11116   7.516   1.209   7.136 -0.8168 -0.3339 -0.7565
  824MOL0     C11117   7.510   1.294   7.264  0.5381 -0.2814  0.1723
  824MOL0     C11118   7.593   1.238   7.378 -0.3715 -0.5996 -0.6015
  824MOL0     C11119   7.529   1.118   7.442 -0.5320  0.3008  0.1157
  824MOL0     C11120   7.603   1.094   7.572 -0.7531  0.1333  0.3112
  824MOL0     C11121   7.591   1.205   7.687  0.4228  0.1175  0.4262
  824MOL0     N11122   7.463   1.282   7.700 -0.6057  0.2471  0.9543
  824MOL0     C11123   7.447   1.412   7.691 -0.0177 -0.2369  0.4838
  824MOL0     C11124   7.329   1.437   7.748 -0.3421 -0.5845 -0.7332
  824MOL0     C11125   7.269   1.568   7.766 -0.1237 -0.7681  0.0077
  824MOL0     C11126   7.312   1.652   7.881 -0.8682 -0.0423  0.5169
  824MOL0     C11127   7.451   1.724   7.846  0.2598  0.3971  0.4615
  824MOL0     C11128   7.496   1.812   7.963 -0.3795 -0.9800  0.3691
  824MOL0     O11129   7.607   1.886   7.900 -0.1771 -0.6960 -0.0250
  824MOL0     C11130   7.734   1.854   7.931 -0.3544  0.4421  0.6873
  824MOL0     C11131   7.830   1.959   7.913  0.3621  0.6548  0.5665
  824MOL0     C11132   7.970   1.942   7.927 -0.3062  0.6364 -0.0072
  824MOL0     C11133   8.054   2.061   7.903  0.2140  0.0342  1.2899
  824MOL0     C11134   8.010   1.811   7.968  0.2478 -0.1982  0.3975
  824MOL0     C11135   8.144   1.769   7.986 -0.3587  0.4515 -0.4242
  824MOL0     O11136   8.168   1.663   8.067 -0.3764  0.0738 -0.4624
  824MOL0     C11137   8.298   1.615   8.077 -0.1416 -0.2738  0.9501
  824MOL0     C11138   8.371   1.549   7.968  0.2587 -1.0128 -0.6893
  824MOL0     C11139   8.500   1.494   7.993 -0.7714 -0.0084  0.5607
  824MOL0     C11140   8.562   1.500   8.120  0.1579 -0.0855 -0.3292
  824MOL0     O11141   8.673   1.425   8.132 -0.2104 -0.4774 -1.0463
  824MOL0     C11142   8.761   1.466   8.234  0.2841  1.0013 -0.5185
  824MOL0     C11143   8.905   1.422   8.201  0.0612  0.8873 -0.6309
  824MOL0     C11144   9.000   1.430   8.329  0.2676  0.1231 -0.0275
  824MOL0     C11145   9.136   1.365   8.308 -0.0164 -1.2241 -1.0836
  824MOL0     C11146   9.232   1.412   8.424  0.6845 -0.1626  0.5511
  824MOL0     C11147   9.372   1.329   8.426  0.2954 -1.3343  0.7327
  824MOL0     C11148   9.488   1.373   8.527  0.3428  0.3090 -0.1709
  824MOL0     C11149   9.570   1.494   8.483 -0.3293  0.8401 -0.2970
  824MOL0    Cl11150   9.680   1.444   8.335 -0.4022  0.0149  0.2995
  824MOL0     C11151   8.503   1.575   8.217 -0.7200 -0.0481 -0.6717
  824MOL0     C11152   8.367   1.623   8.197 -0.8682 -0.5268 -0.3288
  824MOL0     O11153   8.233   1.836   7.940  0.0373  0.6616  0.2464
  824MOL0     C11154   7.910   1.708   7.990 -0.3491 -0.7829  0.2487
  824MOL0     C11155   7.777   1.730   7.979 -0.0958  0.3271  0.2465
  824MOL0     N11156   7.271   1.319   7.788  0.2317 -0.8258  0.2186
  824MOL0     N11157   7.356   1.226   7.769 -0.2199  0.4026  0.5509
  824MOL0     C11158   7.001   1.216   6.995 -0.2115 -0.1581  0.1002
  824MOL0     C11159   6.869   1.212   6.973  0.0155 -0.5069  0.0517
  824MOL0     C11160   6.444   1.162   6.888  0.6879  0.8085 -0.0233
  824MOL0     C11161   6.437   1.073   6.788 -0.1645 -0.5353  1.5155
  824MOL0     C11162   6.315   1.021   6.752 -0.3251 -0.1719 -0.0680
  824MOL0     C11163   6.199   1.037   6.829  0.0440 -0.8623  0.0986
  824MOL0     O11164   6.071   0.989   6.803 -0.0141  0.3714 -0.1615
  824MOL0     C11165   6.047   0.948   6.671  0.6450  0.3174  0.0295
  824MOL0     C11166   6.039   1.075   6.580 -0.2907 -0.7807  0.8306
  824MOL0     C11167   5.957   1.196   6.638  0.8087 -0.1582 -0.8058
  824MOL0     C11168   5.805   1.167   6.616 -0.0360  0.3345  0.2400
  824MOL0     C11169   5.781   1.186   6.475  0.4889 -0.5508  0.2467
  824MOL0     C11170   5.769   1.202   6.354 -0.6572 -0.3376  0.1684
  824MOL0     C11171   6.207   1.124   6.942  0.2108  1.0185  0.2972
  824MOL0     C11172   6.329   1.186   6.971  0.1673 -0.4304  0.6939
  824MOL0     H11173   6.859   1.309   6.650  3.1237 -1.4655 -2.0425
  824MOL0     H11174   7.089   1.312   6.679 -0.0399 -0.7067 -0.9647
  824MOL0     H11175   7.241   1.301   7.113 -1.2552 -0.1516 -1.2451
  824MOL0     H11176   7.237   1.136   7.040 -1.8915 -0.6408 -0.9101
  824MOL0     H11177   7.463   1.204   6.930  1.9530  0.3720  0.0157
  824MOL0     H11178   7.454   1.359   7.001 -0.7537  0.0044  1.3191
  824MOL0     H11179   7.487   1.108   7.166 -0.1529 -0.0308  0.9972
  824MOL0     H11180   7.616   1.194   7.094 -0.8101 -3.6909  0.1814
  824MOL0     H11181   7.550   1.395   7.249 -0.3210 -0.0712 -0.8470
  824MOL0     H11182   7.403   1.308   7.286  0.6582  2.4387 -0.5920
  824MOL0     H11183   7.691   1.203   7.344  0.1353  0.2218 -0.0300
  824MOL0     H11184   7.597   1.322   7.449 -0.9330 -1.6364  0.7074
  824MOL0     H11185   7.422   1.130   7.460 -0.6052 -1.4036  0.9606
  824MOL0     H11186   7.550   1.033   7.377 -1.3681  0.4018 -0.3019
  824MOL0     H11187   7.567   0.997   7.606 -0.6338  0.6857  2.1289
  824MOL0     H11188   7.708   1.083   7.542 -1.0348  1.0077 -1.0950
  824MOL0     H11189   7.667   1.279   7.661 -1.4620  1.5249 -1.3271
  824MOL0     H11190   7.609   1.160   7.785 -0.4006  0.6790  0.8447
  824MOL0     H11191   7.518   1.485   7.654  1.5835  0.1533  3.9683
  824MOL0     H11192   7.265   1.619   7.670  1.2579 -0.6253  0.0009
  824MOL0     H11193   7.161   1.558   7.777 -0.2385  2.0624  2.8140
  824MOL0     H11194   7.318   1.598   7.976  4.7960 -0.3224  0.3435
  824MOL0     H11195   7.247   1.739   7.894  0.8855  1.3237  0.6441
  824MOL0     H11196   7.453   1.800   7.767  1.5132  1.6685  1.6648
  824MOL0     H11197   7.529   1.657   7.809  0.0563  1.8449 -2.9939
  824MOL0     H11198   7.529   1.758   8.051  3.5712 -2.2829 -1.6502
  824MOL0     H11199   7.410   1.877   7.981 -0.0346 -0.9132  1.8367
  824MOL0     H11200   7.789   2.058   7.894  1.9874  0.9128 -2.0890
  824MOL0     H11201   8.099   2.097   7.996  2.9550 -1.4255  0.6376
  824MOL0     H11202   8.138   2.033   7.838  1.7103  2.2755  2.1093
  824MOL0     H11203   8.004   2.147   7.858  0.8009 -0.5465 -0.5713
  824MOL0     H11204   8.326   1.542   7.870  2.2051 -0.7478 -1.6590
  824MOL0     H11205   8.551   1.425   7.928 -0.4797  1.4277 -0.7930
  824MOL0     H11206   8.772   1.573   8.255 -0.0462  0.8764  0.3276
  824MOL0     H11207   8.730   1.418   8.327  2.4305 -2.9706 -1.6343
  824MOL0     H11208   8.890   1.322   8.160 -1.9364  1.2588 -0.9494
  824MOL0     H11209   8.939   1.492   8.124  0.0637  2.0625  0.4006
  824MOL0     H11210   8.951   1.369   8.406 -0.3030 -1.3151 -1.4490
  824MOL0     H11211   9.017   1.533   8.362 -0.9131  0.0433  0.9107
  824MOL0     H11212   9.125   1.256   8.315  0.8956 -1.2152  2.1379
  824MOL0     H11213   9.192   1.401   8.221  0.6917 -0.1000 -0.1873
  824MOL0     H11214   9.174   1.401   8.516 -2.4478  0.9329 -1.1382
  824MOL0     H11215   9.257   1.517   8.409  1.3344 -0.1897  1.4150
  824MOL0     H11216   9.348   1.222   8.428  0.0406 -1.2956  0.0415
  824MOL0     H11217   9.406   1.356   8.326 -1.9202  1.2662  0.5735
  824MOL0     H11218   9.554   1.287   8.542 -1.3234 -0.9875 -0.0331
  824MOL0     H11219   9.444   1.390   8.626 -2.2336 -1.9810 -0.7933
  824MOL0     H11220   9.628   1.536   8.566 -1.8614 -0.7464  1.6686
  824MOL0     H11221   9.514   1.580   8.446  1.6150  1.0893 -2.9667
  824MOL0     H11222   8.555   1.590   8.312 -1.6156 -0.9154 -0.0259
  824MOL0     H11223   8.327   1.675   8.283  1.2666 -0.7725  0.8680
  824MOL0     H11224   7.943   1.609   8.018  1.3604 -1.0286 -2.3082
  824MOL0     H11225   7.707   1.656   8.017 -0.6705  1.2198  0.9788
  824MOL0     H11226   7.026   1.197   7.099 -2.7704  0.8839  0.9933
  824MOL0     H11227   6.812   1.175   7.058  2.2293  1.0036  2.3621
  824MOL0     H11228   6.527   1.050   6.732 -0.5025  0.0110  0.7318
  824MOL0     H11229   6.319   0.953   6.667  1.5042 -0.7555  0.4325
  824MOL0     H11230   6.123   0.876   6.640  0.5662 -0.0780  0.7378
  824MOL0     H11231   5.948   0.901   6.679  0.2071  1.3447  0.8338
  824MOL0     H11232   6.005   1.044   6.481  1.1019  2.3300 -0.7856
  824MOL0     H11233   6.138   1.118   6.558  0.0630 -3.4208 -4.3857
  824MOL0     H11234   5.970   1.298   6.601 -2.2091  0.6465  0.0545
  824MOL0     H11235   5.973   1.196   6.746  1.8876  2.0568 -0.9163
  824MOL0     H11236   5.745   1.234   6.680  1.1790 -0.8355  2.7195
  824MOL0     H11237   5.760   1.068   6.627 -0.2768  0.2476 -1.2643
  824MOL0     H11238   5.773   1.208   6.247  0.9767 -0.0811  0.2219
  824MOL0     H11239   6.120   1.145   7.003 -1.4426 -1.5742 -0.9993
  824MOL0     H11240   6.333   1.255   7.055  0.5761  0.9619 -0.4278
  825MOL0     O11241   8.886  11.092   2.354  0.0658 -0.2784  0.0411
  825MOL0     C11242   8.792  11.143   2.299 -0.3847  0.0818  0.9216
  825MOL0     O11243   8.728  11.247   2.340  0.6673 -0.8407 -0.4027
  825MOL0     C11244   8.755  11.301   2.467  0.0809 -0.1612 -0.2054
  825MOL0     C11245   8.715  11.428   2.484  0.0988 -1.0416  0.3411
  825MOL0     C11246   8.758  11.514   2.589 -1.0294 -0.3525  1.2728
  825MOL0     C11247   8.831  11.458   2.692 -0.4321 -0.7499  1.1156
  825MOL0     O11248   8.885  11.514   2.807  0.2990 -0.1379 -0.2469
  825MOL0     C11249   8.930  11.652   2.795 -0.4490  0.5730  1.2107
  825MOL0     C11250   9.012  11.697   2.915 -0.4268 -0.5408  0.8605
  825MOL0     C11251   9.123  11.593   2.939  0.7503  0.1435  1.1663
  825MOL0     C11252   9.184  11.624   3.075 -0.2443 -0.1265 -0.0523
  825MOL0     C11253   9.310  11.547   3.108  0.2199  0.0320  0.4305
  825MOL0     C11254   9.290  11.398   3.095  1.2307  0.3177  0.5171
  825MOL0     C11255   9.367  11.310   3.182 -1.0544  0.2252  0.5599
  825MOL0     C11256   9.327  11.166   3.171  0.8209  0.5747 -0.3065
  825MOL0     N11257   9.322  11.112   3.044 -0.5291  0.3989  0.0391
  825MOL0     C11258   9.230  11.123   2.943 -0.1608  0.3712  0.5169
  825MOL0     C11259   9.268  11.033   2.851 -0.7279  0.6127 -0.6662
  825MOL0     C11260   9.211  10.995   2.727 -0.0052  0.2027  0.8026
  825MOL0     C11261   9.060  11.012   2.719 -0.3569 -0.5425 -0.3558
  825MOL0     C11262   8.997  10.874   2.686  0.2534  0.8156 -0.4533
  825MOL0     C11263   9.009  10.843   2.537 -0.3399 -0.0899  0.5476
  825MOL0     O11264   8.937  10.724   2.512 -0.2628  1.3645  0.3754
  825MOL0     C11265   8.925  10.693   2.379  0.5548 -0.0328 -0.2930
  825MOL0     C11266   8.810  10.622   2.344  0.6258 -0.2141  0.8755
  825MOL0     C11267   8.799  10.564   2.213 -0.0427  0.0384  0.0349
  825MOL0     C11268   8.672  10.492   2.193 -1.1943 -0.2056  0.1669
  825MOL0     C11269   8.890  10.592   2.110  0.6877  0.3742  0.1872
  825MOL0     C11270   8.890  10.532   1.968 -0.5325 -0.2594 -0.4202
  825MOL0     O11271   8.962  10.606   1.876  0.1701 -0.0112 -0.8311
  825MOL0     C11272   8.910  10.602   1.750  0.2799  0.3553 -0.1449
  825MOL0     C11273   8.779  10.571   1.717  0.0945 -0.5513  0.1477
  825MOL0     C11274   8.752  10.556   1.580  0.6267  0.1144 -0.4178
  825MOL0     C11275   8.834  10.582   1.468 -0.8069 -0.4648  0.0371
  825MOL0     O11276   8.810  10.552   1.338 -0.5015  0.6008 -0.4382
  825MOL0     C11277   8.684  10.581   1.288  0.8292 -0.5536 -0.3474
  825MOL0     C11278   8.693  10.597   1.137  0.4026  1.0070 -0.0287
  825MOL0     C11279   8.623  10.723   1.077  0.1712 -0.5887 -0.6942
  825MOL0     C11280   8.672  10.756   0.934  0.1432  0.3277  0.1662
  825MOL0     C11281   8.807  10.828   0.935 -0.0534  1.0857 -0.5420
  825MOL0     C11282   8.852  10.890   0.800  1.4997  0.4799 -0.8066
  825MOL0     C11283   8.754  10.994   0.745 -0.0655 -0.4483  1.5703
  825MOL0     C11284   8.779  11.043   0.609  0.8752 -0.0479  0.8113
  825MOL0    Cl11285   8.643  11.162   0.566  0.7515  0.3246  0.0882
  825MOL0     C11286   8.970  10.625   1.510  1.2376 -0.2643 -0.0373
  825MOL0     C11287   8.998  10.632   1.646 -0.7534  0.9532 -0.8080
  825MOL0     O11288   8.849  10.420   1.952  0.1632  0.0260  0.0262
  825MOL0     C11289   8.993  10.683   2.141  0.0630 -0.6160 -0.5394
  825MOL0     C11290   9.016  10.728   2.275  0.0156  0.3368 -0.5871
  825MOL0     N11291   9.383  10.977   2.897 -0.0249  0.0891  0.4458
  825MOL0     N11292   9.418  11.021   3.008 -0.0978  0.6169  0.4605
  825MOL0     C11293   8.852  11.321   2.689 -0.3675 -0.7500 -0.5622
  825MOL0     C11294   8.822  11.244   2.577 -0.0857 -0.2846 -0.5117
  825MOL0     C11295   8.765  11.096   2.165 -0.3021 -0.3908  0.4939
  825MOL0     C11296   8.753  10.956   2.144  0.0029 -0.0851  0.0758
  825MOL0     C11297   8.754  10.908   2.016  0.5113  0.5188  1.0783
  825MOL0     C11298   8.772  10.994   1.905 -0.5792  0.1191 -0.0897
  825MOL0     O11299   8.764  10.936   1.779  0.6169 -0.6358  0.5521
  825MOL0     C11300   8.750  11.023   1.667  0.5325 -0.5534  0.7031
  825MOL0     C11301   8.753  10.945   1.531 -0.3475  0.1660 -1.2091
  825MOL0     C11302   8.764  11.035   1.411  0.0319  0.1099  0.3205
  825MOL0     C11303   8.821  10.962   1.298 -1.3372 -0.5470 -0.4626
  825MOL0     C11304   8.970  10.967   1.300 -0.6469 -0.0890  0.5096
  825MOL0     C11305   9.092  10.956   1.291  0.2955 -0.1735 -0.5806
  825MOL0     C11306   8.770  11.139   1.924 -0.3733  0.5551 -0.3574
  825MOL0     C11307   8.772  11.180   2.053  0.0349 -0.1263 -0.5518
  825MOL0     H11308   8.674  11.481   2.398  1.3388  1.0745  0.9744
  825MOL0     H11309   8.731  11.619   2.584  3.7047  1.3558  4.4210
  825MOL0     H11310   8.987  11.661   2.701 -2.1678  2.4521  0.2593
  825MOL0     H11311   8.853  11.724   2.766  0.6013  0.5047 -2.2903
  825MOL0     H11312   9.059  11.794   2.897 -0.2737 -0.9983 -1.4188
  825MOL0     H11313   8.944  11.694   3.001 -1.2538 -2.6331  0.1998
  825MOL0     H11314   9.086  11.492   2.924 -1.6651  0.9438  1.3833
  825MOL0     H11315   9.195  11.591   2.857 -0.3163 -1.0074  0.2166
  825MOL0     H11316   9.201  11.732   3.083 -0.9533 -0.1351  1.9996
  825MOL0     H11317   9.106  11.595   3.146 -1.1038 -0.2782 -1.0251
  825MOL0     H11318   9.380  11.577   3.030  1.9307 -3.3766  0.4662
  825MOL0     H11319   9.351  11.569   3.207 -2.4169 -3.0374  2.4399
  825MOL0     H11320   9.185  11.378   3.116  1.3416 -1.1840 -0.2348
  825MOL0     H11321   9.307  11.378   2.989 -0.1662  0.6106  0.2214
  825MOL0     H11322   9.475  11.310   3.161 -0.9503 -3.0893  0.6375
  825MOL0     H11323   9.332  11.328   3.284 -0.3764 -0.9693  1.0249
  825MOL0     H11324   9.223  11.157   3.204  0.6547  0.5810 -0.8097
  825MOL0     H11325   9.395  11.102   3.227  1.0304 -0.8688 -2.0876
  825MOL0     H11326   9.144  11.187   2.931  0.8614  1.6103 -0.4250
  825MOL0     H11327   9.254  11.061   2.651 -1.2256  1.2119  0.9571
  825MOL0     H11328   9.237  10.892   2.700  1.2763  0.8555 -0.5915
  825MOL0     H11329   9.042  11.087   2.641 -2.1977  0.5660  1.0209
  825MOL0     H11330   9.009  11.045   2.811  1.3010 -2.3708  1.3030
  825MOL0     H11331   8.896  10.866   2.726  0.8713 -0.0019  1.0550
  825MOL0     H11332   9.043  10.791   2.742 -0.4701  0.8463  0.2000
  825MOL0     H11333   9.114  10.849   2.504 -0.1825 -2.1209  0.5863
  825MOL0     H11334   8.956  10.921   2.481  1.6980  0.2032 -1.1332
  825MOL0     H11335   8.736  10.597   2.420 -2.9499  2.0143 -1.5215
  825MOL0     H11336   8.595  10.530   2.261 -0.5022  1.7334 -0.0690
  825MOL0     H11337   8.633  10.515   2.093  0.9233 -0.1830 -0.7075
  825MOL0     H11338   8.695  10.385   2.203  0.6951  0.2647  1.2813
  825MOL0     H11339   8.694  10.557   1.783 -2.0769  0.8248 -2.1559
  825MOL0     H11340   8.650  10.522   1.566  0.3311  1.4704 -1.8150
  825MOL0     H11341   8.608  10.507   1.317 -1.3043  0.8945 -1.8741
  825MOL0     H11342   8.647  10.672   1.336 -0.2313 -0.5811 -1.0866
  825MOL0     H11343   8.801  10.596   1.117  0.3066 -0.5475 -0.5750
  825MOL0     H11344   8.656  10.505   1.090  0.9676  0.4733  0.5576
  825MOL0     H11345   8.637  10.803   1.151  0.0727 -0.8245 -0.4178
  825MOL0     H11346   8.516  10.706   1.064 -0.0053  1.6613 -2.8723
  825MOL0     H11347   8.676  10.671   0.865 -2.8082 -0.4210  0.7576
  825MOL0     H11348   8.588  10.818   0.900  0.6453 -0.1355 -2.1238
  825MOL0     H11349   8.878  10.750   0.965 -0.0858  0.6352 -1.5800
  825MOL0     H11350   8.816  10.910   1.007  2.1554 -0.8135  1.5454
  825MOL0     H11351   8.955  10.920   0.823  2.2608 -2.5327  0.2287
  825MOL0     H11352   8.858  10.802   0.735  0.3132 -0.3385  0.1353
  825MOL0     H11353   8.754  11.076   0.817  1.1358 -0.7455  1.9243
  825MOL0     H11354   8.652  10.956   0.733  0.3729 -1.6221  1.5008
  825MOL0     H11355   8.801  10.968   0.534 -0.1196 -0.1842  0.6361
  825MOL0     H11356   8.865  11.110   0.604  1.1486 -0.4064  0.6404
  825MOL0     H11357   9.047  10.645   1.437  0.5742  1.2978 -0.3342
  825MOL0     H11358   9.098  10.655   1.682 -1.7152 -1.2549  4.0867
  825MOL0     H11359   9.065  10.718   2.068 -1.2163 -0.5851 -1.8210
  825MOL0     H11360   9.109  10.784   2.278 -0.4368  1.2817 -2.5564
  825MOL0     H11361   8.893  11.272   2.777 -3.9408 -1.9006  0.6825
  825MOL0     H11362   8.850  11.139   2.572 -2.2287 -0.8939 -1.0751
  825MOL0     H11363   8.745  10.887   2.227 -4.5616  0.3276  0.2173
  825MOL0     H11364   8.751  10.802   1.992  2.9101  0.5207  0.5800
  825MOL0     H11365   8.656  11.078   1.670 -0.5098 -2.0649 -1.4475
  825MOL0     H11366   8.835  11.092   1.656  1.2122 -1.6729 -2.0668
  825MOL0     H11367   8.661  10.886   1.527  0.1786 -0.7840  0.0433
  825MOL0     H11368   8.840  10.879   1.537 -0.3643  0.2412  0.4860
  825MOL0     H11369   8.829  11.122   1.424  0.5106  0.2877 -2.6906
  825MOL0     H11370   8.663  11.057   1.376  0.3474 -4.5125 -4.7640
  825MOL0     H11371   8.775  10.992   1.203 -1.0779 -0.8950 -0.7043
  825MOL0     H11372   8.790  10.858   1.317  2.0639 -1.6139 -0.1582
  825MOL0     H11373   9.198  10.942   1.281  0.1496 -3.1714  1.0075
  825MOL0     H11374   8.789  11.211   1.845 -1.2234  0.1485 -0.9490
  825MOL0     H11375   8.781  11.284   2.083 -1.8409 -0.1784  0.3751
  826MOL0     O11376   3.076   1.643   8.344  0.3473  0.0151 -0.7412
  826MOL0     C11377   3.059   1.690   8.233 -0.1606 -0.2711  0.2396
  826MOL0     O11378   3.153   1.753   8.157  0.0870  0.3088 -0.4234
  826MOL0     C11379   3.252   1.807   8.235  0.0522  1.1122 -0.5053
  826MOL0     C11380   3.245   1.934   8.297  1.2118 -0.8154  0.1872
  826MOL0     C11381   3.351   1.990   8.366  0.4069 -1.2028 -0.0883
  826MOL0     C11382   3.474   1.932   8.357 -0.7601  1.0808  0.4010
  826MOL0     O11383   3.587   2.000   8.403  0.0447  0.1028  0.5943
  826MOL0     C11384   3.695   1.929   8.470  0.3193 -0.0015  0.4408
  826MOL0     C11385   3.815   2.017   8.467  0.5564  0.0906 -0.1730
  826MOL0     C11386   3.903   1.982   8.585 -0.1484 -0.4705 -0.2848
  826MOL0     C11387   3.951   1.838   8.586  0.9562 -0.2354  0.3547
  826MOL0     C11388   4.070   1.802   8.493 -0.2851 -0.8685 -1.0185
  826MOL0     C11389   4.071   1.651   8.481 -0.3456  0.3435  1.2723
  826MOL0     C11390   3.987   1.594   8.373  0.0021 -0.4013 -0.1474
  826MOL0     C11391   4.052   1.601   8.236 -0.0301  0.1553  0.7587
  826MOL0     N11392   3.980   1.530   8.131  0.1434  0.3612  0.4694
  826MOL0     C11393   3.837   1.535   8.124 -0.3380 -0.0647  0.2014
  826MOL0     C11394   3.820   1.473   8.007  0.4089 -0.2525  0.3153
  826MOL0     C11395   3.689   1.469   7.925  0.1740 -0.2435  0.7302
  826MOL0     C11396   3.611   1.349   7.974 -0.5637  0.5991  0.2425
  826MOL0     C11397   3.483   1.390   8.041 -0.6117 -0.4515  0.5968
  826MOL0     C11398   3.415   1.264   8.088 -0.5877 -0.2547 -0.4245
  826MOL0     O11399   3.290   1.295   8.160  0.5005  0.3343 -0.0552
  826MOL0     C11400   3.176   1.253   8.089 -0.0356 -0.5765  0.4992
  826MOL0     C11401   3.070   1.202   8.167 -0.0008  0.1260 -0.1011
  826MOL0     C11402   2.949   1.158   8.108  0.9503 -0.9202 -0.5984
  826MOL0     C11403   2.831   1.124   8.204 -0.4188  0.1697 -0.1899
  826MOL0     C11404   2.930   1.172   7.968  0.5818  0.2517 -0.0224
  826MOL0     C11405   2.808   1.123   7.894 -0.8143 -0.2831 -0.5045
  826MOL0     O11406   2.780   1.162   7.769  0.5082 -0.8063 -0.4850
  826MOL0     C11407   2.663   1.119   7.711 -0.0504  0.2568 -0.6519
  826MOL0     C11408   2.671   1.104   7.575  0.9158 -0.1152 -0.0251
  826MOL0     C11409   2.551   1.075   7.498 -0.7718  0.2726 -0.4031
  826MOL0     C11410   2.428   1.050   7.573  0.4886  0.9927  0.0931
  826MOL0     O11411   2.309   1.021   7.501  0.2245 -0.2000 -0.6741
  826MOL0     C11412   2.192   0.976   7.570  0.1609 -0.3143  0.0990
  826MOL0     C11413   2.094   0.950   7.445 -0.2053  0.0796  0.0149
  826MOL0     C11414   1.970   0.851   7.467 -0.4654 -0.9144  0.5883
  826MOL0     C11415   2.023   0.711   7.480 -0.4395  0.2458 -0.9789
  826MOL0     C11416   1.904   0.611   7.500  0.1146  0.0559 -0.6018
  826MOL0     C11417   1.838   0.616   7.638  0.4179 -0.7101  0.1833
  826MOL0     C11418   1.695   0.660   7.632 -0.4102  0.6344 -0.2956
  826MOL0     C11419   1.588   0.554   7.590 -0.5773 -0.0058 -0.2430
  826MOL0    Cl11420   1.431   0.625   7.569 -0.2244 -0.0452 -0.1016
  826MOL0     C11421   2.421   1.075   7.709 -0.5094  0.2315  0.5460
  826MOL0     C11422   2.532   1.110   7.771  0.7964 -0.6214 -0.0114
  826MOL0     O11423   2.746   1.036   7.952 -0.0712  0.2874  0.6808
  826MOL0     C11424   3.039   1.218   7.889  0.1754 -0.0320  0.6111
  826MOL0     C11425   3.159   1.260   7.949 -0.3892  0.4804  0.5808
  826MOL0     N11426   3.933   1.413   7.956 -0.1115 -0.5304  0.8020
  826MOL0     N11427   4.024   1.443   8.037 -1.0337  0.1264 -0.7513
  826MOL0     C11428   3.491   1.819   8.277  0.2710 -0.2262 -0.1909
  826MOL0     C11429   3.382   1.750   8.218  0.0282 -0.5816  0.3338
  826MOL0     C11430   2.924   1.696   8.190 -0.3333  0.7123 -0.1629
  826MOL0     C11431   2.825   1.725   8.290  0.0735  0.3732  0.4258
  826MOL0     C11432   2.699   1.772   8.240  0.2940  0.3364  0.2175
  826MOL0     C11433   2.668   1.782   8.099 -0.0919 -1.1209 -0.4668
  826MOL0     O11434   2.547   1.832   8.051  0.3161 -0.2349 -0.5843
  826MOL0     C11435   2.450   1.860   8.153  0.0593  0.0599  0.3778
  826MOL0     C11436   2.322   1.902   8.084 -0.0081 -0.6929  0.4821
  826MOL0     C11437   2.279   1.787   7.990  0.0508  0.1911 -0.0354
  826MOL0     C11438   2.144   1.827   7.925  0.5479  0.7096  0.4352
  826MOL0     C11439   2.024   1.778   7.993  1.1431  0.8103  0.8944
  826MOL0     C11440   1.917   1.731   8.042 -1.7506 -0.0955 -0.1892
  826MOL0     C11441   2.766   1.753   8.006  0.3618 -0.1300 -0.1703
  826MOL0     C11442   2.888   1.715   8.051 -0.1711  0.2537 -0.8074
  826MOL0     H11443   3.150   1.986   8.305  2.6013  1.9245  0.1761
  826MOL0     H11444   3.347   2.084   8.421  0.5211 -1.0319 -0.3659
  826MOL0     H11445   3.665   1.902   8.571 -2.1583  2.0503  0.3846
  826MOL0     H11446   3.706   1.832   8.421 -0.8996  0.0917 -0.0568
  826MOL0     H11447   3.864   1.991   8.373 -0.4804 -0.5056 -0.5752
  826MOL0     H11448   3.800   2.125   8.470  1.5798  0.2407 -0.0183
  826MOL0     H11449   3.986   2.053   8.589 -0.3820 -0.2200  0.1842
  826MOL0     H11450   3.848   2.000   8.678  1.9452  1.0914  0.7225
  826MOL0     H11451   3.983   1.806   8.686 -2.2715  1.0507  1.9228
  826MOL0     H11452   3.864   1.780   8.557  1.2495  1.2718 -4.4133
  826MOL0     H11453   4.055   1.855   8.399 -1.5467  0.1966 -0.2685
  826MOL0     H11454   4.163   1.832   8.542  0.7950 -0.5686 -3.1553
  826MOL0     H11455   4.176   1.623   8.464  0.5720  2.6940  2.5558
  826MOL0     H11456   4.048   1.614   8.581 -1.6425 -0.5992  0.6559
  826MOL0     H11457   3.971   1.492   8.410  2.4309 -0.1848  1.7116
  826MOL0     H11458   3.893   1.650   8.373  1.9715  3.2108 -0.5708
  826MOL0     H11459   4.159   1.576   8.233 -0.6134 -2.6683 -1.8038
  826MOL0     H11460   4.057   1.703   8.196 -0.9013 -0.0726  0.0214
  826MOL0     H11461   3.767   1.573   8.198 -1.8771 -1.5750 -0.4081
  826MOL0     H11462   3.627   1.559   7.925 -0.5824 -0.7228 -1.1916
  826MOL0     H11463   3.707   1.457   7.818  1.0178 -1.8885  1.0252
  826MOL0     H11464   3.668   1.291   8.047 -1.0357 -3.0218 -1.9972
  826MOL0     H11465   3.596   1.282   7.889 -1.4665 -1.2499  1.7769
  826MOL0     H11466   3.428   1.450   7.967 -0.3136  0.2427  0.9238
  826MOL0     H11467   3.496   1.454   8.129  0.4381 -0.6644  0.6024
  826MOL0     H11468   3.481   1.215   8.161 -0.2167  0.0196 -0.5747
  826MOL0     H11469   3.405   1.197   8.002 -0.1212 -2.2723  1.0083
  826MOL0     H11470   3.092   1.201   8.273  2.5480  0.3872 -0.5681
  826MOL0     H11471   2.842   1.154   8.309 -0.9486  3.2868 -0.9106
  826MOL0     H11472   2.738   1.163   8.163 -1.6685 -1.9162  0.5316
  826MOL0     H11473   2.821   1.015   8.203  1.8440 -0.0844 -0.7961
  826MOL0     H11474   2.766   1.117   7.525  1.2852 -0.4384  0.5815
  826MOL0     H11475   2.551   1.059   7.391 -2.0633  0.8651 -0.5142
  826MOL0     H11476   2.214   0.887   7.629  2.0301  1.3639  2.0966
  826MOL0     H11477   2.144   1.045   7.639 -0.5382 -1.7875  1.1305
  826MOL0     H11478   2.062   1.051   7.418  0.0315 -0.0112 -0.6230
  826MOL0     H11479   2.157   0.911   7.365 -0.5996 -1.9879  0.6608
  826MOL0     H11480   1.916   0.847   7.372  0.8254 -0.1585 -0.2039
  826MOL0     H11481   1.899   0.884   7.544 -1.8059  0.0017 -0.9880
  826MOL0     H11482   2.084   0.692   7.392 -0.4924  1.9576 -1.4331
  826MOL0     H11483   2.081   0.716   7.573 -0.6514  1.8784 -0.8930
  826MOL0     H11484   1.935   0.506   7.487  1.5092  0.3028  0.4700
  826MOL0     H11485   1.827   0.629   7.424 -1.1165 -1.2244  0.2971
  826MOL0     H11486   1.846   0.518   7.688  2.5691 -0.2799  0.8168
  826MOL0     H11487   1.890   0.688   7.702 -0.4551  3.2479 -3.1933
  826MOL0     H11488   1.681   0.753   7.575 -2.5041  0.0377 -0.8475
  826MOL0     H11489   1.673   0.695   7.734  0.0834  3.7083 -1.1246
  826MOL0     H11490   1.583   0.490   7.678  2.4779  0.6905  0.5436
  826MOL0     H11491   1.614   0.502   7.497  1.8516 -0.2992  0.5351
  826MOL0     H11492   2.328   1.079   7.764 -0.7113  0.4499  0.1964
  826MOL0     H11493   2.523   1.141   7.875 -1.1172 -1.7495  0.2218
  826MOL0     H11494   3.019   1.221   7.782  2.2727  0.9426  0.2029
  826MOL0     H11495   3.238   1.303   7.888 -0.5950  3.0078  1.9940
  826MOL0     H11496   3.584   1.766   8.261  0.9089  0.7821  0.1119
  826MOL0     H11497   3.411   1.668   8.153 -2.9580 -0.5037 -1.2453
  826MOL0     H11498   2.844   1.723   8.396 -3.4212  0.5547  1.1799
  826MOL0     H11499   2.615   1.792   8.306 -1.0992  3.6591 -2.3083
  826MOL0     H11500   2.421   1.764   8.197  1.6158 -1.3431 -1.4616
  826MOL0     H11501   2.475   1.941   8.221 -1.7362  1.4946 -0.5924
  826MOL0     H11502   2.338   1.996   8.030  3.0547 -1.1967  0.3021
  826MOL0     H11503   2.243   1.918   8.158  1.9332 -0.8226  2.7060
  826MOL0     H11504   2.270   1.691   8.040  0.3302 -1.7284 -3.3904
  826MOL0     H11505   2.355   1.784   7.911  1.5120 -0.7244  1.3403
  826MOL0     H11506   2.144   1.789   7.822  0.3842 -3.5653  1.8293
  826MOL0     H11507   2.149   1.936   7.911 -2.4407  0.9177  0.4021
  826MOL0     H11508   1.834   1.681   8.087 -2.4865  0.0459 -1.3412
  826MOL0     H11509   2.745   1.769   7.900 -0.4109  0.5989  0.0837
  826MOL0     H11510   2.968   1.717   7.978 -0.1107 -0.7471 -0.7891
  827MOL0     O11511   4.237   9.642   0.403  0.1951  0.4308  0.4005
  827MOL0     C11512   4.280   9.742   0.346 -0.1005 -0.2324  0.3849
  827MOL0     O11513   4.402   9.755   0.290 -0.5448 -0.5454  0.6669
  827MOL0     C11514   4.479   9.648   0.272 -1.3755  0.6242 -0.4273
  827MOL0     C11515   4.580   9.619   0.373  0.3782 -0.6077  0.8311
  827MOL0     C11516   4.663   9.505   0.365 -1.3995  0.5072  0.3742
  827MOL0     C11517   4.642   9.411   0.262 -0.1561 -0.3223 -0.2050
  827MOL0     O11518   4.696   9.289   0.265 -0.2811  1.1605 -0.9349
  827MOL0     C11519   4.819   9.246   0.336 -1.1070 -0.5765  1.0632
  827MOL0     C11520   4.861   9.106   0.285 -0.0728 -0.5346  0.0314
  827MOL0     C11521   5.008   9.068   0.311 -0.4785  0.4898  0.2953
  827MOL0     C11522   5.116   9.130   0.220  0.0031 -0.1409  0.9589
  827MOL0     C11523   5.255   9.092   0.262 -0.2478 -0.0108  0.4509
  827MOL0     C11524   5.358   9.164   0.166  0.2286 -0.3785  0.0546
  827MOL0     C11525   5.495   9.137   0.226  0.3034 -0.0218  0.7459
  827MOL0     C11526   5.517   9.203   0.365  0.1464  0.2977  0.6433
  827MOL0     N11527   5.660   9.196   0.389 -0.0419 -0.6026 -0.0323
  827MOL0     C11528   5.706   9.211   0.525  0.3879 -0.0108  0.4108
  827MOL0     C11529   5.819   9.129   0.533  0.0589 -0.0417 -0.7130
  827MOL0     C11530   5.900   9.087   0.654 -1.1001 -0.1026 -0.0592
  827MOL0     C11531   6.051   9.132   0.651 -0.1490  0.5775 -1.1498
  827MOL0     C11532   6.069   9.277   0.633  0.7115  0.5037  0.3825
  827MOL0     C11533   6.212   9.305   0.578 -0.1670  0.1179 -0.0134
  827MOL0     O11534   6.304   9.294   0.689 -1.0141 -0.6125  0.1394
  827MOL0     C11535   6.435   9.326   0.679  0.8301  0.7182  0.2362
  827MOL0     C11536   6.503   9.304   0.568 -0.4470  0.1380  0.9720
  827MOL0     C11537   6.640   9.341   0.558 -0.0488  0.0327 -0.1992
  827MOL0     C11538   6.705   9.319   0.423  0.3936  0.4970  0.3661
  827MOL0     C11539   6.701   9.412   0.666 -0.3884 -0.0290  0.1915
  827MOL0     C11540   6.832   9.474   0.661 -0.4521  0.1896  0.1707
  827MOL0     O11541   6.870   9.529   0.782  0.4389 -0.0539  0.5980
  827MOL0     C11542   6.981   9.613   0.783  0.0114  0.2302 -0.8005
  827MOL0     C11543   7.114   9.568   0.778 -0.2238 -0.0815 -0.3676
  827MOL0     C11544   7.221   9.652   0.803  1.0448  0.3793 -0.1232
  827MOL0     C11545   7.201   9.783   0.832 -0.7766 -0.0832 -0.1023
  827MOL0     O11546   7.320   9.839   0.868  0.3065  0.4672  0.2026
  827MOL0     C11547   7.326   9.978   0.896  0.2186  0.7993  0.7185
  827MOL0     C11548   7.471  10.006   0.941  0.3636 -0.4247 -0.0777
  827MOL0     C11549   7.477  10.142   1.026  0.2197  0.2147 -0.6581
  827MOL0     C11550   7.613  10.180   1.068 -0.2843 -0.6920  0.0168
  827MOL0     C11551   7.609  10.312   1.150 -0.1497  0.7827 -0.8768
  827MOL0     C11552   7.754  10.339   1.206 -0.2956 -0.4403  0.3152
  827MOL0     C11553   7.751  10.450   1.305 -0.1552  0.1751  0.1352
  827MOL0     C11554   7.772  10.400   1.456  0.0455  0.2267  0.4902
  827MOL0    Cl11555   7.749  10.551   1.568  0.0337  0.2728  0.2437
  827MOL0     C11556   7.074   9.837   0.823  0.0872 -0.1790  0.4750
  827MOL0     C11557   6.967   9.753   0.800  0.8183 -0.1830  0.0960
  827MOL0     O11558   6.901   9.483   0.557  0.6585 -0.0617 -0.0871
  827MOL0     C11559   6.622   9.429   0.781 -0.2409  0.0416 -0.4831
  827MOL0     C11560   6.497   9.378   0.792  0.2350 -0.1397  0.2367
  827MOL0     N11561   5.854   9.096   0.400  1.0010 -0.5955  0.6504
  827MOL0     N11562   5.753   9.129   0.317 -0.7657  1.1153 -0.7020
  827MOL0     C11563   4.539   9.435   0.173 -1.0228  0.5145  0.7276
  827MOL0     C11564   4.472   9.559   0.170  1.0421  0.4308 -0.9239
  827MOL0     C11565   4.184   9.858   0.343  0.0242 -0.0404 -0.9550
  827MOL0     C11566   4.054   9.840   0.352 -1.0262 -0.1739 -0.6166
  827MOL0     C11567   3.960   9.947   0.347  0.6251 -0.5902  0.7568
  827MOL0     C11568   4.006  10.077   0.312 -0.2369 -0.0333 -0.0957
  827MOL0     O11569   3.928  10.186   0.284 -1.0046  0.5872  0.3729
  827MOL0     C11570   3.838  10.180   0.174  0.3043  0.5322 -0.0596
  827MOL0     C11571   3.911  10.197   0.034  0.6490 -0.5212  0.8991
  827MOL0     C11572   3.810  10.190  -0.081 -0.0186  0.8192 -0.3961
  827MOL0     C11573   3.867  10.171  -0.222 -0.2306  0.2797  0.4109
  827MOL0     C11574   3.755  10.160  -0.325  1.4378  0.5242 -0.1651
  827MOL0     C11575   3.674  10.141  -0.414 -0.2742 -0.1524  0.1451
  827MOL0     C11576   4.147  10.099   0.309  0.6340  0.3701 -0.3673
  827MOL0     C11577   4.237   9.990   0.330 -0.6089  0.1059  0.3659
  827MOL0     H11578   4.596   9.691   0.453 -0.8790 -1.4834  1.9126
  827MOL0     H11579   4.736   9.486   0.442  0.8806  0.9030 -1.5576
  827MOL0     H11580   4.893   9.325   0.319 -1.3958 -0.2276  1.4324
  827MOL0     H11581   4.811   9.244   0.445  3.3767 -1.3463  1.5651
  827MOL0     H11582   4.800   9.034   0.340 -0.8869  0.3711  0.3296
  827MOL0     H11583   4.845   9.100   0.177 -1.2027 -0.0486  0.1553
  827MOL0     H11584   5.036   9.071   0.417 -1.0248 -2.5397  0.6234
  827MOL0     H11585   5.001   8.960   0.295 -1.1465  0.6858 -0.7628
  827MOL0     H11586   5.108   9.106   0.114  2.4295  0.9852  0.4302
  827MOL0     H11587   5.111   9.240   0.224  3.5024  0.2043 -0.5621
  827MOL0     H11588   5.270   9.115   0.368  0.4456  1.8275 -0.0058
  827MOL0     H11589   5.263   8.984   0.247  2.3715 -0.0565  1.5575
  827MOL0     H11590   5.331   9.130   0.065 -0.6956  1.0074 -0.1955
  827MOL0     H11591   5.338   9.271   0.173 -3.6836 -0.9272 -0.0089
  827MOL0     H11592   5.517   9.030   0.235  0.4665 -0.2903 -2.0730
  827MOL0     H11593   5.566   9.187   0.159  1.5748 -0.3169  1.8270
  827MOL0     H11594   5.472   9.151   0.450  2.9869  0.5290  2.4451
  827MOL0     H11595   5.473   9.303   0.373 -0.8456 -0.2673  3.6876
  827MOL0     H11596   5.648   9.240   0.612  2.6163 -0.2368  2.0695
  827MOL0     H11597   5.871   9.128   0.751  1.4995 -1.0160  1.1780
  827MOL0     H11598   5.884   8.980   0.671 -4.7588  0.5910  1.9584
  827MOL0     H11599   6.122   9.076   0.589  2.2983  0.5850  1.4420
  827MOL0     H11600   6.090   9.099   0.748 -0.4706 -0.0151 -1.2146
  827MOL0     H11601   6.056   9.327   0.730 -1.9364  0.9378 -0.1281
  827MOL0     H11602   5.995   9.312   0.561  1.0692 -0.1033 -0.2871
  827MOL0     H11603   6.210   9.404   0.530 -0.9354 -0.8909 -2.1666
  827MOL0     H11604   6.231   9.239   0.494  2.3112 -1.4466  1.6388
  827MOL0     H11605   6.465   9.251   0.481 -2.9584  4.5224 -0.9376
  827MOL0     H11606   6.782   9.241   0.428  1.7364  1.5063 -2.4055
  827MOL0     H11607   6.633   9.280   0.350  2.0135 -1.3549 -0.3234
  827MOL0     H11608   6.753   9.406   0.377  1.9855 -1.3423 -1.6802
  827MOL0     H11609   7.131   9.463   0.756 -1.1038 -0.1178 -0.9045
  827MOL0     H11610   7.320   9.608   0.801  0.6254 -0.6143 -2.9520
  827MOL0     H11611   7.288  10.038   0.814  2.5968 -1.4686 -2.3321
  827MOL0     H11612   7.266   9.993   0.986 -3.1860  0.4819 -1.3476
  827MOL0     H11613   7.524   9.931   1.000  0.1832 -1.3100 -1.0248
  827MOL0     H11614   7.532  10.018   0.851  1.0981  2.3313  0.6999
  827MOL0     H11615   7.423  10.132   1.121 -1.3112  1.3003 -1.3790
  827MOL0     H11616   7.439  10.222   0.963  0.9524  1.0748 -0.0316
  827MOL0     H11617   7.656  10.100   1.129 -3.8697 -1.8854  1.2203
  827MOL0     H11618   7.674  10.196   0.978 -0.3088  1.3513  0.3090
  827MOL0     H11619   7.533  10.297   1.227 -0.7464  1.7880 -1.2485
  827MOL0     H11620   7.560  10.390   1.091 -1.2575  2.5264  2.1394
  827MOL0     H11621   7.782  10.245   1.253  1.4272  0.1560  0.5553
  827MOL0     H11622   7.816  10.352   1.117 -1.7825 -1.6720 -0.9383
  827MOL0     H11623   7.664  10.516   1.299 -1.4623 -1.5623 -0.6333
  827MOL0     H11624   7.838  10.510   1.276 -0.1779 -0.5534 -1.5467
  827MOL0     H11625   7.869  10.354   1.477  1.1922  3.1013  2.0521
  827MOL0     H11626   7.690  10.331   1.480  0.2396 -1.2248 -2.5886
  827MOL0     H11627   7.042   9.940   0.834 -1.3091 -0.2846 -1.7395
  827MOL0     H11628   6.869   9.799   0.809 -0.4684 -1.5865 -4.2788
  827MOL0     H11629   6.656   9.483   0.869 -0.7946 -4.6111  2.9104
  827MOL0     H11630   6.429   9.390   0.875 -3.6610 -2.3901 -2.2992
  827MOL0     H11631   4.505   9.372   0.092 -0.0982  1.5999 -0.5384
  827MOL0     H11632   4.394   9.577   0.096 -0.3656 -1.1063  0.1099
  827MOL0     H11633   4.016   9.742   0.381  3.0534 -0.9773  3.1021
  827MOL0     H11634   3.854   9.926   0.359 -0.1182  2.6605  0.8292
  827MOL0     H11635   3.786  10.084   0.181 -1.1036  1.0557 -2.3332
  827MOL0     H11636   3.766  10.261   0.186  2.9271  2.8684  1.0538
  827MOL0     H11637   3.977  10.110   0.035 -0.1468 -1.1365  1.6006
  827MOL0     H11638   3.964  10.292   0.034 -1.5049  0.8819 -2.7391
  827MOL0     H11639   3.761  10.288  -0.076  0.6723  1.1417  0.3572
  827MOL0     H11640   3.747  10.106  -0.050  1.0456 -1.2332 -3.3833
  827MOL0     H11641   3.942  10.091  -0.222  1.4830  1.7765  2.4558
  827MOL0     H11642   3.921  10.265  -0.238 -2.8501  1.9288  0.6068
  827MOL0     H11643   3.596  10.138  -0.488  3.3362 -2.4371 -4.0578
  827MOL0     H11644   4.174  10.203   0.301  1.9774  0.2873  2.0474
  827MOL0     H11645   4.338  10.028   0.329 -0.7824  1.0423 -4.5153
  828MOL0     O11646   1.124   9.763   4.116 -0.4050 -0.0617  0.3311
  828MOL0     C11647   1.216   9.823   4.051 -0.6954  0.1562 -0.0032
  828MOL0     O11648   1.242   9.958   4.059  0.5213  0.0560 -0.5679
  828MOL0     C11649   1.179  10.028   4.154  0.3108  0.2149 -0.2705
  828MOL0     C11650   1.097  10.140   4.124 -0.4018 -0.8715 -0.8702
  828MOL0     C11651   1.047  10.228   4.207  0.6144  0.0534  0.0612
  828MOL0     C11652   1.085  10.215   4.338 -0.2075 -0.4115 -0.7340
  828MOL0     O11653   1.038  10.305   4.438  0.0314 -0.5054  0.0499
  828MOL0     C11654   1.142  10.389   4.473  0.2020  0.2771  1.0183
  828MOL0     C11655   1.108  10.524   4.520  0.1340 -0.1924  1.0648
  828MOL0     C11656   1.231  10.606   4.561 -0.2122 -0.6698 -0.2842
  828MOL0     C11657   1.282  10.574   4.702 -0.3641 -0.1309 -1.3522
  828MOL0     C11658   1.398  10.661   4.758  0.3216  0.4484 -0.4320
  828MOL0     C11659   1.345  10.792   4.812  0.4066 -0.5706 -0.3813
  828MOL0     C11660   1.451  10.872   4.885 -0.4965  0.4455  0.6649
  828MOL0     C11661   1.506  10.985   4.805  0.0496 -0.1207 -0.0990
  828MOL0     N11662   1.620  11.058   4.865 -0.8395 -0.3376  0.6848
  828MOL0     C11663   1.738  11.008   4.911 -0.5196  0.3155  0.6261
  828MOL0     C11664   1.788  11.108   4.986 -0.6671  0.3645 -0.2072
  828MOL0     C11665   1.924  11.104   5.075  0.2774 -0.2852 -0.2273
  828MOL0     C11666   1.915  11.173   5.208 -1.1843 -0.1542 -0.9439
  828MOL0     C11667   2.048  11.177   5.282 -0.3770 -0.0467  0.3571
  828MOL0     C11668   2.149  11.277   5.233 -0.8862  0.2795 -0.4743
  828MOL0     O11669   2.267  11.268   5.314  0.2968 -1.0699 -0.0790
  828MOL0     C11670   2.337  11.388   5.327  1.1725  0.7746 -0.6120
  828MOL0     C11671   2.307  11.475   5.431  0.0706  0.0772 -0.1368
  828MOL0     C11672   2.370  11.599   5.448 -0.2756  0.8751 -0.9882
  828MOL0     C11673   2.300  11.682   5.557 -0.0804 -0.2903 -0.2823
  828MOL0     C11674   2.468  11.642   5.360 -0.5379  0.4829  0.5888
  828MOL0     C11675   2.539  11.772   5.365 -0.4193 -0.0839  0.3604
  828MOL0     O11676   2.568  11.836   5.249  0.3814  0.1578 -0.0652
  828MOL0     C11677   2.620  11.968   5.244  0.4893 -0.2771 -0.5013
  828MOL0     C11678   2.541  12.064   5.176  0.2761  0.0638 -1.0662
  828MOL0     C11679   2.611  12.177   5.148 -0.6398 -0.1284 -0.5807
  828MOL0     C11680   2.730  12.217   5.202 -0.3555 -0.2540  1.2105
  828MOL0     O11681   2.760  12.341   5.158  0.4462  0.1757  0.3813
  828MOL0     C11682   2.890  12.380   5.193  0.4036 -1.0123  0.1710
  828MOL0     C11683   2.933  12.519   5.150  0.3632 -0.0187  0.5087
  828MOL0     C11684   2.963  12.539   5.000 -0.1887 -0.1447 -0.6139
  828MOL0     C11685   2.852  12.502   4.909  0.7263  0.4045 -0.2527
  828MOL0     C11686   2.899  12.498   4.759 -0.1023  0.0784  0.6209
  828MOL0     C11687   2.962  12.359   4.736 -0.4055  0.1205 -0.0649
  828MOL0     C11688   2.870  12.236   4.768 -0.8573 -0.3810  0.1066
  828MOL0     C11689   2.911  12.114   4.681 -0.1653 -0.0435  0.2336
  828MOL0    Cl11690   2.896  12.153   4.509  0.0433  0.1692  0.0189
  828MOL0     C11691   2.805  12.123   5.268 -0.1835 -0.4457  0.0703
  828MOL0     C11692   2.749  11.994   5.282 -0.4550  0.6735  0.1342
  828MOL0     O11693   2.557  11.820   5.478 -0.7947 -0.7106 -0.1144
  828MOL0     C11694   2.491  11.562   5.250  0.4207  0.2870 -0.5270
  828MOL0     C11695   2.426  11.437   5.234  0.5466 -1.1336 -0.0466
  828MOL0     N11696   1.711  11.216   4.968 -0.0421  0.8311  0.2112
  828MOL0     N11697   1.610  11.194   4.893 -0.3814 -0.1541 -0.4238
  828MOL0     C11698   1.166  10.109   4.386 -0.7056 -0.3331  0.5477
  828MOL0     C11699   1.210  10.012   4.291  0.0538  0.2032 -0.3604
  828MOL0     C11700   1.291   9.748   3.944 -0.1983  0.4685  0.3785
  828MOL0     C11701   1.384   9.806   3.858 -0.7057 -0.4145 -0.5942
  828MOL0     C11702   1.472   9.726   3.775  0.4399 -0.1516 -0.1514
  828MOL0     C11703   1.447   9.584   3.769 -0.8382 -1.3901  0.2970
  828MOL0     O11704   1.506   9.496   3.686  0.3790 -0.1924  1.0983
  828MOL0     C11705   1.583   9.553   3.576 -0.2544  0.0238 -0.4762
  828MOL0     C11706   1.642   9.447   3.478  0.8017  0.6789 -0.8673
  828MOL0     C11707   1.731   9.519   3.367  0.2174  0.7521  0.4635
  828MOL0     C11708   1.800   9.418   3.277  1.2162  0.2298  0.3304
  828MOL0     C11709   1.758   9.419   3.136  0.0199  0.1597 -0.1141
  828MOL0     C11710   1.748   9.429   3.021 -0.0505 -0.5117  0.1631
  828MOL0     C11711   1.360   9.523   3.858 -0.0602 -0.1323  0.2434
  828MOL0     C11712   1.283   9.607   3.943  0.1856  0.2212  0.2186
  828MOL0     H11713   1.070  10.158   4.020 -0.2346  0.6537 -0.6645
  828MOL0     H11714   0.993  10.317   4.176  1.9075  0.4495 -1.1135
  828MOL0     H11715   1.186  10.347   4.565 -0.9646 -0.2006  1.3733
  828MOL0     H11716   1.211  10.396   4.388 -1.8723 -0.6992 -0.8381
  828MOL0     H11717   1.047  10.578   4.447 -0.0265  1.2879  2.2299
  828MOL0     H11718   1.033  10.506   4.598 -0.5027 -1.4812  0.2004
  828MOL0     H11719   1.309  10.581   4.488  0.1002 -1.9248  0.4473
  828MOL0     H11720   1.202  10.711   4.569  0.3620 -0.6091  1.2988
  828MOL0     H11721   1.201  10.576   4.775 -0.0251  1.4466 -0.9772
  828MOL0     H11722   1.313  10.469   4.697 -2.0571 -0.6250 -2.0876
  828MOL0     H11723   1.447  10.607   4.840 -1.2104  1.3910  1.1744
  828MOL0     H11724   1.474  10.684   4.683  0.2508 -2.7199 -1.6171
  828MOL0     H11725   1.316  10.844   4.720  0.5089  0.1956  0.0105
  828MOL0     H11726   1.252  10.787   4.870  0.3219  1.9862 -0.1488
  828MOL0     H11727   1.415  10.899   4.984  2.1919 -1.4881  2.2893
  828MOL0     H11728   1.532  10.799   4.893 -1.4358 -0.6538  0.3348
  828MOL0     H11729   1.424  11.055   4.786 -0.5638 -0.8922 -0.3188
  828MOL0     H11730   1.547  10.946   4.711  2.9699 -1.6780  1.6689
  828MOL0     H11731   1.777  10.907   4.913  1.9247  1.2172  1.7390
  828MOL0     H11732   1.963  11.003   5.088  0.7495 -0.2345 -1.1827
  828MOL0     H11733   1.997  11.155   5.012 -0.9296 -0.6856 -2.0407
  828MOL0     H11734   1.856  11.125   5.287 -0.5348  0.0147 -0.3423
  828MOL0     H11735   1.863  11.270   5.199 -3.2351 -0.9667  1.0865
  828MOL0     H11736   2.087  11.075   5.281 -1.2075 -0.3839 -1.2765
  828MOL0     H11737   2.019  11.211   5.381  2.3930  1.0220  0.8871
  828MOL0     H11738   2.111  11.379   5.236 -0.8590  0.5007 -4.1897
  828MOL0     H11739   2.164  11.245   5.130  0.8990 -1.5199  0.2764
  828MOL0     H11740   2.229  11.451   5.502  0.0953 -0.8351 -0.4050
  828MOL0     H11741   2.264  11.776   5.514  0.9690  0.9845  1.5057
  828MOL0     H11742   2.219  11.632   5.610  1.1501  0.1147  2.1150
  828MOL0     H11743   2.375  11.704   5.633  1.0871 -1.9666 -0.8792
  828MOL0     H11744   2.441  12.047   5.136 -1.6724  2.6781  2.1660
  828MOL0     H11745   2.569  12.256   5.088  1.5241  3.7964  2.5388
  828MOL0     H11746   2.898  12.374   5.302 -1.4531  3.6575  0.7982
  828MOL0     H11747   2.969  12.314   5.157 -0.2474 -0.9052 -1.5173
  828MOL0     H11748   2.865  12.594   5.191 -0.5351  0.0629 -1.0491
  828MOL0     H11749   3.033  12.529   5.194  0.2240 -0.8001  1.0272
  828MOL0     H11750   3.039  12.467   4.970 -2.2230 -2.1575 -1.2202
  828MOL0     H11751   2.997  12.641   4.981  0.9731 -0.3209  0.4391
  828MOL0     H11752   2.805  12.408   4.939  0.1814 -0.0025 -2.2250
  828MOL0     H11753   2.776  12.581   4.904  1.7855  1.4049 -1.3840
  828MOL0     H11754   2.976  12.575   4.744 -0.6851  0.7621  1.0549
  828MOL0     H11755   2.819  12.518   4.687  2.1981 -1.0828 -2.4936
  828MOL0     H11756   2.986  12.369   4.630 -1.3142  2.9278 -0.0942
  828MOL0     H11757   3.060  12.339   4.783  2.2993  1.2394 -4.6216
  828MOL0     H11758   2.766  12.263   4.747 -0.7614  0.8410  1.0749
  828MOL0     H11759   2.879  12.200   4.871 -0.0051  0.8454  0.4903
  828MOL0     H11760   2.858  12.021   4.701  0.9140 -0.6869  0.2041
  828MOL0     H11761   3.015  12.093   4.707  0.0188 -1.3964 -1.4248
  828MOL0     H11762   2.903  12.147   5.309  0.3416  0.1188 -1.4546
  828MOL0     H11763   2.797  11.915   5.338 -1.9881  0.0097  0.5727
  828MOL0     H11764   2.570  11.589   5.180  0.3906 -0.7102 -0.9500
  828MOL0     H11765   2.459  11.374   5.152 -2.3354 -2.0098 -0.6761
  828MOL0     H11766   1.199  10.110   4.490  0.2858  0.1966  0.2365
  828MOL0     H11767   1.270   9.929   4.327  2.6301  0.9997 -2.5442
  828MOL0     H11768   1.396   9.913   3.862 -2.3173 -0.2412  1.1215
  828MOL0     H11769   1.542   9.774   3.706 -1.2028 -0.5990 -2.2487
  828MOL0     H11770   1.519   9.621   3.519  0.6602  2.5747  1.3490
  828MOL0     H11771   1.672   9.601   3.617 -0.6571 -0.4789  1.0486
  828MOL0     H11772   1.550   9.399   3.441 -0.3156  1.0071  1.3362
  828MOL0     H11773   1.692   9.370   3.538  0.2212  1.3185  0.4854
  828MOL0     H11774   1.800   9.580   3.425 -1.4732  2.4247  0.8125
  828MOL0     H11775   1.668   9.582   3.303 -0.0946 -0.2000 -0.1869
  828MOL0     H11776   1.779   9.323   3.326 -3.0119  0.0679 -1.4428
  828MOL0     H11777   1.908   9.426   3.259  1.2002  2.5886  0.9303
  828MOL0     H11778   1.725   9.425   2.917 -0.3001  1.9840  0.0516
  828MOL0     H11779   1.352   9.415   3.866  3.1479 -0.6715 -1.6989
  828MOL0     H11780   1.210   9.569   4.014  0.1751  0.9744  0.6204
  829MOL0     O11781   8.710   8.696   7.216  0.7178  0.2307 -0.2780
  829MOL0     C11782   8.769   8.612   7.282  0.0233 -1.4705 -0.3917
  829MOL0     O11783   8.914   8.606   7.309  0.3959 -0.0140 -0.0697
  829MOL0     C11784   8.997   8.692   7.246 -0.1462  0.6261  0.5545
  829MOL0     C11785   9.093   8.763   7.315 -0.1339  0.8289  0.0613
  829MOL0     C11786   9.175   8.845   7.245  0.8186  0.2489 -0.8180
  829MOL0     C11787   9.165   8.858   7.104 -0.4085 -1.4110 -0.1061
  829MOL0     O11788   9.237   8.950   7.026 -0.0560  0.8615  0.1718
  829MOL0     C11789   9.348   9.008   7.083 -0.8050  0.8933 -0.1543
  829MOL0     C11790   9.420   9.105   6.986  1.0749  0.0623 -0.1532
  829MOL0     C11791   9.331   9.233   6.989 -0.6536 -0.2832  0.1267
  829MOL0     C11792   9.390   9.339   6.897  0.0966 -0.2441 -0.2316
  829MOL0     C11793   9.531   9.375   6.908 -0.2866  0.7425 -0.1764
  829MOL0     C11794   9.565   9.503   6.831 -0.4311  0.2104  0.2534
  829MOL0     C11795   9.720   9.535   6.837  0.2525  0.2670 -0.2844
  829MOL0     C11796   9.813   9.435   6.764  0.7025  0.7245  0.2739
  829MOL0     N11797   9.764   9.404   6.631 -0.2098 -0.4434  1.0421
  829MOL0     C11798   9.760   9.488   6.522 -1.0313  0.5207 -0.0624
  829MOL0     C11799   9.701   9.417   6.421 -0.0786 -0.1689  0.3519
  829MOL0     C11800   9.674   9.448   6.273 -1.0713 -0.6804 -0.8566
  829MOL0     C11801   9.786   9.418   6.180  0.0384 -0.3557  0.8405
  829MOL0     C11802   9.818   9.266   6.164  0.0722 -0.5271 -0.0493
  829MOL0     C11803   9.923   9.247   6.054 -0.4340  1.3480  0.5810
  829MOL0     O11804   9.991   9.122   6.078  0.3550  0.4006  0.8779
  829MOL0     C11805  10.107   9.097   6.016  0.0664 -0.2952  0.2068
  829MOL0     C11806  10.120   8.958   5.984  1.0127 -0.0853 -0.2365
  829MOL0     C11807  10.237   8.907   5.934  0.4646  0.7313 -0.9217
  829MOL0     C11808  10.250   8.760   5.927 -0.8641 -0.3189 -0.4397
  829MOL0     C11809  10.345   9.009   5.902  0.0971 -0.0904  0.6512
  829MOL0     C11810  10.470   8.975   5.842 -0.2280 -0.7801 -0.1751
  829MOL0     O11811  10.504   8.842   5.863  0.4086 -0.2219 -0.0822
  829MOL0     C11812  10.632   8.785   5.835  0.0693  0.1494  0.3331
  829MOL0     C11813  10.726   8.832   5.738  0.9250  0.1952 -0.3545
  829MOL0     C11814  10.850   8.777   5.729 -1.0670 -0.3884 -0.4477
  829MOL0     C11815  10.897   8.671   5.807 -0.4878  0.0667 -0.5236
  829MOL0     O11816  11.017   8.607   5.782  0.2151 -0.1538 -0.0269
  829MOL0     C11817  11.018   8.465   5.799 -0.0661  0.8451 -0.1053
  829MOL0     C11818  11.144   8.426   5.725  0.3861  0.0462 -0.8683
  829MOL0     C11819  11.151   8.275   5.685  0.7311 -0.8286  0.6403
  829MOL0     C11820  11.295   8.240   5.648  1.0159 -0.7094 -0.4707
  829MOL0     C11821  11.289   8.105   5.571 -0.1062 -1.3029 -0.0513
  829MOL0     C11822  11.240   7.987   5.658 -0.5368  0.5156  0.4269
  829MOL0     C11823  11.215   7.852   5.585 -0.2755  0.0034  0.4504
  829MOL0     C11824  11.225   7.728   5.680  0.7203 -0.1179  0.3391
  829MOL0    Cl11825  11.082   7.750   5.805 -0.1815  0.3685  0.1329
  829MOL0     C11826  10.806   8.620   5.900  0.3573  0.3561  0.1120
  829MOL0     C11827  10.674   8.672   5.912 -0.4838 -0.3467 -0.0110
  829MOL0     O11828  10.542   9.062   5.787 -0.0743  0.7939 -0.7885
  829MOL0     C11829  10.320   9.146   5.922 -0.3633  0.8375  0.3207
  829MOL0     C11830  10.210   9.190   5.986 -0.5348  0.0960  0.5751
  829MOL0     N11831   9.649   9.301   6.481  0.6491 -0.0580  0.5725
  829MOL0     N11832   9.689   9.295   6.605 -0.8846  0.3144 -0.0120
  829MOL0     C11833   9.070   8.789   7.038  0.8300  0.1391  0.1824
  829MOL0     C11834   8.988   8.694   7.104 -0.8399 -0.6992 -0.2056
  829MOL0     C11835   8.690   8.500   7.349 -0.1066  0.8847  0.3584
  829MOL0     C11836   8.752   8.374   7.362 -0.2079 -0.5517 -0.4314
  829MOL0     C11837   8.691   8.265   7.422 -0.4608 -0.4314 -0.5792
  829MOL0     C11838   8.555   8.282   7.462 -0.5126 -0.1397  0.4454
  829MOL0     O11839   8.505   8.175   7.522  0.0361 -0.1654  0.3198
  829MOL0     C11840   8.384   8.132   7.454  0.5002  1.0163  0.4989
  829MOL0     C11841   8.284   8.084   7.556  0.2063  0.1919  0.5971
  829MOL0     C11842   8.241   8.194   7.656 -0.3697  0.2965  0.2039
  829MOL0     C11843   8.148   8.148   7.773 -0.1722 -0.1064 -0.9697
  829MOL0     C11844   8.037   8.078   7.714  0.0340 -0.6956  0.2388
  829MOL0     C11845   7.946   8.029   7.647  0.0779 -0.0480  0.0788
  829MOL0     C11846   8.492   8.408   7.449 -0.1591  0.2623  0.7028
  829MOL0     C11847   8.561   8.515   7.399  0.0129  0.2959  0.3110
  829MOL0     H11848   9.110   8.734   7.418 -0.2113  0.1072 -0.1241
  829MOL0     H11849   9.243   8.902   7.307 -1.1224  1.5320  0.2525
  829MOL0     H11850   9.320   9.056   7.177  1.7576  0.0096  1.1323
  829MOL0     H11851   9.439   8.948   7.091 -0.1681  1.7997 -0.4312
  829MOL0     H11852   9.517   9.123   7.032  0.5680  0.2107  0.8976
  829MOL0     H11853   9.420   9.057   6.887 -1.3198 -1.2866  0.4208
  829MOL0     H11854   9.229   9.207   6.960 -0.5083 -0.9006  0.1542
  829MOL0     H11855   9.319   9.269   7.091 -1.5715 -0.2588  0.0209
  829MOL0     H11856   9.383   9.319   6.790  0.0124  2.4231 -0.7896
  829MOL0     H11857   9.326   9.425   6.919 -1.3198 -1.7042  1.6716
  829MOL0     H11858   9.542   9.411   7.011 -4.5724 -0.6744  1.0007
  829MOL0     H11859   9.594   9.289   6.881  0.7832  1.5157 -0.2150
  829MOL0     H11860   9.519   9.490   6.733  1.4269  0.0451 -0.6406
  829MOL0     H11861   9.514   9.591   6.873 -3.1869 -0.7726 -0.8006
  829MOL0     H11862   9.740   9.636   6.799  0.6416  0.6095  0.7761
  829MOL0     H11863   9.739   9.524   6.944  1.8172  4.0133 -0.0006
  829MOL0     H11864   9.811   9.349   6.832 -2.2297  1.4177  1.2258
  829MOL0     H11865   9.914   9.476   6.758  1.6678 -1.4829  0.6691
  829MOL0     H11866   9.796   9.591   6.521  2.0776 -0.4332  0.8197
  829MOL0     H11867   9.587   9.387   6.250 -3.2952  1.0687  2.0819
  829MOL0     H11868   9.646   9.553   6.264 -2.1704 -0.6823  1.6117
  829MOL0     H11869   9.877   9.468   6.214  0.5701  1.0695 -2.2898
  829MOL0     H11870   9.759   9.438   6.076 -2.1208 -3.4335  0.6687
  829MOL0     H11871   9.739   9.194   6.138  0.9832 -1.2727 -0.8191
  829MOL0     H11872   9.851   9.229   6.261  2.3165  3.0041  0.6968
  829MOL0     H11873   9.985   9.337   6.049 -0.3892  1.2477 -1.1818
  829MOL0     H11874   9.870   9.238   5.959  0.4697  0.3410  0.1472
  829MOL0     H11875  10.036   8.899   6.020 -1.5778  2.7480 -1.2330
  829MOL0     H11876  10.331   8.731   5.996 -0.4530  2.5844  0.4467
  829MOL0     H11877  10.155   8.708   5.942 -2.3327  1.1358 -3.8586
  829MOL0     H11878  10.279   8.723   5.829 -0.9200 -2.3461  0.2558
  829MOL0     H11879  10.702   8.918   5.675 -0.0632  1.0150  1.0699
  829MOL0     H11880  10.914   8.808   5.647  0.4378 -1.1174  0.4150
  829MOL0     H11881  11.025   8.443   5.906 -3.7456  1.2009  0.3448
  829MOL0     H11882  10.926   8.413   5.769 -0.3505  0.0544  1.9504
  829MOL0     H11883  11.155   8.489   5.637 -2.6367  0.1150 -1.3147
  829MOL0     H11884  11.224   8.461   5.790  0.3213  1.7521 -1.6533
  829MOL0     H11885  11.084   8.252   5.601 -1.3556 -1.4983  2.4111
  829MOL0     H11886  11.118   8.224   5.776  1.6887  0.5186  1.7837
  829MOL0     H11887  11.340   8.316   5.584  0.4702  0.2025  0.2056
  829MOL0     H11888  11.361   8.227   5.734 -0.0741 -0.9480  0.3621
  829MOL0     H11889  11.381   8.095   5.514 -1.4193 -1.9136 -2.1795
  829MOL0     H11890  11.220   8.122   5.488  0.4587 -3.0117 -0.9131
  829MOL0     H11891  11.322   7.953   5.722  1.4346  1.4642 -1.4195
  829MOL0     H11892  11.151   8.014   5.715 -1.7002 -0.8535 -0.6687
  829MOL0     H11893  11.293   7.834   5.511  1.4718  0.3413  2.1103
  829MOL0     H11894  11.113   7.855   5.546  0.1350  2.2826 -0.6467
  829MOL0     H11895  11.315   7.722   5.742  0.5687 -1.8412  0.4272
  829MOL0     H11896  11.208   7.635   5.627  1.7421 -1.0359  1.5527
  829MOL0     H11897  10.831   8.547   5.976 -1.8987 -1.1534 -0.4828
  829MOL0     H11898  10.622   8.638   6.001  0.0503  0.6034  0.6832
  829MOL0     H11899  10.389   9.228   5.908  0.4007  0.5391  2.0572
  829MOL0     H11900  10.187   9.296   5.981 -3.3545 -0.4805 -1.1996
  829MOL0     H11901   9.055   8.804   6.931 -0.5719  1.4274  0.5274
  829MOL0     H11902   8.924   8.632   7.041 -0.5706  1.0266 -2.2677
  829MOL0     H11903   8.856   8.362   7.334  0.8152  2.2319  1.6485
  829MOL0     H11904   8.748   8.177   7.449 -3.0499 -1.5397  1.8499
  829MOL0     H11905   8.341   8.208   7.388 -0.3556 -1.0890 -1.4897
  829MOL0     H11906   8.407   8.046   7.390  1.1981  0.5511  1.3501
  829MOL0     H11907   8.341   8.010   7.612  0.6130  1.1745  1.5313
  829MOL0     H11908   8.198   8.030   7.517  0.8155 -1.3636  1.3314
  829MOL0     H11909   8.191   8.269   7.594 -1.5112  1.1160  2.0322
  829MOL0     H11910   8.329   8.243   7.700 -0.1165 -0.4213  0.5144
  829MOL0     H11911   8.111   8.233   7.830  0.2683 -0.7491  0.3075
  829MOL0     H11912   8.201   8.089   7.848  2.3798  2.5735 -0.5196
  829MOL0     H11913   7.873   7.993   7.578  0.7468  0.6464 -1.0240
  829MOL0     H11914   8.388   8.423   7.478 -0.8408  1.9593 -2.2423
  829MOL0     H11915   8.516   8.613   7.385  0.0496  0.6304  2.1874
  830MOL0     O11916   8.956   5.607   5.210 -0.8146 -0.0971 -1.2238
  830MOL0     C11917   8.944   5.612   5.336 -0.3347 -0.0741 -0.5753
  830MOL0     O11918   8.907   5.511   5.413 -0.7104 -0.9947  1.7150
  830MOL0     C11919   8.894   5.385   5.363 -0.7758 -0.2332 -0.2962
  830MOL0     C11920   8.977   5.282   5.420  0.5564  0.7903 -0.1754
  830MOL0     C11921   8.957   5.147   5.385 -0.7914 -0.2147  0.0294
  830MOL0     C11922   8.869   5.113   5.288 -0.1508 -0.3155  1.0281
  830MOL0     O11923   8.851   4.983   5.258 -0.5668  0.2772 -0.4243
  830MOL0     C11924   8.836   4.957   5.116 -0.1065  0.6588 -0.5197
  830MOL0     C11925   8.880   4.817   5.072 -0.4768  0.2002  0.4395
  830MOL0     C11926   8.786   4.713   5.124 -0.1735  0.2487 -0.2144
  830MOL0     C11927   8.818   4.582   5.062  0.2440 -0.5054  0.7297
  830MOL0     C11928   8.941   4.510   5.124 -0.7890 -0.1863  0.2943
  830MOL0     C11929   9.031   4.447   5.004  0.1715  0.6001 -0.5628
  830MOL0     C11930   9.143   4.357   5.054 -0.4316  0.2425  0.3760
  830MOL0     C11931   9.219   4.412   5.169 -0.2848  0.1290 -0.1776
  830MOL0     N11932   9.329   4.325   5.216  0.8628 -0.1488  0.0930
  830MOL0     C11933   9.373   4.217   5.146  0.0382  0.0316  0.2938
  830MOL0     C11934   9.452   4.150   5.230 -0.3184 -0.5935 -0.7114
  830MOL0     C11935   9.550   4.045   5.194  0.1669 -0.0248  0.0072
  830MOL0     C11936   9.590   3.956   5.315 -0.3292  0.3021  0.5611
  830MOL0     C11937   9.667   3.838   5.277 -1.0198  0.4047 -0.4349
  830MOL0     C11938   9.744   3.772   5.391  0.2425  0.0452 -0.7624
  830MOL0     O11939   9.790   3.641   5.357  0.1142 -0.0168 -0.1657
  830MOL0     C11940   9.909   3.625   5.298 -0.7188  0.4514 -0.9159
  830MOL0     C11941   9.928   3.488   5.269 -0.0533 -0.0785  0.3842
  830MOL0     C11942  10.040   3.446   5.204 -0.5201 -0.2330 -0.1063
  830MOL0     C11943  10.041   3.298   5.170 -0.3166  0.5451 -0.3273
  830MOL0     C11944  10.137   3.541   5.164 -0.3152 -0.8842  0.6993
  830MOL0     C11945  10.262   3.507   5.093  0.1451 -0.1255 -0.2459
  830MOL0     O11946  10.326   3.385   5.110 -0.8079  0.1896 -0.4131
  830MOL0     C11947  10.457   3.375   5.056 -0.6511  0.1284 -0.3560
  830MOL0     C11948  10.462   3.325   4.923 -0.1333 -0.4868 -0.7436
  830MOL0     C11949  10.590   3.306   4.864  0.4539 -0.4872  0.3915
  830MOL0     C11950  10.697   3.361   4.927  0.6167  0.3626  0.4493
  830MOL0     O11951  10.824   3.329   4.879  0.1397 -0.0641  1.0835
  830MOL0     C11952  10.865   3.199   4.836  0.0480 -0.0799 -1.2219
  830MOL0     C11953  10.821   3.079   4.928  0.2772 -0.3935 -1.1443
  830MOL0     C11954  10.905   2.952   4.922  0.4884  0.5827  0.5392
  830MOL0     C11955  10.888   2.868   5.043  0.0195 -0.5442  0.2395
  830MOL0     C11956  10.988   2.756   5.046 -0.6811 -0.0992  0.3864
  830MOL0     C11957  10.951   2.635   4.955  1.0282  0.9597 -0.0567
  830MOL0     C11958  10.866   2.525   5.015 -0.0183 -0.6717 -0.6263
  830MOL0     C11959  10.920   2.476   5.154  0.4778 -0.7001 -0.3213
  830MOL0    Cl11960  10.784   2.369   5.231 -0.0421  0.4328 -0.2190
  830MOL0     C11961  10.689   3.433   5.048 -0.3722 -0.2698  0.1981
  830MOL0     C11962  10.572   3.439   5.107 -0.2278  0.6132  0.1064
  830MOL0     O11963  10.306   3.602   5.024  0.1440  0.3651  0.5932
  830MOL0     C11964  10.113   3.685   5.190  0.2985  0.0996 -0.4833
  830MOL0     C11965  10.003   3.727   5.265  0.2579  0.9745  0.3874
  830MOL0     N11966   9.452   4.215   5.353 -0.9222 -0.1012 -0.0850
  830MOL0     N11967   9.363   4.307   5.346  0.6004  0.0400  0.5546
  830MOL0     C11968   8.785   5.213   5.233 -1.1678  0.0130  0.0403
  830MOL0     C11969   8.801   5.351   5.265 -0.5753 -0.2919 -0.3473
  830MOL0     C11970   8.954   5.745   5.407  0.0124  0.1301 -0.6275
  830MOL0     C11971   9.037   5.851   5.367  0.0391 -0.2719 -0.3658
  830MOL0     C11972   9.049   5.975   5.433  1.2203 -0.6046  1.2333
  830MOL0     C11973   8.976   5.998   5.548 -0.2829  0.7281 -0.6247
  830MOL0     O11974   8.999   6.112   5.606 -0.1836 -0.3168  0.7101
  830MOL0     C11975   8.921   6.155   5.716 -0.5532  0.0287  0.2646
  830MOL0     C11976   8.939   6.300   5.767  0.1297 -0.0032 -0.4396
  830MOL0     C11977   9.072   6.337   5.829  0.7463  0.4482  0.2100
  830MOL0     C11978   9.066   6.480   5.900  0.1868 -0.1134 -0.9523
  830MOL0     C11979   9.022   6.589   5.806 -0.4450  0.4549 -0.7043
  830MOL0     C11980   8.997   6.660   5.712 -0.4504  0.4295 -0.4654
  830MOL0     C11981   8.897   5.896   5.603  0.0737  0.5035 -0.1163
  830MOL0     C11982   8.881   5.768   5.534 -0.4483 -0.2298 -0.0153
  830MOL0     H11983   9.056   5.318   5.484  1.9858 -1.1436 -0.7421
  830MOL0     H11984   9.019   5.067   5.425 -0.1426 -0.2535 -1.0135
  830MOL0     H11985   8.731   4.962   5.087 -0.2136  2.9253  0.0531
  830MOL0     H11986   8.882   5.033   5.052 -0.3019  1.9327  0.8006
  830MOL0     H11987   8.870   4.815   4.963 -0.7120 -2.0508  0.4588
  830MOL0     H11988   8.984   4.816   5.107  0.3192  3.8348 -1.2996
  830MOL0     H11989   8.797   4.702   5.232 -0.2504  1.8105 -0.0256
  830MOL0     H11990   8.683   4.738   5.098 -0.6074 -0.3099  0.9008
  830MOL0     H11991   8.727   4.522   5.074 -0.7423  0.4018 -1.5652
  830MOL0     H11992   8.834   4.600   4.955  1.8935 -0.7469  0.9181
  830MOL0     H11993   9.004   4.575   5.185 -0.3623 -0.7171  0.4283
  830MOL0     H11994   8.915   4.429   5.193  0.5369  1.4428  2.8298
  830MOL0     H11995   8.977   4.403   4.920  0.7232  0.2305 -0.7220
  830MOL0     H11996   9.082   4.535   4.964  1.0516 -0.2569 -1.3704
  830MOL0     H11997   9.101   4.261   5.083  0.4115 -0.0585  0.6477
  830MOL0     H11998   9.223   4.345   4.979  1.7946  2.1748  2.2612
  830MOL0     H11999   9.155   4.433   5.255  0.4757  2.1747 -0.0635
  830MOL0     H12000   9.267   4.506   5.139  0.9339 -0.6956 -0.9007
  830MOL0     H12001   9.358   4.188   5.043 -4.8915 -1.7007  1.2275
  830MOL0     H12002   9.504   3.979   5.120  0.1946 -1.0507  0.8704
  830MOL0     H12003   9.642   4.084   5.150 -0.8816  3.1923  0.4008
  830MOL0     H12004   9.499   3.936   5.373  0.0092  0.3662  1.1183
  830MOL0     H12005   9.641   4.022   5.386 -0.9437  2.9569 -1.2780
  830MOL0     H12006   9.738   3.854   5.196 -1.5183  2.9849 -0.4473
  830MOL0     H12007   9.599   3.770   5.225  0.1605 -0.2354 -1.1770
  830MOL0     H12008   9.670   3.753   5.470  2.1738  1.4171  1.5162
  830MOL0     H12009   9.815   3.843   5.435 -2.4096  0.9389  2.5347
  830MOL0     H12010   9.849   3.416   5.287  1.0711 -1.3932  0.2202
  830MOL0     H12011  10.051   3.245   5.265 -0.8981  3.0405  1.2320
  830MOL0     H12012   9.949   3.272   5.118  0.3654 -0.3576 -1.1233
  830MOL0     H12013  10.122   3.263   5.105 -1.0754 -0.8882 -0.5314
  830MOL0     H12014  10.386   3.267   4.870 -1.7708 -0.0041  0.9569
  830MOL0     H12015  10.592   3.250   4.771 -1.1341  1.0639 -0.6606
  830MOL0     H12016  10.833   3.179   4.733  0.3487 -2.5824 -0.8925
  830MOL0     H12017  10.974   3.202   4.828  0.1254  0.2131 -0.1477
  830MOL0     H12018  10.838   3.120   5.028  1.8764  0.6229 -1.7853
  830MOL0     H12019  10.714   3.058   4.929 -0.4747  2.8287 -1.8002
  830MOL0     H12020  11.010   2.984   4.917  0.5321  0.5205  1.0625
  830MOL0     H12021  10.866   2.909   4.829 -1.4655 -1.1726  2.0877
  830MOL0     H12022  10.912   2.939   5.123  2.0169  0.8670 -1.4988
  830MOL0     H12023  10.784   2.836   5.051  0.1972 -0.9774  0.8575
  830MOL0     H12024  11.013   2.728   5.149 -1.0733  2.1196  1.1381
  830MOL0     H12025  11.087   2.794   5.019 -0.5665 -1.8459 -1.8637
  830MOL0     H12026  10.909   2.663   4.858  0.5366 -1.6278 -0.6610
  830MOL0     H12027  11.046   2.596   4.918  1.7582  0.7187  1.9429
  830MOL0     H12028  10.872   2.439   4.947  2.4635  0.2846 -1.7198
  830MOL0     H12029  10.762   2.561   5.016 -0.1468 -0.8584 -2.5782
  830MOL0     H12030  10.938   2.558   5.225  0.5516 -2.6280  2.0383
  830MOL0     H12031  11.012   2.418   5.158  0.4401 -0.8132 -1.0684
  830MOL0     H12032  10.777   3.466   5.102 -0.9791  0.5658  0.6990
  830MOL0     H12033  10.568   3.491   5.203 -2.6569  1.5902 -0.4368
  830MOL0     H12034  10.175   3.769   5.161 -0.7518  1.3042  0.6311
  830MOL0     H12035   9.992   3.829   5.302  0.0574  0.0834  2.9772
  830MOL0     H12036   8.711   5.186   5.158 -0.6016 -0.2423 -0.4314
  830MOL0     H12037   8.735   5.429   5.229  0.7963  1.4194  0.5990
  830MOL0     H12038   9.110   5.844   5.287  2.5858  2.6588  1.4346
  830MOL0     H12039   9.117   6.050   5.393 -1.6992  0.0885 -3.0836
  830MOL0     H12040   8.820   6.140   5.678  0.1181  1.9196 -2.5535
  830MOL0     H12041   8.937   6.093   5.805  0.4510  0.4061  0.3604
  830MOL0     H12042   8.857   6.311   5.838  0.4864 -3.1571  0.6142
  830MOL0     H12043   8.925   6.372   5.685  1.8375 -0.9928 -1.6866
  830MOL0     H12044   9.165   6.338   5.771  1.5326 -1.8422  1.2987
  830MOL0     H12045   9.093   6.271   5.914 -1.2493  1.1406  1.2900
  830MOL0     H12046   9.162   6.508   5.944 -0.3578  0.7136 -0.2582
  830MOL0     H12047   8.995   6.481   5.984 -2.3783  1.1526 -2.9844
  830MOL0     H12048   9.009   6.721   5.625  3.2689 -1.7196 -1.6752
  830MOL0     H12049   8.845   5.913   5.697 -0.5851  0.5654 -0.4826
  830MOL0     H12050   8.822   5.690   5.580 -1.6673 -0.4215 -1.7821
  831MOL0     O12051   9.467   2.009   9.927  0.5915  0.7043  0.5409
  831MOL0     C12052   9.418   1.926  10.007 -0.0560 -0.0649 -0.3565
  831MOL0     O12053   9.455   1.905  10.134 -0.3406  1.3638 -0.0998
  831MOL0     C12054   9.545   1.993  10.185 -0.2811 -0.0210  0.2895
  831MOL0     C12055   9.668   1.956  10.240  0.7722  0.5675  1.0577
  831MOL0     C12056   9.765   2.050  10.269  0.1901  0.6004 -0.4267
  831MOL0     C12057   9.733   2.186  10.269 -0.1546  0.2111 -1.3220
  831MOL0     O12058   9.836   2.267  10.301 -0.4715  0.7027  0.4162
  831MOL0     C12059   9.804   2.385  10.373 -0.2862  0.6050 -0.4203
  831MOL0     C12060   9.892   2.504  10.305  0.6214  0.2759 -0.4835
  831MOL0     C12061   9.822   2.635  10.336 -0.4421 -1.0869 -0.7992
  831MOL0     C12062   9.919   2.762  10.349 -0.2166 -0.8250  0.3984
  831MOL0     C12063   9.858   2.881  10.431  0.0511 -0.6662  0.1832
  831MOL0     C12064   9.919   3.009  10.371 -0.0198 -0.0824 -0.4259
  831MOL0     C12065   9.922   3.127  10.457 -0.8802  0.0219  0.4891
  831MOL0     C12066   9.834   3.245  10.411  0.0409 -0.2927 -0.1462
  831MOL0     N12067   9.883   3.311  10.285 -0.7535  0.4436 -0.1265
  831MOL0     C12068   9.832   3.308  10.153 -0.2123 -0.4451 -0.5135
  831MOL0     C12069   9.927   3.357  10.072  0.8996 -0.6073  0.1480
  831MOL0     C12070   9.904   3.358   9.925 -0.0712 -0.0720  0.0164
  831MOL0     C12071   9.973   3.233   9.856  0.0759  0.1107 -0.2867
  831MOL0     C12072   9.984   3.257   9.700  0.3077 -0.1746 -0.1641
  831MOL0     C12073   9.845   3.238   9.620 -0.2335  0.0399 -0.0699
  831MOL0     O12074   9.844   3.322   9.501 -0.2230 -0.0833  0.1170
  831MOL0     C12075   9.750   3.427   9.505  0.6142 -0.5641 -0.1961
  831MOL0     C12076   9.736   3.497   9.378  0.0516  0.0433  0.1603
  831MOL0     C12077   9.646   3.603   9.357 -1.2419 -0.1377  0.6212
  831MOL0     C12078   9.643   3.665   9.226  0.7995  0.9364  0.1687
  831MOL0     C12079   9.563   3.651   9.471 -0.1226  0.4201  0.2513
  831MOL0     C12080   9.448   3.749   9.447 -0.8152  0.6969 -0.3323
  831MOL0     O12081   9.413   3.815   9.560  0.5107 -0.7849  0.3941
  831MOL0     C12082   9.287   3.881   9.565 -0.4216  0.4650  0.4377
  831MOL0     C12083   9.166   3.813   9.585 -0.0664 -0.1180  0.5289
  831MOL0     C12084   9.047   3.879   9.570  0.0938 -0.0811  0.8009
  831MOL0     C12085   9.041   4.016   9.556  0.2921  0.2186 -0.2146
  831MOL0     O12086   8.920   4.085   9.557 -0.4704 -0.3206  1.2309
  831MOL0     C12087   8.844   4.081   9.678  0.2221  0.9554 -0.0296
  831MOL0     C12088   8.725   3.985   9.668 -0.5358  0.1464  0.4091
  831MOL0     C12089   8.590   4.051   9.622 -0.1427  0.2288  0.6115
  831MOL0     C12090   8.571   4.050   9.474 -0.3841 -0.0861  0.8844
  831MOL0     C12091   8.525   3.912   9.420  0.0723  0.0672  0.1031
  831MOL0     C12092   8.454   3.905   9.285  0.4554  0.1176 -0.1489
  831MOL0     C12093   8.378   3.780   9.257 -0.0249 -0.0044  0.1147
  831MOL0     C12094   8.336   3.787   9.110  0.0535  0.3257  0.5071
  831MOL0    Cl12095   8.479   3.748   9.011  0.0676 -0.6221 -0.3075
  831MOL0     C12096   9.165   4.082   9.546  1.0442 -0.3242 -0.1193
  831MOL0     C12097   9.290   4.029   9.547  0.5362  0.8410 -0.3641
  831MOL0     O12098   9.387   3.750   9.342 -0.0257  0.3456  0.0894
  831MOL0     C12099   9.586   3.594   9.596 -0.4897  0.4983  0.3730
  831MOL0     C12100   9.680   3.487   9.613 -0.2836 -0.0096  0.4242
  831MOL0     N12101  10.026   3.410  10.157 -0.1086  0.3353  0.3595
  831MOL0     N12102  10.003   3.372  10.278  0.3863 -0.1900 -0.0603
  831MOL0     C12103   9.612   2.224  10.222 -0.5233 -0.3750  0.0088
  831MOL0     C12104   9.511   2.122  10.190  0.5525 -1.3157  0.6455
  831MOL0     C12105   9.304   1.841   9.962 -0.3028 -1.4798  0.2938
  831MOL0     C12106   9.271   1.816   9.832 -0.7389  0.1833  0.1942
  831MOL0     C12107   9.173   1.728   9.797 -0.6536 -0.0151  0.4009
  831MOL0     C12108   9.102   1.655   9.894  0.3424 -0.4742 -0.1770
  831MOL0     O12109   9.017   1.546   9.863  0.3071 -0.0742 -0.0759
  831MOL0     C12110   8.993   1.497   9.728  0.0900  0.4573  0.4220
  831MOL0     C12111   8.871   1.405   9.747 -0.8195 -0.1662  0.6029
  831MOL0     C12112   8.786   1.370   9.617 -0.1288 -1.0300 -0.0670
  831MOL0     C12113   8.647   1.307   9.637  0.3647  0.8200  0.3372
  831MOL0     C12114   8.641   1.245   9.767 -0.9822 -0.1214  0.1159
  831MOL0     C12115   8.643   1.193   9.880  0.0943 -0.9954 -0.5609
  831MOL0     C12116   9.124   1.696  10.031 -0.5547  0.6991 -0.0684
  831MOL0     C12117   9.228   1.793  10.057  0.2740  0.0081  0.0036
  831MOL0     H12118   9.696   1.853  10.260  4.6389  1.4850  1.1964
  831MOL0     H12119   9.854   2.018  10.321  0.1116 -0.9815 -1.1915
  831MOL0     H12120   9.696   2.401  10.373 -1.4280 -4.5416 -3.9673
  831MOL0     H12121   9.832   2.357  10.475 -0.4638 -0.9894 -0.7767
  831MOL0     H12122   9.993   2.502  10.346  0.4071 -2.6646  0.1578
  831MOL0     H12123   9.907   2.506  10.197  0.9835  0.7277 -0.4253
  831MOL0     H12124   9.743   2.650  10.262 -0.5457 -2.8567 -1.0908
  831MOL0     H12125   9.763   2.621  10.427 -1.1741  2.5460 -0.5644
  831MOL0     H12126  10.009   2.732  10.403  0.9126 -0.7190 -1.3486
  831MOL0     H12127   9.945   2.791  10.247 -0.2753 -0.0041  0.6083
  831MOL0     H12128   9.750   2.871  10.442 -0.3072 -0.5486 -2.4776
  831MOL0     H12129   9.909   2.883  10.528  4.1329 -1.4256 -1.7213
  831MOL0     H12130  10.021   2.986  10.337 -0.4557 -0.3908 -1.5797
  831MOL0     H12131   9.860   3.029  10.281  0.9335 -0.2781 -1.1203
  831MOL0     H12132   9.869   3.097  10.548 -1.6553  0.0324  0.0489
  831MOL0     H12133  10.020   3.171  10.479 -1.0309  0.7318 -0.2370
  831MOL0     H12134   9.829   3.320  10.490  3.9032  0.7005 -0.6470
  831MOL0     H12135   9.739   3.193  10.397 -0.1167  0.3341 -1.5650
  831MOL0     H12136   9.739   3.258  10.127 -1.7989  2.0016  0.0777
  831MOL0     H12137   9.797   3.370   9.903  0.0244  0.6058 -0.0987
  831MOL0     H12138   9.952   3.449   9.888 -1.0588  0.6795  0.5385
  831MOL0     H12139   9.918   3.140   9.869  1.1821 -1.1365 -3.4736
  831MOL0     H12140  10.073   3.219   9.897 -0.3248  0.5600  0.8763
  831MOL0     H12141  10.065   3.193   9.663 -0.8384 -3.0377  1.8383
  831MOL0     H12142  10.021   3.357   9.676  1.9045 -0.6497  0.1820
  831MOL0     H12143   9.762   3.271   9.683 -1.5011 -2.8087 -0.0815
  831MOL0     H12144   9.842   3.131   9.600 -2.1502  0.4833 -2.7594
  831MOL0     H12145   9.797   3.469   9.292 -2.5718  0.9798 -2.1857
  831MOL0     H12146   9.622   3.769   9.254 -0.0319  1.1062 -0.9919
  831MOL0     H12147   9.725   3.649   9.155 -1.0537  3.0427 -2.6856
  831MOL0     H12148   9.553   3.634   9.172  1.6076 -0.6981 -0.3038
  831MOL0     H12149   9.161   3.705   9.592 -3.3652 -0.0240  0.9146
  831MOL0     H12150   8.961   3.813   9.570 -0.1778  0.1551 -2.0131
  831MOL0     H12151   8.908   4.043   9.759 -0.0644 -0.3691 -0.3865
  831MOL0     H12152   8.803   4.176   9.711 -1.6981  0.1636 -0.0041
  831MOL0     H12153   8.743   3.898   9.604 -2.2331 -1.8894  2.5595
  831MOL0     H12154   8.712   3.949   9.770  3.2749 -1.1620  0.5930
  831MOL0     H12155   8.589   4.153   9.663  0.0048  1.1130 -1.4777
  831MOL0     H12156   8.509   3.998   9.673 -1.4773 -0.1813 -1.7885
  831MOL0     H12157   8.503   4.130   9.443 -2.0111 -1.9319 -0.6700
  831MOL0     H12158   8.661   4.075   9.418 -1.8158 -0.5410 -1.7989
  831MOL0     H12159   8.465   3.863   9.498  1.4694  1.7287  2.3633
  831MOL0     H12160   8.618   3.857   9.404  0.8330  2.1465 -3.6501
  831MOL0     H12161   8.386   3.987   9.259 -0.9377 -0.2844  1.9770
  831MOL0     H12162   8.541   3.935   9.226 -0.2672  1.3748 -0.6150
  831MOL0     H12163   8.285   3.785   9.314  0.8036 -1.4390  1.6919
  831MOL0     H12164   8.436   3.691   9.286 -2.8424 -1.4575  1.7306
  831MOL0     H12165   8.288   3.883   9.088 -0.1935  0.1459  0.2560
  831MOL0     H12166   8.262   3.707   9.103  0.3064  0.0790  0.6217
  831MOL0     H12167   9.155   4.190   9.534  0.0206 -0.3365  0.4654
  831MOL0     H12168   9.383   4.083   9.535  0.0791  1.3715 -1.6357
  831MOL0     H12169   9.538   3.621   9.690  1.1520  1.2041  1.0432
  831MOL0     H12170   9.697   3.449   9.713  0.6373 -0.1944  0.2064
  831MOL0     H12171   9.584   2.328  10.216  0.4345 -0.1402 -0.4269
  831MOL0     H12172   9.414   2.162  10.163  0.0926 -0.0907  3.6226
  831MOL0     H12173   9.329   1.865   9.754 -1.0257  0.8059  0.3676
  831MOL0     H12174   9.161   1.706   9.691 -1.8903  1.0684  0.2945
  831MOL0     H12175   8.966   1.586   9.671 -1.3140 -0.8625 -1.0816
  831MOL0     H12176   9.083   1.450   9.686 -1.1709 -2.4941  0.7218
  831MOL0     H12177   8.819   1.440   9.837  0.8198 -2.2113  2.4505
  831MOL0     H12178   8.912   1.305   9.766 -2.9864 -1.5811 -1.5944
  831MOL0     H12179   8.851   1.300   9.563 -1.2539 -4.2576  2.4152
  831MOL0     H12180   8.783   1.461   9.556 -0.1271 -1.1063 -0.1812
  831MOL0     H12181   8.626   1.246   9.549  0.1843  0.9692  0.2783
  831MOL0     H12182   8.569   1.383   9.631 -0.0140  0.3740 -0.5732
  831MOL0     H12183   8.655   1.135   9.969  1.7018  0.9500  0.5568
  831MOL0     H12184   9.079   1.625  10.100  0.1169 -2.3303 -2.5108
  831MOL0     H12185   9.249   1.819  10.161 -1.1923 -0.3479  0.4126
  832MOL0     O12186   0.172   0.846   5.950 -2.2129  0.8392 -0.1341
  832MOL0     C12187   0.128   0.799   5.847 -0.1922  0.7820 -0.1215
  832MOL0     O12188   0.055   0.680   5.831  0.8741 -0.6674  0.4626
  832MOL0     C12189   0.028   0.611   5.939  0.1302  0.0664  0.0804
  832MOL0     C12190   0.124   0.590   6.045  0.0401  0.0486  0.4060
  832MOL0     C12191   0.088   0.513   6.160 -0.2349 -0.1228  0.0993
  832MOL0     C12192  -0.042   0.454   6.169  0.5935  0.1500  0.4795
  832MOL0     O12193  -0.065   0.387   6.279 -0.3183  0.7828  0.1768
  832MOL0     C12194  -0.170   0.294   6.281 -0.3330 -1.4240 -0.5804
  832MOL0     C12195  -0.159   0.196   6.400 -0.6458  0.7571  0.4098
  832MOL0     C12196  -0.271   0.094   6.375  0.8639  0.0974  0.0681
  832MOL0     C12197  -0.413   0.166   6.395  0.7881 -0.2387  0.4631
  832MOL0     C12198  -0.536   0.071   6.407  0.5697  0.6030 -0.1319
  832MOL0     C12199  -0.524  -0.048   6.513 -0.3287  0.8763  0.0073
  832MOL0     C12200  -0.649  -0.137   6.507 -0.3112  0.1778  1.0654
  832MOL0     C12201  -0.616  -0.274   6.580 -0.1026 -0.4227 -0.8319
  832MOL0     N12202  -0.730  -0.373   6.588  0.1364  0.8474  0.4737
  832MOL0     C12203  -0.849  -0.374   6.521  0.2733  0.3996 -0.2381
  832MOL0     C12204  -0.922  -0.464   6.585  0.4140  0.1972  0.1546
  832MOL0     C12205  -1.060  -0.480   6.548  0.5348 -0.1405  1.1927
  832MOL0     C12206  -1.091  -0.621   6.561  1.1930 -0.1816 -1.0740
  832MOL0     C12207  -1.120  -0.665   6.706  0.7527 -0.3275 -0.3543
  832MOL0     C12208  -1.183  -0.811   6.704 -0.7017  0.8395  0.0198
  832MOL0     O12209  -1.104  -0.904   6.622 -0.2114  0.7601  0.5861
  832MOL0     C12210  -1.145  -1.031   6.585  0.0151  0.6419  0.0693
  832MOL0     C12211  -1.255  -1.103   6.638  0.4672 -0.2672  0.1287
  832MOL0     C12212  -1.286  -1.233   6.588  1.4252  0.0525 -0.9065
  832MOL0     C12213  -1.414  -1.300   6.630 -0.5521  0.5096 -0.3296
  832MOL0     C12214  -1.196  -1.299   6.507 -1.1560  0.4155 -0.2544
  832MOL0     C12215  -1.200  -1.451   6.461  0.7825 -0.2224 -0.6224
  832MOL0     O12216  -1.316  -1.531   6.495  0.2124 -0.1869  0.3131
  832MOL0     C12217  -1.293  -1.663   6.493  0.0323  0.1771 -0.5574
  832MOL0     C12218  -1.338  -1.753   6.390 -0.3698  0.5344 -0.4522
  832MOL0     C12219  -1.312  -1.891   6.401  0.4163  0.6132 -0.6952
  832MOL0     C12220  -1.250  -1.942   6.517 -1.1052  0.2188  0.8463
  832MOL0     O12221  -1.246  -2.076   6.524 -0.6318 -0.4028  0.9848
  832MOL0     C12222  -1.243  -2.142   6.659  0.7673  1.2905  0.0131
  832MOL0     C12223  -1.275  -2.290   6.633  0.5195  0.1481 -0.0371
  832MOL0     C12224  -1.421  -2.316   6.642 -0.8699 -0.2602 -0.6943
  832MOL0     C12225  -1.451  -2.445   6.578  0.2941 -0.4036 -0.9189
  832MOL0     C12226  -1.607  -2.439   6.560 -0.2851 -0.1504  0.0687
  832MOL0     C12227  -1.674  -2.566   6.494 -0.7037 -0.8826 -0.2295
  832MOL0     C12228  -1.668  -2.581   6.337 -0.5541 -0.6999 -0.0938
  832MOL0     C12229  -1.737  -2.711   6.300  0.5097  0.0219 -0.8610
  832MOL0    Cl12230  -1.717  -2.739   6.120  0.2852  0.0507 -0.2187
  832MOL0     C12231  -1.215  -1.862   6.620 -0.6023  0.3506  0.7191
  832MOL0     C12232  -1.232  -1.716   6.605  0.6138 -0.2849  0.4832
  832MOL0     O12233  -1.107  -1.488   6.402  0.0873  0.0658 -0.7625
  832MOL0     C12234  -1.083  -1.229   6.457 -0.1117 -0.4701  0.4303
  832MOL0     C12235  -1.062  -1.098   6.494  0.4070 -0.0631  0.0466
  832MOL0     N12236  -0.849  -0.536   6.682 -0.5706  0.7134  0.1375
  832MOL0     N12237  -0.730  -0.472   6.677 -0.3742  0.3070 -0.8818
  832MOL0     C12238  -0.133   0.469   6.061  0.1363  0.7109  0.6598
  832MOL0     C12239  -0.093   0.535   5.944 -0.6721 -0.1390 -0.5568
  832MOL0     C12240   0.154   0.867   5.718  0.1581 -0.4562  0.1162
  832MOL0     C12241   0.252   0.972   5.715  0.1887 -0.4172  0.3506
  832MOL0     C12242   0.266   1.051   5.600 -0.7543  0.0866  0.4919
  832MOL0     C12243   0.185   1.032   5.483 -0.4311 -0.3622  0.5240
  832MOL0     O12244   0.196   1.125   5.385 -0.4589 -0.1764  0.1536
  832MOL0     C12245   0.166   1.080   5.254 -0.7404 -0.8379  0.6955
  832MOL0     C12246   0.241   1.148   5.134 -0.3567 -0.6127 -1.1352
  832MOL0     C12247   0.226   1.296   5.108 -0.1103 -0.6944  0.3367
  832MOL0     C12248   0.274   1.329   4.959  0.4041 -1.2610 -0.6429
  832MOL0     C12249   0.412   1.307   4.925 -0.3736  0.0793 -0.1391
  832MOL0     C12250   0.522   1.296   4.896 -0.3126  0.9731 -0.3202
  832MOL0     C12251   0.104   0.917   5.485  0.4083  0.4214  0.6043
  832MOL0     C12252   0.091   0.829   5.599 -0.4128 -0.1096  0.4384
  832MOL0     H12253   0.228   0.620   6.035  0.8089 -2.1067  1.1237
  832MOL0     H12254   0.143   0.488   6.250 -1.2169  1.0383  1.0512
  832MOL0     H12255  -0.258   0.356   6.299  0.4087  0.1317 -2.0353
  832MOL0     H12256  -0.184   0.250   6.182 -1.4624 -1.5310 -0.3831
  832MOL0     H12257  -0.069   0.134   6.408 -1.4902 -0.3085  2.6166
  832MOL0     H12258  -0.170   0.240   6.499  1.9367 -0.5283  1.3642
  832MOL0     H12259  -0.251   0.044   6.280  1.4352 -1.7335  1.0999
  832MOL0     H12260  -0.261   0.024   6.459  4.4686  2.9545  2.3630
  832MOL0     H12261  -0.407   0.240   6.475  0.7642  2.3612 -1.7954
  832MOL0     H12262  -0.436   0.226   6.306  0.4024 -1.5855 -0.3805
  832MOL0     H12263  -0.620   0.136   6.435  0.1709 -0.2474  0.7355
  832MOL0     H12264  -0.556   0.020   6.313 -1.4231 -4.4500  2.5982
  832MOL0     H12265  -0.437  -0.109   6.484  0.5262  2.1229 -0.1189
  832MOL0     H12266  -0.505  -0.014   6.615 -4.1927 -2.1734  2.0296
  832MOL0     H12267  -0.737  -0.084   6.543 -0.0972  2.0372 -0.9543
  832MOL0     H12268  -0.658  -0.157   6.400  2.3086  2.2543  0.3551
  832MOL0     H12269  -0.596  -0.254   6.685 -0.5965 -0.5286 -0.7167
  832MOL0     H12270  -0.525  -0.310   6.531  0.4854  0.3896 -0.3581
  832MOL0     H12271  -0.888  -0.297   6.455 -1.0774  1.3808  1.6232
  832MOL0     H12272  -1.127  -0.423   6.612 -0.6472 -0.7976  0.5814
  832MOL0     H12273  -1.078  -0.447   6.445  0.3319 -4.3092 -0.3192
  832MOL0     H12274  -1.015  -0.685   6.515  0.1104 -0.3826 -2.6392
  832MOL0     H12275  -1.183  -0.640   6.505  0.4357 -0.5952  0.2589
  832MOL0     H12276  -1.201  -0.600   6.743  1.7075 -0.7506  2.8272
  832MOL0     H12277  -1.036  -0.657   6.776  0.8452  1.8244 -0.6438
  832MOL0     H12278  -1.289  -0.818   6.678 -1.5907 -1.0385  3.5195
  832MOL0     H12279  -1.182  -0.840   6.810 -0.6565  2.8611  0.6159
  832MOL0     H12280  -1.317  -1.031   6.692  0.7571 -0.0793  0.2098
  832MOL0     H12281  -1.394  -1.368   6.713 -2.2418 -2.0031 -1.8852
  832MOL0     H12282  -1.483  -1.222   6.664 -0.4877  1.0081 -1.3082
  832MOL0     H12283  -1.463  -1.343   6.543  0.7068 -4.6927  1.1798
  832MOL0     H12284  -1.370  -1.703   6.299 -0.3379  2.1784  0.4051
  832MOL0     H12285  -1.339  -1.942   6.309 -0.0849 -0.6562  0.1205
  832MOL0     H12286  -1.142  -2.127   6.697  0.5903  2.4513  0.0493
  832MOL0     H12287  -1.308  -2.098   6.734 -0.7780 -0.3103 -0.3293
  832MOL0     H12288  -1.235  -2.316   6.535 -2.8946  0.3282 -1.5988
  832MOL0     H12289  -1.236  -2.355   6.712 -0.9238  0.3207  0.8565
  832MOL0     H12290  -1.467  -2.235   6.585  0.5522 -0.2027 -1.8237
  832MOL0     H12291  -1.464  -2.305   6.742  3.8075  2.8194  1.3386
  832MOL0     H12292  -1.404  -2.455   6.479 -3.1656  0.4180 -2.7956
  832MOL0     H12293  -1.415  -2.524   6.645 -1.9801 -0.7925 -0.0578
  832MOL0     H12294  -1.624  -2.356   6.491  2.0107 -0.9170 -1.5399
  832MOL0     H12295  -1.664  -2.418   6.651 -1.5964  2.2494 -1.2154
  832MOL0     H12296  -1.633  -2.658   6.537  1.8169  0.4758  0.5296
  832MOL0     H12297  -1.779  -2.556   6.521 -0.0563 -0.6811  2.4680
  832MOL0     H12298  -1.564  -2.580   6.303 -0.1290 -3.7848  0.7639
  832MOL0     H12299  -1.717  -2.503   6.279 -0.2460 -1.2858 -1.1624
  832MOL0     H12300  -1.837  -2.711   6.344  0.7663  0.4388 -0.2548
  832MOL0     H12301  -1.691  -2.795   6.353 -1.9380 -0.9000 -0.0656
  832MOL0     H12302  -1.169  -1.900   6.710 -2.7950  1.8142  2.5652
  832MOL0     H12303  -1.206  -1.659   6.694  1.4929  2.1844 -1.2418
  832MOL0     H12304  -1.000  -1.268   6.400  1.0592  2.6484 -0.2417
  832MOL0     H12305  -0.963  -1.055   6.480  1.0604  0.2328  4.2906
  832MOL0     H12306  -0.239   0.448   6.066  0.6409 -2.0018  1.1426
  832MOL0     H12307  -0.172   0.538   5.869 -0.6111 -1.6255 -0.7053
  832MOL0     H12308   0.311   1.007   5.799  1.4229  0.5699 -0.8608
  832MOL0     H12309   0.346   1.124   5.594 -0.3021 -0.5070 -1.7057
  832MOL0     H12310   0.196   0.975   5.241  0.1514 -0.6989  1.5197
  832MOL0     H12311   0.058   1.093   5.244 -0.4207  3.4952  1.2007
  832MOL0     H12312   0.209   1.091   5.046  1.7512 -1.9779 -1.1003
  832MOL0     H12313   0.349   1.137   5.149 -0.8270 -2.9496  1.4314
  832MOL0     H12314   0.287   1.348   5.183  3.9230 -3.4546 -0.7157
  832MOL0     H12315   0.121   1.327   5.114 -0.6308 -2.1169 -0.8019
  832MOL0     H12316   0.241   1.432   4.941  0.9986 -1.0442 -0.4990
  832MOL0     H12317   0.201   1.271   4.901 -4.8152  1.1000  2.7498
  832MOL0     H12318   0.627   1.283   4.877  0.3288  0.8353  2.6929
  832MOL0     H12319   0.044   0.912   5.395  2.0412 -1.2404 -0.4716
  832MOL0     H12320   0.030   0.739   5.595  1.6577 -1.5487 -2.0312
  833MOL0     O12321   8.404   2.844   7.499  0.3711 -0.0821 -0.1051
  833MOL0     C12322   8.372   2.959   7.481  0.1481  0.1892  0.3502
  833MOL0     O12323   8.246   3.023   7.518 -0.3324 -0.5190 -0.2432
  833MOL0     C12324   8.156   2.953   7.603  0.3645 -0.9058 -0.1412
  833MOL0     C12325   8.096   2.829   7.590 -0.8427 -0.7115  0.7740
  833MOL0     C12326   8.005   2.766   7.684 -0.0781 -0.4789 -0.7998
  833MOL0     C12327   7.969   2.839   7.800  1.3182  0.0054 -0.7306
  833MOL0     O12328   7.874   2.795   7.882 -0.3635  0.5025 -0.7287
  833MOL0     C12329   7.926   2.762   8.017 -0.3613 -0.6259  0.7519
  833MOL0     C12330   7.904   2.619   8.037 -0.0331 -0.1620 -0.1207
  833MOL0     C12331   7.991   2.549   8.146 -0.7206 -0.3538 -0.3212
  833MOL0     C12332   7.990   2.401   8.139 -0.1077  0.7320  0.6561
  833MOL0     C12333   7.846   2.344   8.167 -0.1310  0.0088  0.5572
  833MOL0     C12334   7.765   2.397   8.295 -0.0674  0.2963  0.7282
  833MOL0     C12335   7.615   2.340   8.300  0.0428 -0.5617  0.1486
  833MOL0     C12336   7.598   2.185   8.320 -0.0036 -0.2736  0.1159
  833MOL0     N12337   7.455   2.144   8.300 -0.8065 -0.0597 -0.7095
  833MOL0     C12338   7.352   2.149   8.393  0.4016  0.4302 -0.5656
  833MOL0     C12339   7.249   2.090   8.328 -0.4157  0.2204  0.6972
  833MOL0     C12340   7.123   2.063   8.404 -0.5328  0.8714  0.3266
  833MOL0     C12341   7.133   1.928   8.459 -0.8267 -0.0357 -0.2232
  833MOL0     C12342   7.206   1.937   8.597  0.6834  0.6401 -0.4573
  833MOL0     C12343   7.198   1.805   8.677  0.1920 -1.0004 -0.2168
  833MOL0     O12344   7.267   1.833   8.803  0.0099  0.1662  0.8481
  833MOL0     C12345   7.390   1.779   8.819 -0.4602  0.0120 -0.0251
  833MOL0     C12346   7.442   1.763   8.942 -0.1512  0.7788 -0.9001
  833MOL0     C12347   7.569   1.722   8.971 -0.5821  0.5570 -0.3790
  833MOL0     C12348   7.607   1.680   9.109  0.0951  0.0992 -0.6829
  833MOL0     C12349   7.661   1.704   8.868  0.5924  0.7969  0.1772
  833MOL0     C12350   7.791   1.637   8.870  0.3481 -0.1772  0.5822
  833MOL0     O12351   7.840   1.587   8.753 -0.5827 -0.3869 -0.5010
  833MOL0     C12352   7.970   1.549   8.750  0.8038  0.8884 -0.5227
  833MOL0     C12353   8.018   1.433   8.825  0.2405 -0.5986  0.8873
  833MOL0     C12354   8.152   1.385   8.807 -0.4251  0.4676  0.5426
  833MOL0     C12355   8.232   1.448   8.710  0.2479  0.1253 -0.2151
  833MOL0     O12356   8.360   1.392   8.688  0.4983 -0.0940 -0.0830
  833MOL0     C12357   8.457   1.484   8.640 -0.8645  0.5481  0.6190
  833MOL0     C12358   8.601   1.427   8.665 -0.7703 -0.5304  0.8172
  833MOL0     C12359   8.637   1.432   8.816 -0.4032 -0.1477  0.2975
  833MOL0     C12360   8.687   1.566   8.864 -0.5552 -0.3445  0.0602
  833MOL0     C12361   8.842   1.590   8.858 -0.1391  0.1389 -0.4486
  833MOL0     C12362   8.896   1.580   8.708  0.5170 -0.1892 -0.4316
  833MOL0     C12363   9.045   1.622   8.701 -0.3771  0.2376  0.5376
  833MOL0     C12364   9.143   1.521   8.758 -0.6062  0.3359 -0.7629
  833MOL0    Cl12365   9.130   1.513   8.938 -0.3376  0.0643 -0.1209
  833MOL0     C12366   8.186   1.568   8.646 -0.6748  0.6404 -0.9276
  833MOL0     C12367   8.059   1.617   8.668  0.8666 -0.7287  0.3458
  833MOL0     O12368   7.857   1.662   8.978  0.1229 -0.0094  0.5224
  833MOL0     C12369   7.619   1.732   8.738  0.5890 -0.5450  0.9511
  833MOL0     C12370   7.481   1.765   8.713 -0.2510  0.6331 -0.0750
  833MOL0     N12371   7.285   2.062   8.195 -0.0868 -0.3245 -1.1232
  833MOL0     N12372   7.412   2.087   8.185  0.7993 -0.1394 -0.0113
  833MOL0     C12373   8.019   2.970   7.811 -0.7215  0.3746  0.1355
  833MOL0     C12374   8.117   3.023   7.724 -0.4407 -0.5183 -0.3985
  833MOL0     C12375   8.455   3.041   7.391 -0.4977 -0.3699 -0.1524
  833MOL0     C12376   8.587   2.998   7.359  0.0207 -0.1386 -0.0208
  833MOL0     C12377   8.671   3.073   7.282 -0.0481  0.0021 -0.3799
  833MOL0     C12378   8.624   3.194   7.225  1.3498  0.1338  0.4596
  833MOL0     O12379   8.684   3.260   7.126  0.1670 -0.2194 -0.4372
  833MOL0     C12380   8.825   3.278   7.133  0.6018  0.8279  0.4732
  833MOL0     C12381   8.886   3.313   6.998 -0.7095 -1.0543  0.6245
  833MOL0     C12382   8.878   3.199   6.893 -0.2116  0.9137  0.4998
  833MOL0     C12383   8.958   3.244   6.770 -0.2551 -0.8339  0.6475
  833MOL0     C12384   8.874   3.329   6.682  0.5186  0.4507  0.3275
  833MOL0     C12385   8.805   3.406   6.622  0.4435 -0.0594  0.0035
  833MOL0     C12386   8.488   3.233   7.253 -0.2456  0.1971  0.0045
  833MOL0     C12387   8.398   3.155   7.326  1.0426  0.0674 -0.2888
  833MOL0     H12388   8.120   2.764   7.506  0.0923 -0.9620  1.2189
  833MOL0     H12389   7.961   2.669   7.661 -4.2086  1.0682 -0.3145
  833MOL0     H12390   8.034   2.780   8.018 -0.1503 -1.4837 -1.1835
  833MOL0     H12391   7.872   2.812   8.098 -3.6875 -0.5203 -1.3461
  833MOL0     H12392   7.803   2.599   8.074 -0.3028  2.3149  0.7155
  833MOL0     H12393   7.928   2.563   7.947 -1.1084 -1.7893  0.5659
  833MOL0     H12394   8.093   2.586   8.144 -1.3149  1.5103  0.7347
  833MOL0     H12395   7.957   2.592   8.241  1.8196  2.1164 -0.4191
  833MOL0     H12396   8.020   2.363   8.041 -0.7196 -1.0973  1.1327
  833MOL0     H12397   8.059   2.355   8.211 -1.0976 -0.7667  0.7093
  833MOL0     H12398   7.790   2.365   8.076  0.2104  0.1242  0.3732
  833MOL0     H12399   7.852   2.235   8.178 -0.9878 -0.3196 -1.7406
  833MOL0     H12400   7.812   2.354   8.385  1.5672  0.0279 -0.2141
  833MOL0     H12401   7.757   2.505   8.309 -1.2905  0.5179 -1.2893
  833MOL0     H12402   7.568   2.386   8.387 -2.1067 -2.3535  0.0194
  833MOL0     H12403   7.572   2.377   8.207  1.9913  0.5796 -0.3566
  833MOL0     H12404   7.622   2.161   8.424 -3.2153 -4.6989  0.1534
  833MOL0     H12405   7.666   2.136   8.250  0.0963 -3.1652  2.0857
  833MOL0     H12406   7.353   2.169   8.499 -0.8896  0.8362 -0.6103
  833MOL0     H12407   7.111   2.142   8.479  1.2787 -0.8553  2.5899
  833MOL0     H12408   7.030   2.049   8.347 -0.4508  0.0819  0.3663
  833MOL0     H12409   7.208   1.868   8.407 -0.1344  0.7552 -0.1727
  833MOL0     H12410   7.039   1.873   8.459 -1.1162  0.4517 -0.7702
  833MOL0     H12411   7.159   2.021   8.650 -1.3872 -0.5958 -0.2208
  833MOL0     H12412   7.313   1.951   8.580  0.6001  0.9046 -0.7884
  833MOL0     H12413   7.236   1.716   8.627 -1.2044 -1.5574 -0.3103
  833MOL0     H12414   7.091   1.786   8.684 -0.5684  2.0116 -1.8779
  833MOL0     H12415   7.373   1.780   9.024 -0.6703  0.6486 -1.3029
  833MOL0     H12416   7.665   1.588   9.122  3.3808  1.9088 -1.3281
  833MOL0     H12417   7.642   1.762   9.172 -2.2340 -0.3288  1.3133
  833MOL0     H12418   7.515   1.654   9.162  1.5076 -0.3893  1.6399
  833MOL0     H12419   7.952   1.376   8.890 -0.1658 -2.7160 -1.2272
  833MOL0     H12420   8.187   1.291   8.849 -1.4735 -0.4674 -0.6037
  833MOL0     H12421   8.445   1.494   8.532 -1.5700  2.2427  0.8153
  833MOL0     H12422   8.453   1.586   8.679 -1.1726  0.6542  0.3063
  833MOL0     H12423   8.591   1.321   8.642  1.1449 -0.3961 -0.8572
  833MOL0     H12424   8.668   1.478   8.595 -1.6882 -0.5566 -0.0920
  833MOL0     H12425   8.701   1.349   8.847 -1.2595 -1.4555 -1.2592
  833MOL0     H12426   8.551   1.402   8.876 -1.5686  0.3845 -1.0532
  833MOL0     H12427   8.642   1.647   8.806 -0.5326 -1.5821 -1.7873
  833MOL0     H12428   8.657   1.576   8.969  2.7328  5.1656  0.8635
  833MOL0     H12429   8.898   1.505   8.896  1.7641  1.3605 -0.3831
  833MOL0     H12430   8.876   1.680   8.910 -0.0847  2.0170 -3.4923
  833MOL0     H12431   8.888   1.474   8.681  0.2691 -0.2503 -0.1342
  833MOL0     H12432   8.842   1.638   8.633 -0.4519 -2.4534 -1.5979
  833MOL0     H12433   9.075   1.717   8.747 -0.0681  0.7833 -0.7467
  833MOL0     H12434   9.069   1.614   8.594  0.1243 -2.5042  0.7775
  833MOL0     H12435   9.243   1.541   8.719 -0.4434 -0.8813 -1.0150
  833MOL0     H12436   9.108   1.423   8.724 -4.6877  1.5323 -0.4833
  833MOL0     H12437   8.254   1.627   8.585  0.9482 -3.1412 -3.1027
  833MOL0     H12438   8.041   1.719   8.635  0.8276 -0.9718 -0.4245
  833MOL0     H12439   7.688   1.726   8.655 -0.6349  3.0262 -0.5013
  833MOL0     H12440   7.454   1.793   8.612 -1.2767 -0.6434 -0.1929
  833MOL0     H12441   7.983   3.044   7.882  0.1742  0.1789  0.8120
  833MOL0     H12442   8.160   3.121   7.740 -0.0703 -0.7886  0.2851
  833MOL0     H12443   8.627   2.908   7.404  1.3837  1.1708  1.5187
  833MOL0     H12444   8.772   3.039   7.263  0.6625  0.3137  2.4134
  833MOL0     H12445   8.865   3.337   7.217  1.3029 -0.4497  1.0598
  833MOL0     H12446   8.878   3.183   7.143  0.3624  0.6320 -0.1036
  833MOL0     H12447   8.991   3.338   7.012 -0.4960 -2.7548  2.5321
  833MOL0     H12448   8.837   3.407   6.968  0.1047 -0.2643  1.6808
  833MOL0     H12449   8.771   3.182   6.874 -0.7342  5.0023 -1.0854
  833MOL0     H12450   8.920   3.114   6.948  0.8995 -0.5507 -2.4498
  833MOL0     H12451   8.989   3.158   6.709  1.7437  0.7083 -0.6156
  833MOL0     H12452   9.055   3.287   6.796  0.3599 -0.5939 -1.7708
  833MOL0     H12453   8.733   3.475   6.584  2.3958  3.8984  2.7433
  833MOL0     H12454   8.455   3.325   7.205 -0.3307  0.1830  0.0345
  833MOL0     H12455   8.291   3.169   7.334  0.8403 -0.2458 -2.0935
  834MOL0     O12456   4.340   6.026   4.069 -0.6565 -0.9382  0.5816
  834MOL0     C12457   4.235   6.006   4.121  0.3980 -0.6111  0.3863
  834MOL0     O12458   4.219   5.961   4.245 -0.9548  0.2078 -0.4402
  834MOL0     C12459   4.322   5.920   4.327 -0.0738  0.4346  0.5143
  834MOL0     C12460   4.278   5.902   4.459 -0.3470  0.2584 -0.1596
  834MOL0     C12461   4.372   5.872   4.556  0.5752  0.6757 -0.0896
  834MOL0     C12462   4.513   5.858   4.526  0.3301 -0.1882  0.3825
  834MOL0     O12463   4.595   5.837   4.626 -0.1371 -1.0333  0.2715
  834MOL0     C12464   4.737   5.813   4.601 -0.2964 -0.4165  0.7642
  834MOL0     C12465   4.813   5.943   4.583 -1.3687 -0.8195 -0.4893
  834MOL0     C12466   4.965   5.919   4.603  0.1699  0.3386  0.2197
  834MOL0     C12467   5.040   6.056   4.590 -0.0640 -0.1463  0.3296
  834MOL0     C12468   5.185   6.046   4.652  0.5435  0.6295  0.3173
  834MOL0     C12469   5.278   5.969   4.560  0.0883  0.0575  0.5747
  834MOL0     C12470   5.389   5.894   4.645 -0.1692  0.7316  0.3033
  834MOL0     C12471   5.497   5.994   4.694  0.2557 -0.1883  0.7837
  834MOL0     N12472   5.580   6.043   4.580 -0.0852 -0.9924  0.8801
  834MOL0     C12473   5.539   6.142   4.493  0.0527  0.7183 -0.5925
  834MOL0     C12474   5.643   6.164   4.406  0.8462 -0.9974 -0.4506
  834MOL0     C12475   5.649   6.247   4.287  0.9078  0.5137  0.2094
  834MOL0     C12476   5.578   6.180   4.160  0.4144 -0.1639 -0.0905
  834MOL0     C12477   5.612   6.255   4.031 -0.2123  0.0615  0.2448
  834MOL0     C12478   5.631   6.160   3.909 -0.1189  0.0366  0.0590
  834MOL0     O12479   5.762   6.095   3.912 -0.2757 -0.7337 -0.0096
  834MOL0     C12480   5.802   6.015   3.806  0.4165 -0.5830 -0.7859
  834MOL0     C12481   5.736   6.011   3.685  0.7322  0.2249  0.0366
  834MOL0     C12482   5.767   5.912   3.587  0.4470 -1.0009  0.1290
  834MOL0     C12483   5.693   5.915   3.451 -0.1531 -0.6034 -0.1536
  834MOL0     C12484   5.869   5.816   3.615  0.3407 -1.4695 -0.9684
  834MOL0     C12485   5.908   5.694   3.528  0.5328 -0.3189  0.4425
  834MOL0     O12486   5.985   5.598   3.580 -0.2972  0.5811  1.2026
  834MOL0     C12487   6.021   5.483   3.507 -0.1529  0.7620 -0.0187
  834MOL0     C12488   6.117   5.495   3.403  0.0931 -0.1983 -0.0358
  834MOL0     C12489   6.166   5.386   3.348 -0.2218 -0.0882 -0.1005
  834MOL0     C12490   6.125   5.256   3.373  0.0069  0.7542 -1.3311
  834MOL0     O12491   6.152   5.146   3.302  0.3228 -0.3316 -0.0791
  834MOL0     C12492   6.240   5.154   3.192 -0.9233  0.5209 -1.1480
  834MOL0     C12493   6.258   5.004   3.149  0.5705 -0.4121  0.6425
  834MOL0     C12494   6.131   4.944   3.083  0.0949  0.4192  0.5440
  834MOL0     C12495   6.165   4.799   3.065 -0.7960 -0.3954 -0.0887
  834MOL0     C12496   6.062   4.718   2.980  0.5035 -0.4004  0.1311
  834MOL0     C12497   6.078   4.569   2.975 -0.5858 -0.6491  0.3641
  834MOL0     C12498   5.976   4.503   2.874  1.9493  0.3120 -0.2267
  834MOL0     C12499   5.841   4.500   2.944 -0.0748  0.2249  0.1269
  834MOL0    Cl12500   5.716   4.456   2.833 -0.3008 -0.1202 -0.0432
  834MOL0     C12501   6.021   5.245   3.473 -0.2620  0.6544 -0.3648
  834MOL0     C12502   5.974   5.356   3.543  0.2433  1.1221 -0.3810
  834MOL0     O12503   5.860   5.690   3.413 -0.2649 -0.4734 -0.5493
  834MOL0     C12504   5.936   5.831   3.737 -0.4759 -0.6283 -0.6774
  834MOL0     C12505   5.899   5.924   3.833  0.1919 -0.2545 -0.8737
  834MOL0     N12506   5.752   6.083   4.450  0.1802 -0.0570  0.7532
  834MOL0     N12507   5.714   6.008   4.555 -0.0079  0.2029  0.9544
  834MOL0     C12508   4.546   5.865   4.393 -0.7377 -0.2772  0.3601
  834MOL0     C12509   4.459   5.906   4.292 -0.3731 -0.1283  0.4083
  834MOL0     C12510   4.116   6.007   4.034  0.7820  0.2574  0.5423
  834MOL0     C12511   4.126   6.022   3.890  0.4791 -0.8871 -0.7997
  834MOL0     C12512   4.002   6.007   3.812  0.4325  1.9700 -0.3184
  834MOL0     C12513   3.870   5.984   3.863 -1.3084  0.9989  0.6072
  834MOL0     O12514   3.751   5.968   3.802  1.0960  0.9291  0.0081
  834MOL0     C12515   3.744   5.953   3.659 -1.0073 -0.2356 -0.3468
  834MOL0     C12516   3.720   6.083   3.590  0.2622 -0.3141  0.3852
  834MOL0     C12517   3.762   6.080   3.443 -0.0990  0.2132  0.1463
  834MOL0     C12518   3.769   6.229   3.385  0.5686 -0.0704  0.4604
  834MOL0     C12519   3.834   6.256   3.257  0.2256  0.1162  0.4584
  834MOL0     C12520   3.901   6.269   3.155  0.1157  0.0700 -0.2859
  834MOL0     C12521   3.873   5.967   4.006 -0.8916 -0.9964 -1.0123
  834MOL0     C12522   3.987   5.978   4.093 -0.7042 -0.1048  0.1385
  834MOL0     H12523   4.174   5.903   4.489 -0.4386 -1.0873 -0.3840
  834MOL0     H12524   4.343   5.851   4.659 -1.1905 -0.9523 -0.8436
  834MOL0     H12525   4.779   5.764   4.689  1.3986  2.3171  1.6086
  834MOL0     H12526   4.750   5.754   4.510  1.3889 -1.2647  1.5190
  834MOL0     H12527   4.779   5.983   4.487 -3.4539  0.6455  0.7842
  834MOL0     H12528   4.779   6.015   4.658  1.4084  3.1990 -2.7305
  834MOL0     H12529   4.976   5.885   4.706 -0.3587  1.8915  0.8165
  834MOL0     H12530   4.997   5.843   4.530 -3.6783 -2.0373  0.7549
  834MOL0     H12531   5.045   6.100   4.490  0.4964  0.4394  0.6044
  834MOL0     H12532   4.979   6.118   4.656  0.8142 -1.7837  2.8485
  834MOL0     H12533   5.219   6.146   4.679 -1.2545  1.8357 -1.6029
  834MOL0     H12534   5.179   5.984   4.742  1.1081 -0.9117 -0.6648
  834MOL0     H12535   5.230   5.882   4.515 -1.1494  0.5891  0.8281
  834MOL0     H12536   5.310   6.024   4.471 -0.3329 -0.7196 -0.0627
  834MOL0     H12537   5.341   5.844   4.730  2.2030 -0.7570  0.8866
  834MOL0     H12538   5.441   5.820   4.585 -1.3271  1.7283 -2.0333
  834MOL0     H12539   5.572   5.938   4.751 -1.6282 -2.3629  1.2943
  834MOL0     H12540   5.469   6.072   4.765  1.0638  0.4865  0.3798
  834MOL0     H12541   5.445   6.197   4.493  0.2780  1.1054  0.1206
  834MOL0     H12542   5.601   6.341   4.316 -2.5171 -1.3806  1.2764
  834MOL0     H12543   5.752   6.268   4.257  1.4059  2.4300  2.9028
  834MOL0     H12544   5.471   6.187   4.177  0.6811  0.2360  1.5372
  834MOL0     H12545   5.618   6.078   4.148 -2.5151 -1.1258 -3.3447
  834MOL0     H12546   5.712   6.300   4.033  0.0189 -0.1344 -2.6383
  834MOL0     H12547   5.537   6.332   4.009 -0.8077 -0.3388  0.8640
  834MOL0     H12548   5.637   6.225   3.822  1.4999  2.5215  1.8998
  834MOL0     H12549   5.551   6.086   3.895 -2.7198  2.1934  2.2111
  834MOL0     H12550   5.666   6.080   3.639 -0.8640 -0.0492  1.9379
  834MOL0     H12551   5.752   5.966   3.374  0.8105  3.0316  2.7342
  834MOL0     H12552   5.668   5.815   3.414  3.0532 -0.9207 -1.8173
  834MOL0     H12553   5.606   5.979   3.468 -0.7945 -1.8720  1.6113
  834MOL0     H12554   6.149   5.597   3.390 -4.1441  1.8458  3.0141
  834MOL0     H12555   6.229   5.409   3.262 -3.1171  1.5076 -1.9723
  834MOL0     H12556   6.227   5.223   3.108  0.8679 -0.3686 -2.2187
  834MOL0     H12557   6.340   5.181   3.228 -2.1176  0.3430  2.6501
  834MOL0     H12558   6.343   5.012   3.080  0.2095  2.4213  0.4206
  834MOL0     H12559   6.299   4.939   3.228  0.9232 -2.5379 -1.2092
  834MOL0     H12560   6.111   4.998   2.990  1.5337  2.0024  1.0939
  834MOL0     H12561   6.048   4.957   3.154  0.1004  3.3127  0.1547
  834MOL0     H12562   6.259   4.805   3.010 -2.1433  1.0258 -2.3914
  834MOL0     H12563   6.186   4.749   3.160  1.2896 -0.3775 -0.4917
  834MOL0     H12564   6.066   4.762   2.880  1.8161 -0.8749 -0.0379
  834MOL0     H12565   5.967   4.742   3.027 -0.2504  1.3969 -2.1218
  834MOL0     H12566   6.176   4.568   2.926 -0.3040  1.2719  0.8170
  834MOL0     H12567   6.081   4.524   3.074  0.8736 -1.0052  0.1804
  834MOL0     H12568   6.009   4.400   2.859 -1.1844 -1.1366  1.7285
  834MOL0     H12569   5.975   4.564   2.784  1.2698 -1.4645 -1.4745
  834MOL0     H12570   5.815   4.591   2.998 -1.4769 -0.6613  0.9993
  834MOL0     H12571   5.836   4.422   3.020  3.5082 -0.3701 -0.0337
  834MOL0     H12572   6.001   5.145   3.510  2.6033  0.1889  0.1803
  834MOL0     H12573   5.900   5.346   3.622 -2.6306 -0.0877 -3.0356
  834MOL0     H12574   6.005   5.755   3.774 -0.8576  0.6991  3.2543
  834MOL0     H12575   5.963   5.938   3.920 -0.5672  0.4246 -0.4020
  834MOL0     H12576   4.650   5.851   4.367 -0.5764 -1.9267  1.6357
  834MOL0     H12577   4.498   5.943   4.198 -0.5923 -1.5307 -0.2649
  834MOL0     H12578   4.222   6.053   3.850  1.0610  3.4917  3.0941
  834MOL0     H12579   4.006   6.004   3.704  3.0865 -0.5569 -0.2813
  834MOL0     H12580   3.833   5.898   3.625  0.7091  1.4697  1.0907
  834MOL0     H12581   3.661   5.883   3.648 -1.1993  0.3096 -2.9320
  834MOL0     H12582   3.781   6.162   3.635 -1.8704  3.9632 -3.3380
  834MOL0     H12583   3.614   6.108   3.600  0.5501  1.0013  0.3620
  834MOL0     H12584   3.686   6.031   3.381 -0.6687  1.4733 -0.1994
  834MOL0     H12585   3.858   6.030   3.428 -0.3241  0.1765 -1.2902
  834MOL0     H12586   3.824   6.294   3.454  0.2389  0.5864  0.1119
  834MOL0     H12587   3.668   6.269   3.381  0.7630  0.5578  1.4322
  834MOL0     H12588   3.952   6.254   3.062  1.4136 -1.4395  0.6266
  834MOL0     H12589   3.780   5.939   4.055 -0.2440  1.0207  1.6063
  834MOL0     H12590   3.966   5.965   4.199 -4.3344 -0.6114 -0.5109
  835MOL0     O12591  10.132   2.939   0.146  0.0475  0.2883 -0.7395
  835MOL0     C12592  10.143   2.946   0.272  0.1918 -0.6578 -0.2713
  835MOL0     O12593  10.247   2.897   0.349  0.3841  0.0155  0.7045
  835MOL0     C12594  10.374   2.874   0.288 -0.3780  0.0049  0.6052
  835MOL0     C12595  10.452   2.772   0.342 -0.3825  0.0059 -0.0998
  835MOL0     C12596  10.572   2.743   0.285 -0.1686 -0.0305  0.7916
  835MOL0     C12597  10.624   2.817   0.178 -0.0684 -1.0503  0.3411
  835MOL0     O12598  10.743   2.784   0.116  0.3669  1.1695  0.4673
  835MOL0     C12599  10.774   2.643   0.095 -0.6039  0.9413 -0.2089
  835MOL0     C12600  10.918   2.626   0.042 -0.3859 -0.2912  0.1232
  835MOL0     C12601  11.013   2.676   0.160  0.5179  0.0204  0.1099
  835MOL0     C12602  11.163   2.632   0.128 -0.6629 -0.7559  0.5950
  835MOL0     C12603  11.268   2.702   0.217  0.1676  1.0860 -0.2307
  835MOL0     C12604  11.412   2.650   0.198  0.6495  0.2584 -0.0936
  835MOL0     C12605  11.461   2.684   0.056  0.4847  0.4637  0.0390
  835MOL0     C12606  11.606   2.727   0.050 -0.8242 -0.0047  0.2779
  835MOL0     N12607  11.653   2.775  -0.081  0.2848 -0.5253 -0.8202
  835MOL0     C12608  11.627   2.902  -0.136 -0.9795 -0.1904 -0.9024
  835MOL0     C12609  11.720   2.906  -0.240  0.1535 -0.5392 -0.0013
  835MOL0     C12610  11.732   3.028  -0.330  0.2007 -0.1765 -0.0419
  835MOL0     C12611  11.745   2.997  -0.480  0.7332  0.7458  0.2015
  835MOL0     C12612  11.632   3.052  -0.570  0.1159 -0.1106 -0.8184
  835MOL0     C12613  11.642   2.995  -0.716  0.3437 -0.1472 -0.5506
  835MOL0     O12614  11.605   2.858  -0.699 -0.2914  0.5195  0.4240
  835MOL0     C12615  11.637   2.783  -0.811 -1.2280  0.3425 -0.3048
  835MOL0     C12616  11.647   2.645  -0.792  0.9743 -0.1723 -0.1242
  835MOL0     C12617  11.671   2.553  -0.895 -0.8486 -0.9585 -0.9338
  835MOL0     C12618  11.673   2.410  -0.858 -0.5431  0.6953 -0.5744
  835MOL0     C12619  11.697   2.595  -1.026 -0.2183 -0.1460 -0.1442
  835MOL0     C12620  11.738   2.517  -1.145  0.8435 -0.3689 -0.3749
  835MOL0     O12621  11.783   2.593  -1.247  0.7120  0.5806 -0.3116
  835MOL0     C12622  11.795   2.530  -1.367  0.3919 -0.5524  0.0023
  835MOL0     C12623  11.683   2.538  -1.447  0.2064 -0.1425  0.0088
  835MOL0     C12624  11.697   2.474  -1.571  0.6136 -0.4105 -0.1336
  835MOL0     C12625  11.821   2.423  -1.619  0.6875  0.7189 -0.1598
  835MOL0     O12626  11.833   2.362  -1.748  0.0610 -0.4367  0.3488
  835MOL0     C12627  11.908   2.249  -1.772  0.4107 -0.0460  0.3505
  835MOL0     C12628  11.920   2.210  -1.919 -0.1045  0.1068 -1.1696
  835MOL0     C12629  11.964   2.332  -2.000 -0.9171  0.2164 -0.5150
  835MOL0     C12630  11.841   2.399  -2.075  0.4257 -0.1105 -0.5673
  835MOL0     C12631  11.893   2.534  -2.141 -0.1700  0.3792 -0.3372
  835MOL0     C12632  11.768   2.622  -2.153 -0.1465 -0.1520 -0.5466
  835MOL0     C12633  11.811   2.752  -2.227 -0.3301  1.2382 -0.0858
  835MOL0     C12634  11.707   2.851  -2.220  0.0549 -0.0882 -0.1430
  835MOL0    Cl12635  11.535   2.797  -2.257 -0.4320  0.5947  0.3837
  835MOL0     C12636  11.928   2.417  -1.530  0.5305  0.5515 -1.2797
  835MOL0     C12637  11.913   2.478  -1.409 -0.7694 -0.0648 -0.0294
  835MOL0     O12638  11.704   2.397  -1.150 -0.8960 -0.2749  0.1545
  835MOL0     C12639  11.662   2.731  -1.045 -0.6539 -0.1208 -0.3253
  835MOL0     C12640  11.634   2.820  -0.940  0.1060  0.3749  0.6155
  835MOL0     N12641  11.784   2.782  -0.259 -0.1430  0.0027 -0.6601
  835MOL0     N12642  11.743   2.713  -0.160  0.3153  1.1002  0.2955
  835MOL0     C12643  10.554   2.913   0.121  0.4009  0.1775 -0.9033
  835MOL0     C12644  10.431   2.945   0.176  0.7108 -0.0440  0.1714
  835MOL0     C12645  10.015   2.992   0.345 -0.0333 -0.3163 -0.1946
  835MOL0     C12646   9.999   2.959   0.476 -0.0900 -0.3373 -0.2711
  835MOL0     C12647   9.887   2.990   0.546  0.3911  0.6372 -0.8744
  835MOL0     C12648   9.776   3.047   0.485 -0.7601 -0.5585 -0.7827
  835MOL0     O12649   9.665   3.039   0.564  0.2792  0.1398 -0.2827
  835MOL0     C12650   9.552   3.115   0.528 -0.2982 -0.1820  0.2663
  835MOL0     C12651   9.560   3.255   0.589 -0.4866  0.0255 -0.2571
  835MOL0     C12652   9.420   3.316   0.583 -0.4472 -1.0384  0.5671
  835MOL0     C12653   9.360   3.329   0.437 -0.1975  0.4490 -0.5093
  835MOL0     C12654   9.428   3.432   0.356 -0.4152  0.0598 -0.0413
  835MOL0     C12655   9.469   3.517   0.278 -0.0120 -0.1372 -0.6162
  835MOL0     C12656   9.785   3.084   0.348 -0.3628 -1.0684  0.0269
  835MOL0     C12657   9.903   3.058   0.278  0.0574 -0.6216  0.7549
  835MOL0     H12658  10.413   2.728   0.434 -0.1618 -1.7023 -0.7850
  835MOL0     H12659  10.639   2.678   0.341 -0.5394  1.0588  2.5419
  835MOL0     H12660  10.778   2.586   0.188 -0.8972  2.9618  1.1163
  835MOL0     H12661  10.709   2.578   0.035 -0.4735 -1.7081  2.3298
  835MOL0     H12662  10.938   2.519   0.046  1.8655  0.1292  1.9637
  835MOL0     H12663  10.920   2.671  -0.058  1.0135  2.2698  1.2257
  835MOL0     H12664  11.017   2.785   0.157  1.7135  0.0097  0.7239
  835MOL0     H12665  10.982   2.643   0.259 -0.1610  0.4861  0.0532
  835MOL0     H12666  11.170   2.524   0.139  0.5699 -0.7901 -0.3110
  835MOL0     H12667  11.186   2.657   0.024  2.0181  2.3659  1.7683
  835MOL0     H12668  11.264   2.811   0.210 -0.4859  1.1234  0.5304
  835MOL0     H12669  11.244   2.687   0.323 -1.1803  0.0181 -0.6545
  835MOL0     H12670  11.483   2.683   0.275 -0.5074  0.2835  1.0018
  835MOL0     H12671  11.404   2.543   0.216  0.2965  0.8138  4.1606
  835MOL0     H12672  11.443   2.598  -0.009  1.1567  0.4064 -0.0783
  835MOL0     H12673  11.400   2.764   0.013 -1.5156 -2.3775 -2.8139
  835MOL0     H12674  11.661   2.635   0.074 -3.4308 -2.9123 -3.5945
  835MOL0     H12675  11.628   2.809   0.118  1.1753  0.2850 -0.6436
  835MOL0     H12676  11.555   2.977  -0.104  0.8944  1.0881  0.5176
  835MOL0     H12677  11.660   3.109  -0.315 -3.6712 -3.1066 -1.3015
  835MOL0     H12678  11.830   3.077  -0.326  0.8534 -0.8764 -3.6896
  835MOL0     H12679  11.742   2.888  -0.490  0.6582  0.6418  1.2206
  835MOL0     H12680  11.842   3.027  -0.520  1.4202 -1.1868  0.2866
  835MOL0     H12681  11.642   3.160  -0.580 -1.4507 -0.0294 -1.8105
  835MOL0     H12682  11.531   3.037  -0.531 -0.3146 -0.4161 -2.0051
  835MOL0     H12683  11.740   3.015  -0.762 -0.7025  0.6942 -2.5386
  835MOL0     H12684  11.571   3.051  -0.776  0.9438 -0.5497 -1.6833
  835MOL0     H12685  11.626   2.622  -0.688 -0.2356 -0.0452 -0.3314
  835MOL0     H12686  11.611   2.354  -0.930  2.2317 -1.2739 -1.5916
  835MOL0     H12687  11.773   2.365  -0.856 -0.6148  0.4705 -1.4957
  835MOL0     H12688  11.621   2.399  -0.763  0.3796  0.6563 -0.0722
  835MOL0     H12689  11.594   2.596  -1.425  2.0713  2.5330  1.0540
  835MOL0     H12690  11.618   2.460  -1.644  1.5016  0.6874 -1.3596
  835MOL0     H12691  12.013   2.273  -1.748  1.5729 -2.3444 -1.9359
  835MOL0     H12692  11.875   2.165  -1.710  0.5019 -0.2884  0.0715
  835MOL0     H12693  11.993   2.128  -1.924  2.6028  2.2829 -0.3382
  835MOL0     H12694  11.823   2.171  -1.951 -0.0100 -1.9169  0.7561
  835MOL0     H12695  12.047   2.322  -2.071  0.3110  0.2701  0.8669
  835MOL0     H12696  12.011   2.396  -1.924 -0.1294 -1.9227  0.9073
  835MOL0     H12697  11.821   2.328  -2.156  1.2456  0.6309 -1.4443
  835MOL0     H12698  11.750   2.419  -2.019 -0.3595 -2.3900 -0.9046
  835MOL0     H12699  11.940   2.517  -2.238 -0.4949 -0.0572 -0.4178
  835MOL0     H12700  11.972   2.561  -2.070 -1.2389 -3.6213  2.7130
  835MOL0     H12701  11.685   2.575  -2.207 -1.1987 -1.6992  2.1921
  835MOL0     H12702  11.733   2.652  -2.054 -2.5178 -0.2175 -1.3079
  835MOL0     H12703  11.831   2.724  -2.331  0.0393  0.3974  0.2035
  835MOL0     H12704  11.899   2.804  -2.187  0.0020  0.1639  0.6050
  835MOL0     H12705  11.723   2.923  -2.301  1.1966 -0.8097 -0.5715
  835MOL0     H12706  11.702   2.895  -2.119 -0.7735  0.2552 -0.3172
  835MOL0     H12707  12.024   2.377  -1.560 -0.5100 -1.6211 -1.9069
  835MOL0     H12708  11.994   2.501  -1.340  0.3427 -3.6124  0.0766
  835MOL0     H12709  11.683   2.775  -1.142  0.0803 -1.4361 -0.7733
  835MOL0     H12710  11.610   2.926  -0.948 -3.9390 -0.1919  2.5321
  835MOL0     H12711  10.581   2.969   0.032  1.9617  2.2229  0.7356
  835MOL0     H12712  10.370   3.020   0.126  0.0039 -1.6569 -1.5185
  835MOL0     H12713  10.075   2.907   0.532 -0.2084  1.8257  2.0713
  835MOL0     H12714   9.880   2.958   0.650  0.1570  1.0328 -0.7640
  835MOL0     H12715   9.545   3.123   0.419 -1.9541 -0.5707  0.3100
  835MOL0     H12716   9.458   3.069   0.562 -0.5923  0.4015  0.2517
  835MOL0     H12717   9.637   3.295   0.523  2.4500 -0.9933  2.3298
  835MOL0     H12718   9.592   3.254   0.693  0.2796  0.6117 -0.4812
  835MOL0     H12719   9.435   3.410   0.636 -4.7919  0.9816 -1.3143
  835MOL0     H12720   9.358   3.251   0.646 -1.6807 -1.2730 -0.8447
  835MOL0     H12721   9.254   3.355   0.431  0.0492  1.5624 -0.3272
  835MOL0     H12722   9.362   3.230   0.390  2.4485 -0.4575  1.2437
  835MOL0     H12723   9.500   3.596   0.212  0.2914 -1.3221 -1.9382
  835MOL0     H12724   9.695   3.127   0.306  0.3473  1.4698  0.9250
  835MOL0     H12725   9.926   3.086   0.175 -1.9756 -2.0133 -0.1596
  836MOL0     O12726  10.899   9.186   0.017  0.7650  0.0229  1.2792
  836MOL0     C12727  10.948   9.255  -0.075 -0.1004 -0.4038  0.3747
  836MOL0     O12728  10.931   9.231  -0.211 -0.9183  0.2529 -0.8992
  836MOL0     C12729  10.868   9.124  -0.254  0.2019  0.0217 -0.3349
  836MOL0     C12730  10.754   9.064  -0.203  0.0369  0.0587 -0.2983
  836MOL0     C12731  10.699   8.958  -0.277 -0.2872  0.9334 -0.2540
  836MOL0     C12732  10.757   8.903  -0.393  0.5548 -0.5735 -0.7023
  836MOL0     O12733  10.711   8.778  -0.435  0.1155  0.0699 -0.0965
  836MOL0     C12734  10.707   8.753  -0.574 -0.9821  0.5490  0.3950
  836MOL0     C12735  10.668   8.607  -0.606  0.0399 -0.6791 -0.0972
  836MOL0     C12736  10.786   8.520  -0.563 -0.4097  0.1285 -0.0030
  836MOL0     C12737  10.764   8.375  -0.594  0.6284 -0.4538  0.0974
  836MOL0     C12738  10.810   8.339  -0.738  0.7455  0.7357  0.3517
  836MOL0     C12739  10.836   8.188  -0.776  0.4051 -0.3004 -0.0303
  836MOL0     C12740  10.742   8.094  -0.696  0.8859 -0.0674 -0.5257
  836MOL0     C12741  10.763   7.946  -0.715  1.3206 -0.3514 -0.5316
  836MOL0     N12742  10.673   7.872  -0.631 -0.0499 -0.4435  0.2754
  836MOL0     C12743  10.641   7.896  -0.502 -0.6809 -0.4489  0.3752
  836MOL0     C12744  10.548   7.804  -0.471 -0.9839 -0.0014 -1.1915
  836MOL0     C12745  10.467   7.801  -0.345 -0.0890  0.5185 -0.0418
  836MOL0     C12746  10.432   7.935  -0.279 -0.9085 -0.0510  0.0749
  836MOL0     C12747  10.367   8.041  -0.373  0.7749  0.3401  0.2573
  836MOL0     C12748  10.404   8.181  -0.350  0.6416 -0.4962 -0.4061
  836MOL0     O12749  10.450   8.238  -0.475 -0.1962  0.2583  0.0937
  836MOL0     C12750  10.364   8.298  -0.565 -0.2140  0.5435  0.0611
  836MOL0     C12751  10.414   8.354  -0.683  0.7137  0.3857 -0.4155
  836MOL0     C12752  10.323   8.415  -0.775  0.0581 -1.1176 -0.2852
  836MOL0     C12753  10.395   8.489  -0.883 -0.1764 -0.0417  0.6882
  836MOL0     C12754  10.187   8.422  -0.752  0.7540 -0.9563 -1.1706
  836MOL0     C12755  10.082   8.484  -0.839 -1.2376  0.5177  0.3241
  836MOL0     O12756  10.134   8.568  -0.931  0.4670 -0.7289  0.7201
  836MOL0     C12757  10.051   8.622  -1.029  0.7230  0.9147 -0.6763
  836MOL0     C12758  10.086   8.622  -1.162 -0.0342 -0.1522 -0.1307
  836MOL0     C12759  10.005   8.668  -1.264  0.1299  0.3365 -0.3570
  836MOL0     C12760   9.885   8.735  -1.231 -0.6437  0.9530  0.6579
  836MOL0     O12761   9.808   8.791  -1.333 -0.1076 -0.0417 -0.5597
  836MOL0     C12762   9.834   8.928  -1.359 -0.4776 -0.3157 -0.3985
  836MOL0     C12763   9.705   8.987  -1.418  0.4631 -0.2987 -0.6662
  836MOL0     C12764   9.573   8.983  -1.324 -0.6420  0.0666  0.1397
  836MOL0     C12765   9.468   9.067  -1.399  0.0860 -0.5266 -0.4080
  836MOL0     C12766   9.317   9.055  -1.352  0.2381 -0.1613  0.0101
  836MOL0     C12767   9.264   8.922  -1.312  0.4387  0.1699 -0.2837
  836MOL0     C12768   9.115   8.916  -1.307  0.3921 -0.6551 -0.0792
  836MOL0     C12769   9.067   8.905  -1.161  0.4982  1.0131 -1.1922
  836MOL0    Cl12770   9.101   8.746  -1.090 -0.1374  0.7950  0.0777
  836MOL0     C12771   9.850   8.737  -1.099  0.9219  0.2378  0.2450
  836MOL0     C12772   9.927   8.678  -1.000  0.2077  0.2883 -0.4850
  836MOL0     O12773   9.968   8.450  -0.819  0.6962 -0.3707 -0.1679
  836MOL0     C12774  10.139   8.364  -0.633 -0.5228 -0.4950 -0.4075
  836MOL0     C12775  10.227   8.298  -0.542  0.8234 -0.4542  0.1529
  836MOL0     N12776  10.526   7.729  -0.578  0.1730 -0.2545 -0.2116
  836MOL0     N12777  10.594   7.771  -0.672  0.5587 -0.5921  0.2130
  836MOL0     C12778  10.874   8.965  -0.429  0.3923  0.1514  0.7598
  836MOL0     C12779  10.927   9.071  -0.369  0.1190 -0.6642 -0.7981
  836MOL0     C12780  11.048   9.357  -0.041 -0.5266 -0.5494  0.3344
  836MOL0     C12781  11.130   9.417  -0.145 -0.2057 -0.2468 -0.3564
  836MOL0     C12782  11.243   9.491  -0.107 -1.1074  0.9449 -0.4577
  836MOL0     C12783  11.288   9.523   0.026  0.4480  0.2066  0.4828
  836MOL0     O12784  11.394   9.597   0.067  0.1622 -0.2686  0.2217
  836MOL0     C12785  11.489   9.640  -0.034 -0.4110  0.1691  1.1019
  836MOL0     C12786  11.623   9.671   0.033  0.7207  0.1973 -0.2277
  836MOL0     C12787  11.748   9.668  -0.051  0.0832  0.5354 -0.0001
  836MOL0     C12788  11.759   9.793  -0.127  0.1987 -0.6949  1.1428
  836MOL0     C12789  11.830   9.889  -0.052 -0.4136  0.7874 -0.7690
  836MOL0     C12790  11.874   9.970   0.027 -0.4378  0.9962 -0.4630
  836MOL0     C12791  11.205   9.467   0.125  0.2780  0.2666 -0.4358
  836MOL0     C12792  11.092   9.387   0.090  0.6953 -0.1353 -0.2466
  836MOL0     H12793  10.727   9.097  -0.103  0.2135  2.9515 -1.1076
  836MOL0     H12794  10.617   8.904  -0.231  1.4947 -0.5217  1.4315
  836MOL0     H12795  10.625   8.821  -0.600  0.7625  3.3218  1.6411
  836MOL0     H12796  10.799   8.796  -0.615 -1.4561  3.6628  2.2197
  836MOL0     H12797  10.579   8.584  -0.547 -0.7123  2.3227  0.0610
  836MOL0     H12798  10.644   8.592  -0.712  1.1845  1.3444 -0.6957
  836MOL0     H12799  10.877   8.561  -0.606 -0.5588  1.8893  1.2574
  836MOL0     H12800  10.792   8.521  -0.453  3.1876 -1.2360 -0.0503
  836MOL0     H12801  10.832   8.318  -0.530  1.6455  1.5704  0.8947
  836MOL0     H12802  10.659   8.343  -0.591 -0.4832  2.6824 -1.2944
  836MOL0     H12803  10.741   8.379  -0.813 -1.0609 -0.2612  1.3822
  836MOL0     H12804  10.903   8.392  -0.756  2.1008 -1.5567  0.2397
  836MOL0     H12805  10.821   8.183  -0.884 -1.1682  0.9668  0.0815
  836MOL0     H12806  10.936   8.155  -0.746 -0.2208 -1.9906  0.2785
  836MOL0     H12807  10.764   8.110  -0.590 -1.9423 -2.6911  0.6286
  836MOL0     H12808  10.637   8.117  -0.719  0.3829  2.6311  3.4738
  836MOL0     H12809  10.867   7.918  -0.702  1.6233  1.0661  0.1964
  836MOL0     H12810  10.736   7.897  -0.810  3.2912 -3.7684  0.4942
  836MOL0     H12811  10.659   7.984  -0.442  2.2445 -0.4378 -0.4000
  836MOL0     H12812  10.370   7.768  -0.384 -0.7426 -1.8527  3.1722
  836MOL0     H12813  10.515   7.724  -0.283  3.4204 -1.1069 -4.2835
  836MOL0     H12814  10.524   7.977  -0.237 -0.3170 -2.0036  0.8217
  836MOL0     H12815  10.363   7.916  -0.196 -1.8246 -0.1128 -0.6843
  836MOL0     H12816  10.257   8.034  -0.373  0.7398  0.7144 -0.5033
  836MOL0     H12817  10.391   8.011  -0.475  3.1300 -3.1368  1.6567
  836MOL0     H12818  10.484   8.191  -0.277 -0.8927 -1.4957  1.4855
  836MOL0     H12819  10.319   8.238  -0.310  1.8043  2.0689 -1.3457
  836MOL0     H12820  10.517   8.335  -0.710  1.0780  1.8221 -0.1393
  836MOL0     H12821  10.364   8.594  -0.886 -4.6570 -1.1539 -0.6754
  836MOL0     H12822  10.504   8.480  -0.888 -0.0049  1.6332  0.7000
  836MOL0     H12823  10.361   8.449  -0.979  0.0469  0.6126  0.3300
  836MOL0     H12824  10.185   8.584  -1.186 -0.0408 -1.4785  1.7125
  836MOL0     H12825  10.035   8.655  -1.367  2.0702 -3.2860  0.4905
  836MOL0     H12826   9.859   8.989  -1.272  2.5141  2.5092 -2.9064
  836MOL0     H12827   9.923   8.944  -1.421  0.7387  1.6543  1.7035
  836MOL0     H12828   9.723   9.093  -1.438 -1.5213  0.1433 -0.3485
  836MOL0     H12829   9.685   8.934  -1.511  1.3373  0.2675 -1.1898
  836MOL0     H12830   9.601   9.028  -1.229  0.3216  0.1199 -0.1621
  836MOL0     H12831   9.550   8.877  -1.311  0.5817 -0.2876 -0.4171
  836MOL0     H12832   9.492   9.174  -1.405  0.5960 -0.7029 -2.3145
  836MOL0     H12833   9.472   9.032  -1.503  0.1732 -0.6461 -0.3639
  836MOL0     H12834   9.254   9.100  -1.429  0.8611  1.8431  0.6037
  836MOL0     H12835   9.294   9.118  -1.266  0.1851  0.3840 -0.3963
  836MOL0     H12836   9.299   8.850  -1.387 -2.4069 -2.2910  0.5675
  836MOL0     H12837   9.295   8.890  -1.212 -2.2265  2.0291  1.2563
  836MOL0     H12838   9.074   8.829  -1.360  0.7072 -0.7429 -0.1803
  836MOL0     H12839   9.069   9.000  -1.359  0.6160 -1.7778 -2.2198
  836MOL0     H12840   8.960   8.927  -1.152  0.4976  0.5370  0.2752
  836MOL0     H12841   9.122   8.974  -1.096  0.8998  1.1707 -1.6916
  836MOL0     H12842   9.754   8.779  -1.075 -0.4844 -1.7826 -1.4164
  836MOL0     H12843   9.893   8.684  -0.897  0.2083  1.5293 -0.5440
  836MOL0     H12844  10.032   8.369  -0.616 -0.2876  2.1249  0.7282
  836MOL0     H12845  10.180   8.251  -0.457 -1.3474  3.7314  1.5263
  836MOL0     H12846  10.914   8.935  -0.525 -0.3593  0.9226  0.1818
  836MOL0     H12847  11.013   9.119  -0.416 -0.2907  0.9763  0.0424
  836MOL0     H12848  11.102   9.394  -0.247 -0.7881  0.7155 -0.4276
  836MOL0     H12849  11.297   9.530  -0.193  1.5417  3.5707  2.1789
  836MOL0     H12850  11.501   9.559  -0.106  0.1449 -0.0037  1.3893
  836MOL0     H12851  11.448   9.725  -0.090 -2.4783 -0.1169  2.0918
  836MOL0     H12852  11.643   9.606   0.119 -1.2650  1.8219  1.6015
  836MOL0     H12853  11.609   9.775   0.063 -0.4167  1.2958 -4.0115
  836MOL0     H12854  11.750   9.583  -0.121  1.1283  0.9334 -0.4708
  836MOL0     H12855  11.827   9.659   0.023 -1.1139 -3.1357  1.0902
  836MOL0     H12856  11.664   9.835  -0.160  0.3825  0.6206  2.2150
  836MOL0     H12857  11.817   9.759  -0.214  0.9450 -4.2985  2.8482
  836MOL0     H12858  11.905  10.039   0.103 -0.4857 -0.9169  1.4012
  836MOL0     H12859  11.233   9.482   0.229 -3.5357  0.5760  0.7119
  836MOL0     H12860  11.044   9.334   0.172 -0.4776 -0.4361 -1.0979
  837MOL0     O12861  11.107   7.919  10.228 -0.3359 -0.2761  0.0034
  837MOL0     C12862  11.019   7.957  10.306  0.1582  0.2663 -0.1258
  837MOL0     O12863  11.025   8.064  10.393 -0.3639 -0.0553 -0.3510
  837MOL0     C12864  11.120   8.158  10.382  0.1747 -0.6183 -0.8637
  837MOL0     C12865  11.206   8.178  10.275  0.5119 -0.2297 -0.2899
  837MOL0     C12866  11.303   8.281  10.289 -0.3445 -0.0014  0.4809
  837MOL0     C12867  11.306   8.356  10.401  0.7788  0.7746 -0.8769
  837MOL0     O12868  11.406   8.445  10.401 -0.8196 -0.4244 -0.5840
  837MOL0     C12869  11.384   8.552  10.491 -0.0353  1.4231 -0.1858
  837MOL0     C12870  11.486   8.670  10.482 -0.7759  0.0377 -1.4200
  837MOL0     C12871  11.618   8.616  10.541  0.1542 -0.3365 -0.5208
  837MOL0     C12872  11.716   8.730  10.557 -0.7923 -0.5272 -0.7664
  837MOL0     C12873  11.844   8.687  10.631 -0.2728  0.6396 -0.3984
  837MOL0     C12874  11.958   8.799  10.623  0.3512  0.7836 -0.2902
  837MOL0     C12875  11.929   8.937  10.676 -0.3294 -0.1352 -0.6998
  837MOL0     C12876  12.057   9.026  10.668 -0.7041 -1.2845  0.5838
  837MOL0     N12877  12.173   8.978  10.751 -0.0952 -0.2224  0.0843
  837MOL0     C12878  12.182   9.000  10.884 -0.4528  1.2725  0.1308
  837MOL0     C12879  12.306   8.958  10.917 -0.6662 -0.5961 -0.0454
  837MOL0     C12880  12.357   8.952  11.051 -0.1460 -0.5316 -0.4651
  837MOL0     C12881  12.351   9.084  11.123 -0.5512 -0.1560 -0.0585
  837MOL0     C12882  12.473   9.085  11.224  0.7581 -0.1868 -0.3391
  837MOL0     C12883  12.426   9.138  11.363  0.3879  0.3265  0.5530
  837MOL0     O12884  12.354   9.262  11.359 -0.0347 -0.3512 -0.5254
  837MOL0     C12885  12.282   9.308  11.475 -0.8104  0.0948 -0.3134
  837MOL0     C12886  12.318   9.298  11.610  0.1536  1.0020  0.1760
  837MOL0     C12887  12.245   9.370  11.706 -0.5656 -0.4527 -0.5481
  837MOL0     C12888  12.306   9.346  11.843 -0.3004  0.4354  0.0376
  837MOL0     C12889  12.135   9.449  11.676 -0.8118 -0.4324  0.2083
  837MOL0     C12890  12.063   9.531  11.778 -0.1255  0.2967  1.3664
  837MOL0     O12891  12.126   9.567  11.893 -0.0674  0.9250 -0.1240
  837MOL0     C12892  12.041   9.614  11.991 -0.8122  0.0601  0.1794
  837MOL0     C12893  11.985   9.539  12.089  0.0064  0.6609 -0.3312
  837MOL0     C12894  11.909   9.596  12.188  0.1550  0.2423 -0.2304
  837MOL0     C12895  11.922   9.727  12.214  0.0702  0.3246  0.4218
  837MOL0     O12896  11.863   9.792  12.323 -0.4646  0.0425  0.3856
  837MOL0     C12897  11.840   9.719  12.444 -1.1935 -0.4814  0.1864
  837MOL0     C12898  11.786   9.812  12.555 -0.8225 -0.2143 -0.4370
  837MOL0     C12899  11.777   9.735  12.681  0.3896 -0.0986 -0.1828
  837MOL0     C12900  11.779   9.817  12.797 -0.0595  0.2042  0.0938
  837MOL0     C12901  11.764   9.721  12.923  0.2095 -0.1749  0.3265
  837MOL0     C12902  11.637   9.631  12.927 -0.1317 -0.7099 -0.9174
  837MOL0     C12903  11.505   9.712  12.917  0.6343 -0.7623 -0.9597
  837MOL0     C12904  11.388   9.635  12.969 -0.3609  0.3062 -0.5685
  837MOL0    Cl12905  11.425   9.590  13.142 -0.0327  0.2499  0.5430
  837MOL0     C12906  11.975   9.811  12.122 -0.1145  0.1243  0.1012
  837MOL0     C12907  12.023   9.753  11.999 -0.0714 -0.6945 -0.8107
  837MOL0     O12908  11.942   9.555  11.747  0.1240  0.0046  0.0675
  837MOL0     C12909  12.096   9.443  11.542 -0.3336 -0.2585 -0.1942
  837MOL0     C12910  12.171   9.383  11.444 -0.5386 -0.0815  0.1871
  837MOL0     N12911  12.366   8.906  10.803 -1.3131 -0.4314 -0.0616
  837MOL0     N12912  12.289   8.922  10.708 -0.4763  0.3437  1.0257
  837MOL0     C12913  11.228   8.325  10.512 -0.3127  0.0956 -0.2572
  837MOL0     C12914  11.141   8.229  10.505  0.5619  0.3437 -0.3079
  837MOL0     C12915  10.887   7.880  10.311  0.2133 -0.0104 -0.9199
  837MOL0     C12916  10.852   7.780  10.217 -1.0064 -0.8390  0.2455
  837MOL0     C12917  10.728   7.716  10.226 -0.3048  0.5642  0.1779
  837MOL0     C12918  10.640   7.745  10.321  0.6308  0.5246 -0.5916
  837MOL0     O12919  10.520   7.685  10.306 -1.0042 -0.9240 -0.0659
  837MOL0     C12920  10.409   7.740  10.374  0.3051  0.1373  0.1696
  837MOL0     C12921  10.285   7.645  10.352  0.3225  0.5903 -0.9746
  837MOL0     C12922  10.169   7.678  10.446 -0.5286 -1.0097  0.3101
  837MOL0     C12923  10.081   7.792  10.384  0.8182 -0.2255 -0.3603
  837MOL0     C12924   9.998   7.735  10.277 -0.5308 -0.0252 -0.2314
  837MOL0     C12925   9.918   7.692  10.200  0.1053  0.6489 -0.3050
  837MOL0     C12926  10.667   7.846  10.417 -0.1026 -0.7746  0.3840
  837MOL0     C12927  10.790   7.908  10.404  0.5866 -0.9646  0.8674
  837MOL0     H12928  11.214   8.120  10.184 -0.1644  0.0815 -0.5582
  837MOL0     H12929  11.364   8.324  10.211  1.3440 -1.1334  1.1352
  837MOL0     H12930  11.287   8.598  10.471 -0.1595  1.6468  0.8627
  837MOL0     H12931  11.382   8.516  10.594  1.0281  5.6162  1.4956
  837MOL0     H12932  11.500   8.694  10.376 -1.5508  0.5846 -1.3975
  837MOL0     H12933  11.445   8.757  10.533 -0.3473 -0.6980  0.2483
  837MOL0     H12934  11.612   8.563  10.637 -3.3141  2.7727  1.2447
  837MOL0     H12935  11.651   8.551  10.459  2.7171  2.4777 -1.9189
  837MOL0     H12936  11.744   8.770  10.459  1.6677 -2.2470 -0.8641
  837MOL0     H12937  11.675   8.815  10.611  2.3392  0.6527 -0.0723
  837MOL0     H12938  11.823   8.660  10.734 -2.5343  1.2196 -0.6700
  837MOL0     H12939  11.887   8.595  10.589  1.6335  1.1971  0.2417
  837MOL0     H12940  12.050   8.774  10.676  0.6405  0.9468 -0.7102
  837MOL0     H12941  11.986   8.806  10.517  0.1896 -1.0412 -0.4714
  837MOL0     H12942  11.848   8.969  10.609 -1.4524 -2.6050 -0.6509
  837MOL0     H12943  11.895   8.945  10.780 -1.7328 -0.0306 -1.1378
  837MOL0     H12944  12.034   9.130  10.691 -2.7112 -1.7892  1.1303
  837MOL0     H12945  12.089   9.021  10.563  1.3454 -0.8206  1.1471
  837MOL0     H12946  12.110   9.057  10.941  0.7925  1.9897  1.0398
  837MOL0     H12947  12.309   8.877  11.115  1.9143  1.4724  3.8917
  837MOL0     H12948  12.460   8.917  11.042 -1.3922 -4.4576 -1.3326
  837MOL0     H12949  12.254   9.105  11.169 -0.1132  0.8445  0.4496
  837MOL0     H12950  12.361   9.171  11.058  0.6477 -0.7093 -0.6372
  837MOL0     H12951  12.536   9.159  11.175 -1.5234  0.8734 -1.8360
  837MOL0     H12952  12.519   8.987  11.245 -1.4807 -1.2676 -0.1717
  837MOL0     H12953  12.519   9.169  11.413 -0.5321  2.0746  1.2715
  837MOL0     H12954  12.373   9.061  11.420 -1.3262  2.3198  1.7945
  837MOL0     H12955  12.402   9.233  11.633 -0.0320 -0.6795 -3.3063
  837MOL0     H12956  12.386   9.272  11.846  0.4091  1.1210 -1.0462
  837MOL0     H12957  12.361   9.433  11.879 -1.1704  1.7006 -1.5506
  837MOL0     H12958  12.229   9.320  11.916  0.1177 -1.1672 -0.0462
  837MOL0     H12959  11.995   9.431  12.086 -0.1067  0.5042  2.5181
  837MOL0     H12960  11.872   9.523  12.260 -0.5202 -1.6712 -2.4048
  837MOL0     H12961  11.768   9.638  12.428 -0.8519 -1.0024  1.2528
  837MOL0     H12962  11.933   9.673  12.479  1.5295  2.1486 -2.8686
  837MOL0     H12963  11.853   9.895  12.579  0.0785 -1.1252  0.2985
  837MOL0     H12964  11.686   9.849  12.533 -1.8236 -2.3378  0.1929
  837MOL0     H12965  11.858   9.663  12.679  0.3117 -0.1798 -0.7660
  837MOL0     H12966  11.682   9.681  12.670  0.5758 -0.1353 -1.9096
  837MOL0     H12967  11.861   9.890  12.798 -2.4563  3.1101  1.2413
  837MOL0     H12968  11.689   9.879  12.794  1.2594  2.1827 -0.3388
  837MOL0     H12969  11.775   9.768  13.022 -1.8637  0.5978  0.2535
  837MOL0     H12970  11.848   9.651  12.925  1.3093  1.0274 -1.2108
  837MOL0     H12971  11.642   9.555  12.848  0.2778  0.4166 -2.0138
  837MOL0     H12972  11.639   9.565  13.014  0.7697 -0.6809 -0.9087
  837MOL0     H12973  11.483   9.737  12.813 -2.2875 -1.3980 -0.5824
  837MOL0     H12974  11.516   9.802  12.977  0.7200 -0.5243 -1.3289
  837MOL0     H12975  11.378   9.546  12.907  3.5757 -0.6367 -0.1112
  837MOL0     H12976  11.300   9.699  12.981  0.0642  0.5103  1.9828
  837MOL0     H12977  11.969   9.918  12.139 -0.5071  0.0003  0.7567
  837MOL0     H12978  12.078   9.818  11.932  1.3405 -1.8501 -0.8075
  837MOL0     H12979  12.018   9.505  11.500  1.7382  1.7934 -1.2579
  837MOL0     H12980  12.140   9.394  11.340  1.9036  1.9831 -0.4164
  837MOL0     H12981  11.251   8.369  10.609  0.3530 -0.6519 -0.0679
  837MOL0     H12982  11.077   8.199  10.586  0.0653 -0.8927 -1.1258
  837MOL0     H12983  10.922   7.741  10.144  1.6649 -0.1718  2.2704
  837MOL0     H12984  10.707   7.626  10.169  0.5150 -2.0185  3.6152
  837MOL0     H12985  10.417   7.750  10.483  3.6649 -0.5000  0.0870
  837MOL0     H12986  10.382   7.835  10.327 -1.4169 -1.0523 -1.4087
  837MOL0     H12987  10.328   7.551  10.387 -0.8393  0.0739 -0.9014
  837MOL0     H12988  10.252   7.639  10.248 -0.3320  0.3243 -0.7538
  837MOL0     H12989  10.208   7.707  10.544 -0.2430 -1.0393  0.2072
  837MOL0     H12990  10.106   7.589  10.456 -1.5929 -0.5649 -1.7770
  837MOL0     H12991  10.146   7.866  10.336  0.6301 -0.6674 -1.3194
  837MOL0     H12992  10.014   7.827  10.463 -1.1469 -2.7819 -0.7660
  837MOL0     H12993   9.860   7.662  10.115  1.5188  0.6980 -1.3313
  837MOL0     H12994  10.594   7.880  10.490 -0.1548 -1.3172  0.5905
  837MOL0     H12995  10.814   7.982  10.480 -1.4505 -1.0452  1.6552
  838MOL0     O12996   8.119   2.084   9.252  0.5179 -0.9254  0.0426
  838MOL0     C12997   8.097   1.966   9.252  0.0389  0.1421  0.6195
  838MOL0     O12998   8.139   1.878   9.157 -0.0496 -0.1387  0.0837
  838MOL0     C12999   8.217   1.923   9.050 -0.1710 -1.3197  0.5051
  838MOL0     C13000   8.224   1.839   8.946  0.7347 -0.0600  0.1964
  838MOL0     C13001   8.306   1.866   8.833  0.6298  0.2843  0.6488
  838MOL0     C13002   8.383   1.976   8.819  0.0257  0.3258  0.1186
  838MOL0     O13003   8.438   1.996   8.694  0.4613  0.1447  0.0442
  838MOL0     C13004   8.542   2.085   8.678  0.0240  0.6376 -0.1652
  838MOL0     C13005   8.595   2.050   8.547  0.1653  0.2117 -0.0771
  838MOL0     C13006   8.663   1.903   8.559  0.5413  0.4080 -0.1380
  838MOL0     C13007   8.706   1.855   8.422  0.3891 -0.0962 -0.4253
  838MOL0     C13008   8.850   1.870   8.387  0.2219 -0.2171 -0.6697
  838MOL0     C13009   8.864   1.859   8.235  1.0749  0.3787 -0.5173
  838MOL0     C13010   9.012   1.851   8.185  0.3210  0.9673  0.0017
  838MOL0     C13011   9.097   1.991   8.218  0.2368 -0.1422  0.0469
  838MOL0     N13012   9.240   1.981   8.180  0.9840 -0.4839 -0.4610
  838MOL0     C13013   9.288   1.925   8.066  0.1027  1.1040  0.0312
  838MOL0     C13014   9.419   1.913   8.099 -0.8755  0.0451 -0.4873
  838MOL0     C13015   9.520   1.827   8.026 -0.3047  0.1359  1.1914
  838MOL0     C13016   9.494   1.673   8.020  0.6403 -0.8061 -1.0913
  838MOL0     C13017   9.606   1.597   7.950  0.1404 -0.6177  0.1697
  838MOL0     C13018   9.561   1.488   7.866 -0.4288  0.3848  0.1908
  838MOL0     O13019   9.525   1.377   7.946  0.2673  0.2157  0.0862
  838MOL0     C13020   9.401   1.316   7.940 -0.2406  0.8220 -0.0348
  838MOL0     C13021   9.290   1.350   7.868  0.7022  0.5412 -0.8086
  838MOL0     C13022   9.168   1.281   7.894 -1.3032 -0.2817  1.0131
  838MOL0     C13023   9.056   1.336   7.817  0.9138 -0.8727  0.0275
  838MOL0     C13024   9.147   1.187   7.998 -0.2065 -1.2079 -0.1202
  838MOL0     C13025   9.025   1.099   8.015 -0.8651 -0.8150 -0.6076
  838MOL0     O13026   8.962   1.061   7.894 -0.1876 -0.3476 -0.0921
  838MOL0     C13027   8.850   0.973   7.910 -0.1200  0.0125 -0.3690
  838MOL0     C13028   8.750   1.010   8.000  0.7796  1.1419  0.1876
  838MOL0     C13029   8.630   0.934   8.013  0.4448 -0.2214  0.6201
  838MOL0     C13030   8.619   0.822   7.936  0.0990  0.1646 -0.7820
  838MOL0     O13031   8.496   0.759   7.929 -0.5475 -0.2596  0.1073
  838MOL0     C13032   8.489   0.618   7.897  0.2097 -0.7338  0.9533
  838MOL0     C13033   8.358   0.570   7.952 -0.1681 -0.6511 -0.3342
  838MOL0     C13034   8.241   0.634   7.874  0.8538  0.3042 -1.1609
  838MOL0     C13035   8.116   0.597   7.948  0.4782  0.2172 -0.0104
  838MOL0     C13036   7.990   0.651   7.886  0.0821 -0.6294  0.4689
  838MOL0     C13037   7.856   0.595   7.936  0.2901 -0.0228  0.1034
  838MOL0     C13038   7.722   0.650   7.901  0.5085 -0.2349  0.8652
  838MOL0     C13039   7.707   0.796   7.904  0.0184  0.4020 -0.5647
  838MOL0    Cl13040   7.721   0.864   8.072 -0.4269  0.0833 -0.3558
  838MOL0     C13041   8.731   0.775   7.861  0.2331 -0.0407 -0.3385
  838MOL0     C13042   8.845   0.843   7.854 -0.0994 -0.8079 -0.7133
  838MOL0     O13043   8.994   1.065   8.125  0.7652  0.0949  0.0544
  838MOL0     C13044   9.264   1.169   8.081  0.0158 -0.0512  0.5286
  838MOL0     C13045   9.387   1.241   8.058  0.2297 -0.8487  0.2740
  838MOL0     N13046   9.437   1.956   8.236 -1.0752  0.5445  0.7825
  838MOL0     N13047   9.333   1.999   8.271 -0.9170 -0.2189  0.2069
  838MOL0     C13048   8.385   2.066   8.929  0.5249  0.8941  0.1530
  838MOL0     C13049   8.308   2.040   9.045  0.4796  0.3183  0.5055
  838MOL0     C13050   8.028   1.911   9.369 -0.2117 -0.0092  0.1819
  838MOL0     C13051   7.992   2.013   9.467 -0.2583 -0.0257 -0.5524
  838MOL0     C13052   7.926   1.984   9.583  0.2188  0.0116  0.0156
  838MOL0     C13053   7.897   1.848   9.614 -1.2930  0.2744 -0.2294
  838MOL0     O13054   7.839   1.800   9.727 -0.2073 -0.4657 -0.0647
  838MOL0     C13055   7.764   1.893   9.820 -0.4221 -0.2423 -0.4063
  838MOL0     C13056   7.718   1.824   9.946 -0.8806  0.8704  0.5302
  838MOL0     C13057   7.841   1.792  10.038  0.0589 -0.2328  0.9534
  838MOL0     C13058   7.791   1.696  10.152 -1.3047  0.4544 -0.3291
  838MOL0     C13059   7.804   1.764  10.286  0.0956 -0.7353  0.3026
  838MOL0     C13060   7.798   1.817  10.389  0.5018  0.4139 -0.9699
  838MOL0     C13061   7.919   1.746   9.516 -0.0910 -0.5360  1.0381
  838MOL0     C13062   7.977   1.777   9.395 -0.6306 -0.6297  0.4079
  838MOL0     H13063   8.168   1.746   8.945  3.1487 -1.5989 -1.5151
  838MOL0     H13064   8.308   1.792   8.754 -1.3139 -1.8025  2.4200
  838MOL0     H13065   8.507   2.189   8.682 -0.4911  0.5452  5.5068
  838MOL0     H13066   8.618   2.074   8.757 -1.8219 -1.3733  1.4364
  838MOL0     H13067   8.507   2.043   8.482 -0.7535 -2.8035  1.3354
  838MOL0     H13068   8.675   2.112   8.506  0.1850  0.1508 -0.1320
  838MOL0     H13069   8.746   1.909   8.630 -0.3740  3.4179  0.8473
  838MOL0     H13070   8.585   1.839   8.600 -0.9238  0.4307 -2.6720
  838MOL0     H13071   8.681   1.749   8.417  0.0748 -0.0256 -0.3602
  838MOL0     H13072   8.654   1.898   8.336  1.9263  1.1245 -0.8115
  838MOL0     H13073   8.889   1.960   8.436 -1.9578 -2.2802  5.8508
  838MOL0     H13074   8.897   1.786   8.438 -0.4105  0.4361  1.0613
  838MOL0     H13075   8.793   1.786   8.195 -2.3842  2.8289  0.6646
  838MOL0     H13076   8.828   1.955   8.195  1.5687 -0.6181 -3.6285
  838MOL0     H13077   9.062   1.775   8.247  0.8595  2.3026  1.2504
  838MOL0     H13078   9.019   1.828   8.079 -1.5553  0.2252  0.0049
  838MOL0     H13079   9.085   1.997   8.327  0.9918 -1.5973  0.2365
  838MOL0     H13080   9.047   2.067   8.158 -0.2900 -0.9212 -0.5174
  838MOL0     H13081   9.233   1.880   7.984  1.2256  0.6582 -0.4901
  838MOL0     H13082   9.537   1.862   7.924 -0.6509  4.4909  2.4095
  838MOL0     H13083   9.618   1.838   8.072  0.4643 -4.0200  0.8769
  838MOL0     H13084   9.394   1.643   7.985  0.5139 -2.8712  0.8215
  838MOL0     H13085   9.483   1.634   8.122 -2.9050 -0.6579 -1.2950
  838MOL0     H13086   9.678   1.558   8.023  1.7195 -0.8867 -1.4378
  838MOL0     H13087   9.677   1.647   7.883  1.6231 -0.1531  1.9906
  838MOL0     H13088   9.640   1.454   7.798 -0.7539 -0.3894  0.2007
  838MOL0     H13089   9.481   1.533   7.807 -0.3395  1.5621  0.9307
  838MOL0     H13090   9.289   1.428   7.793 -2.5390 -0.7719 -2.3163
  838MOL0     H13091   9.077   1.431   7.767 -1.0295  0.2854  1.3161
  838MOL0     H13092   9.042   1.265   7.735 -0.2017  2.3224 -2.7998
  838MOL0     H13093   8.955   1.355   7.854  0.1453 -0.1118 -2.2970
  838MOL0     H13094   8.745   1.111   8.040 -0.4959  0.5772  1.5799
  838MOL0     H13095   8.549   0.986   8.064 -0.9898 -0.2595 -1.4902
  838MOL0     H13096   8.494   0.611   7.788  1.6568 -0.3483  0.9726
  838MOL0     H13097   8.575   0.561   7.933 -2.1136 -4.7941  0.6549
  838MOL0     H13098   8.368   0.462   7.940 -0.2194 -0.5519 -1.4432
  838MOL0     H13099   8.365   0.596   8.058 -1.3595 -4.1881  0.7801
  838MOL0     H13100   8.223   0.596   7.773  0.6251 -1.4637 -0.4914
  838MOL0     H13101   8.231   0.743   7.863  2.9170  0.5864 -0.5611
  838MOL0     H13102   8.097   0.489   7.945  2.6255 -0.1882 -0.9366
  838MOL0     H13103   8.107   0.630   8.052 -1.8668 -1.0981  0.2749
  838MOL0     H13104   7.986   0.643   7.777 -1.4686 -1.9097  0.5848
  838MOL0     H13105   7.995   0.760   7.897 -0.9313 -0.7670  3.0220
  838MOL0     H13106   7.848   0.494   7.896 -1.6050  0.7113 -1.5429
  838MOL0     H13107   7.853   0.586   8.045 -0.3070 -0.0818  0.0871
  838MOL0     H13108   7.642   0.596   7.953 -0.9097 -0.2294 -1.1922
  838MOL0     H13109   7.722   0.616   7.797  3.5758  1.4685  0.1998
  838MOL0     H13110   7.602   0.806   7.875 -1.0898  0.7316  3.0495
  838MOL0     H13111   7.777   0.847   7.838 -0.7959 -1.0325 -2.6469
  838MOL0     H13112   8.731   0.679   7.810 -2.8426 -0.9619  1.1821
  838MOL0     H13113   8.928   0.805   7.796 -1.2916 -2.6017 -1.3499
  838MOL0     H13114   9.261   1.099   8.164  1.9685  0.5036  1.1106
  838MOL0     H13115   9.473   1.233   8.123  0.3554  0.2066  0.2521
  838MOL0     H13116   8.445   2.156   8.922  2.7982 -0.4972  0.6192
  838MOL0     H13117   8.310   2.102   9.134 -1.1507 -1.2659  1.7125
  838MOL0     H13118   8.025   2.113   9.443  1.0149 -0.0306  1.0269
  838MOL0     H13119   7.898   2.079   9.627  4.0786  1.6106 -0.5271
  838MOL0     H13120   7.824   1.981   9.845 -2.3895  1.3111 -0.9521
  838MOL0     H13121   7.676   1.937   9.773  0.7540  0.8917 -1.6078
  838MOL0     H13122   7.669   1.733   9.910 -0.3688 -0.3386  2.7348
  838MOL0     H13123   7.641   1.880  10.000  0.0318  3.5156 -0.7433
  838MOL0     H13124   7.884   1.889  10.064 -0.6981  1.0295 -2.1122
  838MOL0     H13125   7.924   1.738   9.992 -0.8199 -0.0528 -0.9474
  838MOL0     H13126   7.839   1.598  10.150 -1.7611  0.2347 -0.5779
  838MOL0     H13127   7.684   1.674  10.144 -1.5072  1.1094  0.4042
  838MOL0     H13128   7.804   1.849  10.491  2.3410 -2.1721 -0.1747
  838MOL0     H13129   7.882   1.648   9.545  0.0406 -1.0343 -0.3934
  838MOL0     H13130   8.000   1.694   9.329 -0.2844 -0.2571  0.0541
  839MOL0     O13131   6.846   5.170  10.264  0.4860  0.1190 -0.1001
  839MOL0     C13132   6.850   5.139  10.379  0.0148  0.7128 -0.0403
  839MOL0     O13133   6.946   5.054  10.431  0.2416 -0.2292  0.0718
  839MOL0     C13134   7.024   4.990  10.340  1.0239  1.5231 -0.0953
  839MOL0     C13135   6.977   4.881  10.259  0.2128  0.6586 -0.6819
  839MOL0     C13136   7.063   4.824  10.162  1.3847 -0.9114 -1.2010
  839MOL0     C13137   7.190   4.880  10.139 -0.8624  0.2815  1.1408
  839MOL0     O13138   7.269   4.814  10.042  0.6094  0.3403  0.2311
  839MOL0     C13139   7.381   4.879   9.985  0.4981 -0.2218  0.7588
  839MOL0     C13140   7.433   4.801   9.863 -0.4497  0.0110  0.3876
  839MOL0     C13141   7.439   4.649   9.890  0.4442  0.2145  0.7462
  839MOL0     C13142   7.375   4.578   9.766  0.3277 -0.4275 -0.5615
  839MOL0     C13143   7.223   4.600   9.766  1.1116 -0.2430 -1.0891
  839MOL0     C13144   7.154   4.560   9.628  0.1500  0.3801  0.2599
  839MOL0     C13145   7.189   4.421   9.571 -0.3521  0.1974  0.2467
  839MOL0     C13146   7.093   4.387   9.452  0.1876  0.6988 -0.3921
  839MOL0     N13147   7.115   4.474   9.330 -0.4248 -0.3571 -0.9203
  839MOL0     C13148   7.234   4.499   9.272  0.4891 -1.0799 -0.5046
  839MOL0     C13149   7.204   4.585   9.170  0.1557  0.3673 -0.1210
  839MOL0     C13150   7.293   4.616   9.049 -0.3191 -0.0256  0.3503
  839MOL0     C13151   7.224   4.575   8.927 -0.1528 -1.0805  0.1908
  839MOL0     C13152   7.311   4.572   8.801  0.2015 -0.4407 -0.3092
  839MOL0     C13153   7.244   4.488   8.689  0.2409  0.2479 -0.2174
  839MOL0     O13154   7.175   4.594   8.615 -0.7306  0.5953 -0.1202
  839MOL0     C13155   7.126   4.552   8.494  0.6375 -0.6688  0.0322
  839MOL0     C13156   7.206   4.548   8.380  0.0548 -0.1973 -0.5566
  839MOL0     C13157   7.158   4.500   8.252  0.5708  0.1204 -0.6679
  839MOL0     C13158   7.246   4.506   8.137 -1.0698  0.7415  1.0513
  839MOL0     C13159   7.017   4.457   8.246  0.5673 -0.2703  0.2185
  839MOL0     C13160   6.944   4.433   8.111  0.5296  0.2303  0.4543
  839MOL0     O13161   6.806   4.447   8.117 -0.5676 -0.2605  0.5965
  839MOL0     C13162   6.741   4.473   7.998  0.4095 -0.3583 -0.4030
  839MOL0     C13163   6.709   4.594   7.948  0.0463 -0.1494 -0.5379
  839MOL0     C13164   6.667   4.606   7.817 -0.3068  0.2472  0.0689
  839MOL0     C13165   6.652   4.498   7.734  0.1741 -0.1055 -1.3942
  839MOL0     O13166   6.594   4.513   7.611 -0.5355 -0.7520  0.9107
  839MOL0     C13167   6.669   4.585   7.508  0.0339  0.1922 -0.3176
  839MOL0     C13168   6.608   4.563   7.372 -0.9091  0.7110  0.5377
  839MOL0     C13169   6.456   4.570   7.374 -0.4891  1.1785  0.8029
  839MOL0     C13170   6.394   4.585   7.235 -0.1313  0.0562 -0.1442
  839MOL0     C13171   6.247   4.635   7.236 -0.0397  0.0523 -0.6954
  839MOL0     C13172   6.175   4.636   7.101  0.3076  0.3605 -0.2991
  839MOL0     C13173   6.275   4.655   6.987 -0.0347 -0.8116 -0.0365
  839MOL0     C13174   6.200   4.680   6.858  0.4272  0.4269 -1.0871
  839MOL0    Cl13175   6.305   4.700   6.712 -0.3721  0.2068 -0.0316
  839MOL0     C13176   6.686   4.374   7.791  0.0753  1.3560 -0.1013
  839MOL0     C13177   6.732   4.364   7.914 -0.8106 -0.5133 -0.8764
  839MOL0     O13178   7.004   4.408   8.010 -0.0775 -0.0994 -0.5393
  839MOL0     C13179   6.942   4.465   8.369 -0.3402 -0.3756  0.4364
  839MOL0     C13180   6.997   4.506   8.487  0.0383 -0.2226 -0.0008
  839MOL0     N13181   7.065   4.615   9.176 -0.2215 -0.6373 -0.1427
  839MOL0     N13182   7.013   4.552   9.282  0.0216  0.1787 -0.9484
  839MOL0     C13183   7.229   4.987  10.219 -0.0169 -0.0740 -0.9108
  839MOL0     C13184   7.151   5.038  10.319 -0.1130 -1.0704 -0.4000
  839MOL0     C13185   6.755   5.197  10.466 -0.8509 -0.3717  0.5574
  839MOL0     C13186   6.639   5.269  10.419 -0.9558 -0.2010 -0.5710
  839MOL0     C13187   6.550   5.334  10.503  1.0342  0.3873 -0.4790
  839MOL0     C13188   6.565   5.314  10.648  0.2758  0.1012 -0.9206
  839MOL0     O13189   6.486   5.366  10.744 -0.0982  0.1059 -0.8451
  839MOL0     C13190   6.418   5.491  10.712 -1.6812  0.2988  0.1423
  839MOL0     C13191   6.402   5.580  10.838 -1.0653  0.8020 -0.0189
  839MOL0     C13192   6.313   5.519  10.947 -0.1670  0.4824  0.0739
  839MOL0     C13193   6.286   5.623  11.066  0.1655  0.5406  1.1612
  839MOL0     C13194   6.257   5.558  11.195  0.0397 -0.6822  0.5852
  839MOL0     C13195   6.260   5.506  11.310 -0.7233 -0.2277  0.0736
  839MOL0     C13196   6.666   5.228  10.691 -0.6397 -1.3817  0.2148
  839MOL0     C13197   6.763   5.180  10.608 -0.2410 -0.3268  0.4587
  839MOL0     H13198   6.878   4.842  10.279 -0.0290  1.7375  0.3724
  839MOL0     H13199   7.029   4.738  10.106 -2.2941 -0.9451  0.8177
  839MOL0     H13200   7.362   4.983   9.956  1.0403 -0.7425 -1.6608
  839MOL0     H13201   7.454   4.886  10.066 -0.7445  1.4452  1.7918
  839MOL0     H13202   7.389   4.816   9.764  0.3590 -0.4412 -0.0554
  839MOL0     H13203   7.532   4.845   9.849 -0.9955  1.4523  0.9403
  839MOL0     H13204   7.543   4.615   9.894 -0.0192 -1.5260 -0.9304
  839MOL0     H13205   7.390   4.626   9.985 -1.9057 -1.5668 -0.7746
  839MOL0     H13206   7.433   4.624   9.686  4.7580  0.1919  2.6130
  839MOL0     H13207   7.392   4.470   9.765 -0.7708 -0.6416 -3.2041
  839MOL0     H13208   7.183   4.530   9.840 -0.9854 -0.5605 -2.4409
  839MOL0     H13209   7.196   4.705   9.782  0.3184 -0.8310  2.2056
  839MOL0     H13210   7.046   4.569   9.637 -0.1420 -2.6739  0.9473
  839MOL0     H13211   7.176   4.637   9.553  1.2526  0.8935  1.0719
  839MOL0     H13212   7.295   4.415   9.543  0.1759 -2.0558  2.3871
  839MOL0     H13213   7.190   4.341   9.646  2.7790 -1.1255 -1.0302
  839MOL0     H13214   6.992   4.379   9.493  0.2953 -0.7082 -0.3342
  839MOL0     H13215   7.115   4.285   9.417 -1.2183  0.1714  0.1727
  839MOL0     H13216   7.327   4.450   9.298  2.0240  1.1203 -1.5267
  839MOL0     H13217   7.331   4.719   9.048  0.9139 -0.4246 -2.2752
  839MOL0     H13218   7.384   4.555   9.054  0.5801  1.1781  5.9609
  839MOL0     H13219   7.151   4.655   8.909  0.7150 -0.0041  1.2788
  839MOL0     H13220   7.182   4.476   8.949 -2.5756 -0.0557  0.4889
  839MOL0     H13221   7.411   4.533   8.824  0.7752  1.7929  1.2984
  839MOL0     H13222   7.326   4.674   8.764  0.2175  1.2385  3.8514
  839MOL0     H13223   7.171   4.415   8.724  1.8206 -0.1215  2.5701
  839MOL0     H13224   7.321   4.443   8.625  1.6389 -0.3269  1.7821
  839MOL0     H13225   7.299   4.603   8.393  0.3587 -0.4182 -1.6569
  839MOL0     H13226   7.339   4.560   8.156  0.4681 -1.5826  0.6378
  839MOL0     H13227   7.276   4.403   8.115 -1.9099  0.6434  0.2974
  839MOL0     H13228   7.193   4.534   8.046 -3.0921 -2.0883  1.2017
  839MOL0     H13229   6.729   4.687   8.000  0.7403  0.4065 -1.7625
  839MOL0     H13230   6.646   4.710   7.794  3.8343  1.9012  2.6632
  839MOL0     H13231   6.674   4.691   7.536  2.0762 -0.0808  0.5589
  839MOL0     H13232   6.773   4.550   7.508 -0.0175 -0.0390  1.2303
  839MOL0     H13233   6.644   4.633   7.296 -3.8829  1.9055  0.0903
  839MOL0     H13234   6.641   4.464   7.342 -1.4584 -0.1739  2.6695
  839MOL0     H13235   6.438   4.661   7.432  1.4233  1.8762  0.3815
  839MOL0     H13236   6.437   4.474   7.423  0.5151 -2.8856 -5.4551
  839MOL0     H13237   6.460   4.658   7.185  1.2846 -0.7847  0.4373
  839MOL0     H13238   6.398   4.496   7.172 -0.6837  1.1973 -1.8900
  839MOL0     H13239   6.255   4.737   7.274  2.2385  0.2625 -1.6067
  839MOL0     H13240   6.182   4.584   7.308 -1.5091  1.2421 -1.1140
  839MOL0     H13241   6.124   4.540   7.090 -3.4892  2.1768 -0.0932
  839MOL0     H13242   6.090   4.705   7.106 -0.6953 -0.9453  2.3947
  839MOL0     H13243   6.335   4.566   6.964 -0.5786 -0.9513 -0.9809
  839MOL0     H13244   6.335   4.743   7.014 -0.5662 -1.1995  2.5946
  839MOL0     H13245   6.141   4.772   6.852 -0.7426 -0.3692 -2.0563
  839MOL0     H13246   6.135   4.594   6.839 -0.7383  0.7799  1.0025
  839MOL0     H13247   6.669   4.279   7.742 -1.0539  1.8601 -0.7256
  839MOL0     H13248   6.761   4.265   7.950  1.5396  0.6662  0.7436
  839MOL0     H13249   6.836   4.443   8.376 -1.1105  2.8610  0.3087
  839MOL0     H13250   6.935   4.513   8.576 -0.4617 -1.5235 -0.2318
  839MOL0     H13251   7.329   5.026  10.205  0.0931  1.0197  2.1395
  839MOL0     H13252   7.181   5.125  10.375 -1.4285 -2.2082  2.2636
  839MOL0     H13253   6.626   5.268  10.311  0.0478 -1.9905 -0.7141
  839MOL0     H13254   6.464   5.389  10.465 -3.0421 -2.7768  3.1378
  839MOL0     H13255   6.486   5.553  10.653  3.5542 -0.4638  4.6709
  839MOL0     H13256   6.325   5.461  10.662  0.2682 -1.7170 -2.5869
  839MOL0     H13257   6.358   5.678  10.819 -2.2975  0.4857  1.0492
  839MOL0     H13258   6.504   5.594  10.877 -1.6263  2.8226  0.8788
  839MOL0     H13259   6.356   5.429  10.992  0.9569  1.4408  0.9818
  839MOL0     H13260   6.217   5.513  10.895 -1.3991  1.5633  2.0791
  839MOL0     H13261   6.206   5.689  11.032  0.1071 -0.2554 -0.3378
  839MOL0     H13262   6.374   5.683  11.091  2.2624 -2.5000  1.6330
  839MOL0     H13263   6.278   5.482  11.413  2.1391  0.2869 -0.2154
  839MOL0     H13264   6.681   5.218  10.798  0.5907  0.0859  0.2174
  839MOL0     H13265   6.837   5.114  10.653 -0.4756 -0.4868  0.6091
  840MOL0     O13266   3.650   6.509   3.574 -0.8730 -0.3259 -0.0063
  840MOL0     C13267   3.770   6.517   3.594 -0.8775 -0.1049  0.6526
  840MOL0     O13268   3.858   6.556   3.495 -0.1643 -0.3433  0.3070
  840MOL0     C13269   3.819   6.606   3.370 -0.9035  0.8361 -0.4640
  840MOL0     C13270   3.915   6.600   3.271  0.7450 -0.5728  0.3726
  840MOL0     C13271   3.892   6.649   3.145 -0.8785 -0.5999 -0.3799
  840MOL0     C13272   3.775   6.711   3.111  0.9365 -0.2908 -0.1183
  840MOL0     O13273   3.750   6.781   3.003  0.3649 -0.1440  0.4565
  840MOL0     C13274   3.766   6.721   2.880  0.1042 -0.3399  0.6016
  840MOL0     C13275   3.686   6.584   2.861 -0.7634 -1.1985 -0.3851
  840MOL0     C13276   3.682   6.547   2.714  0.5923 -0.3400 -0.4631
  840MOL0     C13277   3.600   6.424   2.693 -0.0129 -0.7856  0.4605
  840MOL0     C13278   3.662   6.299   2.748  1.3410  0.4326 -0.1463
  840MOL0     C13279   3.582   6.170   2.731  0.0769  0.2879 -0.3868
  840MOL0     C13280   3.650   6.037   2.771 -0.6983 -0.4894 -0.4945
  840MOL0     C13281   3.699   6.046   2.917  0.7602  0.6555  0.5612
  840MOL0     N13282   3.773   5.924   2.951 -0.1198  0.5680 -0.3333
  840MOL0     C13283   3.715   5.811   3.002  0.2281 -1.1344  0.0445
  840MOL0     C13284   3.815   5.729   3.019 -0.0691  0.2466 -0.9095
  840MOL0     C13285   3.809   5.592   3.080  0.0678 -0.1240  0.2295
  840MOL0     C13286   3.882   5.485   2.984  0.3410 -0.1164 -0.3266
  840MOL0     C13287   3.914   5.350   3.060 -0.7199  0.2627 -0.7747
  840MOL0     C13288   4.029   5.372   3.157 -0.1488 -0.7705 -0.2711
  840MOL0     O13289   4.110   5.254   3.158  0.9917  0.0591  0.1336
  840MOL0     C13290   4.194   5.240   3.258  0.5146 -0.0769 -0.4102
  840MOL0     C13291   4.230   5.109   3.304  0.0763 -0.1245 -0.6347
  840MOL0     C13292   4.336   5.085   3.394  1.0136 -0.5530  0.1571
  840MOL0     C13293   4.384   4.942   3.414 -0.2897  0.9263  0.4976
  840MOL0     C13294   4.393   5.194   3.460 -0.2051 -0.6251  0.0402
  840MOL0     C13295   4.507   5.185   3.551  0.0340 -0.8940 -0.2896
  840MOL0     O13296   4.490   5.117   3.667 -0.0134  0.3522 -0.0532
  840MOL0     C13297   4.594   5.111   3.766  0.0210  0.0713  1.1355
  840MOL0     C13298   4.729   5.132   3.760  1.3674  0.2232 -0.8223
  840MOL0     C13299   4.820   5.084   3.851 -1.1476 -0.0086 -0.8693
  840MOL0     C13300   4.774   5.008   3.961  0.3718 -0.0498 -0.3340
  840MOL0     O13301   4.866   4.981   4.063  0.1196  0.1853  1.2244
  840MOL0     C13302   4.844   4.882   4.163  1.1278 -0.3404  0.0904
  840MOL0     C13303   4.910   4.901   4.292  0.3667  0.0733  0.2765
  840MOL0     C13304   5.053   4.851   4.291 -0.3463 -0.1720  0.6524
  840MOL0     C13305   5.117   4.865   4.422  0.1019  0.9012  0.3323
  840MOL0     C13306   5.245   4.773   4.431 -0.3957  0.6370 -0.4503
  840MOL0     C13307   5.215   4.625   4.435 -0.2342 -0.8729  0.0386
  840MOL0     C13308   5.348   4.548   4.447  0.3945  0.3152  0.4307
  840MOL0     C13309   5.320   4.401   4.482 -0.4824 -0.0186  0.0145
  840MOL0    Cl13310   5.246   4.373   4.635 -0.0459  0.2955  0.0242
  840MOL0     C13311   4.638   4.993   3.971 -0.2456  0.1007 -0.0103
  840MOL0     C13312   4.555   5.045   3.876 -0.8493  0.3465  0.2138
  840MOL0     O13313   4.602   5.251   3.516  0.5988 -0.3375  0.1141
  840MOL0     C13314   4.357   5.323   3.423  0.1213  0.4162 -0.6114
  840MOL0     C13315   4.265   5.349   3.313  0.0763  0.3207  0.2578
  840MOL0     N13316   3.934   5.782   2.972 -0.8524 -0.0736  0.4874
  840MOL0     N13317   3.908   5.904   2.939 -0.5185  0.3520 -0.7067
  840MOL0     C13318   3.678   6.717   3.214  0.6249  0.1541 -0.7563
  840MOL0     C13319   3.698   6.673   3.342 -0.1359 -0.0993 -0.0448
  840MOL0     C13320   3.822   6.476   3.724 -0.2300 -0.0902 -0.1858
  840MOL0     C13321   3.939   6.521   3.778 -0.4804  0.6282  0.3951
  840MOL0     C13322   3.996   6.471   3.891 -0.4179 -0.4511 -0.4194
  840MOL0     C13323   3.923   6.385   3.969  0.3513 -0.9671  0.1215
  840MOL0     O13324   3.943   6.349   4.097  0.5719 -0.0422  0.5461
  840MOL0     C13325   4.076   6.332   4.143  0.0250  0.1829  0.0531
  840MOL0     C13326   4.129   6.438   4.238  0.1460 -0.7694 -0.3638
  840MOL0     C13327   4.058   6.448   4.378  0.4253  0.1060  0.6497
  840MOL0     C13328   4.083   6.576   4.447 -0.8000 -0.7300 -0.3783
  840MOL0     C13329   4.227   6.598   4.479 -0.4515  0.0366 -0.4745
  840MOL0     C13330   4.347   6.595   4.497  0.0504 -0.2429  0.3882
  840MOL0     C13331   3.798   6.348   3.924 -0.7798 -0.3486 -0.8194
  840MOL0     C13332   3.751   6.377   3.795 -0.0751 -0.4435 -0.3199
  840MOL0     H13333   4.005   6.544   3.293  2.4447  2.6560  2.4197
  840MOL0     H13334   3.966   6.632   3.067 -1.0307  0.8409 -0.8555
  840MOL0     H13335   3.723   6.794   2.810 -2.1049 -1.6828  0.4468
  840MOL0     H13336   3.869   6.703   2.849 -0.2986 -5.0562  1.3177
  840MOL0     H13337   3.750   6.508   2.906 -1.0834 -0.5851  1.1858
  840MOL0     H13338   3.587   6.585   2.908 -0.0977  3.3508  1.4655
  840MOL0     H13339   3.639   6.632   2.659  4.5429  1.3054 -1.3372
  840MOL0     H13340   3.771   6.516   2.659  0.7390 -0.1837 -0.3112
  840MOL0     H13341   3.502   6.448   2.735 -1.0859  0.3416 -2.4571
  840MOL0     H13342   3.584   6.407   2.587 -2.6698  1.3273  0.4173
  840MOL0     H13343   3.749   6.286   2.683  0.0708 -2.5189 -1.4047
  840MOL0     H13344   3.689   6.317   2.853 -1.7585 -0.6941  0.9382
  840MOL0     H13345   3.492   6.173   2.794 -0.2407 -3.2947 -0.4588
  840MOL0     H13346   3.558   6.155   2.626 -0.9309 -0.6102 -0.0449
  840MOL0     H13347   3.583   5.951   2.763 -0.7485 -0.8161  2.4012
  840MOL0     H13348   3.742   6.039   2.712  0.8711  1.3042  1.8529
  840MOL0     H13349   3.613   6.062   2.982  0.5836 -1.5248  0.9264
  840MOL0     H13350   3.767   6.132   2.923  0.6985  0.6758  0.9334
  840MOL0     H13351   3.612   5.795   3.034 -0.1268 -2.0665 -1.4574
  840MOL0     H13352   3.862   5.594   3.176  1.8148  2.1395 -0.6963
  840MOL0     H13353   3.703   5.566   3.089 -0.4890  1.7943 -0.3666
  840MOL0     H13354   3.971   5.525   2.933 -0.3720  1.5213 -0.3635
  840MOL0     H13355   3.805   5.454   2.913 -2.3660 -0.3224  2.4818
  840MOL0     H13356   3.937   5.268   2.992 -0.3277  0.9668 -1.5197
  840MOL0     H13357   3.826   5.322   3.118 -0.8671 -0.3359 -1.2758
  840MOL0     H13358   3.995   5.389   3.259  3.1373 -0.4681  0.9035
  840MOL0     H13359   4.101   5.452   3.136  0.1116 -1.1725 -0.9323
  840MOL0     H13360   4.180   5.025   3.256 -3.7093  1.4097  0.2251
  840MOL0     H13361   4.391   4.907   3.518  6.8308 -1.2274 -0.2329
  840MOL0     H13362   4.308   4.874   3.374 -0.3573  0.7250  0.9601
  840MOL0     H13363   4.477   4.928   3.360 -0.0524 -0.9222  1.3042
  840MOL0     H13364   4.770   5.178   3.671  0.6573  3.0742  0.2112
  840MOL0     H13365   4.927   5.101   3.845 -1.0287 -0.2265  0.3947
  840MOL0     H13366   4.739   4.897   4.189  1.5021  2.2660  0.3610
  840MOL0     H13367   4.864   4.786   4.114  0.0208 -0.8110  0.5310
  840MOL0     H13368   4.899   5.005   4.324 -1.0871 -0.6737  2.4766
  840MOL0     H13369   4.855   4.844   4.367 -1.9827  0.7820 -0.7990
  840MOL0     H13370   5.112   4.913   4.224  0.2582  0.5134  1.7765
  840MOL0     H13371   5.049   4.747   4.260 -0.3210 -1.1394  3.5959
  840MOL0     H13372   5.150   4.967   4.443  0.2508  1.4192 -2.1791
  840MOL0     H13373   5.057   4.816   4.500  3.6110 -1.1083  2.0028
  840MOL0     H13374   5.311   4.796   4.515 -2.1867  1.8081  0.7070
  840MOL0     H13375   5.307   4.790   4.343  0.2622  0.7010  0.0214
  840MOL0     H13376   5.153   4.598   4.521 -0.0116  1.9914  1.2068
  840MOL0     H13377   5.156   4.582   4.354 -2.1895  0.1834  0.8274
  840MOL0     H13378   5.408   4.574   4.534  0.0287 -1.6727  1.3283
  840MOL0     H13379   5.399   4.563   4.351  1.0327  4.0953  1.2063
  840MOL0     H13380   5.421   4.362   4.497  0.0723  1.5854  0.6309
  840MOL0     H13381   5.264   4.353   4.401 -0.3361 -1.1436  0.5568
  840MOL0     H13382   4.590   4.944   4.055  0.6441  0.4437  0.7173
  840MOL0     H13383   4.447   5.032   3.887 -0.7350  0.9234  2.5800
  840MOL0     H13384   4.410   5.408   3.465 -1.5905  1.3842 -0.3364
  840MOL0     H13385   4.242   5.450   3.280 -0.0723  0.4490  0.7590
  840MOL0     H13386   3.578   6.756   3.196 -0.8622 -1.9194  2.0792
  840MOL0     H13387   3.613   6.695   3.406 -0.1439  1.3655 -0.5381
  840MOL0     H13388   3.985   6.598   3.716  2.9010  2.1461  4.3387
  840MOL0     H13389   4.086   6.523   3.923  1.1546 -3.6170  0.7490
  840MOL0     H13390   4.060   6.239   4.198 -0.6721 -0.2908 -0.9266
  840MOL0     H13391   4.153   6.318   4.066  1.6807  0.1957  1.6494
  840MOL0     H13392   4.128   6.541   4.200  0.3756 -0.7354 -0.2754
  840MOL0     H13393   4.232   6.422   4.270 -0.0566 -0.2295  0.6012
  840MOL0     H13394   4.098   6.369   4.441 -2.0342 -3.9431 -2.3733
  840MOL0     H13395   3.950   6.429   4.380  0.8006 -2.3962  0.0610
  840MOL0     H13396   4.015   6.576   4.532 -2.3531 -3.5194 -1.4728
  840MOL0     H13397   4.064   6.667   4.389  0.6825 -1.0740 -1.4707
  840MOL0     H13398   4.453   6.586   4.511  0.4034  1.0667 -1.0703
  840MOL0     H13399   3.733   6.281   3.978 -2.3239  0.8314 -1.1378
  840MOL0     H13400   3.655   6.341   3.761 -1.9267  4.0828 -0.6136
  841MOL0     O13401  10.574  10.723   8.449 -0.7092 -0.3885 -0.2371
  841MOL0     C13402  10.507  10.624   8.484 -0.1131  0.7053  0.1330
  841MOL0     O13403  10.494  10.505   8.414 -0.7753 -0.0016 -0.6372
  841MOL0     C13404  10.576  10.475   8.309 -0.0325  0.5052 -0.0619
  841MOL0     C13405  10.650  10.357   8.306  0.4387  0.1060 -0.3944
  841MOL0     C13406  10.714  10.315   8.193 -0.0027  0.1282  0.4823
  841MOL0     C13407  10.716  10.381   8.076 -1.0520  0.1648  0.7309
  841MOL0     O13408  10.804  10.330   7.979  0.1327  0.1329 -0.0079
  841MOL0     C13409  10.758  10.378   7.844 -0.1279 -0.0511 -0.1346
  841MOL0     C13410  10.857  10.355   7.739 -0.1748 -0.4061  0.2210
  841MOL0     C13411  10.920  10.212   7.725 -0.4083 -0.1446  0.4333
  841MOL0     C13412  10.807  10.110   7.696 -0.0567  0.6874 -0.4408
  841MOL0     C13413  10.878   9.974   7.701 -0.1077 -0.0251 -0.1417
  841MOL0     C13414  10.940   9.937   7.831 -0.2049 -0.6434 -0.6435
  841MOL0     C13415  10.961   9.784   7.838  0.3987  0.4665  0.2253
  841MOL0     C13416  11.034   9.727   7.954 -0.1320  0.5192  0.7949
  841MOL0     N13417  10.959   9.696   8.082  0.8053  0.4686  0.5357
  841MOL0     C13418  11.011   9.743   8.204  0.6518 -0.3372 -0.1037
  841MOL0     C13419  10.927   9.685   8.293  0.0553 -0.8983 -0.1985
  841MOL0     C13420  10.937   9.696   8.442  0.2658 -0.6657 -0.6911
  841MOL0     C13421  10.859   9.591   8.526 -1.5427  0.3084 -0.4258
  841MOL0     C13422  10.887   9.628   8.668 -0.0879  0.1729 -0.1450
  841MOL0     C13423  10.788   9.558   8.775  0.3980  0.0053  0.1465
  841MOL0     O13424  10.811   9.627   8.899  0.5633 -0.0313 -0.2059
  841MOL0     C13425  10.696   9.630   8.979  0.2804  0.4043  0.3624
  841MOL0     C13426  10.655   9.512   9.048 -0.0285  0.5236 -0.0153
  841MOL0     C13427  10.548   9.517   9.139  1.2047  1.2456 -0.3108
  841MOL0     C13428  10.488   9.383   9.191 -0.7161  0.1896  0.4087
  841MOL0     C13429  10.483   9.632   9.168  0.7028 -0.1632 -1.4159
  841MOL0     C13430  10.363   9.639   9.270  0.0197 -0.7540 -0.0189
  841MOL0     O13431  10.264   9.729   9.244 -0.7447  0.3382 -0.6174
  841MOL0     C13432  10.156   9.742   9.331  0.5191  0.3810  0.1587
  841MOL0     C13433  10.120   9.871   9.367 -1.2552 -0.4657  0.4752
  841MOL0     C13434  10.017   9.895   9.454 -0.1052  0.3364 -0.1640
  841MOL0     C13435   9.939   9.786   9.502  0.0772 -0.0376 -0.0758
  841MOL0     O13436   9.844   9.791   9.601  0.2686 -0.0824  0.1670
  841MOL0     C13437   9.809   9.916   9.666 -1.0539 -0.4476 -0.1442
  841MOL0     C13438   9.906   9.942   9.779  0.3720  0.1720  1.0732
  841MOL0     C13439   9.879  10.074   9.871  0.0243 -0.1186  0.4824
  841MOL0     C13440   9.915  10.192   9.784 -0.4506 -0.2237  0.6748
  841MOL0     C13441   9.929  10.312   9.894  0.7403 -0.4606 -0.3260
  841MOL0     C13442   9.789  10.375   9.934  0.0922  0.1281  0.3488
  841MOL0     C13443   9.805  10.492  10.022  0.6120 -0.4967 -0.2017
  841MOL0     C13444   9.665  10.560  10.042 -0.2890  0.5269 -0.1505
  841MOL0    Cl13445   9.675  10.697  10.163  0.7613  0.0444  0.5598
  841MOL0     C13446   9.972   9.662   9.455  0.9530  0.5089 -1.5229
  841MOL0     C13447  10.079   9.636   9.374 -0.2796  0.6839  0.1829
  841MOL0     O13448  10.380   9.577   9.374  0.0272  0.3686 -0.2334
  841MOL0     C13449  10.518   9.743   9.091  0.5587 -0.3451 -0.6125
  841MOL0     C13450  10.612   9.741   8.991  0.5820 -0.1065 -0.3358
  841MOL0     N13451  10.830   9.611   8.222  0.5319  0.2622 -0.4971
  841MOL0     N13452  10.848   9.619   8.096  0.7652 -0.3293  0.1121
  841MOL0     C13453  10.649  10.503   8.080 -0.1624  0.0899  0.5751
  841MOL0     C13454  10.579  10.548   8.192  0.5155 -0.7266  0.5439
  841MOL0     C13455  10.449  10.628   8.615  0.4849 -0.3366  0.4949
  841MOL0     C13456  10.493  10.718   8.714  1.0873 -0.2541  0.5450
  841MOL0     C13457  10.431  10.722   8.837  0.6515  0.6174 -0.0916
  841MOL0     C13458  10.319  10.649   8.868  0.1095  0.4234 -1.1715
  841MOL0     O13459  10.256  10.648   8.988  0.3312  0.9843  0.6275
  841MOL0     C13460  10.283  10.755   9.083  0.8732  0.7758 -0.5382
  841MOL0     C13461  10.172  10.759   9.200  0.6854 -0.7982 -0.2226
  841MOL0     C13462  10.232  10.856   9.308 -0.2676 -0.5882  0.2314
  841MOL0     C13463  10.140  10.870   9.438 -1.3002 -0.4369  0.9039
  841MOL0     C13464  10.038  10.958   9.402 -0.3540  0.4160 -0.8860
  841MOL0     C13465   9.960  11.043   9.370 -0.1920 -0.4526 -0.0090
  841MOL0     C13466  10.280  10.557   8.778 -0.9317  0.8590  0.2658
  841MOL0     C13467  10.345  10.535   8.652  0.5002  0.1692  0.1357
  841MOL0     H13468  10.647  10.293   8.394 -0.0475 -1.9249 -1.8194
  841MOL0     H13469  10.768  10.221   8.194 -1.0842 -0.5394  2.5906
  841MOL0     H13470  10.666  10.338   7.799  0.7808  0.1951 -2.3475
  841MOL0     H13471  10.752  10.488   7.842 -3.7039 -0.1281 -0.6777
  841MOL0     H13472  10.816  10.376   7.639 -2.1059  0.4973  1.1466
  841MOL0     H13473  10.936  10.428   7.755  0.0278 -0.3896 -0.7652
  841MOL0     H13474  11.004  10.218   7.654  0.8481 -3.5736  1.4324
  841MOL0     H13475  10.963  10.188   7.823 -2.0842  0.0448  1.2380
  841MOL0     H13476  10.714  10.121   7.753 -1.9301  1.0511 -3.3546
  841MOL0     H13477  10.782  10.126   7.591  4.7638  0.0799 -1.9134
  841MOL0     H13478  10.806   9.897   7.674  0.3330 -0.3725 -0.3458
  841MOL0     H13479  10.953   9.955   7.624 -3.3659 -0.6245 -3.4324
  841MOL0     H13480  11.035   9.987   7.852 -1.6687  1.7811  0.6481
  841MOL0     H13481  10.879   9.981   7.911  2.7806  2.3358  0.1927
  841MOL0     H13482  10.870   9.725   7.835  1.4744 -1.2246 -0.8054
  841MOL0     H13483  11.018   9.766   7.746 -0.5179 -2.3265  0.1100
  841MOL0     H13484  11.123   9.788   7.973 -0.5747  1.8666 -1.1902
  841MOL0     H13485  11.058   9.630   7.911 -2.9749  0.8948 -2.0208
  841MOL0     H13486  11.096   9.806   8.226  0.2957  0.4306 -0.8951
  841MOL0     H13487  11.041   9.696   8.476  0.3229 -0.8713 -0.8680
  841MOL0     H13488  10.906   9.799   8.461  1.8895 -0.1331 -0.7446
  841MOL0     H13489  10.902   9.491   8.512  1.6841  0.9776  2.9969
  841MOL0     H13490  10.755   9.602   8.497 -1.8905 -0.4686  0.4720
  841MOL0     H13491  10.895   9.735   8.692  0.6712 -0.3211  1.9918
  841MOL0     H13492  10.985   9.587   8.694  0.5832  1.3495 -0.7138
  841MOL0     H13493  10.808   9.453   8.796 -3.5458 -0.7563  0.7170
  841MOL0     H13494  10.683   9.550   8.746  0.9988  0.3707 -2.3131
  841MOL0     H13495  10.716   9.423   9.038  1.9316  1.5033  2.2616
  841MOL0     H13496  10.502   9.349   9.294 -2.0174 -0.2966  0.4546
  841MOL0     H13497  10.380   9.398   9.178 -0.0922  4.1761 -1.7878
  841MOL0     H13498  10.524   9.302   9.127 -0.3757 -0.5540  1.5006
  841MOL0     H13499  10.183   9.953   9.333 -0.0385 -0.7045  2.0194
  841MOL0     H13500   9.977   9.994   9.477 -2.7304 -1.0078  1.4710
  841MOL0     H13501   9.803  10.004   9.601  1.5497  0.4124  0.6528
  841MOL0     H13502   9.709   9.904   9.709 -0.7089 -0.8430  0.5628
  841MOL0     H13503   9.908   9.849   9.838 -0.6567  0.6681  1.9324
  841MOL0     H13504  10.004   9.940   9.731 -0.0776 -2.7408  0.0120
  841MOL0     H13505   9.947  10.073   9.956  0.5526  0.1255  0.0648
  841MOL0     H13506   9.776  10.083   9.908 -1.5206  0.5312 -3.4180
  841MOL0     H13507  10.016  10.187   9.743 -0.1729  1.2940  1.1053
  841MOL0     H13508   9.839  10.201   9.705 -0.6403  2.6051  1.0604
  841MOL0     H13509   9.982  10.391   9.839  1.4169 -0.6361  0.0682
  841MOL0     H13510   9.987  10.279   9.980  1.1879  0.8438 -0.1068
  841MOL0     H13511   9.732  10.405   9.846 -0.9400  4.6782  2.3186
  841MOL0     H13512   9.728  10.304   9.992 -1.3616  2.0552  1.2726
  841MOL0     H13513   9.873  10.563   9.975 -1.5630  2.3494  0.6226
  841MOL0     H13514   9.840  10.453  10.118 -4.3617 -4.8541  0.2899
  841MOL0     H13515   9.596  10.481  10.072 -0.6186 -0.4615 -3.1923
  841MOL0     H13516   9.618  10.611   9.958 -0.6943  1.0740  0.3968
  841MOL0     H13517   9.914   9.581   9.498  1.3284  1.0718  0.0951
  841MOL0     H13518  10.103   9.533   9.349 -2.1083  0.1818  0.3155
  841MOL0     H13519  10.450   9.828   9.089  2.3626  1.2132  0.6234
  841MOL0     H13520  10.605   9.831   8.930 -2.6470  1.0405  1.4832
  841MOL0     H13521  10.644  10.577   8.001 -3.3173 -0.6178 -0.0394
  841MOL0     H13522  10.520  10.640   8.189  3.2952  1.1773 -2.1304
  841MOL0     H13523  10.568  10.787   8.677 -0.9769  0.3991 -2.8174
  841MOL0     H13524  10.462  10.798   8.908 -0.0055  2.0058 -1.2307
  841MOL0     H13525  10.383  10.752   9.128  0.9539 -0.9977 -0.7425
  841MOL0     H13526  10.261  10.847   9.029 -4.0939 -1.4908 -3.0872
  841MOL0     H13527  10.145  10.656   9.225 -0.3907 -0.3224  0.6524
  841MOL0     H13528  10.080  10.794   9.153 -0.4841 -3.2562  0.1208
  841MOL0     H13529  10.248  10.958   9.270 -0.4151  0.6800  3.3123
  841MOL0     H13530  10.331  10.817   9.335 -0.1243 -0.9884 -0.8376
  841MOL0     H13531  10.206  10.914   9.513 -0.3206 -0.8435  0.3046
  841MOL0     H13532  10.109  10.774   9.480  1.2553 -0.8179  2.1266
  841MOL0     H13533   9.896  11.113   9.321 -4.9176 -5.2110 -1.5731
  841MOL0     H13534  10.192  10.499   8.803 -1.3813  0.4576 -1.9785
  841MOL0     H13535  10.307  10.460   8.584  0.2536  1.3861 -1.1004
  842MOL0     O13536   1.012  10.698   5.966  0.5613 -0.7041 -0.2784
  842MOL0     C13537   0.954  10.803   5.923  0.3160  1.7656  0.6760
  842MOL0     O13538   0.895  10.895   6.002 -0.1486  0.6304 -0.2338
  842MOL0     C13539   0.895  10.885   6.137  0.4440  0.0112  0.4994
  842MOL0     C13540   0.797  10.807   6.207  0.3935 -0.7911  0.7759
  842MOL0     C13541   0.810  10.795   6.347  0.4988 -0.2366 -0.6415
  842MOL0     C13542   0.900  10.878   6.413  0.4521  0.4565 -1.4050
  842MOL0     O13543   0.902  10.884   6.553 -0.9178  0.1263  0.1173
  842MOL0     C13544   0.813  10.975   6.612 -0.0494 -0.1119 -0.1812
  842MOL0     C13545   0.665  10.926   6.621 -0.3627 -0.1279  0.2828
  842MOL0     C13546   0.634  10.825   6.725  0.3281 -0.6120 -1.0178
  842MOL0     C13547   0.713  10.696   6.704 -0.2987 -0.2984 -0.5664
  842MOL0     C13548   0.664  10.576   6.787 -0.3513  0.1434  0.4730
  842MOL0     C13549   0.768  10.465   6.789  0.4239 -1.2535 -0.3395
  842MOL0     C13550   0.714  10.331   6.862  0.6159  0.2143 -1.0218
  842MOL0     C13551   0.672  10.366   7.010  0.7576 -0.7251  0.3163
  842MOL0     N13552   0.659  10.251   7.089  0.6256  0.0692  0.5276
  842MOL0     C13553   0.749  10.153   7.112  0.8162  1.7376 -0.3493
  842MOL0     C13554   0.676  10.058   7.178 -0.0123 -0.4706 -0.2838
  842MOL0     C13555   0.743   9.929   7.228  0.2922 -0.2358  1.3786
  842MOL0     C13556   0.644   9.838   7.299 -0.2479 -0.8912 -0.0172
  842MOL0     C13557   0.518   9.796   7.219 -0.1056  0.2195  0.2881
  842MOL0     C13558   0.547   9.715   7.086 -0.4030 -0.5505 -0.5787
  842MOL0     O13559   0.520   9.581   7.111  0.7197  1.3712  0.2948
  842MOL0     C13560   0.529   9.484   7.013 -0.0903 -0.1249 -0.1168
  842MOL0     C13561   0.501   9.353   7.041 -0.2489  0.3441 -0.9764
  842MOL0     C13562   0.502   9.251   6.947 -0.5876  0.0950  0.2283
  842MOL0     C13563   0.458   9.111   6.995 -0.2774 -0.1380 -0.2179
  842MOL0     C13564   0.534   9.285   6.812 -0.6314  0.7938  0.3215
  842MOL0     C13565   0.527   9.182   6.695 -0.4875 -0.9150 -0.2860
  842MOL0     O13566   0.560   9.242   6.582 -0.1952  0.4686 -0.1622
  842MOL0     C13567   0.558   9.175   6.466  0.9228  0.3641  0.0607
  842MOL0     C13568   0.667   9.104   6.423 -0.1929 -0.1318  0.1809
  842MOL0     C13569   0.673   9.056   6.289 -0.2376 -0.3297  0.0759
  842MOL0     C13570   0.562   9.063   6.210 -1.3396 -0.9461  0.3942
  842MOL0     O13571   0.567   9.008   6.082  0.7308  0.2556  0.1841
  842MOL0     C13572   0.494   8.887   6.086  0.3007 -0.0478 -0.3857
  842MOL0     C13573   0.495   8.804   5.958  0.4596 -0.8410  0.2204
  842MOL0     C13574   0.375   8.847   5.871  0.5932 -0.1618 -0.4719
  842MOL0     C13575   0.401   8.976   5.794 -0.0348 -0.5241  1.3543
  842MOL0     C13576   0.271   9.007   5.715  0.0257 -0.3128 -0.4830
  842MOL0     C13577   0.289   9.139   5.632  0.5840  0.6429  0.3828
  842MOL0     C13578   0.184   9.137   5.524 -0.4751 -0.1422 -0.3299
  842MOL0     C13579   0.142   9.280   5.482  0.4067 -0.2212 -0.6881
  842MOL0    Cl13580   0.268   9.392   5.453 -0.1150 -0.0333  0.5534
  842MOL0     C13581   0.450   9.127   6.262  0.7530 -0.5086  0.9773
  842MOL0     C13582   0.449   9.184   6.385 -0.2814 -0.9279 -0.3085
  842MOL0     O13583   0.494   9.066   6.710 -0.2010 -0.3795 -0.3631
  842MOL0     C13584   0.579   9.412   6.789  0.7372 -0.6193 -0.4732
  842MOL0     C13585   0.574   9.512   6.889 -0.2895  0.2693  0.0653
  842MOL0     N13586   0.554  10.108   7.208  0.0949 -0.6931  0.4422
  842MOL0     N13587   0.543  10.226   7.158 -0.8686  0.6534  0.2934
  842MOL0     C13588   0.990  10.953   6.342 -0.1117  0.9195  0.0428
  842MOL0     C13589   0.985  10.958   6.203 -1.0331  0.2516 -0.3400
  842MOL0     C13590   0.948  10.819   5.773  0.1918  0.1733  0.7499
  842MOL0     C13591   0.908  10.941   5.726  0.0290 -0.8840 -0.3041
  842MOL0     C13592   0.927  10.965   5.584 -0.3527 -0.4699  0.3612
  842MOL0     C13593   0.963  10.866   5.499 -0.1750  0.1845  0.2742
  842MOL0     O13594   0.956  10.897   5.365  0.6679  0.2073 -0.6415
  842MOL0     C13595   1.044  10.845   5.268 -0.4634  0.5134  0.3194
  842MOL0     C13596   0.980  10.732   5.187  0.5166  0.2745 -0.6548
  842MOL0     C13597   1.067  10.696   5.065  0.1017 -0.2363  0.2426
  842MOL0     C13598   0.983  10.606   4.969 -0.4707  0.5145 -0.0748
  842MOL0     C13599   1.005  10.469   4.998  0.2001 -0.6283 -0.5905
  842MOL0     C13600   1.031  10.353   5.015 -0.2390  0.1436 -0.5565
  842MOL0     C13601   0.999  10.745   5.554 -0.0414 -0.3304  0.1445
  842MOL0     C13602   0.993  10.724   5.685  0.4426 -0.1859  0.3090
  842MOL0     H13603   0.718  10.754   6.155  1.2065 -0.5195 -0.7760
  842MOL0     H13604   0.751  10.729   6.410  1.7160 -0.9420 -0.1885
  842MOL0     H13605   0.838  10.995   6.717  0.2700 -1.0759 -0.0555
  842MOL0     H13606   0.827  11.067   6.555  1.3919 -1.5379 -2.2828
  842MOL0     H13607   0.617  11.018   6.655 -0.2359 -0.9535  2.8684
  842MOL0     H13608   0.624  10.902   6.522 -0.8232 -0.8022  0.6354
  842MOL0     H13609   0.653  10.871   6.822  3.2778  2.1827 -2.7249
  842MOL0     H13610   0.528  10.809   6.704  0.1743  1.1855 -1.7857
  842MOL0     H13611   0.702  10.661   6.601  0.6161 -2.0094 -0.1243
  842MOL0     H13612   0.821  10.706   6.717 -0.6883  2.5491  1.5228
  842MOL0     H13613   0.635  10.620   6.884 -3.7443  0.3300 -0.4847
  842MOL0     H13614   0.573  10.542   6.737 -0.2403 -0.9741  0.9905
  842MOL0     H13615   0.796  10.436   6.687 -0.9582 -1.3085 -0.7208
  842MOL0     H13616   0.859  10.494   6.843  1.2026 -0.9593 -1.7690
  842MOL0     H13617   0.631  10.294   6.801  1.6955  1.7199 -3.5691
  842MOL0     H13618   0.798  10.262   6.850  0.8935  0.4356 -0.3910
  842MOL0     H13619   0.579  10.421   6.996  1.0504 -0.1075  0.6962
  842MOL0     H13620   0.738  10.446   7.045 -0.5319  1.0292 -1.0881
  842MOL0     H13621   0.850  10.132   7.078  0.9122 -0.4540  1.1011
  842MOL0     H13622   0.783   9.876   7.141 -4.4232 -1.1805 -0.5379
  842MOL0     H13623   0.821   9.951   7.301 -0.0399 -1.8331  2.2765
  842MOL0     H13624   0.606   9.889   7.389 -2.1223 -0.9372 -0.7318
  842MOL0     H13625   0.695   9.750   7.339 -0.9414 -0.5128  1.8248
  842MOL0     H13626   0.456   9.881   7.190  1.2790  1.1416 -0.1095
  842MOL0     H13627   0.461   9.732   7.287 -0.0964  0.9627  1.0105
  842MOL0     H13628   0.654   9.729   7.066 -0.2291  0.5689  0.9899
  842MOL0     H13629   0.493   9.758   7.001 -0.4068  1.2501  0.2820
  842MOL0     H13630   0.472   9.315   7.138  2.6399  2.5459  0.9103
  842MOL0     H13631   0.367   9.079   6.943  0.1232 -3.4213  0.8740
  842MOL0     H13632   0.538   9.041   6.971  0.2872  0.8010 -1.1862
  842MOL0     H13633   0.434   9.109   7.102 -0.5203 -0.2551 -0.2723
  842MOL0     H13634   0.758   9.112   6.483 -0.2161  0.1558  0.1760
  842MOL0     H13635   0.761   9.006   6.250 -0.4717 -1.0961  0.5155
  842MOL0     H13636   0.552   8.835   6.163 -1.6950  0.9843  1.9584
  842MOL0     H13637   0.390   8.899   6.118 -1.2804  0.7732 -5.0755
  842MOL0     H13638   0.587   8.818   5.901  1.1004 -5.5227 -0.3277
  842MOL0     H13639   0.482   8.696   5.976 -0.0073 -0.8072  0.1204
  842MOL0     H13640   0.291   8.880   5.932  0.2350 -1.9776  0.0754
  842MOL0     H13641   0.347   8.773   5.795  1.2119 -0.9371  0.0256
  842MOL0     H13642   0.438   9.053   5.862 -1.5668  0.0998  1.5115
  842MOL0     H13643   0.481   8.962   5.721 -1.1643 -1.5669  0.2643
  842MOL0     H13644   0.190   9.029   5.786  2.0436  0.8168  1.6143
  842MOL0     H13645   0.253   8.918   5.654  1.4525 -0.2345 -1.0462
  842MOL0     H13646   0.265   9.229   5.689 -3.3529  2.1387 -3.1731
  842MOL0     H13647   0.389   9.147   5.588  0.0380  2.0440 -0.6422
  842MOL0     H13648   0.092   9.090   5.560 -0.0465 -0.6072  0.1741
  842MOL0     H13649   0.228   9.084   5.439 -0.4649  2.5918 -2.1650
  842MOL0     H13650   0.080   9.326   5.560  0.9915 -4.0760  2.3354
  842MOL0     H13651   0.085   9.262   5.390  1.9522 -2.2273 -1.3129
  842MOL0     H13652   0.365   9.131   6.194  0.7832  0.4253  0.9746
  842MOL0     H13653   0.356   9.237   6.406 -0.9666 -1.8632 -0.9268
  842MOL0     H13654   0.606   9.442   6.688  2.5760 -0.0419  0.1475
  842MOL0     H13655   0.618   9.609   6.867 -0.1680  0.1215 -0.3540
  842MOL0     H13656   1.059  11.007   6.406 -0.2137 -0.1502  1.0976
  842MOL0     H13657   1.054  11.018   6.145 -1.4061 -0.7709 -1.9272
  842MOL0     H13658   0.883  11.013   5.803  1.8204  1.1314 -1.5100
  842MOL0     H13659   0.925  11.067   5.547  0.2021  0.2512  2.2027
  842MOL0     H13660   1.062  10.922   5.192 -2.8654  0.5889 -0.2410
  842MOL0     H13661   1.136  10.805   5.311 -0.4651  1.2789  1.0551
  842MOL0     H13662   0.883  10.770   5.152  0.4031  0.3117 -0.3012
  842MOL0     H13663   0.963  10.642   5.248 -0.5948 -0.1308 -1.5095
  842MOL0     H13664   1.159  10.652   5.105  0.0031  0.7279  1.5902
  842MOL0     H13665   1.100  10.782   5.007  0.9035 -0.3506  0.5115
  842MOL0     H13666   1.022  10.618   4.868  0.6942 -1.0826  0.1454
  842MOL0     H13667   0.879  10.640   4.972 -0.6031  0.2146 -1.0030
  842MOL0     H13668   1.061  10.252   5.033 -1.8357 -0.1638  0.5339
  842MOL0     H13669   1.032  10.661   5.493 -2.2334 -0.5380 -0.8509
  842MOL0     H13670   1.030  10.630   5.726 -1.3154 -0.2373  1.8465
  843MOL0     O13671   0.164  10.677   8.470 -0.3277  0.0701 -0.2736
  843MOL0     C13672   0.050  10.624   8.465 -0.2008 -0.1260 -1.2396
  843MOL0     O13673  -0.016  10.595   8.357  0.3048 -0.7088 -0.2859
  843MOL0     C13674   0.049  10.598   8.231 -0.1590 -0.4684  0.2082
  843MOL0     C13675   0.077  10.500   8.136  0.5095  0.3616 -0.1604
  843MOL0     C13676   0.118  10.524   8.002  0.9490 -1.4525  0.8648
  843MOL0     C13677   0.137  10.659   7.959  0.5641  0.2088  0.1038
  843MOL0     O13678   0.179  10.682   7.828 -0.4070 -0.1624 -0.2630
  843MOL0     C13679   0.240  10.802   7.786 -0.5057  0.2388 -1.2099
  843MOL0     C13680   0.291  10.783   7.643 -0.2249 -0.5869  0.1083
  843MOL0     C13681   0.349  10.915   7.585 -0.3206  0.0676 -0.6199
  843MOL0     C13682   0.253  11.030   7.562 -0.5167  0.2187 -0.3490
  843MOL0     C13683   0.313  11.133   7.473 -0.4975  0.0737  0.0759
  843MOL0     C13684   0.412  11.229   7.549  0.0918  0.3988  1.1565
  843MOL0     C13685   0.432  11.357   7.469 -0.4478 -0.0799  0.3617
  843MOL0     C13686   0.551  11.441   7.524  0.3394  0.5947 -0.3744
  843MOL0     N13687   0.517  11.576   7.520  0.0027 -1.0412  0.7262
  843MOL0     C13688   0.506  11.650   7.405  0.2334  0.1784 -0.1453
  843MOL0     C13689   0.465  11.765   7.454  0.8969 -0.5138 -0.8319
  843MOL0     C13690   0.441  11.886   7.379 -0.2093  0.7000  0.5114
  843MOL0     C13691   0.583  11.942   7.323 -0.5270  0.3984  0.2742
  843MOL0     C13692   0.564  12.056   7.228  0.3319 -0.6802 -0.4155
  843MOL0     C13693   0.695  12.104   7.163 -0.3213  0.0017  0.2317
  843MOL0     O13694   0.671  12.231   7.099 -0.0603  1.2714  0.1707
  843MOL0     C13695   0.695  12.354   7.163  0.0853  0.4876 -0.5649
  843MOL0     C13696   0.593  12.445   7.158  0.0420  0.0392  0.9410
  843MOL0     C13697   0.602  12.565   7.227  0.3422  0.1083  0.5093
  843MOL0     C13698   0.485  12.658   7.217  0.1385  1.1873 -0.2410
  843MOL0     C13699   0.722  12.602   7.285 -0.9931 -0.2755 -0.4137
  843MOL0     C13700   0.729  12.723   7.374  0.0834  0.0996 -0.0778
  843MOL0     O13701   0.844  12.796   7.388  0.5492 -0.5985 -0.1159
  843MOL0     C13702   0.839  12.904   7.466 -0.4096 -0.1518  0.6835
  843MOL0     C13703   0.851  13.040   7.422 -0.0422 -0.8897  0.3448
  843MOL0     C13704   0.868  13.142   7.518 -0.3503 -0.7050  0.0794
  843MOL0     C13705   0.861  13.118   7.658 -0.7989  0.4429 -0.9254
  843MOL0     O13706   0.859  13.226   7.750 -0.4005 -0.2465  0.8654
  843MOL0     C13707   0.989  13.248   7.796  0.1258 -0.1814 -0.4011
  843MOL0     C13708   1.011  13.397   7.798  0.3843 -0.0814 -0.3934
  843MOL0     C13709   1.161  13.417   7.822 -0.7408  0.4002 -1.2601
  843MOL0     C13710   1.204  13.561   7.802 -0.0723  0.6451 -0.0792
  843MOL0     C13711   1.357  13.573   7.802  0.2657  0.7573 -0.5663
  843MOL0     C13712   1.408  13.717   7.781  0.4238 -0.3040 -0.5992
  843MOL0     C13713   1.564  13.725   7.803  0.2096  0.5432  0.6308
  843MOL0     C13714   1.644  13.691   7.679 -0.4022 -0.1794  0.0128
  843MOL0    Cl13715   1.816  13.740   7.675  0.2192  0.2642 -0.0468
  843MOL0     C13716   0.823  12.987   7.704 -0.1755  0.1083  0.1248
  843MOL0     C13717   0.827  12.881   7.606  0.0231  0.3970  0.2898
  843MOL0     O13718   0.629  12.740   7.448  0.8039 -0.2866 -0.2869
  843MOL0     C13719   0.836  12.508   7.275  0.0336 -0.7255 -0.0694
  843MOL0     C13720   0.821  12.387   7.219 -0.0294 -0.2973  0.1401
  843MOL0     N13721   0.451  11.770   7.585  0.6522 -0.3316 -0.0347
  843MOL0     N13722   0.464  11.648   7.619  0.2469 -0.6587  0.3052
  843MOL0     C13723   0.116  10.763   8.056  0.6087 -0.3137  0.2720
  843MOL0     C13724   0.072  10.730   8.192 -0.6796  0.2947 -0.3154
  843MOL0     C13725  -0.025  10.602   8.594  0.0282  0.7233 -0.0488
  843MOL0     C13726   0.011  10.640   8.718  1.2147 -1.2742  0.5838
  843MOL0     C13727  -0.069  10.614   8.840  0.5504 -1.1558 -0.2214
  843MOL0     C13728  -0.188  10.545   8.824  0.8611  0.0627  0.1941
  843MOL0     O13729  -0.270  10.491   8.922  0.1890 -0.1089 -0.1515
  843MOL0     C13730  -0.195  10.474   9.046 -0.1853 -0.4673  0.1816
  843MOL0     C13731  -0.245  10.363   9.145  0.3385 -0.5021  0.4237
  843MOL0     C13732  -0.391  10.396   9.168  0.2639 -0.4002 -0.0209
  843MOL0     C13733  -0.453  10.332   9.283  0.5594  0.0496 -0.6753
  843MOL0     C13734  -0.422  10.391   9.411  0.2036  0.7157 -0.9013
  843MOL0     C13735  -0.395  10.428   9.520  0.5132 -0.4298  1.1407
  843MOL0     C13736  -0.231  10.515   8.695  0.4252 -0.5983 -0.1087
  843MOL0     C13737  -0.155  10.545   8.581  0.5252  0.2792  0.0636
  843MOL0     H13738   0.068  10.401   8.179 -0.7422  1.4855  2.3707
  843MOL0     H13739   0.158  10.456   7.927  0.3820  0.8935 -1.7581
  843MOL0     H13740   0.166  10.883   7.786 -0.3512  0.4516  1.2006
  843MOL0     H13741   0.324  10.831   7.850 -1.3827  3.8543 -1.4487
  843MOL0     H13742   0.371  10.708   7.642 -0.4685 -1.0602  3.5165
  843MOL0     H13743   0.217  10.757   7.567  1.3854  2.3190 -2.7298
  843MOL0     H13744   0.437  10.952   7.639 -2.2935  2.6068  1.0896
  843MOL0     H13745   0.379  10.891   7.483 -0.3094 -0.0165 -0.5968
  843MOL0     H13746   0.158  10.999   7.517  1.3605 -3.0306 -2.4693
  843MOL0     H13747   0.229  11.084   7.654  1.7609  0.1274  0.3542
  843MOL0     H13748   0.365  11.077   7.394  3.2997  0.8166  1.8091
  843MOL0     H13749   0.231  11.189   7.428 -0.6941  1.0661  1.6077
  843MOL0     H13750   0.369  11.272   7.640 -2.8351 -1.2956  0.7299
  843MOL0     H13751   0.503  11.172   7.568  0.7119  0.7887 -0.4950
  843MOL0     H13752   0.455  11.331   7.366  2.9501  1.3141  0.6433
  843MOL0     H13753   0.338  11.413   7.456 -0.0120  0.7038  0.5211
  843MOL0     H13754   0.640  11.412   7.468  1.7695  0.9352  1.6170
  843MOL0     H13755   0.568  11.415   7.629  2.2737  1.7708 -0.3406
  843MOL0     H13756   0.527  11.624   7.302  2.7122 -1.5594  0.6824
  843MOL0     H13757   0.380  11.857   7.292  3.2588  1.3195 -2.4005
  843MOL0     H13758   0.391  11.967   7.432 -0.3672  2.6891 -2.4477
  843MOL0     H13759   0.642  11.858   7.285  0.8030  1.3089  0.2762
  843MOL0     H13760   0.649  11.974   7.404  1.6768 -1.0024 -0.8639
  843MOL0     H13761   0.512  12.141   7.272 -0.7079 -2.6672  2.4827
  843MOL0     H13762   0.495  12.015   7.153 -3.3085  2.5654  0.8208
  843MOL0     H13763   0.733  12.036   7.087 -0.6531 -1.8978  1.6890
  843MOL0     H13764   0.779  12.115   7.233 -0.0931  0.9057 -0.1633
  843MOL0     H13765   0.500  12.423   7.106  0.5961 -2.7034  0.9589
  843MOL0     H13766   0.416  12.636   7.299  1.4251  2.0844  1.1460
  843MOL0     H13767   0.515  12.762   7.233 -2.1970  1.5333  2.9067
  843MOL0     H13768   0.428  12.648   7.124 -2.0142  0.8514  1.0485
  843MOL0     H13769   0.838  13.062   7.316  0.6599  0.7608  0.5605
  843MOL0     H13770   0.873  13.245   7.483  0.0354  0.1364  2.4018
  843MOL0     H13771   1.004  13.211   7.898 -1.0617  4.0310  1.5347
  843MOL0     H13772   1.060  13.204   7.725  0.1681  1.1931 -1.2545
  843MOL0     H13773   0.975  13.440   7.704 -3.9653 -0.9690  0.6449
  843MOL0     H13774   0.959  13.449   7.879  2.0250 -0.0096  0.6503
  843MOL0     H13775   1.232  13.359   7.762  1.0179  0.0925  0.9740
  843MOL0     H13776   1.185  13.392   7.926  0.5315 -1.4701 -1.9510
  843MOL0     H13777   1.166  13.579   7.701  0.2885  0.7502 -0.1947
  843MOL0     H13778   1.152  13.631   7.869  0.8613  3.1232 -1.7971
  843MOL0     H13779   1.397  13.507   7.724  0.5322  0.5986 -0.2951
  843MOL0     H13780   1.397  13.525   7.892 -0.2409 -0.4106 -0.9436
  843MOL0     H13781   1.391  13.751   7.679 -0.1820 -2.3579 -1.2179
  843MOL0     H13782   1.364  13.783   7.856 -2.8683 -2.2609 -0.6281
  843MOL0     H13783   1.577  13.637   7.868  2.5702  0.4998  0.2024
  843MOL0     H13784   1.606  13.812   7.855 -0.0424 -0.6737  3.0072
  843MOL0     H13785   1.586  13.748   7.606  1.4557  0.6276 -0.9170
  843MOL0     H13786   1.645  13.584   7.660  1.8621 -0.5173  1.6621
  843MOL0     H13787   0.789  12.961   7.804 -0.6647  0.2269 -0.0038
  843MOL0     H13788   0.801  12.779   7.631  0.3903  0.1167 -0.4596
  843MOL0     H13789   0.933  12.543   7.309  0.6237 -0.4664 -1.9012
  843MOL0     H13790   0.908  12.324   7.213  0.5945  0.3770  1.6103
  843MOL0     H13791   0.129  10.869   8.038  0.6659 -0.4368 -0.4014
  843MOL0     H13792   0.052  10.805   8.267  1.2409  0.0469  0.5044
  843MOL0     H13793   0.102  10.698   8.733 -1.1275  3.1075 -0.4669
  843MOL0     H13794  -0.033  10.624   8.942  0.8921 -0.7032 -0.3846
  843MOL0     H13795  -0.091  10.442   9.032  0.0221  0.2958 -0.0628
  843MOL0     H13796  -0.195  10.572   9.093 -0.1042 -0.3276 -0.1072
  843MOL0     H13797  -0.184  10.371   9.235 -1.0174  0.4700  1.2890
  843MOL0     H13798  -0.230  10.261   9.108 -2.5692 -0.3215 -1.5834
  843MOL0     H13799  -0.445  10.364   9.078 -2.8899  0.8112  1.3265
  843MOL0     H13800  -0.395  10.505   9.171  2.0187 -0.2126 -1.9580
  843MOL0     H13801  -0.426  10.226   9.290 -1.1944 -0.3615  3.8354
  843MOL0     H13802  -0.562  10.340   9.272  0.3605 -0.7969  0.4542
  843MOL0     H13803  -0.371  10.463   9.618 -0.7219  0.4492  1.1460
  843MOL0     H13804  -0.329  10.471   8.688  1.0441 -1.7493 -2.8382
  843MOL0     H13805  -0.204  10.511   8.489  0.2413 -1.1866  0.7232
  844MOL0     O13806   6.478  11.469   6.200  0.2541 -0.2664  0.2726
  844MOL0     C13807   6.535  11.450   6.097  0.6729 -0.1485  0.3155
  844MOL0     O13808   6.478  11.371   6.000  0.1274  0.4588  0.3660
  844MOL0     C13809   6.357  11.315   6.024  1.1391  0.5658 -0.2821
  844MOL0     C13810   6.343  11.190   6.086 -1.4176 -0.6465 -0.4332
  844MOL0     C13811   6.226  11.124   6.116 -0.5530 -0.6146 -0.1247
  844MOL0     C13812   6.107  11.187   6.076 -0.6890 -0.3276 -0.1782
  844MOL0     O13813   5.992  11.119   6.108  0.0319  0.2973 -1.0222
  844MOL0     C13814   5.873  11.186   6.081  0.6311  1.1915  1.4653
  844MOL0     C13815   5.759  11.091   6.115 -0.2413 -0.6518 -0.4357
  844MOL0     C13816   5.725  10.984   6.001 -0.0935 -1.1764 -0.7305
  844MOL0     C13817   5.595  10.905   6.048  0.6184 -0.3542  0.4139
  844MOL0     C13818   5.558  10.793   5.942 -0.7792 -0.8260 -0.3046
  844MOL0     C13819   5.415  10.741   5.970 -0.3158 -0.0348  0.1158
  844MOL0     C13820   5.361  10.643   5.855 -0.2731 -0.6723 -0.2095
  844MOL0     C13821   5.421  10.501   5.871  0.5335 -0.3000  0.8586
  844MOL0     N13822   5.358  10.422   5.981  0.1623  0.1736 -1.5458
  844MOL0     C13823   5.407  10.422   6.113 -0.1338  0.2870  0.4145
  844MOL0     C13824   5.339  10.322   6.171  0.4917  0.4118 -0.3281
  844MOL0     C13825   5.345  10.278   6.320  0.1791  1.1640  0.1997
  844MOL0     C13826   5.227  10.338   6.409  0.5195 -0.4711 -0.8905
  844MOL0     C13827   5.216  10.489   6.380  0.3884 -1.1719 -0.8833
  844MOL0     C13828   5.341  10.571   6.424 -0.5857  0.3246  1.1077
  844MOL0     O13829   5.297  10.708   6.457  0.1499  0.7485 -0.5852
  844MOL0     C13830   5.401  10.792   6.482 -0.3301  0.1069 -0.0020
  844MOL0     C13831   5.470  10.782   6.603  0.0272 -0.2284  0.2751
  844MOL0     C13832   5.587  10.860   6.625  0.1233  0.7087  0.0666
  844MOL0     C13833   5.644  10.824   6.755  0.4761  0.1157  0.1386
  844MOL0     C13834   5.631  10.950   6.528  0.3726 -0.4097 -0.4985
  844MOL0     C13835   5.763  11.036   6.528 -0.3952 -0.1855 -0.0670
  844MOL0     O13836   5.769  11.144   6.447  0.5166 -0.1361  0.8116
  844MOL0     C13837   5.860  11.241   6.469  0.2496  0.1746 -0.7562
  844MOL0     C13838   5.992  11.234   6.427  0.3610 -0.9737 -0.2303
  844MOL0     C13839   6.085  11.338   6.433  0.7191  0.8182  0.1663
  844MOL0     C13840   6.041  11.462   6.488 -0.4697  0.3268  0.3060
  844MOL0     O13841   6.117  11.582   6.483 -0.0610 -0.0006  0.3280
  844MOL0     C13842   6.239  11.587   6.398  0.2910  0.9712 -0.0462
  844MOL0     C13843   6.305  11.716   6.436 -0.0668  0.6025 -0.4103
  844MOL0     C13844   6.342  11.716   6.584 -0.2026 -0.4271 -0.5316
  844MOL0     C13845   6.423  11.845   6.634 -0.3811  0.1541  0.4408
  844MOL0     C13846   6.338  11.974   6.658 -0.4872 -0.9457 -0.4674
  844MOL0     C13847   6.282  11.968   6.799 -0.4388 -0.1025 -0.1785
  844MOL0     C13848   6.186  12.091   6.819  0.8363  0.9039  0.5692
  844MOL0     C13849   6.187  12.140   6.963  1.2236 -0.9000 -0.7041
  844MOL0    Cl13850   6.078  12.037   7.059  0.0489  0.6985  0.1409
  844MOL0     C13851   5.913  11.468   6.547  0.0595  0.3801  0.8792
  844MOL0     C13852   5.819  11.364   6.529 -0.4849  0.0724  0.0017
  844MOL0     O13853   5.854  11.003   6.602 -0.2214 -0.1590  0.0339
  844MOL0     C13854   5.548  10.975   6.421  0.8756  0.1137  0.2659
  844MOL0     C13855   5.433  10.895   6.389 -0.2682  0.6005  0.6373
  844MOL0     N13856   5.258  10.266   6.080 -0.3047 -0.1764  0.2246
  844MOL0     N13857   5.268  10.322   5.966 -0.4109 -0.1124  0.6804
  844MOL0     C13858   6.109  11.314   6.014 -0.2418  0.4430  0.3034
  844MOL0     C13859   6.235  11.380   5.985  0.3768 -0.4823 -0.1371
  844MOL0     C13860   6.660  11.508   6.059 -1.8253 -1.5720 -0.6287
  844MOL0     C13861   6.726  11.611   6.138  0.9851 -0.3781  0.5234
  844MOL0     C13862   6.839  11.671   6.087 -0.9359 -0.3193  1.1251
  844MOL0     C13863   6.910  11.623   5.971  0.4880 -0.4766 -0.6967
  844MOL0     O13864   7.041  11.655   5.934 -0.3159  0.7147  0.4813
  844MOL0     C13865   7.125  11.711   6.031 -0.1250  0.3364  0.2919
  844MOL0     C13866   7.110  11.867   6.042  0.6680 -0.4836 -0.5688
  844MOL0     C13867   7.174  11.917   6.167  0.7417  0.3215 -0.6849
  844MOL0     C13868   7.234  12.064   6.165 -0.0392 -0.1572  0.2041
  844MOL0     C13869   7.325  12.095   6.050  0.1803 -0.2945  0.9863
  844MOL0     C13870   7.394  12.127   5.951 -0.4006  0.3052  0.1597
  844MOL0     C13871   6.840  11.524   5.902  1.3774  0.1384 -0.3091
  844MOL0     C13872   6.717  11.464   5.939 -0.2835  0.2685 -0.9045
  844MOL0     H13873   6.437  11.141   6.110 -1.3389  0.0302  0.7228
  844MOL0     H13874   6.207  11.026   6.157  1.5180 -1.5025 -1.1679
  844MOL0     H13875   5.874  11.282   6.134  0.3202  1.5517  0.8295
  844MOL0     H13876   5.861  11.202   5.974  1.0334 -1.8547  0.8964
  844MOL0     H13877   5.788  11.028   6.199  1.2531  1.7989  0.9960
  844MOL0     H13878   5.667  11.141   6.147  0.1771  0.1430 -0.4440
  844MOL0     H13879   5.716  11.032   5.903 -2.6013  2.1295  0.9106
  844MOL0     H13880   5.809  10.914   5.998  1.7547  0.8283  0.7888
  844MOL0     H13881   5.586  10.866   6.149 -3.5687 -0.1228  0.3405
  844MOL0     H13882   5.511  10.975   6.036  0.9692 -0.2838 -2.1390
  844MOL0     H13883   5.570  10.833   5.841 -1.8782  3.0816  0.9339
  844MOL0     H13884   5.626  10.712   5.969 -0.9038 -0.6926  0.4506
  844MOL0     H13885   5.400  10.682   6.062  1.0511 -2.5890 -1.1692
  844MOL0     H13886   5.346  10.825   5.975 -1.4763 -0.7528 -2.3836
  844MOL0     H13887   5.256  10.649   5.887  0.8035  2.8336  3.4354
  844MOL0     H13888   5.391  10.689   5.761  3.7951  0.8357  1.5908
  844MOL0     H13889   5.527  10.504   5.899  0.7071  0.6406  0.1564
  844MOL0     H13890   5.421  10.450   5.774 -1.6564  1.3774 -0.1087
  844MOL0     H13891   5.480  10.497   6.140  1.2187 -0.9689  0.3239
  844MOL0     H13892   5.362  10.170   6.328  2.4638  1.4395 -0.2592
  844MOL0     H13893   5.438  10.309   6.369 -0.0348  0.9329  0.7677
  844MOL0     H13894   5.256  10.328   6.514  0.4063  0.5792 -0.7563
  844MOL0     H13895   5.137  10.280   6.386  0.7310 -0.3873 -1.9880
  844MOL0     H13896   5.131  10.523   6.439  0.7670 -1.1390 -0.3500
  844MOL0     H13897   5.186  10.503   6.275 -0.4168  1.2306 -0.3884
  844MOL0     H13898   5.428  10.569   6.357 -0.9374  1.5271  0.5797
  844MOL0     H13899   5.373  10.523   6.516  1.5414 -0.2794  0.1106
  844MOL0     H13900   5.448  10.708   6.679  0.1854  1.5321  2.1224
  844MOL0     H13901   5.553  10.828   6.816 -0.4302 -1.0086 -1.0666
  844MOL0     H13902   5.698  10.728   6.755  1.2836  0.5618 -0.5402
  844MOL0     H13903   5.714  10.893   6.803  0.5063 -1.4371  2.4972
  844MOL0     H13904   6.018  11.140   6.379  2.6840 -1.2303  1.3588
  844MOL0     H13905   6.189  11.319   6.408  1.1583  1.2619  1.5816
  844MOL0     H13906   6.315  11.510   6.413  0.8385  0.6744 -3.4223
  844MOL0     H13907   6.222  11.564   6.292 -1.3316  1.2394  0.1321
  844MOL0     H13908   6.393  11.732   6.374  0.1252  2.1332  0.2187
  844MOL0     H13909   6.237  11.798   6.412 -1.5971 -0.5443 -0.1894
  844MOL0     H13910   6.409  11.630   6.591 -1.6315 -1.5329 -0.2678
  844MOL0     H13911   6.251  11.704   6.643  0.8103 -0.8736  0.9835
  844MOL0     H13912   6.483  11.814   6.720  0.4594 -0.6610 -0.4160
  844MOL0     H13913   6.498  11.865   6.556  3.0300 -5.3708  1.7794
  844MOL0     H13914   6.257  11.983   6.585  0.9134 -0.7157 -2.0696
  844MOL0     H13915   6.390  12.070   6.662 -1.9187 -0.1393 -0.4903
  844MOL0     H13916   6.220  11.877   6.801  0.1486 -0.5082  1.8892
  844MOL0     H13917   6.370  11.960   6.864 -1.0612 -1.6375  0.5527
  844MOL0     H13918   6.085  12.055   6.799  1.1311  1.0386 -1.3361
  844MOL0     H13919   6.202  12.167   6.742  1.9902  1.1720  1.0518
  844MOL0     H13920   6.140  12.238   6.976  1.7141 -0.5909 -1.2121
  844MOL0     H13921   6.286  12.140   7.010  1.1273  1.2643 -0.3911
  844MOL0     H13922   5.880  11.555   6.603 -1.0986 -0.3234  1.3197
  844MOL0     H13923   5.723  11.364   6.580 -0.5827  1.5732 -0.1439
  844MOL0     H13924   5.558  11.056   6.350  1.6306 -1.7709 -1.9432
  844MOL0     H13925   5.372  10.903   6.299  0.8373  2.6150 -0.0103
  844MOL0     H13926   6.025  11.364   5.968 -2.0850 -1.1132  1.8257
  844MOL0     H13927   6.230  11.473   5.929 -1.5274 -0.6599 -0.3359
  844MOL0     H13928   6.680  11.652   6.227 -1.2560 -1.9505  0.1993
  844MOL0     H13929   6.871  11.757   6.145 -3.2264 -0.3352  2.5120
  844MOL0     H13930   7.098  11.666   6.127 -5.2504  2.9698  0.4225
  844MOL0     H13931   7.231  11.702   6.008  0.2596  2.4953  1.0446
  844MOL0     H13932   7.010  11.911   6.047  1.8863  2.4338  0.1432
  844MOL0     H13933   7.145  11.918   5.952 -2.7532  2.3969 -0.4704
  844MOL0     H13934   7.241  11.836   6.199 -0.9709 -0.5715  0.7694
  844MOL0     H13935   7.096  11.924   6.243  1.6413  1.7779  0.1523
  844MOL0     H13936   7.289  12.082   6.258  1.1990  0.2721 -0.5815
  844MOL0     H13937   7.155  12.138   6.150  1.0501  0.9128 -0.4914
  844MOL0     H13938   7.452  12.145   5.862 -1.0321  1.3952 -0.0399
  844MOL0     H13939   6.893  11.489   5.813 -0.7027  0.7922 -1.8966
  844MOL0     H13940   6.674  11.392   5.871  1.1338 -0.9393 -0.5657
  845MOL0     O13941   4.695   4.703   2.467 -0.7193  0.6762  0.1805
  845MOL0     C13942   4.737   4.711   2.580  0.0390 -0.2452 -1.5073
  845MOL0     O13943   4.732   4.820   2.657  0.0988  0.1321  0.2955
  845MOL0     C13944   4.716   4.949   2.624  0.5044 -0.0392  0.1400
  845MOL0     C13945   4.729   5.037   2.726 -0.7607  0.2139  0.1853
  845MOL0     C13946   4.720   5.177   2.718  0.7433 -0.1123  0.6455
  845MOL0     C13947   4.699   5.233   2.586 -0.4195  0.2558 -0.3876
  845MOL0     O13948   4.692   5.366   2.560 -1.0811  0.1347  0.8729
  845MOL0     C13949   4.768   5.449   2.649  0.3179  0.4373  0.4808
  845MOL0     C13950   4.756   5.584   2.592  0.0826  0.2132  0.1827
  845MOL0     C13951   4.820   5.689   2.684  0.5734 -0.5629 -0.0473
  845MOL0     C13952   4.969   5.692   2.704 -0.1578  0.8028  0.0440
  845MOL0     C13953   5.014   5.807   2.797  0.6006  1.2277 -0.0029
  845MOL0     C13954   5.167   5.811   2.805  0.6020 -0.7491 -0.1637
  845MOL0     C13955   5.211   5.920   2.908  0.8217  0.3607 -0.2307
  845MOL0     C13956   5.190   5.890   3.062 -0.7509 -0.5174  0.2312
  845MOL0     N13957   5.287   5.956   3.144 -0.5438  0.5999  0.7515
  845MOL0     C13958   5.308   6.085   3.150  0.3934 -1.1626  1.0093
  845MOL0     C13959   5.437   6.107   3.187  0.5067 -0.4417 -0.0000
  845MOL0     C13960   5.513   6.225   3.202  0.0586  0.1982  0.6763
  845MOL0     C13961   5.628   6.254   3.100  0.7362 -0.8225  0.1305
  845MOL0     C13962   5.747   6.158   3.130 -0.1004  0.1163  0.0644
  845MOL0     C13963   5.821   6.122   3.001 -0.3427 -0.3572  0.2502
  845MOL0     O13964   5.901   6.240   2.958  0.5832  0.1220 -0.0213
  845MOL0     C13965   5.885   6.287   2.827 -0.7248 -0.4301 -1.0254
  845MOL0     C13966   5.975   6.383   2.787  0.2464 -0.6487  0.7062
  845MOL0     C13967   5.971   6.435   2.654 -0.5068  0.3993 -0.0895
  845MOL0     C13968   6.064   6.549   2.626 -0.1011  0.8027  0.2643
  845MOL0     C13969   5.892   6.370   2.562  0.4841  0.1604 -0.2505
  845MOL0     C13970   5.891   6.428   2.423  0.8064  0.4916 -0.4272
  845MOL0     O13971   5.887   6.565   2.387  0.8679 -0.1584 -0.0773
  845MOL0     C13972   5.892   6.611   2.260  0.2086 -0.5643 -0.0799
  845MOL0     C13973   5.946   6.549   2.148 -0.1050  0.5175 -0.1947
  845MOL0     C13974   5.930   6.605   2.016 -0.3239 -0.4285  0.3137
  845MOL0     C13975   5.877   6.730   2.001 -0.1245  0.6646  0.1807
  845MOL0     O13976   5.847   6.794   1.889 -0.2530 -0.4090  0.2295
  845MOL0     C13977   5.898   6.738   1.771  0.4398  0.4928 -0.2414
  845MOL0     C13978   5.819   6.796   1.654 -0.4439  0.3801 -0.2810
  845MOL0     C13979   5.866   6.944   1.641 -0.2973 -0.2668  0.7232
  845MOL0     C13980   6.009   6.968   1.626 -0.3577 -0.1850  0.6183
  845MOL0     C13981   6.071   7.023   1.758 -0.1109 -0.2861  0.7615
  845MOL0     C13982   6.218   7.043   1.728 -0.8613 -0.4486 -0.8284
  845MOL0     C13983   6.299   6.914   1.729  0.1762 -0.4101 -0.8191
  845MOL0     C13984   6.297   6.837   1.865  0.0717 -0.4535 -0.3732
  845MOL0    Cl13985   6.435   6.715   1.883  0.0189  0.1090 -0.0609
  845MOL0     C13986   5.837   6.793   2.115 -0.2491  0.0551 -0.5626
  845MOL0     C13987   5.835   6.736   2.237  1.0613 -0.7918  0.2553
  845MOL0     O13988   5.896   6.340   2.340 -1.0627 -0.7945 -0.0255
  845MOL0     C13989   5.792   6.282   2.606  0.7129  0.3906  0.4587
  845MOL0     C13990   5.786   6.238   2.740  0.0964 -0.2964  0.1781
  845MOL0     N13991   5.485   5.975   3.216  0.4970  0.2252  0.3046
  845MOL0     N13992   5.396   5.884   3.202  0.6550 -0.7341  0.6037
  845MOL0     C13993   4.677   5.136   2.484 -0.2894  0.3531 -0.3453
  845MOL0     C13994   4.683   4.997   2.505  0.0577  0.7547  0.1827
  845MOL0     C13995   4.777   4.576   2.643 -1.0697 -0.1155 -0.2354
  845MOL0     C13996   4.767   4.550   2.787 -0.2375 -0.6002 -0.8748
  845MOL0     C13997   4.800   4.427   2.834  0.0817 -0.4218  0.4330
  845MOL0     C13998   4.861   4.330   2.764  0.4087 -0.0723 -0.8499
  845MOL0     O13999   4.923   4.223   2.828 -0.1804 -0.4867  0.7849
  845MOL0     C14000   4.854   4.160   2.936  0.3366  0.2928  0.1621
  845MOL0     C14001   4.892   4.010   2.940 -0.4297  0.0196 -0.3444
  845MOL0     C14002   4.825   3.926   2.824 -1.2029 -0.5949 -0.1972
  845MOL0     C14003   4.873   3.784   2.828 -0.0233 -0.3829  1.2821
  845MOL0     C14004   5.015   3.771   2.816 -0.1225  0.2935  1.1783
  845MOL0     C14005   5.135   3.772   2.788  0.0361 -0.0491  0.5605
  845MOL0     C14006   4.875   4.347   2.629 -0.1113  0.4045  0.5374
  845MOL0     C14007   4.827   4.466   2.572 -1.6047 -0.1570  0.5258
  845MOL0     H14008   4.748   4.987   2.820  0.8580 -0.3811 -0.4290
  845MOL0     H14009   4.732   5.228   2.814  0.1339 -1.6351  1.5727
  845MOL0     H14010   4.720   5.450   2.748 -4.5343  2.0769 -1.5706
  845MOL0     H14011   4.872   5.416   2.652 -1.1229 -5.1513  0.1021
  845MOL0     H14012   4.789   5.588   2.488 -4.1539  0.6527 -1.3279
  845MOL0     H14013   4.650   5.611   2.593 -0.2236 -0.9297  0.4524
  845MOL0     H14014   4.797   5.786   2.640  0.9564 -0.4403  0.0132
  845MOL0     H14015   4.762   5.687   2.777  0.0460  3.7384 -0.0595
  845MOL0     H14016   5.000   5.595   2.745 -2.1413  0.1736  0.1595
  845MOL0     H14017   5.017   5.698   2.606  0.6905  0.7359  0.4494
  845MOL0     H14018   4.983   5.906   2.761  3.9594  2.4578  0.0834
  845MOL0     H14019   4.968   5.786   2.893 -3.0545 -0.8332 -1.9878
  845MOL0     H14020   5.194   5.714   2.846 -2.7250 -1.4891  0.5815
  845MOL0     H14021   5.220   5.831   2.711  3.0059  2.1187  1.6114
  845MOL0     H14022   5.320   5.924   2.904  0.9055  1.7363  1.7589
  845MOL0     H14023   5.160   6.012   2.877 -0.8735 -1.1034 -2.1052
  845MOL0     H14024   5.200   5.782   3.056 -2.0536 -0.7770  1.9243
  845MOL0     H14025   5.087   5.915   3.088 -1.2976 -1.7473 -0.6782
  845MOL0     H14026   5.235   6.155   3.109  1.0151 -1.0580  0.0361
  845MOL0     H14027   5.444   6.310   3.194  2.1343  1.9054 -0.0433
  845MOL0     H14028   5.550   6.221   3.305  1.9334 -0.6187  0.0248
  845MOL0     H14029   5.665   6.356   3.109  4.1398 -2.0731  2.0116
  845MOL0     H14030   5.601   6.244   2.994 -0.8843 -2.5576  0.6473
  845MOL0     H14031   5.724   6.062   3.176 -1.1672  1.0859  1.6682
  845MOL0     H14032   5.820   6.199   3.200 -1.3241  2.2066  0.2038
  845MOL0     H14033   5.762   6.079   2.919  0.5663 -1.4721  0.1583
  845MOL0     H14034   5.893   6.046   3.032 -0.8775 -0.9493  0.0488
  845MOL0     H14035   6.038   6.435   2.858  0.9900  2.0838 -1.7688
  845MOL0     H14036   6.149   6.545   2.694 -0.7172  1.1745  1.0778
  845MOL0     H14037   6.115   6.538   2.530  2.9826  1.2527  1.7417
  845MOL0     H14038   6.019   6.649   2.620 -5.1930 -1.0911  1.5294
  845MOL0     H14039   5.987   6.449   2.164 -0.1942  0.4918 -0.1283
  845MOL0     H14040   5.966   6.552   1.929 -0.9241 -1.3047  0.5792
  845MOL0     H14041   6.003   6.754   1.747  1.4299 -2.5964  1.4854
  845MOL0     H14042   5.879   6.631   1.762  0.1654  0.5393 -0.2206
  845MOL0     H14043   5.837   6.747   1.558 -2.4252  2.6631 -1.9344
  845MOL0     H14044   5.712   6.800   1.675 -1.0050  1.1736 -2.9050
  845MOL0     H14045   5.834   7.009   1.723  0.9564  1.3073  0.0232
  845MOL0     H14046   5.811   6.979   1.553 -0.5977 -1.6991  0.3083
  845MOL0     H14047   6.042   6.872   1.586  0.6322  0.5419 -0.3575
  845MOL0     H14048   6.016   7.040   1.544  1.4085  2.2066  2.7027
  845MOL0     H14049   6.061   6.954   1.842  0.9264 -4.7188 -2.4041
  845MOL0     H14050   6.033   7.121   1.789 -3.4691 -0.2298 -2.7284
  845MOL0     H14051   6.236   7.084   1.628  0.8321 -1.1345 -0.8480
  845MOL0     H14052   6.249   7.118   1.802  1.2659  2.0728 -3.9816
  845MOL0     H14053   6.402   6.943   1.711  0.0354  0.3817 -0.3820
  845MOL0     H14054   6.266   6.854   1.644  0.2643 -2.2400  0.3664
  845MOL0     H14055   6.203   6.780   1.870 -2.1639  2.9875  3.4723
  845MOL0     H14056   6.299   6.916   1.940  1.2891  0.4902 -1.3616
  845MOL0     H14057   5.797   6.893   2.107  0.5225  0.4926  0.7698
  845MOL0     H14058   5.787   6.781   2.324 -1.1231 -1.6792 -0.4289
  845MOL0     H14059   5.717   6.240   2.540  0.9517  2.5749 -1.3120
  845MOL0     H14060   5.698   6.179   2.762 -0.1943  0.5155  1.3352
  845MOL0     H14061   4.674   5.162   2.379 -0.9238  0.6989 -0.2464
  845MOL0     H14062   4.659   4.922   2.430 -2.3769  2.0085 -0.3886
  845MOL0     H14063   4.719   4.628   2.845  1.9717 -0.9161  1.5872
  845MOL0     H14064   4.784   4.418   2.941  2.8167 -0.0453  0.9413
  845MOL0     H14065   4.887   4.214   3.026  2.6907 -1.0183  0.1512
  845MOL0     H14066   4.745   4.171   2.930  0.5342  1.8425 -0.9187
  845MOL0     H14067   4.854   3.964   3.032 -2.0476 -0.5481 -1.2612
  845MOL0     H14068   5.001   4.007   2.948 -0.5270 -1.3515  0.8805
  845MOL0     H14069   4.838   3.968   2.724 -1.3692  1.2691  0.5348
  845MOL0     H14070   4.718   3.922   2.843 -1.4980  2.0162 -0.9885
  845MOL0     H14071   4.832   3.739   2.737  0.0008 -0.5219  1.3397
  845MOL0     H14072   4.828   3.732   2.914 -0.2576  0.7794  1.8920
  845MOL0     H14073   5.241   3.770   2.775 -0.2075 -3.9466 -3.4540
  845MOL0     H14074   4.914   4.263   2.573 -2.2102  0.9624 -1.9026
  845MOL0     H14075   4.823   4.464   2.464 -0.9817  1.0819  0.4688
  846MOL0     O14076   5.912   3.245   3.271 -0.1255 -0.6427  0.5812
  846MOL0     C14077   5.825   3.299   3.344 -0.7019 -0.8216 -0.2039
  846MOL0     O14078   5.826   3.437   3.383 -0.0831  0.1799  0.8705
  846MOL0     C14079   5.909   3.528   3.328 -0.3278  0.2274  0.2447
  846MOL0     C14080   5.860   3.648   3.271 -0.6058 -0.3691 -0.3412
  846MOL0     C14081   5.946   3.748   3.222  0.0777 -0.0747  0.1640
  846MOL0     C14082   6.083   3.727   3.233  0.1367  0.0453 -1.2551
  846MOL0     O14083   6.180   3.826   3.220  0.3711  0.5409 -0.3371
  846MOL0     C14084   6.197   3.890   3.096 -0.0696  0.1508  0.1716
  846MOL0     C14085   6.343   3.929   3.082 -0.8579  0.3251 -0.5319
  846MOL0     C14086   6.396   3.941   2.942  0.5621  0.1695 -0.0021
  846MOL0     C14087   6.330   4.062   2.883  0.2570  0.0573  0.3136
  846MOL0     C14088   6.319   4.037   2.733 -0.1708  0.4675  0.1985
  846MOL0     C14089   6.453   4.037   2.672 -0.9923 -0.5306  0.8191
  846MOL0     C14090   6.551   4.155   2.697  0.5637  0.5493  0.0194
  846MOL0     C14091   6.630   4.208   2.571  0.4258 -1.0717  0.1817
  846MOL0     N14092   6.680   4.103   2.491  0.4762 -0.3946  0.4390
  846MOL0     C14093   6.765   4.003   2.547 -0.1126 -0.0466 -0.1965
  846MOL0     C14094   6.742   3.890   2.466 -0.3073 -0.6241  0.6671
  846MOL0     C14095   6.809   3.759   2.477 -0.1001 -0.5373  0.1236
  846MOL0     C14096   6.732   3.640   2.456  0.8656 -0.2511 -0.7859
  846MOL0     C14097   6.606   3.622   2.548 -0.2403  0.4357 -0.0381
  846MOL0     C14098   6.647   3.577   2.692  0.3650 -0.2892  1.0595
  846MOL0     O14099   6.529   3.595   2.781 -0.2051  0.4591 -0.4020
  846MOL0     C14100   6.430   3.503   2.768  0.0865 -0.1127  0.0434
  846MOL0     C14101   6.320   3.527   2.861  0.3663  0.1223 -0.4756
  846MOL0     C14102   6.210   3.443   2.860 -0.3612 -0.4162 -0.5520
  846MOL0     C14103   6.107   3.477   2.962 -0.3423 -1.0834 -0.7642
  846MOL0     C14104   6.209   3.329   2.772 -0.0463  0.8239 -0.3657
  846MOL0     C14105   6.107   3.220   2.784  0.6356 -0.7026  0.4835
  846MOL0     O14106   6.049   3.182   2.911 -0.2950  0.1971 -0.5917
  846MOL0     C14107   5.942   3.107   2.905  1.1364  0.6581  0.7092
  846MOL0     C14108   5.813   3.151   2.910  0.5385 -0.8588 -0.0197
  846MOL0     C14109   5.697   3.067   2.902 -0.8755  0.0111 -0.2888
  846MOL0     C14110   5.715   2.925   2.893  0.4999 -0.2801  0.2316
  846MOL0     O14111   5.613   2.834   2.900 -0.7824 -0.0900 -0.2873
  846MOL0     C14112   5.479   2.874   2.850 -1.5213 -0.1239  0.1406
  846MOL0     C14113   5.374   2.776   2.897 -0.0487  0.7401 -1.0420
  846MOL0     C14114   5.322   2.811   3.035  0.1257 -0.2175 -0.2986
  846MOL0     C14115   5.409   2.759   3.143 -0.1152 -0.2105  0.9173
  846MOL0     C14116   5.358   2.793   3.290  0.0032 -0.2764 -0.5716
  846MOL0     C14117   5.220   2.739   3.323  0.5655  0.4607 -0.0174
  846MOL0     C14118   5.182   2.775   3.468  0.7793 -0.0371 -0.5754
  846MOL0     C14119   5.067   2.702   3.538  0.2579  0.2145 -0.0553
  846MOL0    Cl14120   5.060   2.771   3.699 -0.5156  0.2357 -0.5730
  846MOL0     C14121   5.845   2.876   2.881 -0.7955 -0.0555 -0.4132
  846MOL0     C14122   5.956   2.966   2.882  0.6456  0.1035  0.8293
  846MOL0     O14123   6.092   3.163   2.675  0.4698  0.2601 -0.4451
  846MOL0     C14124   6.323   3.305   2.694  0.2831  1.1014 -0.6287
  846MOL0     C14125   6.432   3.390   2.687  0.1050  0.0529 -0.0696
  846MOL0     N14126   6.664   3.924   2.354  0.2274 -0.8094 -0.1433
  846MOL0     N14127   6.624   4.048   2.379 -0.2982 -0.4360 -0.5657
  846MOL0     C14128   6.135   3.608   3.290 -0.3814 -0.5247  0.2465
  846MOL0     C14129   6.052   3.513   3.343  0.2413  0.8450  0.4908
  846MOL0     C14130   5.736   3.217   3.413  1.4525  0.0917 -0.4865
  846MOL0     C14131   5.713   3.080   3.380 -0.7743 -0.3648 -0.3679
  846MOL0     C14132   5.614   3.002   3.447 -0.6657 -0.0693 -0.4769
  846MOL0     C14133   5.518   3.066   3.537  0.3039  0.3441 -1.1443
  846MOL0     O14134   5.434   2.984   3.607 -0.4389  0.4747 -0.6359
  846MOL0     C14135   5.342   3.051   3.692  0.5362 -0.3445 -0.1725
  846MOL0     C14136   5.226   3.120   3.617  0.2615  0.0625  0.3465
  846MOL0     C14137   5.136   3.196   3.711 -0.4402  0.6596  0.0617
  846MOL0     C14138   5.005   3.246   3.646 -0.4392  0.4423  0.3026
  846MOL0     C14139   4.913   3.136   3.629  0.1125 -0.7496 -0.9744
  846MOL0     C14140   4.829   3.045   3.625 -0.6029  0.2308 -0.1242
  846MOL0     C14141   5.549   3.206   3.569 -0.1006  0.0683 -0.2347
  846MOL0     C14142   5.663   3.271   3.518  0.1437 -0.8757 -0.5083
  846MOL0     H14143   5.754   3.669   3.284 -0.8455 -1.1963 -0.8859
  846MOL0     H14144   5.928   3.853   3.202  1.5269 -0.0121 -0.9880
  846MOL0     H14145   6.166   3.818   3.019 -1.1951  0.2447  0.5192
  846MOL0     H14146   6.144   3.986   3.099  3.5824  2.2972  1.1485
  846MOL0     H14147   6.361   4.025   3.132  0.2151  0.2213 -0.6929
  846MOL0     H14148   6.414   3.869   3.140  0.3814  1.4096 -0.8629
  846MOL0     H14149   6.505   3.954   2.943  0.4762  1.6344 -2.3712
  846MOL0     H14150   6.368   3.860   2.874 -1.9817  0.0948  1.0420
  846MOL0     H14151   6.233   4.085   2.928  1.5509  3.0906  1.8327
  846MOL0     H14152   6.380   4.157   2.904  3.1949 -0.0843 -4.6099
  846MOL0     H14153   6.269   3.943   2.710 -0.9155  0.6496  1.0348
  846MOL0     H14154   6.268   4.127   2.699 -1.2561  0.4101  1.5803
  846MOL0     H14155   6.503   3.947   2.707  1.6196  0.2046 -0.7796
  846MOL0     H14156   6.451   4.023   2.563  0.5148 -0.8424  0.8224
  846MOL0     H14157   6.511   4.245   2.744  1.7567 -0.6170  3.6173
  846MOL0     H14158   6.619   4.111   2.770  1.4601 -1.0385 -1.6822
  846MOL0     H14159   6.720   4.266   2.590 -0.8579  0.7862  0.8396
  846MOL0     H14160   6.556   4.269   2.517 -1.1100 -2.4814  0.5858
  846MOL0     H14161   6.809   4.011   2.646 -1.7632  0.4681  0.5338
  846MOL0     H14162   6.896   3.750   2.412 -0.1225 -1.7311  0.2376
  846MOL0     H14163   6.863   3.753   2.571  1.4988  2.3798 -0.4925
  846MOL0     H14164   6.787   3.545   2.455  0.8017 -0.2874 -1.1271
  846MOL0     H14165   6.704   3.654   2.351 -0.9312  1.1056 -0.1695
  846MOL0     H14166   6.538   3.558   2.492  2.2038 -1.7364 -0.7172
  846MOL0     H14167   6.562   3.722   2.559 -0.5287  0.5749 -2.0819
  846MOL0     H14168   6.730   3.635   2.733 -0.2928 -0.6860  3.0489
  846MOL0     H14169   6.697   3.479   2.690  2.8897  0.9286 -0.7257
  846MOL0     H14170   6.330   3.614   2.926  0.4362 -0.5623  0.4588
  846MOL0     H14171   6.148   3.448   3.059 -1.0537  3.8246  1.2861
  846MOL0     H14172   6.103   3.586   2.973  0.3106 -1.0701 -0.6250
  846MOL0     H14173   6.004   3.451   2.934 -0.8764  0.8812 -0.7594
  846MOL0     H14174   5.803   3.256   2.934 -4.3169 -1.2725  0.6797
  846MOL0     H14175   5.594   3.102   2.912 -0.8410  1.0665 -2.6923
  846MOL0     H14176   5.451   2.980   2.851 -1.4033 -0.0201 -2.2151
  846MOL0     H14177   5.484   2.855   2.742  0.1211  0.8583  0.0097
  846MOL0     H14178   5.288   2.776   2.830 -0.6617  0.1153 -0.2786
  846MOL0     H14179   5.418   2.676   2.900  0.2048  0.8654  0.2989
  846MOL0     H14180   5.220   2.772   3.043 -1.5294  3.6104 -0.6124
  846MOL0     H14181   5.310   2.920   3.038 -0.0145 -0.2483  0.4312
  846MOL0     H14182   5.420   2.651   3.129 -0.6120 -0.2146  0.5062
  846MOL0     H14183   5.511   2.797   3.136 -0.6880  1.1106 -2.3288
  846MOL0     H14184   5.365   2.899   3.317  1.3285 -0.1627 -1.2496
  846MOL0     H14185   5.423   2.743   3.362 -0.4580  0.6146  0.4801
  846MOL0     H14186   5.152   2.783   3.250  1.6421  0.2283 -1.1835
  846MOL0     H14187   5.233   2.631   3.315 -2.1074  0.0615  0.0378
  846MOL0     H14188   5.159   2.881   3.455 -4.1991 -0.8976 -0.7569
  846MOL0     H14189   5.272   2.749   3.524  0.6160 -0.4894 -0.5110
  846MOL0     H14190   5.106   2.600   3.551  0.4383  0.1517 -0.9835
  846MOL0     H14191   4.971   2.704   3.485  0.5182  1.8230 -0.5125
  846MOL0     H14192   5.871   2.776   2.847 -0.3845  0.2431 -0.9990
  846MOL0     H14193   6.057   2.931   2.860  0.2901 -1.2574  1.2505
  846MOL0     H14194   6.337   3.211   2.643  0.5456  0.4100  0.6633
  846MOL0     H14195   6.511   3.380   2.612 -0.0369  1.3834 -0.4301
  846MOL0     H14196   6.243   3.597   3.286 -0.2712  0.6337 -0.9437
  846MOL0     H14197   6.090   3.421   3.387  2.5243  0.8276 -1.3073
  846MOL0     H14198   5.769   3.027   3.304 -2.5261 -0.9612 -1.3030
  846MOL0     H14199   5.604   2.895   3.429  1.1315 -0.8064  2.2964
  846MOL0     H14200   5.282   2.983   3.752 -0.4341 -0.6153 -1.4047
  846MOL0     H14201   5.394   3.126   3.752 -1.1840  1.8612 -1.3112
  846MOL0     H14202   5.158   3.049   3.569 -1.4055  3.3725 -2.6487
  846MOL0     H14203   5.267   3.190   3.544 -0.4659 -1.5341 -1.6873
  846MOL0     H14204   5.190   3.286   3.744  2.6175  0.2154 -3.1649
  846MOL0     H14205   5.114   3.139   3.802 -0.3766  1.6052  0.6980
  846MOL0     H14206   5.038   3.294   3.553 -0.2823 -0.4258 -0.1048
  846MOL0     H14207   4.965   3.321   3.714  1.5277  2.8600 -1.0243
  846MOL0     H14208   4.754   2.975   3.594 -0.1283 -0.4086  0.1452
  846MOL0     H14209   5.480   3.254   3.637  1.8809  3.6766 -0.4803
  846MOL0     H14210   5.676   3.370   3.560 -1.0796 -0.6327 -0.6661
  847MOL0     O14211   3.384   7.056   7.923  0.2035  0.5562  0.4039
  847MOL0     C14212   3.299   7.138   7.893  0.2231 -0.0148  0.0030
  847MOL0     O14213   3.225   7.209   7.987  0.0187  0.4664 -0.1649
  847MOL0     C14214   3.251   7.176   8.128  0.4857 -0.7851 -0.6187
  847MOL0     C14215   3.142   7.132   8.202  0.3817 -0.5361 -0.0807
  847MOL0     C14216   3.165   7.106   8.342 -0.6895  0.2791  0.6013
  847MOL0     C14217   3.296   7.127   8.407 -0.0467 -0.4175  0.3100
  847MOL0     O14218   3.291   7.105   8.548 -0.4467  0.0087  0.3791
  847MOL0     C14219   3.398   7.176   8.616  1.0122 -0.3681 -1.3812
  847MOL0     C14220   3.386   7.165   8.771 -0.0019  0.3114  1.1056
  847MOL0     C14221   3.406   7.026   8.839  0.2993 -0.3908  0.1501
  847MOL0     C14222   3.380   7.034   8.989 -0.4413  0.6646 -1.2848
  847MOL0     C14223   3.391   6.899   9.054 -0.1886 -0.4750  0.2531
  847MOL0     C14224   3.367   6.919   9.202 -0.1410  0.2065 -0.4983
  847MOL0     C14225   3.225   6.872   9.229  0.2981 -0.0630 -0.6046
  847MOL0     C14226   3.184   6.885   9.379  1.0805 -0.3865 -0.1243
  847MOL0     N14227   3.255   6.810   9.485 -0.4675 -0.4704  1.0326
  847MOL0     C14228   3.253   6.671   9.516  0.0767  1.1160  0.6602
  847MOL0     C14229   3.358   6.650   9.602  0.5915 -0.3397 -0.7160
  847MOL0     C14230   3.390   6.531   9.687  0.3769 -0.4004 -0.0908
  847MOL0     C14231   3.334   6.546   9.828 -0.5946  0.1733  0.5142
  847MOL0     C14232   3.385   6.424   9.913 -0.1517 -0.3806 -0.2183
  847MOL0     C14233   3.351   6.458  10.067 -0.0800  0.3591  0.8456
  847MOL0     O14234   3.359   6.331  10.134 -0.2294  0.3339 -0.1792
  847MOL0     C14235   3.310   6.326  10.258 -0.7847  0.8964  0.0354
  847MOL0     C14236   3.371   6.385  10.362 -0.6884 -0.6965 -0.5514
  847MOL0     C14237   3.336   6.367  10.499  0.1026 -0.6175 -0.2151
  847MOL0     C14238   3.418   6.431  10.605  0.1731  0.4321 -0.5326
  847MOL0     C14239   3.211   6.298  10.518  0.1261 -0.4396  0.1431
  847MOL0     C14240   3.167   6.260  10.653  0.4650  0.4218 -0.4918
  847MOL0     O14241   3.029   6.253  10.669 -0.2023 -0.4355 -0.1773
  847MOL0     C14242   2.984   6.150  10.752 -0.2992  0.4957  0.6252
  847MOL0     C14243   2.993   6.015  10.708  0.6391 -0.0622 -0.4775
  847MOL0     C14244   2.927   5.913  10.780 -0.7245 -0.0586 -0.1378
  847MOL0     C14245   2.864   5.944  10.903 -0.5941  0.0716  0.1300
  847MOL0     O14246   2.789   5.847  10.977 -0.5356 -0.4319  0.0568
  847MOL0     C14247   2.730   5.743  10.898  0.4151 -0.5082 -0.2307
  847MOL0     C14248   2.668   5.634  10.982  0.3572 -0.0718  0.2155
  847MOL0     C14249   2.539   5.710  11.031 -0.8093  0.3278  1.1164
  847MOL0     C14250   2.443   5.607  11.090  0.2221 -0.9626 -0.1904
  847MOL0     C14251   2.310   5.678  11.108  0.2873 -0.3183 -0.6561
  847MOL0     C14252   2.216   5.587  11.185  0.3014 -1.1346  0.8622
  847MOL0     C14253   2.254   5.555  11.332 -0.2158 -1.4050  0.5761
  847MOL0     C14254   2.188   5.427  11.382  1.2322 -0.2927 -1.1976
  847MOL0    Cl14255   2.014   5.431  11.401 -0.1526 -0.2437  0.2186
  847MOL0     C14256   2.863   6.073  10.943  0.5177  0.3494  0.2076
  847MOL0     C14257   2.917   6.176  10.867  0.5019  0.3644  0.1639
  847MOL0     O14258   3.252   6.212  10.724 -0.2031  0.6445  0.4277
  847MOL0     C14259   3.142   6.246  10.408 -0.2972  0.6239 -0.5115
  847MOL0     C14260   3.191   6.259  10.284 -0.3404  0.3985  0.2328
  847MOL0     N14261   3.430   6.765   9.618  1.1826 -0.1114 -0.1216
  847MOL0     N14262   3.354   6.859   9.554 -0.1640  0.2083 -0.6473
  847MOL0     C14263   3.402   7.164   8.327  0.9538 -0.2401  0.8308
  847MOL0     C14264   3.382   7.194   8.194  0.3971 -0.1349 -0.1553
  847MOL0     C14265   3.287   7.154   7.747  1.1537  0.6641 -0.0511
  847MOL0     C14266   3.186   7.242   7.695 -0.1286 -0.4734 -0.6700
  847MOL0     C14267   3.145   7.226   7.563 -0.9679  0.4164 -0.4350
  847MOL0     C14268   3.212   7.135   7.470 -0.1799 -1.3461 -0.1128
  847MOL0     O14269   3.190   7.121   7.340 -0.1048  0.1574  0.0087
  847MOL0     C14270   3.096   7.215   7.285  0.7192 -0.1764  0.3234
  847MOL0     C14271   2.963   7.159   7.245  0.2229 -1.6552 -0.2763
  847MOL0     C14272   2.897   7.235   7.131  0.7612 -0.1179 -0.2636
  847MOL0     C14273   2.760   7.178   7.096 -0.4964 -0.0619  0.0658
  847MOL0     C14274   2.696   7.278   6.998 -0.6775  0.5288 -0.0199
  847MOL0     C14275   2.659   7.353   6.911 -0.1254  0.3401 -0.2211
  847MOL0     C14276   3.314   7.062   7.520 -1.0743  0.0981  0.2725
  847MOL0     C14277   3.347   7.058   7.656 -0.0304  0.3060 -0.0758
  847MOL0     H14278   3.046   7.108   8.157  0.7332 -3.0028  0.3813
  847MOL0     H14279   3.080   7.069   8.399 -0.8439  1.1794  0.9733
  847MOL0     H14280   3.493   7.141   8.576  0.3923 -1.5070 -1.9216
  847MOL0     H14281   3.391   7.282   8.591 -0.6292 -0.0540  0.2243
  847MOL0     H14282   3.466   7.224   8.817  1.5106 -1.5723  1.0391
  847MOL0     H14283   3.288   7.204   8.800  0.0069  1.3365 -0.1733
  847MOL0     H14284   3.332   6.966   8.785 -0.1797 -0.8120  1.2602
  847MOL0     H14285   3.500   6.981   8.807  0.9643  1.9127 -1.3997
  847MOL0     H14286   3.461   7.095   9.030 -0.1109 -0.8112  0.3592
  847MOL0     H14287   3.284   7.083   9.014  0.0153  0.5633  0.9138
  847MOL0     H14288   3.329   6.819   9.012 -0.9011 -0.3248  1.0047
  847MOL0     H14289   3.493   6.859   9.044 -0.3009 -0.9922  1.0402
  847MOL0     H14290   3.439   6.874   9.270 -0.8856 -3.6339 -2.0364
  847MOL0     H14291   3.389   7.025   9.222  2.6479 -0.6958  1.9186
  847MOL0     H14292   3.148   6.896   9.155 -0.1497  0.2957 -0.0260
  847MOL0     H14293   3.224   6.763   9.218  0.9428 -0.0466 -0.8669
  847MOL0     H14294   3.078   6.860   9.391  1.5739 -2.0619  1.1995
  847MOL0     H14295   3.186   6.990   9.407  2.4578 -0.7310  1.2110
  847MOL0     H14296   3.177   6.600   9.485  2.0367 -0.7669 -0.1118
  847MOL0     H14297   3.356   6.440   9.638 -0.7697 -0.4173  0.6994
  847MOL0     H14298   3.499   6.536   9.698  0.3872  1.8802 -0.7057
  847MOL0     H14299   3.227   6.566   9.840 -0.9625 -1.7359  0.8370
  847MOL0     H14300   3.389   6.634   9.863 -1.9182  0.7705  1.1628
  847MOL0     H14301   3.493   6.412   9.911  0.0936  0.7101  2.2375
  847MOL0     H14302   3.328   6.338   9.877 -0.0365 -1.9508  2.9570
  847MOL0     H14303   3.249   6.496  10.076 -1.7103 -2.2510 -3.6001
  847MOL0     H14304   3.420   6.536  10.098 -0.0558  1.1273 -0.9987
  847MOL0     H14305   3.460   6.442  10.339 -0.5068  0.9106  3.3027
  847MOL0     H14306   3.354   6.466  10.686 -0.6891  0.2003 -1.0942
  847MOL0     H14307   3.485   6.360  10.654 -4.0952 -2.9612  1.0266
  847MOL0     H14308   3.471   6.513  10.556 -0.1375  1.5309  0.8978
  847MOL0     H14309   3.047   5.989  10.618  1.8264  0.7512 -0.0212
  847MOL0     H14310   2.936   5.812  10.743 -0.7049  0.1699 -0.7564
  847MOL0     H14311   2.652   5.782  10.831 -0.0136  1.2967  1.2424
  847MOL0     H14312   2.807   5.701  10.833  0.5248 -1.3414  0.4252
  847MOL0     H14313   2.643   5.554  10.912  1.2437  1.5700 -2.1032
  847MOL0     H14314   2.735   5.598  11.060  1.3406 -1.2612 -1.1341
  847MOL0     H14315   2.479   5.757  10.953 -3.4264 -2.2031  1.4149
  847MOL0     H14316   2.566   5.779  11.111  1.5189  1.9095 -0.8922
  847MOL0     H14317   2.431   5.521  11.024 -3.0237 -0.5256 -0.3337
  847MOL0     H14318   2.483   5.579  11.188 -0.6695  2.9442  1.4914
  847MOL0     H14319   2.260   5.700  11.014 -2.6170 -0.4111  0.7554
  847MOL0     H14320   2.319   5.767  11.171  0.7199  0.1715 -1.3983
  847MOL0     H14321   2.119   5.637  11.188  0.3279 -1.1010  1.1649
  847MOL0     H14322   2.208   5.502  11.117  0.6772  2.5404 -4.3691
  847MOL0     H14323   2.224   5.640  11.394 -0.3962  0.2177 -1.6094
  847MOL0     H14324   2.361   5.537  11.347  0.0226  0.5790  1.6672
  847MOL0     H14325   2.236   5.395  11.475  0.6909  0.7030 -0.5613
  847MOL0     H14326   2.215   5.351  11.308  2.7765  2.8592 -4.1753
  847MOL0     H14327   2.815   6.103  11.036 -3.0577 -2.1605 -0.6611
  847MOL0     H14328   2.899   6.281  10.888  1.7105  0.4152  1.0245
  847MOL0     H14329   3.047   6.194  10.418  2.0477 -3.7156  2.8612
  847MOL0     H14330   3.138   6.211  10.201 -1.6397  1.1361  0.6016
  847MOL0     H14331   3.498   7.197   8.367  2.7336 -3.0488 -0.7545
  847MOL0     H14332   3.471   7.224   8.139  2.1094  2.3656  3.5576
  847MOL0     H14333   3.127   7.305   7.761 -1.2557 -1.0696 -1.0752
  847MOL0     H14334   3.052   7.273   7.534 -0.9479  0.2006 -0.8725
  847MOL0     H14335   3.067   7.301   7.347 -0.4516 -0.3939  0.0887
  847MOL0     H14336   3.141   7.261   7.197  3.7246  2.3101  2.8780
  847MOL0     H14337   2.895   7.146   7.330  0.8585  2.8880  1.1980
  847MOL0     H14338   2.986   7.057   7.215  0.9938 -2.3813  2.4794
  847MOL0     H14339   2.958   7.241   7.040  0.3980 -0.2132 -0.5165
  847MOL0     H14340   2.887   7.340   7.162 -2.4637 -0.3012 -0.3329
  847MOL0     H14341   2.694   7.173   7.183 -0.1238  1.9656  0.5108
  847MOL0     H14342   2.770   7.079   7.051  0.4901 -0.3686  0.9257
  847MOL0     H14343   2.620   7.409   6.829  0.2207  2.3742  0.9559
  847MOL0     H14344   3.367   7.008   7.442 -2.1232  2.7672 -2.4955
  847MOL0     H14345   3.416   6.982   7.693 -1.8813 -2.7130 -2.3129
  848MOL0     O14346   0.498  11.365   1.030 -0.3040 -0.2361 -0.2087
  848MOL0     C14347   0.397  11.341   1.091 -0.2089  0.0426 -0.7521
  848MOL0     O14348   0.316  11.236   1.072  0.2836 -0.1195  0.4455
  848MOL0     C14349   0.366  11.129   1.001 -0.0268  0.1769  1.0557
  848MOL0     C14350   0.320  11.090   0.869 -0.1740 -0.0036 -0.7250
  848MOL0     C14351   0.385  10.980   0.801 -0.3250  0.3566 -0.2859
  848MOL0     C14352   0.490  10.916   0.858 -0.3147 -0.2535  0.2519
  848MOL0     O14353   0.542  10.825   0.771  0.3338 -0.2150 -0.3130
  848MOL0     C14354   0.640  10.738   0.834  0.3044  0.1864  0.9231
  848MOL0     C14355   0.788  10.771   0.795 -0.2775 -0.0770  1.0206
  848MOL0     C14356   0.812  10.750   0.646  0.7547 -0.2311  0.1685
  848MOL0     C14357   0.960  10.768   0.611 -0.3263 -0.2516  0.3670
  848MOL0     C14358   0.988  10.720   0.467  0.3607 -0.8464 -0.3478
  848MOL0     C14359   1.138  10.736   0.434  0.5281 -0.0449  0.4069
  848MOL0     C14360   1.159  10.742   0.280 -0.0862  0.4176 -0.1516
  848MOL0     C14361   1.304  10.725   0.239  1.0621 -0.6912 -0.3194
  848MOL0     N14362   1.320  10.724   0.096  0.5979 -0.8449 -0.0970
  848MOL0     C14363   1.405  10.643   0.029  0.1127  0.5454  0.4356
  848MOL0     C14364   1.392  10.685  -0.096  0.0914 -0.7166 -0.1363
  848MOL0     C14365   1.466  10.630  -0.216  0.2247  0.2463 -0.4975
  848MOL0     C14366   1.410  10.495  -0.258 -0.1294  0.0602 -0.0590
  848MOL0     C14367   1.462  10.450  -0.393  0.0330 -0.2982  0.1743
  848MOL0     C14368   1.352  10.486  -0.497  0.7952  0.2847 -1.0572
  848MOL0     O14369   1.400  10.433  -0.620 -0.1246 -0.1694 -0.5214
  848MOL0     C14370   1.332  10.480  -0.731 -0.0606  0.4412 -0.0255
  848MOL0     C14371   1.380  10.429  -0.847  0.4849 -0.6278 -0.4055
  848MOL0     C14372   1.326  10.471  -0.971 -0.6380  0.3708 -1.1603
  848MOL0     C14373   1.393  10.410  -1.082 -0.4289  0.0474  0.7998
  848MOL0     C14374   1.230  10.579  -0.978  0.0270 -0.2500  1.2281
  848MOL0     C14375   1.166  10.616  -1.108 -0.2601 -0.1249 -0.4041
  848MOL0     O14376   1.135  10.519  -1.192 -1.0867 -0.0254  0.3267
  848MOL0     C14377   1.070  10.545  -1.306  0.8735  0.4884  0.0216
  848MOL0     C14378   1.143  10.547  -1.418  0.1425 -0.1386  0.6129
  848MOL0     C14379   1.079  10.588  -1.538 -0.0018 -0.3099  0.1811
  848MOL0     C14380   0.944  10.611  -1.549 -0.3490 -0.1125  0.9629
  848MOL0     O14381   0.898  10.646  -1.676 -0.4000 -0.2654  0.1878
  848MOL0     C14382   0.772  10.700  -1.709 -0.1474 -0.5738 -0.3035
  848MOL0     C14383   0.724  10.689  -1.856  0.4333  0.8023  0.3464
  848MOL0     C14384   0.802  10.778  -1.951  0.0286 -0.2120 -0.0612
  848MOL0     C14385   0.741  10.778  -2.093 -0.3215  0.9522  0.5431
  848MOL0     C14386   0.842  10.835  -2.196 -0.2391  1.5009 -0.4715
  848MOL0     C14387   0.768  10.842  -2.337  0.7944  0.3212  0.6461
  848MOL0     C14388   0.786  10.717  -2.433  0.2882  0.4157  0.1477
  848MOL0     C14389   0.778  10.745  -2.586 -1.1868  0.5291 -0.3430
  848MOL0    Cl14390   0.622  10.823  -2.632  0.3088 -0.4075  0.3122
  848MOL0     C14391   0.874  10.619  -1.434 -0.9901  0.3548 -0.3202
  848MOL0     C14392   0.930  10.578  -1.310  1.0072  0.5263  0.0103
  848MOL0     O14393   1.144  10.734  -1.121 -0.2408  0.1629 -0.2832
  848MOL0     C14394   1.203  10.633  -0.851  0.0136 -0.0620  0.2183
  848MOL0     C14395   1.244  10.582  -0.732 -0.2490  0.1693 -0.1242
  848MOL0     N14396   1.283  10.785  -0.100 -0.2645 -0.3390  0.7591
  848MOL0     N14397   1.234  10.791   0.015 -1.0759  0.5436 -0.3846
  848MOL0     C14398   0.532  10.945   0.990  0.1381 -0.2724  0.4966
  848MOL0     C14399   0.471  11.052   1.063 -0.1224  0.0035 -0.6885
  848MOL0     C14400   0.356  11.446   1.192 -0.3138 -0.9500 -0.0072
  848MOL0     C14401   0.222  11.456   1.219  0.4415  0.0408  0.9504
  848MOL0     C14402   0.165  11.556   1.289 -1.0429  0.4448 -0.5378
  848MOL0     C14403   0.249  11.661   1.338 -0.7730  1.2245 -0.2771
  848MOL0     O14404   0.214  11.754   1.437  0.1968 -0.0752  0.3200
  848MOL0     C14405   0.082  11.748   1.489 -0.5455  0.0770  0.0880
  848MOL0     C14406   0.094  11.828   1.618 -0.4385  0.0959 -0.4445
  848MOL0     C14407   0.113  11.979   1.600 -0.6709 -0.1048 -1.0758
  848MOL0     C14408   0.106  12.059   1.736  0.4188  1.1450 -0.1912
  848MOL0     C14409  -0.033  12.066   1.792  0.3516  0.4096  0.5346
  848MOL0     C14410  -0.144  12.063   1.849 -0.8058 -0.0027  0.4532
  848MOL0     C14411   0.388  11.655   1.309  0.5365 -0.8888  0.6193
  848MOL0     C14412   0.443  11.551   1.239  0.6798  0.2919  0.0449
  848MOL0     H14413   0.229  11.135   0.834 -1.0660 -1.3515 -0.2364
  848MOL0     H14414   0.354  10.952   0.701 -0.6044  0.8024 -0.3278
  848MOL0     H14415   0.639  10.734   0.943 -1.9748 -1.8356  0.9007
  848MOL0     H14416   0.618  10.634   0.809  0.7973  0.7428 -2.3185
  848MOL0     H14417   0.803  10.877   0.821  1.5085 -0.4857  1.8652
  848MOL0     H14418   0.859  10.707   0.849  1.1951 -0.0061 -0.7482
  848MOL0     H14419   0.789  10.648   0.614 -1.1937  0.1456  0.2778
  848MOL0     H14420   0.762  10.822   0.582  0.7280  0.3347  0.8136
  848MOL0     H14421   0.977  10.875   0.618 -0.9149  0.1235 -2.6298
  848MOL0     H14422   1.035  10.718   0.673  3.0644  3.0241 -0.7471
  848MOL0     H14423   0.965  10.615   0.446 -0.1414 -0.4893 -1.6993
  848MOL0     H14424   0.928  10.785   0.403 -1.0362 -1.0919  0.6754
  848MOL0     H14425   1.180  10.827   0.478 -3.0547  1.5420  0.8870
  848MOL0     H14426   1.191  10.653   0.482  0.8750 -1.1289 -1.7587
  848MOL0     H14427   1.098  10.666   0.230 -1.5345  3.2535 -3.0891
  848MOL0     H14428   1.129  10.838   0.238  1.8566  0.4216 -1.6848
  848MOL0     H14429   1.345  10.630   0.275  0.9764 -0.5636  0.1176
  848MOL0     H14430   1.378  10.793   0.282  2.7630 -2.0524 -0.9840
  848MOL0     H14431   1.469  10.569   0.077  1.8824  1.6473 -0.1256
  848MOL0     H14432   1.457  10.702  -0.298 -0.7855 -1.2395 -1.7476
  848MOL0     H14433   1.564  10.610  -0.172 -1.7665 -2.2509  3.3238
  848MOL0     H14434   1.302  10.509  -0.264 -0.5302 -1.2145  2.7827
  848MOL0     H14435   1.423  10.416  -0.184 -0.5758  0.7097  0.7345
  848MOL0     H14436   1.476  10.342  -0.394  1.9061 -0.0867  0.6216
  848MOL0     H14437   1.556  10.498  -0.423 -0.0660 -0.5255 -0.5041
  848MOL0     H14438   1.340  10.595  -0.498  1.5316  0.4116  0.6630
  848MOL0     H14439   1.261  10.428  -0.478  1.7335 -1.0863 -0.6565
  848MOL0     H14440   1.446  10.343  -0.850 -0.1789 -1.1274 -2.1969
  848MOL0     H14441   1.321  10.348  -1.137  1.0999 -0.6294 -0.5639
  848MOL0     H14442   1.436  10.492  -1.140 -2.2134  0.4060 -0.0955
  848MOL0     H14443   1.467  10.335  -1.051  0.5533 -0.5734 -2.6031
  848MOL0     H14444   1.250  10.533  -1.417  0.3233 -0.0332 -3.1443
  848MOL0     H14445   1.144  10.615  -1.621  0.3641  0.8966  0.8248
  848MOL0     H14446   0.697  10.640  -1.657 -0.6735  0.5929  0.3207
  848MOL0     H14447   0.762  10.805  -1.680  1.3439 -0.2891 -0.7242
  848MOL0     H14448   0.729  10.585  -1.890  1.1261  1.0504 -0.3366
  848MOL0     H14449   0.618  10.716  -1.866  0.0145 -1.4621 -2.4521
  848MOL0     H14450   0.905  10.742  -1.954  0.0200 -0.2334 -0.1242
  848MOL0     H14451   0.815  10.881  -1.916 -0.6890 -0.3469  0.6343
  848MOL0     H14452   0.714  10.679  -2.129  0.8363  2.1269 -4.2693
  848MOL0     H14453   0.648  10.836  -2.089 -1.0451 -0.2125  0.9661
  848MOL0     H14454   0.912  10.752  -2.194  0.7048  2.2799 -0.6202
  848MOL0     H14455   0.902  10.922  -2.168  3.8550 -0.6544 -1.8519
  848MOL0     H14456   0.664  10.870  -2.320  1.0371  0.8676  1.2228
  848MOL0     H14457   0.816  10.925  -2.390  1.2021 -0.1785  0.2189
  848MOL0     H14458   0.711  10.645  -2.401  0.6700  1.4475  3.7882
  848MOL0     H14459   0.887  10.675  -2.421  0.6998  2.2031  4.7384
  848MOL0     H14460   0.784  10.651  -2.641 -3.8554 -0.9915  1.6960
  848MOL0     H14461   0.866  10.809  -2.597  0.0938 -0.8387  1.2434
  848MOL0     H14462   0.767  10.640  -1.430 -1.4172 -1.4614 -0.7906
  848MOL0     H14463   0.871  10.570  -1.219 -0.7444 -3.0092 -1.2188
  848MOL0     H14464   1.142  10.722  -0.865  1.4416  0.7523 -1.0574
  848MOL0     H14465   1.205  10.637  -0.648 -0.7279 -2.3447  1.4164
  848MOL0     H14466   0.624  10.905   1.032  0.1969  0.8007  1.4506
  848MOL0     H14467   0.502  11.077   1.164 -0.2534  0.5928 -0.7911
  848MOL0     H14468   0.150  11.381   1.191  2.0041 -0.8406 -0.9072
  848MOL0     H14469   0.059  11.540   1.304 -1.1853  0.6070 -1.3050
  848MOL0     H14470  -0.001  11.791   1.433 -1.3230  1.9401  2.4655
  848MOL0     H14471   0.052  11.645   1.506 -2.2887  0.7518  1.3817
  848MOL0     H14472   0.165  11.779   1.685  1.2917 -0.9392 -2.9088
  848MOL0     H14473  -0.003  11.807   1.666 -0.2971  1.8362  0.6837
  848MOL0     H14474   0.030  12.017   1.542 -1.5512 -1.3369 -0.6615
  848MOL0     H14475   0.212  11.998   1.558  0.4530 -1.3750  0.7947
  848MOL0     H14476   0.139  12.163   1.727 -0.1692  1.7491  3.2122
  848MOL0     H14477   0.179  12.020   1.808  0.9799  1.7882 -0.4103
  848MOL0     H14478  -0.238  12.060   1.900 -0.4157  0.4912  1.2274
  848MOL0     H14479   0.455  11.729   1.352  0.6306 -0.8964  0.4893
  848MOL0     H14480   0.546  11.560   1.204 -0.1373 -1.7282 -3.3995
  849MOL0     O14481   0.130   4.320  11.133 -0.1836 -0.1843 -0.5493
  849MOL0     C14482   0.207   4.280  11.221 -0.5135  0.0592 -0.5585
  849MOL0     O14483   0.343   4.284  11.215 -0.0914  0.2101  0.0143
  849MOL0     C14484   0.419   4.337  11.109 -0.0732 -0.0683  0.2226
  849MOL0     C14485   0.511   4.445  11.139 -0.3884 -0.3549  0.6517
  849MOL0     C14486   0.592   4.511  11.038 -0.0504  0.0257 -0.5333
  849MOL0     C14487   0.569   4.480  10.901 -0.6118 -0.2091  0.1423
  849MOL0     O14488   0.641   4.544  10.803 -0.0015  0.1016  0.1444
  849MOL0     C14489   0.645   4.488  10.670 -0.1956  0.5711 -1.0272
  849MOL0     C14490   0.764   4.574  10.613 -0.6053  0.4009  0.2662
  849MOL0     C14491   0.793   4.527  10.478 -0.6869  1.3826 -0.1297
  849MOL0     C14492   0.681   4.546  10.380  0.5428 -0.2548 -0.5441
  849MOL0     C14493   0.710   4.505  10.234 -0.0390 -0.7159  0.1662
  849MOL0     C14494   0.582   4.496  10.157  0.4804  0.1756 -0.0691
  849MOL0     C14495   0.606   4.473  10.012  0.6945 -0.0273 -0.6139
  849MOL0     C14496   0.480   4.421   9.939  0.4594  0.4425  0.0651
  849MOL0     N14497   0.376   4.521   9.958  0.0489 -0.3614  0.3998
  849MOL0     C14498   0.382   4.657   9.928 -0.4247  0.2216  1.2000
  849MOL0     C14499   0.258   4.702   9.957  0.3034 -0.6569 -0.1401
  849MOL0     C14500   0.224   4.843   9.968 -0.2612 -0.0896 -0.6177
  849MOL0     C14501   0.231   4.891  10.112 -0.2707  0.1405 -0.0728
  849MOL0     C14502   0.362   4.881  10.186 -0.3994 -0.6093  0.3296
  849MOL0     C14503   0.356   4.881  10.339 -0.2116  0.0658  0.9308
  849MOL0     O14504   0.253   4.973  10.369  0.3253  0.2206 -0.1280
  849MOL0     C14505   0.209   4.991  10.498  0.7364 -0.5847 -0.2816
  849MOL0     C14506   0.210   4.895  10.598 -0.4040  0.5696  0.2327
  849MOL0     C14507   0.171   4.914  10.733  1.4551  0.4792  0.5304
  849MOL0     C14508   0.191   4.801  10.829 -0.0018 -0.0270 -0.2013
  849MOL0     C14509   0.117   5.043  10.764  0.1206  0.6436 -0.2330
  849MOL0     C14510   0.076   5.075  10.900 -0.4641  0.1092  0.0519
  849MOL0     O14511   0.019   4.980  10.977  0.1173  0.2411  0.1833
  849MOL0     C14512  -0.052   5.006  11.080  0.2775 -0.0974 -0.3131
  849MOL0     C14513   0.004   5.077  11.184  0.6976 -0.1447  0.6563
  849MOL0     C14514  -0.062   5.082  11.301 -0.6389 -0.0657 -0.0748
  849MOL0     C14515  -0.184   5.015  11.319 -0.1266  0.4934 -0.4689
  849MOL0     O14516  -0.261   5.006  11.436  0.6872 -0.4609 -0.5704
  849MOL0     C14517  -0.195   5.071  11.546 -0.0751  0.6227 -0.4263
  849MOL0     C14518  -0.275   5.041  11.672  0.1291  0.2054  0.0903
  849MOL0     C14519  -0.205   5.107  11.789  0.7732 -0.5356 -1.1146
  849MOL0     C14520  -0.286   5.092  11.921  0.3506 -0.2870  0.3040
  849MOL0     C14521  -0.264   5.201  12.023 -0.3203  0.3928  0.3451
  849MOL0     C14522  -0.108   5.225  12.054  0.9240 -0.5126 -0.4894
  849MOL0     C14523  -0.082   5.361  12.124  0.3702 -0.5146  0.2116
  849MOL0     C14524  -0.091   5.483  12.019 -1.0792 -0.1107 -0.5723
  849MOL0    Cl14525   0.040   5.480  11.897 -0.0229 -0.2424  0.2330
  849MOL0     C14526  -0.239   4.943  11.214 -0.6678  0.3388 -0.5660
  849MOL0     C14527  -0.176   4.939  11.090 -0.1022 -0.3028 -0.1077
  849MOL0     O14528   0.100   5.196  10.928  0.3688 -0.3620 -0.2821
  849MOL0     C14529   0.102   5.138  10.662  0.5821  0.0390 -0.4084
  849MOL0     C14530   0.145   5.109  10.527 -0.0940 -0.3965  0.4978
  849MOL0     N14531   0.184   4.604  10.020 -1.2312 -0.0030  0.3425
  849MOL0     N14532   0.259   4.497  10.024 -0.7525 -1.1273 -0.2457
  849MOL0     C14533   0.471   4.388  10.869 -0.1509  0.7742  0.5944
  849MOL0     C14534   0.413   4.310  10.976  0.2236 -0.2632  0.7276
  849MOL0     C14535   0.142   4.246  11.355  0.5235  0.0806 -0.1118
  849MOL0     C14536   0.012   4.206  11.371  0.6078  0.0335 -1.0352
  849MOL0     C14537  -0.037   4.179  11.504 -0.1389 -0.1604  0.3762
  849MOL0     C14538   0.051   4.201  11.616  1.3424  0.0803 -0.1773
  849MOL0     O14539  -0.006   4.184  11.738  0.1794 -0.8327  1.0048
  849MOL0     C14540  -0.087   4.292  11.784 -1.2670  0.1229 -0.0757
  849MOL0     C14541  -0.207   4.238  11.858  0.0296  0.7835  0.6484
  849MOL0     C14542  -0.174   4.207  11.997  0.0432 -0.5440  0.4782
  849MOL0     C14543  -0.293   4.147  12.068  0.4180  0.1946 -0.3661
  849MOL0     C14544  -0.388   4.248  12.107 -1.2208 -0.1940 -0.6839
  849MOL0     C14545  -0.483   4.329  12.127 -0.8485  0.4618  0.4458
  849MOL0     C14546   0.186   4.241  11.604  0.2652  0.8991  0.3551
  849MOL0     C14547   0.227   4.263  11.469  0.2771 -0.2590 -1.0009
  849MOL0     H14548   0.518   4.492  11.236 -0.7494 -3.3015  2.1972
  849MOL0     H14549   0.660   4.589  11.073  2.1853 -3.0789  2.7379
  849MOL0     H14550   0.664   4.381  10.662 -5.9997 -0.6532 -3.2661
  849MOL0     H14551   0.542   4.510  10.638 -0.1957  0.0498 -1.3971
  849MOL0     H14552   0.741   4.681  10.617 -1.5068  0.2511 -0.5570
  849MOL0     H14553   0.852   4.549  10.673 -1.3010 -4.2648 -0.2935
  849MOL0     H14554   0.870   4.586  10.426 -2.6073  0.7600 -4.0366
  849MOL0     H14555   0.834   4.425  10.475 -1.0009  1.2683 -1.9790
  849MOL0     H14556   0.589   4.493  10.407 -1.4910  2.1480 -2.2028
  849MOL0     H14557   0.645   4.650  10.375  2.5601  0.4808 -0.5727
  849MOL0     H14558   0.770   4.575  10.175  1.5029 -1.4740  0.7629
  849MOL0     H14559   0.763   4.410  10.228 -0.7499 -1.0938 -0.2673
  849MOL0     H14560   0.516   4.419  10.198  0.8429 -0.0896  0.0138
  849MOL0     H14561   0.536   4.593  10.178 -1.5200 -0.6890 -0.2209
  849MOL0     H14562   0.631   4.572   9.973  1.6402  0.0494  0.1382
  849MOL0     H14563   0.687   4.402   9.990 -0.1372 -1.7305  1.5095
  849MOL0     H14564   0.450   4.329   9.988 -0.0698  0.5393 -0.0691
  849MOL0     H14565   0.494   4.394   9.834 -0.3158  0.8712 -0.1602
  849MOL0     H14566   0.476   4.704   9.899  0.6869 -1.3121  2.1267
  849MOL0     H14567   0.298   4.894   9.905  1.7167  0.0889  1.6751
  849MOL0     H14568   0.123   4.859   9.930  0.2159  1.4651 -1.3132
  849MOL0     H14569   0.151   4.841  10.167 -0.6983  0.4950 -0.3626
  849MOL0     H14570   0.188   4.991  10.123 -4.9692 -1.5246 -0.7840
  849MOL0     H14571   0.407   4.979  10.168 -4.1111  2.0532  3.6045
  849MOL0     H14572   0.420   4.797  10.147  2.6672  0.8467  1.4555
  849MOL0     H14573   0.442   4.929  10.387  0.7038  0.0737 -0.6585
  849MOL0     H14574   0.349   4.780  10.382 -2.1973  0.2530  1.1539
  849MOL0     H14575   0.270   4.805  10.584  2.9244  2.8658 -1.9224
  849MOL0     H14576   0.263   4.729  10.788  0.5220  0.2555  0.2229
  849MOL0     H14577   0.235   4.826  10.925 -1.6702  0.9463  0.3433
  849MOL0     H14578   0.100   4.742  10.846  2.2053 -3.6836  0.0645
  849MOL0     H14579   0.103   5.118  11.167  1.3586 -0.2818  3.6001
  849MOL0     H14580  -0.024   5.144  11.382 -3.1876 -0.5553  1.6178
  849MOL0     H14581  -0.092   5.034  11.555  0.0309  0.3440 -2.4176
  849MOL0     H14582  -0.189   5.180  11.536 -0.4777  0.6626 -0.2555
  849MOL0     H14583  -0.374   5.087  11.661  0.5880  1.0126 -0.9022
  849MOL0     H14584  -0.284   4.932  11.680  0.4441 -0.1230 -2.7628
  849MOL0     H14585  -0.175   5.211  11.772 -1.6848  0.2991 -0.6552
  849MOL0     H14586  -0.115   5.052  11.820 -1.9347 -5.8322 -1.4422
  849MOL0     H14587  -0.391   5.073  11.899 -0.6735  2.3189  2.4583
  849MOL0     H14588  -0.250   4.998  11.964 -1.1575 -1.1664 -0.2977
  849MOL0     H14589  -0.332   5.175  12.105 -2.8441  3.2700 -0.6625
  849MOL0     H14590  -0.307   5.291  11.980 -2.4305  1.0880  3.5450
  849MOL0     H14591  -0.078   5.135  12.108  0.8167 -0.3567 -0.1673
  849MOL0     H14592  -0.055   5.238  11.959  0.5732  1.6231 -0.4311
  849MOL0     H14593   0.014   5.356  12.176  0.2581 -3.7581  0.2589
  849MOL0     H14594  -0.163   5.376  12.197  1.5063  2.7871  0.9676
  849MOL0     H14595  -0.080   5.575  12.076  2.5464 -2.7544  3.6708
  849MOL0     H14596  -0.183   5.477  11.961 -0.8609 -3.2141 -0.7995
  849MOL0     H14597  -0.332   4.888  11.230 -0.5496 -0.1670 -1.5107
  849MOL0     H14598  -0.218   4.889  11.003  1.6274  0.7464 -1.6225
  849MOL0     H14599   0.049   5.231  10.681  1.5564 -0.2759  6.2480
  849MOL0     H14600   0.130   5.182  10.448 -0.9621 -0.6319  0.4298
  849MOL0     H14601   0.429   4.382  10.769  1.6076  0.9137 -0.2078
  849MOL0     H14602   0.356   4.221  10.951  0.1013  0.5087 -2.0905
  849MOL0     H14603  -0.060   4.192  11.291  1.1687 -2.3334 -1.1797
  849MOL0     H14604  -0.135   4.132  11.512 -0.7185  1.0350  0.4423
  849MOL0     H14605  -0.027   4.352  11.852  0.0802  0.1284 -1.2270
  849MOL0     H14606  -0.124   4.339  11.692 -1.6768 -3.2871 -1.8528
  849MOL0     H14607  -0.240   4.150  11.803  2.4702 -0.4509  1.0516
  849MOL0     H14608  -0.288   4.312  11.855 -1.6047 -0.8390  2.2357
  849MOL0     H14609  -0.147   4.305  12.038 -0.3175  0.5360 -1.7115
  849MOL0     H14610  -0.083   4.146  11.997  2.0799  2.2097 -1.2015
  849MOL0     H14611  -0.251   4.096  12.156 -1.5905 -1.7176 -0.4092
  849MOL0     H14612  -0.343   4.066  12.014 -2.3326 -1.4780  4.0848
  849MOL0     H14613  -0.570   4.381  12.161 -0.2022  0.9954  1.3171
  849MOL0     H14614   0.241   4.255  11.697 -1.8091 -1.0192  1.9757
  849MOL0     H14615   0.328   4.301  11.456 -0.4805  2.0880 -0.5178
  850MOL0     O14616   7.046   6.544   5.949 -0.6069  0.3362 -0.1187
  850MOL0     C14617   7.103   6.651   5.957  0.7944 -0.1972 -0.2547
  850MOL0     O14618   7.182   6.695   6.057 -0.0442  1.0348 -0.3537
  850MOL0     C14619   7.202   6.600   6.156  0.8869  0.1323 -0.2112
  850MOL0     C14620   7.305   6.508   6.149  0.4535 -0.7464  0.3254
  850MOL0     C14621   7.327   6.412   6.254 -0.4930  0.0762  0.1173
  850MOL0     C14622   7.257   6.408   6.370  0.0394  0.0084 -0.6673
  850MOL0     O14623   7.262   6.314   6.474  0.2780  0.0654 -0.0543
  850MOL0     C14624   7.367   6.209   6.458  0.2842 -0.4832  0.0365
  850MOL0     C14625   7.503   6.241   6.509 -0.0022 -0.0739 -0.3274
  850MOL0     C14626   7.596   6.119   6.486  0.1210 -0.9976 -0.3500
  850MOL0     C14627   7.754   6.133   6.515  0.6811 -0.4274  0.4500
  850MOL0     C14628   7.825   6.002   6.545 -0.1942 -0.4437  0.8011
  850MOL0     C14629   7.855   5.917   6.417  0.7359 -0.5422  0.1418
  850MOL0     C14630   7.856   5.765   6.439  0.4264  0.4909 -1.3696
  850MOL0     C14631   7.725   5.700   6.504 -0.4414 -0.2269  0.0583
  850MOL0     N14632   7.614   5.730   6.411 -0.4453  0.1112  0.1593
  850MOL0     C14633   7.588   5.682   6.287 -1.2323  0.0849  0.4809
  850MOL0     C14634   7.476   5.740   6.248  0.8694 -1.5439  0.0202
  850MOL0     C14635   7.411   5.722   6.118 -0.7180 -0.3017 -0.3465
  850MOL0     C14636   7.338   5.588   6.112  0.7382 -0.7915 -0.1926
  850MOL0     C14637   7.227   5.571   6.220 -0.7420 -0.5558  0.6735
  850MOL0     C14638   7.264   5.478   6.334 -0.3749 -0.6038 -0.3784
  850MOL0     O14639   7.156   5.475   6.430 -0.3916  0.8527  0.3171
  850MOL0     C14640   7.140   5.364   6.511  0.2087  0.2319 -0.7691
  850MOL0     C14641   7.035   5.366   6.591  0.9223 -0.7488  0.7039
  850MOL0     C14642   7.002   5.257   6.684  0.2073 -1.1509  0.0489
  850MOL0     C14643   6.881   5.286   6.776  0.0151 -1.2230  0.1961
  850MOL0     C14644   7.080   5.137   6.687 -0.3614 -0.0659  1.1715
  850MOL0     C14645   7.036   5.019   6.761 -0.6549 -1.3311  0.0793
  850MOL0     O14646   7.123   4.908   6.749  0.3087  0.0042 -0.0613
  850MOL0     C14647   7.099   4.824   6.855  0.2908  0.7001  0.3185
  850MOL0     C14648   7.014   4.723   6.827  0.3043 -0.0511 -0.3005
  850MOL0     C14649   6.993   4.624   6.919 -0.7120  0.2863 -0.1219
  850MOL0     C14650   7.053   4.628   7.046 -0.2922  0.3453  0.5759
  850MOL0     O14651   7.044   4.527   7.137  0.3165 -0.0647 -0.0515
  850MOL0     C14652   6.938   4.430   7.126 -0.1340  0.0109  0.4292
  850MOL0     C14653   6.934   4.325   7.233  0.1601  0.9592  0.2431
  850MOL0     C14654   6.954   4.378   7.372 -0.2707 -0.2335 -0.5958
  850MOL0     C14655   7.074   4.327   7.452  0.3764 -0.3200  0.0204
  850MOL0     C14656   7.059   4.382   7.593  0.1218 -0.5534  0.4636
  850MOL0     C14657   7.164   4.316   7.682  0.0365  0.2589 -0.0291
  850MOL0     C14658   7.100   4.205   7.774 -0.0148  1.2223  0.2327
  850MOL0     C14659   7.036   4.079   7.691  0.2869 -0.9725 -0.4818
  850MOL0    Cl14660   6.873   4.131   7.627  0.1529  0.3103  0.6606
  850MOL0     C14661   7.141   4.741   7.073  0.3106  0.1647 -0.2277
  850MOL0     C14662   7.174   4.828   6.976  0.2849 -0.0200 -0.1898
  850MOL0     O14663   6.925   5.020   6.828  0.6766 -0.0469  0.2010
  850MOL0     C14664   7.183   5.139   6.585  0.7895  0.0544 -0.8576
  850MOL0     C14665   7.217   5.251   6.507  0.3128  0.1837 -0.0373
  850MOL0     N14666   7.422   5.824   6.349 -0.4044 -0.7471 -0.1021
  850MOL0     N14667   7.515   5.817   6.443  0.4154 -1.1277 -0.2121
  850MOL0     C14668   7.159   6.507   6.390  0.6423  0.3707 -0.2212
  850MOL0     C14669   7.119   6.593   6.280 -0.1093 -0.4963  0.3709
  850MOL0     C14670   7.060   6.756   5.843 -0.6072  0.3004 -0.8341
  850MOL0     C14671   7.015   6.711   5.719  0.2753 -0.1370  1.3090
  850MOL0     C14672   6.964   6.804   5.626  0.0111 -0.3022  0.3291
  850MOL0     C14673   6.942   6.941   5.661  0.3633 -0.4081  0.0270
  850MOL0     O14674   6.884   7.020   5.561 -0.2588 -0.1227  0.6999
  850MOL0     C14675   6.917   7.157   5.547 -0.8766 -0.4022 -0.2650
  850MOL0     C14676   6.836   7.237   5.653 -0.5372 -0.3520  0.2141
  850MOL0     C14677   6.688   7.221   5.621  1.1072 -0.1553 -1.3310
  850MOL0     C14678   6.591   7.298   5.719 -0.1981  0.3786  0.0662
  850MOL0     C14679   6.600   7.243   5.855  0.1961  0.3045 -0.6797
  850MOL0     C14680   6.598   7.197   5.967  0.0470  0.4753  0.5870
  850MOL0     C14681   7.002   6.981   5.781  0.1693 -1.2362 -0.0343
  850MOL0     C14682   7.058   6.894   5.869 -0.6009  0.9575  0.0830
  850MOL0     H14683   7.351   6.507   6.051 -2.5932  0.7348 -1.2625
  850MOL0     H14684   7.403   6.334   6.248 -0.7679 -0.2735  0.9702
  850MOL0     H14685   7.352   6.120   6.520  1.0703  0.0176  0.9759
  850MOL0     H14686   7.372   6.172   6.355  0.6236 -0.2087 -0.0454
  850MOL0     H14687   7.540   6.335   6.467 -1.2756  0.6888  0.1762
  850MOL0     H14688   7.505   6.261   6.617 -0.5486 -0.2958 -0.2696
  850MOL0     H14689   7.555   6.048   6.559  3.0194  0.8928  3.4315
  850MOL0     H14690   7.595   6.078   6.385  1.8769 -0.6662 -0.5282
  850MOL0     H14691   7.804   6.178   6.429  1.1268  0.7712  1.3029
  850MOL0     H14692   7.758   6.199   6.602 -0.8812  0.5628 -0.1869
  850MOL0     H14693   7.914   6.019   6.607 -0.6584 -2.9649  2.3001
  850MOL0     H14694   7.760   5.945   6.612  0.1405 -0.2574  1.2913
  850MOL0     H14695   7.780   5.917   6.338  1.9442 -0.8672 -1.0491
  850MOL0     H14696   7.951   5.950   6.375  0.3255 -1.6400 -1.7383
  850MOL0     H14697   7.880   5.713   6.346  1.2848 -1.6006 -0.0464
  850MOL0     H14698   7.935   5.748   6.514 -2.1593 -1.1486  1.2160
  850MOL0     H14699   7.722   5.731   6.608 -1.0467 -2.4472  0.7671
  850MOL0     H14700   7.752   5.594   6.515  1.5703  0.4013  1.7523
  850MOL0     H14701   7.644   5.608   6.231  1.7717  1.1333  1.9118
  850MOL0     H14702   7.342   5.804   6.096  0.7770  0.8853 -0.8039
  850MOL0     H14703   7.498   5.722   6.052  1.8780 -1.4511  2.7958
  850MOL0     H14704   7.412   5.508   6.122  0.8028 -0.6509  0.5016
  850MOL0     H14705   7.303   5.572   6.010  2.8075 -0.9123 -0.9277
  850MOL0     H14706   7.131   5.541   6.175 -0.7611 -2.6562  1.9900
  850MOL0     H14707   7.216   5.669   6.268 -3.1539 -0.1343 -0.5582
  850MOL0     H14708   7.354   5.519   6.381 -0.5672 -0.0757 -0.4667
  850MOL0     H14709   7.284   5.376   6.300 -1.7203 -1.1126  0.2967
  850MOL0     H14710   6.975   5.457   6.588  1.3796 -0.3460  2.6975
  850MOL0     H14711   6.909   5.267   6.879  0.5526  2.1994  0.8181
  850MOL0     H14712   6.836   5.386   6.775 -2.2933 -2.1350 -2.4480
  850MOL0     H14713   6.805   5.218   6.735 -0.1030  0.2817 -2.3456
  850MOL0     H14714   6.963   4.707   6.732 -1.8129  2.1481  0.3564
  850MOL0     H14715   6.927   4.540   6.897  1.0305 -1.8970  2.3645
  850MOL0     H14716   6.849   4.490   7.149  1.8092  1.9776  3.6434
  850MOL0     H14717   6.940   4.377   7.031 -0.7894  2.3361 -0.9447
  850MOL0     H14718   6.848   4.261   7.212  1.1780 -0.5235  0.4630
  850MOL0     H14719   7.028   4.271   7.216 -0.2773 -0.7382  2.7519
  850MOL0     H14720   6.865   4.361   7.434  0.7796 -1.3331  0.6706
  850MOL0     H14721   6.960   4.487   7.367 -2.3931  0.0594  1.3734
  850MOL0     H14722   7.073   4.218   7.460 -0.2366 -0.3269 -0.1371
  850MOL0     H14723   7.173   4.361   7.418  1.2775 -0.4092  2.3573
  850MOL0     H14724   6.956   4.390   7.630 -0.8908  2.2887 -2.5009
  850MOL0     H14725   7.093   4.486   7.598  0.3447 -0.6801  2.2475
  850MOL0     H14726   7.241   4.278   7.614  0.4786  1.1824 -0.0610
  850MOL0     H14727   7.212   4.388   7.748 -1.8599  0.2925  1.3990
  850MOL0     H14728   7.016   4.242   7.833 -0.5830 -1.9908  1.6259
  850MOL0     H14729   7.173   4.180   7.851 -2.7468  0.5454  2.7906
  850MOL0     H14730   7.023   3.995   7.760  1.3993 -0.1264  0.8200
  850MOL0     H14731   7.115   4.043   7.625 -0.2813 -2.6873 -0.2846
  850MOL0     H14732   7.181   4.734   7.173 -2.0355 -0.6563  0.7136
  850MOL0     H14733   7.244   4.908   6.997  0.3115 -0.6140  2.3127
  850MOL0     H14734   7.244   5.049   6.577 -0.1138 -0.7315  0.6739
  850MOL0     H14735   7.304   5.238   6.443 -1.4290 -0.7817 -2.3905
  850MOL0     H14736   7.115   6.510   6.489  1.6762 -3.1544  0.4766
  850MOL0     H14737   7.046   6.670   6.300  2.3969  1.8986  0.8721
  850MOL0     H14738   7.024   6.606   5.695  0.0665  0.0089  0.5566
  850MOL0     H14739   6.927   6.768   5.530  0.3712 -1.7066  0.6929
  850MOL0     H14740   7.021   7.181   5.572 -1.2371  0.5473  0.3960
  850MOL0     H14741   6.903   7.182   5.442  0.2904 -2.5286 -0.9867
  850MOL0     H14742   6.871   7.340   5.665  2.5967 -1.2898 -0.0040
  850MOL0     H14743   6.862   7.202   5.753  0.6548  2.4262  0.9869
  850MOL0     H14744   6.656   7.116   5.619 -1.9006  0.6727 -0.9714
  850MOL0     H14745   6.664   7.252   5.519  1.3183 -1.9096 -1.9542
  850MOL0     H14746   6.486   7.289   5.691  0.2773  1.2472 -2.2186
  850MOL0     H14747   6.612   7.406   5.716  1.6688  0.0743  0.3825
  850MOL0     H14748   6.596   7.156   6.065  1.9704 -1.0351  0.0784
  850MOL0     H14749   7.019   7.084   5.811 -1.6442 -0.5499 -1.1929
  850MOL0     H14750   7.108   6.934   5.956  2.4320  1.1008 -1.5930
  851MOL0     O14751  11.320   9.092   9.099  0.1454  0.3596  0.7462
  851MOL0     C14752  11.243   8.999   9.079 -0.7781  0.4282  0.5645
  851MOL0     O14753  11.167   8.931   9.173 -0.5277 -0.4686  0.7050
  851MOL0     C14754  11.178   8.972   9.305  1.0968 -0.1485 -0.2225
  851MOL0     C14755  11.191   9.102   9.346  1.0683 -0.9273 -0.3910
  851MOL0     C14756  11.194   9.133   9.484 -0.9780  0.5396  0.3948
  851MOL0     C14757  11.194   9.038   9.590 -0.2341  0.2714 -0.1260
  851MOL0     O14758  11.198   9.048   9.721 -0.4546 -0.4703 -0.1902
  851MOL0     C14759  11.142   9.164   9.776  0.2129 -0.6558  0.1898
  851MOL0     C14760  11.079   9.120   9.909  0.1616 -0.4430  0.5401
  851MOL0     C14761  10.965   9.014   9.896 -0.3672 -1.0639  0.3060
  851MOL0     C14762  10.932   8.970  10.044 -0.6205  0.0993  0.7594
  851MOL0     C14763  10.890   9.082  10.139 -0.3124  0.7111  0.3862
  851MOL0     C14764  10.891   9.038  10.284 -0.2954  0.0664  0.1497
  851MOL0     C14765  10.768   8.964  10.323 -0.4197  0.3392  0.0403
  851MOL0     C14766  10.797   8.908  10.460 -0.1642  0.2664  0.4834
  851MOL0     N14767  10.846   8.767  10.459 -0.1710  0.1915 -0.1406
  851MOL0     C14768  10.778   8.654  10.422  0.9834  0.1273 -0.4923
  851MOL0     C14769  10.866   8.547  10.423  0.5782  0.0016  0.0760
  851MOL0     C14770  10.841   8.410  10.379  0.3711  0.0923  0.0288
  851MOL0     C14771  10.690   8.364  10.399  1.0049 -0.3241  0.0110
  851MOL0     C14772  10.661   8.223  10.336 -0.8601  0.0904  1.0066
  851MOL0     C14773  10.533   8.164  10.371  0.6432  0.8297 -0.7439
  851MOL0     O14774  10.518   8.129  10.511 -0.3125  0.2537 -0.0907
  851MOL0     C14775  10.392   8.089  10.550  0.1477 -0.5395  0.4767
  851MOL0     C14776  10.270   8.127  10.501  1.1648  0.5234 -0.3762
  851MOL0     C14777  10.143   8.090  10.552 -0.6148  0.1208 -0.9712
  851MOL0     C14778  10.018   8.152  10.495 -0.1420 -0.6626 -0.5250
  851MOL0     C14779  10.143   8.004  10.667 -0.1045 -0.3607 -0.5569
  851MOL0     C14780  10.023   7.952  10.741 -0.0431  0.1420  0.5475
  851MOL0     O14781  10.033   7.935  10.881 -0.0357  0.1874 -0.2628
  851MOL0     C14782   9.940   7.860  10.948  0.1289  1.2509  1.1138
  851MOL0     C14783   9.973   7.737  10.997  0.0832 -0.1886  0.6681
  851MOL0     C14784   9.884   7.651  11.054  0.2990 -0.0931 -0.2752
  851MOL0     C14785   9.743   7.685  11.058 -0.1374 -0.0442 -0.0908
  851MOL0     O14786   9.645   7.600  11.101  0.9352  0.7086  0.4164
  851MOL0     C14787   9.672   7.507  11.195  0.2835  0.2064  0.8642
  851MOL0     C14788   9.682   7.359  11.140 -0.4458  0.3942  0.1165
  851MOL0     C14789   9.720   7.273  11.262 -0.2779  0.2343  0.1219
  851MOL0     C14790   9.753   7.132  11.223  0.8336  0.2226 -0.1773
  851MOL0     C14791   9.866   7.122  11.119 -0.3531  0.9463  1.1504
  851MOL0     C14792   9.994   7.209  11.143 -0.1786  0.1525 -1.1511
  851MOL0     C14793  10.069   7.147  11.266  0.1072  0.5306 -0.4477
  851MOL0     C14794  10.214   7.206  11.285  0.4782 -0.7347  0.1020
  851MOL0    Cl14795  10.220   7.392  11.301  0.0936  0.2366  0.3088
  851MOL0     C14796   9.700   7.804  11.001 -0.8206  0.6878 -0.5790
  851MOL0     C14797   9.804   7.890  10.949  0.6638  0.0814 -0.4225
  851MOL0     O14798   9.923   7.923  10.671  0.2451 -0.0500 -0.1484
  851MOL0     C14799  10.273   7.959  10.712 -0.0555  0.6029 -0.6816
  851MOL0     C14800  10.395   7.997  10.655 -0.1770  0.1347  0.6271
  851MOL0     N14801  10.982   8.591  10.477  0.1865 -0.1400  0.2069
  851MOL0     N14802  10.969   8.721  10.491 -0.5797  0.0562  0.3347
  851MOL0     C14803  11.172   8.912   9.539 -0.4004  0.1578 -0.5992
  851MOL0     C14804  11.168   8.877   9.405  0.5741  0.0632 -0.3219
  851MOL0     C14805  11.228   8.964   8.939 -0.1353  0.0266 -0.0346
  851MOL0     C14806  11.289   9.040   8.845  0.4758 -0.7787  0.1737
  851MOL0     C14807  11.284   9.002   8.713 -0.9192  0.6103 -0.2862
  851MOL0     C14808  11.225   8.891   8.668  0.5298 -0.4610  0.3388
  851MOL0     O14809  11.223   8.871   8.525 -0.1061 -0.1842 -0.0222
  851MOL0     C14810  11.220   8.727   8.476  0.5515  0.1861  0.3081
  851MOL0     C14811  11.307   8.720   8.353 -0.0225 -0.1785  0.8570
  851MOL0     C14812  11.449   8.764   8.389 -0.7780  0.0931 -0.2665
  851MOL0     C14813  11.548   8.750   8.276  0.1225  0.3343 -0.4436
  851MOL0     C14814  11.527   8.842   8.165  0.4663  0.4787  0.2579
  851MOL0     C14815  11.491   8.910   8.065  0.0823  0.4840 -1.0053
  851MOL0     C14816  11.163   8.800   8.762 -0.8925 -0.1806  0.0633
  851MOL0     C14817  11.157   8.847   8.896 -0.4078 -0.0494  0.2417
  851MOL0     H14818  11.203   9.189   9.281 -2.3264 -1.1051 -1.4046
  851MOL0     H14819  11.200   9.241   9.499  1.6094  0.8355 -1.8723
  851MOL0     H14820  11.222   9.238   9.784 -0.2159 -0.3317  1.9530
  851MOL0     H14821  11.064   9.204   9.711  1.7299  1.6372 -0.3129
  851MOL0     H14822  11.154   9.076   9.976 -0.8042 -0.3722  1.7192
  851MOL0     H14823  11.032   9.207   9.956  0.9890  0.8815 -1.0107
  851MOL0     H14824  10.877   9.046   9.841  1.1444  1.9348 -0.6049
  851MOL0     H14825  10.993   8.924   9.842  1.4889 -0.8117  0.7638
  851MOL0     H14826  10.839   8.912  10.044 -1.5824  1.5905  0.3989
  851MOL0     H14827  11.020   8.920  10.085 -1.8662 -1.8236  1.2758
  851MOL0     H14828  10.972   9.153  10.125 -0.9686  1.5539  0.6732
  851MOL0     H14829  10.798   9.135  10.111  0.2332  2.5494  1.9032
  851MOL0     H14830  10.976   8.971  10.302 -0.1084  0.0498 -0.7645
  851MOL0     H14831  10.919   9.130  10.336  0.4671 -0.6882  1.1424
  851MOL0     H14832  10.679   9.027  10.330 -0.2823  0.5110  0.2473
  851MOL0     H14833  10.749   8.879  10.257  0.9323  0.7709 -0.9739
  851MOL0     H14834  10.704   8.908  10.518  2.5641  2.1898  5.5025
  851MOL0     H14835  10.860   8.972  10.522  2.0296 -1.3129  0.0171
  851MOL0     H14836  10.672   8.650  10.399  0.3016 -1.3591  2.4904
  851MOL0     H14837  10.843   8.425  10.270 -0.2324 -2.0405 -0.3153
  851MOL0     H14838  10.914   8.334  10.407 -0.6824 -2.7116 -3.9255
  851MOL0     H14839  10.629   8.433  10.339  0.2940 -1.0849 -0.1641
  851MOL0     H14840  10.656   8.363  10.503 -0.4203  1.4406 -0.3753
  851MOL0     H14841  10.738   8.146  10.351 -0.0789  0.4906 -0.7663
  851MOL0     H14842  10.661   8.240  10.228  5.0459 -0.2270  0.6706
  851MOL0     H14843  10.513   8.080  10.304 -1.1517  0.8067 -0.2217
  851MOL0     H14844  10.458   8.236  10.338 -1.7719 -0.0927  2.2750
  851MOL0     H14845  10.273   8.192  10.414  0.5490 -3.3521 -3.5834
  851MOL0     H14846   9.974   8.073  10.433 -1.8466 -0.9090  0.9062
  851MOL0     H14847   9.959   8.200  10.575  2.7023  2.6879 -0.2080
  851MOL0     H14848  10.048   8.234  10.430  2.7946 -0.7877  0.5246
  851MOL0     H14849  10.078   7.710  11.004  0.3519  1.1837  2.8754
  851MOL0     H14850   9.917   7.549  11.076  1.0882  0.0568 -0.7284
  851MOL0     H14851   9.757   7.531  11.259  1.7384 -0.7619 -0.6264
  851MOL0     H14852   9.588   7.504  11.266 -0.2529 -0.4777  0.2196
  851MOL0     H14853   9.590   7.320  11.097 -1.3074  1.7275  0.6709
  851MOL0     H14854   9.748   7.360  11.053  0.7265 -3.0209  0.7953
  851MOL0     H14855   9.634   7.277  11.329 -0.5283  0.8686 -0.2228
  851MOL0     H14856   9.810   7.316  11.309 -1.8082  1.9676  1.6293
  851MOL0     H14857   9.781   7.074  11.312 -0.8398 -0.6879 -0.2075
  851MOL0     H14858   9.665   7.074  11.193  1.3102 -0.4809 -0.2528
  851MOL0     H14859   9.833   7.153  11.020  0.0688  0.8465  0.9776
  851MOL0     H14860   9.878   7.013  11.119  1.3911  1.1130  1.0771
  851MOL0     H14861  10.054   7.206  11.052 -1.4205 -4.9046 -2.0928
  851MOL0     H14862   9.974   7.314  11.163  1.2994  0.0389  1.3238
  851MOL0     H14863  10.071   7.038  11.271 -0.0592  0.5501  0.1493
  851MOL0     H14864  10.011   7.180  11.353  0.0714 -0.4915 -0.0736
  851MOL0     H14865  10.279   7.179  11.201  1.5835  0.5633  0.5062
  851MOL0     H14866  10.251   7.156  11.375  0.7472  0.0220  0.4195
  851MOL0     H14867   9.593   7.820  11.004 -1.0452 -0.5799 -0.8567
  851MOL0     H14868   9.769   7.970  10.885 -1.8698 -2.3103 -2.2969
  851MOL0     H14869  10.278   7.900  10.803 -3.6204 -0.0540 -0.7726
  851MOL0     H14870  10.492   7.970  10.694  0.9163  3.4718  0.5307
  851MOL0     H14871  11.170   8.831   9.612  1.6163  2.0363  1.7540
  851MOL0     H14872  11.132   8.776   9.391  3.4560 -1.4843  2.2396
  851MOL0     H14873  11.331   9.140   8.857 -2.1322  0.2411  1.6101
  851MOL0     H14874  11.326   9.068   8.638  1.4866 -1.6757 -1.1214
  851MOL0     H14875  11.268   8.661   8.548  2.3289  2.7917  1.7099
  851MOL0     H14876  11.122   8.692   8.444 -0.8758  1.4947  2.9678
  851MOL0     H14877  11.266   8.790   8.280  1.2677  0.3239  0.5858
  851MOL0     H14878  11.314   8.614   8.327 -1.6200 -0.5689  1.8730
  851MOL0     H14879  11.470   8.681   8.458 -2.5808 -0.7838 -0.7165
  851MOL0     H14880  11.464   8.864   8.430  4.4879 -0.3243 -0.4779
  851MOL0     H14881  11.545   8.646   8.242  1.6659 -0.7190  2.2823
  851MOL0     H14882  11.648   8.764   8.319 -1.3333 -0.4709  3.7361
  851MOL0     H14883  11.456   8.969   7.983 -0.6851  0.9923 -0.3267
  851MOL0     H14884  11.120   8.711   8.719 -0.2570 -2.9080  4.4358
  851MOL0     H14885  11.093   8.796   8.967 -3.1087 -0.4131 -2.2875
  852MOL0     O14886   8.078   6.327  10.764  0.0238 -0.0219  0.6186
  852MOL0     C14887   8.131   6.420  10.818  0.4599 -0.0142  0.9865
  852MOL0     O14888   8.202   6.520  10.746 -0.0651 -0.6025  0.4500
  852MOL0     C14889   8.190   6.512  10.613  0.9456 -0.0865  0.7882
  852MOL0     C14890   8.072   6.547  10.558 -0.1248 -0.4633  0.4791
  852MOL0     C14891   8.041   6.557  10.428  0.4126  1.0824 -1.1466
  852MOL0     C14892   8.143   6.527  10.340 -0.5221  0.5213 -0.4508
  852MOL0     O14893   8.105   6.531  10.212 -0.3813  0.8493  0.3966
  852MOL0     C14894   8.133   6.421  10.117 -0.3276 -0.2896  0.4434
  852MOL0     C14895   8.259   6.462  10.049 -1.3497  0.5396 -0.4510
  852MOL0     C14896   8.362   6.348  10.045 -0.5281 -1.2173  0.0081
  852MOL0     C14897   8.321   6.237   9.946 -1.2702  0.1742 -0.1422
  852MOL0     C14898   8.415   6.111   9.951  0.6821 -0.2197  0.7182
  852MOL0     C14899   8.554   6.141   9.904  0.1759 -0.1999  0.7899
  852MOL0     C14900   8.626   6.010   9.847  0.0900 -0.3926  0.0500
  852MOL0     C14901   8.749   6.041   9.756  0.0934 -0.1833 -0.0090
  852MOL0     N14902   8.866   6.103   9.832  0.0942  0.0110  0.9172
  852MOL0     C14903   8.988   6.038   9.832  0.1628  0.1243 -0.4826
  852MOL0     C14904   9.042   6.084   9.944  0.6192  0.0210 -0.3453
  852MOL0     C14905   9.173   6.026  10.004  1.0667  0.8437 -0.2760
  852MOL0     C14906   9.166   5.872  10.007  0.3512 -0.3876 -0.6410
  852MOL0     C14907   9.260   5.802  10.110 -0.2173 -0.4718  0.0348
  852MOL0     C14908   9.266   5.645  10.108  0.5551 -0.2266 -0.0284
  852MOL0     O14909   9.141   5.592  10.130 -0.3431  0.1815  0.4095
  852MOL0     C14910   9.137   5.449  10.151 -0.5530  0.0478  0.4859
  852MOL0     C14911   9.010   5.398  10.204 -0.3433 -0.5884  0.7305
  852MOL0     C14912   8.995   5.266  10.236  0.2837  0.3677 -0.3919
  852MOL0     C14913   8.874   5.228  10.317  0.4573  0.4135  0.1250
  852MOL0     C14914   9.095   5.173  10.198 -0.5334  0.3993 -0.2581
  852MOL0     C14915   9.081   5.026  10.208 -0.5850 -0.1165  0.3077
  852MOL0     O14916   9.204   4.954  10.214  0.0515 -0.8140 -0.5238
  852MOL0     C14917   9.196   4.819  10.254 -0.1888 -0.1288 -0.1025
  852MOL0     C14918   9.173   4.787  10.390 -0.7296 -0.3063 -0.9823
  852MOL0     C14919   9.180   4.649  10.428  0.3115  0.2841  0.1565
  852MOL0     C14920   9.197   4.550  10.335  0.7382 -0.4228  0.1521
  852MOL0     O14921   9.169   4.424  10.379 -0.7248  0.2280  0.1299
  852MOL0     C14922   9.262   4.365  10.465  0.5937  0.9889  0.8259
  852MOL0     C14923   9.208   4.348  10.604 -0.5472 -1.3432 -0.2410
  852MOL0     C14924   9.084   4.256  10.625  0.5545 -0.1348 -0.0322
  852MOL0     C14925   9.069   4.260  10.784  0.1429  1.4580 -1.2016
  852MOL0     C14926   8.956   4.161  10.827 -0.0554  1.2120 -0.6225
  852MOL0     C14927   8.980   4.101  10.967 -0.2103  0.6267  0.5057
  852MOL0     C14928   8.965   4.199  11.083 -1.0064  0.9267  0.7941
  852MOL0     C14929   9.048   4.149  11.201  0.3324 -0.6024 -0.3466
  852MOL0    Cl14930   9.219   4.146  11.193  0.1736  0.0123 -0.1468
  852MOL0     C14931   9.216   4.581  10.200  0.0561 -0.2950 -0.1619
  852MOL0     C14932   9.221   4.714  10.164  0.2278 -0.6452 -0.4049
  852MOL0     O14933   8.965   4.974  10.211  0.3337  0.2413  0.0331
  852MOL0     C14934   9.221   5.221  10.144  0.3063 -0.0241  0.7424
  852MOL0     C14935   9.244   5.358  10.134  0.1520 -0.6357 -0.0619
  852MOL0     N14936   8.960   6.179  10.004 -0.9007  0.7687 -0.0974
  852MOL0     N14937   8.855   6.182   9.938 -0.4548  0.4543  0.1074
  852MOL0     C14938   8.268   6.474  10.394 -0.4428  0.7930  0.5501
  852MOL0     C14939   8.294   6.462  10.526  0.3367 -0.7812  0.1449
  852MOL0     C14940   8.143   6.422  10.963  0.7473  0.1811  0.0028
  852MOL0     C14941   8.090   6.319  11.044 -0.6246 -0.3913  0.4543
  852MOL0     C14942   8.097   6.333  11.180  0.5449  0.6671 -0.2337
  852MOL0     C14943   8.147   6.444  11.247 -0.3347 -0.2557  0.9120
  852MOL0     O14944   8.137   6.439  11.387 -0.1251 -0.2038  1.3994
  852MOL0     C14945   8.158   6.549  11.474 -1.1259  0.0761 -0.1135
  852MOL0     C14946   8.030   6.641  11.483  1.0788  0.1963  0.4037
  852MOL0     C14947   8.068   6.780  11.531  0.1065  0.2748 -0.1977
  852MOL0     C14948   7.952   6.858  11.581  0.5193 -0.5102 -0.9862
  852MOL0     C14949   7.895   6.936  11.471  0.1500  0.5295 -0.3743
  852MOL0     C14950   7.876   7.004  11.384 -0.3553 -0.6629  0.4167
  852MOL0     C14951   8.208   6.539  11.165  1.0649  0.3537  1.1940
  852MOL0     C14952   8.198   6.535  11.026  0.3169 -0.2804 -0.4333
  852MOL0     H14953   7.990   6.585  10.619  0.6083  0.6046  0.8184
  852MOL0     H14954   7.945   6.597  10.397 -0.6383 -0.7433 -0.4126
  852MOL0     H14955   8.136   6.320  10.160 -1.4686 -1.2638 -1.6650
  852MOL0     H14956   8.062   6.409  10.036 -1.4911 -2.4221  1.6962
  852MOL0     H14957   8.241   6.480   9.943  1.3554  0.8263 -0.9186
  852MOL0     H14958   8.299   6.553  10.094  1.9100 -0.1071 -1.7525
  852MOL0     H14959   8.454   6.395  10.008 -1.5809 -0.2882 -1.5605
  852MOL0     H14960   8.375   6.315  10.148 -0.7083 -0.0282  0.4150
  852MOL0     H14961   8.224   6.193   9.967 -0.6231 -1.1441  0.1874
  852MOL0     H14962   8.325   6.291   9.850 -2.9543 -1.8088 -1.4085
  852MOL0     H14963   8.416   6.074  10.054 -1.2666 -2.6063 -0.0121
  852MOL0     H14964   8.377   6.033   9.884 -1.9094  2.2660 -0.9088
  852MOL0     H14965   8.552   6.222   9.830  0.3464 -2.3163 -1.6592
  852MOL0     H14966   8.609   6.170   9.995  0.5242 -4.2318  2.0488
  852MOL0     H14967   8.657   5.954   9.937  0.8153  3.6423  2.5755
  852MOL0     H14968   8.556   5.944   9.796 -0.5438 -2.5220  3.3096
  852MOL0     H14969   8.721   6.110   9.676  1.1582 -0.8484 -0.9919
  852MOL0     H14970   8.772   5.941   9.718 -1.0201 -0.6982  0.6189
  852MOL0     H14971   9.031   5.958   9.772  0.9155 -0.9191  1.3876
  852MOL0     H14972   9.258   6.042   9.936 -0.3344 -2.5045 -3.1697
  852MOL0     H14973   9.195   6.067  10.103 -1.1870  0.2193  0.5373
  852MOL0     H14974   9.192   5.848   9.903 -1.8269  1.4755 -1.6962
  852MOL0     H14975   9.068   5.832  10.037 -0.8702  0.4088 -3.2537
  852MOL0     H14976   9.227   5.836  10.209  0.0567  1.6561 -0.5551
  852MOL0     H14977   9.362   5.840  10.097 -1.0816  1.0087 -3.4643
  852MOL0     H14978   9.332   5.602  10.184 -1.6824  0.1507  2.2926
  852MOL0     H14979   9.298   5.627  10.005 -0.6091  2.6671 -0.9902
  852MOL0     H14980   8.933   5.474  10.217 -0.5458 -0.8234  0.9167
  852MOL0     H14981   8.804   5.185  10.245  1.6901 -2.0815  0.2938
  852MOL0     H14982   8.893   5.158  10.399 -1.5727 -1.0844 -0.6142
  852MOL0     H14983   8.824   5.316  10.358 -1.6416 -0.1685 -1.0410
  852MOL0     H14984   9.161   4.867  10.463  1.4135 -0.5856 -0.2327
  852MOL0     H14985   9.152   4.619  10.529 -0.1918 -0.4609 -0.1996
  852MOL0     H14986   9.282   4.265  10.425 -1.8848  0.4018  0.8948
  852MOL0     H14987   9.356   4.419  10.477 -0.7182  3.2604  1.6339
  852MOL0     H14988   9.289   4.315  10.670 -1.1987 -1.1545  0.6660
  852MOL0     H14989   9.180   4.449  10.636  0.9484 -0.8699 -0.3515
  852MOL0     H14990   9.101   4.159  10.577 -2.1738 -0.0148 -1.4200
  852MOL0     H14991   8.997   4.304  10.582  0.9794  2.6631  1.9395
  852MOL0     H14992   9.158   4.235  10.842 -0.6379  2.3710  0.4707
  852MOL0     H14993   9.035   4.364  10.794  1.3036  2.0794 -3.0514
  852MOL0     H14994   8.956   4.078  10.756  2.2191  2.6326 -2.4569
  852MOL0     H14995   8.859   4.212  10.827 -0.1897  1.0465 -2.3671
  852MOL0     H14996   8.907   4.021  10.985 -0.6361  1.1481  1.1287
  852MOL0     H14997   9.077   4.052  10.973 -0.9579 -0.8160  1.4505
  852MOL0     H14998   8.857   4.201  11.098 -1.4836  0.6347 -2.0366
  852MOL0     H14999   9.009   4.295  11.056  2.0679 -0.6856 -0.4620
  852MOL0     H15000   9.012   4.053  11.242  0.2033  0.9716  3.7041
  852MOL0     H15001   9.026   4.222  11.279 -0.6829  0.1198 -1.2943
  852MOL0     H15002   9.230   4.491  10.141 -2.0778 -1.9078  1.6319
  852MOL0     H15003   9.237   4.736  10.059 -1.4927 -2.3408 -1.0874
  852MOL0     H15004   9.296   5.148  10.117  0.8185  0.3109  1.2400
  852MOL0     H15005   9.339   5.386  10.090 -1.0512  1.3105 -1.5751
  852MOL0     H15006   8.349   6.432  10.335  1.4008  0.0607  3.4163
  852MOL0     H15007   8.381   6.421  10.577  1.6767  3.2269  1.4648
  852MOL0     H15008   8.051   6.242  10.979 -3.3003  0.9087  0.3852
  852MOL0     H15009   8.063   6.243  11.230 -0.8246  0.5143 -1.4062
  852MOL0     H15010   8.188   6.491  11.561  1.7915 -2.0258 -2.3430
  852MOL0     H15011   8.242   6.613  11.445 -0.6341  0.0388  1.1625
  852MOL0     H15012   7.958   6.599  11.554 -0.2523  1.0772 -0.3676
  852MOL0     H15013   7.987   6.645  11.383  2.7039 -0.1747 -0.3387
  852MOL0     H15014   8.122   6.840  11.458 -2.7508  0.8438 -1.9793
  852MOL0     H15015   8.140   6.763  11.612  0.5680 -2.6621 -1.0923
  852MOL0     H15016   7.992   6.932  11.651 -0.6556 -1.5662  0.8853
  852MOL0     H15017   7.876   6.806  11.639 -1.5186  2.0468 -1.1772
  852MOL0     H15018   7.882   7.069  11.300  0.9642  1.6141  2.1802
  852MOL0     H15019   8.254   6.626  11.212  0.1689 -0.9726  4.9105
  852MOL0     H15020   8.239   6.616  10.967 -1.2115  0.7832 -0.0765
  853MOL0     O15021   9.691   0.976   0.333  0.5352  0.4047  0.8485
  853MOL0     C15022   9.740   0.870   0.374  0.5662  0.0470  0.9551
  853MOL0     O15023   9.826   0.788   0.297 -0.0898 -0.7244 -0.4838
  853MOL0     C15024   9.877   0.812   0.171  0.2542 -0.5100 -0.3521
  853MOL0     C15025   9.820   0.898   0.069  0.5958  0.1141  0.2452
  853MOL0     C15026   9.852   0.897  -0.063  0.1242  0.8468  0.4342
  853MOL0     C15027   9.954   0.811  -0.095 -0.5012 -0.4579  0.4653
  853MOL0     O15028  10.018   0.810  -0.219  0.1191  0.1696 -0.1286
  853MOL0     C15029   9.994   0.936  -0.305  0.5960  0.0590  0.1543
  853MOL0     C15030  10.091   0.945  -0.428  0.3375  0.1495 -0.0998
  853MOL0     C15031  10.069   0.820  -0.524  0.0491 -0.0289 -0.3271
  853MOL0     C15032  10.170   0.829  -0.636  0.4057 -0.4499  0.1402
  853MOL0     C15033  10.122   0.736  -0.748  0.6195 -0.6918 -0.1402
  853MOL0     C15034  10.213   0.754  -0.867  0.5304  0.6894  0.1873
  853MOL0     C15035  10.198   0.892  -0.924 -0.1852 -0.2726  0.7524
  853MOL0     C15036  10.284   0.904  -1.047  0.1627  0.5096 -0.3974
  853MOL0     N15037  10.297   1.036  -1.100 -0.0135  0.0584 -0.5467
  853MOL0     C15038  10.374   1.132  -1.046 -0.6032 -0.3174  0.2301
  853MOL0     C15039  10.347   1.248  -1.114  0.2135  0.1961 -0.1922
  853MOL0     C15040  10.395   1.388  -1.105  0.0158  0.0562  0.0487
  853MOL0     C15041  10.511   1.399  -0.986 -0.1487  0.1467 -0.3688
  853MOL0     C15042  10.600   1.527  -0.998  0.2360  0.2441 -0.2405
  853MOL0     C15043  10.525   1.656  -0.995  0.5016  0.5203 -0.4898
  853MOL0     O15044  10.449   1.669  -0.876  0.2528 -0.0586 -0.6344
  853MOL0     C15045  10.507   1.715  -0.760 -0.6931 -0.2219 -0.0751
  853MOL0     C15046  10.634   1.768  -0.751  0.2576 -0.6314 -0.7428
  853MOL0     C15047  10.677   1.832  -0.628  0.8786 -0.4925  1.2972
  853MOL0     C15048  10.813   1.898  -0.634  0.3584 -0.3535  0.5718
  853MOL0     C15049  10.602   1.790  -0.510 -0.4420 -0.4424  0.9777
  853MOL0     C15050  10.654   1.827  -0.380  0.5284  1.2077 -0.7556
  853MOL0     O15051  10.789   1.850  -0.360  0.1140  0.0802 -0.7427
  853MOL0     C15052  10.851   1.877  -0.244 -0.5889 -0.3167 -0.7698
  853MOL0     C15053  10.810   1.825  -0.120  1.3617 -0.6845 -0.1037
  853MOL0     C15054  10.888   1.842  -0.008 -0.2502 -0.4575 -0.5575
  853MOL0     C15055  11.008   1.914  -0.018 -1.6255 -0.6209  1.1611
  853MOL0     O15056  11.088   1.942   0.086  0.0123 -0.1203 -0.0275
  853MOL0     C15057  11.044   1.921   0.223 -0.0219  1.0739  0.6937
  853MOL0     C15058  11.141   1.930   0.333 -0.9726  0.4862  1.2835
  853MOL0     C15059  11.259   1.825   0.322 -0.7014 -0.6180 -0.5182
  853MOL0     C15060  11.353   1.826   0.437  0.0554 -0.5871  0.7610
  853MOL0     C15061  11.438   1.694   0.449 -0.1482  0.3245  1.3258
  853MOL0     C15062  11.533   1.713   0.569 -0.6059  0.0337  0.6125
  853MOL0     C15063  11.656   1.800   0.523  0.4835 -0.0043  0.1696
  853MOL0     C15064  11.771   1.800   0.639  2.1858  0.1658 -0.3909
  853MOL0    Cl15065  11.896   1.912   0.602  0.2015 -0.0616 -0.6456
  853MOL0     C15066  11.044   1.973  -0.138 -0.1215  0.0481 -0.2667
  853MOL0     C15067  10.968   1.946  -0.255 -0.2848  0.0027 -0.6786
  853MOL0     O15068  10.569   1.850  -0.295  0.0494 -0.2915 -0.1037
  853MOL0     C15069  10.480   1.723  -0.514 -0.8325  0.3381  0.4945
  853MOL0     C15070  10.431   1.688  -0.641 -0.4212 -0.0607  0.4287
  853MOL0     N15071  10.261   1.210  -1.220  0.4910 -0.4720 -0.0235
  853MOL0     N15072  10.240   1.085  -1.212 -0.0464 -0.4273  0.2558
  853MOL0     C15073  10.004   0.720  -0.002 -0.1455  0.4744  0.6271
  853MOL0     C15074   9.970   0.720   0.126  0.3235 -0.9145 -0.4294
  853MOL0     C15075   9.680   0.811   0.489 -0.2929  0.6431  0.2274
  853MOL0     C15076   9.739   0.828   0.616 -0.5847 -0.9632 -0.1525
  853MOL0     C15077   9.690   0.776   0.724 -0.2797  0.5682  0.4632
  853MOL0     C15078   9.584   0.681   0.719  0.4300 -0.6877 -0.2365
  853MOL0     O15079   9.533   0.616   0.831 -0.1884 -0.2777 -0.3257
  853MOL0     C15080   9.548   0.670   0.966 -0.2161  0.4483  0.2352
  853MOL0     C15081   9.420   0.641   1.030 -0.9821  0.6077 -0.0751
  853MOL0     C15082   9.404   0.489   1.049  0.6824 -0.7756  0.5664
  853MOL0     C15083   9.261   0.450   1.095 -0.4490 -0.2511 -0.7689
  853MOL0     C15084   9.160   0.458   0.986  0.1022  0.3039 -0.2326
  853MOL0     C15085   9.089   0.473   0.884 -0.3110 -0.4888 -0.0286
  853MOL0     C15086   9.529   0.654   0.595  1.1291  0.0848 -0.0912
  853MOL0     C15087   9.571   0.722   0.477 -0.2390 -0.6014  0.3895
  853MOL0     H15088   9.728   0.952   0.091 -0.1456 -1.4451  1.1681
  853MOL0     H15089   9.799   0.950  -0.141 -3.3925 -1.3552  1.1139
  853MOL0     H15090   9.893   0.951  -0.346  2.1572  4.5958 -2.8470
  853MOL0     H15091  10.013   1.025  -0.244 -0.9968  0.0185  0.7736
  853MOL0     H15092  10.069   1.042  -0.473  1.8014  0.4250 -0.2370
  853MOL0     H15093  10.194   0.963  -0.396  0.7659 -0.0915 -1.3068
  853MOL0     H15094  10.094   0.731  -0.465 -1.4200  0.2099  0.6880
  853MOL0     H15095   9.964   0.814  -0.555  0.0444  2.0183 -0.8372
  853MOL0     H15096  10.172   0.933  -0.668  1.0205 -0.7569 -0.8543
  853MOL0     H15097  10.265   0.798  -0.592  0.4057 -0.9595 -0.2109
  853MOL0     H15098  10.102   0.635  -0.712 -6.5656  0.9965  2.4000
  853MOL0     H15099  10.023   0.761  -0.787  0.0011 -0.4556  1.5037
  853MOL0     H15100  10.315   0.738  -0.832  1.0533  2.0656 -0.6515
  853MOL0     H15101  10.188   0.677  -0.941  1.1467 -0.2404  0.9101
  853MOL0     H15102  10.093   0.917  -0.941  0.0153 -0.2484 -0.5858
  853MOL0     H15103  10.238   0.962  -0.850  0.6812  1.4009 -1.1945
  853MOL0     H15104  10.243   0.834  -1.122 -1.0317 -0.0220  0.7199
  853MOL0     H15105  10.383   0.867  -1.020 -1.8879 -4.8680  1.1104
  853MOL0     H15106  10.446   1.107  -0.969  0.0030 -5.2883 -1.5821
  853MOL0     H15107  10.434   1.414  -1.204  0.8285  2.2763  0.8838
  853MOL0     H15108  10.304   1.445  -1.081 -0.9977 -0.6628 -1.8126
  853MOL0     H15109  10.582   1.319  -1.008  1.1066  1.8827 -3.0794
  853MOL0     H15110  10.481   1.394  -0.881 -2.2248  2.8786 -0.7272
  853MOL0     H15111  10.661   1.522  -1.088  1.3448  0.9145  0.4444
  853MOL0     H15112  10.668   1.519  -0.912  1.3871 -1.4954 -1.2463
  853MOL0     H15113  10.463   1.669  -1.084  0.8781  0.4819 -0.7575
  853MOL0     H15114  10.592   1.741  -1.011  0.5001  0.1790 -2.4453
  853MOL0     H15115  10.697   1.777  -0.839  1.1089  1.8985  0.0176
  853MOL0     H15116  10.818   1.977  -0.558  0.1011  2.8604 -2.4610
  853MOL0     H15117  10.893   1.826  -0.617 -0.4578 -0.6532  3.7461
  853MOL0     H15118  10.835   1.951  -0.727  0.5387  2.0084  1.8547
  853MOL0     H15119  10.717   1.770  -0.123 -1.1775  2.6207  4.6493
  853MOL0     H15120  10.846   1.822   0.090  2.9288  1.0056  1.2666
  853MOL0     H15121  10.951   1.975   0.244 -0.8290  1.9821 -4.0176
  853MOL0     H15122  11.009   1.818   0.236  0.9244  0.0459 -3.4827
  853MOL0     H15123  11.172   2.031   0.360 -0.5037  0.9475 -0.7715
  853MOL0     H15124  11.091   1.904   0.426 -3.1091 -2.3288 -0.4647
  853MOL0     H15125  11.318   1.833   0.230  0.3213 -0.7188  0.1124
  853MOL0     H15126  11.216   1.724   0.321  1.5802 -1.6447 -1.2092
  853MOL0     H15127  11.429   1.905   0.431 -0.8434  0.1606 -2.4405
  853MOL0     H15128  11.287   1.848   0.521 -1.7046 -1.4279 -0.3480
  853MOL0     H15129  11.494   1.683   0.356  0.5357  1.5160  1.5803
  853MOL0     H15130  11.369   1.609   0.452 -0.0946  0.2091 -0.1627
  853MOL0     H15131  11.487   1.759   0.656  4.2205 -1.2323  4.3054
  853MOL0     H15132  11.575   1.619   0.605  1.9006 -0.1798 -2.3438
  853MOL0     H15133  11.628   1.904   0.504 -0.3391 -0.3054 -0.2992
  853MOL0     H15134  11.702   1.749   0.438  1.9983  1.1368  0.2468
  853MOL0     H15135  11.802   1.696   0.652 -4.9208 -2.2581  1.8841
  853MOL0     H15136  11.737   1.834   0.737 -1.7062 -1.5048 -0.9754
  853MOL0     H15137  11.130   2.040  -0.144 -0.1481  0.0924 -0.1661
  853MOL0     H15138  11.014   1.970  -0.350 -1.6338 -1.0926 -1.6674
  853MOL0     H15139  10.438   1.696  -0.417  0.4782  3.3307  2.0148
  853MOL0     H15140  10.330   1.649  -0.645 -0.4248  0.0498 -1.2508
  853MOL0     H15141  10.070   0.652  -0.054 -2.9485 -0.0839 -2.5434
  853MOL0     H15142  10.018   0.650   0.193  1.1769 -1.1480 -1.2648
  853MOL0     H15143   9.823   0.895   0.627 -1.2154 -0.2069  0.1109
  853MOL0     H15144   9.725   0.810   0.821  0.3202  1.2867 -0.0005
  853MOL0     H15145   9.627   0.610   1.012 -1.1238 -1.3073 -0.4151
  853MOL0     H15146   9.565   0.777   0.977 -1.9329  0.7791 -0.1112
  853MOL0     H15147   9.335   0.682   0.974 -2.3823  1.4804  2.5182
  853MOL0     H15148   9.427   0.683   1.131  0.3383  0.3394 -0.0384
  853MOL0     H15149   9.485   0.453   1.114  1.5550 -0.7861 -0.4911
  853MOL0     H15150   9.417   0.438   0.953 -0.9620  0.4291 -0.3560
  853MOL0     H15151   9.247   0.521   1.177  1.5480 -0.4890 -0.1581
  853MOL0     H15152   9.254   0.344   1.123 -5.7033 -0.4574 -1.9609
  853MOL0     H15153   9.035   0.496   0.794 -0.4627 -0.4697  0.0682
  853MOL0     H15154   9.446   0.585   0.590  2.0367 -1.1111  0.7048
  853MOL0     H15155   9.528   0.694   0.381  0.1604  1.7213 -0.5238
  854MOL0     O15156   7.080   4.433   1.880 -0.5168 -0.0985 -0.1304
  854MOL0     C15157   6.979   4.485   1.928  0.0547 -0.4316 -0.1179
  854MOL0     O15158   6.855   4.473   1.883 -0.5725  0.0223 -0.0338
  854MOL0     C15159   6.812   4.360   1.818 -0.0527 -0.2503  0.3102
  854MOL0     C15160   6.697   4.382   1.749 -0.4345  0.9083  0.4748
  854MOL0     C15161   6.665   4.288   1.650 -0.8441  0.1689 -0.3199
  854MOL0     C15162   6.733   4.161   1.642 -0.0014 -0.0047 -0.0978
  854MOL0     O15163   6.671   4.073   1.561 -0.2956 -0.2284 -0.3612
  854MOL0     C15164   6.717   3.942   1.547 -0.6489 -0.4326  0.4715
  854MOL0     C15165   6.636   3.870   1.442  0.3293 -0.4797 -0.4212
  854MOL0     C15166   6.678   3.903   1.302  0.8090  0.1688 -0.5473
  854MOL0     C15167   6.754   3.787   1.241  0.0839  0.8590 -0.4372
  854MOL0     C15168   6.851   3.832   1.129 -1.2966  0.8211  0.2396
  854MOL0     C15169   6.912   3.700   1.077 -0.5581 -0.1281  0.4637
  854MOL0     C15170   7.008   3.710   0.950  0.7570  0.4481  0.6858
  854MOL0     C15171   7.066   3.575   0.927  0.3777  0.1925  0.1060
  854MOL0     N15172   7.175   3.586   0.832  0.7953  0.2521 -0.3145
  854MOL0     C15173   7.171   3.597   0.693  0.3697  0.3961  0.2556
  854MOL0     C15174   7.301   3.563   0.659  1.2490 -0.2179  0.2693
  854MOL0     C15175   7.360   3.544   0.521 -0.5211 -0.1182  0.7143
  854MOL0     C15176   7.353   3.678   0.431 -0.3766  0.2950 -1.0686
  854MOL0     C15177   7.382   3.656   0.288 -0.5698 -0.1609 -0.0821
  854MOL0     C15178   7.533   3.638   0.267 -0.2852 -0.1318  0.0192
  854MOL0     O15179   7.581   3.640   0.125 -0.6722 -0.2095  0.4232
  854MOL0     C15180   7.711   3.593   0.095 -0.0643  0.4213  0.6720
  854MOL0     C15181   7.745   3.588  -0.043  0.5186  0.4284  0.0309
  854MOL0     C15182   7.871   3.556  -0.083  0.2755 -0.5198 -0.3622
  854MOL0     C15183   7.895   3.546  -0.232 -0.5184  0.3639 -0.0268
  854MOL0     C15184   7.973   3.527   0.016 -0.2630  0.5199 -0.1792
  854MOL0     C15185   8.113   3.483  -0.016  0.3743  0.3199 -0.3774
  854MOL0     O15186   8.145   3.416  -0.133 -0.4147  0.0987  0.1171
  854MOL0     C15187   8.280   3.397  -0.171 -0.7498 -0.7044 -0.6352
  854MOL0     C15188   8.323   3.273  -0.210  0.3040  0.1281 -0.4061
  854MOL0     C15189   8.450   3.251  -0.251  0.4975  0.4572  0.3959
  854MOL0     C15190   8.544   3.352  -0.253 -0.0091 -1.8202 -1.4260
  854MOL0     O15191   8.668   3.319  -0.310 -0.6384  0.4258 -0.0013
  854MOL0     C15192   8.787   3.370  -0.240 -0.2498  0.4071 -0.3887
  854MOL0     C15193   8.898   3.270  -0.279  1.3529  0.7235 -1.0818
  854MOL0     C15194   9.028   3.292  -0.207 -0.1793  0.0725 -0.8609
  854MOL0     C15195   9.132   3.191  -0.269  0.3359  0.0560 -0.2087
  854MOL0     C15196   9.252   3.156  -0.163 -0.1303  0.0847  0.0210
  854MOL0     C15197   9.299   3.292  -0.097 -0.2451 -0.4591  0.4250
  854MOL0     C15198   9.422   3.283  -0.009 -1.1684 -0.7888 -0.2528
  854MOL0     C15199   9.559   3.293  -0.080 -0.2417  0.0347  0.0114
  854MOL0    Cl15200   9.697   3.287   0.043 -0.0646  0.4246 -0.4140
  854MOL0     C15201   8.517   3.475  -0.203  0.2656 -0.3127 -0.3071
  854MOL0     C15202   8.380   3.498  -0.169 -0.5929 -0.5362 -0.5775
  854MOL0     O15203   8.197   3.525   0.069  0.1224 -0.7294 -0.4926
  854MOL0     C15204   7.940   3.535   0.150  0.2352 -0.1590  0.6663
  854MOL0     C15205   7.809   3.571   0.188 -0.5211  0.2587 -0.1636
  854MOL0     N15206   7.380   3.541   0.772  0.4259  0.3635 -0.9578
  854MOL0     N15207   7.298   3.563   0.867 -0.7220  0.1501 -0.3943
  854MOL0     C15208   6.832   4.130   1.740 -0.6869 -0.6200 -0.3098
  854MOL0     C15209   6.878   4.235   1.817 -0.2908  0.5924 -0.9390
  854MOL0     C15210   7.002   4.596   2.026  0.5464  0.0150  0.3021
  854MOL0     C15211   7.124   4.647   2.058  0.5511  0.6728 -0.0912
  854MOL0     C15212   7.141   4.762   2.145 -0.2613  0.2333  1.4407
  854MOL0     C15213   7.030   4.816   2.210 -0.1750 -0.3562  0.2039
  854MOL0     O15214   7.051   4.919   2.298  0.1818 -0.4816 -0.6400
  854MOL0     C15215   7.055   5.053   2.232  0.4192  0.0749 -1.0781
  854MOL0     C15216   6.913   5.098   2.208 -0.9210  0.0558  0.7150
  854MOL0     C15217   6.837   5.126   2.341  0.2446  0.0298  0.0817
  854MOL0     C15218   6.699   5.150   2.323  0.9928 -0.0163  0.5412
  854MOL0     C15219   6.673   5.258   2.225 -0.5745  0.2299  0.7655
  854MOL0     C15220   6.655   5.349   2.148  0.2453  0.5028  0.9438
  854MOL0     C15221   6.909   4.755   2.183 -0.7251 -0.8093 -1.1833
  854MOL0     C15222   6.890   4.646   2.099 -0.5002  1.2035 -1.4869
  854MOL0     H15223   6.658   4.483   1.749  2.8238  2.3327  3.1673
  854MOL0     H15224   6.596   4.310   1.569 -2.3681 -3.6466 -0.2693
  854MOL0     H15225   6.822   3.946   1.516 -0.5711 -1.6924  0.5066
  854MOL0     H15226   6.704   3.895   1.645 -0.9576  3.1595  2.3078
  854MOL0     H15227   6.652   3.767   1.473  0.0985  0.3158  2.7514
  854MOL0     H15228   6.531   3.889   1.463  0.8913  2.6570  0.1608
  854MOL0     H15229   6.590   3.922   1.239  1.8349 -1.1617 -2.5138
  854MOL0     H15230   6.740   3.993   1.298  2.4169 -0.6467  3.0271
  854MOL0     H15231   6.813   3.747   1.324 -1.9888 -1.3402  0.0925
  854MOL0     H15232   6.688   3.708   1.204  2.7596 -2.2902  1.0487
  854MOL0     H15233   6.780   3.873   1.056 -0.9399 -0.4717 -0.8734
  854MOL0     H15234   6.926   3.907   1.155  1.1310 -1.2769 -0.3628
  854MOL0     H15235   6.963   3.650   1.160 -1.5550 -4.1837 -1.1705
  854MOL0     H15236   6.837   3.629   1.042  1.6259 -1.2815 -2.1669
  854MOL0     H15237   6.945   3.736   0.865 -1.3538 -0.8878  1.7555
  854MOL0     H15238   7.082   3.787   0.974  0.8127  0.3568  0.8144
  854MOL0     H15239   6.993   3.508   0.882 -0.0338  0.1459  0.8240
  854MOL0     H15240   7.110   3.531   1.017  2.7632  0.6275 -0.7721
  854MOL0     H15241   7.085   3.610   0.628  1.3115 -3.6522 -2.1493
  854MOL0     H15242   7.468   3.526   0.531 -0.7424 -3.7220 -1.6273
  854MOL0     H15243   7.326   3.453   0.472  0.2907 -0.1525  0.1952
  854MOL0     H15244   7.410   3.765   0.465 -1.4342 -0.3368  2.8791
  854MOL0     H15245   7.250   3.714   0.434  0.2851  2.2390  0.6223
  854MOL0     H15246   7.338   3.736   0.229  2.5023 -1.1580 -4.1989
  854MOL0     H15247   7.336   3.561   0.258  1.9534 -1.0531 -1.4518
  854MOL0     H15248   7.563   3.549   0.324 -0.3921 -0.0390  0.2229
  854MOL0     H15249   7.590   3.714   0.321  0.3113 -1.9707  2.0960
  854MOL0     H15250   7.672   3.620  -0.116  2.4003  0.4909 -1.9159
  854MOL0     H15251   7.983   3.601  -0.268 -0.5793 -1.1119 -2.6252
  854MOL0     H15252   7.911   3.442  -0.262  0.1613 -0.8282  3.8724
  854MOL0     H15253   7.806   3.581  -0.284  1.4351  0.3454 -3.6743
  854MOL0     H15254   8.242   3.201  -0.211  1.1192 -0.8297  0.6776
  854MOL0     H15255   8.482   3.150  -0.273 -0.6253 -0.4651  2.7560
  854MOL0     H15256   8.808   3.470  -0.277  0.1362 -0.2236 -1.9539
  854MOL0     H15257   8.777   3.371  -0.131  1.2718 -1.4851 -0.1700
  854MOL0     H15258   8.870   3.166  -0.257 -0.9700  1.7669  1.5175
  854MOL0     H15259   8.913   3.285  -0.386  1.5934 -0.4434 -1.2331
  854MOL0     H15260   9.021   3.268  -0.101  3.3498  1.3221 -0.2027
  854MOL0     H15261   9.059   3.395  -0.225  2.9052 -0.7283 -0.6379
  854MOL0     H15262   9.084   3.096  -0.295  0.9806  0.1596 -1.9031
  854MOL0     H15263   9.169   3.235  -0.362 -2.0775  3.2019  0.1817
  854MOL0     H15264   9.333   3.110  -0.220  0.5046 -0.9080  1.6531
  854MOL0     H15265   9.221   3.086  -0.084  0.2641  3.7415  3.8046
  854MOL0     H15266   9.308   3.367  -0.176 -1.5687 -1.1113 -0.3747
  854MOL0     H15267   9.216   3.318  -0.030 -2.5132 -0.7960 -2.0942
  854MOL0     H15268   9.416   3.192   0.052  0.5167 -1.2251 -0.6982
  854MOL0     H15269   9.427   3.366   0.062  2.8460 -0.1784 -0.9861
  854MOL0     H15270   9.566   3.389  -0.133  1.7614 -0.5285 -0.8182
  854MOL0     H15271   9.576   3.209  -0.148  0.8122  0.4478 -0.2483
  854MOL0     H15272   8.591   3.554  -0.196  1.1080 -1.1807  0.9294
  854MOL0     H15273   8.344   3.592  -0.128 -1.6955 -1.7439  1.3851
  854MOL0     H15274   8.007   3.521   0.234  2.3606  0.1655 -0.8862
  854MOL0     H15275   7.778   3.598   0.289 -1.0768  2.2773 -0.8196
  854MOL0     H15276   6.876   4.032   1.757 -0.1710 -0.4878 -0.8248
  854MOL0     H15277   6.953   4.223   1.895 -1.1845 -0.2260 -0.1756
  854MOL0     H15278   7.214   4.611   2.009  0.4988  0.7279 -0.2274
  854MOL0     H15279   7.240   4.805   2.157 -0.6373  0.7379  2.9086
  854MOL0     H15280   7.112   5.131   2.284  0.0850  1.3509 -2.5633
  854MOL0     H15281   7.100   5.031   2.135  0.5528 -0.8993 -0.8100
  854MOL0     H15282   6.878   5.021   2.138  0.7974  2.1848 -2.7810
  854MOL0     H15283   6.921   5.192   2.152  1.2727 -2.6122 -4.0431
  854MOL0     H15284   6.885   5.208   2.396  1.9400 -1.3649  0.7652
  854MOL0     H15285   6.840   5.041   2.410  1.5919 -1.4073 -1.6790
  854MOL0     H15286   6.661   5.183   2.420  2.7919  2.0362  0.6441
  854MOL0     H15287   6.648   5.062   2.282  2.7679 -0.6486 -0.4192
  854MOL0     H15288   6.637   5.431   2.081  0.8518  0.0637  0.2180
  854MOL0     H15289   6.827   4.802   2.238  1.1566  1.9143 -0.5106
  854MOL0     H15290   6.790   4.605   2.089  0.1219 -0.3967 -1.5328
  855MOL0     O15291   7.266   1.931   6.560  0.2135  0.0477 -0.5537
  855MOL0     C15292   7.377   1.898   6.601  0.0727  0.0588 -0.5624
  855MOL0     O15293   7.431   1.771   6.593  0.6411 -0.4816 -0.4006
  855MOL0     C15294   7.374   1.680   6.502 -0.1972  0.4755 -0.3148
  855MOL0     C15295   7.371   1.554   6.545 -0.8357 -0.1983  0.0315
  855MOL0     C15296   7.310   1.458   6.472 -0.4364  0.4650  0.5121
  855MOL0     C15297   7.252   1.484   6.345  0.6204 -0.5550  0.4775
  855MOL0     O15298   7.205   1.385   6.261 -0.0233 -0.1382  0.8533
  855MOL0     C15299   7.274   1.367   6.132  0.5303  0.5981 -1.5427
  855MOL0     C15300   7.326   1.220   6.127  0.3997 -0.7893 -0.0728
  855MOL0     C15301   7.442   1.194   6.029  0.1739 -0.9307 -0.2328
  855MOL0     C15302   7.384   1.124   5.904 -0.3511 -0.1758  0.1669
  855MOL0     C15303   7.487   1.094   5.790  0.6926  0.3607 -0.0110
  855MOL0     C15304   7.421   0.996   5.687  0.1813 -0.0714  0.2826
  855MOL0     C15305   7.523   0.956   5.577 -0.2257 -0.1832 -0.3544
  855MOL0     C15306   7.562   0.808   5.598  0.2875  0.0458  0.4568
  855MOL0     N15307   7.455   0.704   5.576 -0.1047 -1.0987 -0.2220
  855MOL0     C15308   7.338   0.726   5.519  0.1271  0.2051 -1.0403
  855MOL0     C15309   7.266   0.609   5.541 -0.6426  0.6630 -0.7286
  855MOL0     C15310   7.123   0.576   5.498  0.3805  0.0488  0.1470
  855MOL0     C15311   7.016   0.649   5.583  0.1279 -0.1221  0.8260
  855MOL0     C15312   7.014   0.611   5.734 -0.2117 -0.3288  0.4427
  855MOL0     C15313   6.995   0.735   5.826  0.1634  0.7393  0.5934
  855MOL0     O15314   6.889   0.820   5.772 -0.2667  0.1197  0.4847
  855MOL0     C15315   6.874   0.946   5.817 -0.4037  0.2041  0.0575
  855MOL0     C15316   6.755   0.974   5.888  0.0561 -0.1459  0.6949
  855MOL0     C15317   6.732   1.103   5.939 -0.5769  1.1798 -0.8022
  855MOL0     C15318   6.607   1.124   6.026  0.2356 -0.5350  0.0639
  855MOL0     C15319   6.830   1.206   5.916 -0.3469  0.0882  0.0460
  855MOL0     C15320   6.830   1.340   5.985  0.6138  0.5620  0.3344
  855MOL0     O15321   6.916   1.438   5.927  0.4289 -0.6039 -0.0666
  855MOL0     C15322   6.899   1.564   5.975  0.2699  0.2451 -0.1384
  855MOL0     C15323   6.822   1.657   5.898  0.5418 -0.0163 -0.1730
  855MOL0     C15324   6.799   1.788   5.935 -0.6786  0.8735  0.0448
  855MOL0     C15325   6.870   1.840   6.053  1.6392 -0.2653  0.0334
  855MOL0     O15326   6.847   1.976   6.087 -0.2569  0.6325  0.3905
  855MOL0     C15327   6.892   2.036   6.205 -0.2508  0.0963  0.0223
  855MOL0     C15328   6.806   2.012   6.324 -0.6598  0.6286  0.3577
  855MOL0     C15329   6.887   2.036   6.450 -0.0964  1.2160 -0.3130
  855MOL0     C15330   6.918   2.180   6.489 -0.9748 -0.7742 -0.1309
  855MOL0     C15331   7.000   2.179   6.625 -0.3086 -0.3731 -0.5267
  855MOL0     C15332   7.016   2.322   6.671  0.4114  0.0894  0.0816
  855MOL0     C15333   7.063   2.322   6.805 -0.5497 -0.2533  0.6606
  855MOL0     C15334   7.079   2.464   6.851  0.5225  0.0526  0.3032
  855MOL0    Cl15335   6.923   2.545   6.884  0.3433  0.0049 -0.0060
  855MOL0     C15336   6.949   1.750   6.128 -0.2574  0.4833 -0.2708
  855MOL0     C15337   6.957   1.615   6.090  0.2754 -0.9522 -0.1100
  855MOL0     O15338   6.784   1.343   6.102 -0.4934  0.1068 -0.9619
  855MOL0     C15339   6.941   1.172   5.827  0.3721 -0.2186 -0.4724
  855MOL0     C15340   6.960   1.038   5.783  0.4041 -0.1925 -0.1029
  855MOL0     N15341   7.352   0.512   5.600  0.1782 -0.9556  0.4724
  855MOL0     N15342   7.462   0.573   5.614  0.1391  0.7362 -0.4511
  855MOL0     C15343   7.264   1.614   6.294 -0.0739  0.2168  0.7100
  855MOL0     C15344   7.317   1.711   6.378 -0.2970  0.4623 -0.8244
  855MOL0     C15345   7.464   2.005   6.642 -0.2067 -0.1127 -1.1749
  855MOL0     C15346   7.604   2.013   6.619 -0.0278 -0.8299 -0.6749
  855MOL0     C15347   7.664   2.138   6.645 -0.0263 -0.3708  0.7399
  855MOL0     C15348   7.593   2.241   6.688  0.3101 -0.4358  0.2929
  855MOL0     O15349   7.669   2.356   6.695  0.9865 -0.6726  0.4295
  855MOL0     C15350   7.608   2.473   6.759  0.9781 -0.1514 -0.2860
  855MOL0     C15351   7.528   2.580   6.675 -0.1372  0.7733 -0.0929
  855MOL0     C15352   7.423   2.649   6.761  1.5495  0.2534 -0.9064
  855MOL0     C15353   7.463   2.780   6.811  0.3263  0.1550  0.2695
  855MOL0     C15354   7.449   2.883   6.714  0.5923 -1.2225  0.5360
  855MOL0     C15355   7.449   2.967   6.627  0.8681 -0.0144  0.2418
  855MOL0     C15356   7.465   2.230   6.714  1.0218 -0.2275 -0.0499
  855MOL0     C15357   7.399   2.110   6.703 -0.0780 -0.1060 -1.0949
  855MOL0     H15358   7.420   1.524   6.637  1.5202  2.9702  0.0016
  855MOL0     H15359   7.311   1.356   6.508 -1.4549  0.4850  0.6410
  855MOL0     H15360   7.207   1.382   6.047 -1.4184 -0.0738 -0.1934
  855MOL0     H15361   7.357   1.438   6.122  0.7742  0.2603 -1.9950
  855MOL0     H15362   7.378   1.197   6.220  0.3575  0.2755  0.2293
  855MOL0     H15363   7.246   1.147   6.116  0.3629 -0.8360  0.4794
  855MOL0     H15364   7.479   1.293   5.999 -2.8921 -0.7281 -4.2006
  855MOL0     H15365   7.517   1.130   6.075  2.4299 -0.6162 -3.1234
  855MOL0     H15366   7.355   1.024   5.935  1.8369 -1.5124 -1.8274
  855MOL0     H15367   7.292   1.173   5.868 -0.7462 -1.4143 -0.5358
  855MOL0     H15368   7.502   1.194   5.748 -1.3083  0.1747 -1.3306
  855MOL0     H15369   7.575   1.051   5.838 -2.0015 -2.3517  2.9324
  855MOL0     H15370   7.397   0.913   5.754  0.0038 -0.0990  0.1856
  855MOL0     H15371   7.327   1.030   5.643  0.7251 -1.3213 -2.0215
  855MOL0     H15372   7.484   0.973   5.476  1.2172 -2.4266 -1.3629
  855MOL0     H15373   7.613   1.017   5.587  0.1864 -1.0127  1.5004
  855MOL0     H15374   7.608   0.802   5.697  2.8633  0.1677 -0.6488
  855MOL0     H15375   7.643   0.789   5.527  1.6990  3.5944  0.8734
  855MOL0     H15376   7.305   0.821   5.480  1.0630  0.8807 -0.2286
  855MOL0     H15377   7.097   0.590   5.393 -2.5043 -2.4813  0.3794
  855MOL0     H15378   7.120   0.470   5.525  0.3580  0.5856  2.5048
  855MOL0     H15379   6.917   0.641   5.539  0.8044 -0.2333 -0.7327
  855MOL0     H15380   7.047   0.754   5.572  1.7647 -0.7247 -0.7638
  855MOL0     H15381   7.111   0.575   5.769 -1.2276  0.5481  4.7068
  855MOL0     H15382   6.934   0.537   5.736 -1.6477  1.0904 -0.9306
  855MOL0     H15383   7.089   0.790   5.816  1.7680 -2.2652 -3.8864
  855MOL0     H15384   6.971   0.695   5.926  1.9982 -1.7839  0.1325
  855MOL0     H15385   6.684   0.896   5.912  0.1629  0.2817  2.5402
  855MOL0     H15386   6.625   1.113   6.133  0.4671  0.6583  0.1652
  855MOL0     H15387   6.561   1.223   6.014 -3.1668 -1.9525  0.2319
  855MOL0     H15388   6.530   1.055   5.989 -1.4857  2.3800 -2.2742
  855MOL0     H15389   6.772   1.616   5.811 -1.7804  0.7521  0.7189
  855MOL0     H15390   6.726   1.851   5.885 -1.9145 -2.2607 -2.4647
  855MOL0     H15391   6.996   2.005   6.222 -0.1647  1.3620  2.2802
  855MOL0     H15392   6.905   2.144   6.193 -0.2638  0.0040 -0.8450
  855MOL0     H15393   6.725   2.085   6.317 -0.1365  1.0684 -3.3546
  855MOL0     H15394   6.771   1.908   6.329  0.5060 -0.1281 -3.5405
  855MOL0     H15395   6.977   1.974   6.439 -0.7158  0.4008 -0.8565
  855MOL0     H15396   6.827   1.993   6.531 -1.8965  4.2724  0.1185
  855MOL0     H15397   6.965   2.245   6.416 -2.4903 -0.0643 -0.4992
  855MOL0     H15398   6.823   2.229   6.512 -1.3794 -2.4016  2.0254
  855MOL0     H15399   7.094   2.131   6.596 -1.0001 -1.7415 -0.5960
  855MOL0     H15400   6.946   2.124   6.703 -1.1702  0.0482 -0.8024
  855MOL0     H15401   7.084   2.370   6.600  1.4581 -0.5284  0.6378
  855MOL0     H15402   6.920   2.373   6.661 -2.1857 -4.4965 -1.4718
  855MOL0     H15403   7.163   2.279   6.810  1.5232  3.6870 -1.5151
  855MOL0     H15404   6.996   2.274   6.876  0.6613  1.8663  3.4440
  855MOL0     H15405   7.130   2.520   6.772 -1.0157 -0.7724 -1.3680
  855MOL0     H15406   7.148   2.466   6.935  1.7429 -0.7889 -0.6412
  855MOL0     H15407   6.998   1.790   6.217 -2.0558 -1.4514  1.6854
  855MOL0     H15408   7.009   1.549   6.159 -0.4982 -1.4400  0.0182
  855MOL0     H15409   7.027   1.235   5.808 -0.4277  1.1133  0.1947
  855MOL0     H15410   7.051   1.022   5.727  0.1491 -0.7357 -0.3739
  855MOL0     H15411   7.234   1.649   6.196 -0.3180  2.1977  1.4501
  855MOL0     H15412   7.316   1.811   6.335 -1.9051  1.0595  0.5085
  855MOL0     H15413   7.665   1.933   6.579  0.4472 -1.5835  1.4368
  855MOL0     H15414   7.773   2.128   6.644 -0.1515 -3.2319  2.4746
  855MOL0     H15415   7.549   2.431   6.841  1.1409 -1.4731 -0.8162
  855MOL0     H15416   7.691   2.528   6.804  1.1140  0.2214 -0.9729
  855MOL0     H15417   7.483   2.527   6.590 -0.7523  0.1892  0.5811
  855MOL0     H15418   7.589   2.650   6.617 -0.7431  0.0873 -1.6192
  855MOL0     H15419   7.386   2.584   6.841  1.7398  0.1493 -0.9027
  855MOL0     H15420   7.336   2.653   6.694 -0.8947 -1.4914  1.9113
  855MOL0     H15421   7.565   2.787   6.848  0.3938  1.1390 -0.0882
  855MOL0     H15422   7.395   2.802   6.895 -2.2933 -1.5378 -1.2380
  855MOL0     H15423   7.461   3.035   6.546  0.4455  1.7229  1.5909
  855MOL0     H15424   7.410   2.322   6.732 -2.3036 -1.4153 -3.0001
  855MOL0     H15425   7.294   2.105   6.729  0.3166  3.3233  2.1100
  856MOL0     O15426   1.217   8.369   5.656  0.2387  1.1227  0.5666
  856MOL0     C15427   1.095   8.340   5.660  0.0941  0.0047 -0.1818
  856MOL0     O15428   1.001   8.422   5.610 -0.1885  0.0875 -0.8426
  856MOL0     C15429   1.039   8.508   5.499 -0.6823 -0.5035 -0.0037
  856MOL0     C15430   1.099   8.468   5.379 -0.0538  0.2135  0.4458
  856MOL0     C15431   1.106   8.559   5.266  0.2905  0.4386 -0.1141
  856MOL0     C15432   1.063   8.686   5.277  0.6174  0.0416 -0.2988
  856MOL0     O15433   1.079   8.786   5.190 -0.3573 -0.6412  0.3439
  856MOL0     C15434   1.167   8.776   5.076  0.0494  0.0075 -0.0890
  856MOL0     C15435   1.316   8.779   5.121  0.4566  0.1246 -0.5818
  856MOL0     C15436   1.396   8.848   5.018 -0.5489 -1.2698  0.7458
  856MOL0     C15437   1.552   8.821   5.002  0.0274 -0.5174  0.2936
  856MOL0     C15438   1.607   8.880   4.875  0.0549  0.9928 -0.0730
  856MOL0     C15439   1.621   8.774   4.766 -0.6480  0.4072  0.7002
  856MOL0     C15440   1.701   8.829   4.648 -0.3717 -0.6833 -0.7042
  856MOL0     C15441   1.710   8.721   4.538 -0.1273  0.0491  0.2582
  856MOL0     N15442   1.767   8.785   4.423 -0.4298 -0.4986 -0.0916
  856MOL0     C15443   1.899   8.823   4.392  0.0345  0.3842  0.0409
  856MOL0     C15444   1.888   8.919   4.300 -0.5742  0.1818 -0.2374
  856MOL0     C15445   2.005   8.987   4.249 -0.0915 -0.3582 -0.2724
  856MOL0     C15446   1.992   9.141   4.218  0.2884  0.2662 -0.0186
  856MOL0     C15447   1.899   9.178   4.097  0.6161 -0.7208 -0.5907
  856MOL0     C15448   1.913   9.332   4.070  0.3753 -0.1770  0.0368
  856MOL0     O15449   2.027   9.343   3.988 -0.0652  0.3811  0.0295
  856MOL0     C15450   2.017   9.437   3.897  0.3304 -0.4787 -0.2265
  856MOL0     C15451   1.955   9.564   3.923  0.5071 -0.2057  1.5385
  856MOL0     C15452   1.957   9.663   3.825 -0.2668 -0.0457  0.5753
  856MOL0     C15453   1.879   9.785   3.840 -0.3006 -0.8734  0.4661
  856MOL0     C15454   2.023   9.634   3.700  0.0806 -0.3749  0.1603
  856MOL0     C15455   2.048   9.730   3.598 -0.7664  0.2085 -0.2732
  856MOL0     O15456   2.170   9.796   3.615  0.1564  0.8799 -0.3370
  856MOL0     C15457   2.228   9.869   3.512 -0.6433 -0.4375 -0.5095
  856MOL0     C15458   2.309   9.818   3.405  0.8158  0.6762 -0.2925
  856MOL0     C15459   2.371   9.889   3.310  0.2657 -0.2775 -0.5403
  856MOL0     C15460   2.364  10.033   3.320 -0.6036  0.4091  0.3611
  856MOL0     O15461   2.436  10.121   3.253 -0.4397  0.0706  0.8442
  856MOL0     C15462   2.469  10.074   3.118 -0.2290  0.1639  0.1480
  856MOL0     C15463   2.496  10.190   3.027 -0.4550  0.3504  0.0509
  856MOL0     C15464   2.540  10.148   2.889 -0.2216 -0.4769  0.4260
  856MOL0     C15465   2.452  10.055   2.812  0.2884  0.6654 -0.6406
  856MOL0     C15466   2.503  10.065   2.667  0.4057 -0.4316 -0.1042
  856MOL0     C15467   2.433   9.970   2.565 -0.1557  0.4524  0.5696
  856MOL0     C15468   2.501   9.829   2.558  0.3784  0.0696 -0.3669
  856MOL0     C15469   2.503   9.763   2.420  0.1722 -0.0448 -0.0467
  856MOL0    Cl15470   2.333   9.757   2.354  0.2094 -0.0098  0.3907
  856MOL0     C15471   2.285  10.088   3.424 -0.2449 -0.4669 -0.9101
  856MOL0     C15472   2.208  10.008   3.519  0.0767  0.2590 -0.6825
  856MOL0     O15473   1.984   9.716   3.492 -0.9516 -0.0560  0.2625
  856MOL0     C15474   2.071   9.504   3.677  0.0332  0.4124  0.3417
  856MOL0     C15475   2.066   9.405   3.775  0.5896  1.1944 -0.4648
  856MOL0     N15476   1.757   8.934   4.266  0.8001  0.1097  0.5030
  856MOL0     N15477   1.685   8.854   4.334  0.0221  1.1346 -0.0927
  856MOL0     C15478   1.021   8.736   5.403 -0.1632  0.5475  0.5801
  856MOL0     C15479   1.004   8.643   5.509 -0.9738 -0.3305 -0.5751
  856MOL0     C15480   1.053   8.212   5.716  0.3055 -1.0017  1.2109
  856MOL0     C15481   1.144   8.106   5.746 -0.1637 -0.7868  0.2680
  856MOL0     C15482   1.089   7.991   5.809  0.0693  0.4743  0.1992
  856MOL0     C15483   0.950   7.972   5.836  1.2083  0.2081  0.9276
  856MOL0     O15484   0.891   7.871   5.902 -0.9254  0.2837  0.2314
  856MOL0     C15485   0.962   7.747   5.886 -0.0091  0.5964 -0.9421
  856MOL0     C15486   0.869   7.651   5.959 -0.5773  1.3250  0.5540
  856MOL0     C15487   0.896   7.508   5.941 -0.4656  0.6448  0.4807
  856MOL0     C15488   0.811   7.431   6.039  0.3204  0.0789  0.4174
  856MOL0     C15489   0.864   7.291   6.047  0.0123 -1.0750  0.0920
  856MOL0     C15490   0.896   7.176   6.061  0.2657 -0.3044  0.0401
  856MOL0     C15491   0.863   8.072   5.792 -0.2907  0.0059 -0.1439
  856MOL0     C15492   0.911   8.195   5.741 -0.3657  0.2785  0.0558
  856MOL0     H15493   1.116   8.362   5.366  0.0946  0.4126 -1.2495
  856MOL0     H15494   1.125   8.509   5.172 -1.3560 -6.7031  2.6554
  856MOL0     H15495   1.143   8.685   5.021 -1.2672  0.6726 -0.6396
  856MOL0     H15496   1.153   8.864   5.013  0.9181 -0.3690 -0.8283
  856MOL0     H15497   1.332   8.825   5.219  0.5768  0.8283 -0.9252
  856MOL0     H15498   1.346   8.674   5.116  1.3478  0.2222  1.5604
  856MOL0     H15499   1.349   8.835   4.920  1.6239  0.6863 -0.6533
  856MOL0     H15500   1.389   8.956   5.036 -1.5971 -1.3112  0.6770
  856MOL0     H15501   1.605   8.864   5.088 -2.4346 -3.4634  3.6038
  856MOL0     H15502   1.572   8.713   5.002  0.8545 -0.3860  1.3089
  856MOL0     H15503   1.531   8.948   4.836 -0.8610 -0.7248 -1.4345
  856MOL0     H15504   1.695   8.943   4.893  1.0606 -1.0412  2.7839
  856MOL0     H15505   1.688   8.694   4.799 -0.6111  0.0315 -0.2460
  856MOL0     H15506   1.532   8.721   4.732  0.6157 -0.0096 -2.3132
  856MOL0     H15507   1.651   8.920   4.613 -1.5574  0.1590  2.7669
  856MOL0     H15508   1.801   8.852   4.685  0.7433  0.3058 -3.9716
  856MOL0     H15509   1.610   8.692   4.502 -0.6890  1.6509  0.4412
  856MOL0     H15510   1.766   8.632   4.568  2.3852  1.8667  1.2617
  856MOL0     H15511   1.994   8.801   4.440  2.8273  3.2685 -3.5163
  856MOL0     H15512   2.081   8.985   4.328  0.0259  2.4616 -0.2033
  856MOL0     H15513   2.043   8.946   4.156 -3.1130  0.4800 -2.0288
  856MOL0     H15514   2.096   9.160   4.187  0.5566 -2.3217 -0.9445
  856MOL0     H15515   1.959   9.197   4.306  0.3020  1.3275 -0.6649
  856MOL0     H15516   1.794   9.147   4.106  0.4144  0.2095  0.4974
  856MOL0     H15517   1.936   9.134   4.004 -1.8279  0.4584 -2.2157
  856MOL0     H15518   1.922   9.406   4.150 -1.8329 -0.3646  0.5442
  856MOL0     H15519   1.825   9.363   4.013  1.0818  1.3379 -0.2656
  856MOL0     H15520   1.916   9.581   4.023 -1.6802  0.2626  0.6718
  856MOL0     H15521   1.924   9.839   3.923  1.1839  1.4095 -1.6814
  856MOL0     H15522   1.888   9.850   3.752  3.5813 -3.9972 -1.8062
  856MOL0     H15523   1.773   9.771   3.862 -0.5369  0.9061  0.5455
  856MOL0     H15524   2.337   9.715   3.422 -2.0841 -0.5390 -2.0416
  856MOL0     H15525   2.424   9.835   3.232  1.7688 -3.8454  2.5830
  856MOL0     H15526   2.556  10.010   3.128 -0.5381 -0.0161  2.0868
  856MOL0     H15527   2.393  10.009   3.074  0.4331 -2.0429  2.0596
  856MOL0     H15528   2.416  10.263   3.013  0.2019  1.0085 -0.3918
  856MOL0     H15529   2.585  10.240   3.067  0.0123  1.8670 -2.6100
  856MOL0     H15530   2.641  10.106   2.898  0.0263  0.0904  0.3453
  856MOL0     H15531   2.541  10.238   2.826 -2.9589 -0.5353  0.1779
  856MOL0     H15532   2.465   9.956   2.856  1.1098  2.1000  2.5986
  856MOL0     H15533   2.344  10.076   2.812  0.5124  2.1364 -2.4890
  856MOL0     H15534   2.612  10.056   2.657  0.6662  0.6388  1.4527
  856MOL0     H15535   2.471  10.164   2.634  1.2863  0.1809  0.8165
  856MOL0     H15536   2.326   9.967   2.590  0.1035 -1.0130  1.6253
  856MOL0     H15537   2.457  10.004   2.464  2.2240 -1.2951  0.4700
  856MOL0     H15538   2.443   9.770   2.629 -1.9116  2.8712  0.2615
  856MOL0     H15539   2.601   9.826   2.604 -0.3299 -0.4286  1.2179
  856MOL0     H15540   2.540   9.662   2.442 -0.7141 -0.9098 -2.2255
  856MOL0     H15541   2.575   9.816   2.358  1.0710 -0.0098  0.9983
  856MOL0     H15542   2.289  10.196   3.436  0.6835 -0.6850  1.2143
  856MOL0     H15543   2.155  10.049   3.605 -0.1386 -0.6634 -0.3670
  856MOL0     H15544   2.126   9.469   3.590 -1.7386 -2.7745  0.3480
  856MOL0     H15545   2.102   9.303   3.763  1.6024  1.5111 -0.1991
  856MOL0     H15546   0.997   8.841   5.411  3.0896  1.5188 -0.8681
  856MOL0     H15547   0.964   8.688   5.600 -2.0080 -0.2840 -1.0376
  856MOL0     H15548   1.251   8.114   5.729 -0.5337  2.1483 -1.5077
  856MOL0     H15549   1.162   7.919   5.846 -0.8081 -0.6555 -0.2066
  856MOL0     H15550   0.980   7.719   5.781  2.5055  1.4506 -0.8182
  856MOL0     H15551   1.052   7.763   5.945  0.5126  1.9295 -2.0498
  856MOL0     H15552   0.764   7.664   5.931 -0.7649 -1.9574 -0.7792
  856MOL0     H15553   0.889   7.680   6.062  1.6380  4.1447 -0.5440
  856MOL0     H15554   1.001   7.478   5.943 -0.3732  0.9525  0.3725
  856MOL0     H15555   0.872   7.481   5.838 -0.6116  1.8461  0.1797
  856MOL0     H15556   0.704   7.432   6.015  0.3243 -3.0546 -0.2556
  856MOL0     H15557   0.820   7.471   6.140  1.3160 -1.1138  0.8290
  856MOL0     H15558   0.941   7.079   6.072 -0.8148 -0.8567 -0.3350
  856MOL0     H15559   0.756   8.065   5.806  0.0315 -1.5625  1.9971
  856MOL0     H15560   0.841   8.274   5.718 -2.0290 -0.8324  1.1022
  857MOL0     O15561   6.782   2.145   1.459 -0.4195 -0.3196 -0.9899
  857MOL0     C15562   6.791   2.019   1.461 -0.7107 -0.2516  0.2013
  857MOL0     O15563   6.696   1.933   1.423 -0.3706  0.1200 -0.2869
  857MOL0     C15564   6.569   1.968   1.377  0.0111 -0.4937  0.0106
  857MOL0     C15565   6.503   2.072   1.441 -0.2655 -0.0102 -0.5610
  857MOL0     C15566   6.369   2.107   1.419 -0.1317 -0.7274 -0.5189
  857MOL0     C15567   6.312   2.056   1.303 -0.2685 -0.7074  0.2778
  857MOL0     O15568   6.196   2.097   1.252 -0.7650 -0.3423 -0.5325
  857MOL0     C15569   6.093   2.139   1.331  0.4550 -0.7407  0.2494
  857MOL0     C15570   5.965   2.137   1.249  0.3262 -0.2636 -0.4520
  857MOL0     C15571   5.947   2.004   1.173  0.4949 -0.3784 -0.3562
  857MOL0     C15572   5.806   1.996   1.109 -0.6893 -0.2015  0.0287
  857MOL0     C15573   5.789   1.851   1.060 -0.7618  0.4116  0.3718
  857MOL0     C15574   5.663   1.827   0.975 -0.9047 -0.4405  0.0385
  857MOL0     C15575   5.699   1.851   0.830 -0.6484  0.0433  0.1385
  857MOL0     C15576   5.581   1.842   0.739  0.1623 -0.3510  0.0627
  857MOL0     N15577   5.619   1.851   0.600  0.3216 -0.6159 -0.6265
  857MOL0     C15578   5.691   1.764   0.523  0.2335  0.0095 -0.2922
  857MOL0     C15579   5.753   1.832   0.429 -0.1986 -0.5197  0.4538
  857MOL0     C15580   5.841   1.791   0.311 -0.6582 -0.0019 -0.4851
  857MOL0     C15581   5.995   1.780   0.357 -0.0358 -0.5728 -0.0798
  857MOL0     C15582   6.101   1.760   0.228  0.5228  1.1191 -0.4884
  857MOL0     C15583   6.238   1.722   0.265  0.0962 -0.4158 -0.4951
  857MOL0     O15584   6.314   1.708   0.143  0.4143 -0.5571  0.4185
  857MOL0     C15585   6.438   1.770   0.144  0.0775  0.7559  0.7023
  857MOL0     C15586   6.544   1.690   0.136 -0.0384 -0.1756 -0.0395
  857MOL0     C15587   6.679   1.731   0.146 -0.5058 -0.2503 -0.4975
  857MOL0     C15588   6.795   1.632   0.152  0.4474 -0.7439 -0.1172
  857MOL0     C15589   6.697   1.866   0.157  0.3978 -0.2191  0.9761
  857MOL0     C15590   6.824   1.932   0.190  0.3194  0.1122 -0.0224
  857MOL0     O15591   6.829   2.073   0.221  0.7375  0.4487  0.4497
  857MOL0     C15592   6.952   2.135   0.217 -0.7610  0.3250 -0.4734
  857MOL0     C15593   7.054   2.099   0.307  1.2032  0.4714 -0.5950
  857MOL0     C15594   7.166   2.183   0.328  0.8204 -0.6160 -0.5814
  857MOL0     C15595   7.181   2.297   0.243  0.8044  0.2249 -0.7942
  857MOL0     O15596   7.287   2.389   0.259  0.0594  0.8356 -0.1053
  857MOL0     C15597   7.334   2.407   0.398  0.4153 -0.5824  0.2508
  857MOL0     C15598   7.407   2.542   0.389 -0.0682  0.2401 -0.1845
  857MOL0     C15599   7.479   2.566   0.522 -0.0745 -0.6002 -0.1665
  857MOL0     C15600   7.534   2.712   0.504 -0.8314 -0.2820  0.7905
  857MOL0     C15601   7.645   2.750   0.597 -0.1417  0.0361 -0.4974
  857MOL0     C15602   7.612   2.714   0.743  0.0022  0.2608 -0.9995
  857MOL0     C15603   7.708   2.792   0.847  0.3016 -0.2949  0.7464
  857MOL0     C15604   7.724   2.935   0.813 -0.0712 -0.6967  0.3460
  857MOL0    Cl15605   7.817   3.015   0.955  0.3589 -0.0754  0.0514
  857MOL0     C15606   7.087   2.311   0.139  0.6488 -0.0818 -0.1862
  857MOL0     C15607   6.970   2.239   0.135  0.2086  0.1240  0.3841
  857MOL0     O15608   6.923   1.865   0.158  0.4847 -0.6129 -0.0546
  857MOL0     C15609   6.585   1.953   0.164 -0.1934 -0.5381 -1.0178
  857MOL0     C15610   6.459   1.907   0.150  0.7249 -1.4834  0.3988
  857MOL0     N15611   5.717   1.962   0.450  0.3244  0.0330 -0.0987
  857MOL0     N15612   5.637   1.975   0.548  1.4983  0.2149  0.5164
  857MOL0     C15613   6.375   1.953   1.232 -0.5598  0.1550 -0.3513
  857MOL0     C15614   6.507   1.904   1.270  0.6491 -1.0351  0.0130
  857MOL0     C15615   6.921   1.974   1.499  0.5592 -0.0633 -1.1588
  857MOL0     C15616   7.033   2.060   1.522 -0.1029  0.0937 -0.8184
  857MOL0     C15617   7.161   2.005   1.570 -0.0261 -0.7048 -0.2642
  857MOL0     C15618   7.167   1.864   1.579  0.1691  0.7111 -0.4916
  857MOL0     O15619   7.273   1.814   1.639  0.5133  0.0518 -0.0162
  857MOL0     C15620   7.306   1.674   1.627 -0.5272 -0.3096  0.7905
  857MOL0     C15621   7.262   1.601   1.752  0.2807 -0.0037 -0.0520
  857MOL0     C15622   7.284   1.452   1.735 -0.2419  0.0272  0.3259
  857MOL0     C15623   7.387   1.403   1.836 -0.2919  0.5802 -0.7614
  857MOL0     C15624   7.517   1.445   1.790  0.0841 -0.4009 -0.2182
  857MOL0     C15625   7.630   1.485   1.764  0.0917 -0.6631 -0.0212
  857MOL0     C15626   7.056   1.784   1.542 -0.6217  1.1333 -0.2106
  857MOL0     C15627   6.942   1.841   1.505  0.5356  0.0521  0.2322
  857MOL0     H15628   6.537   2.114   1.536 -6.0522 -2.3649  3.0942
  857MOL0     H15629   6.326   2.182   1.485 -0.1512 -1.5894  0.4744
  857MOL0     H15630   6.074   2.066   1.410  3.3309 -0.4036  1.3994
  857MOL0     H15631   6.100   2.239   1.375  0.6624  0.0676 -1.5400
  857MOL0     H15632   5.879   2.159   1.313  0.8758  1.3368 -0.2140
  857MOL0     H15633   5.975   2.217   1.175  2.8524 -1.0619 -1.0644
  857MOL0     H15634   6.024   1.986   1.098  0.9847  1.1459 -0.2566
  857MOL0     H15635   5.946   1.923   1.247 -0.8478 -2.0447 -2.1115
  857MOL0     H15636   5.727   2.013   1.183 -2.8566 -1.9949 -1.7567
  857MOL0     H15637   5.803   2.064   1.024  1.6862 -2.8359 -2.3641
  857MOL0     H15638   5.874   1.802   1.011  0.4441  2.4527  0.3016
  857MOL0     H15639   5.789   1.796   1.154  1.2941  0.3388  0.3785
  857MOL0     H15640   5.629   1.727   1.001 -0.9926 -0.2293  0.7667
  857MOL0     H15641   5.583   1.896   1.003 -0.0955  0.4641  0.1669
  857MOL0     H15642   5.750   1.946   0.810  2.9944 -1.3512  1.8732
  857MOL0     H15643   5.770   1.770   0.813  1.5646  0.5488  5.0947
  857MOL0     H15644   5.504   1.915   0.766  1.0119  1.4048 -1.9242
  857MOL0     H15645   5.543   1.741   0.753  1.8325 -0.6492  3.4183
  857MOL0     H15646   5.699   1.659   0.550  3.3277  0.8581  2.7204
  857MOL0     H15647   5.804   1.706   0.254 -3.5883  1.0397 -0.3175
  857MOL0     H15648   5.838   1.873   0.239 -2.3341 -0.2358 -0.7029
  857MOL0     H15649   5.998   1.688   0.416 -0.9468 -1.4009 -1.2557
  857MOL0     H15650   6.022   1.868   0.417  1.9899 -1.8012  0.9209
  857MOL0     H15651   6.101   1.852   0.170 -1.9983 -0.0508 -2.5511
  857MOL0     H15652   6.054   1.695   0.154 -1.2076  1.8856 -0.1203
  857MOL0     H15653   6.237   1.633   0.328  1.0705  1.8750  2.9987
  857MOL0     H15654   6.289   1.801   0.321 -1.4306 -0.8838  1.6976
  857MOL0     H15655   6.537   1.587   0.101 -4.9659 -0.9998  2.4215
  857MOL0     H15656   6.750   1.532   0.152 -1.9105  0.2490  0.0567
  857MOL0     H15657   6.857   1.657   0.066  1.9127  3.6659  1.8889
  857MOL0     H15658   6.848   1.630   0.248 -1.8240 -0.5926  1.2077
  857MOL0     H15659   7.043   2.012   0.372  0.0880  0.9171 -0.1704
  857MOL0     H15660   7.240   2.164   0.406  1.2592  1.8675 -0.3038
  857MOL0     H15661   7.255   2.410   0.473  1.0487  3.9617  0.9763
  857MOL0     H15662   7.411   2.333   0.421 -0.3467 -1.1928  0.8903
  857MOL0     H15663   7.487   2.533   0.316  0.7174  0.7908  0.5886
  857MOL0     H15664   7.342   2.623   0.356  2.1555  0.9820 -3.1372
  857MOL0     H15665   7.550   2.489   0.554 -1.8858 -1.7897  1.2355
  857MOL0     H15666   7.407   2.549   0.603 -1.1301 -0.4151 -1.0367
  857MOL0     H15667   7.576   2.719   0.403 -0.3725  2.0258  1.0763
  857MOL0     H15668   7.455   2.787   0.505  0.6753  1.6328 -3.0852
  857MOL0     H15669   7.668   2.857   0.589 -0.5775  0.9216  5.5794
  857MOL0     H15670   7.737   2.696   0.574  0.4632 -0.0033  1.7530
  857MOL0     H15671   7.510   2.738   0.774  0.9367  1.5666  1.3356
  857MOL0     H15672   7.619   2.605   0.756 -4.0800 -0.0698 -0.3547
  857MOL0     H15673   7.806   2.743   0.836 -1.4081 -3.4241 -3.1197
  857MOL0     H15674   7.664   2.791   0.947 -1.7273  0.4808 -0.1080
  857MOL0     H15675   7.633   2.992   0.791  1.6656  1.7588 -0.9669
  857MOL0     H15676   7.785   2.935   0.722 -1.3911 -1.6664 -0.5828
  857MOL0     H15677   7.106   2.386   0.063  0.9709 -1.7293 -1.8109
  857MOL0     H15678   6.904   2.274   0.056 -0.8542 -1.6271  0.4463
  857MOL0     H15679   6.590   2.062   0.166  0.1633 -0.5628 -0.4754
  857MOL0     H15680   6.375   1.975   0.141 -1.8824 -4.4134  1.1430
  857MOL0     H15681   6.334   1.903   1.144 -0.3895 -2.1230  0.7694
  857MOL0     H15682   6.558   1.817   1.232 -1.4590 -2.8407  1.0759
  857MOL0     H15683   7.021   2.168   1.518 -1.1858  0.1518  1.7818
  857MOL0     H15684   7.249   2.058   1.604 -0.7956  0.5758 -0.2367
  857MOL0     H15685   7.267   1.631   1.534  2.4279  1.9455 -1.7318
  857MOL0     H15686   7.414   1.662   1.621 -0.6014 -1.7233  1.8473
  857MOL0     H15687   7.158   1.621   1.780  0.0806  0.1939 -0.8942
  857MOL0     H15688   7.315   1.639   1.839 -0.2230 -0.4240  0.4507
  857MOL0     H15689   7.320   1.433   1.634 -1.7013 -0.8633 -0.0546
  857MOL0     H15690   7.194   1.390   1.735  0.0091 -0.3446  0.4680
  857MOL0     H15691   7.371   1.295   1.842 -1.5312  0.7567 -0.6675
  857MOL0     H15692   7.369   1.454   1.931 -0.1083 -0.5008 -0.1347
  857MOL0     H15693   7.733   1.513   1.753  0.6253 -0.4963  3.8745
  857MOL0     H15694   7.057   1.676   1.549 -0.9857  1.1099 -0.4792
  857MOL0     H15695   6.860   1.775   1.481  0.0033  1.1230 -1.0057
  858MOL0     O15696   1.799   6.825   4.077  0.5359 -0.5033  0.4561
  858MOL0     C15697   1.776   6.752   3.986 -0.2045  0.8793  0.1575
  858MOL0     O15698   1.705   6.645   3.988  0.3515  0.9152  0.3686
  858MOL0     C15699   1.640   6.583   4.097 -0.5668 -0.1509  0.3911
  858MOL0     C15700   1.614   6.455   4.064  0.1729  0.4310 -0.0351
  858MOL0     C15701   1.543   6.369   4.150 -0.1346 -0.1390 -0.1718
  858MOL0     C15702   1.493   6.419   4.276  0.3377  0.2607  0.1042
  858MOL0     O15703   1.421   6.331   4.361 -0.0488  0.1114  0.6095
  858MOL0     C15704   1.379   6.368   4.495 -0.8294 -0.1396 -0.6262
  858MOL0     C15705   1.301   6.246   4.563  0.1986 -0.2804  0.1747
  858MOL0     C15706   1.285   6.270   4.715  0.1661 -0.4888  0.1224
  858MOL0     C15707   1.404   6.243   4.808  0.0537  0.0755 -0.4732
  858MOL0     C15708   1.406   6.090   4.840  0.1841 -0.1361  1.0991
  858MOL0     C15709   1.495   6.056   4.956 -0.1965 -0.7740  0.2288
  858MOL0     C15710   1.642   6.079   4.934  0.2725 -0.3583  0.6214
  858MOL0     C15711   1.724   6.073   5.068 -0.3677  0.4189 -0.3825
  858MOL0     N15712   1.774   5.930   5.074  0.5997  0.0171 -0.1627
  858MOL0     C15713   1.904   5.916   5.049  0.0815 -0.0687  0.0559
  858MOL0     C15714   1.944   5.810   5.122  0.4409  0.5603 -1.1433
  858MOL0     C15715   2.085   5.755   5.132  0.3804 -1.2112 -0.0321
  858MOL0     C15716   2.109   5.645   5.034 -0.1371  0.0808 -0.1116
  858MOL0     C15717   2.074   5.670   4.885  0.2763  0.1993 -0.3804
  858MOL0     C15718   2.114   5.560   4.780  0.6085 -0.2168  0.9170
  858MOL0     O15719   2.009   5.576   4.687 -0.4881 -0.3135  0.4984
  858MOL0     C15720   1.906   5.494   4.680 -0.1733  0.4421  0.1072
  858MOL0     C15721   1.880   5.381   4.758 -0.6178  1.0903  0.4603
  858MOL0     C15722   1.774   5.287   4.720 -0.3174 -0.3024  0.4674
  858MOL0     C15723   1.745   5.173   4.818 -0.0409 -0.1738 -0.4612
  858MOL0     C15724   1.693   5.315   4.611 -0.1055  0.7793  1.1094
  858MOL0     C15725   1.574   5.241   4.569  0.1403  1.4844  0.9006
  858MOL0     O15726   1.548   5.133   4.635  0.3008  0.2075 -0.1828
  858MOL0     C15727   1.437   5.057   4.620  1.2749  0.1835 -0.1832
  858MOL0     C15728   1.308   5.104   4.593  0.0532  0.8953  0.4845
  858MOL0     C15729   1.200   5.014   4.593  0.0025 -0.2932  0.0223
  858MOL0     C15730   1.212   4.880   4.633 -0.2819  0.5860 -0.3912
  858MOL0     O15731   1.096   4.808   4.629 -0.0437  0.5163 -0.7463
  858MOL0     C15732   1.067   4.758   4.759 -0.0991  0.3516 -0.2592
  858MOL0     C15733   1.013   4.616   4.740  0.6435  0.3723  0.5719
  858MOL0     C15734   1.107   4.499   4.781 -0.0357 -0.4635 -0.1903
  858MOL0     C15735   1.031   4.366   4.763  0.1871  0.0436  0.2662
  858MOL0     C15736   1.102   4.242   4.824 -0.3013 -0.7255 -0.0978
  858MOL0     C15737   1.011   4.111   4.832 -0.4089  0.1328 -1.1880
  858MOL0     C15738   0.980   4.053   4.697 -0.5322  0.1602 -0.2895
  858MOL0     C15739   1.102   4.028   4.617 -0.2245  0.6679 -0.6318
  858MOL0    Cl15740   1.213   3.890   4.678  0.3496  0.3399  0.3557
  858MOL0     C15741   1.339   4.832   4.660 -0.4892  0.1913  2.0339
  858MOL0     C15742   1.448   4.918   4.654  0.0863  0.4108  0.5647
  858MOL0     O15743   1.507   5.278   4.474 -0.4141 -0.1076  0.2303
  858MOL0     C15744   1.726   5.431   4.531 -0.3303  0.9609  0.7829
  858MOL0     C15745   1.828   5.512   4.572  0.0512 -0.0650  0.0884
  858MOL0     N15746   1.837   5.764   5.193 -0.4658 -0.4039  0.4815
  858MOL0     N15747   1.732   5.831   5.164  0.7421 -0.5783  0.0501
  858MOL0     C15748   1.523   6.549   4.309  0.5282  0.3117  0.0711
  858MOL0     C15749   1.601   6.635   4.224  0.2411 -0.8012  1.0636
  858MOL0     C15750   1.865   6.765   3.867  0.1773  0.0611 -0.0601
  858MOL0     C15751   1.946   6.879   3.854 -0.3945  0.2686 -0.7598
  858MOL0     C15752   2.030   6.902   3.746  0.1156 -0.2976 -0.9474
  858MOL0     C15753   2.036   6.813   3.649  0.3595  0.6673  1.0640
  858MOL0     O15754   2.117   6.824   3.531 -0.7256  0.7480  0.0539
  858MOL0     C15755   2.194   6.945   3.525 -0.2826  0.0930  0.3684
  858MOL0     C15756   2.281   6.953   3.399 -0.1098  0.4627  0.6089
  858MOL0     C15757   2.208   6.942   3.268 -0.6094  0.1913 -0.0164
  858MOL0     C15758   2.105   7.063   3.247  0.7722 -0.5226  0.2588
  858MOL0     C15759   2.179   7.186   3.296  0.5161  0.0492 -0.0661
  858MOL0     C15760   2.235   7.284   3.332  0.3569 -1.6420 -0.0832
  858MOL0     C15761   1.981   6.695   3.671  0.5014 -0.3905 -0.0559
  858MOL0     C15762   1.894   6.658   3.778  1.2231 -0.3694  0.5977
  858MOL0     H15763   1.642   6.425   3.964  3.3132  3.7609 -0.3534
  858MOL0     H15764   1.522   6.267   4.118 -0.4274  0.1274 -0.8465
  858MOL0     H15765   1.463   6.387   4.561 -1.1054 -0.1918 -0.2591
  858MOL0     H15766   1.316   6.457   4.496  0.0621  0.4941  0.1469
  858MOL0     H15767   1.201   6.253   4.520  0.5132  0.0491 -0.5171
  858MOL0     H15768   1.346   6.148   4.544 -1.9303 -1.6538  1.7874
  858MOL0     H15769   1.248   6.372   4.727 -0.2116 -0.5977 -0.0943
  858MOL0     H15770   1.198   6.210   4.744  0.2687 -0.4910  0.4281
  858MOL0     H15771   1.494   6.285   4.762 -2.0201  3.4991 -1.8207
  858MOL0     H15772   1.380   6.297   4.900 -3.2337  0.4616 -1.4238
  858MOL0     H15773   1.301   6.064   4.859 -0.4190  0.3151 -1.3114
  858MOL0     H15774   1.449   6.035   4.755  2.5787  1.2346  1.3546
  858MOL0     H15775   1.454   6.111   5.041  2.0114  0.7082  0.3930
  858MOL0     H15776   1.478   5.952   4.986 -2.0567  0.0361  2.2983
  858MOL0     H15777   1.680   6.018   4.851  0.5035 -1.4329  1.4972
  858MOL0     H15778   1.645   6.184   4.902 -0.3731 -0.3897  0.4404
  858MOL0     H15779   1.664   6.100   5.156  2.5122 -0.8924  2.1684
  858MOL0     H15780   1.801   6.151   5.064  0.0039  0.2647  2.0740
  858MOL0     H15781   1.964   5.984   4.989 -2.8525  1.2469 -1.6557
  858MOL0     H15782   2.162   5.832   5.133  0.0714 -0.9056  0.5065
  858MOL0     H15783   2.094   5.706   5.230  1.2468  0.1410  0.5962
  858MOL0     H15784   2.047   5.559   5.060 -1.5999  0.8670 -0.8785
  858MOL0     H15785   2.217   5.625   5.034  0.5022  2.5677  3.2607
  858MOL0     H15786   2.110   5.773   4.874 -0.8489  1.2057  3.6101
  858MOL0     H15787   1.965   5.675   4.880  0.2335  0.3655  0.6048
  858MOL0     H15788   2.108   5.461   4.825 -1.8185  0.0478  1.2922
  858MOL0     H15789   2.205   5.584   4.724  1.4387 -3.2447  0.8037
  858MOL0     H15790   1.930   5.371   4.854  1.0843 -0.7405 -0.5326
  858MOL0     H15791   1.747   5.082   4.758  1.7788  0.5783 -1.6285
  858MOL0     H15792   1.820   5.157   4.897 -2.2980  1.3607  2.1723
  858MOL0     H15793   1.657   5.201   4.877  2.8536  4.7331  2.1648
  858MOL0     H15794   1.285   5.207   4.567 -0.8500  0.4486 -0.5932
  858MOL0     H15795   1.108   5.063   4.563  0.9992  3.5951  2.5673
  858MOL0     H15796   1.152   4.759   4.829  1.3487 -3.5532 -1.6491
  858MOL0     H15797   0.981   4.814   4.795  0.2344  1.6247 -1.3573
  858MOL0     H15798   0.921   4.607   4.799  0.4079 -4.1977 -0.1309
  858MOL0     H15799   0.977   4.614   4.636  0.8204  2.8387  0.3995
  858MOL0     H15800   1.148   4.502   4.882  0.8219 -1.8522 -0.4673
  858MOL0     H15801   1.196   4.480   4.720  1.6873 -0.9350  2.3115
  858MOL0     H15802   0.924   4.369   4.786  0.1796  1.1039  0.1486
  858MOL0     H15803   1.031   4.348   4.655  0.1575  0.1890  0.2427
  858MOL0     H15804   1.136   4.269   4.924  3.1735  2.5966 -1.9259
  858MOL0     H15805   1.194   4.226   4.768 -1.1766 -0.3347 -1.7055
  858MOL0     H15806   1.065   4.041   4.897  2.9874  2.1329 -1.5901
  858MOL0     H15807   0.917   4.139   4.880 -1.2776 -1.5973 -1.8151
  858MOL0     H15808   0.908   4.121   4.649 -2.1733 -0.4033  1.2534
  858MOL0     H15809   0.937   3.953   4.710  4.8810 -2.4532 -0.0753
  858MOL0     H15810   1.159   4.120   4.605 -1.2010  1.8759  2.9601
  858MOL0     H15811   1.068   4.008   4.514 -0.0946  0.0505 -0.5608
  858MOL0     H15812   1.351   4.725   4.678  1.3089 -0.3947 -1.6701
  858MOL0     H15813   1.547   4.878   4.677  1.6739  2.4166 -2.1883
  858MOL0     H15814   1.671   5.462   4.443  0.9073 -0.6485 -0.6297
  858MOL0     H15815   1.852   5.603   4.517  1.2367 -0.0857  0.5412
  858MOL0     H15816   1.481   6.605   4.393 -1.1531  2.2696 -1.9296
  858MOL0     H15817   1.632   6.738   4.235  0.1840 -0.0207 -3.8398
  858MOL0     H15818   1.945   6.958   3.928  1.3145 -0.8366  0.5092
  858MOL0     H15819   2.077   6.999   3.729 -1.2839  0.6051  0.0906
  858MOL0     H15820   2.119   7.022   3.545 -1.8125 -1.7995  2.4362
  858MOL0     H15821   2.266   6.941   3.607 -0.3215 -1.9651  0.3468
  858MOL0     H15822   2.338   6.860   3.398 -1.2292 -0.2525  0.8147
  858MOL0     H15823   2.352   7.036   3.398 -0.4991  0.8798  2.5574
  858MOL0     H15824   2.161   6.844   3.258  3.4938 -1.7792 -2.9521
  858MOL0     H15825   2.282   6.935   3.188 -2.6545 -1.4965 -1.8706
  858MOL0     H15826   2.006   7.053   3.293  2.1037 -4.0879  2.7548
  858MOL0     H15827   2.083   7.071   3.140 -0.8096 -1.5832  0.4669
  858MOL0     H15828   2.284   7.374   3.362 -0.0017 -1.5104  0.1083
  858MOL0     H15829   1.990   6.621   3.592  2.1451 -0.7894  0.4612
  858MOL0     H15830   1.852   6.558   3.783  1.1747 -0.3890 -0.0796
  859MOL0     O15831   4.279   7.313   0.252 -0.5891 -0.1604 -0.2390
  859MOL0     C15832   4.202   7.399   0.300 -0.1690  0.4589  0.3929
  859MOL0     O15833   4.071   7.427   0.259 -0.5953 -0.7829  0.4286
  859MOL0     C15834   4.044   7.438   0.126  0.7462 -0.2439 -0.4163
  859MOL0     C15835   3.964   7.546   0.086  0.3183 -0.5226 -0.3944
  859MOL0     C15836   3.954   7.581  -0.053  0.5248 -1.1750 -0.6939
  859MOL0     C15837   3.993   7.491  -0.152  0.4539  0.1242 -0.3065
  859MOL0     O15838   3.951   7.515  -0.281 -0.4012 -0.2918  0.4838
  859MOL0     C15839   3.923   7.399  -0.365 -0.8576  0.1087  0.9016
  859MOL0     C15840   3.974   7.438  -0.503 -0.5135 -1.7876  0.3318
  859MOL0     C15841   3.939   7.336  -0.605  0.5324 -0.3275 -0.2776
  859MOL0     C15842   4.023   7.211  -0.592 -0.0567 -0.1825 -0.2787
  859MOL0     C15843   3.966   7.102  -0.683 -0.2592  0.5940  0.4371
  859MOL0     C15844   3.939   7.153  -0.831 -0.1361  0.1008  0.4076
  859MOL0     C15845   3.920   7.029  -0.921  0.4781  0.2726  0.8224
  859MOL0     C15846   3.878   7.053  -1.068  0.7204  0.2274  1.3430
  859MOL0     N15847   3.796   6.942  -1.128  1.0723 -0.3550  0.0653
  859MOL0     C15848   3.843   6.824  -1.199  0.1542 -0.8554  0.6896
  859MOL0     C15849   3.736   6.744  -1.214 -0.0034  0.0820 -0.4861
  859MOL0     C15850   3.746   6.604  -1.264 -0.1395  0.6285 -0.6895
  859MOL0     C15851   3.835   6.571  -1.387 -0.4278  0.5818 -0.5743
  859MOL0     C15852   3.848   6.682  -1.486  0.5045 -0.0039  0.2525
  859MOL0     C15853   3.717   6.710  -1.557 -0.5514 -0.5162  0.4009
  859MOL0     O15854   3.736   6.800  -1.664  0.2443  0.1494 -0.3588
  859MOL0     C15855   3.754   6.928  -1.636 -0.6934  0.5127 -0.1691
  859MOL0     C15856   3.707   6.994  -1.525 -0.3118  0.8699 -0.1438
  859MOL0     C15857   3.728   7.128  -1.508  0.4659 -0.2304  0.1427
  859MOL0     C15858   3.682   7.178  -1.376  0.6522 -1.4231 -0.1866
  859MOL0     C15859   3.807   7.200  -1.603  0.4575 -0.1834 -0.1556
  859MOL0     C15860   3.852   7.334  -1.581 -0.5078  0.0390 -0.2338
  859MOL0     O15861   3.866   7.386  -1.453  0.3927  0.1708  0.3295
  859MOL0     C15862   3.906   7.515  -1.442 -0.3246 -0.3589  0.2566
  859MOL0     C15863   4.035   7.544  -1.399  0.1952 -0.5674 -0.9224
  859MOL0     C15864   4.071   7.677  -1.366  0.1392  0.3462  0.2373
  859MOL0     C15865   3.975   7.775  -1.381 -0.2643 -1.5322  0.2367
  859MOL0     O15866   4.018   7.903  -1.363  0.6546  0.3862 -0.0327
  859MOL0     C15867   3.940   7.958  -1.258  1.0633 -0.3479  0.8176
  859MOL0     C15868   4.021   8.028  -1.149 -0.2656 -0.6121 -0.5770
  859MOL0     C15869   4.095   7.931  -1.060 -1.0146  0.1727 -0.0812
  859MOL0     C15870   4.243   7.953  -1.069 -0.3373  0.0290 -0.9148
  859MOL0     C15871   4.303   7.835  -0.994 -0.8586 -0.3764  0.1811
  859MOL0     C15872   4.454   7.815  -1.023 -0.1439  1.3434  0.3052
  859MOL0     C15873   4.526   7.690  -0.956 -0.0754 -0.4462  0.7321
  859MOL0     C15874   4.679   7.685  -0.984  0.6093  0.4346 -0.3948
  859MOL0    Cl15875   4.744   7.522  -0.937  0.3572  0.1233  0.0270
  859MOL0     C15876   3.848   7.744  -1.439 -0.3898 -0.3840  0.3921
  859MOL0     C15877   3.806   7.615  -1.463  0.0548 -0.6747 -0.5286
  859MOL0     O15878   3.895   7.400  -1.683  0.2879 -0.2158 -0.7188
  859MOL0     C15879   3.853   7.130  -1.716 -0.2107 -0.1340 -0.9774
  859MOL0     C15880   3.833   6.992  -1.725  0.5280 -0.2434  0.1169
  859MOL0     N15881   3.626   6.801  -1.157  0.3496 -0.0329 -0.0115
  859MOL0     N15882   3.660   6.920  -1.105 -0.6130 -0.1747 -0.4174
  859MOL0     C15883   4.082   7.384  -0.113 -0.2571  0.5528 -0.4286
  859MOL0     C15884   4.109   7.360   0.024 -0.3881  0.0311  0.4181
  859MOL0     C15885   4.256   7.453   0.426 -0.1914  0.8285  0.1846
  859MOL0     C15886   4.384   7.418   0.491  0.2000  0.0096 -1.1401
  859MOL0     C15887   4.411   7.469   0.617  0.3800  0.7620 -0.5299
  859MOL0     C15888   4.317   7.551   0.691 -0.1566  0.7587  0.4582
  859MOL0     O15889   4.355   7.604   0.819  0.3617 -0.2494  1.0832
  859MOL0     C15890   4.257   7.615   0.925  0.7067 -0.1618  0.6437
  859MOL0     C15891   4.241   7.483   1.005 -0.0341 -1.1691  0.8448
  859MOL0     C15892   4.377   7.434   1.051  0.2380 -0.4641 -0.2898
  859MOL0     C15893   4.448   7.537   1.134  0.1049 -0.8872  1.0032
  859MOL0     C15894   4.376   7.567   1.262  0.1958 -0.0344 -0.3318
  859MOL0     C15895   4.308   7.582   1.365  0.2544 -0.3460  1.1000
  859MOL0     C15896   4.198   7.582   0.628 -0.2132 -0.0807  1.0397
  859MOL0     C15897   4.167   7.537   0.495  0.8444 -0.3873  0.2474
  859MOL0     H15898   3.914   7.590   0.172 -1.2266  1.7829 -2.3305
  859MOL0     H15899   3.889   7.667  -0.070  0.7419 -0.5697  1.2423
  859MOL0     H15900   3.984   7.315  -0.331 -0.5885 -0.7630 -1.5271
  859MOL0     H15901   3.822   7.356  -0.375  0.9160 -4.0995 -2.6903
  859MOL0     H15902   3.930   7.535  -0.528  1.9822 -0.6156  0.2640
  859MOL0     H15903   4.083   7.448  -0.502 -0.6449 -0.0321  0.2687
  859MOL0     H15904   3.832   7.314  -0.606 -0.1827  2.3946  2.2974
  859MOL0     H15905   3.962   7.390  -0.698  1.5387 -1.9274 -1.0140
  859MOL0     H15906   4.123   7.238  -0.627 -0.0591  0.6439  0.3262
  859MOL0     H15907   4.028   7.173  -0.490  2.0552 -0.8478 -0.5716
  859MOL0     H15908   4.038   7.021  -0.695 -0.7446  0.1476  0.5275
  859MOL0     H15909   3.871   7.070  -0.639 -0.9605  3.7091  1.4800
  859MOL0     H15910   3.840   7.198  -0.832  0.9382  2.6225 -0.1135
  859MOL0     H15911   4.015   7.223  -0.868 -1.3117  1.0854 -0.1993
  859MOL0     H15912   4.002   6.957  -0.922  0.8144  0.6219 -1.7468
  859MOL0     H15913   3.831   6.980  -0.880  0.0254 -2.8520 -3.3154
  859MOL0     H15914   3.962   7.063  -1.137 -0.9720  2.0715 -0.5481
  859MOL0     H15915   3.827   7.148  -1.084 -1.3830 -0.6273  2.5124
  859MOL0     H15916   3.946   6.803  -1.226  1.2463  1.8216  2.4006
  859MOL0     H15917   3.773   6.534  -1.185 -1.4223  0.3321 -0.4978
  859MOL0     H15918   3.645   6.583  -1.300 -0.8325  1.9637  0.4071
  859MOL0     H15919   3.790   6.485  -1.438 -1.8474  0.2761  1.0931
  859MOL0     H15920   3.937   6.548  -1.354 -0.7354  0.1263  0.0814
  859MOL0     H15921   3.917   6.649  -1.564  1.7380  3.6846 -0.4113
  859MOL0     H15922   3.886   6.775  -1.443 -0.2291 -0.8891  2.9977
  859MOL0     H15923   3.648   6.757  -1.486  0.0537  1.2446 -0.1433
  859MOL0     H15924   3.668   6.622  -1.601 -0.4656  1.4419 -4.1470
  859MOL0     H15925   3.650   6.943  -1.449 -1.0169  0.3428 -1.0018
  859MOL0     H15926   3.770   7.206  -1.316  0.8947 -0.5291 -0.9429
  859MOL0     H15927   3.624   7.271  -1.371  2.1843 -0.4523  4.3716
  859MOL0     H15928   3.626   7.107  -1.314  1.1689 -1.3247  0.4076
  859MOL0     H15929   4.102   7.464  -1.370  0.0473  0.6270  3.3353
  859MOL0     H15930   4.168   7.694  -1.321 -0.8074 -0.3181  2.7354
  859MOL0     H15931   3.886   8.034  -1.315  2.6768  1.2900  1.3754
  859MOL0     H15932   3.863   7.898  -1.209  0.2407  1.2316  1.5076
  859MOL0     H15933   4.097   8.085  -1.203  0.8137 -0.6082  0.8739
  859MOL0     H15934   3.946   8.085  -1.094 -1.3660  2.7186 -4.9819
  859MOL0     H15935   4.059   7.831  -1.085  0.5321 -0.8346  1.4992
  859MOL0     H15936   4.081   7.943  -0.952  3.3278 -1.8891  0.9190
  859MOL0     H15937   4.273   7.955  -1.174 -0.8170  1.1289 -1.0462
  859MOL0     H15938   4.277   8.045  -1.020  0.6643  1.2324 -3.6729
  859MOL0     H15939   4.255   7.739  -1.016  2.7732 -2.3147 -0.2242
  859MOL0     H15940   4.295   7.861  -0.888  0.8229 -1.3019  0.5804
  859MOL0     H15941   4.456   7.799  -1.131  0.6297 -1.2594  0.6428
  859MOL0     H15942   4.515   7.902  -0.997  0.8999  0.7676 -0.1369
  859MOL0     H15943   4.483   7.599  -1.000 -1.5423  0.9076 -0.7900
  859MOL0     H15944   4.510   7.701  -0.849  2.7583  1.7252  1.0586
  859MOL0     H15945   4.738   7.757  -0.926 -0.1188  1.0203 -0.3733
  859MOL0     H15946   4.681   7.696  -1.093 -6.1534 -2.2360 -1.2562
  859MOL0     H15947   3.782   7.830  -1.451  2.2083  1.9413  1.5357
  859MOL0     H15948   3.704   7.605  -1.499  0.9639 -3.0497 -2.7521
  859MOL0     H15949   3.899   7.181  -1.800  2.7201  0.4212  0.8132
  859MOL0     H15950   3.870   6.927  -1.804  0.9316  1.4574 -1.1578
  859MOL0     H15951   4.149   7.328  -0.178  0.7821  1.7771 -0.4547
  859MOL0     H15952   4.182   7.282   0.043 -0.9360 -0.9021 -1.1185
  859MOL0     H15953   4.472   7.370   0.449 -0.4470 -1.6387 -0.6461
  859MOL0     H15954   4.509   7.452   0.661 -0.8527 -0.7132  1.8329
  859MOL0     H15955   4.287   7.693   0.995  1.3032 -1.6441  2.1160
  859MOL0     H15956   4.166   7.654   0.879 -0.3974 -4.1417 -0.9170
  859MOL0     H15957   4.182   7.416   0.942 -0.1615 -1.8036  1.6299
  859MOL0     H15958   4.167   7.503   1.084 -0.8323 -0.2270 -0.1010
  859MOL0     H15959   4.433   7.403   0.962  2.8218  2.8178 -0.0085
  859MOL0     H15960   4.367   7.341   1.108 -0.2275 -0.1014  0.2293
  859MOL0     H15961   4.481   7.624   1.076  3.7601 -2.5261  0.3830
  859MOL0     H15962   4.546   7.493   1.148  0.6682 -0.6953 -1.7829
  859MOL0     H15963   4.237   7.583   1.445 -1.7210  0.3314 -0.5766
  859MOL0     H15964   4.123   7.645   0.676 -3.5179 -1.6641 -1.5865
  859MOL0     H15965   4.071   7.569   0.457  2.2549  0.4284 -3.0123
  860MOL0     O15966   6.883  10.227   2.144 -0.8549  0.0003 -0.7149
  860MOL0     C15967   6.924  10.326   2.083  0.7441 -0.1867 -0.2278
  860MOL0     O15968   6.835  10.390   1.996  0.3485 -0.1013 -0.3519
  860MOL0     C15969   6.707  10.347   2.010  0.4303  0.6241  0.3281
  860MOL0     C15970   6.637  10.412   2.116  0.1900 -0.0593  1.3124
  860MOL0     C15971   6.510  10.381   2.142  1.2912 -0.2912  0.5665
  860MOL0     C15972   6.434  10.289   2.066 -0.4775 -0.0346 -0.0207
  860MOL0     O15973   6.308  10.250   2.098 -0.0784  0.5909 -0.3633
  860MOL0     C15974   6.250  10.308   2.214 -0.8296  0.2179 -0.1361
  860MOL0     C15975   6.122  10.226   2.251 -0.1527  0.0877  0.1703
  860MOL0     C15976   6.003  10.326   2.274  0.3625  0.5584  0.1941
  860MOL0     C15977   5.886  10.242   2.323 -1.0219  1.3699  0.4267
  860MOL0     C15978   5.782  10.330   2.382  0.1971 -0.4447 -1.3677
  860MOL0     C15979   5.693  10.386   2.279  0.1897 -0.3565  0.1054
  860MOL0     C15980   5.555  10.438   2.328  0.3657  0.3303  0.2678
  860MOL0     C15981   5.468  10.497   2.224  0.3908 -0.4626 -0.0258
  860MOL0     N15982   5.337  10.509   2.278  0.4961  0.0745  0.0871
  860MOL0     C15983   5.309  10.570   2.387  0.5693 -0.2730 -0.0172
  860MOL0     C15984   5.183  10.559   2.412 -0.9807 -0.8029 -0.6275
  860MOL0     C15985   5.101  10.593   2.535 -0.8746 -0.1061 -0.5045
  860MOL0     C15986   5.061  10.469   2.604 -0.0034 -0.2473 -0.7422
  860MOL0     C15987   5.174  10.377   2.654  0.8477  0.3810  0.0610
  860MOL0     C15988   5.131  10.305   2.784 -0.0945  0.1393  0.6899
  860MOL0     O15989   5.019  10.217   2.770 -0.3787 -0.1056 -0.2884
  860MOL0     C15990   5.039  10.077   2.748  0.2313 -1.9785 -0.1113
  860MOL0     C15991   4.930   9.994   2.718  0.2217  0.7045  0.1097
  860MOL0     C15992   4.942   9.862   2.687 -0.0017 -0.1981  0.5200
  860MOL0     C15993   4.809   9.785   2.650  0.7453  0.0516  0.4040
  860MOL0     C15994   5.069   9.810   2.675  0.1137 -0.3731  0.2497
  860MOL0     C15995   5.090   9.663   2.649  0.1122 -0.8474 -0.0172
  860MOL0     O15996   5.049   9.580   2.746  0.7406 -0.4251 -0.0958
  860MOL0     C15997   5.062   9.438   2.727  0.2610 -0.2058  0.2930
  860MOL0     C15998   4.942   9.375   2.763 -0.4513 -0.0358  0.3822
  860MOL0     C15999   4.930   9.237   2.764 -1.0516 -0.8773  0.0869
  860MOL0     C16000   5.048   9.156   2.725  1.0495 -0.9398 -0.8642
  860MOL0     O16001   5.053   9.020   2.725  1.0641  0.8868 -0.7385
  860MOL0     C16002   4.952   8.956   2.811 -0.5079  0.2794  0.0642
  860MOL0     C16003   4.820   8.918   2.735 -0.8178 -0.7719  0.7114
  860MOL0     C16004   4.857   8.860   2.594 -0.6233 -0.7429 -0.4486
  860MOL0     C16005   4.740   8.775   2.545 -0.0991 -0.2107 -0.2355
  860MOL0     C16006   4.738   8.635   2.607  0.0406  1.5660  0.1086
  860MOL0     C16007   4.605   8.568   2.572 -0.3925 -0.1769 -0.4260
  860MOL0     C16008   4.605   8.501   2.439  0.9275 -0.7358  0.1828
  860MOL0     C16009   4.464   8.443   2.396 -0.0800  0.0243 -0.7192
  860MOL0    Cl16010   4.329   8.553   2.366 -0.1477  0.1829  0.4059
  860MOL0     C16011   5.163   9.222   2.678  0.0385  0.0672  0.0071
  860MOL0     C16012   5.170   9.362   2.681  0.2607 -0.4542  0.7792
  860MOL0     O16013   5.142   9.628   2.543 -0.6901  0.1664  0.1488
  860MOL0     C16014   5.178   9.890   2.692 -0.4208 -0.4705 -0.2168
  860MOL0     C16015   5.171  10.026   2.731 -0.3430  0.3976  0.4557
  860MOL0     N16016   5.132  10.478   2.321 -0.0854 -0.3430 -0.2998
  860MOL0     N16017   5.220  10.453   2.234  0.5314  0.1408  0.8811
  860MOL0     C16018   6.505  10.237   1.954  0.3295  0.1373  0.4365
  860MOL0     C16019   6.637  10.267   1.927  0.8784  0.6400 -0.4867
  860MOL0     C16020   7.059  10.369   2.119 -0.9000 -0.0934  0.0735
  860MOL0     C16021   7.119  10.485   2.065  0.0084 -0.6428  0.6612
  860MOL0     C16022   7.249  10.520   2.096  0.1041 -0.1776 -0.2728
  860MOL0     C16023   7.323  10.453   2.195 -0.1868 -0.4039 -0.6524
  860MOL0     O16024   7.452  10.494   2.233 -0.2018  0.2705 -0.9880
  860MOL0     C16025   7.485  10.627   2.231  0.1398  0.4458  0.8997
  860MOL0     C16026   7.627  10.651   2.268 -0.0243  0.4848  0.4670
  860MOL0     C16027   7.674  10.597   2.405 -0.1008  0.0809  0.1999
  860MOL0     C16028   7.591  10.667   2.510 -0.0266  0.5955 -0.6446
  860MOL0     C16029   7.634  10.629   2.640 -0.2975 -0.0594 -0.0791
  860MOL0     C16030   7.669  10.570   2.744  0.0950 -0.3664  1.6617
  860MOL0     C16031   7.256  10.358   2.270 -0.3867  1.1210 -0.4650
  860MOL0     C16032   7.123  10.322   2.244 -0.5557  0.3443  0.2696
  860MOL0     H16033   6.687  10.491   2.171 -1.1773  0.7664  1.4120
  860MOL0     H16034   6.475  10.420   2.238 -1.0895  2.9516 -1.4032
  860MOL0     H16035   6.315  10.306   2.302 -1.8988 -0.1205  0.6619
  860MOL0     H16036   6.228  10.411   2.184  4.2071  1.1917 -1.4906
  860MOL0     H16037   6.095  10.163   2.166  0.8141  2.0919 -1.6943
  860MOL0     H16038   6.137  10.160   2.338 -2.0326 -2.6384 -1.3902
  860MOL0     H16039   6.022  10.407   2.346 -0.9673  2.0753 -1.0913
  860MOL0     H16040   5.979  10.393   2.191 -3.1619  0.1136  0.7230
  860MOL0     H16041   5.844  10.173   2.250 -0.4057 -1.6706  2.7544
  860MOL0     H16042   5.932  10.166   2.387 -0.6533 -1.2979 -2.7174
  860MOL0     H16043   5.722  10.266   2.449 -0.3099 -1.2038 -2.4972
  860MOL0     H16044   5.823  10.412   2.441  0.4558  1.0318 -3.4928
  860MOL0     H16045   5.745  10.466   2.225  0.3101 -0.9061 -0.6152
  860MOL0     H16046   5.669  10.312   2.202 -1.1812 -0.7353  0.8726
  860MOL0     H16047   5.508  10.344   2.361  1.5586 -0.2571  0.3368
  860MOL0     H16048   5.571  10.498   2.418 -1.2426 -0.8802  1.4381
  860MOL0     H16049   5.473  10.428   2.139  0.8022  0.2572 -0.5944
  860MOL0     H16050   5.513  10.588   2.184 -0.9242  0.2478  0.0654
  860MOL0     H16051   5.377  10.613   2.460 -2.4096  0.7862  2.3154
  860MOL0     H16052   5.160  10.659   2.598 -0.2584 -1.4563  0.3818
  860MOL0     H16053   5.007  10.642   2.507 -1.8200 -0.9059  1.0960
  860MOL0     H16054   4.990  10.411   2.544 -0.7316  1.4057 -1.5153
  860MOL0     H16055   5.005  10.492   2.695 -2.7803 -4.0150 -1.2146
  860MOL0     H16056   5.265  10.435   2.673 -0.7968  2.1438  3.4812
  860MOL0     H16057   5.194  10.303   2.576  2.9209  1.0834 -0.1328
  860MOL0     H16058   5.101  10.378   2.860  1.5900  0.0029  1.5463
  860MOL0     H16059   5.215  10.263   2.841  1.9556 -2.2399 -3.5823
  860MOL0     H16060   4.831  10.038   2.723 -0.3086 -0.5736  2.3102
  860MOL0     H16061   4.796   9.760   2.544  1.2900 -1.7911  0.7431
  860MOL0     H16062   4.793   9.688   2.697 -1.3875  0.6672  1.0717
  860MOL0     H16063   4.730   9.852   2.686  1.2446  1.5124 -1.0613
  860MOL0     H16064   4.857   9.431   2.801 -2.6699 -3.6169  1.2352
  860MOL0     H16065   4.835   9.204   2.804 -2.9708  2.2823 -1.4507
  860MOL0     H16066   4.995   8.860   2.841 -1.6240 -0.5961 -1.0115
  860MOL0     H16067   4.937   9.018   2.900 -0.2347  2.6522 -1.4618
  860MOL0     H16068   4.754   8.857   2.797 -1.0568  0.9047  2.1855
  860MOL0     H16069   4.766   9.011   2.714  2.4501  0.8581 -1.4089
  860MOL0     H16070   4.940   8.790   2.606  1.4766  1.4297 -1.3562
  860MOL0     H16071   4.882   8.931   2.514 -0.3164  0.9111  1.0540
  860MOL0     H16072   4.653   8.838   2.567  2.2364  4.2195 -2.3587
  860MOL0     H16073   4.748   8.753   2.438 -0.0438 -1.5902  0.0376
  860MOL0     H16074   4.741   8.639   2.716  2.8855  1.5267  0.1089
  860MOL0     H16075   4.821   8.572   2.573 -1.8017 -0.9120 -0.0049
  860MOL0     H16076   4.577   8.492   2.645  0.1472  0.3821  0.3846
  860MOL0     H16077   4.527   8.645   2.577 -0.9257 -0.7908  1.8793
  860MOL0     H16078   4.682   8.424   2.434 -0.9799 -3.0288  3.2345
  860MOL0     H16079   4.621   8.572   2.357 -4.5058 -0.5359 -1.1438
  860MOL0     H16080   4.421   8.361   2.454 -0.6423 -1.2891 -2.8957
  860MOL0     H16081   4.485   8.402   2.297 -0.7573 -2.4380  0.0743
  860MOL0     H16082   5.259   9.174   2.664  0.3182  0.8290 -0.8323
  860MOL0     H16083   5.253   9.409   2.630 -0.6098 -1.5895 -1.9044
  860MOL0     H16084   5.278   9.852   2.674  0.3086  0.7753  1.0029
  860MOL0     H16085   5.261  10.087   2.736 -0.0064  0.0758 -1.3074
  860MOL0     H16086   6.465  10.168   1.881  1.5059 -1.5707  1.3422
  860MOL0     H16087   6.700  10.226   1.848  2.3481  2.1696 -0.1542
  860MOL0     H16088   7.060  10.541   1.994 -1.5572 -2.0050  0.8206
  860MOL0     H16089   7.302  10.604   2.053 -2.0828  2.2036  1.4016
  860MOL0     H16090   7.472  10.679   2.136 -1.5271 -0.8791  0.3421
  860MOL0     H16091   7.413  10.677   2.297 -0.6534 -0.4895  0.7635
  860MOL0     H16092   7.637  10.760   2.264 -1.4679  0.5769 -1.4622
  860MOL0     H16093   7.680  10.598   2.189 -2.9484  1.2325 -2.1800
  860MOL0     H16094   7.779  10.626   2.419 -0.8255  2.7590  0.7274
  860MOL0     H16095   7.666  10.491   2.430 -2.5305 -0.1438 -1.1965
  860MOL0     H16096   7.487  10.633   2.509  0.7608 -2.4905  2.7858
  860MOL0     H16097   7.603  10.772   2.481  0.0546  0.4659 -1.0996
  860MOL0     H16098   7.703  10.530   2.838  0.1249  0.1954  1.8919
  860MOL0     H16099   7.304  10.311   2.355 -0.9676  1.5526  0.1157
  860MOL0     H16100   7.085  10.247   2.311  0.6153 -0.7748 -0.2777
  861MOL0     O16101   7.453   7.081   5.815  0.3892  0.3122 -0.2606
  861MOL0     C16102   7.543   7.065   5.730  0.8342  0.3387 -0.4352
  861MOL0     O16103   7.630   7.159   5.688  0.3333  0.0143 -0.1863
  861MOL0     C16104   7.628   7.285   5.727  0.5871 -0.8767 -0.2626
  861MOL0     C16105   7.755   7.347   5.735 -0.2648  0.6835 -0.6468
  861MOL0     C16106   7.771   7.484   5.742  0.0901  0.2398  0.3062
  861MOL0     C16107   7.657   7.566   5.772 -0.1849  0.8581 -0.2797
  861MOL0     O16108   7.665   7.700   5.783  0.0050  0.0140 -0.1942
  861MOL0     C16109   7.763   7.744   5.886 -0.4951 -0.3104  0.5742
  861MOL0     C16110   7.719   7.887   5.920  0.0322  0.1160 -1.0541
  861MOL0     C16111   7.736   7.984   5.814 -0.2490  0.7506 -0.5172
  861MOL0     C16112   7.649   8.109   5.829 -1.4289  0.5363 -0.4686
  861MOL0     C16113   7.511   8.084   5.762 -0.5029  0.3857  0.3206
  861MOL0     C16114   7.402   8.194   5.801  0.5573 -0.7040  0.0830
  861MOL0     C16115   7.286   8.176   5.703  0.2485 -0.6122  0.4462
  861MOL0     C16116   7.321   8.269   5.578  0.1701 -0.2123 -0.0246
  861MOL0     N16117   7.225   8.261   5.464 -0.8181  0.4427  0.3764
  861MOL0     C16118   7.097   8.221   5.479  0.1627 -0.6723  0.1673
  861MOL0     C16119   7.031   8.259   5.360  0.0947  0.1793 -0.4308
  861MOL0     C16120   6.885   8.227   5.318  0.1994  0.1549  0.3497
  861MOL0     C16121   6.867   8.173   5.176  0.1762  0.6063 -0.4990
  861MOL0     C16122   6.968   8.058   5.163  0.5730  0.6154  0.5443
  861MOL0     C16123   6.961   7.957   5.046  0.0754  0.1424 -0.8060
  861MOL0     O16124   7.088   7.883   5.058  0.4230 -0.5930 -0.7004
  861MOL0     C16125   7.142   7.823   4.949 -0.5199  0.9318 -0.7630
  861MOL0     C16126   7.114   7.856   4.816 -0.0461  0.4902  0.7907
  861MOL0     C16127   7.189   7.794   4.706 -0.4439 -0.2240 -0.8698
  861MOL0     C16128   7.174   7.856   4.565 -0.2986 -1.0312 -0.3136
  861MOL0     C16129   7.279   7.699   4.741  0.0764  0.5842  0.7984
  861MOL0     C16130   7.353   7.623   4.640 -0.7308 -0.9470 -0.1694
  861MOL0     O16131   7.483   7.588   4.667  0.4740  0.3478 -0.1295
  861MOL0     C16132   7.568   7.538   4.567  0.0117  0.2085  0.0897
  861MOL0     C16133   7.577   7.606   4.445  0.3516  0.8051  1.0010
  861MOL0     C16134   7.683   7.570   4.360 -0.1114  0.1072  0.5925
  861MOL0     C16135   7.763   7.457   4.383 -0.0084 -0.2813 -0.8656
  861MOL0     O16136   7.860   7.424   4.296  0.0907 -0.0852 -0.3487
  861MOL0     C16137   7.920   7.299   4.293 -0.4869  1.1515 -0.2342
  861MOL0     C16138   8.020   7.293   4.404 -0.2373 -1.4174 -0.2469
  861MOL0     C16139   8.043   7.151   4.447 -0.4179  0.5582 -0.2970
  861MOL0     C16140   8.152   7.153   4.571  0.1122 -0.4050  0.1178
  861MOL0     C16141   8.240   7.021   4.567  0.2654  0.9441 -0.3443
  861MOL0     C16142   8.165   6.892   4.553  0.1589  0.1107 -0.1469
  861MOL0     C16143   8.258   6.770   4.568  0.5484 -0.5093  0.3927
  861MOL0     C16144   8.359   6.772   4.451 -0.2438  0.7274  0.4648
  861MOL0    Cl16145   8.275   6.727   4.309 -0.1433  0.3514 -0.6005
  861MOL0     C16146   7.733   7.382   4.495  0.2381 -0.5447 -0.1401
  861MOL0     C16147   7.640   7.428   4.589 -0.0987  1.2142 -0.8411
  861MOL0     O16148   7.283   7.581   4.546  0.0269  0.3497  0.3932
  861MOL0     C16149   7.304   7.656   4.868  0.0546 -0.0813 -0.4837
  861MOL0     C16150   7.238   7.719   4.973  0.0507 -0.7840 -1.1149
  861MOL0     N16151   7.119   8.311   5.288  1.3351 -0.1173  0.8939
  861MOL0     N16152   7.234   8.331   5.345  0.3223 -0.2800 -0.0798
  861MOL0     C16153   7.536   7.501   5.773  0.0989  0.1282 -0.1301
  861MOL0     C16154   7.516   7.367   5.745  0.7402  0.8180 -0.3214
  861MOL0     C16155   7.547   6.931   5.668 -0.6362  0.2698 -0.4352
  861MOL0     C16156   7.483   6.827   5.736  0.4736  0.7315 -0.2848
  861MOL0     C16157   7.492   6.693   5.696  0.6911 -0.7247 -0.1280
  861MOL0     C16158   7.557   6.658   5.576 -0.7309 -0.7004 -0.1218
  861MOL0     O16159   7.544   6.532   5.542  0.6129 -0.0661 -0.2176
  861MOL0     C16160   7.646   6.448   5.491  0.0175 -0.0504  0.4334
  861MOL0     C16161   7.624   6.311   5.552 -0.8499  0.1289  0.6525
  861MOL0     C16162   7.479   6.252   5.527 -0.1507 -0.7933  0.0569
  861MOL0     C16163   7.419   6.248   5.382  0.2406 -0.6300  0.3583
  861MOL0     C16164   7.484   6.132   5.309 -0.5489 -0.7993  0.3679
  861MOL0     C16165   7.552   6.054   5.246  0.6291 -0.3492 -0.5733
  861MOL0     C16166   7.615   6.761   5.507  0.4292 -0.0316  1.0127
  861MOL0     C16167   7.615   6.901   5.549 -0.8181 -0.9709 -0.9606
  861MOL0     H16168   7.844   7.285   5.727  0.2717  1.3018  0.3293
  861MOL0     H16169   7.869   7.526   5.723 -0.9940  1.7651 -2.5383
  861MOL0     H16170   7.755   7.684   5.978  0.4239 -1.4534 -0.0677
  861MOL0     H16171   7.863   7.739   5.844  0.2890 -0.3472  2.3586
  861MOL0     H16172   7.616   7.881   5.955  0.1112 -2.0634 -1.0779
  861MOL0     H16173   7.776   7.921   6.008  0.3832  1.4209 -1.7490
  861MOL0     H16174   7.844   8.002   5.808  0.2159 -1.4474  0.2539
  861MOL0     H16175   7.714   7.946   5.714  0.1473  1.0051 -0.7027
  861MOL0     H16176   7.623   8.133   5.932  2.7424  5.7052 -0.1241
  861MOL0     H16177   7.709   8.193   5.792  0.2709 -0.5720 -0.3370
  861MOL0     H16178   7.509   8.066   5.654 -1.6957 -0.4924  0.4720
  861MOL0     H16179   7.479   7.987   5.801 -2.4193  2.0077  3.1308
  861MOL0     H16180   7.369   8.181   5.904 -0.4263  0.3199 -0.0759
  861MOL0     H16181   7.444   8.295   5.788 -2.0362  0.1663 -2.7062
  861MOL0     H16182   7.263   8.079   5.657  2.0311 -0.9892  0.2793
  861MOL0     H16183   7.197   8.214   5.754 -1.3796  0.2583 -2.7418
  861MOL0     H16184   7.422   8.256   5.538 -1.2191 -1.2873 -3.5503
  861MOL0     H16185   7.324   8.374   5.610 -1.2961  0.4381 -1.8278
  861MOL0     H16186   7.035   8.166   5.549 -0.4576  0.0863  0.2277
  861MOL0     H16187   6.841   8.152   5.385  0.8801 -1.2820 -0.7704
  861MOL0     H16188   6.821   8.315   5.330 -0.2093  0.3606 -2.7224
  861MOL0     H16189   6.894   8.246   5.098 -0.2147  1.3461  0.0496
  861MOL0     H16190   6.764   8.143   5.154 -0.8883  1.7312  2.4253
  861MOL0     H16191   6.967   7.995   5.253  0.1440  0.9569  0.7793
  861MOL0     H16192   7.063   8.111   5.152  0.3770  0.9942  0.6603
  861MOL0     H16193   6.952   8.012   4.952  0.4199  3.0653  0.7601
  861MOL0     H16194   6.879   7.885   5.059  1.7410 -1.8104 -0.5762
  861MOL0     H16195   7.034   7.922   4.783 -0.3230 -0.5213 -0.6990
  861MOL0     H16196   7.102   7.825   4.489 -1.4339  4.0558 -1.7155
  861MOL0     H16197   7.161   7.964   4.570  5.0841 -0.1427  1.8874
  861MOL0     H16198   7.270   7.857   4.512 -0.3116  0.5115 -0.3651
  861MOL0     H16199   7.506   7.686   4.429 -1.9228 -1.6351 -2.6888
  861MOL0     H16200   7.690   7.631   4.271 -2.5552  0.8125  0.8056
  861MOL0     H16201   7.842   7.223   4.298 -1.9203  2.6388  2.8758
  861MOL0     H16202   7.968   7.273   4.198 -0.7701 -0.1171 -0.0456
  861MOL0     H16203   8.111   7.336   4.360  0.0139  0.1491  1.7044
  861MOL0     H16204   8.000   7.355   4.491  1.3930 -0.6119 -0.4114
  861MOL0     H16205   8.094   7.093   4.369  2.1624  1.9528  0.2421
  861MOL0     H16206   7.943   7.114   4.471 -1.3348  2.9938 -0.0545
  861MOL0     H16207   8.215   7.241   4.556 -1.3664  0.5839 -0.4987
  861MOL0     H16208   8.102   7.180   4.665 -2.8461  1.5592 -1.8449
  861MOL0     H16209   8.314   7.018   4.647  4.5440  3.9086 -3.6327
  861MOL0     H16210   8.290   7.032   4.470 -2.4488  0.3119 -1.8998
  861MOL0     H16211   8.092   6.882   4.634  1.7207 -2.2763  1.1051
  861MOL0     H16212   8.122   6.891   4.452 -0.5676  2.5403  0.0846
  861MOL0     H16213   8.212   6.671   4.561  2.4514 -1.3125 -2.2240
  861MOL0     H16214   8.309   6.776   4.665  1.8528  1.2879 -0.3313
  861MOL0     H16215   8.440   6.704   4.477 -1.8468 -1.8575 -0.9180
  861MOL0     H16216   8.383   6.876   4.429 -3.2567  1.1048 -1.6202
  861MOL0     H16217   7.786   7.288   4.509  2.9311  1.1360  2.1189
  861MOL0     H16218   7.622   7.373   4.681 -1.6136  1.8646 -0.7192
  861MOL0     H16219   7.374   7.576   4.888 -1.2349 -0.4538  3.4822
  861MOL0     H16220   7.271   7.685   5.071  3.6762  1.2720 -1.4830
  861MOL0     H16221   7.444   7.554   5.795 -0.6920 -0.6797 -1.3928
  861MOL0     H16222   7.419   7.318   5.745  2.4639 -3.1076 -3.5097
  861MOL0     H16223   7.425   6.850   5.824 -0.7471  1.3514 -1.2270
  861MOL0     H16224   7.449   6.605   5.743  0.0730  0.5907  1.9031
  861MOL0     H16225   7.632   6.427   5.384  0.7829 -3.1061  0.8445
  861MOL0     H16226   7.748   6.485   5.507  0.2655 -0.3218 -0.4353
  861MOL0     H16227   7.648   6.320   5.659  1.1604  1.8425  0.1152
  861MOL0     H16228   7.694   6.241   5.506 -4.3551 -1.8750 -2.2142
  861MOL0     H16229   7.402   6.310   5.579 -0.4888  0.3759 -1.6467
  861MOL0     H16230   7.476   6.151   5.568  0.8803 -0.7274  0.3172
  861MOL0     H16231   7.451   6.343   5.338  0.7982 -0.6990  0.6143
  861MOL0     H16232   7.310   6.242   5.374  0.1799 -1.2487  1.4544
  861MOL0     H16233   7.612   5.970   5.217  2.5704  0.2819  1.3763
  861MOL0     H16234   7.675   6.738   5.419 -2.4855  1.9362 -1.7145
  861MOL0     H16235   7.673   6.973   5.493 -1.0462  0.2634  0.3506
  862MOL0     O16236   5.703   4.119   8.823 -1.0976  0.6052 -0.2041
  862MOL0     C16237   5.580   4.143   8.814  0.2310 -1.0927 -0.4953
  862MOL0     O16238   5.519   4.275   8.828  0.2049  0.8264 -0.6680
  862MOL0     C16239   5.609   4.381   8.824  0.1244  0.4467  0.8892
  862MOL0     C16240   5.594   4.465   8.719  0.8548 -0.8347  1.2554
  862MOL0     C16241   5.673   4.583   8.704  0.5095 -0.5343 -0.6873
  862MOL0     C16242   5.772   4.605   8.804  0.2916 -0.3736  0.5135
  862MOL0     O16243   5.866   4.705   8.783  0.1957 -0.7126 -0.1603
  862MOL0     C16244   5.981   4.717   8.874  0.7669  0.0607  0.7824
  862MOL0     C16245   6.050   4.847   8.835  0.1154  0.3266  0.4973
  862MOL0     C16246   6.099   4.839   8.695 -0.0391 -0.2438 -0.4884
  862MOL0     C16247   6.181   4.965   8.659  0.6259  0.5156 -0.4677
  862MOL0     C16248   6.246   4.973   8.517  0.2999  0.6614  0.5931
  862MOL0     C16249   6.157   5.020   8.394  0.0699 -0.3185 -0.7139
  862MOL0     C16250   6.259   5.011   8.272 -0.2041 -0.8119  0.5888
  862MOL0     C16251   6.209   5.060   8.134  0.3603  1.0802  0.7748
  862MOL0     N16252   6.093   4.975   8.098 -0.4611  0.2793 -0.3176
  862MOL0     C16253   5.959   4.996   8.142 -0.1383  0.4010  0.2101
  862MOL0     C16254   5.883   4.907   8.067  0.4146  0.0734 -0.3181
  862MOL0     C16255   5.726   4.907   8.063 -1.1142  0.5262 -0.2946
  862MOL0     C16256   5.671   4.786   8.140  0.1002  0.0603  0.4386
  862MOL0     C16257   5.674   4.801   8.286  0.8091 -0.4530 -0.7997
  862MOL0     C16258   5.586   4.915   8.350  0.1866  0.1388 -0.2292
  862MOL0     O16259   5.591   4.910   8.495  0.6197 -0.3344  0.5113
  862MOL0     C16260   5.662   5.005   8.563  0.1598  0.4370 -0.3121
  862MOL0     C16261   5.642   5.008   8.698 -0.3848 -0.5813  0.4869
  862MOL0     C16262   5.733   5.082   8.787 -0.3179  0.2615  0.3594
  862MOL0     C16263   5.697   5.082   8.930 -0.1642  0.0367 -0.2679
  862MOL0     C16264   5.828   5.164   8.722  0.1613 -0.7337  0.0563
  862MOL0     C16265   5.904   5.273   8.799  0.1744  0.1632  0.9006
  862MOL0     O16266   5.942   5.382   8.717 -0.3031 -0.4310 -0.0612
  862MOL0     C16267   5.976   5.496   8.792 -0.4168 -0.0197 -0.0730
  862MOL0     C16268   6.115   5.528   8.805  0.3843  1.3855 -0.2118
  862MOL0     C16269   6.158   5.643   8.873  0.0007 -0.4096  0.5444
  862MOL0     C16270   6.070   5.729   8.936  0.6476 -0.0337 -0.4906
  862MOL0     O16271   6.116   5.840   9.026  0.4177  0.5310  0.9122
  862MOL0     C16272   6.021   5.922   9.084  0.7055 -1.0597 -0.2281
  862MOL0     C16273   6.102   6.039   9.155 -0.7749 -0.0908 -0.0844
  862MOL0     C16274   6.022   6.166   9.176 -0.7327  0.0675  0.2455
  862MOL0     C16275   5.986   6.244   9.047  0.5654  1.4922 -0.6995
  862MOL0     C16276   5.976   6.389   9.058  0.3451 -0.3626 -0.0323
  862MOL0     C16277   5.858   6.438   9.138  0.4864 -0.0110  0.2338
  862MOL0     C16278   5.845   6.587   9.112  0.2119  0.4257 -0.6794
  862MOL0     C16279   5.715   6.649   9.169  0.0004  0.1007 -0.5051
  862MOL0    Cl16280   5.719   6.619   9.340  0.4554  0.0462  0.1703
  862MOL0     C16281   5.933   5.716   8.911 -0.3929 -0.1717 -0.1457
  862MOL0     C16282   5.888   5.594   8.849  0.6487  0.3622  0.0643
  862MOL0     O16283   5.912   5.262   8.919 -0.5059  0.0286  0.5585
  862MOL0     C16284   5.843   5.158   8.586 -0.0516 -0.1982  0.8641
  862MOL0     C16285   5.762   5.079   8.500 -1.1549 -0.5786 -0.4415
  862MOL0     N16286   5.970   4.826   7.996  0.4779  0.4757  0.1326
  862MOL0     N16287   6.092   4.870   8.012 -0.2771  0.3309  0.8357
  862MOL0     C16288   5.781   4.519   8.921  0.5273 -0.5490  0.4174
  862MOL0     C16289   5.696   4.409   8.927  0.3435 -0.7183  0.3883
  862MOL0     C16290   5.490   4.032   8.775 -0.0682 -0.6029  0.2009
  862MOL0     C16291   5.535   3.905   8.710  0.6011 -0.7366  0.7840
  862MOL0     C16292   5.439   3.809   8.674  0.3230 -1.4111  0.1429
  862MOL0     C16293   5.301   3.834   8.680 -0.2371 -0.4729 -0.6499
  862MOL0     O16294   5.204   3.755   8.625  0.5297 -0.5923  0.2820
  862MOL0     C16295   5.239   3.649   8.539  0.4681 -0.6306  0.5151
  862MOL0     C16296   5.235   3.530   8.635 -0.6937 -0.0967  0.6211
  862MOL0     C16297   5.255   3.405   8.546 -0.0653  0.2201 -0.8230
  862MOL0     C16298   5.259   3.267   8.608  0.9234  0.3711  0.5239
  862MOL0     C16299   5.352   3.248   8.720  0.2202 -0.3834 -1.2995
  862MOL0     C16300   5.444   3.248   8.802  0.6927  0.0461  0.0201
  862MOL0     C16301   5.263   3.950   8.750  0.5418 -0.2841 -0.1648
  862MOL0     C16302   5.351   4.041   8.804 -0.1329  0.2648  0.2416
  862MOL0     H16303   5.524   4.442   8.639  1.3728  1.8039 -0.0645
  862MOL0     H16304   5.647   4.653   8.626  0.0634  1.0489  0.8338
  862MOL0     H16305   5.953   4.730   8.979 -1.4997  3.8357 -0.1314
  862MOL0     H16306   6.049   4.635   8.848 -1.2674 -1.0976 -1.1489
  862MOL0     H16307   5.972   4.922   8.846 -1.6352 -1.3083 -0.1826
  862MOL0     H16308   6.123   4.876   8.912 -0.3898  0.0554  1.0919
  862MOL0     H16309   6.153   4.747   8.674  0.4464 -0.1180  0.1622
  862MOL0     H16310   6.009   4.834   8.633 -0.0976  0.1176 -0.4387
  862MOL0     H16311   6.124   5.058   8.665  3.4988  2.3086  1.4688
  862MOL0     H16312   6.262   4.974   8.732 -0.3860 -1.8348  1.1000
  862MOL0     H16313   6.314   5.058   8.528 -1.2438  2.4548 -2.4263
  862MOL0     H16314   6.303   4.883   8.494  0.5104  0.3218  2.2847
  862MOL0     H16315   6.075   4.950   8.380  1.0340 -1.1741 -2.4952
  862MOL0     H16316   6.113   5.120   8.404 -2.4889 -1.2998 -1.3877
  862MOL0     H16317   6.356   5.056   8.295  0.6107 -1.2396 -1.7235
  862MOL0     H16318   6.274   4.904   8.253 -0.0536 -0.4807 -1.4280
  862MOL0     H16319   6.290   5.038   8.063 -0.2688 -1.1194  0.6594
  862MOL0     H16320   6.189   5.167   8.139 -0.8626  0.9075  0.0242
  862MOL0     H16321   5.929   5.074   8.211 -1.0207 -2.6266  3.5622
  862MOL0     H16322   5.682   5.000   8.101  0.6338  2.0797 -1.8056
  862MOL0     H16323   5.707   4.907   7.955 -1.4337 -0.1789 -0.2383
  862MOL0     H16324   5.726   4.700   8.102  0.3902  1.5844 -2.9482
  862MOL0     H16325   5.567   4.780   8.108  0.1941 -1.4842  0.3324
  862MOL0     H16326   5.776   4.797   8.324  0.1438 -0.1409  1.1580
  862MOL0     H16327   5.627   4.710   8.324 -1.2982  1.4841  1.6316
  862MOL0     H16328   5.482   4.915   8.317 -0.4239 -3.2578  1.2880
  862MOL0     H16329   5.618   5.009   8.305  0.7478 -0.8140 -1.8848
  862MOL0     H16330   5.564   4.945   8.739 -3.5656  1.8494 -1.2967
  862MOL0     H16331   5.674   5.186   8.955 -2.4281 -0.7272  1.1110
  862MOL0     H16332   5.614   5.014   8.948 -0.0061  0.1582  1.0621
  862MOL0     H16333   5.783   5.046   8.988 -0.6619  1.5445  1.4928
  862MOL0     H16334   6.182   5.450   8.770 -0.3899 -0.5403  2.2261
  862MOL0     H16335   6.263   5.646   8.898 -0.4141  0.1069  2.4020
  862MOL0     H16336   5.951   5.966   9.012  0.0475  1.7882  1.9304
  862MOL0     H16337   5.965   5.866   9.159  0.2420 -2.5320 -1.6316
  862MOL0     H16338   6.141   6.005   9.252 -0.5265 -0.7859 -0.4231
  862MOL0     H16339   6.191   6.067   9.099  1.8998 -1.8387  2.9711
  862MOL0     H16340   6.082   6.231   9.240  3.2581 -1.1217 -1.9470
  862MOL0     H16341   5.934   6.136   9.233 -2.1703 -0.3696 -2.0738
  862MOL0     H16342   6.052   6.220   8.963 -1.0796 -2.0070 -1.1807
  862MOL0     H16343   5.891   6.201   9.014  1.1381 -1.0743  0.7579
  862MOL0     H16344   5.965   6.425   8.955 -1.9753 -0.5401  0.1047
  862MOL0     H16345   6.070   6.429   9.098 -0.1870 -0.7950  1.7567
  862MOL0     H16346   5.764   6.394   9.106  0.9257  0.2551 -1.4932
  862MOL0     H16347   5.870   6.421   9.246 -0.3364 -1.2518  0.1472
  862MOL0     H16348   5.850   6.606   9.004 -0.7092  0.0329 -0.8030
  862MOL0     H16349   5.930   6.642   9.154  0.6222 -0.8357  0.1782
  862MOL0     H16350   5.626   6.604   9.124 -0.0768  2.0918 -2.4855
  862MOL0     H16351   5.722   6.753   9.136  2.7146  1.9702  4.7699
  862MOL0     H16352   5.855   5.787   8.939 -0.1458 -0.3606  1.0973
  862MOL0     H16353   5.781   5.587   8.833  1.0715 -1.4456 -2.4991
  862MOL0     H16354   5.922   5.215   8.538 -2.4919  2.9913  0.2549
  862MOL0     H16355   5.785   5.075   8.394  0.1951  0.5282 -0.2274
  862MOL0     H16356   5.851   4.544   9.000  3.1114  0.3164 -1.9678
  862MOL0     H16357   5.696   4.339   9.010 -2.0408 -1.5090 -0.2028
  862MOL0     H16358   5.641   3.884   8.709  0.8975  0.3667  2.6651
  862MOL0     H16359   5.491   3.732   8.619  4.3679  1.5630 -0.6841
  862MOL0     H16360   5.158   3.646   8.466  1.6910 -0.5572 -0.8894
  862MOL0     H16361   5.336   3.644   8.489 -0.4662 -2.2383 -1.2777
  862MOL0     H16362   5.139   3.522   8.685 -1.9561 -1.3471 -1.8330
  862MOL0     H16363   5.322   3.535   8.702  1.4825  0.2481 -2.0153
  862MOL0     H16364   5.352   3.418   8.496 -0.6155  0.1034 -1.9578
  862MOL0     H16365   5.178   3.412   8.468 -0.8561  1.1650  0.0174
  862MOL0     H16366   5.284   3.196   8.529 -0.6815 -1.0947  1.2671
  862MOL0     H16367   5.161   3.229   8.640  0.8650  1.7066  2.0997
  862MOL0     H16368   5.523   3.236   8.874 -1.2427 -1.9011  1.9649
  862MOL0     H16369   5.156   3.958   8.768  0.8674  0.5951  1.6243
  862MOL0     H16370   5.322   4.125   8.866 -3.3672  0.6524 -1.5842
  863MOL0     O16371   8.011   6.306   9.754 -0.2385 -0.3245 -0.0833
  863MOL0     C16372   7.919   6.300   9.664  0.4544 -0.4471 -0.4601
  863MOL0     O16373   7.923   6.249   9.540 -0.0131  0.0127 -0.8128
  863MOL0     C16374   8.039   6.190   9.502 -2.0191  0.4845  1.2143
  863MOL0     C16375   8.125   6.258   9.410  0.0420 -0.0582  1.1431
  863MOL0     C16376   8.267   6.225   9.390  0.5751  0.7259 -1.2209
  863MOL0     C16377   8.322   6.116   9.463 -0.2811  0.2351  0.2296
  863MOL0     O16378   8.456   6.095   9.440 -0.9331 -0.2448 -0.3738
  863MOL0     C16379   8.455   5.995   9.339 -0.0444 -0.4434  0.7478
  863MOL0     C16380   8.596   5.994   9.278  0.0133 -0.2941  0.3812
  863MOL0     C16381   8.628   6.111   9.182  0.4152  0.6550 -0.7279
  863MOL0     C16382   8.560   6.118   9.047  0.2537  1.3588 -0.2422
  863MOL0     C16383   8.584   6.242   8.969  0.4667  0.5860 -0.3699
  863MOL0     C16384   8.507   6.252   8.840  0.1172  0.1981  0.4757
  863MOL0     C16385   8.553   6.147   8.741  0.7436  0.2224  0.2170
  863MOL0     C16386   8.461   6.158   8.622 -0.2786 -0.7659 -0.5794
  863MOL0     N16387   8.504   6.064   8.517 -0.7302  0.8197  0.3460
  863MOL0     C16388   8.526   5.930   8.528  0.2172 -0.2322 -0.2874
  863MOL0     C16389   8.563   5.882   8.403  0.7733 -0.1998 -0.1796
  863MOL0     C16390   8.575   5.748   8.355  0.4317  0.1031 -0.2694
  863MOL0     C16391   8.466   5.690   8.252  0.1131 -0.6185  0.1091
  863MOL0     C16392   8.461   5.749   8.107 -0.6913  1.1056  0.5285
  863MOL0     C16393   8.592   5.739   8.024  0.4516 -0.2506  0.0162
  863MOL0     O16394   8.573   5.789   7.892  0.0451  0.1857  1.3309
  863MOL0     C16395   8.537   5.691   7.805 -0.0254 -0.9651  0.1656
  863MOL0     C16396   8.630   5.595   7.761 -0.9541  0.5375  1.2157
  863MOL0     C16397   8.599   5.506   7.659 -0.8056  0.3134  1.3369
  863MOL0     C16398   8.708   5.408   7.624  0.3527  0.2921  0.4963
  863MOL0     C16399   8.465   5.501   7.616  0.4263  0.1506 -0.7938
  863MOL0     C16400   8.421   5.422   7.497 -0.1239  0.3591 -0.2685
  863MOL0     O16401   8.505   5.320   7.442  0.5334  0.9070 -0.6431
  863MOL0     C16402   8.505   5.267   7.314 -0.5432 -0.1633  0.9573
  863MOL0     C16403   8.616   5.182   7.275  0.4660  0.1979  0.0008
  863MOL0     C16404   8.628   5.127   7.148 -1.0935 -0.1621 -0.1798
  863MOL0     C16405   8.529   5.146   7.050 -0.4029  1.0184  0.0413
  863MOL0     O16406   8.542   5.131   6.910  0.1274  0.2989 -0.6361
  863MOL0     C16407   8.652   5.061   6.855 -0.3823 -0.2814 -0.0521
  863MOL0     C16408   8.607   4.960   6.748 -0.4377  0.3604 -0.4879
  863MOL0     C16409   8.522   4.848   6.811  0.1371 -0.5267 -0.2287
  863MOL0     C16410   8.379   4.877   6.861  0.4307  0.4632  0.0759
  863MOL0     C16411   8.350   4.778   6.983  0.2499  0.6862 -0.4238
  863MOL0     C16412   8.219   4.816   7.055 -0.0351  0.1916  0.0475
  863MOL0     C16413   8.233   4.950   7.134 -0.7229  0.7311 -0.0662
  863MOL0     C16414   8.114   4.967   7.229 -0.5987  0.5588 -0.7845
  863MOL0    Cl16415   7.957   4.962   7.160  0.4329 -0.0312  0.3087
  863MOL0     C16416   8.417   5.225   7.086 -0.9505  0.3372  0.3968
  863MOL0     C16417   8.402   5.284   7.218  0.2065  0.7782 -0.2594
  863MOL0     O16418   8.314   5.447   7.447  0.9963 -0.0868  0.1667
  863MOL0     C16419   8.372   5.584   7.674  0.1613  0.9514  0.0218
  863MOL0     C16420   8.403   5.686   7.767  0.3409  0.3845 -0.3317
  863MOL0     N16421   8.571   5.997   8.322  0.3525 -0.0284 -0.2914
  863MOL0     N16422   8.543   6.105   8.394 -0.9449 -0.0424  0.4457
  863MOL0     C16423   8.242   6.041   9.548  0.4244 -0.1056  1.1376
  863MOL0     C16424   8.107   6.082   9.568  0.1354  0.7949 -0.2109
  863MOL0     C16425   7.798   6.390   9.689 -0.5923  0.0374  0.2995
  863MOL0     C16426   7.674   6.386   9.612  0.3698 -0.1361 -0.6072
  863MOL0     C16427   7.575   6.475   9.639  0.8622  0.6630  0.0542
  863MOL0     C16428   7.588   6.574   9.739  0.9897 -0.6885 -0.1367
  863MOL0     O16429   7.485   6.668   9.761  0.7736  0.8350  0.1732
  863MOL0     C16430   7.473   6.776   9.674 -0.0496 -0.0599  0.5060
  863MOL0     C16431   7.418   6.902   9.745  0.8931 -0.5603  0.5603
  863MOL0     C16432   7.499   7.024   9.696  1.2867  0.2048 -0.7058
  863MOL0     C16433   7.458   7.158   9.754  1.2007  0.0388  0.8027
  863MOL0     C16434   7.476   7.161   9.902  0.2300  0.4808  1.3864
  863MOL0     C16435   7.503   7.186  10.020 -0.4315 -0.7040  0.6189
  863MOL0     C16436   7.695   6.564   9.820 -0.2388  0.2135  0.2038
  863MOL0     C16437   7.798   6.476   9.798 -0.8909 -0.5077 -1.0326
  863MOL0     H16438   8.088   6.341   9.351  0.2087  0.1927  1.3858
  863MOL0     H16439   8.335   6.283   9.328  1.4469 -1.6544 -2.6335
  863MOL0     H16440   8.429   5.906   9.397 -0.2793 -0.3947  0.7178
  863MOL0     H16441   8.384   5.999   9.256 -0.0615  0.4124  0.8031
  863MOL0     H16442   8.670   5.985   9.358  1.4187  1.8507 -0.5641
  863MOL0     H16443   8.605   5.904   9.217 -0.8177  0.6060 -1.1264
  863MOL0     H16444   8.596   6.204   9.230 -4.8585 -2.1397  2.0673
  863MOL0     H16445   8.737   6.107   9.179  0.4250 -1.9967  0.3936
  863MOL0     H16446   8.572   6.030   8.983  0.2463  0.7010  0.6493
  863MOL0     H16447   8.454   6.132   9.069 -0.5482 -1.2713 -1.8677
  863MOL0     H16448   8.551   6.328   9.029 -2.0839  0.2105 -1.1197
  863MOL0     H16449   8.690   6.260   8.949  0.1393  2.2530 -0.8300
  863MOL0     H16450   8.400   6.244   8.864  0.1617  0.2109  0.6776
  863MOL0     H16451   8.523   6.350   8.794 -1.5638  0.3398  0.1230
  863MOL0     H16452   8.659   6.162   8.718  0.6058 -0.5645 -1.0226
  863MOL0     H16453   8.541   6.043   8.773  1.0638  0.4373  1.0576
  863MOL0     H16454   8.439   6.261   8.592 -1.5873 -0.3219  1.6708
  863MOL0     H16455   8.361   6.126   8.652 -0.4205  0.4031  0.2583
  863MOL0     H16456   8.491   5.869   8.611 -4.0824  0.9560 -1.0223
  863MOL0     H16457   8.665   5.728   8.296  1.3249  0.9241  0.7848
  863MOL0     H16458   8.573   5.687   8.446 -1.0729  2.5981  1.4916
  863MOL0     H16459   8.363   5.691   8.288  0.3027  1.6855  0.7339
  863MOL0     H16460   8.492   5.585   8.237  1.1591 -0.2949 -0.4177
  863MOL0     H16461   8.434   5.855   8.120  0.0665  1.6907 -2.1427
  863MOL0     H16462   8.379   5.703   8.051 -0.3142 -1.7237  2.1277
  863MOL0     H16463   8.627   5.635   8.031  1.9442 -0.0040 -2.5218
  863MOL0     H16464   8.668   5.797   8.078  0.5485  0.5975 -1.0130
  863MOL0     H16465   8.732   5.597   7.798 -0.5702 -1.6023  0.3894
  863MOL0     H16466   8.781   5.453   7.556 -0.4874 -2.0079 -2.0674
  863MOL0     H16467   8.759   5.370   7.714 -0.2868 -2.3513 -0.1726
  863MOL0     H16468   8.676   5.313   7.581  2.1989  0.2603 -0.9302
  863MOL0     H16469   8.689   5.157   7.352 -0.1968 -1.1530  0.2192
  863MOL0     H16470   8.716   5.064   7.130  0.1887  1.1693  1.1655
  863MOL0     H16471   8.727   5.137   6.832 -0.8020  0.0293 -0.4036
  863MOL0     H16472   8.694   5.000   6.936 -2.2377 -1.5275  0.0178
  863MOL0     H16473   8.556   5.009   6.665 -0.5372 -3.2005 -2.7340
  863MOL0     H16474   8.702   4.914   6.717 -0.1059 -0.2110  1.2724
  863MOL0     H16475   8.583   4.808   6.892  0.3791 -1.6564 -0.9385
  863MOL0     H16476   8.516   4.757   6.749 -1.3522 -0.1946 -0.5902
  863MOL0     H16477   8.367   4.981   6.892 -2.3759 -0.1625  1.4016
  863MOL0     H16478   8.305   4.857   6.783 -3.2499  1.1500  3.0689
  863MOL0     H16479   8.430   4.776   7.057 -1.4054 -0.5102  1.4516
  863MOL0     H16480   8.336   4.675   6.950 -1.4208  0.8784 -0.4035
  863MOL0     H16481   8.141   4.814   6.979  0.2708 -1.9741 -0.2659
  863MOL0     H16482   8.183   4.733   7.116  0.7124 -1.2143 -1.3422
  863MOL0     H16483   8.230   5.033   7.064 -1.5819 -0.1642 -1.1428
  863MOL0     H16484   8.330   4.966   7.180 -0.6567  0.4776 -0.1154
  863MOL0     H16485   8.130   5.068   7.268  1.4605 -0.6989  2.0125
  863MOL0     H16486   8.113   4.900   7.315  1.0006  2.1333  0.5376
  863MOL0     H16487   8.331   5.223   7.020  0.7306 -0.4076 -1.9161
  863MOL0     H16488   8.313   5.341   7.242  1.2503  2.3173  0.1200
  863MOL0     H16489   8.270   5.583   7.638 -0.7813 -0.7788  2.4986
  863MOL0     H16490   8.327   5.759   7.793 -1.4228 -1.5112  0.1494
  863MOL0     H16491   8.298   5.962   9.597 -0.3779 -2.2730 -1.2698
  863MOL0     H16492   8.057   6.026   9.646 -0.7159  0.5501 -0.9151
  863MOL0     H16493   7.651   6.310   9.539  0.4514  0.1373 -0.9228
  863MOL0     H16494   7.484   6.455   9.584  0.3035  0.0098  1.1699
  863MOL0     H16495   7.567   6.800   9.623 -0.1197  1.8974  1.2150
  863MOL0     H16496   7.412   6.748   9.588 -0.4454  3.7378 -0.6431
  863MOL0     H16497   7.435   6.886   9.852 -1.3098  0.4137  1.1113
  863MOL0     H16498   7.310   6.901   9.729  1.0243 -0.3860 -0.3951
  863MOL0     H16499   7.497   7.038   9.587  1.0894  1.4315 -0.5593
  863MOL0     H16500   7.602   7.001   9.725  0.8789  0.4708  1.0919
  863MOL0     H16501   7.353   7.181   9.738  1.4146  0.4988 -0.0489
  863MOL0     H16502   7.524   7.237   9.716  1.4308 -0.1376  0.8275
  863MOL0     H16503   7.519   7.196  10.125 -1.6428 -1.7488  0.9240
  863MOL0     H16504   7.719   6.629   9.904 -0.3165  2.7410 -1.6287
  863MOL0     H16505   7.882   6.495   9.865 -2.7234 -1.3754  1.6723
  864MOL0     O16506   6.821   0.647   3.621  0.4952  0.4044 -0.1601
  864MOL0     C16507   6.747   0.652   3.521  0.1785 -0.6947 -0.0061
  864MOL0     O16508   6.781   0.721   3.405  0.1565  1.1772  0.3158
  864MOL0     C16509   6.906   0.773   3.399 -0.2183  0.7302  0.9254
  864MOL0     C16510   6.955   0.872   3.489  0.1013  0.2473  0.3107
  864MOL0     C16511   7.087   0.925   3.460 -0.9426 -0.5819 -0.4759
  864MOL0     C16512   7.147   0.886   3.348 -0.7893 -0.0107 -1.2992
  864MOL0     O16513   7.275   0.928   3.320  0.0416 -0.1761 -0.7835
  864MOL0     C16514   7.370   0.955   3.432  0.0419 -0.6876  0.2459
  864MOL0     C16515   7.516   1.000   3.395 -0.2147  0.3427 -0.3000
  864MOL0     C16516   7.578   1.032   3.530 -0.0590 -0.0703  0.0532
  864MOL0     C16517   7.731   1.074   3.515 -0.0573  0.3538 -0.8907
  864MOL0     C16518   7.806   1.061   3.643  0.2992 -0.2531  0.5038
  864MOL0     C16519   7.769   1.169   3.750 -0.7790  0.2883 -0.6549
  864MOL0     C16520   7.841   1.126   3.885 -0.1153 -0.0769 -0.0620
  864MOL0     C16521   7.874   1.255   3.961  0.3010 -0.9459 -0.1371
  864MOL0     N16522   7.981   1.337   3.910 -0.1710  0.3133  0.4622
  864MOL0     C16523   8.079   1.387   3.989  1.3093 -0.7794  0.2480
  864MOL0     C16524   8.153   1.479   3.917 -0.8464  0.4342  0.2539
  864MOL0     C16525   8.256   1.573   3.966 -0.3667 -0.2710 -0.6014
  864MOL0     C16526   8.204   1.715   3.954 -0.7708 -0.2823 -0.2953
  864MOL0     C16527   8.322   1.812   3.961  0.0659 -0.3552  0.1087
  864MOL0     C16528   8.381   1.823   4.102  0.6132 -0.2721 -0.8129
  864MOL0     O16529   8.304   1.927   4.166 -0.3479  0.4863 -0.3923
  864MOL0     C16530   8.357   1.967   4.287  0.0179 -0.3234 -0.1359
  864MOL0     C16531   8.482   2.027   4.296  0.3009  0.3715 -0.1855
  864MOL0     C16532   8.544   2.064   4.419  0.3717 -0.2756  0.3524
  864MOL0     C16533   8.675   2.145   4.414  0.6380  0.2137  0.4049
  864MOL0     C16534   8.464   2.054   4.539 -0.6358 -0.3715  0.0261
  864MOL0     C16535   8.522   2.103   4.670 -0.4217 -0.7700 -0.0147
  864MOL0     O16536   8.435   2.161   4.753  0.2049  0.4539  0.4189
  864MOL0     C16537   8.450   2.193   4.883  0.4955 -0.2398 -0.5611
  864MOL0     C16538   8.334   2.168   4.964 -0.4236  0.5080  0.4139
  864MOL0     C16539   8.350   2.212   5.096  0.0514 -0.1553 -0.0028
  864MOL0     C16540   8.463   2.273   5.152 -0.2106 -0.2522 -0.8873
  864MOL0     O16541   8.458   2.304   5.289  0.1608 -0.3165  0.3826
  864MOL0     C16542   8.581   2.343   5.353 -0.4234 -0.2149 -0.3254
  864MOL0     C16543   8.557   2.304   5.499  0.0641 -0.0434 -0.6130
  864MOL0     C16544   8.652   2.371   5.594 -0.7436  0.1376 -0.1109
  864MOL0     C16545   8.784   2.291   5.601  0.3896 -0.3575 -0.6765
  864MOL0     C16546   8.898   2.383   5.651 -0.2163 -0.4705 -0.7106
  864MOL0     C16547   9.024   2.305   5.681 -0.8479  0.7095  0.0766
  864MOL0     C16548   9.155   2.375   5.698  0.0048 -0.4463 -0.1918
  864MOL0     C16549   9.151   2.470   5.821  0.3979 -0.1001  0.7670
  864MOL0    Cl16550   9.133   2.381   5.974 -0.8232  0.1318 -0.2888
  864MOL0     C16551   8.565   2.317   5.065 -1.7635  1.4046  0.2420
  864MOL0     C16552   8.559   2.263   4.937 -0.1865 -0.7855  0.2494
  864MOL0     O16553   8.639   2.071   4.702  0.5615 -0.7046  0.1621
  864MOL0     C16554   8.336   1.996   4.530  0.6868 -0.0542  0.4768
  864MOL0     C16555   8.283   1.953   4.405  0.0564  0.1325 -0.3776
  864MOL0     N16556   8.111   1.466   3.789  0.7573 -0.4230  0.3963
  864MOL0     N16557   8.002   1.401   3.789  0.0477  0.1087  0.1637
  864MOL0     C16558   7.095   0.796   3.265 -0.6497  1.1577  0.2734
  864MOL0     C16559   6.975   0.737   3.281 -0.1115 -0.2798  0.0725
  864MOL0     C16560   6.620   0.578   3.514 -0.6517  0.0009 -0.5987
  864MOL0     C16561   6.566   0.537   3.393  0.0360 -0.7964  0.2223
  864MOL0     C16562   6.455   0.450   3.387  0.4002  0.2780  0.3311
  864MOL0     C16563   6.397   0.391   3.505 -0.5858  0.3953 -0.5663
  864MOL0     O16564   6.298   0.297   3.478 -0.0361 -0.1862  0.6018
  864MOL0     C16565   6.209   0.266   3.586  0.6020  0.7542 -0.2997
  864MOL0     C16566   6.089   0.194   3.523 -0.6142  0.8751  0.2238
  864MOL0     C16567   6.119   0.059   3.457  0.8510 -0.4710 -0.5848
  864MOL0     C16568   6.167  -0.049   3.549 -0.3110 -1.2999  0.4697
  864MOL0     C16569   6.151  -0.176   3.484 -0.8038  0.2237  0.8024
  864MOL0     C16570   6.123  -0.272   3.418  0.0982 -0.0093 -0.3047
  864MOL0     C16571   6.469   0.420   3.625  0.4944  0.4737  0.0312
  864MOL0     C16572   6.569   0.522   3.633 -0.7552  1.1085  0.1231
  864MOL0     H16573   6.897   0.895   3.578 -0.3917 -0.7333  0.2560
  864MOL0     H16574   7.120   1.002   3.530  3.7074 -1.3873 -1.4324
  864MOL0     H16575   7.333   1.039   3.491  2.3415  0.8635 -0.3879
  864MOL0     H16576   7.387   0.867   3.496  0.2867  0.9820  2.6167
  864MOL0     H16577   7.575   0.921   3.347 -2.0078 -1.3493  0.1370
  864MOL0     H16578   7.512   1.088   3.330 -2.1615 -0.5108 -1.4426
  864MOL0     H16579   7.526   1.123   3.562 -0.1330  0.2963 -1.0832
  864MOL0     H16580   7.576   0.960   3.612  3.1418  0.0991  0.4039
  864MOL0     H16581   7.784   1.002   3.452 -0.6921  0.0164 -1.0488
  864MOL0     H16582   7.751   1.169   3.466 -0.4825  0.1271 -1.5027
  864MOL0     H16583   7.786   0.962   3.686 -0.8255 -1.3145 -2.2259
  864MOL0     H16584   7.912   1.058   3.620  0.7066  0.6346  2.1497
  864MOL0     H16585   7.800   1.265   3.706  2.1717 -0.2942 -0.0604
  864MOL0     H16586   7.660   1.160   3.760 -0.7522  0.6658  0.0485
  864MOL0     H16587   7.774   1.064   3.946  0.3397 -1.8308 -1.2687
  864MOL0     H16588   7.928   1.064   3.862 -0.3366 -0.6455  0.6085
  864MOL0     H16589   7.882   1.224   4.066  0.4858 -0.7523 -0.0943
  864MOL0     H16590   7.780   1.310   3.962 -0.4944 -2.2576 -0.2753
  864MOL0     H16591   8.097   1.354   4.091 -0.3017  1.0115  1.1885
  864MOL0     H16592   8.286   1.553   4.069 -1.5946 -1.6003 -0.4658
  864MOL0     H16593   8.346   1.550   3.908  0.0313 -2.3263  0.7123
  864MOL0     H16594   8.131   1.733   4.033 -2.2445  0.5048 -1.7686
  864MOL0     H16595   8.166   1.725   3.852  4.3203  0.2207 -2.4401
  864MOL0     H16596   8.296   1.912   3.926 -0.0903 -0.7299 -0.8843
  864MOL0     H16597   8.399   1.784   3.889 -0.6305  0.7293 -1.0981
  864MOL0     H16598   8.485   1.857   4.097  0.6462 -0.0888  0.6227
  864MOL0     H16599   8.384   1.736   4.168  3.1413  2.1706  2.6724
  864MOL0     H16600   8.552   2.034   4.213 -0.2332  0.6799 -0.6190
  864MOL0     H16601   8.669   2.253   4.430  0.3537  0.4037 -0.8295
  864MOL0     H16602   8.744   2.105   4.488  0.9529 -0.7311 -0.3660
  864MOL0     H16603   8.713   2.140   4.311  0.0914  1.3608  0.1278
  864MOL0     H16604   8.249   2.119   4.917 -0.9512  2.4591 -0.7960
  864MOL0     H16605   8.260   2.209   5.156  0.0214 -0.8981 -0.0838
  864MOL0     H16606   8.677   2.302   5.322 -0.2416 -0.8550  0.9901
  864MOL0     H16607   8.588   2.452   5.350  1.6486 -0.2149  1.5338
  864MOL0     H16608   8.456   2.336   5.525 -0.2852 -1.6500  0.1104
  864MOL0     H16609   8.556   2.196   5.510 -1.5233  0.1454  1.9339
  864MOL0     H16610   8.614   2.374   5.696 -2.3647  1.9021 -0.7189
  864MOL0     H16611   8.670   2.474   5.564 -0.8783  0.5100  1.0406
  864MOL0     H16612   8.766   2.207   5.668  0.3242  1.9298  2.3844
  864MOL0     H16613   8.822   2.250   5.507  1.8090 -0.6897  0.0208
  864MOL0     H16614   8.855   2.428   5.742 -1.7869 -3.6134  0.2563
  864MOL0     H16615   8.942   2.450   5.577  1.2611 -0.5976  0.0273
  864MOL0     H16616   9.007   2.242   5.768  1.1271 -0.0725 -0.0495
  864MOL0     H16617   9.039   2.236   5.597 -2.7376  0.0636  0.2176
  864MOL0     H16618   9.183   2.423   5.604 -1.9285 -2.5178 -1.9285
  864MOL0     H16619   9.231   2.299   5.714  1.3510  1.3055  2.4232
  864MOL0     H16620   9.068   2.540   5.803  0.4377 -0.5401 -1.3439
  864MOL0     H16621   9.244   2.525   5.836 -0.9182  1.7580  2.7021
  864MOL0     H16622   8.650   2.377   5.096 -0.4205 -0.8969  1.3346
  864MOL0     H16623   8.640   2.286   4.869  0.6835 -0.1812  1.4458
  864MOL0     H16624   8.279   1.990   4.622 -0.6958 -2.5879 -0.4711
  864MOL0     H16625   8.187   1.901   4.403  0.7606 -1.3223 -4.0906
  864MOL0     H16626   7.158   0.765   3.183 -2.9137  3.2278 -2.4513
  864MOL0     H16627   6.927   0.665   3.215 -3.1717  1.5741  0.0841
  864MOL0     H16628   6.609   0.578   3.302 -2.8167  0.1368 -0.8140
  864MOL0     H16629   6.414   0.422   3.290  3.8152 -4.1912 -0.1598
  864MOL0     H16630   6.263   0.206   3.659  1.6316  2.8369  0.7482
  864MOL0     H16631   6.169   0.353   3.639 -1.1005  0.4536 -0.9924
  864MOL0     H16632   6.051   0.262   3.446 -1.3376  0.1303 -0.0847
  864MOL0     H16633   6.005   0.189   3.591  0.7117 -0.9844  1.8455
  864MOL0     H16634   6.197   0.080   3.383  0.5328  2.8972 -0.1323
  864MOL0     H16635   6.027   0.033   3.404 -0.1555 -1.2999  1.4857
  864MOL0     H16636   6.106  -0.055   3.640 -0.1824 -0.1516  0.6449
  864MOL0     H16637   6.270  -0.040   3.584 -0.9790  1.0521  2.0534
  864MOL0     H16638   6.098  -0.339   3.338 -4.1693 -0.2511  0.9804
  864MOL0     H16639   6.427   0.364   3.708  1.0236 -1.3201 -0.8726
  864MOL0     H16640   6.602   0.546   3.734 -0.9245  0.2550  0.3888
  865MOL0     O16641   2.234   0.079   3.161  0.7048  0.9884 -0.2489
  865MOL0     C16642   2.249   0.012   3.263  0.0671 -0.3495 -0.0698
  865MOL0     O16643   2.264   0.067   3.392 -0.4135 -0.0424  0.2559
  865MOL0     C16644   2.273   0.197   3.409  1.0089 -0.1368 -0.6335
  865MOL0     C16645   2.318   0.296   3.319  0.3357  0.2293  0.5213
  865MOL0     C16646   2.336   0.423   3.376  0.1482 -0.5147  0.8586
  865MOL0     C16647   2.284   0.454   3.495  1.2666 -0.0440  0.1739
  865MOL0     O16648   2.279   0.574   3.556  0.0533 -0.2869  0.1028
  865MOL0     C16649   2.311   0.696   3.479 -0.6769  0.4107 -0.5205
  865MOL0     C16650   2.304   0.819   3.565 -0.0220 -0.1168  0.1178
  865MOL0     C16651   2.313   0.941   3.486  0.2701 -0.0141 -1.5928
  865MOL0     C16652   2.321   1.075   3.564  0.7139 -0.7206  0.1274
  865MOL0     C16653   2.265   1.183   3.469  0.1818  0.5263  0.7246
  865MOL0     C16654   2.254   1.318   3.528  0.1863 -0.8920 -0.8194
  865MOL0     C16655   2.140   1.399   3.469 -0.5023  0.6664  0.1412
  865MOL0     C16656   2.006   1.341   3.496  0.3628  0.3626  0.5204
  865MOL0     N16657   1.898   1.445   3.531 -0.5290  0.6139  0.6987
  865MOL0     C16658   1.861   1.550   3.452 -0.3366 -0.1467 -0.4192
  865MOL0     C16659   1.759   1.602   3.525 -0.5392 -0.5330 -0.1600
  865MOL0     C16660   1.673   1.724   3.507  0.3573  0.4127  0.8676
  865MOL0     C16661   1.564   1.707   3.406 -0.6567  0.1232  0.0160
  865MOL0     C16662   1.518   1.565   3.397 -0.3136 -0.4170 -0.0471
  865MOL0     C16663   1.395   1.551   3.310  0.9437 -0.2504 -0.7359
  865MOL0     O16664   1.421   1.610   3.182 -0.4848 -0.0509  0.1778
  865MOL0     C16665   1.311   1.641   3.105  0.6764 -0.0446 -1.0459
  865MOL0     C16666   1.190   1.584   3.123  1.5853 -0.3991 -0.5576
  865MOL0     C16667   1.090   1.599   3.023 -0.0727 -0.1036 -0.0033
  865MOL0     C16668   0.957   1.552   3.058 -0.9199  0.7405  0.4219
  865MOL0     C16669   1.117   1.676   2.906  0.0241 -0.4466 -0.5910
  865MOL0     C16670   1.012   1.710   2.800 -0.5474  0.0114 -0.5852
  865MOL0     O16671   1.061   1.708   2.670  0.5998 -0.3710  0.5738
  865MOL0     C16672   0.987   1.719   2.555  0.2698  0.1786 -0.1983
  865MOL0     C16673   0.845   1.696   2.550 -0.3275  0.3755 -0.0024
  865MOL0     C16674   0.764   1.735   2.443  0.1619  0.3930  0.3558
  865MOL0     C16675   0.818   1.767   2.323 -0.8935 -0.5153  0.1459
  865MOL0     O16676   0.745   1.787   2.210 -0.0912  0.0872 -0.6920
  865MOL0     C16677   0.686   1.926   2.197 -0.4736 -0.2147  0.0897
  865MOL0     C16678   0.785   2.029   2.143  0.2636  0.2100  0.1907
  865MOL0     C16679   0.843   1.989   2.006  0.0093  0.0095 -0.3358
  865MOL0     C16680   0.737   2.002   1.902 -0.5663 -0.3946  0.7315
  865MOL0     C16681   0.806   1.955   1.773 -0.3565 -0.1833  1.0590
  865MOL0     C16682   0.705   2.005   1.673  1.0166  0.0952 -0.1947
  865MOL0     C16683   0.762   1.968   1.538 -0.6545 -0.0258 -0.4820
  865MOL0     C16684   0.907   1.984   1.514 -0.2523  0.3188 -1.6534
  865MOL0    Cl16685   0.958   2.156   1.528  0.0283 -0.0525  0.0794
  865MOL0     C16686   0.960   1.803   2.322  1.1660 -0.5647 -0.5375
  865MOL0     C16687   1.040   1.771   2.434 -1.0040  0.2990  0.7970
  865MOL0     O16688   0.907   1.757   2.836 -0.3524 -0.2935  0.3838
  865MOL0     C16689   1.245   1.735   2.891  0.2681 -0.1186  0.0889
  865MOL0     C16690   1.333   1.725   2.997 -0.7585  0.0497 -0.0818
  865MOL0     N16691   1.722   1.520   3.630 -0.5826 -0.2286  0.6996
  865MOL0     N16692   1.811   1.428   3.633 -0.1918  0.9778 -0.4013
  865MOL0     C16693   2.216   0.362   3.569 -0.0417  0.3588  0.2082
  865MOL0     C16694   2.224   0.232   3.532 -0.2238  0.3635 -0.5247
  865MOL0     C16695   2.257  -0.128   3.247  0.8176 -0.0233  0.2416
  865MOL0     C16696   2.294  -0.214   3.356  0.4828  0.4966  0.2305
  865MOL0     C16697   2.288  -0.355   3.346 -0.2879 -0.2487 -0.0895
  865MOL0     C16698   2.259  -0.417   3.224  0.5103 -0.4715  0.7820
  865MOL0     O16699   2.262  -0.549   3.216  0.6402 -0.4387 -0.4184
  865MOL0     C16700   2.392  -0.590   3.238 -0.6695  0.7953 -0.4584
  865MOL0     C16701   2.423  -0.731   3.189  0.7076  1.0069 -0.3395
  865MOL0     C16702   2.575  -0.766   3.170 -0.2260 -0.2820 -0.5642
  865MOL0     C16703   2.593  -0.907   3.120  0.3019 -0.0151 -0.5029
  865MOL0     C16704   2.736  -0.932   3.141 -0.8976  0.3807  0.5743
  865MOL0     C16705   2.859  -0.942   3.164  0.0776  0.1521  0.9919
  865MOL0     C16706   2.221  -0.335   3.113 -0.3184 -0.2434  0.4125
  865MOL0     C16707   2.222  -0.196   3.128 -0.5900 -0.6834 -0.6678
  865MOL0     H16708   2.370   0.267   3.228 -2.8692 -1.6078 -0.8640
  865MOL0     H16709   2.380   0.506   3.323 -2.7107  0.2394 -0.5442
  865MOL0     H16710   2.408   0.695   3.430  0.8209  2.1426  2.1722
  865MOL0     H16711   2.230   0.708   3.407 -1.2732  0.6070  0.1747
  865MOL0     H16712   2.213   0.821   3.626 -0.4127 -1.5780 -0.3576
  865MOL0     H16713   2.394   0.820   3.627 -0.5140 -0.0060  0.8578
  865MOL0     H16714   2.382   0.925   3.402 -0.8000 -0.1228 -2.4711
  865MOL0     H16715   2.215   0.943   3.439 -2.0717 -0.6556  2.7646
  865MOL0     H16716   2.257   1.090   3.652 -0.2659  5.5735 -1.1570
  865MOL0     H16717   2.424   1.099   3.591  0.2730  1.3639  0.0706
  865MOL0     H16718   2.329   1.204   3.382  1.1656  4.2250  2.1350
  865MOL0     H16719   2.169   1.150   3.429  2.4250 -1.8027 -3.4720
  865MOL0     H16720   2.239   1.315   3.636  0.7719 -2.0352 -0.7583
  865MOL0     H16721   2.357   1.354   3.518  0.3876 -1.0568  0.5525
  865MOL0     H16722   2.146   1.497   3.517 -0.3627 -0.5223  2.7398
  865MOL0     H16723   2.158   1.402   3.361 -2.0623 -1.5911 -0.2406
  865MOL0     H16724   2.006   1.258   3.568  1.1186 -0.2069 -0.1205
  865MOL0     H16725   1.976   1.287   3.405 -0.2432  1.6259 -0.0593
  865MOL0     H16726   1.899   1.590   3.358 -3.4711  1.2334 -1.2573
  865MOL0     H16727   1.628   1.754   3.602  0.6469 -0.4508  1.2907
  865MOL0     H16728   1.739   1.801   3.466 -0.8055  0.1885 -1.6255
  865MOL0     H16729   1.613   1.736   3.312  1.3692 -0.3421  0.8804
  865MOL0     H16730   1.484   1.780   3.420 -1.1375 -0.2410 -0.7646
  865MOL0     H16731   1.498   1.527   3.498  0.4092 -1.2553 -0.2027
  865MOL0     H16732   1.598   1.508   3.348 -0.4337 -0.4016 -0.2652
  865MOL0     H16733   1.316   1.618   3.346  2.0695  2.2078 -2.5417
  865MOL0     H16734   1.370   1.444   3.310 -0.0481 -0.0586  0.9603
  865MOL0     H16735   1.164   1.521   3.207  0.6387  0.7365  0.0236
  865MOL0     H16736   0.884   1.534   2.978  0.0901 -0.9032 -0.1874
  865MOL0     H16737   0.978   1.456   3.107 -1.0844 -0.0663 -1.0095
  865MOL0     H16738   0.903   1.611   3.132 -0.9435 -0.5284  1.4623
  865MOL0     H16739   0.803   1.655   2.641  0.4339 -0.0470  0.1697
  865MOL0     H16740   0.658   1.716   2.456 -0.4723  2.6087 -1.0365
  865MOL0     H16741   0.599   1.931   2.131  1.2753 -1.8893 -2.5961
  865MOL0     H16742   0.654   1.959   2.296 -1.1826 -2.4874  0.6736
  865MOL0     H16743   0.752   2.133   2.133  2.5760  0.7880 -4.1234
  865MOL0     H16744   0.863   2.033   2.219  1.3784 -0.8714 -0.8505
  865MOL0     H16745   0.889   1.890   2.011  0.8118  0.3987  0.1488
  865MOL0     H16746   0.930   2.051   1.983 -0.8112  1.2756 -0.0997
  865MOL0     H16747   0.650   1.942   1.931 -1.7048  0.4208 -0.7987
  865MOL0     H16748   0.714   2.109   1.898 -1.4664 -0.5969 -0.2523
  865MOL0     H16749   0.834   1.850   1.769 -2.1633 -0.6522 -0.4453
  865MOL0     H16750   0.897   2.016   1.771 -0.7580  0.4282 -0.9167
  865MOL0     H16751   0.607   1.958   1.682  0.6828  0.7913 -0.1329
  865MOL0     H16752   0.685   2.112   1.684  1.4899  0.0577  1.2921
  865MOL0     H16753   0.702   2.021   1.464 -0.5533  2.3511  1.0427
  865MOL0     H16754   0.749   1.860   1.524  0.8560  0.0230 -2.6537
  865MOL0     H16755   0.912   1.954   1.409 -2.0096 -0.5158 -1.5470
  865MOL0     H16756   0.978   1.921   1.566  3.7465 -0.9741 -7.6697
  865MOL0     H16757   1.019   1.827   2.234  0.5874  0.9859 -0.5397
  865MOL0     H16758   1.147   1.785   2.426 -1.3964  3.0405 -1.3740
  865MOL0     H16759   1.288   1.787   2.806  2.2105  1.3218  1.8347
  865MOL0     H16760   1.424   1.783   2.996  0.9924 -2.5011  1.1552
  865MOL0     H16761   2.173   0.389   3.665 -1.3495 -1.2395  0.1257
  865MOL0     H16762   2.175   0.158   3.595  1.5119 -0.6333 -0.2855
  865MOL0     H16763   2.336  -0.180   3.450  1.6265  1.1563 -0.5023
  865MOL0     H16764   2.329  -0.421   3.422  1.3854 -2.8366 -2.9974
  865MOL0     H16765   2.467  -0.526   3.190 -0.3283 -1.2166 -2.8474
  865MOL0     H16766   2.427  -0.580   3.341  0.8951  3.1776 -1.1171
  865MOL0     H16767   2.365  -0.762   3.102  0.2132  1.1828 -0.0780
  865MOL0     H16768   2.374  -0.785   3.271 -0.4853  2.3585 -0.0991
  865MOL0     H16769   2.633  -0.741   3.260  0.8021  3.6435 -2.0762
  865MOL0     H16770   2.623  -0.712   3.088  2.3172 -0.3511  0.7693
  865MOL0     H16771   2.574  -0.918   3.013  2.5147 -2.1518 -0.7567
  865MOL0     H16772   2.526  -0.984   3.160  0.7847  0.0175  0.3813
  865MOL0     H16773   2.963  -0.931   3.183  0.0931  1.0716  0.4386
  865MOL0     H16774   2.179  -0.381   3.024  2.1912  1.5836 -1.8817
  865MOL0     H16775   2.170  -0.148   3.045  0.2951 -3.5354 -3.0355
  866MOL0     O16776  11.419   1.404   8.721  0.1040  0.2389  0.5285
  866MOL0     C16777  11.536   1.378   8.699 -0.1966  0.0212  0.5038
  866MOL0     O16778  11.578   1.287   8.610 -0.2641  0.1972 -0.4533
  866MOL0     C16779  11.501   1.228   8.511  0.2385 -0.2352 -0.5149
  866MOL0     C16780  11.408   1.296   8.437 -0.0661  0.6270  0.4513
  866MOL0     C16781  11.343   1.228   8.335 -0.5565  0.7188 -0.0301
  866MOL0     C16782  11.383   1.097   8.300 -0.0526 -0.2470  0.5290
  866MOL0     O16783  11.314   1.031   8.199  0.2127  0.3123 -0.1592
  866MOL0     C16784  11.355   0.888   8.157 -0.7030 -0.6442 -0.0879
  866MOL0     C16785  11.246   0.835   8.060 -0.2779 -0.1779  0.0546
  866MOL0     C16786  11.268   0.898   7.913  0.7323 -0.1860 -0.2326
  866MOL0     C16787  11.160   0.862   7.812 -0.6178 -0.4451 -0.9098
  866MOL0     C16788  11.204   0.748   7.721  0.7919 -0.0134 -0.3041
  866MOL0     C16789  11.091   0.717   7.617 -0.3175  0.0837  0.1904
  866MOL0     C16790  11.101   0.825   7.497 -0.1528  1.0376 -0.3974
  866MOL0     C16791  10.994   0.929   7.505 -0.3710 -0.4385  0.3116
  866MOL0     N16792  11.049   1.069   7.487 -0.8162 -0.7954 -0.1955
  866MOL0     C16793  11.052   1.173   7.588  1.2320 -0.5594  1.0281
  866MOL0     C16794  11.111   1.271   7.521  0.8899 -1.1791  0.6470
  866MOL0     C16795  11.119   1.405   7.587  0.9402  0.2344 -0.4980
  866MOL0     C16796  11.251   1.480   7.571 -0.3877 -0.2464 -0.0653
  866MOL0     C16797  11.271   1.524   7.423  1.1765  0.4137 -0.0423
  866MOL0     C16798  11.159   1.632   7.377  0.3158 -0.2989 -0.8346
  866MOL0     O16799  11.145   1.744   7.467 -0.0948 -0.2807  0.4552
  866MOL0     C16800  11.229   1.853   7.451  0.3505  0.8607 -0.3215
  866MOL0     C16801  11.291   1.896   7.572  0.2099  0.3051 -0.1459
  866MOL0     C16802  11.387   2.008   7.565 -0.1802  1.0794 -0.3767
  866MOL0     C16803  11.452   2.052   7.700 -0.4901  0.1043  0.5225
  866MOL0     C16804  11.417   2.063   7.438  0.1994  0.6081  0.0086
  866MOL0     C16805  11.511   2.178   7.405 -0.3786  0.2625 -0.6363
  866MOL0     O16806  11.517   2.218   7.278 -0.0187  0.2048  0.3223
  866MOL0     C16807  11.567   2.344   7.254  0.7639  0.0646  0.7790
  866MOL0     C16808  11.675   2.364   7.178  0.4682 -0.0284 -0.1086
  866MOL0     C16809  11.737   2.492   7.160 -0.0803  0.1051  0.5507
  866MOL0     C16810  11.671   2.606   7.205  0.1552  0.6398  1.0465
  866MOL0     O16811  11.732   2.725   7.175  0.0662 -1.0991  0.0934
  866MOL0     C16812  11.653   2.847   7.157  0.4475 -0.3816  0.1597
  866MOL0     C16813  11.663   2.921   7.290 -0.6995 -0.3385  0.3387
  866MOL0     C16814  11.766   3.038   7.283  0.1081  0.6825 -0.1428
  866MOL0     C16815  11.838   3.059   7.415 -0.2659  0.1671  0.3570
  866MOL0     C16816  11.933   3.180   7.419 -0.7219  0.3444 -0.5087
  866MOL0     C16817  11.997   3.211   7.547 -0.0146  0.0658 -0.8537
  866MOL0     C16818  12.093   3.329   7.518  0.1291  0.2138  0.6146
  866MOL0     C16819  12.208   3.320   7.417 -0.1999  0.4650 -0.3287
  866MOL0    Cl16820  12.299   3.473   7.423  0.1651  0.0541  0.0519
  866MOL0     C16821  11.557   2.585   7.286  0.0916 -0.9086  0.3587
  866MOL0     C16822  11.514   2.454   7.327 -0.4123  0.2937 -0.1938
  866MOL0     O16823  11.583   2.224   7.496  0.4268  0.1410  0.6892
  866MOL0     C16824  11.348   2.014   7.321  0.0478 -0.3081  0.0654
  866MOL0     C16825  11.256   1.916   7.323 -0.6412 -0.3197 -0.5184
  866MOL0     N16826  11.138   1.235   7.389 -0.5248 -0.6103 -0.5120
  866MOL0     N16827  11.098   1.118   7.367  0.2880  0.0760  0.7096
  866MOL0     C16828  11.481   1.036   8.374  0.3000  0.1108  0.2683
  866MOL0     C16829  11.525   1.093   8.495 -0.9686  0.4024  0.0247
  866MOL0     C16830  11.645   1.453   8.776 -0.0173 -0.6441  0.4163
  866MOL0     C16831  11.781   1.419   8.760  0.2974  0.2926 -0.1288
  866MOL0     C16832  11.882   1.489   8.827  1.5172  0.5919  0.4743
  866MOL0     C16833  11.856   1.609   8.895  0.2564  0.4030  0.5070
  866MOL0     O16834  11.955   1.685   8.956  0.1873  0.3759 -0.0237
  866MOL0     C16835  11.952   1.690   9.102 -0.1970  0.2937 -0.0862
  866MOL0     C16836  12.003   1.558   9.170  0.4858 -0.2665  1.0866
  866MOL0     C16837  11.976   1.551   9.321  0.5135 -0.6395 -0.1515
  866MOL0     C16838  12.053   1.665   9.401  0.0778  0.0782 -0.0937
  866MOL0     C16839  11.988   1.798   9.405 -0.2609  0.5398  0.5445
  866MOL0     C16840  11.957   1.912   9.397 -0.2563 -0.3603 -1.2638
  866MOL0     C16841  11.718   1.651   8.895 -0.2211 -0.0932 -0.1542
  866MOL0     C16842  11.617   1.565   8.852  0.7778  0.1588  0.6266
  866MOL0     H16843  11.374   1.396   8.463 -0.1475  0.7471 -0.1072
  866MOL0     H16844  11.267   1.283   8.281  0.0082 -0.4497 -2.1506
  866MOL0     H16845  11.453   0.885   8.108  0.0300  0.2644  1.2512
  866MOL0     H16846  11.365   0.816   8.238 -2.8186 -1.7401 -0.7209
  866MOL0     H16847  11.259   0.726   8.053  2.8017 -0.3047  4.1022
  866MOL0     H16848  11.146   0.857   8.099 -2.5698 -4.3928 -2.6605
  866MOL0     H16849  11.249   1.004   7.932 -0.0765 -0.5473  1.1131
  866MOL0     H16850  11.370   0.878   7.880  0.7227  1.0783 -1.0786
  866MOL0     H16851  11.062   0.840   7.855 -1.5287  4.1956 -0.1239
  866MOL0     H16852  11.136   0.953   7.757 -0.1496  2.1793  2.8661
  866MOL0     H16853  11.300   0.775   7.676  0.6980  0.8274 -0.0141
  866MOL0     H16854  11.215   0.660   7.785 -0.8119  0.1372  0.2234
  866MOL0     H16855  11.111   0.622   7.567  0.1455  0.9041 -1.2494
  866MOL0     H16856  10.990   0.701   7.654 -0.3089 -4.1044 -1.0787
  866MOL0     H16857  11.202   0.867   7.492  1.4171 -1.9928  1.9141
  866MOL0     H16858  11.080   0.770   7.404 -0.2346  0.4974 -0.0645
  866MOL0     H16859  10.955   0.928   7.607 -0.5977  0.5956  0.2506
  866MOL0     H16860  10.914   0.902   7.436  1.3987 -1.1417 -1.5752
  866MOL0     H16861  11.006   1.183   7.685  2.7486  2.1044  1.5590
  866MOL0     H16862  11.033   1.464   7.552 -0.0073 -1.0016 -0.3419
  866MOL0     H16863  11.101   1.392   7.694 -0.9440  1.6451 -0.5956
  866MOL0     H16864  11.330   1.415   7.611  0.5586  1.7041  1.3948
  866MOL0     H16865  11.255   1.569   7.634  2.1425 -0.2349 -0.1089
  866MOL0     H16866  11.262   1.433   7.363 -0.1652 -1.5828  2.9409
  866MOL0     H16867  11.373   1.558   7.404  1.3771  0.7101  1.4257
  866MOL0     H16868  11.062   1.581   7.381 -0.1420  0.6435  1.0712
  866MOL0     H16869  11.174   1.662   7.273 -2.5746 -1.0212 -1.5542
  866MOL0     H16870  11.287   1.853   7.671  1.9231  2.8376  1.1288
  866MOL0     H16871  11.395   2.137   7.740 -0.7210  0.6352 -0.8570
  866MOL0     H16872  11.432   1.969   7.768  0.0299 -0.3530  0.1221
  866MOL0     H16873  11.559   2.074   7.701  0.0423 -2.0577 -1.2366
  866MOL0     H16874  11.696   2.272   7.125  0.7563 -0.9228  1.4986
  866MOL0     H16875  11.832   2.504   7.108 -0.5980 -0.1535 -0.4821
  866MOL0     H16876  11.701   2.909   7.082  2.3166 -2.4061 -0.3876
  866MOL0     H16877  11.547   2.823   7.145  0.9519 -2.9560  0.2790
  866MOL0     H16878  11.568   2.972   7.306 -0.3894  0.3244  0.1170
  866MOL0     H16879  11.692   2.856   7.373  2.1511  0.7886  0.3468
  866MOL0     H16880  11.719   3.131   7.247  0.3767  0.4890 -1.0259
  866MOL0     H16881  11.853   3.028   7.217  1.7017  2.1830  1.5859
  866MOL0     H16882  11.766   3.067   7.497 -2.3716  1.8614 -1.5072
  866MOL0     H16883  11.895   2.968   7.434 -0.0786  0.1445 -0.3020
  866MOL0     H16884  11.866   3.264   7.399 -0.8297  0.5649  0.7165
  866MOL0     H16885  11.998   3.166   7.331 -1.7461 -0.7139 -1.1214
  866MOL0     H16886  11.919   3.252   7.612  0.8391  0.1993  0.1055
  866MOL0     H16887  12.046   3.126   7.596 -3.7713 -2.3163 -0.8058
  866MOL0     H16888  12.136   3.352   7.616 -2.6216 -0.1366  1.9936
  866MOL0     H16889  12.031   3.415   7.494 -2.0948 -1.6072 -0.5133
  866MOL0     H16890  12.167   3.311   7.316 -0.4039  1.7103 -0.3661
  866MOL0     H16891  12.265   3.229   7.438  0.2621  1.2373  2.0076
  866MOL0     H16892  11.503   2.670   7.326  3.1461  1.6517 -0.5838
  866MOL0     H16893  11.428   2.437   7.391 -1.8743 -0.2552 -2.2164
  866MOL0     H16894  11.361   2.050   7.220 -0.1588  1.4641  0.6375
  866MOL0     H16895  11.202   1.898   7.230  0.8547  3.9010 -2.4211
  866MOL0     H16896  11.523   0.940   8.345  2.2109  0.5391  1.4657
  866MOL0     H16897  11.596   1.038   8.555  2.3467  2.1376 -1.9677
  866MOL0     H16898  11.807   1.321   8.719 -1.3805 -1.2391  2.2248
  866MOL0     H16899  11.984   1.451   8.833  0.2069 -3.3592  0.3628
  866MOL0     H16900  12.018   1.774   9.128 -0.0171 -0.2070  1.1683
  866MOL0     H16901  11.849   1.713   9.129 -0.3623 -0.4103 -0.1179
  866MOL0     H16902  12.111   1.548   9.155  0.4345  1.1161 -0.5320
  866MOL0     H16903  11.963   1.468   9.123 -0.1492  1.3761 -1.7639
  866MOL0     H16904  12.016   1.454   9.352  0.2064 -0.4131  1.0076
  866MOL0     H16905  11.870   1.552   9.345  0.4702 -0.4227 -0.3476
  866MOL0     H16906  12.151   1.670   9.353  1.3970  3.4635  2.4825
  866MOL0     H16907  12.074   1.627   9.502  0.7043 -1.5148 -0.7875
  866MOL0     H16908  11.920   2.012   9.392 -2.2404 -1.0846 -3.9292
  866MOL0     H16909  11.697   1.740   8.952 -1.0735 -2.3149  3.3093
  866MOL0     H16910  11.518   1.600   8.875  1.3106  1.3036  1.2523
  867MOL0     O16911   6.614  11.222   1.660 -0.4930 -0.4562 -0.4517
  867MOL0     C16912   6.501  11.236   1.693  0.3878 -0.4474 -0.7214
  867MOL0     O16913   6.396  11.264   1.602 -0.3833 -0.2351  0.3370
  867MOL0     C16914   6.432  11.245   1.469 -0.5379  0.0696  0.3565
  867MOL0     C16915   6.481  11.125   1.408 -0.4236  0.3396  0.5941
  867MOL0     C16916   6.519  11.123   1.271 -0.5458 -0.5234 -0.9666
  867MOL0     C16917   6.475  11.224   1.187 -0.1121 -0.2704  0.3718
  867MOL0     O16918   6.500  11.234   1.051 -0.8018  0.4874  0.0115
  867MOL0     C16919   6.472  11.119   0.978  0.5118 -0.9476  0.2666
  867MOL0     C16920   6.418  11.150   0.831  0.0171  0.0018 -0.6562
  867MOL0     C16921   6.364  11.027   0.764 -0.2867 -0.0149  0.5174
  867MOL0     C16922   6.413  11.015   0.612 -0.3374  0.7062  0.1664
  867MOL0     C16923   6.325  10.912   0.538 -0.3347  0.2616  0.1746
  867MOL0     C16924   6.337  10.941   0.391 -0.2491  0.7502 -0.3186
  867MOL0     C16925   6.276  10.822   0.311 -0.1034  0.2973  0.0998
  867MOL0     C16926   6.304  10.837   0.164  0.0036  0.4123 -0.5064
  867MOL0     N16927   6.194  10.781   0.087  0.4522 -0.2602  0.6313
  867MOL0     C16928   6.186  10.650   0.031  0.1961  0.1670 -0.3124
  867MOL0     C16929   6.062  10.640  -0.028  0.3752 -0.6112 -0.1471
  867MOL0     C16930   5.997  10.527  -0.098  0.3348 -0.3484  0.2783
  867MOL0     C16931   5.972  10.566  -0.247  0.3647 -1.1337  0.2206
  867MOL0     C16932   6.091  10.564  -0.338 -0.1181 -0.0426  0.1358
  867MOL0     C16933   6.195  10.679  -0.333 -0.3779  0.7561  0.2535
  867MOL0     O16934   6.126  10.803  -0.321 -0.0578  0.0127  0.2533
  867MOL0     C16935   6.051  10.846  -0.426  0.2710 -0.5031 -0.2291
  867MOL0     C16936   5.967  10.944  -0.394  0.8123 -0.3715 -0.3284
  867MOL0     C16937   5.884  11.015  -0.481 -0.8667 -0.8724  0.1290
  867MOL0     C16938   5.793  11.126  -0.432  0.0129 -0.4072 -0.4165
  867MOL0     C16939   5.885  10.968  -0.619  0.7121 -1.5409 -0.6088
  867MOL0     C16940   5.797  11.045  -0.724 -0.7561 -0.5850 -0.6151
  867MOL0     O16941   5.806  11.178  -0.742 -0.5577 -0.3840  0.8621
  867MOL0     C16942   5.725  11.230  -0.839 -0.5326  0.0017 -0.3637
  867MOL0     C16943   5.605  11.277  -0.784 -0.8556  0.0112 -0.9018
  867MOL0     C16944   5.525  11.358  -0.856  0.1298  0.1225  0.2763
  867MOL0     C16945   5.549  11.365  -0.993 -0.1439  0.7476  0.5179
  867MOL0     O16946   5.470  11.444  -1.073  0.2618 -0.5603 -0.9435
  867MOL0     C16947   5.436  11.410  -1.201  0.5169 -0.0106 -0.8016
  867MOL0     C16948   5.387  11.529  -1.288 -0.0308 -1.3102  0.1916
  867MOL0     C16949   5.494  11.646  -1.292 -0.4183  0.5630 -0.0036
  867MOL0     C16950   5.429  11.765  -1.366  0.0587  0.2833 -0.2914
  867MOL0     C16951   5.518  11.894  -1.347  0.1449  0.2123  0.6698
  867MOL0     C16952   5.474  12.007  -1.445 -0.3080  0.0344  0.1332
  867MOL0     C16953   5.530  12.149  -1.413  0.7763  0.0926 -0.0555
  867MOL0     C16954   5.530  12.233  -1.545  0.1480  0.7334 -0.0267
  867MOL0    Cl16955   5.597  12.395  -1.534  0.2024  0.5117 -0.1472
  867MOL0     C16956   5.664  11.309  -1.046 -0.3181  0.1472  0.5632
  867MOL0     C16957   5.757  11.245  -0.974 -1.1307  0.0362  0.4117
  867MOL0     O16958   5.715  10.974  -0.779 -0.2527  0.4459 -0.0703
  867MOL0     C16959   5.962  10.854  -0.648 -0.6651 -0.1612  0.5204
  867MOL0     C16960   6.049  10.797  -0.555  0.5283  1.1337  1.3037
  867MOL0     N16961   5.990  10.762  -0.009  0.6464  0.1116 -0.3619
  867MOL0     N16962   6.076  10.847   0.052  0.1834  0.4669 -0.1398
  867MOL0     C16963   6.411  11.336   1.242 -0.1035  0.2822  0.8615
  867MOL0     C16964   6.392  11.351   1.386 -1.3098  0.0636 -0.0676
  867MOL0     C16965   6.449  11.241   1.837  0.4784 -0.8975  0.2869
  867MOL0     C16966   6.315  11.263   1.872 -0.2317 -0.7695 -0.2746
  867MOL0     C16967   6.270  11.254   2.009  0.3540 -0.0879  0.6191
  867MOL0     C16968   6.367  11.222   2.106  0.7079  0.5509  0.3677
  867MOL0     O16969   6.342  11.234   2.235 -0.4290 -0.2011  0.4781
  867MOL0     C16970   6.262  11.347   2.286 -1.2450 -0.2611  0.5076
  867MOL0     C16971   6.331  11.408   2.410 -0.1777 -0.2971  0.1898
  867MOL0     C16972   6.472  11.464   2.381 -0.5668 -0.5542  0.1286
  867MOL0     C16973   6.524  11.516   2.517  0.6549 -0.6471 -0.8837
  867MOL0     C16974   6.497  11.659   2.536 -0.4033 -0.2831 -0.4985
  867MOL0     C16975   6.502  11.782   2.544 -0.0576  0.0122  0.3319
  867MOL0     C16976   6.499  11.194   2.070  0.2655 -0.0040  0.0315
  867MOL0     C16977   6.534  11.206   1.936 -0.6578  0.1479  0.1770
  867MOL0     H16978   6.505  11.036   1.464  4.8300 -1.5891 -3.8482
  867MOL0     H16979   6.570  11.035   1.232 -2.2263 -1.7184 -0.5320
  867MOL0     H16980   6.547  11.039   0.981 -1.2468 -2.6505  0.6692
  867MOL0     H16981   6.389  11.065   1.025  2.1578 -1.1198  3.1855
  867MOL0     H16982   6.345  11.231   0.823 -1.2862 -1.3133 -2.8797
  867MOL0     H16983   6.510  11.171   0.775  0.0721  0.7495 -0.3032
  867MOL0     H16984   6.409  10.937   0.808  0.0804 -0.1600 -0.1493
  867MOL0     H16985   6.256  11.013   0.769  0.0429 -3.1544  0.6659
  867MOL0     H16986   6.395  11.110   0.561 -0.1340  0.1497 -0.9807
  867MOL0     H16987   6.519  10.991   0.602  0.0423  1.6980  1.4947
  867MOL0     H16988   6.370  10.816   0.561  2.8269  2.1510  2.7024
  867MOL0     H16989   6.223  10.907   0.577 -0.3595 -0.1564  0.0553
  867MOL0     H16990   6.284  11.033   0.363 -2.2223  0.3778  1.8995
  867MOL0     H16991   6.443  10.935   0.361 -0.1845 -1.8562  0.1887
  867MOL0     H16992   6.333  10.734   0.342 -0.9077 -0.7904 -1.3759
  867MOL0     H16993   6.173  10.794   0.334  0.1913 -0.9161  0.0449
  867MOL0     H16994   6.405  10.804   0.139 -1.5349 -5.5357 -0.2888
  867MOL0     H16995   6.294  10.944   0.141 -1.5419  0.1519 -1.1721
  867MOL0     H16996   6.261  10.571   0.035  1.3243  1.2546  2.3701
  867MOL0     H16997   6.060  10.438  -0.095  1.9671  0.5146 -3.3098
  867MOL0     H16998   5.898  10.514  -0.052  0.2815  3.6727  1.7169
  867MOL0     H16999   5.925  10.664  -0.262  1.9448 -0.3599  0.2200
  867MOL0     H17000   5.895  10.498  -0.287  0.1519 -0.6767 -0.1603
  867MOL0     H17001   6.058  10.562  -0.442  0.7964 -2.2483 -0.1792
  867MOL0     H17002   6.153  10.474  -0.322  0.5799  0.4097  0.0118
  867MOL0     H17003   6.275  10.674  -0.407 -1.7388  1.2679 -1.3246
  867MOL0     H17004   6.248  10.677  -0.238 -1.0273  2.2924  0.6876
  867MOL0     H17005   5.956  10.986  -0.295 -2.4635 -1.9976  0.1384
  867MOL0     H17006   5.857  11.198  -0.381  2.3591 -2.5724 -0.0863
  867MOL0     H17007   5.746  11.181  -0.514 -1.3356  0.1273  0.6832
  867MOL0     H17008   5.714  11.089  -0.365 -2.4160  0.9052 -2.3708
  867MOL0     H17009   5.569  11.245  -0.686  3.0819 -2.6414 -0.0489
  867MOL0     H17010   5.446  11.418  -0.812 -1.2587 -1.5064  0.0937
  867MOL0     H17011   5.523  11.372  -1.255 -0.3319 -1.1826 -1.3862
  867MOL0     H17012   5.364  11.328  -1.202  0.8810 -0.4480  1.7732
  867MOL0     H17013   5.375  11.493  -1.390 -3.0743 -0.3279  0.1233
  867MOL0     H17014   5.293  11.569  -1.251  0.1001  3.7653 -3.9426
  867MOL0     H17015   5.584  11.614  -1.346 -0.2129  2.1866 -0.7049
  867MOL0     H17016   5.523  11.678  -1.192  1.1930 -0.9150  0.0429
  867MOL0     H17017   5.420  11.738  -1.471  0.4974  1.3298 -0.6201
  867MOL0     H17018   5.329  11.783  -1.326  0.3684 -2.6598  2.1912
  867MOL0     H17019   5.620  11.875  -1.380 -0.1285 -1.9411  0.9058
  867MOL0     H17020   5.516  11.927  -1.242 -2.6982  2.7557 -0.0370
  867MOL0     H17021   5.503  11.997  -1.550  2.0841  0.7292  0.6618
  867MOL0     H17022   5.365  12.011  -1.453 -0.4027  3.2806  1.4460
  867MOL0     H17023   5.631  12.134  -1.376  1.9652 -0.8341 -3.2955
  867MOL0     H17024   5.470  12.209  -1.344  0.8078 -0.8068  0.7853
  867MOL0     H17025   5.426  12.252  -1.574  0.9563  6.3476 -0.2209
  867MOL0     H17026   5.586  12.179  -1.622 -1.2428 -1.4686  0.4122
  867MOL0     H17027   5.696  11.328  -1.148 -1.9213 -0.7377 -0.1455
  867MOL0     H17028   5.847  11.209  -1.024 -0.6768  1.2134  0.3541
  867MOL0     H17029   5.962  10.826  -0.753  5.1066  0.5016 -0.0057
  867MOL0     H17030   6.107  10.709  -0.582 -2.3963 -1.4094  2.7004
  867MOL0     H17031   6.373  11.410   1.172  0.0606  0.5490  1.0539
  867MOL0     H17032   6.346  11.443   1.420 -0.9482  0.3838 -0.4254
  867MOL0     H17033   6.245  11.287   1.792 -0.4126 -1.0147 -0.1905
  867MOL0     H17034   6.168  11.274   2.039  0.1116 -0.8037  0.2904
  867MOL0     H17035   6.250  11.431   2.216 -0.2745  1.1774  2.0111
  867MOL0     H17036   6.161  11.312   2.308 -1.4516  0.4714  0.7467
  867MOL0     H17037   6.353  11.331   2.484  2.7528  2.3643  2.4132
  867MOL0     H17038   6.268  11.488   2.449  0.3111  0.5852 -0.7645
  867MOL0     H17039   6.453  11.541   2.305 -3.4751 -1.0852  0.1766
  867MOL0     H17040   6.530  11.384   2.335  2.5126  2.0484 -0.9390
  867MOL0     H17041   6.633  11.502   2.520  0.7509 -0.2316 -1.9671
  867MOL0     H17042   6.477  11.464   2.601 -3.4156 -1.3026 -3.3423
  867MOL0     H17043   6.519  11.887   2.558  0.9496 -0.3407  2.0423
  867MOL0     H17044   6.572  11.164   2.146  1.0932 -1.7036 -1.3680
  867MOL0     H17045   6.635  11.184   1.903 -0.6656 -0.7548  0.7387
  868MOL0     O17046   7.068   6.389   0.876 -0.2921  0.0505 -0.4275
  868MOL0     C17047   6.998   6.341   0.964  1.3048  0.8093 -0.4059
  868MOL0     O17048   6.985   6.203   0.983 -0.1890 -0.1615  0.1851
  868MOL0     C17049   7.070   6.113   0.923  0.5474  0.1872  1.2611
  868MOL0     C17050   7.032   6.089   0.791  0.8359 -0.7519  0.3517
  868MOL0     C17051   7.104   5.992   0.720  0.0080 -0.2142 -0.2884
  868MOL0     C17052   7.206   5.917   0.772  0.9639 -0.3882 -0.3224
  868MOL0     O17053   7.280   5.829   0.706 -0.6062 -0.8081  0.1689
  868MOL0     C17054   7.245   5.769   0.582 -0.3957 -0.1960 -0.7996
  868MOL0     C17055   7.329   5.653   0.539  0.9664 -0.3975 -0.2353
  868MOL0     C17056   7.479   5.668   0.526  0.8034  0.1562  0.4540
  868MOL0     C17057   7.536   5.557   0.423 -0.3096 -0.2903 -0.3140
  868MOL0     C17058   7.690   5.572   0.417  0.3108  0.8204  0.6244
  868MOL0     C17059   7.747   5.708   0.392 -0.9493  0.8150 -0.7542
  868MOL0     C17060   7.887   5.686   0.339  1.2131 -0.3558  0.3008
  868MOL0     C17061   7.980   5.646   0.446 -0.4290 -0.0335  0.8779
  868MOL0     N17062   8.126   5.633   0.416 -0.1000 -0.4556 -0.3339
  868MOL0     C17063   8.188   5.640   0.293 -0.3864  0.3420  0.3467
  868MOL0     C17064   8.319   5.599   0.318 -0.2332  0.5414  0.6058
  868MOL0     C17065   8.404   5.574   0.203 -0.3843 -0.1931 -0.1796
  868MOL0     C17066   8.533   5.509   0.251 -0.4042  0.2852 -0.4208
  868MOL0     C17067   8.630   5.603   0.318 -0.3938 -0.4199 -0.4131
  868MOL0     C17068   8.674   5.741   0.251  0.4276  0.2158  0.0475
  868MOL0     O17069   8.712   5.731   0.112 -0.7241  0.5618  0.2720
  868MOL0     C17070   8.771   5.842   0.057  0.0700 -0.4264 -0.0156
  868MOL0     C17071   8.771   5.972   0.106  0.1785  1.0035  0.2745
  868MOL0     C17072   8.819   6.081   0.032 -0.7382  0.4878  0.2813
  868MOL0     C17073   8.780   6.212   0.092 -0.4814  0.2748 -0.8404
  868MOL0     C17074   8.900   6.047  -0.082  0.3875 -0.5061 -0.6767
  868MOL0     C17075   8.980   6.143  -0.157  0.2300 -0.1490  0.5355
  868MOL0     O17076   9.001   6.274  -0.113 -0.1527 -0.2995  0.4013
  868MOL0     C17077   9.089   6.356  -0.181  0.6594  0.1978  1.0959
  868MOL0     C17078   9.063   6.502  -0.161  0.0334  0.6429 -0.1591
  868MOL0     C17079   9.145   6.602  -0.217  0.5576 -0.4312  0.5908
  868MOL0     C17080   9.240   6.573  -0.306  0.7722 -0.1663  0.3686
  868MOL0     O17081   9.286   6.684  -0.368  0.4581  0.0172 -0.5811
  868MOL0     C17082   9.370   6.677  -0.481 -1.1939 -0.6621  0.4110
  868MOL0     C17083   9.298   6.687  -0.610 -0.1426 -0.1555 -0.0305
  868MOL0     C17084   9.200   6.797  -0.617 -1.1105  0.1162  0.6195
  868MOL0     C17085   9.257   6.944  -0.580 -0.7024  0.0905 -0.0864
  868MOL0     C17086   9.163   7.040  -0.640  0.7758 -0.4959  1.2116
  868MOL0     C17087   9.197   7.192  -0.606 -0.5006  0.5783 -0.2433
  868MOL0     C17088   9.183   7.219  -0.459  0.4606 -0.7488 -0.0253
  868MOL0     C17089   9.181   7.369  -0.447 -0.4095 -0.0283  0.4487
  868MOL0    Cl17090   9.009   7.423  -0.486  0.4864  0.5582 -0.8007
  868MOL0     C17091   9.268   6.436  -0.332  0.5754  0.0473  0.4708
  868MOL0     C17092   9.199   6.332  -0.263 -0.5675  0.4211  0.2255
  868MOL0     O17093   9.009   6.112  -0.269 -0.3685 -0.2314  0.7339
  868MOL0     C17094   8.907   5.916  -0.121 -0.3868  0.1965 -0.9833
  868MOL0     C17095   8.844   5.820  -0.059  0.1504  0.4087  0.2462
  868MOL0     N17096   8.324   5.565   0.452 -0.5283  0.1863  0.4008
  868MOL0     N17097   8.208   5.570   0.506  0.1847 -1.0845 -0.7484
  868MOL0     C17098   7.245   5.947   0.901  0.5387  0.4492  0.3682
  868MOL0     C17099   7.169   6.039   0.982 -0.1890  0.1883 -0.6524
  868MOL0     C17100   6.933   6.439   1.059  0.4580  0.2436 -0.7196
  868MOL0     C17101   6.833   6.402   1.149 -0.1194  0.1343  0.2008
  868MOL0     C17102   6.795   6.478   1.260 -0.0064 -0.2423 -0.5972
  868MOL0     C17103   6.840   6.610   1.286  0.3717  0.5114 -0.1199
  868MOL0     O17104   6.802   6.683   1.389  0.1432 -0.3679 -0.5527
  868MOL0     C17105   6.706   6.623   1.478  0.5687 -0.6552  0.4361
  868MOL0     C17106   6.552   6.618   1.430 -0.7467 -0.9667  0.1469
  868MOL0     C17107   6.517   6.758   1.397  0.2641  0.4805  0.4575
  868MOL0     C17108   6.372   6.766   1.355 -0.4768 -0.1235  0.3806
  868MOL0     C17109   6.321   6.903   1.351 -0.3743 -0.8314  0.5678
  868MOL0     C17110   6.275   7.019   1.350 -0.7380 -0.0664 -0.5790
  868MOL0     C17111   6.927   6.656   1.185  0.5123  0.3404  0.0855
  868MOL0     C17112   6.974   6.574   1.076  0.5409  0.1690  0.2462
  868MOL0     H17113   6.949   6.147   0.751 -0.5716 -0.8942  2.8756
  868MOL0     H17114   7.081   5.979   0.614 -1.0887 -0.4520 -0.0303
  868MOL0     H17115   7.143   5.732   0.594 -1.9796  4.2673  2.1630
  868MOL0     H17116   7.241   5.848   0.507 -1.4439  1.0780  0.5243
  868MOL0     H17117   7.308   5.579   0.617 -0.7140  0.0049 -0.2718
  868MOL0     H17118   7.280   5.611   0.450  2.1407 -0.0456 -1.0749
  868MOL0     H17119   7.500   5.772   0.500 -4.0053  1.3207  0.1919
  868MOL0     H17120   7.529   5.636   0.617 -0.4161 -0.7373  0.8429
  868MOL0     H17121   7.521   5.456   0.463 -1.4057  0.9932  2.7710
  868MOL0     H17122   7.477   5.571   0.332 -0.1511 -1.9634 -0.7088
  868MOL0     H17123   7.731   5.542   0.514  0.4679 -1.5176 -0.0863
  868MOL0     H17124   7.720   5.495   0.346 -2.2659 -2.2694  2.5621
  868MOL0     H17125   7.697   5.792   0.343  1.2792  2.2625 -0.6986
  868MOL0     H17126   7.759   5.752   0.491  1.2401  1.3289 -1.1853
  868MOL0     H17127   7.896   5.613   0.259  1.3507  1.5558 -1.5358
  868MOL0     H17128   7.929   5.773   0.288  0.0901 -2.0761 -4.0086
  868MOL0     H17129   7.945   5.553   0.492  0.0908  0.0976  1.5502
  868MOL0     H17130   7.962   5.725   0.520 -1.7679 -0.4451  1.0301
  868MOL0     H17131   8.151   5.655   0.192 -0.1024 -1.9914 -0.1506
  868MOL0     H17132   8.357   5.519   0.121  1.9162  0.3705 -1.9793
  868MOL0     H17133   8.430   5.667   0.153 -3.3176  0.3164 -0.9739
  868MOL0     H17134   8.593   5.463   0.172  2.1945 -0.1263  1.6199
  868MOL0     H17135   8.502   5.423   0.312 -4.1857  0.7856 -1.3950
  868MOL0     H17136   8.730   5.561   0.331  0.2209  0.7201 -1.3911
  868MOL0     H17137   8.584   5.630   0.414  2.4306 -1.1041  1.2416
  868MOL0     H17138   8.760   5.777   0.308  0.1668 -1.0279  1.2965
  868MOL0     H17139   8.594   5.815   0.252 -0.2789 -0.5218  1.4435
  868MOL0     H17140   8.710   5.992   0.193  2.2323 -0.6438  2.2078
  868MOL0     H17141   8.861   6.269   0.139 -0.6597  2.0366 -2.5439
  868MOL0     H17142   8.744   6.270   0.006 -0.6197 -2.1863 -2.5294
  868MOL0     H17143   8.701   6.203   0.168  0.5849 -2.6330  0.0437
  868MOL0     H17144   8.977   6.542  -0.108 -0.4459  0.6322 -0.9066
  868MOL0     H17145   9.130   6.708  -0.201  0.5866  0.2336 -2.8624
  868MOL0     H17146   9.441   6.760  -0.471  0.2697 -1.6931 -0.8795
  868MOL0     H17147   9.436   6.590  -0.477 -2.1873 -1.4019  1.0783
  868MOL0     H17148   9.381   6.695  -0.681  2.3934 -3.2340  2.2827
  868MOL0     H17149   9.256   6.588  -0.628 -0.6055 -0.2831  1.5863
  868MOL0     H17150   9.110   6.782  -0.557 -0.2001  0.1965  2.0516
  868MOL0     H17151   9.174   6.804  -0.723  0.8563  3.7471  0.2061
  868MOL0     H17152   9.269   6.964  -0.473 -1.1167  2.6551 -0.4484
  868MOL0     H17153   9.352   6.957  -0.633 -0.3496  0.1863  0.5674
  868MOL0     H17154   9.060   7.016  -0.610  0.4501  0.7112  1.1158
  868MOL0     H17155   9.167   7.021  -0.748 -2.5628 -3.4172  1.3861
  868MOL0     H17156   9.299   7.207  -0.641  0.3047 -2.5122  0.4758
  868MOL0     H17157   9.135   7.258  -0.667  1.3125  1.8043 -0.8554
  868MOL0     H17158   9.267   7.178  -0.402  1.0192  0.1185 -0.2089
  868MOL0     H17159   9.089   7.175  -0.421 -0.1557  0.3856 -0.1926
  868MOL0     H17160   9.251   7.420  -0.514 -0.4785 -0.5222  0.0007
  868MOL0     H17161   9.213   7.394  -0.345  0.1917  0.4844  0.1389
  868MOL0     H17162   9.355   6.405  -0.389  2.8225 -3.1934  5.0176
  868MOL0     H17163   9.228   6.229  -0.273 -0.2160  0.6164 -0.8932
  868MOL0     H17164   8.985   5.883  -0.189 -0.5102 -1.4907 -0.3285
  868MOL0     H17165   8.840   5.719  -0.099  0.7706  0.4662  0.0329
  868MOL0     H17166   7.331   5.887   0.932  1.4964  1.1033 -0.9051
  868MOL0     H17167   7.181   6.043   1.090 -0.3773 -2.8491 -0.4101
  868MOL0     H17168   6.803   6.298   1.146 -0.6111  0.2141  1.4972
  868MOL0     H17169   6.744   6.422   1.338  2.4919  2.5623  3.4556
  868MOL0     H17170   6.742   6.524   1.507  0.6533 -1.8200 -3.1416
  868MOL0     H17171   6.716   6.681   1.570  0.4475  0.3264 -0.1597
  868MOL0     H17172   6.485   6.584   1.510 -1.1578  0.5588  0.4890
  868MOL0     H17173   6.546   6.562   1.337 -0.4398 -1.2409  0.2876
  868MOL0     H17174   6.586   6.799   1.323  1.7863  1.5325  2.3570
  868MOL0     H17175   6.536   6.824   1.482 -2.0969  1.6140  0.1822
  868MOL0     H17176   6.299   6.714   1.418  0.2397 -0.3117  1.0758
  868MOL0     H17177   6.371   6.724   1.254  3.9816 -0.9630  0.4857
  868MOL0     H17178   6.229   7.115   1.359 -0.5762  0.0532 -1.0226
  868MOL0     H17179   6.960   6.759   1.193 -1.1357  0.8863  0.1878
  868MOL0     H17180   7.052   6.608   1.008  0.6132 -1.7275 -0.6927
  869MOL0     O17181   4.030   0.395  10.680 -0.7602  0.0250  1.3189
  869MOL0     C17182   4.120   0.476  10.684 -0.6715  0.3877 -0.9082
  869MOL0     O17183   4.213   0.493  10.797 -0.5460 -0.5766  0.4367
  869MOL0     C17184   4.211   0.409  10.900 -0.2508 -0.2917  0.5172
  869MOL0     C17185   4.141   0.452  11.010 -0.5278 -0.2021 -0.0337
  869MOL0     C17186   4.133   0.388  11.130 -0.4912  0.2268 -0.0822
  869MOL0     C17187   4.213   0.264  11.135  1.2104  0.2722 -0.6088
  869MOL0     O17188   4.209   0.186  11.244  0.2132 -0.5213  0.6371
  869MOL0     C17189   4.225   0.256  11.365 -0.7548 -0.1947  0.0120
  869MOL0     C17190   4.238   0.162  11.481 -0.8496  0.7416 -0.2087
  869MOL0     C17191   4.352   0.065  11.457  0.4286 -0.4041  0.1498
  869MOL0     C17192   4.380  -0.018  11.584 -1.1218  0.2275 -0.7493
  869MOL0     C17193   4.461  -0.144  11.552  0.0633 -0.1853  0.5336
  869MOL0     C17194   4.606  -0.110  11.514  0.0786  0.6841  0.3647
  869MOL0     C17195   4.686  -0.024  11.608  0.0472  0.5403 -1.1411
  869MOL0     C17196   4.681  -0.075  11.751  0.4906 -0.4668 -0.4335
  869MOL0     N17197   4.736  -0.211  11.766  0.8379 -0.4119  0.2377
  869MOL0     C17198   4.871  -0.225  11.773  0.3073  0.2568  0.3652
  869MOL0     C17199   4.876  -0.355  11.824  0.1063 -0.5560 -0.2864
  869MOL0     C17200   4.999  -0.431  11.866  0.6833  0.4375 -0.0503
  869MOL0     C17201   5.098  -0.429  11.749 -0.9565  0.2145  0.8054
  869MOL0     C17202   5.243  -0.488  11.779  0.5240  0.0905 -0.7150
  869MOL0     C17203   5.348  -0.485  11.669 -0.3905 -0.3143 -0.8625
  869MOL0     O17204   5.464  -0.560  11.710 -0.5868 -0.5086  0.5732
  869MOL0     C17205   5.573  -0.499  11.763 -0.0288 -0.5800 -0.2263
  869MOL0     C17206   5.683  -0.585  11.781 -0.4031 -0.1149 -0.0364
  869MOL0     C17207   5.801  -0.534  11.836 -0.2676 -0.3061 -0.6357
  869MOL0     C17208   5.915  -0.626  11.846  0.5100  0.3237  0.9820
  869MOL0     C17209   5.799  -0.399  11.888 -0.2128 -0.2192  0.2451
  869MOL0     C17210   5.914  -0.347  11.969 -0.9113 -0.3445 -0.7383
  869MOL0     O17211   5.894  -0.232  12.041 -0.1509 -0.8403 -0.7473
  869MOL0     C17212   5.984  -0.142  12.089 -0.1767  0.2243  0.1729
  869MOL0     C17213   6.115  -0.171  12.115  0.3832 -0.1654 -0.1468
  869MOL0     C17214   6.204  -0.079  12.169  0.4743 -0.4110  0.4804
  869MOL0     C17215   6.166   0.058  12.203  0.0324  1.2859  1.1318
  869MOL0     O17216   6.263   0.145  12.242  0.8356 -0.5478 -0.4241
  869MOL0     C17217   6.348   0.113  12.346 -0.9449 -0.9685 -0.4613
  869MOL0     C17218   6.388   0.248  12.420  0.1103 -0.0431  0.1253
  869MOL0     C17219   6.541   0.260  12.391 -0.1799  0.0445  0.4257
  869MOL0     C17220   6.602   0.394  12.395  0.4878 -0.3041  0.0832
  869MOL0     C17221   6.601   0.462  12.535 -0.0713  0.2250 -0.7550
  869MOL0     C17222   6.601   0.618  12.530 -0.1289  0.1620  0.4704
  869MOL0     C17223   6.580   0.661  12.676 -0.8532  0.2535 -0.1616
  869MOL0     C17224   6.588   0.815  12.692 -0.1025  0.0777 -1.0517
  869MOL0    Cl17225   6.463   0.897  12.594  0.0497  0.0930  0.4536
  869MOL0     C17226   6.026   0.083  12.181  0.2054 -0.2122  0.0419
  869MOL0     C17227   5.943  -0.017  12.129  0.3749  0.1532  0.0746
  869MOL0     O17228   6.028  -0.398  11.939 -0.1854  0.3247  0.0864
  869MOL0     C17229   5.683  -0.320  11.888 -0.3851 -0.7744 -0.0383
  869MOL0     C17230   5.570  -0.365  11.813 -1.1569 -0.4216 -0.5699
  869MOL0     N17231   4.754  -0.416  11.810 -0.4538  0.6970 -0.2410
  869MOL0     N17232   4.667  -0.327  11.795  0.4384 -0.4824  0.8398
  869MOL0     C17233   4.275   0.219  11.025 -0.1726  0.3584 -0.0361
  869MOL0     C17234   4.280   0.293  10.905 -0.8121  0.0997 -1.0971
  869MOL0     C17235   4.129   0.590  10.594  1.1439  1.8360 -0.1926
  869MOL0     C17236   4.232   0.687  10.590  0.1216  0.2373 -0.0263
  869MOL0     C17237   4.236   0.790  10.495  0.3002  0.0578  0.0171
  869MOL0     C17238   4.155   0.778  10.379  0.5540 -0.1297 -0.9551
  869MOL0     O17239   4.188   0.862  10.278  0.3581  0.5357  0.2867
  869MOL0     C17240   4.132   0.823  10.150  0.5229  0.1677 -0.0091
  869MOL0     C17241   4.213   0.901  10.045  0.4115  0.9660  0.0770
  869MOL0     C17242   4.293   0.805   9.961 -0.5525  0.2400  0.5792
  869MOL0     C17243   4.220   0.751   9.839 -0.6677  0.6550 -0.0558
  869MOL0     C17244   4.307   0.700   9.728  0.5773 -0.4177 -0.4386
  869MOL0     C17245   4.386   0.693   9.643  0.8871  0.5122  1.2565
  869MOL0     C17246   4.043   0.690  10.389 -0.6112  0.0214  0.6718
  869MOL0     C17247   4.022   0.606  10.496  0.4157 -0.7186 -0.3264
  869MOL0     H17248   4.084   0.544  11.008 -3.0593 -1.6771 -1.2860
  869MOL0     H17249   4.069   0.436  11.203 -2.5357 -2.2624 -0.0896
  869MOL0     H17250   4.323   0.305  11.363 -0.2277 -1.2266  0.1160
  869MOL0     H17251   4.150   0.332  11.386  0.2320 -0.1946  4.2917
  869MOL0     H17252   4.272   0.226  11.563  0.6383 -0.1294 -0.1039
  869MOL0     H17253   4.140   0.120  11.504  0.3653 -0.5461  3.1865
  869MOL0     H17254   4.328  -0.001  11.373  2.6331 -0.3192 -0.6313
  869MOL0     H17255   4.440   0.125  11.430 -0.2191  0.6748  0.3864
  869MOL0     H17256   4.433   0.046  11.656 -1.6908  0.6345 -0.6905
  869MOL0     H17257   4.286  -0.050  11.629 -0.5308 -0.7281 -0.1493
  869MOL0     H17258   4.465  -0.209  11.640 -3.1863 -1.9253 -0.4452
  869MOL0     H17259   4.403  -0.199  11.477 -2.9106  2.7921  0.4524
  869MOL0     H17260   4.666  -0.201  11.499  0.7797  1.2600 -0.4325
  869MOL0     H17261   4.606  -0.056  11.419  2.3536  1.3831  0.6830
  869MOL0     H17262   4.793  -0.023  11.583  0.5054 -2.0753  0.3736
  869MOL0     H17263   4.654   0.080  11.607 -0.9242  0.2821 -0.1023
  869MOL0     H17264   4.577  -0.073  11.786  0.5947  1.3317 -0.1435
  869MOL0     H17265   4.745  -0.007  11.809  0.4538 -1.0711  0.3372
  869MOL0     H17266   4.944  -0.145  11.761  0.4410  0.4824  2.2875
  869MOL0     H17267   5.049  -0.382  11.950 -1.4700  3.3623 -0.3012
  869MOL0     H17268   4.966  -0.535  11.874 -1.1708  0.9768 -0.0461
  869MOL0     H17269   5.114  -0.322  11.731 -0.2002 -0.3715 -2.4555
  869MOL0     H17270   5.051  -0.484  11.668 -4.2207  0.5092  2.3204
  869MOL0     H17271   5.254  -0.592  11.813 -2.0095  0.3188  1.1003
  869MOL0     H17272   5.271  -0.427  11.865  0.3247  1.9698 -1.9225
  869MOL0     H17273   5.371  -0.379  11.654 -1.0811  0.3304  1.9510
  869MOL0     H17274   5.317  -0.536  11.578  1.3284 -2.1085 -0.5070
  869MOL0     H17275   5.682  -0.689  11.750  0.1459 -0.1643  0.0991
  869MOL0     H17276   5.981  -0.590  11.767 -0.7133 -0.8881 -0.6680
  869MOL0     H17277   5.950  -0.633  11.950  1.3332 -1.2605  0.6344
  869MOL0     H17278   5.884  -0.724  11.808  3.6139 -1.4166  2.4578
  869MOL0     H17279   6.163  -0.266  12.092  0.8567 -0.6796  2.6130
  869MOL0     H17280   6.307  -0.112  12.166  0.6358  0.0238  0.9572
  869MOL0     H17281   6.310   0.039  12.417  1.0818 -1.3009  0.3362
  869MOL0     H17282   6.429   0.054  12.304 -0.6760 -0.4811 -0.6359
  869MOL0     H17283   6.333   0.339  12.392  0.6730 -0.1363 -1.3741
  869MOL0     H17284   6.367   0.236  12.527  0.8228  0.6389  0.3472
  869MOL0     H17285   6.536   0.230  12.286  0.5201  1.5205 -0.0561
  869MOL0     H17286   6.603   0.188  12.446 -0.1071 -0.7075 -0.6057
  869MOL0     H17287   6.703   0.384  12.354  0.8955  0.4976  0.8560
  869MOL0     H17288   6.549   0.457  12.323  3.5643 -2.4949 -4.5307
  869MOL0     H17289   6.680   0.428  12.602 -2.6714 -1.9288  1.4640
  869MOL0     H17290   6.515   0.422  12.589  2.0123 -0.5173  2.2392
  869MOL0     H17291   6.699   0.648  12.491  0.0504 -3.1889 -2.1307
  869MOL0     H17292   6.525   0.671  12.472 -0.3733  0.4004  1.0036
  869MOL0     H17293   6.667   0.628  12.733 -1.7408  0.5428  1.4354
  869MOL0     H17294   6.497   0.613  12.730 -2.6730 -2.1278 -4.5457
  869MOL0     H17295   6.689   0.842  12.660  0.5740  1.4570  1.9156
  869MOL0     H17296   6.575   0.840  12.797  1.7977 -4.0361  0.3982
  869MOL0     H17297   5.984   0.181  12.202  0.7708 -0.3387  1.9599
  869MOL0     H17298   5.836  -0.007  12.117 -0.4123 -2.5470  3.3189
  869MOL0     H17299   5.685  -0.216  11.919  1.0798 -0.6361 -0.4993
  869MOL0     H17300   5.486  -0.301  11.786 -1.3359 -0.3326  0.1781
  869MOL0     H17301   4.334   0.128  11.028  1.8197  1.4742 -2.2077
  869MOL0     H17302   4.330   0.258  10.815 -0.1152  3.0395 -1.9653
  869MOL0     H17303   4.291   0.698  10.680  1.2347 -1.5755 -0.4797
  869MOL0     H17304   4.311   0.869  10.503  1.8991 -1.3819 -0.0743
  869MOL0     H17305   4.137   0.714  10.142  1.5066  0.2355 -0.4591
  869MOL0     H17306   4.025   0.837  10.134 -0.0722 -1.6195  1.9793
  869MOL0     H17307   4.278   0.968  10.102  1.3455  0.2434 -0.1109
  869MOL0     H17308   4.139   0.952   9.982 -0.5763  0.8958  1.1701
  869MOL0     H17309   4.339   0.726  10.021  2.6387  1.3280 -0.2529
  869MOL0     H17310   4.381   0.851   9.914 -0.1286 -2.1702 -1.1753
  869MOL0     H17311   4.156   0.829   9.798 -1.8696  0.4216  1.3015
  869MOL0     H17312   4.162   0.667   9.878  1.1355  0.2151  1.8669
  869MOL0     H17313   4.439   0.678   9.550 -0.1806  0.8588  0.5781
  869MOL0     H17314   3.969   0.690  10.310 -1.3707 -1.2575  1.3391
  869MOL0     H17315   3.927   0.554  10.507 -0.6942  1.1442 -0.7060
  870MOL0     O17316   3.839   3.173   9.073  0.2716  1.1022  0.5536
  870MOL0     C17317   3.783   3.158   9.182  0.7213  0.4166  0.3439
  870MOL0     O17318   3.824   3.220   9.300 -0.0979 -0.0613  0.0305
  870MOL0     C17319   3.904   3.325   9.282 -0.1374 -0.8021  0.2813
  870MOL0     C17320   3.835   3.449   9.293  0.6263  0.2325  0.9757
  870MOL0     C17321   3.908   3.567   9.266 -0.4732 -0.7017  0.8663
  870MOL0     C17322   4.035   3.568   9.212 -0.3406 -0.3411 -0.7740
  870MOL0     O17323   4.078   3.695   9.177 -0.2186 -0.1607  0.4689
  870MOL0     C17324   4.220   3.716   9.171 -0.2475  0.2301  0.4713
  870MOL0     C17325   4.253   3.866   9.171  0.1251 -0.9329  0.6331
  870MOL0     C17326   4.164   3.944   9.075 -0.4134  0.1471 -0.3901
  870MOL0     C17327   4.224   4.081   9.056  0.5798  0.0791 -0.7417
  870MOL0     C17328   4.127   4.183   8.990  0.1132 -0.4764 -0.3876
  870MOL0     C17329   4.043   4.253   9.112  0.4269  0.3336  0.0723
  870MOL0     C17330   4.108   4.364   9.179 -0.6197  0.0096 -0.2076
  870MOL0     C17331   4.024   4.425   9.298  0.5229 -0.1038  0.0990
  870MOL0     N17332   3.893   4.483   9.267 -0.5246  0.8908  0.7915
  870MOL0     C17333   3.777   4.437   9.204  0.0197  0.0595  0.5844
  870MOL0     C17334   3.694   4.537   9.196 -0.0650 -0.7562  0.1296
  870MOL0     C17335   3.543   4.547   9.137 -0.0518  0.1586  1.0143
  870MOL0     C17336   3.495   4.423   9.057 -0.2691  0.1891  0.1941
  870MOL0     C17337   3.589   4.387   8.941  0.5717  0.7792 -0.5208
  870MOL0     C17338   3.568   4.230   8.904 -0.6329 -0.0611 -0.9093
  870MOL0     O17339   3.611   4.148   9.008 -0.2180 -0.2324 -0.0006
  870MOL0     C17340   3.639   4.019   8.968  0.6684  0.2260 -0.1437
  870MOL0     C17341   3.558   3.957   8.861 -0.3680 -0.3755 -0.1465
  870MOL0     C17342   3.615   3.847   8.800 -0.4677 -0.6865  0.5385
  870MOL0     C17343   3.537   3.796   8.674 -0.5944 -0.6289 -0.0789
  870MOL0     C17344   3.744   3.792   8.826 -0.5387 -0.4036  0.4694
  870MOL0     C17345   3.817   3.683   8.760 -0.3036  0.3945 -0.4285
  870MOL0     O17346   3.906   3.615   8.831 -0.2445  0.1984  0.3989
  870MOL0     C17347   3.984   3.525   8.767 -0.5721  1.1751 -1.2536
  870MOL0     C17348   4.076   3.549   8.666  0.1654  1.0445  0.8061
  870MOL0     C17349   4.170   3.456   8.629 -0.7881 -0.2641  0.4095
  870MOL0     C17350   4.178   3.324   8.696 -0.1081 -0.4167  0.9753
  870MOL0     O17351   4.284   3.240   8.690 -0.3741  0.3493 -0.1252
  870MOL0     C17352   4.308   3.212   8.550 -0.5941 -0.8727 -1.1555
  870MOL0     C17353   4.280   3.072   8.527  0.0077 -0.2486 -0.4242
  870MOL0     C17354   4.406   2.988   8.553 -0.4720  0.9589 -0.3906
  870MOL0     C17355   4.479   3.016   8.679  0.1654 -0.2554 -0.2606
  870MOL0     C17356   4.601   2.930   8.696 -1.0470  0.1882  0.1152
  870MOL0     C17357   4.701   2.958   8.591  0.2569  0.4890  0.5626
  870MOL0     C17358   4.842   2.924   8.636 -0.6942 -0.6273 -0.6460
  870MOL0     C17359   4.939   2.952   8.523 -0.8383 -0.0242 -0.1691
  870MOL0    Cl17360   5.105   2.921   8.601 -0.1201 -0.0392 -0.3930
  870MOL0     C17361   4.087   3.296   8.797  0.4170  0.0166 -0.3022
  870MOL0     C17362   3.994   3.403   8.840 -0.0547  0.2827  0.5487
  870MOL0     O17363   3.792   3.654   8.641  0.1232 -0.9389 -0.1333
  870MOL0     C17364   3.818   3.843   8.944 -0.8486 -0.2641 -0.6338
  870MOL0     C17365   3.752   3.955   9.004 -0.5110  0.5222 -0.2093
  870MOL0     N17366   3.753   4.644   9.254  0.2811  0.0249 -0.4209
  870MOL0     N17367   3.865   4.612   9.299  0.0049  0.3209  0.8003
  870MOL0     C17368   4.104   3.444   9.201  1.3725 -0.3632  0.4626
  870MOL0     C17369   4.039   3.323   9.243  0.3011 -0.1629  0.9068
  870MOL0     C17370   3.678   3.051   9.186 -0.4550  0.0984  0.8147
  870MOL0     C17371   3.607   3.024   9.301  0.1302 -0.4843  0.7283
  870MOL0     C17372   3.521   2.920   9.305 -0.2177  0.6810  0.2500
  870MOL0     C17373   3.490   2.836   9.198  1.0594  0.4309 -0.0429
  870MOL0     O17374   3.406   2.722   9.194 -0.0912 -0.4425  0.0558
  870MOL0     C17375   3.265   2.749   9.162 -0.0733 -0.3272  0.0784
  870MOL0     C17376   3.245   2.778   9.012 -0.2803  0.9512  0.2397
  870MOL0     C17377   3.097   2.767   8.972  0.4389  0.3158  1.0125
  870MOL0     C17378   3.053   2.621   8.954  0.2393  0.0877  0.6656
  870MOL0     C17379   2.925   2.611   8.877  0.5179  0.1232 -0.8522
  870MOL0     C17380   2.825   2.608   8.807 -0.1926  0.1696  0.3781
  870MOL0     C17381   3.559   2.870   9.082  0.1102 -0.6720 -0.3967
  870MOL0     C17382   3.665   2.968   9.074  0.5741  0.3256 -0.0179
  870MOL0     H17383   3.735   3.441   9.334  0.3816  1.3076  0.6162
  870MOL0     H17384   3.869   3.668   9.265  1.5789  0.2255 -2.3133
  870MOL0     H17385   4.284   3.674   9.248  0.4215 -0.4925 -0.4548
  870MOL0     H17386   4.261   3.675   9.078 -4.3711  0.1015 -1.5159
  870MOL0     H17387   4.252   3.911   9.270  2.6034  0.6822  0.0015
  870MOL0     H17388   4.357   3.879   9.140  0.7742  2.8209  3.6970
  870MOL0     H17389   4.164   3.893   8.978  0.1891  2.2239 -1.5682
  870MOL0     H17390   4.062   3.956   9.113  0.2408 -2.2191  2.4534
  870MOL0     H17391   4.247   4.110   9.159 -0.3267  1.8305 -0.9950
  870MOL0     H17392   4.322   4.074   9.008  1.0186 -3.4764  0.3904
  870MOL0     H17393   4.179   4.245   8.916  3.6298 -4.0868 -1.2759
  870MOL0     H17394   4.052   4.126   8.934  0.4064 -2.0283  0.7543
  870MOL0     H17395   3.947   4.293   9.079 -0.8336 -0.9863  1.9338
  870MOL0     H17396   4.015   4.177   9.186  2.7826 -1.5901 -0.8817
  870MOL0     H17397   4.205   4.341   9.223 -0.4869 -2.2723 -1.5112
  870MOL0     H17398   4.121   4.447   9.109  1.5745 -0.8860 -0.9186
  870MOL0     H17399   4.076   4.505   9.351  1.7090 -0.6621 -0.1740
  870MOL0     H17400   4.009   4.340   9.366  0.7558 -0.1590  0.0823
  870MOL0     H17401   3.762   4.335   9.169  2.9414 -0.3085  0.1380
  870MOL0     H17402   3.474   4.547   9.222 -0.2514 -0.4836  0.8654
  870MOL0     H17403   3.536   4.630   9.068 -1.0677  0.3915  1.3849
  870MOL0     H17404   3.400   4.440   9.005 -1.2475 -0.6414  1.6410
  870MOL0     H17405   3.463   4.344   9.126 -0.9508 -1.1291 -1.5727
  870MOL0     H17406   3.692   4.421   8.951  0.3752  1.1130  0.3773
  870MOL0     H17407   3.563   4.447   8.853 -0.6153  2.3777  0.8663
  870MOL0     H17408   3.628   4.215   8.814  1.8080 -4.8920  1.1597
  870MOL0     H17409   3.463   4.214   8.875 -1.0672  0.9836 -0.0010
  870MOL0     H17410   3.465   4.005   8.829 -1.6263 -0.5914  2.7992
  870MOL0     H17411   3.568   3.855   8.587  0.2179  1.4607  1.5542
  870MOL0     H17412   3.563   3.695   8.640  1.7569 -1.2240  3.0350
  870MOL0     H17413   3.432   3.807   8.703 -0.4067  0.9339  0.0973
  870MOL0     H17414   4.070   3.639   8.605  1.5395  0.1294 -0.7933
  870MOL0     H17415   4.248   3.492   8.562  0.2457 -0.5375  1.4396
  870MOL0     H17416   4.237   3.265   8.486  0.3192  0.2610 -1.2693
  870MOL0     H17417   4.412   3.237   8.524 -0.8568  1.9520  0.1099
  870MOL0     H17418   4.197   3.035   8.588  2.4113 -1.7097  2.1614
  870MOL0     H17419   4.267   3.074   8.418  2.0232  4.0608 -0.7936
  870MOL0     H17420   4.481   3.007   8.476  2.2535  1.8737  2.3245
  870MOL0     H17421   4.389   2.880   8.549  1.4199  0.5805  0.4713
  870MOL0     H17422   4.513   3.119   8.682  2.7027 -1.0176 -0.9637
  870MOL0     H17423   4.413   2.988   8.762  1.6629  0.8460  1.3631
  870MOL0     H17424   4.575   2.824   8.686  0.7212 -0.2018 -0.6508
  870MOL0     H17425   4.644   2.942   8.796  1.8993 -1.4086 -0.8553
  870MOL0     H17426   4.685   2.897   8.502 -2.3162 -0.0696  1.3124
  870MOL0     H17427   4.697   3.065   8.568  0.0730 -0.0304 -2.1945
  870MOL0     H17428   4.847   2.816   8.657  0.1590 -0.5859 -0.6124
  870MOL0     H17429   4.865   2.988   8.721 -1.5114  1.3960 -1.8685
  870MOL0     H17430   4.940   3.056   8.492 -1.1345 -0.4755 -1.7736
  870MOL0     H17431   4.923   2.882   8.440  1.5494 -2.9888  1.6423
  870MOL0     H17432   4.087   3.197   8.840  3.5677  0.6392  1.4000
  870MOL0     H17433   3.925   3.381   8.921 -1.5258 -3.6584 -1.5424
  870MOL0     H17434   3.913   3.801   8.975 -0.2594  1.2352 -0.2708
  870MOL0     H17435   3.818   3.994   9.081 -0.2818  2.3013 -1.2645
  870MOL0     H17436   4.204   3.445   9.159  1.1765 -1.8642 -0.1019
  870MOL0     H17437   4.085   3.226   9.227 -0.1097 -0.4060  1.1778
  870MOL0     H17438   3.628   3.057   9.402 -1.4486 -1.3700  1.3823
  870MOL0     H17439   3.473   2.922   9.402 -0.2541 -1.1052  0.2979
  870MOL0     H17440   3.214   2.660   9.198 -0.1155  0.9802  3.7345
  870MOL0     H17441   3.226   2.840   9.210 -2.7425 -0.2171 -2.0891
  870MOL0     H17442   3.312   2.717   8.950 -1.0303  0.1063  0.2268
  870MOL0     H17443   3.278   2.880   8.990  2.0623 -0.3482 -3.0566
  870MOL0     H17444   3.093   2.820   8.877  0.0273  0.2219  0.9786
  870MOL0     H17445   3.037   2.810   9.053 -2.0525 -0.5845 -0.2785
  870MOL0     H17446   3.042   2.568   9.049 -2.0202  2.1091  1.6508
  870MOL0     H17447   3.126   2.570   8.891 -0.8452 -0.4886 -0.1405
  870MOL0     H17448   2.748   2.609   8.732  1.1175  2.0496 -1.0561
  870MOL0     H17449   3.547   2.816   8.988 -0.5523 -0.1967 -0.5981
  870MOL0     H17450   3.704   2.999   8.977  0.5606  1.3550  0.2878
  871MOL0     O17451   8.170   3.543   1.736 -0.0084 -0.5786  0.0356
  871MOL0     C17452   8.073   3.524   1.675  0.3702  0.5954  0.2657
  871MOL0     O17453   7.955   3.563   1.707 -0.3052  0.2048 -0.2655
  871MOL0     C17454   7.953   3.629   1.829  0.0983 -0.6825 -0.0526
  871MOL0     C17455   7.896   3.581   1.940 -0.2929  0.1023 -0.1604
  871MOL0     C17456   7.898   3.639   2.062 -0.6913  0.1164 -0.5694
  871MOL0     C17457   7.959   3.767   2.074  0.6101 -1.0675 -0.8358
  871MOL0     O17458   7.966   3.833   2.192 -0.0439 -0.8395  0.0317
  871MOL0     C17459   7.850   3.817   2.279  0.8587  0.1374  0.1240
  871MOL0     C17460   7.737   3.921   2.243 -0.6153  0.0499 -0.3898
  871MOL0     C17461   7.765   4.072   2.249 -0.4101 -0.2065  0.1857
  871MOL0     C17462   7.776   4.124   2.393  0.0631 -0.6464  0.7194
  871MOL0     C17463   7.707   4.259   2.433 -0.1348 -0.3359 -0.2497
  871MOL0     C17464   7.796   4.375   2.444 -0.3241  0.1532  0.2881
  871MOL0     C17465   7.717   4.492   2.498  0.1627 -0.4249 -0.1845
  871MOL0     C17466   7.800   4.587   2.575  0.2020  0.3659 -0.2587
  871MOL0     N17467   7.919   4.620   2.506 -0.2313 -0.6781  0.3778
  871MOL0     C17468   8.040   4.596   2.554 -0.7856  0.3566 -0.5535
  871MOL0     C17469   8.116   4.629   2.447 -0.1786 -0.0472 -0.0848
  871MOL0     C17470   8.264   4.641   2.450 -0.8171  0.0014 -0.6711
  871MOL0     C17471   8.354   4.576   2.557 -0.0134  0.9119  0.6015
  871MOL0     C17472   8.507   4.608   2.523 -0.3962 -1.0305  0.2262
  871MOL0     C17473   8.547   4.591   2.369 -0.4194  0.0097 -0.8414
  871MOL0     O17474   8.523   4.457   2.322  0.3233  0.6651 -0.3390
  871MOL0     C17475   8.571   4.416   2.204  0.2190  0.8879 -0.8452
  871MOL0     C17476   8.539   4.283   2.164  0.0481  0.3289 -0.3866
  871MOL0     C17477   8.569   4.234   2.037  0.5220  0.2885 -0.6105
  871MOL0     C17478   8.527   4.087   2.006 -0.5553 -0.5270 -0.6431
  871MOL0     C17479   8.632   4.318   1.949 -0.9528  0.6206 -0.2185
  871MOL0     C17480   8.655   4.287   1.813 -0.0509 -0.5942  0.5864
  871MOL0     O17481   8.783   4.332   1.770 -0.3330 -0.2813 -0.0114
  871MOL0     C17482   8.813   4.332   1.636  0.3330 -0.0392  0.5203
  871MOL0     C17483   8.744   4.268   1.526  0.1036 -0.7726  0.2649
  871MOL0     C17484   8.793   4.280   1.394 -0.1859  0.0194  0.6406
  871MOL0     C17485   8.906   4.355   1.371 -0.3504  0.0026 -0.5413
  871MOL0     O17486   8.970   4.367   1.244 -0.3164 -0.1619 -0.3697
  871MOL0     C17487   8.920   4.268   1.151  0.8777  0.0782  0.2926
  871MOL0     C17488   9.011   4.241   1.022 -0.5290 -0.6805  0.7460
  871MOL0     C17489   9.076   4.371   0.969  0.0723  0.4549  0.7289
  871MOL0     C17490   9.169   4.355   0.836  0.4190  0.0332 -0.6447
  871MOL0     C17491   9.259   4.476   0.792 -0.0424  0.3243 -0.0166
  871MOL0     C17492   9.164   4.586   0.740 -1.0678  0.3075  0.4491
  871MOL0     C17493   9.251   4.716   0.707 -0.4124  1.1498 -0.3206
  871MOL0     C17494   9.217   4.773   0.568  0.3162  0.2836  0.8649
  871MOL0    Cl17495   9.036   4.803   0.552 -0.1637 -0.2941 -0.1174
  871MOL0     C17496   8.987   4.402   1.477 -0.0349 -0.6158 -0.3018
  871MOL0     C17497   8.933   4.404   1.599  0.0974 -0.9219  0.2608
  871MOL0     O17498   8.561   4.245   1.748  0.1155 -0.4798  0.5526
  871MOL0     C17499   8.688   4.438   1.993  0.0309 -0.3975  0.7670
  871MOL0     C17500   8.656   4.479   2.118 -0.0586  0.5309  0.5438
  871MOL0     N17501   8.047   4.658   2.335  0.7986  0.1341 -0.1232
  871MOL0     N17502   7.922   4.663   2.374 -0.1427  0.1270 -0.9135
  871MOL0     C17503   8.006   3.830   1.964 -0.0932  0.5749 -0.7506
  871MOL0     C17504   8.005   3.758   1.840 -0.1687  0.6123 -0.2490
  871MOL0     C17505   8.084   3.468   1.545 -0.2843  0.4438  0.2383
  871MOL0     C17506   7.994   3.372   1.503  0.6516  0.5369  0.3515
  871MOL0     C17507   7.995   3.320   1.368 -0.6527 -0.0442 -0.6087
  871MOL0     C17508   8.093   3.374   1.280 -0.8897  0.3499 -0.7800
  871MOL0     O17509   8.086   3.324   1.154 -0.4175 -0.2036 -0.0064
  871MOL0     C17510   8.128   3.395   1.040 -0.4787 -0.7506 -0.3788
  871MOL0     C17511   8.121   3.312   0.919 -0.0934 -0.3832  0.1070
  871MOL0     C17512   8.240   3.224   0.883  0.5741  0.1214  0.3637
  871MOL0     C17513   8.200   3.116   0.776 -0.4055  0.1874  0.2771
  871MOL0     C17514   8.312   3.024   0.744  1.7642 -0.5114 -0.5890
  871MOL0     C17515   8.411   2.953   0.727  0.0604  0.5394 -0.6955
  871MOL0     C17516   8.194   3.461   1.318 -0.8815  0.2783  0.2641
  871MOL0     C17517   8.191   3.506   1.457  0.3267 -0.6032 -0.1827
  871MOL0     H17518   7.855   3.481   1.929 -0.1653  0.0833 -0.4732
  871MOL0     H17519   7.861   3.581   2.146  3.1478  1.5046  2.3680
  871MOL0     H17520   7.797   3.722   2.283  2.0961 -0.5514  0.5413
  871MOL0     H17521   7.893   3.821   2.380  0.8267  0.4227  0.1280
  871MOL0     H17522   7.703   3.903   2.140  1.2529  0.2704 -1.0800
  871MOL0     H17523   7.659   3.902   2.318  1.3665 -0.3792  1.6515
  871MOL0     H17524   7.863   4.095   2.206 -0.2898  3.3324  2.0027
  871MOL0     H17525   7.689   4.125   2.190 -0.4097 -1.9108 -1.4482
  871MOL0     H17526   7.742   4.058   2.475  0.9707  0.8236  2.3398
  871MOL0     H17527   7.880   4.142   2.421  1.4910 -3.0489 -2.4764
  871MOL0     H17528   7.624   4.271   2.363  0.6073 -2.3527 -1.5646
  871MOL0     H17529   7.658   4.246   2.530 -0.1920  0.9914 -0.0889
  871MOL0     H17530   7.878   4.354   2.513  1.1183  1.5035 -0.9276
  871MOL0     H17531   7.840   4.402   2.347 -0.8245  2.3260  0.6122
  871MOL0     H17532   7.669   4.546   2.415  1.4145 -0.0759 -0.6999
  871MOL0     H17533   7.636   4.468   2.567 -1.7308  0.8005 -1.8377
  871MOL0     H17534   7.827   4.559   2.677  0.8067 -1.4002 -0.8748
  871MOL0     H17535   7.738   4.674   2.597 -3.0709 -1.9841  0.4345
  871MOL0     H17536   8.078   4.582   2.655 -0.9056 -0.0748 -0.5639
  871MOL0     H17537   8.294   4.606   2.351 -1.9434 -2.6342 -0.1779
  871MOL0     H17538   8.293   4.746   2.446 -0.8297 -0.0340 -3.0532
  871MOL0     H17539   8.344   4.467   2.557  2.0099  0.6236  3.4232
  871MOL0     H17540   8.323   4.608   2.657 -1.7628 -2.1889  1.1911
  871MOL0     H17541   8.581   4.546   2.576  1.7380 -0.6352 -2.0815
  871MOL0     H17542   8.519   4.714   2.547  0.2697 -1.5386  2.3579
  871MOL0     H17543   8.655   4.608   2.370 -0.3110 -0.3335  1.7074
  871MOL0     H17544   8.499   4.666   2.305 -0.1428  1.0252  0.1124
  871MOL0     H17545   8.495   4.211   2.232 -2.2721  1.5547 -0.4851
  871MOL0     H17546   8.419   4.069   2.010 -0.5499 -0.6561 -1.0600
  871MOL0     H17547   8.552   4.053   1.905 -1.1090  0.5345 -1.1490
  871MOL0     H17548   8.564   4.018   2.083  0.9784  1.6719  0.7290
  871MOL0     H17549   8.660   4.203   1.545  1.3528 -2.1985  1.0878
  871MOL0     H17550   8.744   4.221   1.317 -1.5956  2.0503 -0.0971
  871MOL0     H17551   8.903   4.175   1.207  0.9326  0.6646  1.3036
  871MOL0     H17552   8.827   4.303   1.104  0.5947  1.8866  2.0844
  871MOL0     H17553   9.091   4.167   1.033  1.6026  1.6037  1.3649
  871MOL0     H17554   8.958   4.203   0.935  2.2445 -2.1741 -0.4202
  871MOL0     H17555   9.138   4.407   1.051  2.9807 -0.4336 -0.9426
  871MOL0     H17556   8.991   4.438   0.949 -0.5291 -0.2897  0.7388
  871MOL0     H17557   9.237   4.273   0.863  0.2141 -0.2752 -1.0594
  871MOL0     H17558   9.119   4.312   0.749  1.7844 -1.9358 -0.5266
  871MOL0     H17559   9.329   4.435   0.719 -3.6409 -1.3844 -2.7966
  871MOL0     H17560   9.301   4.509   0.887  1.2396 -0.4826 -0.2894
  871MOL0     H17561   9.122   4.550   0.646 -0.8028  0.7358  0.1615
  871MOL0     H17562   9.086   4.609   0.813 -0.6861  2.7707  0.1765
  871MOL0     H17563   9.356   4.685   0.717 -0.6877  0.3637  0.2062
  871MOL0     H17564   9.242   4.794   0.783  0.3240 -0.7461  1.8313
  871MOL0     H17565   9.258   4.705   0.493  1.4154  1.8635 -0.0454
  871MOL0     H17566   9.269   4.869   0.552  1.5714 -0.3589  0.9394
  871MOL0     H17567   9.084   4.441   1.449 -0.1568 -0.3483 -0.3556
  871MOL0     H17568   8.995   4.438   1.682 -2.2270 -0.8908  2.1197
  871MOL0     H17569   8.744   4.506   1.929  0.1878 -2.3421 -1.2970
  871MOL0     H17570   8.689   4.580   2.144 -0.2754  0.4579  1.1171
  871MOL0     H17571   8.041   3.932   1.974  0.6108  0.1922  0.8787
  871MOL0     H17572   8.039   3.802   1.747  0.9639 -0.1905 -0.2369
  871MOL0     H17573   7.911   3.364   1.572 -0.5159  3.1320 -0.6078
  871MOL0     H17574   7.920   3.254   1.325 -1.2179  0.0005  0.2773
  871MOL0     H17575   8.062   3.481   1.029 -1.7114 -1.5918  0.3058
  871MOL0     H17576   8.226   3.445   1.035 -0.3016 -1.1843 -3.7664
  871MOL0     H17577   8.104   3.381   0.836 -2.4580 -1.7910 -0.6906
  871MOL0     H17578   8.031   3.250   0.918 -0.5548  0.2465 -1.7797
  871MOL0     H17579   8.265   3.169   0.974 -1.3910  1.2887  1.6748
  871MOL0     H17580   8.318   3.283   0.834 -2.8659  1.0216 -4.7367
  871MOL0     H17581   8.159   3.162   0.686  1.5097  2.4453  0.4569
  871MOL0     H17582   8.117   3.054   0.811  1.9269 -2.6473  1.2394
  871MOL0     H17583   8.495   2.886   0.721 -1.0277 -0.7228 -2.9563
  871MOL0     H17584   8.273   3.490   1.250 -0.2701 -3.7058 -1.0175
  871MOL0     H17585   8.265   3.582   1.480  1.3649 -2.1505  2.0903
  872MOL0     O17586   2.678   4.899   4.019  0.2505  0.2552  0.4459
  872MOL0     C17587   2.761   4.863   3.936 -0.7581 -0.5279 -0.0898
  872MOL0     O17588   2.792   4.928   3.815  0.6162 -0.5369  0.0280
  872MOL0     C17589   2.713   5.029   3.764 -0.2803 -0.3270  0.3886
  872MOL0     C17590   2.662   5.017   3.635 -0.5418  0.2504  0.4445
  872MOL0     C17591   2.590   5.117   3.567  0.3446 -0.2763  0.1592
  872MOL0     C17592   2.567   5.238   3.634  0.2388  0.2980  0.4094
  872MOL0     O17593   2.482   5.331   3.585  0.5935 -0.2522  0.5795
  872MOL0     C17594   2.451   5.339   3.444  0.4610 -0.4197  0.8133
  872MOL0     C17595   2.373   5.474   3.413 -0.2098  0.3446 -0.2855
  872MOL0     C17596   2.419   5.530   3.280  0.4930  0.0631 -0.2575
  872MOL0     C17597   2.305   5.617   3.215 -0.0213 -0.6952  1.1081
  872MOL0     C17598   2.245   5.729   3.296  0.3663 -0.3048  0.9057
  872MOL0     C17599   2.349   5.840   3.322 -0.0712  0.3090 -0.1359
  872MOL0     C17600   2.304   5.937   3.424 -0.6894 -0.7591  0.7575
  872MOL0     C17601   2.310   5.886   3.573  0.2033 -0.3028 -1.2956
  872MOL0     N17602   2.451   5.879   3.620 -0.4609 -0.1354 -0.5998
  872MOL0     C17603   2.500   5.769   3.685  0.0532 -1.2709 -0.2501
  872MOL0     C17604   2.621   5.809   3.740  0.3249 -0.5034  0.6869
  872MOL0     C17605   2.710   5.722   3.827 -0.2558 -0.3124  0.6295
  872MOL0     C17606   2.847   5.783   3.841 -0.0901 -0.3312 -0.9351
  872MOL0     C17607   2.954   5.692   3.907  0.4342 -0.4389 -0.2207
  872MOL0     C17608   2.979   5.568   3.825 -0.2237  0.5977  0.2549
  872MOL0     O17609   3.118   5.525   3.838 -0.0705 -0.3094  0.3167
  872MOL0     C17610   3.151   5.448   3.939  0.2233  0.7212 -0.4736
  872MOL0     C17611   3.229   5.490   4.039 -0.4136  1.1573 -0.1584
  872MOL0     C17612   3.281   5.397   4.133 -0.4407 -0.2369 -0.3988
  872MOL0     C17613   3.391   5.462   4.222  0.5593 -0.5446 -0.3174
  872MOL0     C17614   3.247   5.259   4.126 -0.3505 -0.2569  0.6364
  872MOL0     C17615   3.288   5.149   4.214 -0.1849  0.2468 -0.3672
  872MOL0     O17616   3.273   5.015   4.178 -0.3784 -0.3237 -0.0075
  872MOL0     C17617   3.344   4.904   4.242 -1.3411 -0.6339  0.3653
  872MOL0     C17618   3.441   4.902   4.344 -0.9956  0.2334 -0.6239
  872MOL0     C17619   3.485   4.774   4.390 -0.9936  0.2592 -0.3831
  872MOL0     C17620   3.444   4.656   4.338  0.8816  0.0889  0.6738
  872MOL0     O17621   3.505   4.542   4.390  0.0317 -0.9925 -0.4593
  872MOL0     C17622   3.447   4.411   4.371  0.8043 -0.4797  0.0257
  872MOL0     C17623   3.491   4.337   4.247  0.3768 -0.9713 -0.0550
  872MOL0     C17624   3.630   4.271   4.263  0.0933  0.5134 -0.5297
  872MOL0     C17625   3.626   4.151   4.373 -0.4626 -0.1075 -0.2020
  872MOL0     C17626   3.750   4.062   4.367  0.1531  0.3497 -0.8090
  872MOL0     C17627   3.888   4.138   4.382  0.8629  0.3860 -0.0966
  872MOL0     C17628   4.003   4.044   4.349  0.5605 -0.9330  0.4750
  872MOL0     C17629   4.092   4.115   4.253 -0.2434  0.2830 -0.1250
  872MOL0    Cl17630   4.239   4.018   4.240 -0.1801  0.2055 -0.0280
  872MOL0     C17631   3.363   4.658   4.222  0.5301 -0.8925  0.0584
  872MOL0     C17632   3.316   4.778   4.181 -0.4257 -0.8544  0.7930
  872MOL0     O17633   3.324   5.179   4.328  0.6156  0.7501  0.3035
  872MOL0     C17634   3.165   5.217   4.020  1.9043  0.2823  0.6786
  872MOL0     C17635   3.109   5.318   3.938 -0.2525  0.6679 -0.2686
  872MOL0     N17636   2.639   5.941   3.697 -0.4976 -0.1385 -0.1605
  872MOL0     N17637   2.544   5.983   3.619  0.4597 -0.1749  0.1896
  872MOL0     C17638   2.625   5.248   3.765  0.2564 -0.2488 -0.0494
  872MOL0     C17639   2.680   5.144   3.830 -0.3527 -0.0445 -0.4110
  872MOL0     C17640   2.841   4.734   3.953  0.0957 -0.1026 -0.2180
  872MOL0     C17641   2.942   4.698   3.851 -0.7283 -0.5875 -0.7835
  872MOL0     C17642   3.022   4.594   3.875 -0.1322  1.4895  0.5543
  872MOL0     C17643   3.006   4.500   3.984  0.3108  0.2668  0.6750
  872MOL0     O17644   3.098   4.394   3.992  0.1301  0.2938 -0.2314
  872MOL0     C17645   3.080   4.287   4.084 -0.1346 -0.5543 -0.3916
  872MOL0     C17646   2.971   4.184   4.046  0.2529  0.9534  0.7248
  872MOL0     C17647   2.968   4.064   4.136 -0.7697  0.7443  0.7881
  872MOL0     C17648   3.104   3.985   4.142  0.5669  0.2752 -0.0001
  872MOL0     C17649   3.166   3.961   4.010 -0.2622 -0.1941  0.2928
  872MOL0     C17650   3.218   3.934   3.904 -0.7190 -1.0006 -0.4057
  872MOL0     C17651   2.901   4.523   4.077  0.3249  0.4657  0.5578
  872MOL0     C17652   2.816   4.633   4.057  0.4370 -0.5041  0.4865
  872MOL0     H17653   2.681   4.926   3.579 -1.3098  0.2323  0.1977
  872MOL0     H17654   2.556   5.092   3.467 -2.5585 -0.6754  1.1583
  872MOL0     H17655   2.540   5.335   3.381 -1.1152  0.2931 -1.5859
  872MOL0     H17656   2.398   5.249   3.413  1.3596 -0.2278 -1.4191
  872MOL0     H17657   2.268   5.449   3.431  0.0222  0.2497  0.9743
  872MOL0     H17658   2.399   5.550   3.487 -1.0833  0.9533 -0.5808
  872MOL0     H17659   2.506   5.596   3.290  0.4151  0.3274 -1.2578
  872MOL0     H17660   2.433   5.450   3.207 -0.6744  1.8464 -2.5751
  872MOL0     H17661   2.338   5.654   3.118 -3.3475  0.6089  0.3221
  872MOL0     H17662   2.218   5.555   3.187  2.3856 -3.7187 -0.3354
  872MOL0     H17663   2.157   5.771   3.248 -1.3359 -2.2128  2.1914
  872MOL0     H17664   2.194   5.696   3.387 -3.2698  0.9582 -0.4900
  872MOL0     H17665   2.435   5.790   3.367  1.7330  2.0233 -1.5809
  872MOL0     H17666   2.377   5.886   3.228 -1.0487  0.8423 -0.1839
  872MOL0     H17667   2.354   6.034   3.414 -2.7215  0.3180  0.3425
  872MOL0     H17668   2.202   5.972   3.405  0.1800  0.3291 -2.5797
  872MOL0     H17669   2.266   5.786   3.569 -0.1721 -0.1861 -0.3534
  872MOL0     H17670   2.252   5.950   3.640  1.1195  0.7351 -1.4496
  872MOL0     H17671   2.458   5.669   3.691 -1.6751 -0.6662 -1.4314
  872MOL0     H17672   2.659   5.709   3.922 -0.9724  1.8131  0.5959
  872MOL0     H17673   2.717   5.619   3.792  3.2080  0.5645 -1.8962
  872MOL0     H17674   2.837   5.876   3.898  1.1350 -0.6282 -0.1699
  872MOL0     H17675   2.878   5.812   3.740  2.5105  1.8006  0.3215
  872MOL0     H17676   2.943   5.665   4.013  0.5619 -0.7405 -0.2817
  872MOL0     H17677   3.045   5.752   3.913  0.7945 -0.6273 -2.7547
  872MOL0     H17678   2.962   5.592   3.719  5.0492 -4.3503 -2.2343
  872MOL0     H17679   2.912   5.486   3.855 -0.2724  0.2549 -0.7405
  872MOL0     H17680   3.258   5.594   4.029 -2.8566  2.0035  0.7819
  872MOL0     H17681   3.436   5.399   4.300 -1.0973  0.8671  1.9241
  872MOL0     H17682   3.461   5.528   4.172 -0.7857  0.8459 -0.4235
  872MOL0     H17683   3.335   5.536   4.280  0.2703 -0.2142 -1.0095
  872MOL0     H17684   3.486   4.994   4.380 -0.4358 -0.1663 -0.2768
  872MOL0     H17685   3.556   4.767   4.472 -0.3785 -0.3814 -0.9540
  872MOL0     H17686   3.477   4.349   4.456 -0.4780 -0.3697  0.5834
  872MOL0     H17687   3.339   4.430   4.366  1.4887  4.9230  0.1670
  872MOL0     H17688   3.418   4.258   4.228  0.1136 -0.5260 -0.9427
  872MOL0     H17689   3.501   4.393   4.153  0.6318 -1.3028 -0.2295
  872MOL0     H17690   3.702   4.349   4.292  1.7047 -1.7165  1.8648
  872MOL0     H17691   3.663   4.232   4.166 -0.4653 -1.1295 -0.0765
  872MOL0     H17692   3.621   4.193   4.474 -2.0967 -2.8231  0.9534
  872MOL0     H17693   3.541   4.084   4.357  1.9770 -2.8971 -2.6181
  872MOL0     H17694   3.745   4.008   4.272 -1.5354  1.0891 -1.1819
  872MOL0     H17695   3.751   3.983   4.443  1.9627  1.4770  0.3939
  872MOL0     H17696   3.887   4.238   4.338 -0.5529  2.2618  3.7307
  872MOL0     H17697   3.898   4.172   4.486  3.9427 -1.6207  0.3977
  872MOL0     H17698   3.972   3.945   4.315  1.2340 -0.1742 -2.5889
  872MOL0     H17699   4.057   4.017   4.441  0.8500 -2.6269 -0.1659
  872MOL0     H17700   4.126   4.213   4.286 -1.6861  0.7744 -0.0288
  872MOL0     H17701   4.038   4.135   4.160  1.5899  2.0827 -0.8679
  872MOL0     H17702   3.333   4.565   4.174 -5.9928 -0.6391  2.6841
  872MOL0     H17703   3.247   4.785   4.097  0.0966 -1.7754  0.2732
  872MOL0     H17704   3.139   5.112   4.019  0.5981  0.3486  5.2956
  872MOL0     H17705   3.041   5.296   3.858  1.4499  1.6441 -2.0731
  872MOL0     H17706   2.617   5.342   3.819  4.0222 -1.2134  2.6018
  872MOL0     H17707   2.718   5.156   3.931 -3.1588  1.9288  0.5095
  872MOL0     H17708   2.973   4.774   3.780  0.6581  1.5026  1.8680
  872MOL0     H17709   3.111   4.578   3.813  0.1931 -1.6830  1.6193
  872MOL0     H17710   3.178   4.239   4.095  1.0773  1.0915 -2.9865
  872MOL0     H17711   3.060   4.330   4.183  3.3601  0.3762  0.0373
  872MOL0     H17712   2.990   4.145   3.946 -0.4149  1.6698  0.3028
  872MOL0     H17713   2.865   4.212   4.039 -1.0441 -3.6140 -1.4406
  872MOL0     H17714   2.878   4.009   4.107  0.4203  0.2802 -2.3246
  872MOL0     H17715   2.967   4.101   4.239 -0.9795  0.3630  0.9243
  872MOL0     H17716   3.077   3.884   4.173  2.2099 -0.0223  0.5935
  872MOL0     H17717   3.176   4.033   4.209  0.7474 -3.4690  2.8104
  872MOL0     H17718   3.271   3.904   3.816 -0.9633  1.2273 -1.3770
  872MOL0     H17719   2.860   4.449   4.144 -0.8876  0.4743 -0.1475
  872MOL0     H17720   2.733   4.659   4.121  0.1441 -2.5685  1.0278
  873MOL0     O17721   7.954  11.336   8.473 -0.1007  0.0269 -0.4310
  873MOL0     C17722   8.014  11.228   8.443 -0.1888 -0.3398  0.1999
  873MOL0     O17723   7.972  11.130   8.349 -0.2478  0.4604  0.0439
  873MOL0     C17724   7.838  11.131   8.309  0.6782  0.0196 -0.2469
  873MOL0     C17725   7.765  11.243   8.259 -0.3517 -1.0651  1.1641
  873MOL0     C17726   7.639  11.233   8.199 -1.0569  0.0346  0.5774
  873MOL0     C17727   7.568  11.114   8.183  0.0893  0.4561 -0.3149
  873MOL0     O17728   7.435  11.110   8.133 -0.2749  0.6054 -0.6935
  873MOL0     C17729   7.382  11.235   8.101 -0.8177 -0.4521  0.1126
  873MOL0     C17730   7.247  11.226   8.032 -0.0745  0.7512  0.0438
  873MOL0     C17731   7.136  11.182   8.140 -0.4551 -0.3076 -0.0300
  873MOL0     C17732   6.990  11.195   8.089  0.1072 -0.4265 -0.1498
  873MOL0     C17733   6.889  11.126   8.182 -0.1830 -0.0633 -0.4226
  873MOL0     C17734   6.755  11.093   8.105 -0.6389 -0.7793 -1.2575
  873MOL0     C17735   6.642  11.060   8.207 -1.0370  0.4418  0.8178
  873MOL0     C17736   6.514  11.025   8.130  0.3987  0.9597 -0.0251
  873MOL0     N17737   6.443  11.136   8.071  0.1940 -0.0824  0.4307
  873MOL0     C17738   6.313  11.131   8.029 -0.1845  0.3686  0.2992
  873MOL0     C17739   6.287  11.253   7.985  0.2788 -0.1879  0.3730
  873MOL0     C17740   6.144  11.303   7.951  0.3250  0.8963 -0.0708
  873MOL0     C17741   6.082  11.396   8.052 -0.5080  0.3245  0.0904
  873MOL0     C17742   5.994  11.507   7.987 -0.0922  0.5378 -0.6873
  873MOL0     C17743   5.880  11.453   7.911  0.2609 -0.2055  0.1471
  873MOL0     O17744   5.919  11.450   7.776 -0.3839 -0.0784 -0.5169
  873MOL0     C17745   5.826  11.448   7.671 -0.4767  0.2654  0.2457
  873MOL0     C17746   5.869  11.401   7.549  0.0645  0.4821 -1.7049
  873MOL0     C17747   5.772  11.396   7.444 -0.2321 -0.6204 -0.0231
  873MOL0     C17748   5.824  11.338   7.313  0.3684 -1.1608 -0.1676
  873MOL0     C17749   5.630  11.419   7.472 -0.6539 -0.1267 -0.9180
  873MOL0     C17750   5.512  11.388   7.384 -0.3499  0.3641  0.2489
  873MOL0     O17751   5.396  11.459   7.413  0.4526  0.3005 -0.0521
  873MOL0     C17752   5.284  11.419   7.340 -0.8912  1.1395 -1.1980
  873MOL0     C17753   5.171  11.371   7.410  0.0794 -0.0058 -0.7497
  873MOL0     C17754   5.053  11.334   7.337  0.3204 -0.0348 -0.7735
  873MOL0     C17755   5.040  11.343   7.200  0.5209 -0.2807 -0.6510
  873MOL0     O17756   4.928  11.299   7.143  0.4790  0.0587  0.0429
  873MOL0     C17757   4.918  11.309   7.003  0.4624  0.0591  0.8276
  873MOL0     C17758   4.797  11.231   6.945 -0.7640  1.2906  0.7132
  873MOL0     C17759   4.663  11.288   6.991  0.9741 -0.2085 -0.0248
  873MOL0     C17760   4.539  11.245   6.900 -0.0367 -0.5439  0.1057
  873MOL0     C17761   4.403  11.317   6.948 -0.5656  0.6099 -0.2710
  873MOL0     C17762   4.275  11.244   6.920  0.4661  0.2366 -0.0571
  873MOL0     C17763   4.272  11.197   6.772 -0.8398 -0.1843  0.6420
  873MOL0     C17764   4.130  11.146   6.743  0.7839 -0.6797 -0.2530
  873MOL0    Cl17765   4.115  11.104   6.570  0.2526 -0.1367 -0.2924
  873MOL0     C17766   5.155  11.394   7.133 -0.1277 -0.1021  0.1377
  873MOL0     C17767   5.278  11.428   7.199  0.2714  0.9162 -0.3667
  873MOL0     O17768   5.517  11.295   7.302 -0.6240  0.0834  0.0464
  873MOL0     C17769   5.593  11.472   7.596  0.8540 -0.3171 -0.4198
  873MOL0     C17770   5.694  11.481   7.685 -0.5589  0.2792 -0.2446
  873MOL0     N17771   6.404  11.319   7.989  0.0047  0.9658  0.4313
  873MOL0     N17772   6.497  11.257   8.033  0.4259 -0.6014 -0.4209
  873MOL0     C17773   7.643  10.999   8.242 -0.0146 -0.8225  0.3684
  873MOL0     C17774   7.767  11.010   8.302  0.5573 -0.0460 -0.8138
  873MOL0     C17775   8.145  11.206   8.507  0.7277  0.8287  0.3224
  873MOL0     C17776   8.175  11.291   8.625 -0.2901  0.3791  0.2584
  873MOL0     C17777   8.292  11.277   8.696 -0.7536 -0.2952 -0.3876
  873MOL0     C17778   8.376  11.163   8.673 -0.4302  0.7404  0.2130
  873MOL0     O17779   8.490  11.133   8.736 -0.6963 -0.0774  0.0855
  873MOL0     C17780   8.505  11.195   8.872 -0.1928  0.6274  1.2482
  873MOL0     C17781   8.624  11.138   8.943 -1.1118  0.3786 -0.5214
  873MOL0     C17782   8.592  10.993   8.970  0.1055  0.0322 -0.3499
  873MOL0     C17783   8.673  10.935   9.087 -1.2824  0.5026 -0.4636
  873MOL0     C17784   8.815  10.955   9.066 -0.3248  0.6849 -0.0713
  873MOL0     C17785   8.936  10.951   9.052  0.6202 -0.4102 -1.1358
  873MOL0     C17786   8.345  11.083   8.568 -0.2011  0.1229  0.3942
  873MOL0     C17787   8.234  11.100   8.485 -0.2902 -0.1743 -0.3247
  873MOL0     H17788   7.816  11.339   8.262 -2.1472 -0.0003 -0.0170
  873MOL0     H17789   7.611  11.334   8.170  0.1947  0.2389  0.0218
  873MOL0     H17790   7.382  11.285   8.198  0.2332  0.5321 -0.3585
  873MOL0     H17791   7.448  11.295   8.037  1.8217 -1.4489  1.7372
  873MOL0     H17792   7.212  11.320   7.987 -0.0269  1.2548  1.0273
  873MOL0     H17793   7.257  11.150   7.954  0.9770  1.3579 -0.4304
  873MOL0     H17794   7.148  11.076   8.165 -0.1546 -1.2286 -3.6264
  873MOL0     H17795   7.147  11.238   8.234  2.5820  0.6875 -0.8676
  873MOL0     H17796   6.974  11.303   8.079 -3.0790 -0.9411 -1.8906
  873MOL0     H17797   6.980  11.158   7.987 -0.3835 -1.3567  0.2260
  873MOL0     H17798   6.931  11.028   8.207  0.1970  0.2341  0.1217
  873MOL0     H17799   6.871  11.180   8.276 -2.2225 -2.3655  0.6383
  873MOL0     H17800   6.725  11.178   8.043 -3.0147 -1.8618 -1.7233
  873MOL0     H17801   6.791  11.012   8.041  0.5589 -0.5900 -0.8361
  873MOL0     H17802   6.673  10.979   8.274  1.9343 -0.4796 -1.4602
  873MOL0     H17803   6.619  11.151   8.262 -0.4835  1.0362  0.0869
  873MOL0     H17804   6.461  10.976   8.212 -0.4663 -0.6817 -1.4985
  873MOL0     H17805   6.531  10.953   8.049 -0.0410  1.0037 -0.1587
  873MOL0     H17806   6.243  11.048   8.039  1.4133 -1.7031 -3.4707
  873MOL0     H17807   6.145  11.346   7.850  3.3669 -1.3323 -1.1068
  873MOL0     H17808   6.081  11.214   7.942 -0.6548  1.5271  0.3528
  873MOL0     H17809   6.160  11.451   8.106 -0.0719  0.7790 -0.9826
  873MOL0     H17810   6.030  11.338   8.129  1.3260 -0.2865  0.9422
  873MOL0     H17811   6.051  11.564   7.913  1.4996 -0.1852 -0.0505
  873MOL0     H17812   5.950  11.577   8.059  0.8634  0.4016  0.0370
  873MOL0     H17813   5.798  11.523   7.930  1.3816  1.2525 -0.2319
  873MOL0     H17814   5.846  11.363   7.964  0.9350 -0.2801  0.4609
  873MOL0     H17815   5.969  11.360   7.544  0.6182  1.6674 -0.7445
  873MOL0     H17816   5.797  11.407   7.232 -0.9392  0.1826  1.3480
  873MOL0     H17817   5.932  11.324   7.320  0.2827 -1.5184  0.4792
  873MOL0     H17818   5.764  11.247   7.299 -0.7541 -0.5387  0.5047
  873MOL0     H17819   5.171  11.352   7.517  1.7230  2.4619 -0.2430
  873MOL0     H17820   4.955  11.316   7.379  0.8895 -0.0580  0.5976
  873MOL0     H17821   4.908  11.415   6.979  2.5340  0.3638  1.0732
  873MOL0     H17822   5.009  11.260   6.967 -0.1267  0.3556 -1.1421
  873MOL0     H17823   4.809  11.249   6.838  0.9202  1.4526  0.9002
  873MOL0     H17824   4.812  11.125   6.970  0.1184  0.7930 -1.6148
  873MOL0     H17825   4.694  11.393   6.987  2.7631 -0.7222 -0.3055
  873MOL0     H17826   4.633  11.261   7.093  2.0610 -0.2752  0.2877
  873MOL0     H17827   4.569  11.282   6.802 -0.7189  1.9990  0.7937
  873MOL0     H17828   4.534  11.136   6.893 -2.0752 -0.4238 -1.1354
  873MOL0     H17829   4.402  11.416   6.900 -2.6360  1.2272  0.9077
  873MOL0     H17830   4.395  11.328   7.057 -2.2295  2.0974 -0.4966
  873MOL0     H17831   4.267  11.157   6.986 -1.4364  0.0630 -0.4545
  873MOL0     H17832   4.195  11.312   6.950  1.7208  1.6702  0.1726
  873MOL0     H17833   4.344  11.116   6.763 -1.5563 -0.6293 -2.1216
  873MOL0     H17834   4.304  11.280   6.708 -1.1844 -1.2407 -0.9550
  873MOL0     H17835   4.054  11.222   6.766  3.2932  1.4596  1.6943
  873MOL0     H17836   4.116  11.062   6.811 -2.4029 -0.6911 -0.7413
  873MOL0     H17837   5.151  11.397   7.025 -3.3293  0.5334  0.1895
  873MOL0     H17838   5.355  11.458   7.129 -1.6090  1.2445 -2.3731
  873MOL0     H17839   5.492  11.500   7.626  0.4268  1.6970 -3.2906
  873MOL0     H17840   5.653  11.522   7.777 -1.0348  2.9810 -1.5631
  873MOL0     H17841   7.586  10.908   8.259 -1.0064 -0.6681 -1.8650
  873MOL0     H17842   7.806  10.935   8.371  1.6635  0.5892 -0.7305
  873MOL0     H17843   8.113  11.377   8.649  1.7541  1.5839  1.6872
  873MOL0     H17844   8.316  11.352   8.772 -0.3169 -0.2918 -0.5243
  873MOL0     H17845   8.517  11.303   8.855 -1.8846  0.5696 -0.7803
  873MOL0     H17846   8.413  11.179   8.929 -1.5590  0.2143 -0.9697
  873MOL0     H17847   8.643  11.200   9.032 -0.1791  3.4341 -2.6746
  873MOL0     H17848   8.724  11.136   8.901  0.1587  0.6170  2.2794
  873MOL0     H17849   8.598  10.948   8.870 -2.1421 -2.0256  0.3519
  873MOL0     H17850   8.486  10.986   8.997  0.1031 -0.9846 -0.5889
  873MOL0     H17851   8.649  10.830   9.104 -1.2859  0.5150 -0.3928
  873MOL0     H17852   8.635  10.993   9.171  0.6061  1.1735 -0.0345
  873MOL0     H17853   9.042  10.962   9.061  0.6103 -0.0797 -1.3741
  873MOL0     H17854   8.413  11.005   8.534 -2.6146 -2.0421  0.1721
  873MOL0     H17855   8.214  11.022   8.412  1.3312  0.1926 -1.2008
  874MOL0     O17856  10.668   2.546   0.835 -0.6792 -0.2481 -0.4315
  874MOL0     C17857  10.691   2.637   0.752 -0.4579 -0.2244 -1.4460
  874MOL0     O17858  10.593   2.725   0.708  0.1972  0.3805 -0.0294
  874MOL0     C17859  10.458   2.687   0.705  0.1921  0.1025 -0.2465
  874MOL0     C17860  10.409   2.553   0.681  0.0045  0.3473  0.0506
  874MOL0     C17861  10.271   2.520   0.680  0.0828  0.0835  0.1701
  874MOL0     C17862  10.177   2.619   0.706  0.7104 -0.3854 -0.4162
  874MOL0     O17863  10.047   2.574   0.715  0.7118  0.2453  0.1048
  874MOL0     C17864   9.957   2.638   0.804  0.3148  0.1833  0.1061
  874MOL0     C17865   9.886   2.526   0.869 -0.0000  0.6501  0.1277
  874MOL0     C17866   9.800   2.441   0.772 -0.8922  0.5382 -0.4985
  874MOL0     C17867   9.659   2.408   0.830  0.6953  0.3189 -0.0025
  874MOL0     C17868   9.648   2.385   0.980 -0.6800 -0.4984 -0.0801
  874MOL0     C17869   9.512   2.333   1.006  0.1404  0.1310 -0.1381
  874MOL0     C17870   9.489   2.284   1.155  0.5794  0.1890  0.2467
  874MOL0     C17871   9.564   2.158   1.205 -0.9157  0.4412 -0.0809
  874MOL0     N17872   9.552   2.162   1.355 -0.0454  0.1385  0.5971
  874MOL0     C17873   9.649   2.196   1.448  0.0519 -0.1437 -0.0882
  874MOL0     C17874   9.595   2.189   1.572  0.7624 -0.1096  0.3825
  874MOL0     C17875   9.659   2.212   1.708  0.7482 -0.4394  0.6784
  874MOL0     C17876   9.674   2.365   1.734 -1.6587 -0.4127 -0.2320
  874MOL0     C17877   9.701   2.402   1.880 -0.3071 -0.4230  0.6751
  874MOL0     C17878   9.844   2.386   1.917 -0.1200  1.0775 -0.1468
  874MOL0     O17879   9.942   2.462   1.851  0.1033  0.0979 -0.3954
  874MOL0     C17880   9.924   2.601   1.853 -0.4243  0.2078 -0.7632
  874MOL0     C17881   9.954   2.675   1.745 -0.3733 -0.2478  0.2971
  874MOL0     C17882   9.961   2.813   1.745 -0.3453 -0.2313  0.4775
  874MOL0     C17883   9.993   2.878   1.615 -0.8584  1.3910  0.4849
  874MOL0     C17884   9.919   2.887   1.856  1.0278  0.1084  0.0540
  874MOL0     C17885   9.910   3.036   1.861 -0.7682  0.2344 -0.4774
  874MOL0     O17886   9.792   3.091   1.900 -0.7551 -0.1155  0.0695
  874MOL0     C17887   9.788   3.225   1.930  0.4656  0.2867 -0.7249
  874MOL0     C17888   9.870   3.297   2.020 -0.5021 -0.4902  0.5454
  874MOL0     C17889   9.850   3.433   2.058  0.6393 -0.0106  0.0615
  874MOL0     C17890   9.744   3.495   1.992 -0.7539 -1.0780  0.3823
  874MOL0     O17891   9.719   3.626   2.018 -0.7879  0.2302  0.2990
  874MOL0     C17892   9.752   3.663   2.157  0.4046 -0.0419 -0.0801
  874MOL0     C17893   9.708   3.809   2.147 -1.1157 -0.2276  0.0075
  874MOL0     C17894   9.732   3.903   2.272  0.4627  0.3549  0.7243
  874MOL0     C17895   9.748   4.058   2.238  0.1390  0.2059 -0.0163
  874MOL0     C17896   9.882   4.102   2.210  0.3093  0.5185 -0.1705
  874MOL0     C17897   9.907   4.249   2.193 -0.8621 -0.9331 -0.0683
  874MOL0     C17898  10.043   4.278   2.142  0.0285  1.2878  0.8629
  874MOL0     C17899  10.154   4.235   2.243 -0.6801  0.1168 -0.9732
  874MOL0    Cl17900  10.308   4.233   2.143 -0.1437 -0.2374 -0.3788
  874MOL0     C17901   9.674   3.431   1.892 -0.4749 -0.6338 -0.6422
  874MOL0     C17902   9.692   3.292   1.871  0.2027  0.2023 -0.2866
  874MOL0     O17903  10.014   3.103   1.850  0.0936  0.0742 -0.9210
  874MOL0     C17904   9.876   2.810   1.965 -0.1199  0.3647 -0.1240
  874MOL0     C17905   9.883   2.673   1.969 -0.9586  0.9450  0.0231
  874MOL0     N17906   9.470   2.155   1.554 -0.0800 -0.0604 -0.6409
  874MOL0     N17907   9.444   2.144   1.430  0.9013  0.6091  0.0521
  874MOL0     C17908  10.221   2.755   0.715 -0.4467  0.7772  0.1872
  874MOL0     C17909  10.357   2.786   0.722  0.4758  0.2291 -0.7263
  874MOL0     C17910  10.836   2.660   0.708  1.2382 -0.1037 -1.2087
  874MOL0     C17911  10.941   2.586   0.774 -0.2296  0.5004  0.0521
  874MOL0     C17912  11.079   2.619   0.757  0.3668  0.5768  0.3201
  874MOL0     C17913  11.103   2.697   0.646  0.4247 -0.6445  0.1419
  874MOL0     O17914  11.237   2.712   0.623 -0.5109  0.0229 -0.3463
  874MOL0     C17915  11.300   2.805   0.713  0.1239 -0.0306 -0.0460
  874MOL0     C17916  11.424   2.746   0.782  0.1748 -0.1537  0.3764
  874MOL0     C17917  11.557   2.762   0.710  0.5130  0.0011  0.4514
  874MOL0     C17918  11.556   2.660   0.593  0.3631  1.2144 -0.7372
  874MOL0     C17919  11.674   2.659   0.500 -0.6414 -0.0473 -1.0795
  874MOL0     C17920  11.774   2.668   0.426  0.4268  0.6291 -0.9715
  874MOL0     C17921  11.000   2.748   0.558 -0.6985 -0.3342  0.2058
  874MOL0     C17922  10.868   2.727   0.593 -0.8304 -1.1117  0.1611
  874MOL0     H17923  10.474   2.468   0.663  0.7538  0.6014  1.4502
  874MOL0     H17924  10.233   2.420   0.661 -1.2602  0.8608 -1.5377
  874MOL0     H17925  10.004   2.691   0.887 -1.0518  1.3228  0.1775
  874MOL0     H17926   9.896   2.720   0.766  0.3125  0.0965 -0.0796
  874MOL0     H17927   9.964   2.462   0.911 -0.6411 -0.2041  0.0390
  874MOL0     H17928   9.821   2.573   0.943  0.3886 -1.6373  2.0118
  874MOL0     H17929   9.788   2.482   0.671 -2.3345 -0.2715 -0.6905
  874MOL0     H17930   9.831   2.337   0.756 -1.9263  0.2424 -0.6624
  874MOL0     H17931   9.598   2.492   0.796  0.7905 -1.0099 -3.9720
  874MOL0     H17932   9.611   2.320   0.787  0.3758  0.7296 -0.4929
  874MOL0     H17933   9.727   2.312   0.999 -0.6567 -0.6389 -0.7228
  874MOL0     H17934   9.662   2.477   1.038 -1.6272  0.3243 -1.1030
  874MOL0     H17935   9.426   2.393   0.975 -0.0678 -0.2463 -0.2960
  874MOL0     H17936   9.505   2.248   0.938  5.5790 -0.6275 -0.2362
  874MOL0     H17937   9.513   2.364   1.226 -1.2765  1.1294 -0.1333
  874MOL0     H17938   9.381   2.270   1.156  0.5790  0.1285  2.2319
  874MOL0     H17939   9.668   2.165   1.172 -0.9178 -0.6285 -0.3572
  874MOL0     H17940   9.523   2.063   1.168  0.1636 -0.0450 -0.0774
  874MOL0     H17941   9.755   2.210   1.431  0.7848 -3.1398  1.3398
  874MOL0     H17942   9.590   2.177   1.786 -1.5185  2.7800  0.3309
  874MOL0     H17943   9.754   2.159   1.706  0.2839 -1.3395 -2.4096
  874MOL0     H17944   9.589   2.425   1.699 -1.7145 -0.8947 -0.9493
  874MOL0     H17945   9.758   2.399   1.672 -1.9232 -1.5210 -1.2523
  874MOL0     H17946   9.636   2.332   1.932 -0.0801 -0.1793  1.2922
  874MOL0     H17947   9.667   2.505   1.892 -1.5774 -0.2820 -3.0410
  874MOL0     H17948   9.882   2.285   1.896 -0.4338  0.4614  1.9402
  874MOL0     H17949   9.853   2.404   2.025  1.0163 -0.5132  0.0640
  874MOL0     H17950   9.985   2.618   1.658 -2.0368 -2.4379  1.0392
  874MOL0     H17951  10.047   2.972   1.630 -0.5720  1.4453 -0.7609
  874MOL0     H17952  10.057   2.818   1.550 -1.2184  2.2461 -0.7018
  874MOL0     H17953   9.900   2.902   1.562 -0.6400  2.7179  0.6567
  874MOL0     H17954   9.950   3.259   2.083 -0.1310  1.0143  1.0379
  874MOL0     H17955   9.924   3.478   2.123  1.5654 -1.2009 -0.1159
  874MOL0     H17956   9.693   3.609   2.232 -0.3913  2.4164  1.1741
  874MOL0     H17957   9.861   3.664   2.160  0.4634  0.7066 -1.5294
  874MOL0     H17958   9.766   3.852   2.065 -2.0207  1.0407 -0.0070
  874MOL0     H17959   9.601   3.815   2.121 -0.8976  2.0134 -0.6090
  874MOL0     H17960   9.818   3.859   2.324  0.8068  0.0669 -0.0685
  874MOL0     H17961   9.637   3.903   2.326 -0.6201  0.6812 -1.0976
  874MOL0     H17962   9.683   4.081   2.153 -0.8444  0.1865  0.7183
  874MOL0     H17963   9.720   4.118   2.325 -0.1350  1.7474 -1.1293
  874MOL0     H17964   9.901   4.063   2.109 -2.7597 -0.0289 -0.6387
  874MOL0     H17965   9.943   4.063   2.292  1.6516  1.0296 -0.8847
  874MOL0     H17966   9.827   4.297   2.136 -0.0940 -0.9949 -1.2316
  874MOL0     H17967   9.899   4.305   2.287 -2.0136 -0.5960 -0.3505
  874MOL0     H17968  10.057   4.385   2.121  0.8783  1.0149 -0.0507
  874MOL0     H17969  10.062   4.224   2.049  3.7341  2.2783  0.8797
  874MOL0     H17970  10.138   4.133   2.279 -0.1015  0.5200  0.5373
  874MOL0     H17971  10.160   4.298   2.332  2.0783  0.9390 -1.6434
  874MOL0     H17972   9.593   3.475   1.834  2.2939 -0.7338 -5.0624
  874MOL0     H17973   9.630   3.232   1.805  1.8991  1.1603 -2.9047
  874MOL0     H17974   9.851   2.870   2.053 -2.0017  4.1639 -2.9324
  874MOL0     H17975   9.855   2.629   2.064  0.1295  2.7699  1.2429
  874MOL0     H17976  10.145   2.831   0.728 -1.1943  0.2933 -1.1529
  874MOL0     H17977  10.382   2.891   0.730 -1.3411  0.6030  1.1816
  874MOL0     H17978  10.906   2.522   0.854  1.7000 -1.2041 -0.3832
  874MOL0     H17979  11.147   2.575   0.829  0.4232  1.1562  0.6306
  874MOL0     H17980  11.308   2.898   0.656  0.3601  0.0926  0.1835
  874MOL0     H17981  11.231   2.833   0.794 -0.5196  1.3376 -1.0302
  874MOL0     H17982  11.404   2.640   0.797 -0.6936 -0.7828 -3.9364
  874MOL0     H17983  11.435   2.780   0.886  1.7682 -1.7829  0.7791
  874MOL0     H17984  11.635   2.733   0.780  0.4276  3.6372  2.3273
  874MOL0     H17985  11.581   2.866   0.686 -0.4581  0.2064  0.3309
  874MOL0     H17986  11.466   2.691   0.538 -0.8274 -0.2881  0.2659
  874MOL0     H17987  11.534   2.560   0.631  0.5994  0.2455 -3.0065
  874MOL0     H17988  11.865   2.674   0.369  2.9227  0.2760  2.6304
  874MOL0     H17989  11.032   2.803   0.471  1.4531 -1.7938 -0.0031
  874MOL0     H17990  10.805   2.775   0.518 -1.2900  0.1080  1.3078
  875MOL0     O17991   2.609   7.214   1.838  0.0284  0.1120 -0.4969
  875MOL0     C17992   2.695   7.251   1.764 -0.8811  0.1438  0.5191
  875MOL0     O17993   2.674   7.316   1.647  0.5502  0.0326 -0.0129
  875MOL0     C17994   2.549   7.328   1.593  0.6425  0.4340 -0.6060
  875MOL0     C17995   2.525   7.255   1.474  0.2522  0.0278  0.2372
  875MOL0     C17996   2.403   7.271   1.406  0.2887 -0.2739 -0.3869
  875MOL0     C17997   2.295   7.350   1.458  0.2405  0.0104 -0.1803
  875MOL0     O17998   2.183   7.344   1.379  0.1883 -0.1169 -0.3333
  875MOL0     C17999   2.088   7.449   1.412  0.6576  0.0249 -0.6714
  875MOL0     C18000   1.955   7.407   1.338 -0.6402 -0.5674 -0.1887
  875MOL0     C18001   1.854   7.523   1.346 -0.2006 -0.1929 -0.2502
  875MOL0     C18002   1.723   7.512   1.261 -0.2878  0.4559 -0.1481
  875MOL0     C18003   1.668   7.650   1.213 -0.0801 -0.1010  0.3270
  875MOL0     C18004   1.565   7.626   1.100 -0.5617  0.1958 -0.0143
  875MOL0     C18005   1.497   7.749   1.039  0.3828  0.0203  0.6125
  875MOL0     C18006   1.598   7.855   1.002 -0.4339  0.7202 -0.4882
  875MOL0     N18007   1.705   7.810   0.914  0.0284  0.6703 -1.0712
  875MOL0     C18008   1.836   7.839   0.924 -0.3427 -1.3248  0.0194
  875MOL0     C18009   1.904   7.772   0.828 -0.0979 -1.0807  0.7026
  875MOL0     C18010   2.050   7.808   0.828  0.6102  0.1524  0.4048
  875MOL0     C18011   2.119   7.736   0.950 -0.4630  0.1931 -0.2218
  875MOL0     C18012   2.248   7.814   0.977  0.2927 -0.0555 -1.2597
  875MOL0     C18013   2.350   7.722   1.050 -0.5452  0.2137  0.4737
  875MOL0     O18014   2.392   7.615   0.962 -0.3005 -0.6923  0.6501
  875MOL0     C18015   2.505   7.547   0.999 -0.4517 -0.7298 -0.3640
  875MOL0     C18016   2.597   7.497   0.906  0.5508 -0.5590 -0.2419
  875MOL0     C18017   2.711   7.428   0.934 -0.1583 -0.0529 -0.4956
  875MOL0     C18018   2.808   7.406   0.815  0.1229  0.2637 -0.5769
  875MOL0     C18019   2.740   7.400   1.074  0.0212 -0.2839  0.6526
  875MOL0     C18020   2.866   7.341   1.130  0.7170  0.3594 -1.2025
  875MOL0     O18021   2.945   7.261   1.052  0.3923 -0.2601  0.6785
  875MOL0     C18022   3.065   7.209   1.091  0.1861 -0.3662  0.3782
  875MOL0     C18023   3.099   7.080   1.038  0.2304  0.2661 -1.0220
  875MOL0     C18024   3.198   7.011   1.108 -0.4142  0.1089 -0.6279
  875MOL0     C18025   3.270   7.062   1.219 -1.2841 -0.2163 -0.2089
  875MOL0     O18026   3.358   6.967   1.268 -0.1797  0.7254  0.1879
  875MOL0     C18027   3.422   6.989   1.395 -0.1791  0.0740 -0.2336
  875MOL0     C18028   3.508   6.866   1.433  0.6993  0.0381  0.2399
  875MOL0     C18029   3.631   6.900   1.517 -0.3202  0.4937 -1.3288
  875MOL0     C18030   3.599   6.984   1.640 -0.6554  0.1622  0.4602
  875MOL0     C18031   3.716   6.986   1.732  0.1012  0.2352 -0.6836
  875MOL0     C18032   3.842   7.049   1.668 -0.4759 -0.9068  0.3558
  875MOL0     C18033   3.822   7.207   1.655 -0.4805 -0.4658  0.4319
  875MOL0     C18034   3.939   7.284   1.601  0.6739  0.1169  0.5754
  875MOL0    Cl18035   4.079   7.237   1.712 -0.2424  0.2652 -0.1839
  875MOL0     C18036   3.252   7.200   1.250 -0.2276 -0.7789  0.6521
  875MOL0     C18037   3.150   7.274   1.185 -0.6913  0.8002 -0.1298
  875MOL0     O18038   2.883   7.361   1.251  0.1416 -0.0320 -0.7165
  875MOL0     C18039   2.646   7.455   1.174  0.2377  0.9430 -0.5686
  875MOL0     C18040   2.532   7.524   1.137  0.1145  0.3975 -0.0637
  875MOL0     N18041   1.814   7.700   0.753  0.7949  0.1205 -0.2783
  875MOL0     N18042   1.696   7.722   0.810 -0.0830 -0.4699  0.3799
  875MOL0     C18043   2.321   7.411   1.581  0.2275 -0.3233  0.5643
  875MOL0     C18044   2.448   7.406   1.639  0.2255 -0.5558 -0.7423
  875MOL0     C18045   2.837   7.214   1.780  1.1077  0.5023 -0.9698
  875MOL0     C18046   2.933   7.238   1.680  0.3392 -0.4824 -0.9593
  875MOL0     C18047   3.073   7.223   1.707 -0.8121 -0.2241 -0.0647
  875MOL0     C18048   3.107   7.175   1.833 -0.2559  0.1056 -0.7197
  875MOL0     O18049   3.235   7.141   1.879 -0.1729 -0.6661  0.4487
  875MOL0     C18050   3.346   7.177   1.791 -0.1856 -0.3995 -0.6599
  875MOL0     C18051   3.406   7.322   1.809  0.0552 -1.1213 -0.1541
  875MOL0     C18052   3.450   7.329   1.954  0.2074 -0.7665 -0.3461
  875MOL0     C18053   3.519   7.461   1.977  0.1796 -0.0953  0.0897
  875MOL0     C18054   3.435   7.576   1.956  0.8321 -0.9466 -0.5028
  875MOL0     C18055   3.359   7.668   1.930  0.1524  0.3020  0.3912
  875MOL0     C18056   3.015   7.131   1.925 -0.2682  0.6976 -0.0701
  875MOL0     C18057   2.884   7.163   1.906 -0.0059  0.1998  0.2396
  875MOL0     H18058   2.613   7.199   1.445  1.3615  2.7950 -2.3346
  875MOL0     H18059   2.369   7.208   1.324 -2.2610  1.8769 -1.1376
  875MOL0     H18060   2.058   7.449   1.517  0.3757 -0.9714 -0.7418
  875MOL0     H18061   2.113   7.552   1.383 -0.7131  1.2126  2.0091
  875MOL0     H18062   1.983   7.408   1.232 -2.8411  1.3140 -0.8640
  875MOL0     H18063   1.916   7.310   1.369 -0.2170 -0.3561  1.0730
  875MOL0     H18064   1.829   7.526   1.452 -0.5282  1.9789 -0.3524
  875MOL0     H18065   1.901   7.619   1.325  0.4102 -0.1939  1.0263
  875MOL0     H18066   1.744   7.452   1.172  0.1118  0.8177 -0.2966
  875MOL0     H18067   1.646   7.464   1.323 -1.6642  2.4531 -0.1886
  875MOL0     H18068   1.623   7.704   1.296 -0.5489 -1.7964  1.2319
  875MOL0     H18069   1.754   7.698   1.166 -2.8927  2.7740 -2.4004
  875MOL0     H18070   1.624   7.559   1.036  1.9691 -1.9890  4.1170
  875MOL0     H18071   1.488   7.555   1.130 -1.0109 -0.2348 -2.0427
  875MOL0     H18072   1.445   7.727   0.945  0.3891  2.6180 -0.0890
  875MOL0     H18073   1.417   7.782   1.105 -2.2086 -1.1951 -1.7017
  875MOL0     H18074   1.640   7.894   1.096  0.0387  3.2857 -1.6631
  875MOL0     H18075   1.553   7.943   0.955  1.1929  1.6906 -0.2850
  875MOL0     H18076   1.880   7.922   0.978 -1.7549 -1.6104  1.6911
  875MOL0     H18077   2.086   7.758   0.737  1.9889  0.9031  0.5048
  875MOL0     H18078   2.073   7.915   0.824  2.5651 -0.0909  2.8222
  875MOL0     H18079   2.158   7.638   0.922  0.9533 -0.0670  2.3167
  875MOL0     H18080   2.055   7.731   1.039  0.1469  2.1317  0.3689
  875MOL0     H18081   2.225   7.889   1.054 -0.7422 -3.9712  2.6620
  875MOL0     H18082   2.286   7.864   0.887  0.0718  0.7491 -0.9229
  875MOL0     H18083   2.318   7.681   1.147  0.0353  0.6754  0.8668
  875MOL0     H18084   2.443   7.779   1.059 -0.9166  1.7117 -3.4228
  875MOL0     H18085   2.574   7.507   0.800 -1.5707 -3.4076 -0.1498
  875MOL0     H18086   2.903   7.458   0.828  1.1190 -1.2489 -1.4343
  875MOL0     H18087   2.841   7.302   0.804  1.5238  0.6926 -0.6159
  875MOL0     H18088   2.749   7.419   0.723 -0.6759  0.6748 -0.0218
  875MOL0     H18089   3.041   7.033   0.960 -0.4786 -1.0953  0.2773
  875MOL0     H18090   3.212   6.905   1.090  0.6337  0.2303 -0.6073
  875MOL0     H18091   3.479   7.083   1.392  0.7745 -0.3768  1.8743
  875MOL0     H18092   3.337   7.008   1.461  0.8457  2.3769  0.5582
  875MOL0     H18093   3.436   6.800   1.483  1.2776 -1.7962 -1.2079
  875MOL0     H18094   3.530   6.802   1.346 -1.2268 -1.1600  0.5642
  875MOL0     H18095   3.701   6.963   1.462 -0.8636  1.7021 -0.6750
  875MOL0     H18096   3.676   6.804   1.545  0.5095  1.1437 -0.3940
  875MOL0     H18097   3.573   7.083   1.601 -0.9826 -0.0875  0.0383
  875MOL0     H18098   3.511   6.944   1.691 -1.4279  0.3947 -0.6401
  875MOL0     H18099   3.736   6.882   1.762  0.3007 -0.0935 -1.9121
  875MOL0     H18100   3.699   7.042   1.825  0.1571 -2.0653  0.7984
  875MOL0     H18101   3.918   7.034   1.745 -0.9933  1.2302  1.3446
  875MOL0     H18102   3.874   7.008   1.571  3.0202  0.5238  0.7396
  875MOL0     H18103   3.795   7.242   1.755 -0.5238 -1.8735  0.9264
  875MOL0     H18104   3.727   7.221   1.602 -0.6595  0.1310  0.8964
  875MOL0     H18105   3.904   7.387   1.608 -0.7094 -0.0282 -2.6048
  875MOL0     H18106   3.950   7.254   1.496  0.9859  1.0074  0.3496
  875MOL0     H18107   3.310   7.239   1.333 -0.4494 -0.7533  0.7956
  875MOL0     H18108   3.143   7.378   1.217  0.6819  0.2697  2.1638
  875MOL0     H18109   2.658   7.427   1.279  3.4679 -1.1695 -1.3533
  875MOL0     H18110   2.475   7.557   1.223  0.8945 -0.7227  0.9300
  875MOL0     H18111   2.245   7.470   1.630  0.8128  1.1107 -0.1903
  875MOL0     H18112   2.469   7.458   1.732 -3.0803  0.6229 -0.5358
  875MOL0     H18113   2.909   7.275   1.580 -2.2772  0.5800 -0.0241
  875MOL0     H18114   3.142   7.258   1.631  1.9692 -1.3560  1.7642
  875MOL0     H18115   3.417   7.100   1.822 -1.5803 -0.1218  4.0569
  875MOL0     H18116   3.326   7.167   1.684  0.2743  4.0931 -1.3655
  875MOL0     H18117   3.320   7.387   1.790 -3.1223 -2.7257  6.1405
  875MOL0     H18118   3.496   7.332   1.747 -0.4707 -1.9008 -1.0799
  875MOL0     H18119   3.516   7.245   1.978 -0.9966 -1.3802  1.0052
  875MOL0     H18120   3.361   7.338   2.017  0.6026  2.0330 -0.0927
  875MOL0     H18121   3.606   7.470   1.911 -0.7455  0.0932 -1.1412
  875MOL0     H18122   3.561   7.464   2.077  3.9429  3.7924 -1.2828
  875MOL0     H18123   3.287   7.746   1.917  2.4083  2.3171 -0.7841
  875MOL0     H18124   3.046   7.098   2.024  1.5904  2.2745 -0.0588
  875MOL0     H18125   2.812   7.141   1.984 -1.4865  3.9690  0.1038
  876MOL0     O18126   5.077   0.438   6.232  0.1841 -0.0853  0.6868
  876MOL0     C18127   5.089   0.316   6.252  0.0959  1.3272 -0.3742
  876MOL0     O18128   5.189   0.264   6.329  0.6860  0.4001  0.1872
  876MOL0     C18129   5.273   0.342   6.404  0.1620  0.0356 -0.0273
  876MOL0     C18130   5.412   0.295   6.391  0.2978 -0.1031 -0.2660
  876MOL0     C18131   5.506   0.353   6.471  0.1655 -1.0517 -0.7424
  876MOL0     C18132   5.471   0.461   6.554  0.5017 -0.5552  0.0203
  876MOL0     O18133   5.563   0.527   6.626 -0.3359 -0.0835  0.6250
  876MOL0     C18134   5.646   0.446   6.719  0.8788 -0.3424  1.0353
  876MOL0     C18135   5.684   0.525   6.836  0.1878  0.7677 -1.5996
  876MOL0     C18136   5.776   0.642   6.804  0.0650  0.4866 -0.1263
  876MOL0     C18137   5.784   0.761   6.901 -0.3612  0.6323  1.1930
  876MOL0     C18138   5.658   0.854   6.907  0.8743 -0.2939  0.1323
  876MOL0     C18139   5.672   0.977   6.996 -0.4033  0.1762 -0.2162
  876MOL0     C18140   5.759   0.959   7.121  0.1594  0.0643  0.1284
  876MOL0     C18141   5.910   0.982   7.105 -0.0513  0.4358 -0.3892
  876MOL0     N18142   5.989   1.020   7.222 -0.3014 -0.1494 -0.1623
  876MOL0     C18143   6.112   0.981   7.250 -0.4696  0.3676 -0.5460
  876MOL0     C18144   6.158   1.063   7.348 -0.2607 -0.0926 -0.3235
  876MOL0     C18145   6.299   1.081   7.408 -0.4067 -0.0101  0.0925
  876MOL0     C18146   6.410   1.121   7.301  0.1828 -1.8462  0.1550
  876MOL0     C18147   6.531   1.158   7.374  0.0998  0.2818 -0.0799
  876MOL0     C18148   6.640   1.203   7.279  0.5707  0.1034  0.4980
  876MOL0     O18149   6.758   1.187   7.362  0.8926  0.0414  0.5268
  876MOL0     C18150   6.864   1.275   7.360  0.4380 -0.1022  0.1556
  876MOL0     C18151   6.894   1.373   7.265  0.2034 -0.5323  0.0488
  876MOL0     C18152   7.010   1.447   7.268 -0.0838 -0.2384  0.0007
  876MOL0     C18153   7.031   1.540   7.148 -0.7202 -0.5985  0.4770
  876MOL0     C18154   7.097   1.436   7.383 -0.8117  0.0703  0.3632
  876MOL0     C18155   7.209   1.518   7.402 -0.4778 -0.3382  1.1318
  876MOL0     O18156   7.208   1.640   7.361  0.1828  0.1112 -0.6517
  876MOL0     C18157   7.318   1.712   7.383 -0.2439  0.1369  0.7432
  876MOL0     C18158   7.321   1.832   7.461  0.4538  0.8415  0.0452
  876MOL0     C18159   7.437   1.906   7.479  0.1373 -0.3791 -0.3683
  876MOL0     C18160   7.551   1.885   7.403  0.3310  0.1253 -0.3945
  876MOL0     O18161   7.681   1.938   7.422 -0.2994 -0.2710  0.0861
  876MOL0     C18162   7.736   1.930   7.557 -0.2675 -0.8831  0.7165
  876MOL0     C18163   7.882   1.978   7.558 -0.5040  0.8390  0.0474
  876MOL0     C18164   7.979   1.852   7.548 -1.0735 -0.1872  0.6925
  876MOL0     C18165   8.124   1.884   7.532 -0.5888  0.5281 -0.2979
  876MOL0     C18166   8.204   1.750   7.535  0.9176 -0.5974 -0.6175
  876MOL0     C18167   8.345   1.759   7.463  0.0955  0.5313  0.5201
  876MOL0     C18168   8.430   1.647   7.513 -0.4376 -0.0671  0.7186
  876MOL0     C18169   8.562   1.660   7.445  0.0059 -0.6108 -0.2771
  876MOL0    Cl18170   8.546   1.628   7.272 -0.4366  0.5118  0.1463
  876MOL0     C18171   7.546   1.788   7.304 -0.3435  0.7025 -0.1866
  876MOL0     C18172   7.435   1.700   7.304 -0.6517  0.1289  0.7428
  876MOL0     O18173   7.312   1.454   7.426  0.8006  0.2845 -0.4566
  876MOL0     C18174   7.059   1.344   7.486 -0.1768 -0.3400 -0.4167
  876MOL0     C18175   6.943   1.272   7.475 -0.0673  0.3037 -0.6342
  876MOL0     N18176   6.049   1.146   7.381 -0.1068  0.1759 -0.0116
  876MOL0     N18177   5.948   1.118   7.299 -1.1722  0.1802  0.6446
  876MOL0     C18178   5.333   0.509   6.564 -0.4274  0.3577  0.2676
  876MOL0     C18179   5.234   0.444   6.489 -1.5949  0.0515 -0.2072
  876MOL0     C18180   4.997   0.204   6.193 -0.1839 -1.5756 -0.3952
  876MOL0     C18181   5.023   0.064   6.220  0.4216 -0.1917  0.6700
  876MOL0     C18182   4.936  -0.032   6.168 -0.1163  0.9054  0.2079
  876MOL0     C18183   4.830   0.011   6.079 -0.4010  0.2976 -0.1785
  876MOL0     O18184   4.733  -0.078   6.035 -0.1677  1.3612 -0.1768
  876MOL0     C18185   4.623  -0.084   6.123 -0.4556  1.0286  0.6757
  876MOL0     C18186   4.643  -0.152   6.260 -0.4093  0.5696  0.4643
  876MOL0     C18187   4.694  -0.305   6.284  0.8036  0.2383 -0.6212
  876MOL0     C18188   4.621  -0.413   6.203  0.2567 -0.4748  0.6282
  876MOL0     C18189   4.472  -0.410   6.246  0.1148  1.0840 -0.3106
  876MOL0     C18190   4.360  -0.392   6.296 -0.4934  0.7085 -0.1162
  876MOL0     C18191   4.811   0.146   6.052 -1.1503 -0.7940  0.1199
  876MOL0     C18192   4.892   0.239   6.111  0.4504  0.6331  0.5100
  876MOL0     H18193   5.442   0.205   6.340  0.1463 -1.4532  1.9104
  876MOL0     H18194   5.608   0.317   6.479  0.2927 -0.5431  0.0014
  876MOL0     H18195   5.584   0.360   6.747 -1.6575  1.2066  0.5313
  876MOL0     H18196   5.740   0.423   6.669  0.4262  1.9314 -1.0444
  876MOL0     H18197   5.590   0.544   6.890 -0.0149 -3.3433 -0.1723
  876MOL0     H18198   5.745   0.455   6.894 -0.0349  1.9476  0.1520
  876MOL0     H18199   5.875   0.595   6.801 -1.4254 -3.0800  1.2755
  876MOL0     H18200   5.753   0.687   6.707  2.2272 -1.1419 -1.5005
  876MOL0     H18201   5.812   0.711   6.994  4.9073 -0.8689 -0.8450
  876MOL0     H18202   5.875   0.813   6.868  0.2643  0.6309  2.8458
  876MOL0     H18203   5.623   0.878   6.806  0.7698 -0.1628  0.1983
  876MOL0     H18204   5.572   0.811   6.959  0.8052  0.5382  0.7309
  876MOL0     H18205   5.714   1.051   6.927 -1.6814 -0.8738 -2.2283
  876MOL0     H18206   5.572   1.012   7.022 -0.3712  0.3851 -0.3722
  876MOL0     H18207   5.740   1.052   7.176  0.1809  1.6574 -2.4126
  876MOL0     H18208   5.738   0.865   7.174 -0.6145  0.9647  1.4812
  876MOL0     H18209   5.923   1.055   7.024  0.0385  1.5577  0.6063
  876MOL0     H18210   5.951   0.890   7.063 -0.8127 -0.1978  0.2348
  876MOL0     H18211   6.163   0.898   7.204  1.8563  1.7770 -0.6731
  876MOL0     H18212   6.289   1.162   7.481 -1.9720  1.0971 -1.2795
  876MOL0     H18213   6.325   0.992   7.466 -0.4299  1.2972  2.2171
  876MOL0     H18214   6.368   1.210   7.255 -2.2604 -1.7795  2.2711
  876MOL0     H18215   6.420   1.040   7.228  1.9256 -1.5192 -0.0182
  876MOL0     H18216   6.561   1.064   7.421  0.1708  0.9862  1.3241
  876MOL0     H18217   6.510   1.234   7.450  1.2560  0.2734  0.2663
  876MOL0     H18218   6.624   1.302   7.235 -3.6429 -0.9314 -0.7803
  876MOL0     H18219   6.631   1.138   7.192  0.3992 -1.5444  1.6946
  876MOL0     H18220   6.830   1.395   7.180  1.6658  0.8710 -0.7461
  876MOL0     H18221   7.025   1.647   7.170  3.2638  0.1155 -0.9389
  876MOL0     H18222   7.133   1.530   7.109 -0.7487 -0.3558  0.3342
  876MOL0     H18223   6.968   1.506   7.065 -0.5482  2.3066 -0.9754
  876MOL0     H18224   7.245   1.848   7.537  0.6293 -1.0406  0.6751
  876MOL0     H18225   7.426   1.984   7.554 -3.0740 -0.6149 -0.4614
  876MOL0     H18226   7.685   2.001   7.624 -2.2908  1.5703 -3.0701
  876MOL0     H18227   7.729   1.829   7.599 -0.8508 -1.2339 -0.1961
  876MOL0     H18228   7.906   2.046   7.476 -1.3675 -0.5408 -1.4233
  876MOL0     H18229   7.897   2.022   7.657 -1.6484 -2.3769  1.8098
  876MOL0     H18230   7.947   1.797   7.459  0.3489 -0.8784  0.5816
  876MOL0     H18231   7.974   1.788   7.636 -0.2261 -0.3934  0.5984
  876MOL0     H18232   8.144   1.941   7.441 -2.4831  0.5910 -0.7126
  876MOL0     H18233   8.140   1.945   7.621 -0.0941  0.7627 -0.5433
  876MOL0     H18234   8.137   1.672   7.499 -3.1987  3.1336 -2.0496
  876MOL0     H18235   8.224   1.715   7.637  0.7867 -1.5181 -0.9058
  876MOL0     H18236   8.329   1.763   7.355 -3.6850 -2.5720  0.7651
  876MOL0     H18237   8.404   1.847   7.493  2.6114  0.8050 -4.3401
  876MOL0     H18238   8.375   1.554   7.498 -1.2692  0.6232 -0.6966
  876MOL0     H18239   8.461   1.653   7.618 -0.9918 -1.8861  1.0194
  876MOL0     H18240   8.637   1.595   7.490 -1.1632 -1.2948  0.7386
  876MOL0     H18241   8.605   1.757   7.470  0.6333 -1.1759  0.8635
  876MOL0     H18242   7.634   1.759   7.248 -0.1487 -0.0875  0.5187
  876MOL0     H18243   7.440   1.620   7.231  1.4555  0.6705  0.2279
  876MOL0     H18244   7.116   1.325   7.576 -3.4033 -0.8143  1.6939
  876MOL0     H18245   6.927   1.195   7.551  1.3294  1.8213  1.3012
  876MOL0     H18246   5.304   0.577   6.643 -1.8358 -1.3090  1.2825
  876MOL0     H18247   5.129   0.464   6.506 -0.8547  1.5986  3.2993
  876MOL0     H18248   5.110   0.040   6.280 -0.4981  0.2392  2.2553
  876MOL0     H18249   4.944  -0.137   6.195 -0.8164  1.3730  2.4499
  876MOL0     H18250   4.586   0.013   6.156 -0.6464  0.5726  1.8699
  876MOL0     H18251   4.548  -0.142   6.069  0.4490  0.3253  0.1368
  876MOL0     H18252   4.551  -0.150   6.318  0.1441 -4.5488  2.0406
  876MOL0     H18253   4.727  -0.099   6.307 -0.8622  1.8867 -0.1922
  876MOL0     H18254   4.682  -0.325   6.390 -0.3451  0.8868 -0.6090
  876MOL0     H18255   4.801  -0.312   6.262  1.1749 -1.2419  1.4102
  876MOL0     H18256   4.660  -0.514   6.214 -0.1481 -0.6762  0.2371
  876MOL0     H18257   4.625  -0.379   6.099 -0.4960  2.9874  1.6011
  876MOL0     H18258   4.265  -0.376   6.342  0.0009  0.2097  1.1203
  876MOL0     H18259   4.726   0.168   5.988  0.3706 -0.4698 -1.8981
  876MOL0     H18260   4.860   0.343   6.109 -1.2213  0.1468 -1.9640
  877MOL0     O18261   6.368   0.751   2.196 -0.7600 -0.9783  1.0557
  877MOL0     C18262   6.368   0.878   2.185  0.0084  0.5595  0.4665
  877MOL0     O18263   6.480   0.964   2.198  0.2866  0.4668  0.1430
  877MOL0     C18264   6.603   0.915   2.228  0.8839  0.5801 -0.3645
  877MOL0     C18265   6.667   0.970   2.340 -0.4036 -0.6223 -1.3655
  877MOL0     C18266   6.785   0.922   2.378 -0.0546  0.1005 -0.0079
  877MOL0     C18267   6.851   0.826   2.305 -0.1816 -0.0540  0.1353
  877MOL0     O18268   6.971   0.790   2.358  0.4380 -0.2241 -0.1505
  877MOL0     C18269   7.062   0.718   2.275 -0.4984  0.6057  0.2621
  877MOL0     C18270   7.196   0.698   2.346  0.1441 -0.8017  0.5659
  877MOL0     C18271   7.192   0.560   2.425 -1.2829  0.2558  0.9197
  877MOL0     C18272   7.266   0.569   2.563 -0.5085  0.6805 -0.8446
  877MOL0     C18273   7.285   0.421   2.623  0.0805 -1.3984 -0.1000
  877MOL0     C18274   7.345   0.452   2.763  0.0161  0.3524  0.2884
  877MOL0     C18275   7.388   0.317   2.822  1.0512  0.6621  0.4818
  877MOL0     C18276   7.465   0.306   2.943 -0.2112 -0.0944 -0.1125
  877MOL0     N18277   7.482   0.164   2.981  0.4092  0.7574  0.0419
  877MOL0     C18278   7.536   0.065   2.899  0.3047 -0.4753 -0.1879
  877MOL0     C18279   7.523  -0.049   2.968  0.9354  0.0167  0.3682
  877MOL0     C18280   7.579  -0.183   2.933 -0.3043  0.3882  0.2897
  877MOL0     C18281   7.484  -0.277   2.856  0.4730 -0.3890 -0.8345
  877MOL0     C18282   7.565  -0.400   2.818  0.1612  0.2167 -0.1847
  877MOL0     C18283   7.477  -0.507   2.740 -0.2092 -0.5408 -1.2277
  877MOL0     O18284   7.389  -0.454   2.643  0.0306 -0.9578 -0.3233
  877MOL0     C18285   7.272  -0.524   2.621 -0.1795 -0.0216 -0.5364
  877MOL0     C18286   7.270  -0.664   2.635 -0.8314 -0.9252 -0.6167
  877MOL0     C18287   7.158  -0.746   2.608 -0.1433 -0.7443  1.0101
  877MOL0     C18288   7.189  -0.896   2.610  0.2512  0.2741  0.6372
  877MOL0     C18289   7.040  -0.684   2.557 -0.2761 -0.3679  0.3770
  877MOL0     C18290   6.915  -0.756   2.507 -0.3204  0.0911  0.7921
  877MOL0     O18291   6.829  -0.675   2.428 -0.7034 -0.2820 -0.3656
  877MOL0     C18292   6.710  -0.730   2.386  0.2597 -0.1513  0.7207
  877MOL0     C18293   6.640  -0.841   2.431 -0.1933 -0.6462  0.0688
  877MOL0     C18294   6.512  -0.865   2.381 -0.2364 -0.3924 -0.2180
  877MOL0     C18295   6.456  -0.790   2.271 -0.0318  0.8306 -0.1996
  877MOL0     O18296   6.329  -0.830   2.239  0.2531  1.0607 -0.2590
  877MOL0     C18297   6.289  -0.826   2.100 -0.6185 -0.3045  0.1761
  877MOL0     C18298   6.232  -0.699   2.058  0.9168 -0.4988  1.2968
  877MOL0     C18299   6.241  -0.669   1.907  0.0216  0.2568 -0.5554
  877MOL0     C18300   6.394  -0.644   1.860  0.5504  0.9497 -0.0804
  877MOL0     C18301   6.409  -0.652   1.710  0.3629  0.0554  0.7183
  877MOL0     C18302   6.373  -0.792   1.654  0.5464  0.0657 -0.0101
  877MOL0     C18303   6.275  -0.779   1.534  0.7798  0.0062 -0.2573
  877MOL0     C18304   6.214  -0.916   1.494  0.7937 -0.1398  0.4445
  877MOL0    Cl18305   6.134  -0.923   1.344  0.2768  0.0319 -0.0860
  877MOL0     C18306   6.533  -0.686   2.217  0.6120  0.1422  0.2294
  877MOL0     C18307   6.656  -0.655   2.271  0.3848 -1.0967  0.1906
  877MOL0     O18308   6.917  -0.881   2.506  0.0787 -0.2253 -0.3042
  877MOL0     C18309   7.044  -0.538   2.555  0.4096 -0.1473 -0.1116
  877MOL0     C18310   7.163  -0.461   2.574  0.8723 -0.5130 -0.0269
  877MOL0     N18311   7.467  -0.033   3.086 -0.5650 -0.5593 -0.6767
  877MOL0     N18312   7.443   0.098   3.100 -0.0488  0.4003  0.5046
  877MOL0     C18313   6.793   0.763   2.199  0.6046 -0.1472 -0.0456
  877MOL0     C18314   6.669   0.816   2.158 -0.6083  0.1428  0.4760
  877MOL0     C18315   6.236   0.932   2.148 -0.0990  0.2422 -0.2379
  877MOL0     C18316   6.120   0.846   2.145  0.6482 -0.4036  0.1357
  877MOL0     C18317   5.994   0.894   2.112  0.2885 -0.7552  0.7829
  877MOL0     C18318   5.978   1.029   2.081 -0.8262 -0.2355 -0.0215
  877MOL0     O18319   5.850   1.081   2.066  0.0549  0.5866  0.4200
  877MOL0     C18320   5.772   1.020   1.959 -0.3956  0.3814  0.1581
  877MOL0     C18321   5.771   1.115   1.842 -0.5416  0.2879 -1.7073
  877MOL0     C18322   5.667   1.061   1.736 -0.1566 -0.3988 -0.3613
  877MOL0     C18323   5.671   1.176   1.642 -0.8018  0.4212  0.1337
  877MOL0     C18324   5.610   1.132   1.514  0.3330 -0.4556 -0.0007
  877MOL0     C18325   5.564   1.095   1.409 -1.1897 -0.2015 -0.3832
  877MOL0     C18326   6.091   1.111   2.096  0.3157  0.0174 -0.2721
  877MOL0     C18327   6.218   1.066   2.118  0.3074 -0.7443  0.0065
  877MOL0     H18328   6.622   1.062   2.378 -0.1228  0.3322 -3.1815
  877MOL0     H18329   6.837   0.978   2.456  1.2876 -2.5018  1.1209
  877MOL0     H18330   7.024   0.618   2.253  1.1524 -0.3364  1.5066
  877MOL0     H18331   7.072   0.779   2.184 -2.4761  1.3038  0.4748
  877MOL0     H18332   7.274   0.698   2.270 -2.6529 -1.7235 -2.5185
  877MOL0     H18333   7.221   0.776   2.419  2.2021 -0.7988 -0.1003
  877MOL0     H18334   7.091   0.523   2.442 -1.8109  1.3029  0.1629
  877MOL0     H18335   7.243   0.490   2.358  1.3109  0.1217  2.8780
  877MOL0     H18336   7.361   0.619   2.540  0.2958  0.6126  1.9191
  877MOL0     H18337   7.202   0.625   2.631 -3.6526 -3.3983 -0.0542
  877MOL0     H18338   7.188   0.372   2.629 -0.5939 -0.4580 -2.2150
  877MOL0     H18339   7.358   0.368   2.561 -0.2258 -2.0868  0.1179
  877MOL0     H18340   7.429   0.522   2.763  0.3001  0.0741  2.1515
  877MOL0     H18341   7.259   0.489   2.820 -2.1866 -1.9691 -1.3083
  877MOL0     H18342   7.293   0.264   2.835  1.9316 -2.1460 -3.0186
  877MOL0     H18343   7.450   0.268   2.747 -0.4775  1.1243 -1.1429
  877MOL0     H18344   7.419   0.356   3.028  1.0375  1.1903 -0.1471
  877MOL0     H18345   7.558   0.364   2.935  0.9203 -1.6783  1.0609
  877MOL0     H18346   7.575   0.071   2.798 -1.8069 -0.0519 -1.0369
  877MOL0     H18347   7.664  -0.156   2.869 -1.3618 -1.3261 -1.9598
  877MOL0     H18348   7.611  -0.242   3.019 -0.2163  2.3297  1.6565
  877MOL0     H18349   7.452  -0.223   2.767 -0.0081 -0.3448 -0.6414
  877MOL0     H18350   7.394  -0.304   2.912  1.6032  0.9990  1.8207
  877MOL0     H18351   7.606  -0.438   2.912 -2.3261  1.2186  1.3981
  877MOL0     H18352   7.642  -0.370   2.747  0.0600  2.7086  0.6766
  877MOL0     H18353   7.426  -0.563   2.818  1.0848 -0.8479 -0.5656
  877MOL0     H18354   7.544  -0.576   2.686 -0.9191 -3.1169  0.9563
  877MOL0     H18355   7.364  -0.712   2.661  0.0823  0.1028 -1.8572
  877MOL0     H18356   7.295  -0.917   2.626  0.1160 -3.5150 -2.1766
  877MOL0     H18357   7.153  -0.938   2.704 -0.1984  1.6975  1.1383
  877MOL0     H18358   7.154  -0.958   2.528  2.2888 -1.3606  0.9176
  877MOL0     H18359   6.681  -0.907   2.507  1.7888  1.2020  0.7263
  877MOL0     H18360   6.436  -0.927   2.429 -3.3446  3.2960  0.0704
  877MOL0     H18361   6.378  -0.838   2.037 -1.4742 -0.6564 -1.0052
  877MOL0     H18362   6.222  -0.908   2.075 -1.0880  0.1558 -0.0956
  877MOL0     H18363   6.123  -0.700   2.068  0.1828  0.9415 -3.6579
  877MOL0     H18364   6.262  -0.613   2.119  2.1043  0.1208 -0.1080
  877MOL0     H18365   6.188  -0.578   1.877  0.4265 -0.5457 -4.2654
  877MOL0     H18366   6.181  -0.743   1.855 -3.3216 -0.1242  3.3511
  877MOL0     H18367   6.427  -0.546   1.895  0.7934  0.2355  1.8437
  877MOL0     H18368   6.468  -0.714   1.900 -0.5960 -0.4916 -0.3664
  877MOL0     H18369   6.513  -0.628   1.688  0.1715 -0.9968 -1.6342
  877MOL0     H18370   6.345  -0.578   1.660  3.8146  2.2224 -0.8572
  877MOL0     H18371   6.467  -0.825   1.610  0.0323  0.5262 -1.5064
  877MOL0     H18372   6.364  -0.867   1.733  0.1211 -0.0116 -0.1293
  877MOL0     H18373   6.333  -0.718   1.464 -2.6326  4.8118  0.6028
  877MOL0     H18374   6.197  -0.711   1.569  0.9195 -0.4947  1.1080
  877MOL0     H18375   6.144  -0.940   1.574 -0.9631 -1.4848 -1.3897
  877MOL0     H18376   6.300  -0.981   1.480  1.6577  1.2952 -1.4791
  877MOL0     H18377   6.498  -0.639   2.125  0.0065 -0.8932 -0.0917
  877MOL0     H18378   6.709  -0.564   2.244  0.0756 -0.3931  1.8374
  877MOL0     H18379   6.962  -0.480   2.515  1.1523 -0.2878 -1.9725
  877MOL0     H18380   7.156  -0.353   2.562 -1.8213 -0.3430  1.9974
  877MOL0     H18381   6.850   0.697   2.135  0.6803  1.1686 -1.4000
  877MOL0     H18382   6.623   0.761   2.076  3.0023 -3.3701  0.4715
  877MOL0     H18383   6.137   0.739   2.152 -1.3039 -1.0906 -3.3185
  877MOL0     H18384   5.910   0.826   2.109  0.0141 -0.4218  0.9535
  877MOL0     H18385   5.810   0.920   1.934  1.0421  0.6468  1.1579
  877MOL0     H18386   5.671   1.001   1.996 -0.6564  0.4943 -0.4869
  877MOL0     H18387   5.869   1.128   1.795  1.0570 -1.4408  0.8610
  877MOL0     H18388   5.733   1.209   1.883 -2.1571 -1.0498  0.0367
  877MOL0     H18389   5.575   1.041   1.791  0.9218  0.2473  1.7920
  877MOL0     H18390   5.704   0.966   1.695  0.2423 -0.3601 -0.1011
  877MOL0     H18391   5.775   1.206   1.622  0.5438 -4.7772 -2.4768
  877MOL0     H18392   5.620   1.266   1.677 -0.5080 -0.1226  2.0841
  877MOL0     H18393   5.518   1.088   1.312 -0.3989  1.1448 -0.8893
  877MOL0     H18394   6.060   1.213   2.077 -4.7945 -1.4622 -1.5492
  877MOL0     H18395   6.303   1.134   2.118 -2.1787  2.6388 -0.5069
  878MOL0     O18396   5.698   2.284  11.428  1.3455  0.0738  0.5140
  878MOL0     C18397   5.716   2.221  11.322 -0.6281 -0.3051 -0.7081
  878MOL0     O18398   5.628   2.194  11.225 -0.0290  0.4273  0.7615
  878MOL0     C18399   5.515   2.270  11.226  0.0714  0.0362 -0.7108
  878MOL0     C18400   5.523   2.402  11.179  0.1041  0.2404 -0.6748
  878MOL0     C18401   5.411   2.484  11.187  0.0460  0.2124 -0.0719
  878MOL0     C18402   5.286   2.436  11.241  0.3509  1.0422  0.5012
  878MOL0     O18403   5.175   2.511  11.254 -0.5001  0.3273 -1.1418
  878MOL0     C18404   5.177   2.654  11.248 -0.0524 -1.1112 -0.3463
  878MOL0     C18405   5.049   2.697  11.312 -0.2540  0.0830 -0.0877
  878MOL0     C18406   5.043   2.667  11.470 -0.0410  0.7716 -0.1951
  878MOL0     C18407   4.912   2.702  11.543  0.1205 -0.1845  0.0238
  878MOL0     C18408   4.899   2.669  11.687  0.1629 -0.0195  0.5822
  878MOL0     C18409   4.767   2.729  11.741 -0.2231 -0.9215 -0.3894
  878MOL0     C18410   4.754   2.696  11.890 -0.3350 -0.8203 -0.1828
  878MOL0     C18411   4.647   2.780  11.960 -0.6055  0.1363 -0.0651
  878MOL0     N18412   4.512   2.750  11.909  0.6034  0.4003 -1.3972
  878MOL0     C18413   4.454   2.799  11.796  0.0202 -0.5797 -0.0107
  878MOL0     C18414   4.337   2.732  11.775 -0.8735  0.2852  0.2875
  878MOL0     C18415   4.252   2.759  11.656  0.0583 -0.6211 -0.0328
  878MOL0     C18416   4.270   2.658  11.543  0.0120  0.1106  0.8899
  878MOL0     C18417   4.250   2.712  11.398  0.4591  1.0921 -1.2643
  878MOL0     C18418   4.235   2.593  11.298 -0.3648  0.1714 -0.5189
  878MOL0     O18419   4.168   2.651  11.183 -0.1418  0.8258 -0.4613
  878MOL0     C18420   4.121   2.570  11.089  0.0166 -0.4584 -0.3353
  878MOL0     C18421   4.017   2.623  11.012 -0.3568  0.4743 -0.4088
  878MOL0     C18422   3.954   2.545  10.905 -0.3375  0.3466 -0.0396
  878MOL0     C18423   3.868   2.619  10.805 -0.3587  0.0109 -0.2144
  878MOL0     C18424   4.006   2.415  10.884 -0.5403  0.3328 -0.2399
  878MOL0     C18425   3.945   2.320  10.792  0.1510 -0.6240  0.0627
  878MOL0     O18426   3.812   2.340  10.758  0.1863 -0.3501 -0.4830
  878MOL0     C18427   3.744   2.255  10.679  0.3016  0.9530  0.0585
  878MOL0     C18428   3.727   2.114  10.699 -0.8096 -0.5616  0.5398
  878MOL0     C18429   3.662   2.032  10.604  0.7795  0.2551 -0.3080
  878MOL0     C18430   3.607   2.086  10.486  0.1973 -0.0007  0.5641
  878MOL0     O18431   3.570   2.009  10.383  0.4043  0.2772 -0.1854
  878MOL0     C18432   3.618   1.871  10.385 -0.4961 -0.0802  0.1825
  878MOL0     C18433   3.566   1.806  10.249  0.3459  0.4046  0.4127
  878MOL0     C18434   3.412   1.787  10.265  1.1969  0.2115  0.7037
  878MOL0     C18435   3.336   1.724  10.147 -0.6833 -1.0740  0.9008
  878MOL0     C18436   3.180   1.731  10.142  0.3105  0.5113 -0.6068
  878MOL0     C18437   3.124   1.654  10.254 -1.0883 -0.3832 -0.1682
  878MOL0     C18438   2.976   1.628  10.247  0.1873 -0.2713  0.4388
  878MOL0     C18439   2.940   1.561  10.378  0.2378  1.1353 -0.0093
  878MOL0    Cl18440   2.763   1.515  10.367 -0.3592 -0.0197  0.3944
  878MOL0     C18441   3.603   2.229  10.471 -0.3987  0.7599 -0.5518
  878MOL0     C18442   3.676   2.306  10.571  0.0073  0.4065  0.5929
  878MOL0     O18443   4.011   2.227  10.755 -0.4252 -0.1225 -0.6337
  878MOL0     C18444   4.115   2.364  10.962  1.3632 -0.1907  0.1873
  878MOL0     C18445   4.175   2.445  11.054  0.4654 -0.0598 -0.5702
  878MOL0     N18446   4.342   2.623  11.862 -0.0583  0.5478 -0.0259
  878MOL0     N18447   4.444   2.639  11.946  0.8392  0.6751 -0.0719
  878MOL0     C18448   5.284   2.300  11.275 -0.2524 -0.3111 -0.6979
  878MOL0     C18449   5.394   2.216  11.273 -0.5441 -0.5350  0.5970
  878MOL0     C18450   5.847   2.162  11.286  0.2118  0.1488 -0.1813
  878MOL0     C18451   5.881   2.144  11.151  0.3115  0.7065 -0.4999
  878MOL0     C18452   6.007   2.097  11.130  0.0585 -0.2017 -0.2241
  878MOL0     C18453   6.092   2.049  11.231 -0.9980  0.1471  0.2451
  878MOL0     O18454   6.203   1.984  11.174  0.6788  0.2182 -0.1517
  878MOL0     C18455   6.279   1.898  11.264 -0.0535  0.6967  0.0357
  878MOL0     C18456   6.336   1.775  11.191  0.5654  0.7877 -0.1529
  878MOL0     C18457   6.303   1.631  11.255 -0.6291 -0.5528  0.1040
  878MOL0     C18458   6.344   1.519  11.164  0.0601 -0.1613  0.3607
  878MOL0     C18459   6.491   1.492  11.160  0.3938  0.4697 -0.0354
  878MOL0     C18460   6.606   1.460  11.152 -0.3725  0.3673  0.5254
  878MOL0     C18461   6.062   2.067  11.364  0.2532 -0.1812  0.3191
  878MOL0     C18462   5.933   2.112  11.388 -0.7916  0.9368 -0.0182
  878MOL0     H18463   5.619   2.448  11.160 -0.2705  1.4531  0.2190
  878MOL0     H18464   5.418   2.590  11.165 -0.8856  0.2179 -0.3879
  878MOL0     H18465   5.264   2.689  11.303 -0.0654 -0.6595 -0.6036
  878MOL0     H18466   5.184   2.695  11.147 -1.8241 -0.0997 -0.0940
  878MOL0     H18467   5.045   2.806  11.300 -2.2784 -0.1046 -1.7249
  878MOL0     H18468   4.966   2.645  11.263  1.2923 -1.2117 -1.4060
  878MOL0     H18469   5.062   2.560  11.468  0.3377  0.8168  0.5194
  878MOL0     H18470   5.127   2.716  11.520  0.6281 -0.4786 -0.0603
  878MOL0     H18471   4.908   2.810  11.529  0.2177 -0.3560 -1.4801
  878MOL0     H18472   4.826   2.653  11.496  1.7534 -4.5593  1.0881
  878MOL0     H18473   4.919   2.561  11.683 -2.9766 -0.7069 -3.1567
  878MOL0     H18474   4.980   2.723  11.736 -0.6138  4.8070 -2.7627
  878MOL0     H18475   4.792   2.835  11.749 -0.5199 -1.0068  2.2716
  878MOL0     H18476   4.679   2.732  11.675  0.5894  1.7778 -1.5211
  878MOL0     H18477   4.726   2.591  11.888  1.3493 -1.5241  4.0958
  878MOL0     H18478   4.852   2.713  11.935 -1.1640  0.2728  1.3357
  878MOL0     H18479   4.668   2.886  11.942  1.6105 -0.5558 -2.0050
  878MOL0     H18480   4.649   2.765  12.068 -1.8873  2.5477  0.3549
  878MOL0     H18481   4.494   2.884  11.742 -2.5067 -0.5406 -2.0540
  878MOL0     H18482   4.151   2.766  11.695 -1.2531  2.9807 -3.4118
  878MOL0     H18483   4.269   2.861  11.621 -1.5125 -0.6330 -0.8882
  878MOL0     H18484   4.196   2.580  11.561  1.4291 -0.8704  2.7855
  878MOL0     H18485   4.362   2.600  11.546 -0.0692 -0.0270  0.7484
  878MOL0     H18486   4.331   2.781  11.374  1.8340  0.8014  2.0935
  878MOL0     H18487   4.156   2.768  11.398  0.6210  1.4512  1.0831
  878MOL0     H18488   4.174   2.515  11.345 -1.0144  1.5125  0.9703
  878MOL0     H18489   4.333   2.566  11.258  0.5126  0.6783  1.2106
  878MOL0     H18490   3.988   2.724  11.037 -0.4860  0.0036  1.5049
  878MOL0     H18491   3.889   2.726  10.808 -0.5250  0.0740 -1.0055
  878MOL0     H18492   3.884   2.590  10.700  2.1187  1.5424 -0.3246
  878MOL0     H18493   3.761   2.617  10.829  0.5032  1.1303  4.6089
  878MOL0     H18494   3.780   2.071  10.784  1.5556  0.6057 -0.2531
  878MOL0     H18495   3.642   1.928  10.627 -0.5916  1.0115  2.4561
  878MOL0     H18496   3.727   1.868  10.390 -0.3486  2.9537  0.4058
  878MOL0     H18497   3.571   1.817  10.468 -2.1324 -0.7843 -1.1343
  878MOL0     H18498   3.583   1.878  10.168  1.4408 -0.4543 -0.1465
  878MOL0     H18499   3.598   1.703  10.233 -1.1515 -0.0248  0.0635
  878MOL0     H18500   3.363   1.883  10.285 -2.0427 -1.5724  2.1208
  878MOL0     H18501   3.392   1.721  10.350 -2.6722 -1.2296 -1.1184
  878MOL0     H18502   3.366   1.780  10.058 -2.1878  0.0836  1.0808
  878MOL0     H18503   3.357   1.617  10.139  1.2206 -0.8023  1.7882
  878MOL0     H18504   3.150   1.689  10.045 -1.5300  3.0426 -1.2500
  878MOL0     H18505   3.145   1.834  10.153  4.2978  1.8673  1.3747
  878MOL0     H18506   3.179   1.559  10.252  0.5000  0.5188 -1.6801
  878MOL0     H18507   3.146   1.707  10.347 -0.6197  0.4573 -0.7448
  878MOL0     H18508   2.957   1.567  10.158  0.8207  0.9671 -0.5913
  878MOL0     H18509   2.916   1.720  10.245 -2.5374 -1.9150 -0.6955
  878MOL0     H18510   2.959   1.616  10.471  0.5629 -1.7209  1.7353
  878MOL0     H18511   2.997   1.468  10.384 -0.5264  0.6697  0.1622
  878MOL0     H18512   3.563   2.282  10.386  1.1868  2.8611 -0.0677
  878MOL0     H18513   3.682   2.409  10.539  0.2053 -0.4141 -2.2689
  878MOL0     H18514   4.157   2.265  10.947 -1.3465 -1.0773 -2.4750
  878MOL0     H18515   4.253   2.414  11.124  1.0177 -0.7547 -1.4767
  878MOL0     H18516   5.188   2.262  11.306  0.4080  1.4652  4.5845
  878MOL0     H18517   5.376   2.114  11.307 -0.1281 -1.1363 -0.9135
  878MOL0     H18518   5.814   2.170  11.070 -1.4137 -1.4380  0.1419
  878MOL0     H18519   6.051   2.088  11.031  1.3171 -0.4392  0.3382
  878MOL0     H18520   6.363   1.955  11.305  1.3191  0.6390 -2.4778
  878MOL0     H18521   6.224   1.862  11.352 -3.0629 -1.0530 -2.3292
  878MOL0     H18522   6.444   1.788  11.178  0.7033 -1.1667 -1.3080
  878MOL0     H18523   6.289   1.761  11.093  0.6846  2.8734 -0.5537
  878MOL0     H18524   6.197   1.628  11.282 -1.4634  2.3487 -2.2346
  878MOL0     H18525   6.373   1.621  11.338  0.7941  0.0634 -0.9799
  878MOL0     H18526   6.319   1.531  11.058  1.0528  1.8719  0.3056
  878MOL0     H18527   6.294   1.431  11.206  0.4431  0.3404  1.9398
  878MOL0     H18528   6.707   1.433  11.133 -1.1885 -2.6820  0.0355
  878MOL0     H18529   6.119   2.034  11.450  0.7913  0.8258  0.3702
  878MOL0     H18530   5.899   2.110  11.491  1.2600  1.9688  0.7224
  879MOL0     O18531   8.534   8.080   7.092  0.2012  0.5816  0.0718
  879MOL0     C18532   8.628   8.029   7.042 -0.1733 -0.2979  0.4508
  879MOL0     O18533   8.625   7.918   6.965  0.1808  0.4374 -0.6857
  879MOL0     C18534   8.508   7.837   6.941  0.1019 -0.3269 -0.3805
  879MOL0     C18535   8.369   7.870   6.954  0.7397 -0.1101  0.3187
  879MOL0     C18536   8.264   7.787   6.904 -0.3530 -0.2264 -0.3304
  879MOL0     C18537   8.298   7.664   6.842 -0.2279 -0.2181  0.6537
  879MOL0     O18538   8.199   7.577   6.808  0.5726  0.1192 -0.3151
  879MOL0     C18539   8.218   7.471   6.710 -0.0041 -0.5951  0.3767
  879MOL0     C18540   8.087   7.396   6.673  0.7484  0.1176  0.2519
  879MOL0     C18541   8.020   7.331   6.794 -0.5947  0.1153  0.2056
  879MOL0     C18542   7.890   7.261   6.782  0.6522  0.8215 -0.1119
  879MOL0     C18543   7.847   7.173   6.902 -1.3807 -0.0232  0.3543
  879MOL0     C18544   7.900   7.023   6.901  0.1717 -0.5556  0.6413
  879MOL0     C18545   7.834   6.925   7.004 -0.6853  0.3504  0.3069
  879MOL0     C18546   7.907   6.917   7.139  0.4744  0.8118  0.2776
  879MOL0     N18547   7.897   7.038   7.215 -0.1420  0.7436  0.4970
  879MOL0     C18548   7.785   7.068   7.274  0.4211  0.5657 -0.2337
  879MOL0     C18549   7.800   7.190   7.322 -0.3252 -1.1527 -1.0455
  879MOL0     C18550   7.697   7.281   7.382 -0.1543 -0.2026  0.0683
  879MOL0     C18551   7.635   7.218   7.510 -0.1500  1.0423  0.7549
  879MOL0     C18552   7.731   7.212   7.640 -0.4848 -0.2494  0.8282
  879MOL0     C18553   7.669   7.125   7.751  0.1307  0.2542 -0.6822
  879MOL0     O18554   7.593   7.199   7.849  0.2362 -0.7720 -0.1195
  879MOL0     C18555   7.474   7.142   7.898  0.1387  0.2283  0.0296
  879MOL0     C18556   7.475   7.023   7.975 -0.5078  0.1920  0.0018
  879MOL0     C18557   7.356   6.968   8.023  0.3530  1.0839 -0.5408
  879MOL0     C18558   7.368   6.848   8.124 -0.9842 -0.0012 -0.3513
  879MOL0     C18559   7.238   7.039   7.994  0.8527  0.8193 -0.3056
  879MOL0     C18560   7.113   7.004   8.069 -0.7910 -0.6892  0.0557
  879MOL0     O18561   6.996   6.998   7.994 -0.1538 -0.1283  0.4358
  879MOL0     C18562   6.897   7.034   8.076 -0.1740  0.2323 -1.1712
  879MOL0     C18563   6.875   7.161   8.129 -1.2815 -0.3204 -0.4155
  879MOL0     C18564   6.763   7.192   8.210  0.4906 -0.7142  0.0432
  879MOL0     C18565   6.674   7.093   8.231  0.6537 -0.4356  0.2419
  879MOL0     O18566   6.559   7.113   8.305  0.6725 -0.8924 -0.3072
  879MOL0     C18567   6.498   7.002   8.378  0.3544  0.6075  0.1759
  879MOL0     C18568   6.424   7.033   8.500 -0.0080  0.3465  0.0638
  879MOL0     C18569   6.508   7.079   8.621  0.1781 -0.4123 -0.3384
  879MOL0     C18570   6.435   7.038   8.755  0.2725 -0.1684 -0.6750
  879MOL0     C18571   6.498   7.121   8.868  0.5196  0.7140 -0.4154
  879MOL0     C18572   6.437   7.078   9.003 -0.0525 -0.5746 -0.4902
  879MOL0     C18573   6.505   7.143   9.124 -0.4882  0.0052 -0.2566
  879MOL0     C18574   6.407   7.180   9.241 -0.1610 -0.5590  0.3186
  879MOL0    Cl18575   6.481   7.320   9.332  0.1955  0.0092 -0.0812
  879MOL0     C18576   6.688   6.969   8.163  0.1596  0.6536 -0.7876
  879MOL0     C18577   6.797   6.936   8.095 -0.0796 -0.6067 -0.3266
  879MOL0     O18578   7.118   6.994   8.194  0.5524 -1.3966 -0.0344
  879MOL0     C18579   7.244   7.153   7.920  0.7526  0.7604 -0.2134
  879MOL0     C18580   7.358   7.203   7.859 -0.4888  0.3277  0.1485
  879MOL0     N18581   7.931   7.228   7.299 -0.1565 -1.0759 -1.2652
  879MOL0     N18582   7.985   7.142   7.222  0.3896 -0.5347  0.1177
  879MOL0     C18583   8.435   7.637   6.821  1.2486  0.3795  0.7960
  879MOL0     C18584   8.532   7.720   6.870  0.2410  0.2865 -0.3946
  879MOL0     C18585   8.749   8.116   7.019  0.3461 -1.9102  0.4803
  879MOL0     C18586   8.746   8.258   7.054  0.0410 -0.5519 -0.1489
  879MOL0     C18587   8.867   8.333   7.058 -0.4021 -0.0740 -0.5535
  879MOL0     C18588   8.982   8.287   7.003 -0.0501  0.0625 -0.0944
  879MOL0     O18589   9.084   8.384   6.994  0.4439  0.0890  0.2587
  879MOL0     C18590   9.218   8.340   6.962 -0.2291  0.6954  0.2731
  879MOL0     C18591   9.296   8.470   6.978  0.3956  0.0860 -0.4127
  879MOL0     C18592   9.451   8.433   6.957  0.4208  0.8353  0.0569
  879MOL0     C18593   9.522   8.339   7.054 -0.0743  0.3247 -0.1203
  879MOL0     C18594   9.663   8.318   7.024  0.3616  1.4427 -0.0619
  879MOL0     C18595   9.775   8.289   6.994 -0.0187  0.4876  0.4874
  879MOL0     C18596   8.985   8.152   6.960 -0.2761 -0.5141  0.1549
  879MOL0     C18597   8.867   8.071   6.957 -0.4334 -1.0667 -0.2640
  879MOL0     H18598   8.348   7.945   7.030 -0.3866 -1.6490  1.5913
  879MOL0     H18599   8.160   7.809   6.928  0.0458  0.7122  0.5940
  879MOL0     H18600   8.268   7.513   6.623  1.2835 -2.9828 -0.1124
  879MOL0     H18601   8.289   7.404   6.759  1.1052  1.5984  1.9658
  879MOL0     H18602   8.009   7.461   6.634  0.9359 -0.9782 -2.1105
  879MOL0     H18603   8.098   7.311   6.605 -1.3292 -0.9831  1.1880
  879MOL0     H18604   8.085   7.252   6.832 -2.4667 -2.0598 -0.8829
  879MOL0     H18605   8.013   7.405   6.874 -1.5626 -0.4960  0.6927
  879MOL0     H18606   7.810   7.334   6.764  2.0147  1.7327 -3.1318
  879MOL0     H18607   7.888   7.198   6.693 -1.9126  0.7657 -0.0644
  879MOL0     H18608   7.866   7.218   7.000  2.1395  0.4385 -0.3919
  879MOL0     H18609   7.739   7.173   6.887 -1.8272 -1.8553  3.0403
  879MOL0     H18610   7.886   6.973   6.805  0.6543 -0.1771  0.3728
  879MOL0     H18611   8.008   7.021   6.922  0.1119  1.5888  1.3627
  879MOL0     H18612   7.733   6.957   7.032  0.7361  4.4407  1.4484
  879MOL0     H18613   7.834   6.830   6.950  1.9915  1.9537 -2.8434
  879MOL0     H18614   8.014   6.895   7.136  0.6394  1.6489 -0.8216
  879MOL0     H18615   7.865   6.833   7.196  0.9823  0.8813  0.7602
  879MOL0     H18616   7.692   7.014   7.270 -1.4328  3.5944 -1.6300
  879MOL0     H18617   7.734   7.379   7.416 -0.9661  0.0086  0.3709
  879MOL0     H18618   7.615   7.292   7.310 -1.4658 -1.6940  1.2718
  879MOL0     H18619   7.606   7.116   7.487 -1.1903  1.5983 -0.5116
  879MOL0     H18620   7.546   7.278   7.533 -0.6710  1.5811 -2.2454
  879MOL0     H18621   7.727   7.315   7.677  0.6653 -0.3766  1.3480
  879MOL0     H18622   7.836   7.195   7.614 -0.5011 -0.4180  0.8708
  879MOL0     H18623   7.744   7.068   7.807 -1.4280 -0.8692  0.3423
  879MOL0     H18624   7.613   7.041   7.708  2.3597 -1.4043 -0.5443
  879MOL0     H18625   7.566   6.989   8.023 -0.8027  1.2677  1.3907
  879MOL0     H18626   7.294   6.769   8.110 -0.0762 -1.2285  1.3831
  879MOL0     H18627   7.462   6.793   8.113 -1.1571 -0.0496 -1.7920
  879MOL0     H18628   7.368   6.884   8.227 -2.7510  2.6151 -1.1557
  879MOL0     H18629   6.955   7.233   8.109  3.2192 -3.9895  2.2698
  879MOL0     H18630   6.741   7.294   8.236 -0.4983 -0.5976 -1.1717
  879MOL0     H18631   6.418   6.956   8.320  0.6323 -1.1666  1.1452
  879MOL0     H18632   6.567   6.922   8.407 -0.3008  0.9941  3.1785
  879MOL0     H18633   6.338   7.096   8.476  0.4819  1.4776  1.2206
  879MOL0     H18634   6.375   6.938   8.526 -0.4596  0.3614 -0.6963
  879MOL0     H18635   6.522   7.187   8.619  1.2374 -0.4526  2.0006
  879MOL0     H18636   6.607   7.032   8.626 -0.5707 -2.3912 -2.3786
  879MOL0     H18637   6.328   7.062   8.755 -0.3246 -2.6276 -1.0563
  879MOL0     H18638   6.425   6.935   8.791 -2.4343  0.3463  0.3714
  879MOL0     H18639   6.478   7.225   8.844 -1.0308  0.2114 -1.4789
  879MOL0     H18640   6.605   7.101   8.874  0.0289 -2.5304 -0.4121
  879MOL0     H18641   6.334   7.116   9.005 -0.3815 -1.4432  0.6873
  879MOL0     H18642   6.427   6.970   9.017 -1.2707 -0.3186  0.8888
  879MOL0     H18643   6.534   7.241   9.084 -0.4459  0.7246  1.4359
  879MOL0     H18644   6.594   7.088   9.158  1.4399  1.6038 -2.3880
  879MOL0     H18645   6.379   7.098   9.307 -2.3858  0.9985  1.4179
  879MOL0     H18646   6.310   7.217   9.207 -0.3704 -1.3127  0.0674
  879MOL0     H18647   6.603   6.901   8.167 -1.6837  2.8372  2.2992
  879MOL0     H18648   6.815   6.841   8.047 -0.0274 -0.8164  0.1010
  879MOL0     H18649   7.149   7.202   7.904  1.5335  1.8866 -1.6424
  879MOL0     H18650   7.342   7.293   7.801 -3.4286  0.4056  0.8928
  879MOL0     H18651   8.458   7.548   6.763  2.2364  2.3535 -2.0527
  879MOL0     H18652   8.637   7.707   6.845  0.9372  1.7718  1.4901
  879MOL0     H18653   8.652   8.302   7.085 -0.3016  0.6300 -2.5854
  879MOL0     H18654   8.863   8.429   7.109  1.0062  0.7348 -1.8801
  879MOL0     H18655   9.262   8.268   7.032  1.7501  0.4706 -1.1006
  879MOL0     H18656   9.248   8.301   6.864 -0.0631  0.5535  0.3786
  879MOL0     H18657   9.277   8.523   7.072 -0.1710 -0.5988 -0.1354
  879MOL0     H18658   9.255   8.531   6.897  1.0767  0.0292 -0.8040
  879MOL0     H18659   9.516   8.520   6.938  1.6139 -0.1850 -0.7283
  879MOL0     H18660   9.457   8.372   6.866  3.0924 -0.5362  1.0230
  879MOL0     H18661   9.475   8.240   7.057  2.9189 -1.2435  2.8898
  879MOL0     H18662   9.505   8.383   7.153  0.5307 -3.8993  2.0974
  879MOL0     H18663   9.880   8.270   6.985  0.1378  1.7327 -0.5965
  879MOL0     H18664   9.070   8.109   6.907  0.9222  1.3903  0.4180
  879MOL0     H18665   8.863   7.973   6.910  3.9418 -1.0082 -1.1447
  880MOL0     O18666   4.190  10.260  10.731 -0.1430  0.3554 -1.2970
  880MOL0     C18667   4.279  10.200  10.788  0.8018 -1.0899 -0.0642
  880MOL0     O18668   4.342  10.094  10.733 -0.6172  0.3045 -0.4630
  880MOL0     C18669   4.300  10.055  10.610 -1.0485 -1.0279  0.3830
  880MOL0     C18670   4.201   9.971  10.581 -0.7960  0.3129  0.0388
  880MOL0     C18671   4.168   9.918  10.461 -0.2066  0.3772  0.5349
  880MOL0     C18672   4.252   9.952  10.351 -0.4558  0.3202 -0.5857
  880MOL0     O18673   4.233   9.890  10.232 -0.4374 -0.3355 -0.2705
  880MOL0     C18674   4.112   9.927  10.165 -0.2553 -1.1492  0.2841
  880MOL0     C18675   4.103  10.085  10.135  0.3195  0.1418 -0.1976
  880MOL0     C18676   4.013  10.129  10.011  0.2113 -0.4588 -0.7173
  880MOL0     C18677   3.882  10.064  10.007 -1.0674  0.7718 -0.9163
  880MOL0     C18678   3.794  10.104   9.896 -0.7452  0.2228  0.1961
  880MOL0     C18679   3.860  10.104   9.752 -0.6906 -0.9798 -0.2069
  880MOL0     C18680   3.742  10.126   9.642 -0.2731  0.2943 -0.3648
  880MOL0     C18681   3.707  10.261   9.589  0.1440 -0.6659  0.0531
  880MOL0     N18682   3.618  10.276   9.471  0.7281  0.8856 -0.3691
  880MOL0     C18683   3.671  10.302   9.348  0.2831 -0.2594 -0.4016
  880MOL0     C18684   3.569  10.325   9.266  0.2598 -0.6370 -0.0012
  880MOL0     C18685   3.580  10.358   9.122  0.4592 -0.5187 -0.0442
  880MOL0     C18686   3.599  10.511   9.097  0.0512 -0.0901  0.6165
  880MOL0     C18687   3.458  10.586   9.083  0.2117  0.7415 -0.5027
  880MOL0     C18688   3.465  10.716   9.018 -0.9277 -1.2548  0.1423
  880MOL0     O18689   3.495  10.817   9.125 -0.3159 -0.2795 -0.0298
  880MOL0     C18690   3.631  10.827   9.139 -0.3960 -0.6244 -0.8161
  880MOL0     C18691   3.677  10.854   9.271  0.0294  0.0108 -0.1912
  880MOL0     C18692   3.815  10.854   9.307 -1.2448 -0.2310 -0.4971
  880MOL0     C18693   3.859  10.870   9.445 -0.3073 -0.2581  0.5427
  880MOL0     C18694   3.914  10.845   9.207  0.8713  0.4850  0.4165
  880MOL0     C18695   4.063  10.857   9.217 -0.1418  0.0540 -0.5882
  880MOL0     O18696   4.123  10.963   9.153  0.1533 -0.9864 -0.0886
  880MOL0     C18697   4.250  11.004   9.172  0.0483 -0.0419 -0.5415
  880MOL0     C18698   4.348  10.948   9.099  0.2811  0.6198  0.0010
  880MOL0     C18699   4.478  10.980   9.137 -0.4028 -0.2187  0.3678
  880MOL0     C18700   4.510  11.060   9.245 -1.5630 -0.0284 -1.1502
  880MOL0     O18701   4.644  11.092   9.248 -0.5966  0.8128 -0.2762
  880MOL0     C18702   4.701  11.189   9.334  0.4904  0.0899  0.6520
  880MOL0     C18703   4.852  11.177   9.329  0.3315 -0.1334  0.2049
  880MOL0     C18704   4.889  11.034   9.377 -0.6717  0.2338  0.6519
  880MOL0     C18705   5.039  11.018   9.362  0.7352 -0.4858 -0.2023
  880MOL0     C18706   5.088  10.878   9.406 -0.0611  0.2492  0.9048
  880MOL0     C18707   5.235  10.861   9.382 -0.2942 -0.7509  0.2646
  880MOL0     C18708   5.315  10.936   9.496  1.1409 -0.1842 -0.3831
  880MOL0     C18709   5.459  10.889   9.503  0.4391  0.4396 -0.1942
  880MOL0    Cl18710   5.576  10.895   9.364  0.0248 -0.3347  0.2211
  880MOL0     C18711   4.414  11.130   9.323 -1.1441  1.9714  0.5018
  880MOL0     C18712   4.283  11.102   9.281  0.3180  0.1144  0.6431
  880MOL0     O18713   4.123  10.780   9.293  0.3879  0.0137  0.3222
  880MOL0     C18714   3.864  10.842   9.076 -0.7723  0.1009 -0.4095
  880MOL0     C18715   3.731  10.837   9.042  0.0054  0.1641 -0.2700
  880MOL0     N18716   3.453  10.314   9.341  0.7116  0.5160  0.5740
  880MOL0     N18717   3.480  10.292   9.462 -0.4221  0.4614 -0.3283
  880MOL0     C18718   4.355  10.042  10.376 -0.9412  0.4496  0.1953
  880MOL0     C18719   4.378  10.098  10.500  0.6638  0.3165  0.0633
  880MOL0     C18720   4.307  10.239  10.931  0.2479  0.2029  0.5834
  880MOL0     C18721   4.221  10.328  11.001  0.5740  0.6249  0.3340
  880MOL0     C18722   4.245  10.353  11.137 -0.4553 -0.2551  0.3803
  880MOL0     C18723   4.362  10.297  11.201  0.4723  0.1596 -0.3289
  880MOL0     O18724   4.392  10.295  11.331  0.4094 -0.4457 -0.3104
  880MOL0     C18725   4.305  10.361  11.420  0.6655 -0.7420  0.6481
  880MOL0     C18726   4.382  10.378  11.560  0.2609 -0.2892  0.5348
  880MOL0     C18727   4.320  10.475  11.659  0.0403 -0.6590  0.7767
  880MOL0     C18728   4.384  10.458  11.799  0.1565 -1.1443  0.2411
  880MOL0     C18729   4.492  10.549  11.826 -0.1156 -0.8425  0.1656
  880MOL0     C18730   4.585  10.630  11.854 -0.1362 -0.6662 -0.1456
  880MOL0     C18731   4.454  10.226  11.128 -0.2402 -0.1614  0.1051
  880MOL0     C18732   4.424  10.197  10.994  0.4771 -0.0110  0.2608
  880MOL0     H18733   4.136   9.934  10.659 -0.5377 -2.0160 -0.7510
  880MOL0     H18734   4.088   9.851  10.430 -0.1501  0.1073  0.9684
  880MOL0     H18735   4.113   9.879  10.067 -1.6041  2.6707 -1.7974
  880MOL0     H18736   4.021   9.893  10.215 -2.6009  1.5865 -1.8068
  880MOL0     H18737   4.061  10.138  10.220 -0.5426  2.7483 -2.1091
  880MOL0     H18738   4.207  10.115  10.119  0.9207 -1.9471 -0.4771
  880MOL0     H18739   4.005  10.238  10.017 -1.1710 -0.4956 -1.4876
  880MOL0     H18740   4.061  10.101   9.916 -1.3905 -4.2342 -0.5983
  880MOL0     H18741   3.895   9.955  10.003  0.6179  0.9307 -0.5504
  880MOL0     H18742   3.826  10.085  10.099 -0.3235  0.3596 -0.3618
  880MOL0     H18743   3.703  10.044   9.893  0.4222 -1.6236 -0.6350
  880MOL0     H18744   3.759  10.205   9.920  1.2734  0.7913  0.9502
  880MOL0     H18745   3.939  10.179   9.748 -1.3428 -0.1284  1.5936
  880MOL0     H18746   3.906  10.008   9.728  0.2653 -1.0087  1.5916
  880MOL0     H18747   3.769  10.074   9.550  0.0515 -0.0796 -0.0665
  880MOL0     H18748   3.656  10.071   9.682  0.3639 -1.2855 -1.0645
  880MOL0     H18749   3.787  10.330   9.560 -2.9669  1.4242 -4.7248
  880MOL0     H18750   3.661  10.314   9.672 -1.6841  1.2304 -2.0220
  880MOL0     H18751   3.775  10.297   9.318  0.5533 -1.6273  0.6846
  880MOL0     H18752   3.666  10.310   9.072 -0.0596  1.4927 -3.1527
  880MOL0     H18753   3.494  10.316   9.068  1.1360  0.1415 -1.7252
  880MOL0     H18754   3.653  10.524   9.003 -0.5622  0.6633  0.3679
  880MOL0     H18755   3.669  10.558   9.166  1.0006 -0.2418 -0.2236
  880MOL0     H18756   3.413  10.608   9.181  1.1377  0.5769 -0.0344
  880MOL0     H18757   3.382  10.530   9.027 -1.6963  1.6994  1.0025
  880MOL0     H18758   3.365  10.744   8.982 -1.5760 -0.6203  2.3160
  880MOL0     H18759   3.532  10.718   8.931  0.4210  0.0207  1.1694
  880MOL0     H18760   3.604  10.859   9.351  1.6036 -0.6241  1.3471
  880MOL0     H18761   3.770  10.892   9.505 -2.1424  1.3487 -2.5563
  880MOL0     H18762   3.912  10.777   9.468  0.2811 -0.1377 -0.3001
  880MOL0     H18763   3.920  10.959   9.463 -0.4828  0.1181 -0.6468
  880MOL0     H18764   4.318  10.872   9.027 -0.8798 -0.4039  1.4939
  880MOL0     H18765   4.546  10.958   9.055 -0.5142  0.6897  0.0155
  880MOL0     H18766   4.665  11.289   9.307  1.7464  0.3438 -0.1699
  880MOL0     H18767   4.656  11.175   9.432  1.6810 -1.6676  0.9967
  880MOL0     H18768   4.895  11.195   9.230  2.9986  0.4415  1.3936
  880MOL0     H18769   4.889  11.257   9.394  0.9546 -0.7976  0.6754
  880MOL0     H18770   4.845  10.951   9.321 -0.6961 -1.0655  2.4977
  880MOL0     H18771   4.869  11.047   9.484  0.3311  2.1758  0.6402
  880MOL0     H18772   5.059  11.043   9.257 -0.2424  0.9447 -0.0828
  880MOL0     H18773   5.078  11.096   9.427 -1.2568  1.1075 -0.8118
  880MOL0     H18774   5.048  10.792   9.351  1.5730 -0.1833  0.3413
  880MOL0     H18775   5.066  10.858   9.512 -2.1521  2.9023  1.0825
  880MOL0     H18776   5.260  10.755   9.375  3.6181  0.1187 -1.8730
  880MOL0     H18777   5.258  10.907   9.285  2.1102  3.0485  2.3763
  880MOL0     H18778   5.266  10.928   9.594 -1.4220 -0.1174 -1.5675
  880MOL0     H18779   5.315  11.042   9.470  1.0020 -0.6299 -2.3490
  880MOL0     H18780   5.455  10.781   9.523  2.2421  0.0337 -1.6770
  880MOL0     H18781   5.497  10.933   9.596  2.2827 -0.5808 -0.4094
  880MOL0     H18782   4.440  11.187   9.411  2.2844 -0.8263  1.5281
  880MOL0     H18783   4.202  11.135   9.345  0.7050  0.7005  0.8381
  880MOL0     H18784   3.941  10.852   9.000  0.1568 -0.9441  0.3758
  880MOL0     H18785   3.695  10.835   8.939 -1.2867  1.1186  0.1314
  880MOL0     H18786   4.417  10.083  10.297  0.6040 -0.0479  1.1096
  880MOL0     H18787   4.462  10.167  10.503  0.2921  0.7498  0.9332
  880MOL0     H18788   4.125  10.358  10.960 -0.5725 -4.6038 -1.6030
  880MOL0     H18789   4.186  10.432  11.184  2.4564  2.5935 -0.4190
  880MOL0     H18790   4.273  10.460  11.385  1.3376  0.3691  2.9625
  880MOL0     H18791   4.223  10.290  11.432 -0.2207 -0.0853 -1.1164
  880MOL0     H18792   4.489  10.393  11.540  0.4396 -1.6324  0.4008
  880MOL0     H18793   4.374  10.279  11.605 -1.4364 -0.2470  0.3901
  880MOL0     H18794   4.218  10.440  11.676  0.6286 -2.3151  1.1576
  880MOL0     H18795   4.325  10.581  11.634  1.0613  0.0713  3.6676
  880MOL0     H18796   4.422  10.356  11.812  0.4862 -1.2070 -1.0885
  880MOL0     H18797   4.309  10.476  11.876  0.1419  0.8878 -0.1862
  880MOL0     H18798   4.664  10.696  11.885  0.1259 -0.5048 -1.1383
  880MOL0     H18799   4.541  10.181  11.176 -0.6283  0.1005  1.0723
  880MOL0     H18800   4.506  10.150  10.940 -0.1472  1.5650 -2.2168
  881MOL0     O18801   7.407   5.122   4.138  0.3212  0.2041 -0.2597
  881MOL0     C18802   7.516   5.168   4.155  0.7267  0.0717  0.8753
  881MOL0     O18803   7.638   5.110   4.161  0.0470 -0.3377  0.9703
  881MOL0     C18804   7.642   4.969   4.145  0.2165 -0.3667 -0.5093
  881MOL0     C18805   7.719   4.923   4.039  0.4850 -0.2496 -0.7896
  881MOL0     C18806   7.731   4.787   4.032  0.0999  0.6072  0.0735
  881MOL0     C18807   7.655   4.692   4.108 -1.2014 -0.3021  0.0256
  881MOL0     O18808   7.645   4.556   4.099  0.2514  0.1091 -0.2514
  881MOL0     C18809   7.729   4.492   3.999  0.7891  0.1044  0.5367
  881MOL0     C18810   7.691   4.341   4.022  0.7528  0.7326  0.8333
  881MOL0     C18811   7.555   4.316   3.956  0.3570  0.0553 -0.1357
  881MOL0     C18812   7.506   4.178   3.957 -0.0882  0.2190 -0.2387
  881MOL0     C18813   7.593   4.078   3.868 -1.2033 -0.6668 -0.5079
  881MOL0     C18814   7.496   3.964   3.824 -0.5142 -0.0700 -0.1283
  881MOL0     C18815   7.559   3.848   3.749 -0.7535 -0.1152 -0.0116
  881MOL0     C18816   7.624   3.880   3.617  0.1898 -0.0016  0.8070
  881MOL0     N18817   7.676   3.761   3.540  0.8781  0.1634 -1.1242
  881MOL0     C18818   7.777   3.757   3.456 -0.6192  0.0368  0.7556
  881MOL0     C18819   7.754   3.647   3.380  0.2964 -0.1509 -0.5378
  881MOL0     C18820   7.831   3.599   3.260  0.9398 -0.2550 -0.4546
  881MOL0     C18821   7.978   3.565   3.286 -0.9423 -0.3000  0.1601
  881MOL0     C18822   8.063   3.559   3.162 -0.3722 -0.1114 -0.2320
  881MOL0     C18823   8.017   3.478   3.042 -0.1191  0.0829 -0.2855
  881MOL0     O18824   8.021   3.346   3.089 -0.7571  0.4067 -0.0825
  881MOL0     C18825   7.957   3.245   3.022 -0.2985  0.3375 -0.3568
  881MOL0     C18826   7.867   3.264   2.912  0.3516  0.0815  0.8335
  881MOL0     C18827   7.797   3.156   2.851 -0.7394 -0.7118  0.2703
  881MOL0     C18828   7.707   3.175   2.729  0.9058 -0.2436 -0.0184
  881MOL0     C18829   7.813   3.029   2.920  0.5127 -0.2828 -0.0002
  881MOL0     C18830   7.752   2.911   2.860  0.0876 -0.4410  0.5738
  881MOL0     O18831   7.671   2.826   2.938  0.2831  0.3392 -0.2281
  881MOL0     C18832   7.618   2.725   2.869 -0.0549 -0.1013  0.5280
  881MOL0     C18833   7.491   2.748   2.818  0.7190  0.0928 -0.3027
  881MOL0     C18834   7.425   2.645   2.745 -0.1430  0.1861  0.3163
  881MOL0     C18835   7.483   2.515   2.719 -0.5462 -0.1113  0.0467
  881MOL0     O18836   7.437   2.421   2.635 -0.8110  0.3555 -0.3235
  881MOL0     C18837   7.295   2.406   2.622  0.1129  0.1801 -1.1360
  881MOL0     C18838   7.247   2.448   2.484 -0.0035  0.5345  0.0796
  881MOL0     C18839   7.096   2.436   2.467  0.7884  0.1374  0.4112
  881MOL0     C18840   7.052   2.418   2.319 -0.8107  0.6026  0.2504
  881MOL0     C18841   6.908   2.357   2.300 -0.8219 -0.7988 -0.2227
  881MOL0     C18842   6.924   2.205   2.329  0.8136  1.0135  0.5839
  881MOL0     C18843   6.799   2.139   2.382  0.3965 -0.0246  0.7237
  881MOL0     C18844   6.673   2.139   2.295 -0.6514  0.0657 -0.3860
  881MOL0    Cl18845   6.718   2.070   2.143  0.0450 -0.1671 -0.0510
  881MOL0     C18846   7.613   2.492   2.776  0.2195 -0.2666 -0.2857
  881MOL0     C18847   7.678   2.592   2.848 -0.0469  0.1963 -0.5525
  881MOL0     O18848   7.784   2.886   2.744 -0.6909 -0.0306  0.1936
  881MOL0     C18849   7.893   3.009   3.035  1.4479  1.1565  0.1589
  881MOL0     C18850   7.968   3.119   3.078  0.5798 -0.2996 -0.1487
  881MOL0     N18851   7.643   3.582   3.424  0.0045 -0.1034 -0.2639
  881MOL0     N18852   7.603   3.644   3.530  0.5894 -0.1381 -0.3020
  881MOL0     C18853   7.570   4.747   4.203  0.2756 -0.4936 -0.8259
  881MOL0     C18854   7.569   4.885   4.232 -0.3555 -0.2542 -0.5851
  881MOL0     C18855   7.513   5.314   4.159 -0.0880 -0.4215  0.1904
  881MOL0     C18856   7.632   5.383   4.191  0.5541  0.5454  0.1263
  881MOL0     C18857   7.640   5.521   4.179 -0.8451  0.3139  0.1812
  881MOL0     C18858   7.530   5.593   4.147  0.4735  0.0183 -0.1491
  881MOL0     O18859   7.543   5.733   4.131  0.8774 -0.0127  0.3281
  881MOL0     C18860   7.608   5.805   4.236 -0.9114 -0.6507  0.2322
  881MOL0     C18861   7.572   5.958   4.235  0.2424  0.7150 -0.1496
  881MOL0     C18862   7.420   5.985   4.251 -0.3902  0.1862 -1.1036
  881MOL0     C18863   7.375   6.126   4.208 -0.2405  0.2243  0.8419
  881MOL0     C18864   7.248   6.151   4.276  0.6715  0.2835 -0.3005
  881MOL0     C18865   7.142   6.173   4.333 -0.6737  0.2814  0.0945
  881MOL0     C18866   7.402   5.529   4.120  0.6505  0.1449 -0.2974
  881MOL0     C18867   7.397   5.394   4.126 -0.3295 -0.0261  0.0124
  881MOL0     H18868   7.777   4.995   3.982  0.7356  0.1938  0.0180
  881MOL0     H18869   7.811   4.752   3.967 -0.9067  2.1669 -2.1288
  881MOL0     H18870   7.711   4.534   3.900 -0.8284  1.8261  1.4802
  881MOL0     H18871   7.835   4.498   4.025  0.2493  0.7973  2.9147
  881MOL0     H18872   7.769   4.284   3.969 -0.6510  0.3009 -0.8622
  881MOL0     H18873   7.686   4.304   4.124  0.0751 -2.1873 -0.1544
  881MOL0     H18874   7.480   4.373   4.011  0.7503 -0.4865  1.0039
  881MOL0     H18875   7.558   4.341   3.850  0.0309 -2.3236 -0.7773
  881MOL0     H18876   7.494   4.135   4.056 -1.0433  1.1290  0.0544
  881MOL0     H18877   7.403   4.180   3.919 -0.3750 -1.6730  0.3370
  881MOL0     H18878   7.639   4.121   3.779  1.8711 -2.4902  0.0599
  881MOL0     H18879   7.679   4.038   3.921 -0.8162 -3.6153 -3.1208
  881MOL0     H18880   7.452   3.924   3.916 -4.5067 -4.3033 -3.3356
  881MOL0     H18881   7.410   4.007   3.772 -0.8060 -2.1083 -1.4892
  881MOL0     H18882   7.628   3.813   3.826 -0.3985  0.6523  0.0256
  881MOL0     H18883   7.482   3.772   3.730 -2.1977  0.4280  3.0443
  881MOL0     H18884   7.707   3.951   3.627  1.3940 -0.6520 -2.8477
  881MOL0     H18885   7.556   3.944   3.560 -1.7831 -0.8530  2.0792
  881MOL0     H18886   7.844   3.839   3.434 -2.4632  1.8056  1.3739
  881MOL0     H18887   7.777   3.518   3.210 -2.4766  0.2549  2.0854
  881MOL0     H18888   7.833   3.681   3.188  2.2833  0.9768  0.9193
  881MOL0     H18889   7.988   3.469   3.337 -0.3400  0.6515  1.9340
  881MOL0     H18890   8.017   3.639   3.357 -1.3459 -1.8396  2.0700
  881MOL0     H18891   8.162   3.529   3.196 -1.4269 -1.9212  1.4638
  881MOL0     H18892   8.069   3.662   3.124 -0.2173 -0.3271 -0.8011
  881MOL0     H18893   8.093   3.488   2.963  0.5222  0.3225  0.3453
  881MOL0     H18894   7.917   3.503   3.008 -0.2544 -0.4085 -0.2555
  881MOL0     H18895   7.849   3.362   2.871 -0.3395 -0.2732  0.2810
  881MOL0     H18896   7.763   3.146   2.640 -0.8697  0.2102 -1.3494
  881MOL0     H18897   7.615   3.116   2.728  0.1690  0.8505  0.4222
  881MOL0     H18898   7.679   3.280   2.718 -2.1286 -1.1627 -2.2661
  881MOL0     H18899   7.433   2.838   2.835 -0.7448 -1.0808  1.1977
  881MOL0     H18900   7.328   2.653   2.697  1.0050  1.3221 -1.9831
  881MOL0     H18901   7.271   2.300   2.631 -0.2996  0.2408 -1.4996
  881MOL0     H18902   7.246   2.452   2.708 -0.9661 -2.1100 -0.4516
  881MOL0     H18903   7.273   2.553   2.470 -0.5404  0.4875 -1.5603
  881MOL0     H18904   7.302   2.389   2.410 -2.0712 -1.7746  0.2398
  881MOL0     H18905   7.047   2.523   2.513 -1.1532 -1.8216  2.3149
  881MOL0     H18906   7.061   2.356   2.533 -3.5234 -0.7643 -2.5948
  881MOL0     H18907   7.051   2.520   2.281  0.6394  0.8683  0.8420
  881MOL0     H18908   7.135   2.359   2.280  2.8076  3.1526  3.3483
  881MOL0     H18909   6.871   2.374   2.199 -4.3150 -1.5730  0.7909
  881MOL0     H18910   6.835   2.404   2.366 -0.4681 -0.5305 -0.0166
  881MOL0     H18911   6.949   2.156   2.234  0.4737 -1.3473  1.6627
  881MOL0     H18912   7.010   2.188   2.394  0.8907  0.3856  0.3284
  881MOL0     H18913   6.784   2.188   2.478 -0.5854 -1.0348  1.1074
  881MOL0     H18914   6.817   2.033   2.404 -0.8019 -0.9181 -2.1030
  881MOL0     H18915   6.646   2.245   2.289 -1.7444 -0.2903 -2.5702
  881MOL0     H18916   6.605   2.079   2.356  1.0941  1.7196  3.5404
  881MOL0     H18917   7.674   2.406   2.747  3.3507  1.5469  0.4997
  881MOL0     H18918   7.776   2.585   2.894 -0.0218 -0.8759 -0.7397
  881MOL0     H18919   7.899   2.915   3.088 -0.5521 -0.6787 -2.5892
  881MOL0     H18920   8.033   3.103   3.163 -0.6596 -1.9683  0.5163
  881MOL0     H18921   7.508   4.681   4.263  1.9310  0.8304  2.5927
  881MOL0     H18922   7.526   4.937   4.318  2.8153  0.1900  0.8799
  881MOL0     H18923   7.731   5.342   4.207  1.6709  0.9042 -4.4878
  881MOL0     H18924   7.740   5.563   4.182 -0.1204 -1.1935 -1.2624
  881MOL0     H18925   7.599   5.759   4.335  2.2870 -0.6135  0.6481
  881MOL0     H18926   7.716   5.796   4.219 -0.9836  0.4793 -1.0040
  881MOL0     H18927   7.602   5.998   4.138  0.6310 -0.7526 -0.6588
  881MOL0     H18928   7.623   6.017   4.312 -0.7138 -3.4058  4.0806
  881MOL0     H18929   7.399   5.973   4.357  1.4092  0.0860 -0.7211
  881MOL0     H18930   7.370   5.907   4.192 -2.8252  1.7175 -1.2021
  881MOL0     H18931   7.373   6.126   4.099  0.3629 -1.3065  0.8063
  881MOL0     H18932   7.445   6.203   4.243 -1.7982 -0.6880  7.3636
  881MOL0     H18933   7.051   6.200   4.382 -0.7094  1.3051 -0.4996
  881MOL0     H18934   7.319   5.596   4.098 -0.3161  0.5430  3.7160
  881MOL0     H18935   7.303   5.346   4.100 -0.7674 -0.1171  1.6745
  882MOL0     O18936   0.823   2.008   5.263  0.1092  0.3841  0.5335
  882MOL0     C18937   0.786   2.123   5.269  0.2990  0.2480 -0.0229
  882MOL0     O18938   0.847   2.223   5.342  0.6264 -0.1089 -0.2856
  882MOL0     C18939   0.944   2.200   5.439  0.1711  0.3168  0.3416
  882MOL0     C18940   0.921   2.232   5.573  0.6793 -0.0685 -0.6637
  882MOL0     C18941   1.024   2.235   5.661 -0.0631  0.0279 -1.4710
  882MOL0     C18942   1.159   2.194   5.628  0.4509  0.4726  0.1568
  882MOL0     O18943   1.271   2.201   5.719 -0.2121  1.0615 -0.1189
  882MOL0     C18944   1.239   2.219   5.859 -0.1941 -0.4279  0.2004
  882MOL0     C18945   1.353   2.164   5.941 -0.4343 -0.6593  0.0782
  882MOL0     C18946   1.356   2.187   6.099 -0.7591 -0.4121 -0.0224
  882MOL0     C18947   1.252   2.105   6.177 -0.1508  0.0892 -0.2856
  882MOL0     C18948   1.276   2.087   6.327  0.0610  0.2641  0.2866
  882MOL0     C18949   1.269   2.215   6.397  0.1180 -0.8228 -0.2407
  882MOL0     C18950   1.299   2.208   6.551 -0.1327 -0.2732  0.8883
  882MOL0     C18951   1.354   2.344   6.603 -0.0305 -0.6307 -0.0467
  882MOL0     N18952   1.260   2.456   6.579  0.1517  0.1823 -0.2197
  882MOL0     C18953   1.303   2.585   6.539 -0.4106 -0.1774 -0.4946
  882MOL0     C18954   1.190   2.659   6.548 -0.4725 -1.0646  0.0479
  882MOL0     C18955   1.178   2.811   6.554  0.9492 -0.1139  0.7193
  882MOL0     C18956   1.135   2.875   6.418  0.1109  0.1551 -0.9587
  882MOL0     C18957   1.009   2.801   6.365  0.0211 -0.0985  0.1814
  882MOL0     C18958   0.978   2.846   6.221 -1.1479  0.4919  0.7569
  882MOL0     O18959   0.978   2.991   6.207  1.0374 -0.8597  0.2023
  882MOL0     C18960   0.866   3.067   6.237  0.6948 -0.1908 -0.2445
  882MOL0     C18961   0.755   3.022   6.304  0.9261  0.4088  0.6882
  882MOL0     C18962   0.657   3.099   6.350  0.5374 -0.2267  0.1729
  882MOL0     C18963   0.547   3.038   6.442 -0.2528  0.2758 -0.6156
  882MOL0     C18964   0.672   3.242   6.330  0.5133 -0.2760 -1.4425
  882MOL0     C18965   0.589   3.343   6.397  0.4498 -0.3849  0.3843
  882MOL0     O18966   0.627   3.469   6.376 -0.0528 -0.2557  0.5337
  882MOL0     C18967   0.533   3.562   6.408  0.0248  0.4884 -1.0285
  882MOL0     C18968   0.418   3.574   6.338 -0.3755 -1.1088  0.0879
  882MOL0     C18969   0.320   3.660   6.377 -1.0868 -0.4799 -0.1682
  882MOL0     C18970   0.332   3.750   6.487  0.0710 -0.4437 -0.5070
  882MOL0     O18971   0.238   3.848   6.503 -0.7551 -0.9479 -0.5141
  882MOL0     C18972   0.279   3.969   6.581 -0.6245  0.2336  0.1349
  882MOL0     C18973   0.154   4.048   6.609 -0.8135 -0.4269 -0.1403
  882MOL0     C18974   0.180   4.180   6.686 -0.2407  0.0508 -0.0792
  882MOL0     C18975   0.226   4.139   6.822 -0.3248 -0.4548  0.0544
  882MOL0     C18976   0.174   4.255   6.921 -0.1860 -0.6704  0.5098
  882MOL0     C18977   0.226   4.224   7.055 -0.1257  1.2783  0.5625
  882MOL0     C18978   0.381   4.241   7.076 -0.6414 -0.3602 -0.2532
  882MOL0     C18979   0.413   4.233   7.221  0.2254  1.2220  0.2535
  882MOL0    Cl18980   0.593   4.260   7.241  0.1155  0.0573 -0.6513
  882MOL0     C18981   0.444   3.730   6.572  0.5179  0.8144 -0.3165
  882MOL0     C18982   0.545   3.641   6.526  0.9372  1.0349  0.4708
  882MOL0     O18983   0.503   3.304   6.480 -0.2653  0.0276  1.0109
  882MOL0     C18984   0.783   3.289   6.260  0.0288  1.1844 -0.8108
  882MOL0     C18985   0.881   3.201   6.213 -0.4572  0.5590  0.0400
  882MOL0     N18986   1.086   2.579   6.583  0.9846  0.0504 -0.5656
  882MOL0     N18987   1.121   2.460   6.608 -0.0461  0.1293 -0.2944
  882MOL0     C18988   1.181   2.153   5.501  0.5553  0.1381  1.5420
  882MOL0     C18989   1.077   2.164   5.407  0.2288  0.6215  0.1202
  882MOL0     C18990   0.656   2.151   5.197 -0.9460  0.0557  0.2788
  882MOL0     C18991   0.576   2.261   5.228 -0.8851 -0.5679 -0.0093
  882MOL0     C18992   0.457   2.284   5.157  0.3794 -0.6184  0.4111
  882MOL0     C18993   0.426   2.213   5.043  0.9230  0.2541 -0.1104
  882MOL0     O18994   0.304   2.224   4.984 -0.1006  1.1464  0.0838
  882MOL0     C18995   0.236   2.091   4.982 -0.4475 -0.1374 -0.0904
  882MOL0     C18996   0.092   2.087   4.932  0.9895  1.1179  0.0373
  882MOL0     C18997   0.001   2.151   5.035 -0.9143 -0.7927  0.7775
  882MOL0     C18998  -0.142   2.167   4.975  0.7947  0.0998  0.2880
  882MOL0     C18999  -0.224   2.162   5.095 -0.0259  0.9607 -0.1471
  882MOL0     C19000  -0.298   2.163   5.185  1.3224 -0.1653 -0.1827
  882MOL0     C19001   0.515   2.115   5.006 -0.7945  0.2791  0.5904
  882MOL0     C19002   0.629   2.087   5.077 -0.6075  0.1183 -0.3905
  882MOL0     H19003   0.824   2.260   5.614  1.0968 -1.4660  1.4283
  882MOL0     H19004   1.007   2.271   5.762  0.5400 -0.1874 -1.2868
  882MOL0     H19005   1.216   2.323   5.881 -2.3969 -0.6332 -0.8842
  882MOL0     H19006   1.158   2.158   5.900  0.2787 -0.6850  0.7720
  882MOL0     H19007   1.380   2.060   5.923 -0.3061 -0.7545  0.7931
  882MOL0     H19008   1.431   2.227   5.897 -0.3360 -0.7066  0.1858
  882MOL0     H19009   1.451   2.161   6.146 -1.0147  0.9603  1.3450
  882MOL0     H19010   1.332   2.290   6.125  0.6353 -0.3008  0.9094
  882MOL0     H19011   1.159   2.163   6.175  0.5643  1.3984  1.5045
  882MOL0     H19012   1.257   2.000   6.149  1.4183 -0.3551  1.4988
  882MOL0     H19013   1.205   2.017   6.372 -0.5059  1.2312  0.9292
  882MOL0     H19014   1.378   2.050   6.339  0.1350  1.0220  2.1909
  882MOL0     H19015   1.339   2.293   6.364 -3.1291  2.0803 -0.7844
  882MOL0     H19016   1.167   2.253   6.391 -1.2313 -4.2892 -0.9934
  882MOL0     H19017   1.202   2.189   6.599  0.2401  1.5681  2.4922
  882MOL0     H19018   1.365   2.126   6.581  1.6654  0.0628 -1.7681
  882MOL0     H19019   1.454   2.356   6.561 -0.0509  0.0548  0.0898
  882MOL0     H19020   1.357   2.339   6.712  1.1295  0.1703 -0.0256
  882MOL0     H19021   1.404   2.621   6.524 -0.7529  1.0432 -0.0318
  882MOL0     H19022   1.103   2.835   6.630 -0.2803  0.6580 -0.7079
  882MOL0     H19023   1.273   2.858   6.579  0.3599 -0.6008  4.4864
  882MOL0     H19024   1.225   2.856   6.358  0.4714 -1.1646 -0.0446
  882MOL0     H19025   1.114   2.982   6.422 -2.7156 -0.3113 -1.6460
  882MOL0     H19026   0.928   2.821   6.436  0.1232 -0.1457  0.3133
  882MOL0     H19027   1.038   2.696   6.352  2.8951  0.9587 -3.8067
  882MOL0     H19028   0.885   2.805   6.182 -0.8671 -0.9788  1.5549
  882MOL0     H19029   1.044   2.811   6.140 -0.7749  1.5232  0.6015
  882MOL0     H19030   0.738   2.915   6.318 -0.1537  0.4502 -0.1887
  882MOL0     H19031   0.567   3.061   6.547  2.7567  1.8975 -1.4536
  882MOL0     H19032   0.446   3.073   6.417  0.4078  0.8125 -2.6687
  882MOL0     H19033   0.538   2.929   6.432 -6.8269  0.5117 -1.5301
  882MOL0     H19034   0.414   3.509   6.251 -1.8997  0.7744 -1.3333
  882MOL0     H19035   0.232   3.668   6.313 -1.6543 -0.8848  0.5403
  882MOL0     H19036   0.329   3.940   6.674 -1.5248  0.2940  0.6544
  882MOL0     H19037   0.356   4.032   6.535 -0.0951  1.7343  2.8720
  882MOL0     H19038   0.107   4.059   6.511  1.6407  1.1373 -1.2599
  882MOL0     H19039   0.094   3.991   6.681  1.9364 -2.2246  0.9053
  882MOL0     H19040   0.093   4.248   6.688 -0.3047  0.1004  4.0713
  882MOL0     H19041   0.264   4.237   6.646 -2.1216  3.0378 -0.1221
  882MOL0     H19042   0.172   4.054   6.866  0.7325 -1.3993 -0.4370
  882MOL0     H19043   0.333   4.118   6.829 -0.1736  0.1143 -0.5047
  882MOL0     H19044   0.065   4.261   6.922 -0.1874 -0.7498  1.1229
  882MOL0     H19045   0.210   4.358   6.911  0.7290 -0.7702  2.2385
  882MOL0     H19046   0.162   4.295   7.109 -1.1368  1.5729 -0.9590
  882MOL0     H19047   0.192   4.124   7.082  0.0211  1.3674  1.0917
  882MOL0     H19048   0.415   4.341   7.047 -0.3395 -0.6423 -0.8920
  882MOL0     H19049   0.438   4.166   7.021  0.6779 -0.6626  1.4669
  882MOL0     H19050   0.387   4.134   7.260  2.1307 -0.8596 -3.2487
  882MOL0     H19051   0.344   4.308   7.261 -0.0434  0.9542  0.2910
  882MOL0     H19052   0.475   3.799   6.650 -0.4636 -1.7004  2.5113
  882MOL0     H19053   0.638   3.634   6.583 -0.4428 -1.3842  2.6260
  882MOL0     H19054   0.820   3.390   6.245  1.9876  0.5303 -0.6251
  882MOL0     H19055   0.974   3.236   6.170 -1.8390  1.2744 -2.5477
  882MOL0     H19056   1.279   2.128   5.460  0.7838  0.6655  1.7532
  882MOL0     H19057   1.091   2.139   5.302  2.3632  1.3925  0.1724
  882MOL0     H19058   0.587   2.311   5.324 -1.8288  0.6790 -0.5308
  882MOL0     H19059   0.387   2.361   5.185 -1.7999 -1.2045 -2.9128
  882MOL0     H19060   0.295   2.020   4.922  1.9609 -1.6306  3.7039
  882MOL0     H19061   0.242   2.049   5.082 -1.5305  1.4962  0.6958
  882MOL0     H19062   0.078   1.980   4.914  3.4947  0.9106 -1.2734
  882MOL0     H19063   0.090   2.141   4.836  0.8503 -2.4138 -2.1228
  882MOL0     H19064   0.039   2.248   5.067 -1.2416 -0.1543 -0.6838
  882MOL0     H19065   0.003   2.088   5.124  0.4188 -1.8578  0.0449
  882MOL0     H19066  -0.173   2.087   4.907  0.1138  0.5596  0.0502
  882MOL0     H19067  -0.156   2.262   4.922 -1.1391 -0.7549 -0.8212
  882MOL0     H19068  -0.359   2.180   5.272  3.8430  1.0936  1.4620
  882MOL0     H19069   0.497   2.046   4.924 -0.6811  1.5031 -0.4813
  882MOL0     H19070   0.687   1.998   5.055  0.6808  0.7268  0.4347
  883MOL0     O19071   4.091  10.938   1.637 -0.4219  0.0151  0.7557
  883MOL0     C19072   4.186  10.964   1.713 -0.7524 -0.1707  0.4038
  883MOL0     O19073   4.192  11.079   1.791 -0.3677  0.0053 -0.3378
  883MOL0     C19074   4.106  11.179   1.766  0.2633  0.1829 -0.3517
  883MOL0     C19075   4.087  11.246   1.640 -0.7815  0.8243 -0.3234
  883MOL0     C19076   3.998  11.349   1.633  0.4619 -0.1183 -0.2414
  883MOL0     C19077   3.920  11.386   1.746  0.0318  0.5865  0.7588
  883MOL0     O19078   3.815  11.482   1.747 -0.3721 -0.4184 -0.1699
  883MOL0     C19079   3.784  11.556   1.628 -0.3104  0.2812  0.0274
  883MOL0     C19080   3.661  11.650   1.641  0.1604 -1.2658 -0.4460
  883MOL0     C19081   3.521  11.584   1.648 -0.3628  0.1493  0.6766
  883MOL0     C19082   3.409  11.684   1.663 -0.5678  0.1203  0.5492
  883MOL0     C19083   3.419  11.759   1.801 -0.0827 -0.8635  0.1891
  883MOL0     C19084   3.287  11.735   1.870  0.3469  0.3290 -0.1875
  883MOL0     C19085   3.283  11.783   2.023  0.5129 -0.3966  0.3114
  883MOL0     C19086   3.145  11.827   2.077  0.5151  0.3542 -0.3864
  883MOL0     N19087   3.132  11.867   2.224 -0.2616  0.8720  0.5160
  883MOL0     C19088   3.036  11.931   2.292 -0.3736 -0.1522 -0.4229
  883MOL0     C19089   3.056  11.918   2.425  0.5471  0.1337 -0.7016
  883MOL0     C19090   2.967  11.972   2.542  0.0099 -0.0042 -0.1143
  883MOL0     C19091   2.994  12.110   2.589 -0.2930  0.4523 -0.8523
  883MOL0     C19092   3.132  12.150   2.658  0.3666  0.8472 -0.2934
  883MOL0     C19093   3.168  12.065   2.792 -0.0635 -0.6697 -0.6429
  883MOL0     O19094   3.064  12.068   2.887  0.1956 -0.4115 -0.8791
  883MOL0     C19095   3.118  12.051   3.015  0.2765  0.3372  0.1196
  883MOL0     C19096   3.219  11.956   3.047  0.0085  0.6742  0.3870
  883MOL0     C19097   3.272  11.945   3.180  0.8176 -0.0065  0.5515
  883MOL0     C19098   3.371  11.840   3.212  0.1806  0.4151 -0.1115
  883MOL0     C19099   3.227  12.036   3.288  0.2482 -0.5655  0.9516
  883MOL0     C19100   3.282  12.035   3.430 -0.4308 -0.2509  0.5390
  883MOL0     O19101   3.200  12.097   3.524 -0.6014  0.5586  0.6648
  883MOL0     C19102   3.258  12.128   3.644 -0.4191  0.0176 -0.6133
  883MOL0     C19103   3.362  12.219   3.656 -0.3765  0.1320  0.1844
  883MOL0     C19104   3.417  12.247   3.777 -0.9149  0.7342 -0.7419
  883MOL0     C19105   3.373  12.187   3.897  1.1372  0.4388 -0.9980
  883MOL0     O19106   3.422  12.207   4.024  0.0130  0.0448  0.1452
  883MOL0     C19107   3.489  12.335   4.056  0.4505  1.0230  0.3371
  883MOL0     C19108   3.380  12.435   4.091 -0.2767 -0.6210  0.0880
  883MOL0     C19109   3.431  12.572   4.142  0.6275 -1.0770  0.1056
  883MOL0     C19110   3.474  12.667   4.022  0.6559  0.0212  0.8176
  883MOL0     C19111   3.522  12.803   4.067 -1.5364  0.1437 -0.2060
  883MOL0     C19112   3.675  12.824   4.058 -0.4636 -0.9535  0.0529
  883MOL0     C19113   3.759  12.743   4.154  0.7708  0.2119 -0.3116
  883MOL0     C19114   3.775  12.817   4.281  0.1965  0.0702 -0.8376
  883MOL0    Cl19115   3.888  12.948   4.267 -0.2195 -0.0331  0.2112
  883MOL0     C19116   3.270  12.087   3.882  0.3000 -0.8684 -0.7257
  883MOL0     C19117   3.210  12.057   3.758  0.2693 -0.7781  0.1789
  883MOL0     O19118   3.393  11.991   3.452 -0.1567  0.0464  0.2562
  883MOL0     C19119   3.128  12.132   3.251 -0.3401  1.1791  0.2719
  883MOL0     C19120   3.073  12.140   3.120  1.2638 -0.0457  0.2191
  883MOL0     N19121   3.179  11.848   2.437  0.5115 -0.0232  0.8472
  883MOL0     N19122   3.226  11.824   2.324  0.1743  0.9621  0.4497
  883MOL0     C19123   3.946  11.332   1.869 -0.9442  0.5452  0.3636
  883MOL0     C19124   4.041  11.230   1.878  0.4492  0.7327  0.3215
  883MOL0     C19125   4.302  10.872   1.711 -0.9302 -0.0729 -0.3501
  883MOL0     C19126   4.314  10.768   1.610  0.4848 -0.3101 -0.1054
  883MOL0     C19127   4.420  10.680   1.612 -0.4000 -0.2497 -1.0000
  883MOL0     C19128   4.523  10.690   1.704 -0.8503  0.2562 -0.5745
  883MOL0     O19129   4.643  10.626   1.719  0.0297 -0.2104  1.3625
  883MOL0     C19130   4.661  10.505   1.637  0.7060  0.1245  0.2369
  883MOL0     C19131   4.805  10.460   1.648 -1.1753 -0.8703  0.1904
  883MOL0     C19132   4.839  10.444   1.799 -0.1099 -0.0385 -0.1352
  883MOL0     C19133   4.896  10.314   1.840  0.7024 -0.1778  0.3174
  883MOL0     C19134   4.789  10.210   1.835 -1.0017 -0.9314  0.0492
  883MOL0     C19135   4.697  10.130   1.834 -0.1174  0.5122 -0.6678
  883MOL0     C19136   4.519  10.799   1.794  0.1413  1.5115  0.5482
  883MOL0     C19137   4.422  10.896   1.789  0.2472 -0.2179  0.9758
  883MOL0     H19138   4.136  11.221   1.547  0.3673 -0.2611  0.5524
  883MOL0     H19139   3.992  11.401   1.538 -0.7180 -0.2962 -0.2701
  883MOL0     H19140   3.867  11.622   1.600 -0.5296 -0.0054 -1.3290
  883MOL0     H19141   3.766  11.491   1.543  1.5658 -1.4328  0.8595
  883MOL0     H19142   3.674  11.720   1.724 -1.1736 -0.6365 -0.7364
  883MOL0     H19143   3.675  11.710   1.551 -0.9699 -1.4897 -0.7913
  883MOL0     H19144   3.504  11.521   1.560 -2.2430  0.1624  0.9839
  883MOL0     H19145   3.509  11.525   1.739 -3.4774 -0.1706  0.1763
  883MOL0     H19146   3.417  11.754   1.580 -0.8272 -1.0998 -0.5312
  883MOL0     H19147   3.309  11.640   1.660 -0.2804 -0.6295  1.5728
  883MOL0     H19148   3.505  11.719   1.855 -1.4144 -1.6022  1.8647
  883MOL0     H19149   3.420  11.866   1.781 -1.7414 -0.6056  1.2683
  883MOL0     H19150   3.215  11.795   1.814 -0.7061  0.3686  1.1536
  883MOL0     H19151   3.261  11.629   1.876  2.0913 -0.0740  1.1140
  883MOL0     H19152   3.317  11.697   2.080  0.4397 -1.9613 -1.8722
  883MOL0     H19153   3.346  11.872   2.031  0.8949 -0.7226  1.0616
  883MOL0     H19154   3.072  11.750   2.049  0.5656 -0.3612  1.2733
  883MOL0     H19155   3.116  11.915   2.020  2.1667  0.2703 -1.4126
  883MOL0     H19156   2.947  11.972   2.245  0.8021 -0.1364 -2.8320
  883MOL0     H19157   2.863  11.958   2.512  0.0606 -1.3305  0.2718
  883MOL0     H19158   2.986  11.913   2.632  2.6726  1.2661  0.2528
  883MOL0     H19159   2.916  12.135   2.661  0.0818  1.9493 -0.9289
  883MOL0     H19160   2.980  12.168   2.497  0.0900 -0.3640 -1.4344
  883MOL0     H19161   3.127  12.256   2.688  0.0534  0.7991 -0.1737
  883MOL0     H19162   3.217  12.149   2.590  0.5680  0.1061 -0.0285
  883MOL0     H19163   3.254  12.115   2.836 -1.8399  1.3256  0.8060
  883MOL0     H19164   3.192  11.961   2.771 -0.3462 -1.4109  2.2753
  883MOL0     H19165   3.255  11.872   2.988  2.3499  1.0730  1.1499
  883MOL0     H19166   3.319  11.776   3.284 -2.8487  0.8814 -1.7148
  883MOL0     H19167   3.388  11.771   3.129  0.0599  0.5506 -0.2503
  883MOL0     H19168   3.472  11.866   3.246  0.0240  0.1178  0.6081
  883MOL0     H19169   3.400  12.285   3.579  0.5105 -1.4306 -0.7751
  883MOL0     H19170   3.494  12.322   3.783  2.9624 -2.9723  2.3662
  883MOL0     H19171   3.545  12.326   4.149 -0.1196 -0.5253  0.5679
  883MOL0     H19172   3.566  12.366   3.985  2.4576  0.0285  1.9699
  883MOL0     H19173   3.305  12.447   4.012  1.8129  1.9803 -1.6676
  883MOL0     H19174   3.317  12.391   4.168 -1.0111  1.3098  0.6563
  883MOL0     H19175   3.519  12.551   4.203  2.1290  0.4037 -1.4288
  883MOL0     H19176   3.361  12.630   4.203  0.3489 -1.3504  0.0472
  883MOL0     H19177   3.557  12.608   3.983 -2.0888 -5.4738  2.2133
  883MOL0     H19178   3.394  12.673   3.947 -0.3619 -0.1044  1.8630
  883MOL0     H19179   3.478  12.832   4.163  0.7368  0.8089  0.7219
  883MOL0     H19180   3.477  12.875   3.999  0.0301 -0.1675 -1.6561
  883MOL0     H19181   3.712  12.812   3.956  2.1948 -1.0004  0.9534
  883MOL0     H19182   3.691  12.928   4.088  0.4292 -0.9459 -0.4284
  883MOL0     H19183   3.856  12.740   4.104  2.5542 -0.6521  2.9308
  883MOL0     H19184   3.726  12.639   4.164  1.6671 -0.1287 -0.7642
  883MOL0     H19185   3.816  12.748   4.355  0.5435  1.1834  0.0207
  883MOL0     H19186   3.673  12.843   4.309 -0.8719 -0.3912 -3.8585
  883MOL0     H19187   3.226  12.038   3.968  0.0422 -1.7387 -1.3398
  883MOL0     H19188   3.135  11.978   3.750  0.3953 -0.8369 -0.5188
  883MOL0     H19189   3.088  12.193   3.332  0.0124  1.2082  0.4227
  883MOL0     H19190   2.991  12.207   3.099  0.9302 -0.3717  0.4637
  883MOL0     H19191   3.897  11.376   1.955  1.9204  2.5511  1.1092
  883MOL0     H19192   4.064  11.192   1.977 -3.8062  1.6175  1.8540
  883MOL0     H19193   4.229  10.767   1.543  0.2130  2.1607  0.1363
  883MOL0     H19194   4.432  10.611   1.529  4.5754  0.5492 -1.2139
  883MOL0     H19195   4.585  10.433   1.670 -1.4459  1.2791 -1.9075
  883MOL0     H19196   4.630  10.537   1.537  2.5321  0.3287 -0.2950
  883MOL0     H19197   4.860  10.544   1.604  0.3996 -2.1793 -0.4432
  883MOL0     H19198   4.840  10.372   1.594  0.8964 -0.8846  1.4721
  883MOL0     H19199   4.764  10.489   1.865  0.5660  0.4029  0.3577
  883MOL0     H19200   4.921  10.515   1.813 -0.5567  1.1792 -3.1499
  883MOL0     H19201   4.941  10.323   1.939  1.1653  1.1678  0.0098
  883MOL0     H19202   4.977  10.277   1.775  1.1247  0.2687  0.5800
  883MOL0     H19203   4.616  10.061   1.847  1.8721 -1.6646  1.1216
  883MOL0     H19204   4.602  10.816   1.861  1.2119 -1.2531  0.0833
  883MOL0     H19205   4.419  10.984   1.852 -2.6027  1.4978 -1.3003
  884MOL0     O19206  11.088   3.253   8.564 -0.3538 -0.7132  0.5124
  884MOL0     C19207  11.146   3.341   8.499  0.9126 -0.2870 -1.0972
  884MOL0     O19208  11.197   3.335   8.375  0.4758  0.0597 -0.8111
  884MOL0     C19209  11.224   3.203   8.326 -0.4691  0.6223 -1.2450
  884MOL0     C19210  11.148   3.085   8.356  0.6240 -0.4593 -0.5492
  884MOL0     C19211  11.198   2.968   8.307  1.7734 -0.7825 -0.1552
  884MOL0     C19212  11.307   2.962   8.215  0.0368  0.6670 -0.1208
  884MOL0     O19213  11.353   2.845   8.159  0.3363 -1.0176  0.2708
  884MOL0     C19214  11.378   2.736   8.245  0.3530 -1.1326 -0.0744
  884MOL0     C19215  11.480   2.638   8.209 -0.4755 -0.4976  0.5210
  884MOL0     C19216  11.624   2.712   8.209  0.0594  0.3569 -1.5367
  884MOL0     C19217  11.724   2.607   8.205 -0.3388 -0.6090 -0.3288
  884MOL0     C19218  11.859   2.677   8.220  0.3258 -0.6329  0.4105
  884MOL0     C19219  11.896   2.688   8.367 -0.4188 -0.3371  0.0203
  884MOL0     C19220  12.047   2.711   8.383 -0.6625  0.0690 -0.5213
  884MOL0     C19221  12.071   2.860   8.378  0.9714 -0.7648 -0.9640
  884MOL0     N19222  12.212   2.883   8.416 -0.1039  1.2593 -0.2690
  884MOL0     C19223  12.268   2.859   8.546 -0.0181  1.2321  0.4964
  884MOL0     C19224  12.377   2.931   8.536  0.7656 -0.4347 -0.2349
  884MOL0     C19225  12.466   2.982   8.647  0.8702 -0.3141  1.3882
  884MOL0     C19226  12.384   3.051   8.746  0.1164  0.3147 -0.4158
  884MOL0     C19227  12.288   3.157   8.685 -0.7538  0.3396 -0.7031
  884MOL0     C19228  12.216   3.238   8.789  0.4849 -0.2645  0.1525
  884MOL0     O19229  12.161   3.364   8.742 -0.3297  0.3099 -0.0605
  884MOL0     C19230  12.064   3.433   8.807 -0.7760  0.3827  0.1952
  884MOL0     C19231  11.977   3.373   8.897  0.2025 -0.1842  0.0742
  884MOL0     C19232  11.880   3.455   8.967 -0.2217  0.8482  0.9174
  884MOL0     C19233  11.770   3.373   9.033 -0.3956  0.6621 -0.1045
  884MOL0     C19234  11.876   3.597   8.952  0.2344  0.7701  0.4352
  884MOL0     C19235  11.783   3.692   9.017 -0.1154 -0.7102  0.0225
  884MOL0     O19236  11.747   3.651   9.136 -0.3410 -0.7121 -0.4308
  884MOL0     C19237  11.641   3.723   9.188  0.3142  0.4079  0.4099
  884MOL0     C19238  11.506   3.725   9.123 -0.5257 -0.1320 -0.0020
  884MOL0     C19239  11.424   3.825   9.165  0.2590 -0.4419  0.1563
  884MOL0     C19240  11.439   3.902   9.277  0.5437 -0.1356 -0.9247
  884MOL0     O19241  11.330   3.972   9.334 -0.5532 -1.0363 -0.0313
  884MOL0     C19242  11.304   3.949   9.468 -0.3545  0.3146 -0.1192
  884MOL0     C19243  11.154   3.974   9.522 -0.0868 -0.1774  0.0293
  884MOL0     C19244  11.051   3.884   9.442 -0.1349 -0.4099 -0.3175
  884MOL0     C19245  10.899   3.923   9.469 -1.1320 -0.0025  0.3799
  884MOL0     C19246  10.801   3.820   9.413  0.4864  0.1594  0.2974
  884MOL0     C19247  10.772   3.717   9.514  0.1173  0.3054 -0.3695
  884MOL0     C19248  10.665   3.756   9.616  0.1548 -0.5197  0.8687
  884MOL0     C19249  10.528   3.728   9.564 -0.0865 -0.3757  0.1480
  884MOL0    Cl19250  10.415   3.763   9.688 -0.1802  0.7166 -0.1274
  884MOL0     C19251  11.563   3.890   9.341 -1.1963  0.7342 -0.9534
  884MOL0     C19252  11.666   3.803   9.303  0.2635  0.2967 -0.1918
  884MOL0     O19253  11.742   3.790   8.947  0.5097 -0.1703 -0.1979
  884MOL0     C19254  11.964   3.643   8.851  0.5362  0.0680 -0.2307
  884MOL0     C19255  12.056   3.569   8.801 -0.0199  0.0363  0.5886
  884MOL0     N19256  12.401   2.981   8.413 -0.6992 -0.0186  0.3279
  884MOL0     N19257  12.292   2.965   8.346  0.2010 -0.5020  0.1215
  884MOL0     C19258  11.372   3.076   8.183 -1.2893 -0.2754 -0.1898
  884MOL0     C19259  11.330   3.204   8.234  1.2401  1.0948 -0.9207
  884MOL0     C19260  11.145   3.482   8.551 -0.3045 -1.0554  0.6988
  884MOL0     C19261  11.200   3.587   8.472 -0.1838  0.4207  0.4260
  884MOL0     C19262  11.200   3.709   8.524 -0.6631 -0.8765 -0.3584
  884MOL0     C19263  11.162   3.749   8.652  0.2833 -0.4121 -0.2968
  884MOL0     O19264  11.177   3.878   8.683  0.0856  0.0766 -0.2906
  884MOL0     C19265  11.147   3.918   8.813 -0.2777 -0.1653 -0.1465
  884MOL0     C19266  11.090   4.062   8.816  0.1713 -0.2213  0.2062
  884MOL0     C19267  11.071   4.130   8.948 -0.7921 -1.0132 -0.2883
  884MOL0     C19268  10.989   4.046   9.045  0.7487  0.5532  0.0317
  884MOL0     C19269  10.880   4.118   9.122 -1.5011  0.1764  0.1486
  884MOL0     C19270  10.800   4.188   9.185  0.0092  0.6505  0.7793
  884MOL0     C19271  11.123   3.647   8.730  0.3343  0.1463 -0.0090
  884MOL0     C19272  11.110   3.522   8.681  0.4094  0.0916  0.2727
  884MOL0     H19273  11.050   3.074   8.402 -0.8392  3.9093 -2.1489
  884MOL0     H19274  11.130   2.886   8.329  0.5637  0.4579  0.9366
  884MOL0     H19275  11.415   2.768   8.343 -1.9761  2.0478 -0.0954
  884MOL0     H19276  11.276   2.697   8.255  0.1122 -0.6785 -0.7293
  884MOL0     H19277  11.478   2.558   8.284  0.9287  0.2195  1.3724
  884MOL0     H19278  11.470   2.604   8.106  1.1350  4.5552 -1.6111
  884MOL0     H19279  11.628   2.773   8.118 -2.4367  1.4372 -1.0059
  884MOL0     H19280  11.629   2.775   8.298 -4.8431  1.7698 -2.0002
  884MOL0     H19281  11.703   2.543   8.290 -0.0965  0.4401  0.5475
  884MOL0     H19282  11.727   2.553   8.110 -0.3300  1.5279 -1.6350
  884MOL0     H19283  11.927   2.623   8.153  0.2547 -0.7989  0.4711
  884MOL0     H19284  11.854   2.778   8.179 -1.9258 -0.9696 -0.3209
  884MOL0     H19285  11.842   2.779   8.393  3.9200  2.9886 -1.2602
  884MOL0     H19286  11.862   2.597   8.417  1.6072 -1.1409  0.0431
  884MOL0     H19287  12.080   2.661   8.474 -2.0478 -2.1633 -1.1705
  884MOL0     H19288  12.101   2.659   8.303 -0.8874  0.8858 -1.2282
  884MOL0     H19289  12.001   2.920   8.438  2.0635 -0.0065 -0.3977
  884MOL0     H19290  12.063   2.884   8.272  0.2924 -1.5491 -1.0895
  884MOL0     H19291  12.223   2.797   8.623 -0.2417 -3.7155 -3.1473
  884MOL0     H19292  12.536   2.907   8.684  0.7407 -0.5760  1.1042
  884MOL0     H19293  12.533   3.051   8.594 -1.1080 -1.3909 -2.9016
  884MOL0     H19294  12.454   3.093   8.819  1.4084 -1.5667 -0.5177
  884MOL0     H19295  12.331   2.977   8.807 -1.7940  1.3388 -0.7471
  884MOL0     H19296  12.214   3.108   8.622  0.7252 -5.5097  1.4409
  884MOL0     H19297  12.355   3.231   8.642 -1.0048  3.1460  3.1525
  884MOL0     H19298  12.291   3.278   8.859  0.9739 -0.6538 -0.1419
  884MOL0     H19299  12.145   3.178   8.847 -1.5043  0.9346 -0.9479
  884MOL0     H19300  11.970   3.265   8.905  0.3499 -0.3898 -1.9938
  884MOL0     H19301  11.789   3.360   9.140  0.7392 -0.7424 -0.4366
  884MOL0     H19302  11.670   3.415   9.046  0.0828  1.5579  0.8626
  884MOL0     H19303  11.758   3.276   8.985  0.3926  0.6570 -0.3104
  884MOL0     H19304  11.472   3.662   9.041 -1.2887 -1.0922  1.0244
  884MOL0     H19305  11.325   3.824   9.122  0.5306 -0.9571 -0.4683
  884MOL0     H19306  11.313   3.842   9.488 -2.8602  0.0508 -0.1242
  884MOL0     H19307  11.361   4.013   9.535 -1.2255  1.7437 -0.7048
  884MOL0     H19308  11.144   3.964   9.630 -0.3792  4.0441  0.5896
  884MOL0     H19309  11.146   4.081   9.498  1.5269 -0.4982 -2.3498
  884MOL0     H19310  11.063   3.782   9.481  0.9635 -0.0479  0.3248
  884MOL0     H19311  11.070   3.893   9.335  2.8279 -0.9994  0.0654
  884MOL0     H19312  10.888   3.952   9.574  0.4996  3.7114 -0.3348
  884MOL0     H19313  10.872   4.014   9.416  2.2101  0.8167 -0.1538
  884MOL0     H19314  10.836   3.774   9.320 -2.0771  3.2464 -2.4053
  884MOL0     H19315  10.705   3.864   9.384  1.1233  1.8158  0.6014
  884MOL0     H19316  10.747   3.621   9.468  0.8810 -0.6517  1.0996
  884MOL0     H19317  10.860   3.694   9.575 -0.5496  1.0720  0.9249
  884MOL0     H19318  10.668   3.864   9.634 -0.4454 -0.0999 -1.2148
  884MOL0     H19319  10.692   3.710   9.711 -2.1656 -1.3288  1.2165
  884MOL0     H19320  10.517   3.627   9.525 -2.0178 -0.0967 -0.1091
  884MOL0     H19321  10.503   3.794   9.480 -3.4330  2.1486  2.8252
  884MOL0     H19322  11.572   3.955   9.427  0.8874  0.7141 -1.0958
  884MOL0     H19323  11.761   3.783   9.352  0.0815 -3.4504 -1.0448
  884MOL0     H19324  11.958   3.750   8.831 -2.6509  0.0669  0.1236
  884MOL0     H19325  12.125   3.618   8.733  0.3825 -0.0294  0.9505
  884MOL0     H19326  11.451   3.076   8.108 -1.5757 -1.6664 -0.5054
  884MOL0     H19327  11.374   3.300   8.208 -0.5101  2.9471  2.2574
  884MOL0     H19328  11.237   3.568   8.372 -2.7020  0.4720 -0.6039
  884MOL0     H19329  11.237   3.793   8.467 -0.7822 -0.2796  0.4344
  884MOL0     H19330  11.065   3.864   8.861  0.9719  0.5692  3.0538
  884MOL0     H19331  11.240   3.910   8.870  1.6949 -0.7275 -3.2391
  884MOL0     H19332  10.985   4.066   8.784 -0.2239  0.1232  1.4826
  884MOL0     H19333  11.145   4.127   8.748 -4.3525  1.3446 -2.3928
  884MOL0     H19334  11.030   4.230   8.927 -1.6468 -1.7460 -2.4725
  884MOL0     H19335  11.171   4.144   8.989  0.4552 -3.3909 -2.2730
  884MOL0     H19336  11.054   3.998   9.120 -0.8855  0.3368  1.3705
  884MOL0     H19337  10.934   3.968   8.993 -2.5984  3.1180 -0.5973
  884MOL0     H19338  10.725   4.257   9.219  0.2014  0.9719  0.5610
  884MOL0     H19339  11.100   3.656   8.836 -1.4630 -2.8915 -0.0191
  884MOL0     H19340  11.065   3.450   8.748  2.0855  0.5189  1.9273
  885MOL0     O19341   0.685   4.986   5.566  0.2872  0.2711 -0.1814
  885MOL0     C19342   0.776   4.926   5.628  0.4257 -0.6497 -0.6349
  885MOL0     O19343   0.911   4.922   5.588 -0.1757  0.7062 -0.3064
  885MOL0     C19344   0.953   4.977   5.467  0.2125  0.5450 -0.0771
  885MOL0     C19345   0.878   4.960   5.342  0.7833 -0.2026  0.5418
  885MOL0     C19346   0.915   5.025   5.223 -0.2344 -0.0230  0.3009
  885MOL0     C19347   1.036   5.094   5.223 -0.6535  0.1337  0.3046
  885MOL0     O19348   1.083   5.148   5.102  0.1634  0.0244  0.0270
  885MOL0     C19349   1.180   5.249   5.105  0.3919 -0.4494 -0.6820
  885MOL0     C19350   1.223   5.304   4.971  0.3600  0.5195  0.2405
  885MOL0     C19351   1.340   5.387   4.990 -0.4613 -0.3940  0.3901
  885MOL0     C19352   1.374   5.466   4.866 -1.0576  0.0337 -0.0609
  885MOL0     C19353   1.514   5.523   4.878  0.2000 -0.5871 -0.1424
  885MOL0     C19354   1.552   5.622   4.762  1.1954 -0.6493 -0.1888
  885MOL0     C19355   1.478   5.755   4.757 -0.9112 -0.4813 -0.7597
  885MOL0     C19356   1.406   5.777   4.628  0.4538  1.0358  0.3793
  885MOL0     N19357   1.490   5.794   4.512 -0.4452 -0.1090 -0.5584
  885MOL0     C19358   1.538   5.913   4.484 -0.7469 -0.2351 -0.1759
  885MOL0     C19359   1.644   5.893   4.399 -0.1935  0.5067 -0.4537
  885MOL0     C19360   1.711   5.997   4.322  0.1907 -0.6312  0.2536
  885MOL0     C19361   1.759   6.124   4.400  0.8504  0.9319 -0.3861
  885MOL0     C19362   1.852   6.207   4.310  0.7214  0.6406 -1.7227
  885MOL0     C19363   1.925   6.321   4.382  0.6057 -0.0242 -0.1048
  885MOL0     O19364   2.068   6.323   4.367 -0.4438  0.4410 -0.1619
  885MOL0     C19365   2.123   6.383   4.262  0.8233  0.5322 -0.6221
  885MOL0     C19366   2.255   6.363   4.246  0.2464 -0.2555  0.0542
  885MOL0     C19367   2.327   6.416   4.140  0.2932  0.4459 -0.4370
  885MOL0     C19368   2.480   6.394   4.145 -0.9948 -0.1540  0.9481
  885MOL0     C19369   2.263   6.475   4.030 -0.0984 -0.3949 -0.1342
  885MOL0     C19370   2.340   6.544   3.922 -0.3344 -0.0685 -0.4969
  885MOL0     O19371   2.426   6.646   3.968 -1.0909  0.8008  0.1220
  885MOL0     C19372   2.512   6.694   3.869  0.2102 -0.2573 -0.5420
  885MOL0     C19373   2.455   6.772   3.763  0.5483  0.4246 -0.2593
  885MOL0     C19374   2.550   6.809   3.659  0.4294 -0.7191 -0.0015
  885MOL0     C19375   2.689   6.782   3.656  1.2289  0.6893  0.5424
  885MOL0     O19376   2.760   6.837   3.548  0.7471  0.3126  0.3460
  885MOL0     C19377   2.712   6.817   3.417  0.2396  0.2846  0.3752
  885MOL0     C19378   2.821   6.872   3.320  0.0883 -0.2704  0.2122
  885MOL0     C19379   2.821   7.027   3.328 -0.1532 -1.0190 -0.2482
  885MOL0     C19380   2.701   7.091   3.258  0.5874 -0.0711  0.5357
  885MOL0     C19381   2.740   7.236   3.229 -0.0832 -0.3633 -0.0956
  885MOL0     C19382   2.679   7.302   3.112  0.0475 -0.6557 -0.4558
  885MOL0     C19383   2.699   7.459   3.118  0.4191 -0.0818 -0.4043
  885MOL0     C19384   2.831   7.505   3.057 -0.2813  0.4070 -0.3303
  885MOL0    Cl19385   2.846   7.444   2.887 -0.1048 -0.2623 -0.2999
  885MOL0     C19386   2.741   6.719   3.769 -0.0242  0.2326 -0.0808
  885MOL0     C19387   2.653   6.681   3.870  0.6030  0.3424  0.1712
  885MOL0     O19388   2.336   6.487   3.814  0.5611 -0.7056 -0.9846
  885MOL0     C19389   2.123   6.498   4.050 -0.0008 -0.5471  0.9000
  885MOL0     C19390   2.052   6.450   4.159  0.1670  0.6579 -0.6892
  885MOL0     N19391   1.666   5.758   4.396 -0.9500  0.6678 -0.0264
  885MOL0     N19392   1.567   5.699   4.458 -0.4665  0.4695  0.2811
  885MOL0     C19393   1.112   5.104   5.342  0.5265  0.6822  0.7557
  885MOL0     C19394   1.070   5.054   5.462 -0.2910  0.6121 -0.0648
  885MOL0     C19395   0.744   4.838   5.742  0.1849  1.1348  0.0352
  885MOL0     C19396   0.838   4.732   5.775 -0.1223 -0.0015  0.3394
  885MOL0     C19397   0.820   4.635   5.874 -0.0114 -0.1223  0.1813
  885MOL0     C19398   0.691   4.630   5.934 -0.6520  1.1552  0.4041
  885MOL0     O19399   0.645   4.531   6.017 -0.1104 -0.4912 -0.6633
  885MOL0     C19400   0.720   4.403   6.016  0.2289 -1.5221  0.3854
  885MOL0     C19401   0.634   4.294   6.063  0.5186  0.0243 -1.0103
  885MOL0     C19402   0.634   4.288   6.220  0.4186 -0.3038  0.5243
  885MOL0     C19403   0.515   4.200   6.273 -0.6413 -0.5239  0.9098
  885MOL0     C19404   0.536   4.057   6.253 -0.5280  0.0599 -0.0043
  885MOL0     C19405   0.552   3.934   6.248 -0.2081 -0.1326  0.0735
  885MOL0     C19406   0.596   4.736   5.908 -0.6403 -0.6322  0.2728
  885MOL0     C19407   0.620   4.836   5.807  0.4622 -0.0851 -0.2797
  885MOL0     H19408   0.789   4.900   5.356  0.0652  0.4975 -0.8434
  885MOL0     H19409   0.855   5.018   5.132 -0.4869 -0.9129  0.5205
  885MOL0     H19410   1.150   5.332   5.169 -0.4888 -0.8882 -0.5179
  885MOL0     H19411   1.272   5.215   5.155  0.3581  0.7377  0.2382
  885MOL0     H19412   1.243   5.218   4.906  3.0606 -1.6457  3.6057
  885MOL0     H19413   1.145   5.370   4.934  0.5985  1.0670  0.7006
  885MOL0     H19414   1.310   5.458   5.067 -0.8231 -1.1662  0.9759
  885MOL0     H19415   1.433   5.339   5.024  0.3179  1.3970  0.9246
  885MOL0     H19416   1.372   5.400   4.779  0.8562 -0.2042  0.0275
  885MOL0     H19417   1.302   5.547   4.853  1.4314  2.1942 -1.5300
  885MOL0     H19418   1.519   5.576   4.974  0.8210 -1.2534  0.2048
  885MOL0     H19419   1.595   5.448   4.878  0.6205 -0.2075 -2.4463
  885MOL0     H19420   1.653   5.644   4.800  0.9166 -0.6592  0.5772
  885MOL0     H19421   1.556   5.575   4.663 -2.8876  0.4177 -1.0052
  885MOL0     H19422   1.411   5.753   4.843  1.4087 -1.8220  1.1641
  885MOL0     H19423   1.544   5.841   4.774 -1.3072 -0.1530 -0.8657
  885MOL0     H19424   1.341   5.865   4.635 -1.1634 -0.1859  1.4912
  885MOL0     H19425   1.347   5.686   4.614  2.8618 -0.7468  1.3611
  885MOL0     H19426   1.499   6.009   4.518  1.9369  2.1313 -3.1250
  885MOL0     H19427   1.795   5.948   4.272 -0.4884 -1.8301  0.2537
  885MOL0     H19428   1.647   6.029   4.240 -2.5532 -0.2440  2.4173
  885MOL0     H19429   1.807   6.090   4.493  1.3398  0.9557 -0.6249
  885MOL0     H19430   1.673   6.177   4.442  1.2234  0.2016  1.3674
  885MOL0     H19431   1.799   6.252   4.226  0.2549 -0.4463 -2.0351
  885MOL0     H19432   1.913   6.133   4.257 -1.1183 -1.9031 -0.4916
  885MOL0     H19433   1.919   6.296   4.489  3.3838  0.0558  0.1392
  885MOL0     H19434   1.886   6.423   4.369  1.5861  0.8706  2.9141
  885MOL0     H19435   2.308   6.306   4.322  1.2623 -0.6366 -0.9278
  885MOL0     H19436   2.529   6.492   4.158 -0.8377 -0.0395 -0.4004
  885MOL0     H19437   2.521   6.325   4.219  2.3762 -0.6257 -1.1272
  885MOL0     H19438   2.516   6.348   4.052  1.5085 -0.5915  2.0443
  885MOL0     H19439   2.354   6.804   3.785  0.0112 -1.8489  0.9237
  885MOL0     H19440   2.513   6.871   3.578  1.9744  0.2020 -0.0531
  885MOL0     H19441   2.710   6.710   3.391  0.6555  0.8580 -2.4221
  885MOL0     H19442   2.618   6.863   3.385  0.0686 -0.9714 -1.0839
  885MOL0     H19443   2.917   6.832   3.353  0.1774  2.0388  3.0710
  885MOL0     H19444   2.802   6.844   3.216 -2.3791  0.8191  0.3064
  885MOL0     H19445   2.915   7.063   3.284 -1.7938  1.0375 -2.3204
  885MOL0     H19446   2.832   7.060   3.432  0.7097 -2.7448  0.2513
  885MOL0     H19447   2.686   7.034   3.166 -0.9760  0.8852  0.1540
  885MOL0     H19448   2.603   7.097   3.307 -0.1361 -1.0796 -0.6967
  885MOL0     H19449   2.849   7.238   3.219  0.0147 -0.4576  0.8315
  885MOL0     H19450   2.712   7.294   3.318  0.8803 -2.1495  1.4500
  885MOL0     H19451   2.729   7.265   3.022  0.4020 -2.7246  0.5435
  885MOL0     H19452   2.575   7.272   3.124 -1.1210  3.1402  0.2880
  885MOL0     H19453   2.689   7.508   3.216  0.6604 -0.6484 -0.0896
  885MOL0     H19454   2.622   7.504   3.054 -2.7982 -3.1039  1.0212
  885MOL0     H19455   2.913   7.462   3.114 -0.6746 -0.2517 -0.2616
  885MOL0     H19456   2.838   7.612   3.032  0.2476 -0.0521 -2.3777
  885MOL0     H19457   2.847   6.698   3.780 -0.3903 -0.5164  3.1230
  885MOL0     H19458   2.692   6.620   3.951 -0.5663  0.2640  0.6999
  885MOL0     H19459   2.075   6.568   3.982 -1.3523 -1.4386  0.9218
  885MOL0     H19460   1.946   6.475   4.164  0.6273  2.7854  4.0065
  885MOL0     H19461   1.209   5.153   5.342  1.3461 -0.1793 -4.9933
  885MOL0     H19462   1.109   5.084   5.559 -0.4527 -3.6316  1.5245
  885MOL0     H19463   0.936   4.740   5.728 -0.8176  0.0420 -1.1513
  885MOL0     H19464   0.903   4.571   5.902  1.4803  1.1300 -1.2200
  885MOL0     H19465   0.763   4.380   5.918  1.9840 -1.7631  1.1652
  885MOL0     H19466   0.810   4.400   6.078  0.8396 -0.5680 -0.4262
  885MOL0     H19467   0.666   4.193   6.036 -0.3197 -0.5940  0.2379
  885MOL0     H19468   0.532   4.305   6.024 -0.8061  0.6467  2.3221
  885MOL0     H19469   0.619   4.390   6.257 -1.8978 -0.3403 -0.2099
  885MOL0     H19470   0.734   4.267   6.259  1.7379  2.1648 -1.2365
  885MOL0     H19471   0.419   4.233   6.231  0.5630  2.9204  0.5943
  885MOL0     H19472   0.505   4.229   6.378  2.7267  2.4963  0.5548
  885MOL0     H19473   0.553   3.827   6.255  0.3586 -0.0382  2.7322
  885MOL0     H19474   0.503   4.745   5.964 -0.6640  1.1600 -0.0025
  885MOL0     H19475   0.549   4.914   5.782 -1.8159 -2.3305 -1.3596
  886MOL0     O19476   9.516  10.642  10.909 -0.2965 -0.2468 -0.8580
  886MOL0     C19477   9.444  10.545  10.900  0.0555 -1.9746  0.5656
  886MOL0     O19478   9.343  10.508  10.979 -0.2176 -0.2742  0.4370
  886MOL0     C19479   9.324  10.553  11.102  0.0163 -0.3174 -0.6465
  886MOL0     C19480   9.211  10.503  11.163  0.5059 -0.4411 -0.9642
  886MOL0     C19481   9.164  10.545  11.289  0.3239 -0.1654 -0.2497
  886MOL0     C19482   9.236  10.625  11.368 -0.0972 -0.2160  0.3919
  886MOL0     O19483   9.195  10.639  11.499 -0.2477  0.1610  0.1495
  886MOL0     C19484   9.269  10.717  11.589 -0.0928  0.0821  0.4814
  886MOL0     C19485   9.197  10.735  11.724  0.1351  0.0479 -0.4671
  886MOL0     C19486   9.068  10.819  11.706 -0.7619 -0.0891  0.2109
  886MOL0     C19487   8.966  10.754  11.610  0.0363 -0.6403  0.6660
  886MOL0     C19488   8.821  10.806  11.630 -0.0596 -0.1939 -0.5358
  886MOL0     C19489   8.714  10.711  11.568  0.1408  0.7425 -0.7826
  886MOL0     C19490   8.675  10.740  11.425  0.9080  0.0998 -0.1664
  886MOL0     C19491   8.776  10.716  11.319 -0.0911 -0.2243  0.3293
  886MOL0     N19492   8.721  10.713  11.177  0.3185  0.5875 -0.6879
  886MOL0     C19493   8.635  10.613  11.134  0.7124 -0.4927  0.6522
  886MOL0     C19494   8.628  10.634  11.000  1.1092 -1.8435  0.0253
  886MOL0     C19495   8.539  10.582  10.896  0.6910  0.2532  0.4695
  886MOL0     C19496   8.539  10.429  10.867 -0.4078  0.1090  0.1668
  886MOL0     C19497   8.442  10.383  10.749 -0.5150  0.5541  0.7283
  886MOL0     C19498   8.458  10.233  10.706 -0.0310 -0.8779 -0.2772
  886MOL0     O19499   8.598  10.199  10.678 -0.1064  0.0227  0.3890
  886MOL0     C19500   8.622  10.068  10.638 -0.4061 -0.3981 -0.4456
  886MOL0     C19501   8.738  10.040  10.569  0.1713 -0.2642  0.0469
  886MOL0     C19502   8.781   9.914  10.523  0.4029  0.7526 -0.3090
  886MOL0     C19503   8.913   9.900  10.458 -0.0298 -0.5233 -0.0957
  886MOL0     C19504   8.695   9.806  10.539 -0.2807  0.5401  0.2968
  886MOL0     C19505   8.709   9.668  10.473 -0.4009 -0.1946 -0.4669
  886MOL0     O19506   8.643   9.560  10.518  0.8316  0.0731 -0.0285
  886MOL0     C19507   8.672   9.451  10.440  0.0249  0.4156  0.3166
  886MOL0     C19508   8.620   9.452  10.305  0.4182  0.7653  0.3974
  886MOL0     C19509   8.620   9.332  10.234 -0.9759  0.3620  0.1545
  886MOL0     C19510   8.698   9.226  10.276  0.4198 -0.2585 -0.4630
  886MOL0     O19511   8.719   9.124  10.196 -0.6933  0.1567 -0.1322
  886MOL0     C19512   8.803   9.138  10.086  0.1517  0.4870  0.3077
  886MOL0     C19513   8.793   9.011  10.001 -0.0672 -0.3863  0.1317
  886MOL0     C19514   8.664   9.010   9.905 -0.6937 -0.1965 -0.3934
  886MOL0     C19515   8.622   8.863   9.884  0.2035 -0.0367 -0.3429
  886MOL0     C19516   8.492   8.846   9.803 -0.1411  0.0977 -0.5504
  886MOL0     C19517   8.498   8.909   9.666 -0.5279  0.5753  0.3069
  886MOL0     C19518   8.367   8.867   9.589 -0.2640  0.5441  0.8552
  886MOL0     C19519   8.244   8.954   9.607 -0.1466  0.2697 -0.1591
  886MOL0    Cl19520   8.100   8.869   9.534 -0.3438 -0.1502 -0.2205
  886MOL0     C19521   8.762   9.226  10.399 -0.5625  0.6894 -0.0441
  886MOL0     C19522   8.738   9.329  10.487 -0.5417 -0.7513  0.3832
  886MOL0     O19523   8.768   9.670  10.368  0.5364 -0.0361 -0.6984
  886MOL0     C19524   8.576   9.829  10.609  0.2304  0.4395 -0.7711
  886MOL0     C19525   8.539   9.958  10.665 -0.8015  0.5156 -0.0607
  886MOL0     N19526   8.713  10.742  10.966  0.2164 -0.3509 -0.0299
  886MOL0     N19527   8.772  10.785  11.077  0.2596 -0.1817 -0.3907
  886MOL0     C19528   9.352  10.679  11.311  0.1776  0.0937  0.4771
  886MOL0     C19529   9.398  10.648  11.183 -0.2178  0.2656  0.2014
  886MOL0     C19530   9.459  10.465  10.779  0.0005 -0.0272  0.7822
  886MOL0     C19531   9.389  10.347  10.759  0.2137  0.5413  0.2255
  886MOL0     C19532   9.399  10.275  10.635  0.6275 -0.4194  0.6930
  886MOL0     C19533   9.492  10.308  10.542 -0.1967  1.0498 -0.1443
  886MOL0     O19534   9.492  10.229  10.429  0.1302 -0.4261 -0.1173
  886MOL0     C19535   9.543  10.294  10.310 -0.3250 -0.2007  0.2168
  886MOL0     C19536   9.528  10.200  10.190  0.7168  0.7229  0.6831
  886MOL0     C19537   9.389  10.137  10.175  0.8079  0.6388 -0.0739
  886MOL0     C19538   9.360  10.067  10.038  0.8085  0.0779  0.0177
  886MOL0     C19539   9.451   9.958  10.036  0.3572  0.1024 -0.0961
  886MOL0     C19540   9.537   9.876  10.015 -0.3309 -0.8978  0.1057
  886MOL0     C19541   9.581  10.407  10.573 -0.0646 -0.6213  0.6498
  886MOL0     C19542   9.567  10.489  10.689  0.4062 -0.1868 -0.4070
  886MOL0     H19543   9.138  10.442  11.110 -1.2664  2.6271 -2.3219
  886MOL0     H19544   9.083  10.487  11.333  2.9005 -3.2022  0.9448
  886MOL0     H19545   9.364  10.664  11.600 -0.5518 -0.7194  0.6743
  886MOL0     H19546   9.286  10.816  11.547  0.6619 -0.6394 -1.0016
  886MOL0     H19547   9.179  10.637  11.770 -2.4741 -0.5757 -2.5788
  886MOL0     H19548   9.253  10.800  11.793 -3.9941  0.9458  2.4637
  886MOL0     H19549   9.019  10.838  11.802 -0.0919  0.1620  0.5160
  886MOL0     H19550   9.096  10.914  11.660 -1.7802  1.1458  2.0576
  886MOL0     H19551   8.997  10.785  11.510  0.5684  2.5225  1.7157
  886MOL0     H19552   8.972  10.645  11.618 -2.2834 -1.0255 -1.5987
  886MOL0     H19553   8.811  10.796  11.739  0.3009  2.1228 -0.2427
  886MOL0     H19554   8.817  10.914  11.618  1.2735  0.1251  1.3739
  886MOL0     H19555   8.742  10.608  11.592 -0.5811  1.0672  1.6531
  886MOL0     H19556   8.629  10.710  11.636  0.9710  0.4634  0.2789
  886MOL0     H19557   8.587  10.677  11.409 -0.4017  1.5071  1.2261
  886MOL0     H19558   8.633  10.841  11.418 -0.1144 -0.3246 -0.3440
  886MOL0     H19559   8.828  10.621  11.334 -2.0697 -1.7008 -1.3885
  886MOL0     H19560   8.847  10.799  11.318  3.0046 -2.6918 -1.0463
  886MOL0     H19561   8.589  10.536  11.196  0.3101 -1.2011 -0.4980
  886MOL0     H19562   8.434  10.600  10.920  0.8935  2.4868 -0.1273
  886MOL0     H19563   8.578  10.623  10.803  0.1619  3.8073  1.6839
  886MOL0     H19564   8.517  10.370  10.956 -1.2359 -2.8770 -1.8853
  886MOL0     H19565   8.644  10.406  10.847 -0.3416  2.1159 -2.3709
  886MOL0     H19566   8.463  10.436  10.656 -1.6613 -1.4849 -0.7537
  886MOL0     H19567   8.335  10.394  10.773 -0.7208 -2.7830  1.8630
  886MOL0     H19568   8.401  10.224  10.613  0.2314  2.3234 -0.8394
  886MOL0     H19569   8.413  10.167  10.782  0.1822 -1.2729 -0.4889
  886MOL0     H19570   8.816  10.110  10.540  0.3826 -0.8148 -0.7436
  886MOL0     H19571   8.884   9.899  10.352 -0.7470  0.1507  0.0899
  886MOL0     H19572   8.966   9.989  10.492 -0.5802 -1.7313  4.5356
  886MOL0     H19573   8.969   9.808  10.474  1.1766 -0.1912 -2.0340
  886MOL0     H19574   8.585   9.540  10.253 -3.8973 -2.0601 -2.0902
  886MOL0     H19575   8.587   9.333  10.130 -2.2337 -0.3104  0.5251
  886MOL0     H19576   8.789   9.231  10.030 -0.8906  0.6496  0.8090
  886MOL0     H19577   8.904   9.147  10.126  1.3938 -0.7623 -2.3047
  886MOL0     H19578   8.878   9.006   9.932  0.4140  0.0440  0.6768
  886MOL0     H19579   8.811   8.934  10.076 -1.5394  1.0993  2.1290
  886MOL0     H19580   8.686   9.054   9.807  2.2549  3.7245  1.7299
  886MOL0     H19581   8.584   9.071   9.948  0.6371  0.0388  1.9439
  886MOL0     H19582   8.707   8.823   9.827  1.2281  1.3817  0.1219
  886MOL0     H19583   8.611   8.808   9.977 -0.0412  0.0296 -0.3315
  886MOL0     H19584   8.412   8.888   9.865  0.1892 -1.0305  0.6871
  886MOL0     H19585   8.479   8.738   9.794  2.8821 -0.4522  0.4213
  886MOL0     H19586   8.510   9.016   9.683  1.7286  0.5476 -0.8252
  886MOL0     H19587   8.582   8.872   9.607  0.0868  1.2667  0.7254
  886MOL0     H19588   8.326   8.769   9.615 -0.1947  0.3750  0.3321
  886MOL0     H19589   8.391   8.860   9.483 -1.6924  0.2529  0.5335
  886MOL0     H19590   8.252   9.037   9.537 -0.3859 -0.9010 -1.6246
  886MOL0     H19591   8.232   8.994   9.708  2.2561 -1.1040  0.7462
  886MOL0     H19592   8.825   9.145  10.434 -0.7846 -1.1483 -3.4312
  886MOL0     H19593   8.782   9.311  10.585  1.2505 -4.9766 -0.9517
  886MOL0     H19594   8.508   9.745  10.610  2.0469 -1.0880 -1.2681
  886MOL0     H19595   8.455   9.962  10.734 -2.5545 -0.5184 -2.0215
  886MOL0     H19596   9.403  10.764  11.356 -2.0129  1.7131  0.0358
  886MOL0     H19597   9.477  10.717  11.154  0.9505  1.0937  4.6461
  886MOL0     H19598   9.317  10.305  10.828 -1.0090 -3.8102 -3.1630
  886MOL0     H19599   9.337  10.191  10.607  1.1672 -0.1352 -1.5641
  886MOL0     H19600   9.496  10.390  10.290  0.8637  0.0612 -1.4922
  886MOL0     H19601   9.650  10.309  10.327 -0.4415  2.0603 -0.7895
  886MOL0     H19602   9.595  10.114  10.194  0.2835  0.2699 -0.9644
  886MOL0     H19603   9.553  10.256  10.099 -1.7652 -0.7496 -1.0197
  886MOL0     H19604   9.324  10.225  10.180 -2.1644 -1.3738 -0.5567
  886MOL0     H19605   9.356  10.065  10.250  0.8078 -0.0633 -0.7332
  886MOL0     H19606   9.371  10.136   9.953  1.2280 -0.1146 -0.0901
  886MOL0     H19607   9.255  10.037  10.032  1.1014 -1.3267  1.4506
  886MOL0     H19608   9.621   9.809  10.011 -0.5955 -1.3430  1.5502
  886MOL0     H19609   9.662  10.428  10.504 -1.1643 -1.5019 -0.9811
  886MOL0     H19610   9.641  10.566  10.709 -1.1804  1.5513 -0.9749
  887MOL0     O19611   8.580   5.315  10.070 -0.7775  0.6351  0.0270
  887MOL0     C19612   8.676   5.373  10.036 -0.2253 -0.4829 -0.3335
  887MOL0     O19613   8.699   5.510  10.065 -0.1549  0.1781 -0.3781
  887MOL0     C19614   8.627   5.597  10.141 -0.1513 -0.1610  1.5306
  887MOL0     C19615   8.519   5.569  10.220  0.2595 -0.1548  0.3748
  887MOL0     C19616   8.451   5.666  10.300 -0.0678 -0.3103 -0.1858
  887MOL0     C19617   8.500   5.799  10.294 -0.3155  0.7474 -0.1120
  887MOL0     O19618   8.445   5.880  10.395  0.5264 -0.2194  0.7458
  887MOL0     C19619   8.448   6.026  10.396  0.2755  0.1071  0.8031
  887MOL0     C19620   8.363   6.088  10.516  0.2731 -0.5741  0.7678
  887MOL0     C19621   8.383   6.005  10.646  0.4165 -0.7001  1.1282
  887MOL0     C19622   8.294   6.070  10.758  0.7938  0.2562 -0.1238
  887MOL0     C19623   8.330   6.042  10.896  0.5048 -0.4467 -0.1112
  887MOL0     C19624   8.315   5.896  10.938 -0.5246  0.0052 -0.3936
  887MOL0     C19625   8.166   5.851  10.951 -0.0364 -0.3312  0.4415
  887MOL0     C19626   8.144   5.724  10.876 -0.0278 -0.2380 -0.0387
  887MOL0     N19627   7.997   5.713  10.863  0.4774  0.2014  0.1581
  887MOL0     C19628   7.909   5.762  10.764  0.1380 -0.9060 -0.1237
  887MOL0     C19629   7.781   5.737  10.817 -0.2258  0.2858 -0.4134
  887MOL0     C19630   7.634   5.763  10.773 -0.0538  0.6749 -0.8072
  887MOL0     C19631   7.605   5.909  10.823  0.1231  0.2181 -0.2065
  887MOL0     C19632   7.600   5.949  10.968  0.4392  0.2145  0.3097
  887MOL0     C19633   7.504   5.853  11.042 -0.1844  1.6534 -0.0251
  887MOL0     O19634   7.492   5.921  11.166 -0.2790  0.3464 -0.5216
  887MOL0     C19635   7.417   5.869  11.269  0.4443 -0.3420  0.5621
  887MOL0     C19636   7.432   5.930  11.397  0.5515  0.3937  0.8346
  887MOL0     C19637   7.358   5.873  11.504 -0.9130 -0.9967 -0.6158
  887MOL0     C19638   7.400   5.932  11.646  1.0123  0.7392  0.3793
  887MOL0     C19639   7.270   5.769  11.478 -0.6707  0.5823  0.3193
  887MOL0     C19640   7.189   5.707  11.585  0.2809  1.1533  0.0734
  887MOL0     O19641   7.146   5.576  11.560 -0.0413 -0.8671  0.1236
  887MOL0     C19642   7.114   5.500  11.670  1.0312 -1.0899 -0.4066
  887MOL0     C19643   6.980   5.489  11.708 -0.4294 -0.7122  0.0397
  887MOL0     C19644   6.944   5.426  11.832 -0.5583 -0.4043 -0.0133
  887MOL0     C19645   7.043   5.365  11.903  0.3229 -0.1721 -1.6281
  887MOL0     O19646   7.013   5.304  12.021  0.7215  0.2424 -0.5111
  887MOL0     C19647   7.048   5.165  12.022  0.0340 -0.6386 -0.0988
  887MOL0     C19648   6.992   5.102  12.151  1.0183  1.0858  0.3572
  887MOL0     C19649   6.990   4.944  12.160  0.2607 -0.5050  0.2032
  887MOL0     C19650   6.850   4.878  12.142 -0.5257  0.1880 -0.2388
  887MOL0     C19651   6.871   4.728  12.114  0.2334  0.7918 -0.1256
  887MOL0     C19652   6.737   4.656  12.118  0.4228 -0.2776 -0.4519
  887MOL0     C19653   6.630   4.705  12.010  0.5093  0.0497 -0.3360
  887MOL0     C19654   6.693   4.707  11.874  0.5441 -0.5752  0.7389
  887MOL0    Cl19655   6.554   4.754  11.767  0.2984  0.0990 -0.2743
  887MOL0     C19656   7.175   5.378  11.867  0.2779  0.4555 -0.0833
  887MOL0     C19657   7.208   5.434  11.746 -0.5938  0.2524 -0.0876
  887MOL0     O19658   7.169   5.760  11.691  0.1746 -0.1858 -0.2027
  887MOL0     C19659   7.261   5.713  11.353  0.4770  0.5688 -0.4102
  887MOL0     C19660   7.343   5.763  11.252  0.4365  0.1501 -0.0636
  887MOL0     N19661   7.800   5.657  10.936 -0.5060 -0.5918  0.1361
  887MOL0     N19662   7.930   5.645  10.960 -0.6728 -0.1525 -0.8590
  887MOL0     C19663   8.617   5.829  10.226 -0.0980 -0.6092  0.4068
  887MOL0     C19664   8.678   5.733  10.149  0.3337  0.1462 -1.1881
  887MOL0     C19665   8.777   5.295   9.956 -0.6888  0.4069  0.1275
  887MOL0     C19666   8.774   5.156   9.948 -0.3509 -0.0658 -0.9303
  887MOL0     C19667   8.870   5.078   9.884  0.3599  1.0542  0.7471
  887MOL0     C19668   8.976   5.131   9.812 -0.6920  0.5302  0.5024
  887MOL0     O19669   9.062   5.046   9.748  0.0413  0.0045 -0.3677
  887MOL0     C19670   9.195   5.089   9.709  0.4622 -0.4052  0.2765
  887MOL0     C19671   9.292   5.102   9.824 -0.8755  0.3744 -0.5782
  887MOL0     C19672   9.436   5.155   9.793 -0.5903 -0.0833 -0.1816
  887MOL0     C19673   9.468   5.273   9.873  0.7854  0.4700  0.2333
  887MOL0     C19674   9.385   5.388   9.832  0.0210 -0.2879 -0.0137
  887MOL0     C19675   9.350   5.504   9.806  1.2738  0.3633  0.1830
  887MOL0     C19676   8.985   5.282   9.822 -0.2277 -0.0721 -0.3307
  887MOL0     C19677   8.886   5.359   9.891 -0.6718  0.8513 -0.0070
  887MOL0     H19678   8.488   5.465  10.217  1.6770 -0.6746  1.7969
  887MOL0     H19679   8.379   5.634  10.375  0.1898  0.9928  0.6448
  887MOL0     H19680   8.545   6.076  10.390 -0.9977  2.6428 -0.3494
  887MOL0     H19681   8.418   6.052  10.293 -0.6097 -4.5779 -0.3513
  887MOL0     H19682   8.389   6.193  10.535  0.2588 -0.7260  1.6544
  887MOL0     H19683   8.258   6.074  10.489 -0.1650  0.2556  1.9752
  887MOL0     H19684   8.353   5.902  10.629  2.2480 -0.7722 -2.7665
  887MOL0     H19685   8.485   6.009  10.686 -0.3243 -0.4659  3.1329
  887MOL0     H19686   8.294   6.179  10.752  0.7191  0.3140  0.8221
  887MOL0     H19687   8.192   6.033  10.740  0.5151  1.6763 -1.6996
  887MOL0     H19688   8.439   6.053  10.889  0.8688 -3.6418 -0.9250
  887MOL0     H19689   8.281   6.111  10.965  1.2964  1.5959 -1.4601
  887MOL0     H19690   8.375   5.824  10.882 -2.0510 -1.0797 -0.6979
  887MOL0     H19691   8.335   5.900  11.045  2.0138  2.0168 -0.8504
  887MOL0     H19692   8.129   5.834  11.052 -0.6243 -0.5762  0.1933
  887MOL0     H19693   8.097   5.931  10.921 -0.6674  1.1079  4.9933
  887MOL0     H19694   8.168   5.641  10.944 -3.1923 -1.1734  0.1084
  887MOL0     H19695   8.189   5.719  10.776 -2.0942  0.9086 -1.0918
  887MOL0     H19696   7.928   5.813  10.670  0.5952 -0.7669  0.0412
  887MOL0     H19697   7.640   5.728  10.670  2.4044 -2.8571  0.3283
  887MOL0     H19698   7.564   5.698  10.827  2.5519 -0.4631  1.4511
  887MOL0     H19699   7.502   5.933  10.795  0.7328  0.6995 -2.1989
  887MOL0     H19700   7.663   5.984  10.768  2.0502 -1.6848 -0.9130
  887MOL0     H19701   7.550   6.046  10.973 -2.4611 -1.1530  0.3632
  887MOL0     H19702   7.700   5.958  11.011 -0.2000  0.4277  1.8258
  887MOL0     H19703   7.549   5.753  11.044 -1.3588  1.1004  0.0694
  887MOL0     H19704   7.407   5.848  10.991 -1.2009  0.8133  1.8754
  887MOL0     H19705   7.509   6.006  11.396  0.6671  0.3157 -1.8746
  887MOL0     H19706   7.466   5.867  11.703  1.6864  2.5353  1.7314
  887MOL0     H19707   7.461   6.019  11.618  0.5109  0.3589 -2.1448
  887MOL0     H19708   7.320   5.950  11.718 -1.3707  2.9245 -2.5308
  887MOL0     H19709   6.911   5.532  11.637  0.1596 -1.1457 -0.8156
  887MOL0     H19710   6.847   5.429  11.880 -0.1873  1.4952  0.7155
  887MOL0     H19711   7.003   5.116  11.935  2.0013  0.8193 -2.0660
  887MOL0     H19712   7.156   5.148  12.024  0.0166 -0.7032  0.5681
  887MOL0     H19713   7.064   5.126  12.230  4.0475  1.3517 -2.2949
  887MOL0     H19714   6.901   5.158  12.173  0.5841  1.5472 -2.2637
  887MOL0     H19715   7.031   4.923  12.260 -0.5995  1.9465  1.1428
  887MOL0     H19716   7.064   4.912  12.086  0.0358  0.9822 -0.6989
  887MOL0     H19717   6.778   4.899  12.221  0.6624  2.0575  0.4357
  887MOL0     H19718   6.810   4.921  12.049  0.6687 -3.0314 -2.4021
  887MOL0     H19719   6.931   4.685  12.196 -0.7055 -1.9078 -0.7362
  887MOL0     H19720   6.925   4.697  12.024 -1.3603 -2.1375 -0.2233
  887MOL0     H19721   6.749   4.547  12.111 -0.2708 -0.6579  2.7491
  887MOL0     H19722   6.691   4.683  12.213  1.1006 -0.6243 -0.0169
  887MOL0     H19723   6.583   4.801  12.033  0.2082 -0.2357  0.2714
  887MOL0     H19724   6.558   4.622  12.013  2.4394 -1.7004  1.3392
  887MOL0     H19725   6.737   4.611  11.847 -2.6556 -1.6654 -1.0142
  887MOL0     H19726   6.773   4.781  11.862  0.8791 -0.6214  2.3742
  887MOL0     H19727   7.251   5.331  11.929 -1.2086 -3.4142 -0.9079
  887MOL0     H19728   7.312   5.451  11.721 -0.6070 -1.3263 -1.3622
  887MOL0     H19729   7.196   5.627  11.342 -4.1605  3.3437  2.0312
  887MOL0     H19730   7.338   5.718  11.153 -4.1362  0.8172 -0.3565
  887MOL0     H19731   8.663   5.926  10.237  1.6125 -1.4886  1.4636
  887MOL0     H19732   8.771   5.759  10.100 -0.2601 -1.4459 -3.2851
  887MOL0     H19733   8.706   5.087   9.997  0.0648  1.4151  1.9472
  887MOL0     H19734   8.866   4.972   9.902  2.6925  0.5736 -1.1193
  887MOL0     H19735   9.224   5.013   9.636 -2.6842 -2.2535  0.7621
  887MOL0     H19736   9.191   5.184   9.656  2.0036  0.1075  1.0014
  887MOL0     H19737   9.293   5.009   9.881 -3.0213  0.8129  0.2380
  887MOL0     H19738   9.250   5.173   9.895  0.9284  0.7177  0.2012
  887MOL0     H19739   9.449   5.177   9.686 -3.1073  4.1716  0.1646
  887MOL0     H19740   9.515   5.089   9.830  1.4814  3.1002  1.5273
  887MOL0     H19741   9.567   5.318   9.867  0.4661  1.1226 -0.3907
  887MOL0     H19742   9.451   5.246   9.977  5.3994 -0.8027  0.8491
  887MOL0     H19743   9.321   5.605   9.783  3.0788  0.3459 -2.7291
  887MOL0     H19744   9.064   5.335   9.769  1.5013 -2.6148 -0.4723
  887MOL0     H19745   8.899   5.467   9.901 -2.3217  1.0776 -0.0214
  888MOL0     O19746   3.228   8.035   1.857  0.2563  0.2162  0.3424
  888MOL0     C19747   3.166   8.143   1.852  0.0083  0.3622 -0.5538
  888MOL0     O19748   3.086   8.182   1.954 -0.2383 -0.0316 -0.2393
  888MOL0     C19749   3.080   8.093   2.059 -0.1325  0.8278  0.2604
  888MOL0     C19750   3.174   8.093   2.163  0.4240 -0.7422 -0.1133
  888MOL0     C19751   3.154   8.013   2.266 -0.1311  0.3941 -0.5978
  888MOL0     C19752   3.041   7.918   2.262 -0.3079 -0.1024 -0.0932
  888MOL0     O19753   3.001   7.824   2.362  0.0182 -0.1208 -0.2814
  888MOL0     C19754   3.091   7.805   2.468 -1.2109 -0.4698 -0.2864
  888MOL0     C19755   3.049   7.679   2.545  0.4305 -0.1115 -0.5922
  888MOL0     C19756   3.151   7.667   2.663  0.6166 -0.4799 -0.5431
  888MOL0     C19757   3.129   7.763   2.782  0.1519 -0.4995  0.2650
  888MOL0     C19758   3.248   7.761   2.876 -0.1100 -0.6926 -0.4539
  888MOL0     C19759   3.221   7.871   2.994  0.0405  0.3261  0.2659
  888MOL0     C19760   3.089   7.846   3.069 -0.3643 -0.1664  0.1805
  888MOL0     C19761   3.077   7.916   3.214 -0.1270 -0.4265 -0.4515
  888MOL0     N19762   3.072   8.064   3.194  0.1104  0.1817  0.6529
  888MOL0     C19763   3.163   8.167   3.221 -0.5449  1.0009  0.8947
  888MOL0     C19764   3.113   8.287   3.182 -0.3450  0.4564  0.1684
  888MOL0     C19765   3.186   8.411   3.171  0.6128 -0.2905 -0.1660
  888MOL0     C19766   3.184   8.487   3.033  0.6825 -0.1311 -0.1148
  888MOL0     C19767   3.247   8.626   3.036 -0.4945 -0.7520 -0.6330
  888MOL0     C19768   3.275   8.671   2.891 -1.1139 -0.8679 -0.7990
  888MOL0     O19769   3.159   8.694   2.812 -0.1040 -0.1480  0.3287
  888MOL0     C19770   3.174   8.759   2.690  0.0614 -0.3491 -0.3387
  888MOL0     C19771   3.291   8.758   2.610 -0.1193  0.0893  0.4634
  888MOL0     C19772   3.298   8.832   2.488 -0.5108 -0.0107  0.4917
  888MOL0     C19773   3.428   8.837   2.404  0.6453 -0.0483 -0.1529
  888MOL0     C19774   3.177   8.882   2.435  0.1061  0.1287  0.2613
  888MOL0     C19775   3.167   8.938   2.297  1.1553  0.2089  0.6160
  888MOL0     O19776   3.086   9.048   2.293  0.0396 -0.3803 -0.0368
  888MOL0     C19777   3.067   9.119   2.180 -0.8147 -0.9657  0.8362
  888MOL0     C19778   3.028   9.046   2.070 -0.5675  1.0593 -0.3633
  888MOL0     C19779   3.019   9.107   1.944 -0.8004  0.7989  0.2789
  888MOL0     C19780   3.048   9.244   1.933 -0.6754 -0.9384  1.5157
  888MOL0     O19781   3.031   9.316   1.817 -0.2034 -0.2258 -0.1257
  888MOL0     C19782   2.924   9.281   1.730  0.4832  0.0694 -0.5414
  888MOL0     C19783   2.907   9.385   1.622  0.4237  0.3904 -0.5061
  888MOL0     C19784   2.845   9.511   1.686  0.1521  1.1564  0.5169
  888MOL0     C19785   2.849   9.634   1.586  0.5450  0.6882  0.0578
  888MOL0     C19786   2.725   9.635   1.486 -0.0817  0.3214 -0.5636
  888MOL0     C19787   2.767   9.571   1.355  0.2546 -0.1668  0.7874
  888MOL0     C19788   2.844   9.669   1.273 -0.4616  1.0098  0.0417
  888MOL0     C19789   2.814   9.653   1.118 -0.7469  0.3444 -0.3500
  888MOL0    Cl19790   2.899   9.777   1.038 -0.1547 -0.4413 -0.2604
  888MOL0     C19791   3.101   9.315   2.038 -0.2112  0.0611  0.0399
  888MOL0     C19792   3.114   9.246   2.162 -0.0754 -0.5737 -0.3318
  888MOL0     O19793   3.236   8.895   2.207  0.3215  0.1209 -0.0056
  888MOL0     C19794   3.063   8.866   2.517 -0.2041 -0.3345  0.3503
  888MOL0     C19795   3.062   8.815   2.637 -0.3416 -0.3013 -0.2707
  888MOL0     N19796   2.988   8.259   3.133 -0.1912  0.4106 -0.1904
  888MOL0     N19797   2.961   8.128   3.141  0.6442  0.2895  0.4130
  888MOL0     C19798   2.947   7.930   2.165 -0.0023 -0.7188 -0.7138
  888MOL0     C19799   2.964   8.016   2.066  0.0517  0.9972  0.4122
  888MOL0     C19800   3.203   8.234   1.739  0.1966 -0.4407  0.6603
  888MOL0     C19801   3.176   8.374   1.748 -0.0359 -0.2362 -0.0656
  888MOL0     C19802   3.213   8.462   1.649  0.2666 -0.3902 -0.4860
  888MOL0     C19803   3.274   8.417   1.538 -0.5030  0.3797  0.3549
  888MOL0     O19804   3.321   8.510   1.441  0.2844  1.0465 -0.0345
  888MOL0     C19805   3.388   8.463   1.319  0.6439 -0.6074 -1.0806
  888MOL0     C19806   3.418   8.582   1.229  1.0320  0.0461 -0.0991
  888MOL0     C19807   3.286   8.653   1.185  0.0122 -0.6788 -1.7491
  888MOL0     C19808   3.308   8.751   1.072 -0.1133 -0.6893 -0.5076
  888MOL0     C19809   3.383   8.871   1.125 -0.8268 -0.0084  0.3879
  888MOL0     C19810   3.454   8.961   1.160 -1.4747 -0.0170  0.1126
  888MOL0     C19811   3.297   8.280   1.519  0.3897 -1.1215  0.3468
  888MOL0     C19812   3.264   8.183   1.617  0.1003  0.6214 -0.4903
  888MOL0     H19813   3.265   8.152   2.158 -0.5649  1.2397  2.8556
  888MOL0     H19814   3.227   8.014   2.346 -1.7774  0.7001  0.9685
  888MOL0     H19815   3.188   7.799   2.419 -2.6723  2.9228 -4.2150
  888MOL0     H19816   3.094   7.893   2.534 -1.4844  2.3635 -3.7665
  888MOL0     H19817   2.945   7.674   2.578 -0.2354  0.4934 -2.4456
  888MOL0     H19818   3.052   7.587   2.486 -2.6144 -2.9286  3.1148
  888MOL0     H19819   3.130   7.566   2.698 -2.6458 -0.0224 -0.8801
  888MOL0     H19820   3.252   7.668   2.620  0.0151  0.1127 -2.0119
  888MOL0     H19821   3.104   7.863   2.746 -1.7809 -0.9779  0.1938
  888MOL0     H19822   3.045   7.720   2.838 -1.8695  0.8740 -1.5563
  888MOL0     H19823   3.267   7.660   2.912  0.7519  0.1399  1.6312
  888MOL0     H19824   3.332   7.804   2.821  0.0643  0.6216  0.7596
  888MOL0     H19825   3.308   7.858   3.059 -1.3676 -5.0750  1.5588
  888MOL0     H19826   3.228   7.974   2.957  2.0656  0.0831 -0.1982
  888MOL0     H19827   3.008   7.881   3.005  0.6488  1.4923 -0.2496
  888MOL0     H19828   3.087   7.737   3.074  1.4862 -0.2381  0.0154
  888MOL0     H19829   3.162   7.885   3.276  0.4853 -1.2708 -1.6675
  888MOL0     H19830   2.990   7.897   3.278  1.5878  1.4847  2.7366
  888MOL0     H19831   3.260   8.147   3.265  0.8552 -1.6453 -2.8424
  888MOL0     H19832   3.151   8.486   3.243  4.2046  0.3875  1.0695
  888MOL0     H19833   3.291   8.397   3.197  1.5180 -2.8739 -4.3001
  888MOL0     H19834   3.080   8.510   3.008  1.0843 -0.7972 -2.7383
  888MOL0     H19835   3.237   8.433   2.954 -0.3507  0.6777 -1.3958
  888MOL0     H19836   3.332   8.633   3.105 -1.4657  2.8687  0.4203
  888MOL0     H19837   3.165   8.688   3.073 -1.6397 -1.0194 -2.5546
  888MOL0     H19838   3.344   8.602   2.843 -0.4617  0.3784 -1.7154
  888MOL0     H19839   3.337   8.758   2.911  0.0881 -1.4152 -1.9675
  888MOL0     H19840   3.382   8.706   2.639 -0.3273 -1.2299 -1.0370
  888MOL0     H19841   3.423   8.783   2.309 -1.9311  0.9674 -0.6986
  888MOL0     H19842   3.461   8.940   2.386 -1.7658  1.0257  1.0665
  888MOL0     H19843   3.496   8.789   2.475 -1.4213 -1.7551  0.7956
  888MOL0     H19844   3.016   8.940   2.090  2.5047  0.7680  0.4530
  888MOL0     H19845   2.995   9.051   1.854 -0.8475 -1.8995  1.8574
  888MOL0     H19846   2.932   9.179   1.690  0.2126  0.1272 -0.7444
  888MOL0     H19847   2.835   9.283   1.794  1.2944  0.9384  0.6185
  888MOL0     H19848   3.008   9.396   1.582  1.4874  0.3359  1.9747
  888MOL0     H19849   2.833   9.352   1.548  2.2631  0.2124 -2.3636
  888MOL0     H19850   2.911   9.537   1.769  3.2710 -1.2699 -0.9897
  888MOL0     H19851   2.742   9.501   1.723  0.2357  2.5856  1.2019
  888MOL0     H19852   2.826   9.717   1.653  0.1676  0.0761  0.6908
  888MOL0     H19853   2.944   9.645   1.533  0.4539 -1.5075 -0.6562
  888MOL0     H19854   2.703   9.740   1.470  2.0639  1.2274  1.7153
  888MOL0     H19855   2.646   9.575   1.533  0.0520  0.0246 -0.7173
  888MOL0     H19856   2.822   9.478   1.373  0.9442  0.1253  0.2563
  888MOL0     H19857   2.682   9.544   1.291  0.4023  2.4463 -0.6513
  888MOL0     H19858   2.952   9.660   1.285  0.0601  1.7635 -3.1416
  888MOL0     H19859   2.819   9.771   1.302  3.3320  2.7831 -2.1556
  888MOL0     H19860   2.706   9.661   1.099 -0.8996 -0.2169  0.2341
  888MOL0     H19861   2.852   9.560   1.074 -0.9515  0.8099 -1.5584
  888MOL0     H19862   3.123   9.421   2.026 -2.2790  0.8875  2.6872
  888MOL0     H19863   3.157   9.282   2.254  0.6791 -1.3083 -0.3840
  888MOL0     H19864   2.971   8.904   2.474  0.3084 -1.8292 -2.3435
  888MOL0     H19865   2.967   8.813   2.690 -0.1788  0.6848  0.0906
  888MOL0     H19866   2.857   7.873   2.186 -1.0195  1.0964  0.0837
  888MOL0     H19867   2.889   8.040   1.991 -1.1700  0.5119  1.4449
  888MOL0     H19868   3.123   8.399   1.840  0.8609 -0.9471  0.6682
  888MOL0     H19869   3.190   8.567   1.660 -1.2207 -0.5944 -1.3283
  888MOL0     H19870   3.485   8.425   1.353  1.6789  1.3391 -1.6879
  888MOL0     H19871   3.330   8.393   1.258  1.3342 -1.0221 -1.2709
  888MOL0     H19872   3.464   8.545   1.137 -2.8762 -1.7075 -1.5603
  888MOL0     H19873   3.477   8.660   1.278  1.1257 -0.4475  0.5950
  888MOL0     H19874   3.236   8.692   1.273  1.6270  0.6573 -1.3825
  888MOL0     H19875   3.222   8.573   1.145  0.7362 -0.9216 -2.4705
  888MOL0     H19876   3.215   8.789   1.029 -0.3369  0.2359  0.7422
  888MOL0     H19877   3.373   8.717   0.991  0.7658  5.2058 -2.6964
  888MOL0     H19878   3.519   9.041   1.190 -0.5905  0.8337 -3.5402
  888MOL0     H19879   3.341   8.258   1.422  0.4277  1.4718 -0.3179
  888MOL0     H19880   3.297   8.081   1.609 -0.0868  0.3604  1.5537
  889MOL0     O19881   3.098   6.682  10.844 -1.3184 -1.0392  0.4608
  889MOL0     C19882   3.142   6.726  10.947  0.1789  0.1259 -0.3510
  889MOL0     O19883   3.151   6.856  10.988  0.0535  0.3206 -0.3100
  889MOL0     C19884   3.079   6.951  10.916 -0.4436  0.1961 -0.7644
  889MOL0     C19885   2.942   6.965  10.945  0.4590  0.1576  0.1720
  889MOL0     C19886   2.874   7.079  10.903 -0.2061  1.7372 -0.1223
  889MOL0     C19887   2.946   7.189  10.844  0.7030  1.5686  0.0183
  889MOL0     O19888   2.895   7.310  10.804 -0.5496 -0.1645  0.4374
  889MOL0     C19889   2.753   7.327  10.776  0.8597 -1.5541 -0.0166
  889MOL0     C19890   2.724   7.301  10.629  0.4243  0.7028  0.2345
  889MOL0     C19891   2.753   7.426  10.544  0.3938 -0.2738 -0.2215
  889MOL0     C19892   2.641   7.528  10.527  0.0503  0.2373  0.3019
  889MOL0     C19893   2.595   7.604  10.646 -0.4612  0.0367 -0.3580
  889MOL0     C19894   2.516   7.716  10.583  0.4205 -0.3549 -1.0971
  889MOL0     C19895   2.440   7.805  10.693  0.3408  0.1286 -0.2961
  889MOL0     C19896   2.339   7.902  10.639  0.0592 -0.6697 -0.2815
  889MOL0     N19897   2.378   8.027  10.704 -0.4147  0.2551  0.1026
  889MOL0     C19898   2.340   8.085  10.825  0.7697  0.3270  0.0035
  889MOL0     C19899   2.402   8.202  10.820  0.0783 -0.0497  0.7443
  889MOL0     C19900   2.398   8.308  10.923 -0.0418  0.8215  0.5198
  889MOL0     C19901   2.264   8.388  10.911 -1.1808 -0.0918  0.7854
  889MOL0     C19902   2.274   8.514  10.981 -0.1662 -0.6291  0.5784
  889MOL0     C19903   2.280   8.510  11.132  0.9824 -0.9121 -0.4343
  889MOL0     O19904   2.227   8.636  11.175 -0.4148 -0.6105  0.0135
  889MOL0     C19905   2.314   8.732  11.205  0.2927 -0.0643 -0.7683
  889MOL0     C19906   2.351   8.755  11.339 -0.2094  0.4658  0.9940
  889MOL0     C19907   2.439   8.855  11.371 -0.0762  0.2553 -0.0565
  889MOL0     C19908   2.482   8.870  11.518  0.3666 -0.1596 -0.3199
  889MOL0     C19909   2.484   8.943  11.264 -0.1424 -0.1728 -0.8936
  889MOL0     C19910   2.571   9.060  11.283  0.3269 -0.2742 -0.0888
  889MOL0     O19911   2.622   9.128  11.172  0.5446 -0.4190 -0.1485
  889MOL0     C19912   2.692   9.244  11.185 -0.3599 -0.4816  1.4246
  889MOL0     C19913   2.618   9.361  11.156 -0.5831 -0.5323 -0.4575
  889MOL0     C19914   2.680   9.488  11.157  0.7316 -0.2957  1.0485
  889MOL0     C19915   2.819   9.501  11.183 -0.0152 -0.2991  0.0492
  889MOL0     O19916   2.874   9.625  11.200  0.7562  0.2189  0.0961
  889MOL0     C19917   2.945   9.634  11.326  0.2332 -0.2913  0.7148
  889MOL0     C19918   2.961   9.790  11.345  0.5571  0.6943 -0.0403
  889MOL0     C19919   2.833   9.870  11.369 -0.8138  0.2838 -0.7036
  889MOL0     C19920   2.855   9.992  11.460 -0.3960  0.0644 -1.0110
  889MOL0     C19921   2.747  10.088  11.431  0.2226  0.5034  0.9118
  889MOL0     C19922   2.782  10.233  11.470 -0.0388  0.1093 -0.5761
  889MOL0     C19923   2.670  10.335  11.448  0.1685  1.2995  0.2645
  889MOL0     C19924   2.706  10.483  11.503  0.5728 -0.1745 -0.6888
  889MOL0    Cl19925   2.583  10.599  11.468 -0.6995 -0.2324  0.5830
  889MOL0     C19926   2.887   9.377  11.205  0.3631 -0.3523  0.1017
  889MOL0     C19927   2.826   9.252  11.205  0.5020 -0.3412 -0.8458
  889MOL0     O19928   2.600   9.098  11.397 -0.4654 -0.3692  0.2056
  889MOL0     C19929   2.436   8.922  11.124  0.5986  0.7317  0.4511
  889MOL0     C19930   2.352   8.818  11.098  0.5043 -0.1486 -0.6962
  889MOL0     N19931   2.468   8.222  10.697 -0.3665  0.6333 -0.1238
  889MOL0     N19932   2.452   8.115  10.626  0.2055 -0.3736  0.9481
  889MOL0     C19933   3.080   7.165  10.816 -0.2614  0.1681  0.1448
  889MOL0     C19934   3.148   7.047  10.855 -0.5106 -0.5517  0.2513
  889MOL0     C19935   3.198   6.626  11.040 -0.3325 -0.6294 -0.3132
  889MOL0     C19936   3.229   6.664  11.173  0.5407  0.3760 -0.7525
  889MOL0     C19937   3.308   6.569  11.249  1.1309 -0.1472 -0.0249
  889MOL0     C19938   3.358   6.452  11.194  0.4105  0.1431  0.4407
  889MOL0     O19939   3.413   6.350  11.265 -0.6354  0.1020 -0.0260
  889MOL0     C19940   3.546   6.376  11.316 -0.1081  0.0617  0.5560
  889MOL0     C19941   3.603   6.266  11.408  0.0381  0.0581 -0.0241
  889MOL0     C19942   3.709   6.308  11.514  0.1033 -0.7417  1.0597
  889MOL0     C19943   3.726   6.210  11.632  0.0889 -0.3897 -0.8033
  889MOL0     C19944   3.763   6.073  11.590 -1.6288 -0.8380  0.2151
  889MOL0     C19945   3.773   5.964  11.554 -0.4077 -0.0010  0.6423
  889MOL0     C19946   3.324   6.419  11.065 -0.4822 -0.4438  0.3316
  889MOL0     C19947   3.237   6.506  10.987 -0.7594  0.6555 -0.5705
  889MOL0     H19948   2.891   6.882  10.991 -1.5709  2.0641  1.5380
  889MOL0     H19949   2.766   7.079  10.915 -0.5284  2.8546 -2.3758
  889MOL0     H19950   2.700   7.264  10.849 -0.7117 -0.2455  0.0520
  889MOL0     H19951   2.724   7.431  10.797 -1.3484 -1.5126 -2.7304
  889MOL0     H19952   2.776   7.209  10.603 -0.3695 -0.4467  2.4650
  889MOL0     H19953   2.623   7.266  10.608  0.8882  0.7030 -2.3162
  889MOL0     H19954   2.835   7.475  10.596  0.4551 -1.4142  0.8235
  889MOL0     H19955   2.783   7.391  10.445  0.5282 -1.9857  0.3952
  889MOL0     H19956   2.679   7.595  10.449  0.5017 -1.0183 -0.5794
  889MOL0     H19957   2.550   7.477  10.495  1.6446 -1.1460 -2.4068
  889MOL0     H19958   2.540   7.536  10.712 -1.5968  0.1867 -1.1291
  889MOL0     H19959   2.677   7.642  10.708 -1.9819 -0.3094  1.9935
  889MOL0     H19960   2.579   7.783  10.524  0.2684  2.9687  2.0946
  889MOL0     H19961   2.438   7.684  10.513 -0.8078 -0.2385  0.1519
  889MOL0     H19962   2.398   7.734  10.765 -1.9645  1.2443 -0.4594
  889MOL0     H19963   2.516   7.862  10.748 -1.7378  1.5240  1.2918
  889MOL0     H19964   2.235   7.883  10.668  0.3903 -0.4680  1.1460
  889MOL0     H19965   2.346   7.914  10.531 -1.0156  1.3225 -0.1730
  889MOL0     H19966   2.273   8.057  10.906  0.4982 -0.7972 -0.5874
  889MOL0     H19967   2.409   8.258  11.020 -0.2983 -1.3181 -0.4905
  889MOL0     H19968   2.490   8.363  10.902  0.5247  0.0782  0.9875
  889MOL0     H19969   2.187   8.330  10.964 -3.7459  1.6887 -0.7817
  889MOL0     H19970   2.239   8.409  10.807  2.6717  0.3041 -0.2101
  889MOL0     H19971   2.182   8.568  10.955 -0.5043 -1.2636  0.4184
  889MOL0     H19972   2.368   8.556  10.945  0.3684 -2.3900 -0.1725
  889MOL0     H19973   2.383   8.486  11.160  0.9587 -1.4247 -0.7801
  889MOL0     H19974   2.219   8.427  11.168 -0.6387  0.3061 -0.2584
  889MOL0     H19975   2.327   8.677  11.410  3.3860 -1.3593  0.4263
  889MOL0     H19976   2.434   8.799  11.585  0.5519  1.8465  2.0821
  889MOL0     H19977   2.589   8.852  11.531  0.0186 -0.9928  1.7483
  889MOL0     H19978   2.448   8.969  11.551 -1.8291 -1.3436  1.1558
  889MOL0     H19979   2.511   9.357  11.138 -0.9193  0.0530  1.2160
  889MOL0     H19980   2.624   9.581  11.154  1.0011 -0.1065 -2.6385
  889MOL0     H19981   2.885   9.593  11.408 -1.0190  1.4341  0.7113
  889MOL0     H19982   3.036   9.573  11.331  0.7515  0.0150 -2.6752
  889MOL0     H19983   3.033   9.813  11.424  0.6181  0.4059 -0.0133
  889MOL0     H19984   2.993   9.826  11.247 -1.2274 -0.1478 -0.9758
  889MOL0     H19985   2.764   9.802  11.421 -0.1005  0.8562  1.0693
  889MOL0     H19986   2.780   9.894  11.276 -0.7514 -1.1512 -1.1262
  889MOL0     H19987   2.848   9.970  11.567  1.0714  0.6933 -0.7567
  889MOL0     H19988   2.957  10.026  11.441  0.6683 -2.1237  0.3472
  889MOL0     H19989   2.648  10.053  11.463  0.7932 -2.2074  0.0318
  889MOL0     H19990   2.733  10.092  11.322  2.0152 -0.7696  0.5808
  889MOL0     H19991   2.805  10.229  11.577  1.1067  3.7795 -0.5364
  889MOL0     H19992   2.873  10.260  11.415  0.0786  1.0783  0.0815
  889MOL0     H19993   2.577  10.305  11.497 -1.0896  2.1962 -1.4603
  889MOL0     H19994   2.645  10.343  11.342  1.3056 -2.5395 -0.4624
  889MOL0     H19995   2.790  10.522  11.446  1.0959 -0.8065 -0.3572
  889MOL0     H19996   2.722  10.489  11.611 -2.9495  2.6340 -0.1084
  889MOL0     H19997   2.993   9.382  11.228  0.8896 -0.8518 -2.0415
  889MOL0     H19998   2.884   9.161  11.210  0.9400 -0.2045 -2.6824
  889MOL0     H19999   2.481   8.981  11.045  1.8948 -1.6780 -0.7351
  889MOL0     H20000   2.344   8.797  10.991  1.6021 -2.4050 -0.4107
  889MOL0     H20001   3.136   7.243  10.765  1.2514 -1.1484 -0.2737
  889MOL0     H20002   3.255   7.038  10.841 -0.5874  1.1003 -2.0527
  889MOL0     H20003   3.186   6.749  11.224  1.6843  1.3871 -1.4365
  889MOL0     H20004   3.339   6.593  11.350  1.7471  0.4394 -0.3427
  889MOL0     H20005   3.619   6.376  11.234 -1.1810  0.1594 -0.4278
  889MOL0     H20006   3.543   6.469  11.374  0.0410 -1.9080  3.9267
  889MOL0     H20007   3.645   6.196  11.336  1.0414  0.0375  0.5632
  889MOL0     H20008   3.522   6.217  11.464  0.0895  0.3322  0.2931
  889MOL0     H20009   3.689   6.405  11.560  1.4750  0.5183 -0.8553
  889MOL0     H20010   3.802   6.320  11.458 -1.1580  4.7658 -0.4204
  889MOL0     H20011   3.627   6.206  11.679 -0.2525  0.6228 -1.4059
  889MOL0     H20012   3.792   6.253  11.708  1.0595 -0.5206 -1.5548
  889MOL0     H20013   3.779   5.871  11.500 -0.6979  0.8865 -1.0092
  889MOL0     H20014   3.373   6.329  11.029 -0.7116 -0.0466 -1.0390
  889MOL0     H20015   3.210   6.481  10.885 -2.0623  2.7745 -0.7929
  890MOL0     O20016   8.188   2.772   8.436  0.0086 -0.6137  0.6962
  890MOL0     C20017   8.250   2.865   8.490 -0.9455 -0.3710  0.0045
  890MOL0     O20018   8.274   2.878   8.627  0.2237 -0.6209  0.3197
  890MOL0     C20019   8.165   2.857   8.714 -0.5846 -0.5115  0.2795
  890MOL0     C20020   8.199   2.810   8.830  0.2095  0.4414 -0.1745
  890MOL0     C20021   8.107   2.762   8.917  0.3765 -0.1736 -0.7487
  890MOL0     C20022   7.967   2.786   8.912  0.3651 -0.1306 -0.2350
  890MOL0     O20023   7.866   2.746   8.994 -0.5148  0.1417  0.5290
  890MOL0     C20024   7.914   2.651   9.098  0.2289 -0.3645  0.4908
  890MOL0     C20025   7.799   2.606   9.184  1.1377  0.2316 -0.7734
  890MOL0     C20026   7.703   2.504   9.111  0.2269 -0.1624  0.3970
  890MOL0     C20027   7.754   2.383   9.039  0.1898  0.9284 -0.0227
  890MOL0     C20028   7.846   2.289   9.118  0.0768 -0.3375 -0.0385
  890MOL0     C20029   7.837   2.140   9.072 -0.3543  0.1959 -0.5364
  890MOL0     C20030   7.880   2.133   8.929  0.3099 -0.5069 -0.1961
  890MOL0     C20031   7.858   1.995   8.867  0.1531 -0.6830 -0.5830
  890MOL0     N20032   7.867   2.010   8.725 -0.5136 -0.0076 -0.5732
  890MOL0     C20033   7.969   1.963   8.644  0.3219  1.4108  0.0766
  890MOL0     C20034   7.919   1.964   8.511  0.2581 -0.6729  0.6324
  890MOL0     C20035   7.990   1.916   8.381 -0.0933 -0.1123  0.0494
  890MOL0     C20036   8.131   1.968   8.390  0.5408 -0.0925  0.5209
  890MOL0     C20037   8.129   2.100   8.329 -0.5007 -0.3768 -0.1037
  890MOL0     C20038   8.261   2.163   8.312  0.0014  0.1488 -0.1496
  890MOL0     O20039   8.307   2.102   8.185 -0.2755 -0.2543  0.4003
  890MOL0     C20040   8.426   2.142   8.129 -0.2779  0.0025  0.1360
  890MOL0     C20041   8.500   2.258   8.163 -0.6930  0.4307 -0.4797
  890MOL0     C20042   8.613   2.293   8.101  0.7070  0.9801 -0.2680
  890MOL0     C20043   8.667   2.437   8.137  0.6493 -0.5437 -0.2750
  890MOL0     C20044   8.673   2.205   8.008 -0.3151 -0.2657 -0.5157
  890MOL0     C20045   8.794   2.238   7.923 -0.6924  0.0927  0.1547
  890MOL0     O20046   8.850   2.147   7.829 -0.7935  0.5621  0.3988
  890MOL0     C20047   8.956   2.185   7.756 -0.5652 -0.6563 -0.8590
  890MOL0     C20048   9.082   2.148   7.805 -0.2542 -0.4579 -1.3602
  890MOL0     C20049   9.199   2.202   7.760  0.2625 -0.1824  0.4030
  890MOL0     C20050   9.194   2.283   7.650  0.0515 -0.3141 -0.8936
  890MOL0     O20051   9.313   2.343   7.623 -0.5811 -0.4538 -0.3487
  890MOL0     C20052   9.342   2.392   7.492  0.7151 -0.1121 -0.0030
  890MOL0     C20053   9.320   2.541   7.486 -0.3373  0.7017  0.2024
  890MOL0     C20054   9.397   2.599   7.362  0.3708  0.6279 -0.0699
  890MOL0     C20055   9.327   2.544   7.233 -0.4814 -0.6374 -0.3260
  890MOL0     C20056   9.398   2.615   7.106 -0.5933  0.2775  0.3834
  890MOL0     C20057   9.320   2.587   6.979 -0.8266  0.1185 -0.5702
  890MOL0     C20058   9.389   2.631   6.841  0.6909  0.1702 -0.9594
  890MOL0     C20059   9.287   2.629   6.733 -0.2895  0.5922  0.4899
  890MOL0    Cl20060   9.252   2.467   6.689 -0.1803  0.5480  0.4731
  890MOL0     C20061   9.070   2.296   7.582 -0.3656 -0.1938  0.0131
  890MOL0     C20062   8.949   2.254   7.636 -0.5990 -0.3780  0.0690
  890MOL0     O20063   8.843   2.353   7.934  0.2472 -0.1109  0.6346
  890MOL0     C20064   8.601   2.084   7.979 -0.8878  0.4750  0.5879
  890MOL0     C20065   8.485   2.051   8.036  0.1237  0.6979 -1.1240
  890MOL0     N20066   7.786   2.004   8.513  0.4657  0.1891 -0.4645
  890MOL0     N20067   7.763   2.029   8.638  0.2149  0.4241 -0.4578
  890MOL0     C20068   7.934   2.860   8.798  0.8001  0.2481 -0.0527
  890MOL0     C20069   8.031   2.874   8.694 -0.4985 -0.2657 -0.0262
  890MOL0     C20070   8.314   2.951   8.394 -0.5163 -0.1896 -0.0109
  890MOL0     C20071   8.291   2.945   8.257  0.8216  0.1228 -0.1275
  890MOL0     C20072   8.317   3.059   8.178 -0.0099  0.4289  0.0977
  890MOL0     C20073   8.395   3.170   8.231  0.2067  0.4110 -0.3671
  890MOL0     O20074   8.414   3.292   8.169 -0.4193 -0.6019 -0.6829
  890MOL0     C20075   8.354   3.321   8.042  0.7984  1.1673 -0.1461
  890MOL0     C20076   8.379   3.470   8.006 -0.1422 -0.6343 -0.3310
  890MOL0     C20077   8.322   3.577   8.097 -0.2456  0.5242 -0.0214
  890MOL0     C20078   8.375   3.718   8.064 -0.0598  0.6784 -0.1187
  890MOL0     C20079   8.320   3.808   8.161 -0.3420  0.9048 -0.5099
  890MOL0     C20080   8.281   3.887   8.246  0.0846 -1.1381  1.3355
  890MOL0     C20081   8.453   3.150   8.352  0.0331 -0.8332 -0.0839
  890MOL0     C20082   8.410   3.053   8.436 -0.1175  0.0286 -0.1976
  890MOL0     H20083   8.307   2.802   8.840  0.5684  3.1586 -0.9016
  890MOL0     H20084   8.160   2.697   8.986 -1.5604 -2.4350 -1.2460
  890MOL0     H20085   7.955   2.570   9.037 -1.4601 -0.0668 -1.1171
  890MOL0     H20086   7.987   2.692   9.170  0.9012 -2.1595  0.8791
  890MOL0     H20087   7.849   2.561   9.271  0.5250  2.5098  0.8575
  890MOL0     H20088   7.736   2.690   9.216  1.5289  0.8382 -1.5733
  890MOL0     H20089   7.626   2.468   9.180  1.3355 -2.4180  0.5425
  890MOL0     H20090   7.646   2.577   9.053 -1.5805  0.3138  2.6012
  890MOL0     H20091   7.664   2.323   9.022 -0.3744  1.5040  0.8023
  890MOL0     H20092   7.808   2.412   8.949  0.0495 -2.0930 -1.2052
  890MOL0     H20093   7.949   2.324   9.123  0.0029 -0.2086  4.2633
  890MOL0     H20094   7.811   2.299   9.222 -1.1190  4.0553 -0.6553
  890MOL0     H20095   7.886   2.074   9.144 -0.7983  1.8675  1.3856
  890MOL0     H20096   7.732   2.112   9.069 -1.0604  2.4659  0.5481
  890MOL0     H20097   7.819   2.198   8.867 -2.6161 -4.4818 -1.8930
  890MOL0     H20098   7.983   2.169   8.934  0.6799 -1.4501 -0.8168
  890MOL0     H20099   7.761   1.962   8.904  1.0787 -0.4027  2.3078
  890MOL0     H20100   7.942   1.938   8.908  2.3499  2.2508 -0.6529
  890MOL0     H20101   8.069   1.929   8.670  0.4168  1.3143 -0.4027
  890MOL0     H20102   7.998   1.807   8.383 -1.7344 -0.3210 -1.7821
  890MOL0     H20103   7.937   1.947   8.290 -1.0847 -0.8366  0.3542
  890MOL0     H20104   8.183   1.907   8.316  1.7373  1.0756  0.3615
  890MOL0     H20105   8.182   1.965   8.487 -1.2664  0.5505  1.5436
  890MOL0     H20106   8.069   2.168   8.391  2.0330  5.2484 -3.1241
  890MOL0     H20107   8.085   2.087   8.230 -0.5105 -1.5324  0.0399
  890MOL0     H20108   8.333   2.138   8.391 -1.2413  0.9831  1.2863
  890MOL0     H20109   8.255   2.272   8.306  0.9272  0.3056  1.2984
  890MOL0     H20110   8.468   2.317   8.248 -0.0880 -0.2127  0.2220
  890MOL0     H20111   8.682   2.495   8.045 -0.4934 -2.7903 -1.9820
  890MOL0     H20112   8.582   2.474   8.194 -1.9569 -5.0122 -0.7620
  890MOL0     H20113   8.760   2.433   8.194  1.0331  1.3058 -0.7020
  890MOL0     H20114   9.085   2.098   7.902 -2.5984  2.1273  0.2242
  890MOL0     H20115   9.290   2.192   7.818  1.0346 -0.1730 -0.7678
  890MOL0     H20116   9.450   2.379   7.486  0.7369  0.6136 -2.6452
  890MOL0     H20117   9.287   2.340   7.412  1.8173 -2.2215  0.5417
  890MOL0     H20118   9.216   2.573   7.475 -0.2223  1.1979  0.4997
  890MOL0     H20119   9.364   2.586   7.576 -0.3749 -1.7071  1.5191
  890MOL0     H20120   9.505   2.584   7.369  0.7146  2.4537 -0.9488
  890MOL0     H20121   9.370   2.705   7.359 -0.0075  0.5850 -4.1692
  890MOL0     H20122   9.351   2.438   7.220 -1.4598 -0.7899 -1.0373
  890MOL0     H20123   9.219   2.560   7.236 -0.6115 -1.5899  1.1583
  890MOL0     H20124   9.499   2.574   7.106  1.0171  3.8378 -0.1291
  890MOL0     H20125   9.399   2.722   7.128  3.1622 -0.2229  3.8572
  890MOL0     H20126   9.313   2.477   6.973 -1.7998  0.0140  1.3672
  890MOL0     H20127   9.218   2.626   6.989 -0.2570  1.2548  1.2103
  890MOL0     H20128   9.467   2.566   6.802  0.2250 -0.4378 -0.8925
  890MOL0     H20129   9.440   2.726   6.860  0.3103  0.1530  0.2618
  890MOL0     H20130   9.332   2.673   6.644 -0.5930  2.1444  1.0610
  890MOL0     H20131   9.198   2.684   6.766 -0.3796  0.0209  1.2334
  890MOL0     H20132   9.076   2.359   7.494  4.1986 -1.7450 -1.0280
  890MOL0     H20133   8.854   2.293   7.600 -0.8486 -0.4615  0.6415
  890MOL0     H20134   8.618   2.009   7.902 -1.1747  0.2068  0.7822
  890MOL0     H20135   8.438   1.954   8.024 -1.1692  0.7052  2.4964
  890MOL0     H20136   7.829   2.872   8.774 -0.5741 -7.7067 -1.0512
  890MOL0     H20137   8.006   2.903   8.593 -1.6826 -0.6353  0.1491
  890MOL0     H20138   8.257   2.857   8.204  0.5493  0.6410 -0.8267
  890MOL0     H20139   8.275   3.054   8.079  1.6405 -2.2941 -0.5573
  890MOL0     H20140   8.395   3.250   7.970  0.1330  0.5301  0.0942
  890MOL0     H20141   8.247   3.304   8.057  0.9895  0.3793  0.3607
  890MOL0     H20142   8.322   3.486   7.914  1.2791 -3.1016 -1.7267
  890MOL0     H20143   8.487   3.470   7.995 -0.0171 -1.7405  0.7110
  890MOL0     H20144   8.361   3.545   8.194  0.6961 -2.3263 -1.2397
  890MOL0     H20145   8.213   3.583   8.099 -0.2585  3.0536 -2.0809
  890MOL0     H20146   8.344   3.744   7.962 -2.0574  0.6676  0.4279
  890MOL0     H20147   8.484   3.710   8.062 -0.0072  0.9008  0.9688
  890MOL0     H20148   8.255   3.962   8.319 -0.0178 -0.5328  0.6880
  890MOL0     H20149   8.523   3.225   8.387 -1.8401  2.9538 -3.5463
  890MOL0     H20150   8.440   3.049   8.540 -0.6296 -3.1574 -0.0680
  891MOL0     O20151   6.821   3.820   9.531 -0.1356 -0.6777 -0.1859
  891MOL0     C20152   6.829   3.751   9.429 -0.7865 -0.2620  0.2285
  891MOL0     O20153   6.844   3.802   9.297  0.2767 -0.4259  0.5014
  891MOL0     C20154   6.801   3.925   9.272  0.6800  0.0153  0.1376
  891MOL0     C20155   6.672   3.946   9.206 -0.0172  0.2005 -0.0574
  891MOL0     C20156   6.624   4.073   9.184  0.5683  0.3567 -0.3071
  891MOL0     C20157   6.709   4.178   9.213 -0.0883 -0.4454 -0.1371
  891MOL0     O20158   6.663   4.304   9.178  0.0156  0.1212 -0.5038
  891MOL0     C20159   6.701   4.420   9.259  0.7642 -0.6486  0.0280
  891MOL0     C20160   6.578   4.506   9.293 -0.4923  0.1781 -0.0793
  891MOL0     C20161   6.454   4.444   9.349  1.0846  0.8904 -0.8083
  891MOL0     C20162   6.472   4.372   9.476 -0.5275  0.3015 -0.3912
  891MOL0     C20163   6.366   4.264   9.489  0.3007  0.0112  0.7876
  891MOL0     C20164   6.232   4.350   9.508 -0.4493 -0.0721  0.3780
  891MOL0     C20165   6.108   4.251   9.523  0.1880 -0.1182  0.0362
  891MOL0     C20166   5.983   4.328   9.547 -0.2033  0.9131 -1.0994
  891MOL0     N20167   5.997   4.394   9.677 -0.2720 -0.2135  0.4490
  891MOL0     C20168   6.032   4.333   9.798 -0.3669 -0.4367 -0.9681
  891MOL0     C20169   6.023   4.426   9.900  0.6533 -0.5712  0.2526
  891MOL0     C20170   6.046   4.400  10.046 -1.1625  0.3996  1.2253
  891MOL0     C20171   5.931   4.317  10.110 -0.9334 -0.3930 -0.4186
  891MOL0     C20172   5.819   4.399  10.165 -0.0433 -0.2201  0.2981
  891MOL0     C20173   5.739   4.478  10.067  0.3895 -0.2988  0.6766
  891MOL0     O20174   5.629   4.562  10.116  0.1365 -0.1843  0.6954
  891MOL0     C20175   5.673   4.692  10.159  0.2068 -0.0184 -0.9120
  891MOL0     C20176   5.807   4.746  10.165  0.5118  0.5922  0.4203
  891MOL0     C20177   5.820   4.872  10.220  0.2454  0.1520  0.8438
  891MOL0     C20178   5.954   4.931  10.245 -0.1291 -0.1831  0.5554
  891MOL0     C20179   5.711   4.941  10.272  0.0645  0.5317 -0.6495
  891MOL0     C20180   5.724   5.066  10.340  0.3407  0.6530 -0.0928
  891MOL0     O20181   5.692   5.058  10.474 -0.5450  0.4771  0.4068
  891MOL0     C20182   5.681   5.161  10.553 -0.4478 -0.2987  0.8314
  891MOL0     C20183   5.701   5.144  10.687  0.0818  0.4817 -0.6317
  891MOL0     C20184   5.695   5.252  10.782  1.4037 -0.5135  0.5514
  891MOL0     C20185   5.640   5.374  10.732  0.1632  0.3779 -0.0257
  891MOL0     O20186   5.638   5.484  10.804  0.4452 -0.1334 -0.4601
  891MOL0     C20187   5.556   5.480  10.918 -0.6011  0.4004 -0.2342
  891MOL0     C20188   5.494   5.613  10.940 -0.7175  0.0629 -1.6036
  891MOL0     C20189   5.395   5.646  10.839 -0.1258 -0.1861  0.0189
  891MOL0     C20190   5.354   5.797  10.852 -0.4854  0.3517  0.4845
  891MOL0     C20191   5.456   5.897  10.802  0.1421  0.1436  0.4424
  891MOL0     C20192   5.497   5.867  10.653  0.4124  0.2403  0.9935
  891MOL0     C20193   5.585   5.965  10.587 -0.0137 -0.1912  0.4070
  891MOL0     C20194   5.515   6.091  10.548  0.4491  0.5677 -0.9520
  891MOL0    Cl20195   5.637   6.203  10.474  0.0004  0.0690  0.2062
  891MOL0     C20196   5.604   5.383  10.600  0.3150  0.1898 -0.0698
  891MOL0     C20197   5.625   5.278  10.514 -0.3566  0.8624 -0.5533
  891MOL0     O20198   5.772   5.165  10.287  0.3842  0.8120 -0.0572
  891MOL0     C20199   5.585   4.879  10.274 -0.6279 -0.4824  0.3622
  891MOL0     C20200   5.563   4.756  10.217  0.1307 -0.3186  0.7368
  891MOL0     N20201   5.998   4.545   9.837  0.4087  0.2437  0.5520
  891MOL0     N20202   5.959   4.524   9.713 -0.3017 -0.1707 -0.8433
  891MOL0     C20203   6.836   4.155   9.261  0.1887  0.1899  0.2193
  891MOL0     C20204   6.880   4.030   9.292  0.5836 -0.7344 -0.4825
  891MOL0     C20205   6.829   3.609   9.453  0.2575 -1.5867  0.9190
  891MOL0     C20206   6.791   3.530   9.352  1.2072 -0.1546 -1.1117
  891MOL0     C20207   6.786   3.390   9.361 -0.5312 -0.2915 -0.2515
  891MOL0     C20208   6.822   3.333   9.487  0.6664 -0.5427  0.4860
  891MOL0     O20209   6.833   3.194   9.505 -0.0544 -0.0529 -0.1538
  891MOL0     C20210   6.915   3.111   9.430 -0.0507  0.0330 -0.0776
  891MOL0     C20211   6.883   2.961   9.428  0.0469  0.1211 -0.3980
  891MOL0     C20212   6.902   2.890   9.564  0.2196 -0.0290  0.6179
  891MOL0     C20213   6.765   2.866   9.639  0.4272 -0.0418  0.9035
  891MOL0     C20214   6.698   2.753   9.574 -0.1980  0.1567 -0.5980
  891MOL0     C20215   6.630   2.672   9.516  0.4156 -0.6909 -0.5620
  891MOL0     C20216   6.848   3.412   9.599 -0.3960  0.7251  0.5402
  891MOL0     C20217   6.873   3.548   9.574  0.0945  0.2646 -0.7526
  891MOL0     H20218   6.611   3.858   9.188  0.3613  0.0356 -0.5478
  891MOL0     H20219   6.524   4.093   9.145 -1.2467 -1.7334  2.8050
  891MOL0     H20220   6.748   4.397   9.355 -1.7594  1.3112  1.8864
  891MOL0     H20221   6.766   4.492   9.208 -0.2894  1.8539  1.9982
  891MOL0     H20222   6.623   4.582   9.358  0.3250 -0.5343  0.2146
  891MOL0     H20223   6.556   4.554   9.197 -2.7481 -0.6668 -0.0282
  891MOL0     H20224   6.381   4.525   9.356  2.2480  2.2725 -3.3134
  891MOL0     H20225   6.411   4.370   9.281  1.2413 -2.1089  2.1103
  891MOL0     H20226   6.569   4.323   9.481  0.0328  1.2874 -1.1433
  891MOL0     H20227   6.459   4.450   9.552  2.5206  1.5794 -1.0389
  891MOL0     H20228   6.352   4.207   9.396 -2.6076  3.0909 -0.9122
  891MOL0     H20229   6.388   4.206   9.579  1.1712 -0.3048  0.3840
  891MOL0     H20230   6.241   4.417   9.594  0.3836 -0.1497  0.3549
  891MOL0     H20231   6.209   4.413   9.422  2.4512  0.0404 -0.3924
  891MOL0     H20232   6.084   4.190   9.436 -1.1416  1.8527 -1.0492
  891MOL0     H20233   6.113   4.179   9.605 -4.4947 -0.2118  0.4617
  891MOL0     H20234   5.894   4.266   9.562  0.3483 -0.8380 -4.1787
  891MOL0     H20235   5.978   4.398   9.463 -1.5535  2.1362 -0.0538
  891MOL0     H20236   6.067   4.230   9.806 -0.2345 -0.4663 -1.8238
  891MOL0     H20237   6.145   4.356  10.060  0.8900  2.4392 -4.3383
  891MOL0     H20238   6.046   4.500  10.089  3.0199  0.3069  1.8171
  891MOL0     H20239   5.978   4.257  10.188  0.0166 -0.0193 -0.6909
  891MOL0     H20240   5.888   4.247  10.038  0.2416  0.7441 -2.3252
  891MOL0     H20241   5.861   4.468  10.238 -2.1716 -1.5462  2.9554
  891MOL0     H20242   5.740   4.349  10.221 -0.8682  0.4655 -0.2333
  891MOL0     H20243   5.686   4.406  10.004 -3.5365  3.7941 -1.3354
  891MOL0     H20244   5.803   4.536  10.000 -1.2091 -1.1675 -1.7357
  891MOL0     H20245   5.896   4.693  10.133  1.8389  1.1236  2.9247
  891MOL0     H20246   6.025   4.852  10.220  0.8348  1.2771 -1.5683
  891MOL0     H20247   5.958   5.015  10.175 -1.0163  0.5319  1.3283
  891MOL0     H20248   5.972   4.965  10.347 -2.2483  4.2844 -0.3211
  891MOL0     H20249   5.733   5.043  10.708  2.0950  0.5760 -2.7964
  891MOL0     H20250   5.705   5.236  10.889 -1.8633  2.9316  1.5715
  891MOL0     H20251   5.476   5.406  10.907  0.0286 -0.6926  1.9793
  891MOL0     H20252   5.622   5.451  10.999 -1.3128 -1.7109 -0.3590
  891MOL0     H20253   5.430   5.617  11.029  0.1637  2.4076 -0.9889
  891MOL0     H20254   5.566   5.696  10.938 -1.1834  0.4667 -1.9586
  891MOL0     H20255   5.310   5.581  10.861 -2.0695  2.2737  0.2214
  891MOL0     H20256   5.427   5.620  10.738  1.6162 -0.5872  0.6289
  891MOL0     H20257   5.261   5.811  10.796 -0.5745  0.6725  0.7058
  891MOL0     H20258   5.326   5.816  10.957  0.5887 -1.4252  1.1311
  891MOL0     H20259   5.542   5.886  10.870 -0.5266 -3.0599  0.9651
  891MOL0     H20260   5.409   5.995  10.808 -1.1797 -0.5261  2.4533
  891MOL0     H20261   5.538   5.766  10.647 -0.0397  0.0322  1.2978
  891MOL0     H20262   5.409   5.847  10.591 -0.0715 -1.6158  2.1706
  891MOL0     H20263   5.627   5.926  10.494 -1.1249  2.7357 -1.4828
  891MOL0     H20264   5.666   5.985  10.658 -0.5464 -0.7779  1.1875
  891MOL0     H20265   5.464   6.138  10.633 -0.1278 -0.0797 -0.9278
  891MOL0     H20266   5.432   6.074  10.479 -0.2902  0.2124 -0.0042
  891MOL0     H20267   5.583   5.482  10.561 -0.3449 -1.4053 -4.2857
  891MOL0     H20268   5.607   5.289  10.408  0.3088 -1.4717 -0.9716
  891MOL0     H20269   5.502   4.930  10.322 -0.0679  0.1473  0.6701
  891MOL0     H20270   5.464   4.712  10.224 -0.0577  0.1113  0.7878
  891MOL0     H20271   6.913   4.230   9.275 -0.0439  0.2293  1.4068
  891MOL0     H20272   6.968   4.020   9.355 -1.2531 -0.8976  2.2256
  891MOL0     H20273   6.750   3.579   9.264  2.3573 -0.7547 -2.0152
  891MOL0     H20274   6.747   3.317   9.291  1.2339 -0.4793 -1.0910
  891MOL0     H20275   6.914   3.137   9.324  0.1095 -1.5087 -0.4814
  891MOL0     H20276   7.015   3.132   9.470 -0.3570 -2.8466  2.5363
  891MOL0     H20277   6.965   2.925   9.366  0.7246  0.9374 -0.0115
  891MOL0     H20278   6.789   2.934   9.379  0.1246 -0.6663 -0.1280
  891MOL0     H20279   6.971   2.955   9.619  3.3813 -3.2221  0.8128
  891MOL0     H20280   6.953   2.793   9.566  2.2278  0.9638  2.7083
  891MOL0     H20281   6.697   2.948   9.616  0.2707 -0.7246 -1.2825
  891MOL0     H20282   6.784   2.860   9.747  3.4672  0.6365  0.5042
  891MOL0     H20283   6.569   2.607   9.457  0.6417 -0.2337 -1.3098
  891MOL0     H20284   6.858   3.355   9.691  3.1273  0.5665  0.1890
  891MOL0     H20285   6.907   3.611   9.656 -2.3484  0.9376 -0.1838
  892MOL0     O20286   2.108   1.117   7.893  0.0224  0.1307 -0.4255
  892MOL0     C20287   2.066   1.233   7.919 -1.1932 -0.1005 -0.9759
  892MOL0     O20288   1.944   1.286   7.883 -0.1579 -0.1884  1.1176
  892MOL0     C20289   1.866   1.219   7.793  0.2993 -0.2401  0.0944
  892MOL0     C20290   1.832   1.082   7.811 -0.2951  0.5066  0.4650
  892MOL0     C20291   1.758   1.010   7.717 -0.1722 -0.2285 -0.1335
  892MOL0     C20292   1.720   1.086   7.601  0.2495 -0.3969 -0.3641
  892MOL0     O20293   1.643   1.020   7.516  0.3433 -0.0623  0.7865
  892MOL0     C20294   1.609   1.069   7.386  0.2618  0.3850  0.4159
  892MOL0     C20295   1.721   1.055   7.287  0.1300  0.5158  0.4659
  892MOL0     C20296   1.699   1.099   7.135 -0.2740 -0.3555 -0.5883
  892MOL0     C20297   1.581   1.031   7.070  0.0437 -0.0313  0.4760
  892MOL0     C20298   1.578   1.057   6.916 -0.0032 -0.3131 -0.2168
  892MOL0     C20299   1.437   1.030   6.851  0.2844  0.0370 -0.9794
  892MOL0     C20300   1.443   1.043   6.700 -0.3660 -1.1663 -0.2011
  892MOL0     C20301   1.499   0.930   6.622 -0.5330 -0.1657  0.2439
  892MOL0     N20302   1.465   0.796   6.676 -0.4006 -0.0126  0.7916
  892MOL0     C20303   1.384   0.711   6.614  0.4704  0.2524  0.8104
  892MOL0     C20304   1.393   0.598   6.680 -0.0477 -0.1839  0.6404
  892MOL0     C20305   1.308   0.482   6.649  0.7290 -0.0307 -0.0003
  892MOL0     C20306   1.174   0.500   6.574  0.3182 -0.5429  0.0050
  892MOL0     C20307   1.051   0.576   6.642 -0.4267 -0.1250 -0.2395
  892MOL0     C20308   0.956   0.471   6.703  0.2182  0.5378 -0.1769
  892MOL0     O20309   0.821   0.528   6.705 -0.0814 -0.1659  0.2619
  892MOL0     C20310   0.722   0.453   6.754 -0.1013  0.8082 -0.2972
  892MOL0     C20311   0.601   0.520   6.791  0.7201 -0.4009 -0.1653
  892MOL0     C20312   0.487   0.457   6.857 -0.7277 -1.0155 -0.3606
  892MOL0     C20313   0.365   0.545   6.892 -0.7379  0.3490 -0.0436
  892MOL0     C20314   0.494   0.320   6.891  0.1204 -0.4991  0.0748
  892MOL0     C20315   0.402   0.231   6.963  0.1797  0.4171 -0.4683
  892MOL0     O20316   0.402   0.090   6.956 -0.3576  0.1019 -0.2979
  892MOL0     C20317   0.302   0.025   7.021 -0.0986 -0.0784  1.0081
  892MOL0     C20318   0.169   0.057   7.029  0.7625 -0.0119 -0.7605
  892MOL0     C20319   0.083  -0.034   7.090  0.0420 -0.6447  0.2713
  892MOL0     C20320   0.131  -0.152   7.139  0.2723 -0.3278  0.8389
  892MOL0     O20321   0.053  -0.248   7.199  0.3176 -0.7694 -0.5154
  892MOL0     C20322  -0.088  -0.229   7.202 -0.2591 -0.3452  0.9399
  892MOL0     C20323  -0.158  -0.345   7.279 -1.0716  0.0302  0.2047
  892MOL0     C20324  -0.134  -0.338   7.429 -0.9241 -0.6251 -0.8279
  892MOL0     C20325  -0.223  -0.437   7.513 -0.3654 -0.0972 -0.3476
  892MOL0     C20326  -0.170  -0.470   7.653 -0.8505  0.5559  0.0082
  892MOL0     C20327  -0.246  -0.599   7.706 -0.7537  0.5513  0.0224
  892MOL0     C20328  -0.158  -0.651   7.829 -0.3290  0.9230  0.4675
  892MOL0     C20329  -0.172  -0.796   7.853 -0.0694 -0.5383  0.7157
  892MOL0    Cl20330  -0.357  -0.848   7.837 -0.0583  0.0091  0.4227
  892MOL0     C20331   0.262  -0.189   7.119  0.4375  0.0969  0.9743
  892MOL0     C20332   0.352  -0.104   7.057  0.7691  0.6859  0.5033
  892MOL0     O20333   0.335   0.292   7.038  0.8021 -0.9387 -0.2473
  892MOL0     C20334   0.612   0.259   6.858  0.2587  1.0326  0.7600
  892MOL0     C20335   0.717   0.320   6.793 -1.3254  1.3397 -0.1007
  892MOL0     N20336   1.487   0.611   6.781 -0.5202 -0.0538 -0.3184
  892MOL0     N20337   1.521   0.736   6.786 -0.3609  0.7613  0.4772
  892MOL0     C20338   1.755   1.216   7.583  0.2009 -0.7249  0.5097
  892MOL0     C20339   1.827   1.286   7.681 -0.1063  0.1614 -0.6352
  892MOL0     C20340   2.152   1.310   8.008  0.2563  0.0565 -0.1268
  892MOL0     C20341   2.291   1.273   8.029 -0.4771 -0.2078 -0.7265
  892MOL0     C20342   2.367   1.331   8.130 -0.3069  0.6297  0.1790
  892MOL0     C20343   2.301   1.420   8.217  0.1701 -0.0196  0.3719
  892MOL0     O20344   2.383   1.463   8.322  0.0016  0.4552  0.3528
  892MOL0     C20345   2.339   1.558   8.417 -0.1061 -0.3345  1.4050
  892MOL0     C20346   2.465   1.588   8.502 -0.2681  0.8730 -0.0928
  892MOL0     C20347   2.502   1.467   8.598  0.3622  0.6637  0.3847
  892MOL0     C20348   2.576   1.348   8.528  0.0589  0.5744  0.7422
  892MOL0     C20349   2.712   1.392   8.491  0.2145  0.7100  0.2707
  892MOL0     C20350   2.825   1.425   8.449  0.4562 -0.0892 -0.0948
  892MOL0     C20351   2.175   1.472   8.184  0.3947  0.0538 -0.3551
  892MOL0     C20352   2.101   1.417   8.080 -0.3094 -0.9744  0.4688
  892MOL0     H20353   1.856   1.020   7.897  2.4936 -0.4965 -0.9235
  892MOL0     H20354   1.723   0.907   7.722  1.1976 -0.7479 -0.6851
  892MOL0     H20355   1.522   1.015   7.349 -0.4880  1.4310  0.5852
  892MOL0     H20356   1.591   1.177   7.380  0.7496  0.4451 -0.0868
  892MOL0     H20357   1.807   1.112   7.323  0.8871 -0.9554  1.0517
  892MOL0     H20358   1.746   0.949   7.284  1.7207  0.8877 -0.7767
  892MOL0     H20359   1.678   1.206   7.133 -1.5341 -0.5917 -1.3193
  892MOL0     H20360   1.790   1.085   7.077 -0.1902 -1.9083 -0.1485
  892MOL0     H20361   1.575   0.924   7.092 -1.7656  0.4512  2.7788
  892MOL0     H20362   1.490   1.076   7.111  0.7472  0.7671  1.2192
  892MOL0     H20363   1.592   1.163   6.894 -4.0758  0.5604  0.6616
  892MOL0     H20364   1.655   0.990   6.876 -1.0358 -1.2547 -0.7068
  892MOL0     H20365   1.386   0.942   6.889  2.5836  0.5272  4.0019
  892MOL0     H20366   1.375   1.113   6.885 -1.5836 -1.0615 -1.5982
  892MOL0     H20367   1.340   1.058   6.667  0.1281  0.3409 -1.1300
  892MOL0     H20368   1.502   1.131   6.674 -1.8556 -0.0620  0.0827
  892MOL0     H20369   1.608   0.932   6.611 -0.6946 -0.2607 -1.7332
  892MOL0     H20370   1.449   0.927   6.525  1.2616 -3.0909 -0.7338
  892MOL0     H20371   1.311   0.733   6.537 -1.0843 -1.6327  1.6768
  892MOL0     H20372   1.370   0.417   6.587  1.0496  1.0799 -0.8794
  892MOL0     H20373   1.289   0.426   6.741 -1.7793 -2.9490 -2.0735
  892MOL0     H20374   1.138   0.401   6.546  0.0489 -0.0489 -1.5046
  892MOL0     H20375   1.211   0.549   6.483 -1.3539 -1.3816 -1.1909
  892MOL0     H20376   0.999   0.636   6.567  1.1442  1.8235  0.1462
  892MOL0     H20377   1.082   0.648   6.718 -0.9499 -1.3277  1.1629
  892MOL0     H20378   0.984   0.449   6.806  1.7029 -4.5615 -1.3790
  892MOL0     H20379   0.948   0.378   6.645 -1.3191 -1.0073  2.3078
  892MOL0     H20380   0.601   0.627   6.777 -1.2222  0.4305  4.3220
  892MOL0     H20381   0.371   0.566   7.000 -1.9096 -0.4091  0.1886
  892MOL0     H20382   0.367   0.634   6.829 -1.1854 -1.0109 -2.0824
  892MOL0     H20383   0.269   0.498   6.872 -1.3249  1.2180  0.6372
  892MOL0     H20384   0.130   0.152   6.992  1.2919  0.4878 -0.0573
  892MOL0     H20385  -0.021  -0.001   7.092  0.0908 -0.2617 -1.5805
  892MOL0     H20386  -0.105  -0.134   7.252 -2.3041 -0.3976  0.4179
  892MOL0     H20387  -0.141  -0.219   7.107 -2.9258 -1.6743  2.1640
  892MOL0     H20388  -0.267  -0.337   7.268 -1.3064 -2.0484  0.5909
  892MOL0     H20389  -0.133  -0.442   7.236  1.1906 -0.0978  1.6320
  892MOL0     H20390  -0.153  -0.236   7.463  4.9253  0.6598 -0.3338
  892MOL0     H20391  -0.026  -0.346   7.442 -1.0683 -2.4448 -0.4668
  892MOL0     H20392  -0.328  -0.413   7.527 -1.2009 -2.4968 -1.8539
  892MOL0     H20393  -0.208  -0.520   7.443 -0.4420  0.6257 -1.2304
  892MOL0     H20394  -0.184  -0.377   7.709  2.0301 -0.1981  2.2706
  892MOL0     H20395  -0.061  -0.476   7.651 -0.5888  2.0865  3.4312
  892MOL0     H20396  -0.341  -0.566   7.748  0.3153  0.4425  2.7601
  892MOL0     H20397  -0.268  -0.669   7.626  0.5456  0.3009 -0.1379
  892MOL0     H20398  -0.184  -0.611   7.927  2.4317  1.3816  1.0985
  892MOL0     H20399  -0.052  -0.626   7.811 -0.1685  0.2099  0.4146
  892MOL0     H20400  -0.146  -0.819   7.956 -0.6202 -0.5268  0.8624
  892MOL0     H20401  -0.101  -0.859   7.798  0.2789 -0.0488  0.6026
  892MOL0     H20402   0.284  -0.289   7.157  1.3405  1.0729  3.2132
  892MOL0     H20403   0.456  -0.133   7.046  0.8958  1.5014 -0.6227
  892MOL0     H20404   0.644   0.162   6.895  0.1980  0.8694  0.3827
  892MOL0     H20405   0.805   0.258   6.778  0.1012  3.2046  0.0371
  892MOL0     H20406   1.717   1.279   7.503 -3.8906 -3.2574  0.1705
  892MOL0     H20407   1.849   1.392   7.673 -2.1336  0.7848  1.2530
  892MOL0     H20408   2.341   1.201   7.965  0.6987  2.1106 -2.5537
  892MOL0     H20409   2.469   1.297   8.144 -0.9757 -1.6292 -0.0388
  892MOL0     H20410   2.312   1.652   8.369  1.8067 -0.6364 -0.3739
  892MOL0     H20411   2.249   1.528   8.473 -2.9389 -2.2229 -3.4961
  892MOL0     H20412   2.443   1.682   8.551  0.4354  0.5793  0.8231
  892MOL0     H20413   2.547   1.610   8.432  0.0455  1.7822  0.5421
  892MOL0     H20414   2.410   1.429   8.645 -1.6911 -0.6166 -4.0896
  892MOL0     H20415   2.565   1.503   8.679  1.0323  1.0533 -0.2997
  892MOL0     H20416   2.529   1.309   8.437  2.6680  0.3873 -0.6335
  892MOL0     H20417   2.575   1.258   8.590  1.2495 -0.9083 -1.2272
  892MOL0     H20418   2.922   1.444   8.409  1.3740  0.4237  2.2123
  892MOL0     H20419   2.143   1.567   8.227  1.8925  0.8384 -0.8833
  892MOL0     H20420   2.000   1.452   8.063 -1.3797 -4.4165 -1.1716
  893MOL0     O20421   3.621   2.994   5.278  0.1943  0.3142  0.3813
  893MOL0     C20422   3.716   3.063   5.303  0.1699 -0.5706 -0.7161
  893MOL0     O20423   3.751   3.094   5.424  0.2494 -1.1714 -0.6414
  893MOL0     C20424   3.695   3.027   5.528 -1.4496  0.5176 -0.6317
  893MOL0     C20425   3.629   3.091   5.624  0.2608 -0.3738  0.7784
  893MOL0     C20426   3.570   3.015   5.725 -0.1068  1.5810 -0.7178
  893MOL0     C20427   3.570   2.873   5.719 -0.1513 -1.2274 -0.0154
  893MOL0     O20428   3.509   2.789   5.812 -0.2467  0.4270  0.6897
  893MOL0     C20429   3.518   2.819   5.949  0.3716  0.5546  0.3132
  893MOL0     C20430   3.526   2.679   6.017  0.1272 -0.1293  0.1895
  893MOL0     C20431   3.519   2.698   6.172 -0.1012 -0.4730  0.0333
  893MOL0     C20432   3.632   2.782   6.234  0.4122  0.0879 -0.0878
  893MOL0     C20433   3.641   2.790   6.384  0.9109 -0.0958 -0.8021
  893MOL0     C20434   3.783   2.760   6.451  0.5936  0.1832  0.5057
  893MOL0     C20435   3.782   2.783   6.605 -0.1711 -0.6965  0.7026
  893MOL0     C20436   3.917   2.779   6.673  0.6585  0.2035  1.5392
  893MOL0     N20437   3.920   2.793   6.817  0.1132  0.4235  1.4739
  893MOL0     C20438   3.858   2.884   6.888 -0.0442  0.2021  1.7517
  893MOL0     C20439   3.910   2.879   7.013  0.0801 -0.3465  0.5625
  893MOL0     C20440   3.859   2.963   7.127 -0.4888  0.6794 -0.1379
  893MOL0     C20441   3.966   3.053   7.192 -0.0149 -0.3422  0.1433
  893MOL0     C20442   3.897   3.148   7.293  0.0878 -0.4442 -0.7819
  893MOL0     C20443   3.837   3.270   7.240 -0.9228 -0.3492  0.2328
  893MOL0     O20444   3.784   3.351   7.348  0.3179 -0.1173  0.1650
  893MOL0     C20445   3.651   3.362   7.366  0.8190  1.0811 -0.2050
  893MOL0     C20446   3.603   3.485   7.355  0.8432 -0.5615  0.6886
  893MOL0     C20447   3.473   3.531   7.354 -0.2744  0.7614  0.6983
  893MOL0     C20448   3.431   3.674   7.342 -0.3539  1.4820  0.4252
  893MOL0     C20449   3.380   3.427   7.382  0.1113  0.1692  0.1717
  893MOL0     C20450   3.236   3.440   7.384  0.3266 -0.8131  0.0977
  893MOL0     O20451   3.163   3.353   7.465 -0.5358  0.5785  0.0584
  893MOL0     C20452   3.028   3.332   7.446 -0.3466 -0.6814 -0.5965
  893MOL0     C20453   2.954   3.327   7.327 -0.7249  0.4290 -0.2157
  893MOL0     C20454   2.818   3.317   7.326 -0.6377 -1.3924  0.0080
  893MOL0     C20455   2.739   3.305   7.440 -0.3734 -0.1761  0.4628
  893MOL0     O20456   2.603   3.296   7.424 -1.1094  0.4515  0.2620
  893MOL0     C20457   2.528   3.228   7.522 -0.5746 -0.3898 -0.3584
  893MOL0     C20458   2.378   3.236   7.481 -0.2093  0.2596  0.1507
  893MOL0     C20459   2.335   3.141   7.367  0.4177 -0.0437  0.1715
  893MOL0     C20460   2.328   2.995   7.419  0.0819  0.0349 -0.2634
  893MOL0     C20461   2.276   2.904   7.308 -0.2656 -0.4276 -0.0797
  893MOL0     C20462   2.170   2.961   7.214  0.4955  0.5019  0.5833
  893MOL0     C20463   2.104   2.858   7.128  0.1411  0.7811  0.6732
  893MOL0     C20464   1.979   2.917   7.057  0.9022  0.3219  0.6858
  893MOL0    Cl20465   1.879   2.795   6.972 -0.2835 -0.2213  0.8031
  893MOL0     C20466   2.812   3.285   7.558  0.3118 -0.3818 -0.1892
  893MOL0     C20467   2.953   3.292   7.563  0.6774  0.4937  0.1519
  893MOL0     O20468   3.182   3.537   7.326  0.1685  0.1400  0.2063
  893MOL0     C20469   3.421   3.295   7.406 -0.9429  0.0561 -0.0427
  893MOL0     C20470   3.556   3.261   7.392 -0.0019  0.2683  0.0649
  893MOL0     N20471   4.000   2.777   7.022  0.2324  0.6654 -0.5560
  893MOL0     N20472   4.013   2.734   6.899 -0.0608  0.0835  0.1887
  893MOL0     C20473   3.653   2.813   5.615  0.6031  0.3529 -0.6073
  893MOL0     C20474   3.720   2.890   5.532  0.0854 -0.1655  0.2434
  893MOL0     C20475   3.815   3.097   5.197 -0.1597 -0.6940 -0.1334
  893MOL0     C20476   3.843   3.017   5.072  0.4118 -1.1425 -1.1647
  893MOL0     C20477   3.950   3.043   4.987 -0.6650  0.7662  0.4310
  893MOL0     C20478   4.028   3.155   5.018  0.2914 -0.9841  0.0104
  893MOL0     O20479   4.137   3.203   4.946  0.2718 -0.1115 -0.6083
  893MOL0     C20480   4.173   3.128   4.828  0.3738 -0.7385  0.2316
  893MOL0     C20481   4.311   3.187   4.790 -0.3780 -0.1415  0.4683
  893MOL0     C20482   4.395   3.104   4.688 -0.1738  0.4165  0.3381
  893MOL0     C20483   4.472   2.998   4.758  0.1853  0.3073  0.2145
  893MOL0     C20484   4.526   2.905   4.659 -0.9154 -1.3451 -0.0862
  893MOL0     C20485   4.582   2.828   4.580  0.6192  0.0084 -0.7411
  893MOL0     C20486   4.007   3.234   5.136  0.0952  0.0535  0.6467
  893MOL0     C20487   3.895   3.207   5.219  0.3508  0.0604 -0.2860
  893MOL0     H20488   3.629   3.200   5.625  0.6334 -0.2131 -3.0119
  893MOL0     H20489   3.509   3.057   5.804 -1.6081 -0.3264 -0.7812
  893MOL0     H20490   3.602   2.884   5.977 -0.5588  0.8262  2.6665
  893MOL0     H20491   3.425   2.873   5.971 -0.9531 -1.2774 -0.5866
  893MOL0     H20492   3.439   2.620   5.986 -1.2465  1.1206  1.4494
  893MOL0     H20493   3.616   2.622   5.994 -1.1729 -2.7382  1.1623
  893MOL0     H20494   3.421   2.742   6.194 -0.1150  0.3639 -1.5487
  893MOL0     H20495   3.520   2.602   6.224  0.4526 -0.9076 -0.7599
  893MOL0     H20496   3.724   2.729   6.208 -0.2096 -2.9981  3.1777
  893MOL0     H20497   3.636   2.879   6.183  2.8153  0.4182  0.5761
  893MOL0     H20498   3.593   2.885   6.411 -1.4632 -1.6850  0.9838
  893MOL0     H20499   3.573   2.713   6.420  1.0895 -1.3107 -2.9226
  893MOL0     H20500   3.808   2.654   6.436  1.6490  0.5453 -0.3607
  893MOL0     H20501   3.844   2.828   6.390 -0.8579  0.0359 -1.1864
  893MOL0     H20502   3.738   2.882   6.623  1.6154 -0.0214  1.6304
  893MOL0     H20503   3.715   2.712   6.652 -3.1423  0.1091 -1.9427
  893MOL0     H20504   3.982   2.853   6.624 -0.7673  1.2716  1.1979
  893MOL0     H20505   3.957   2.680   6.651  1.6628  0.9134 -0.0979
  893MOL0     H20506   3.787   2.957   6.853  1.6795  0.3566 -1.9032
  893MOL0     H20507   3.783   3.030   7.087 -2.2546 -2.6534 -2.8727
  893MOL0     H20508   3.807   2.897   7.197 -1.0476  2.4740  1.2062
  893MOL0     H20509   4.007   3.111   7.109  0.2352 -2.0381 -0.9766
  893MOL0     H20510   4.038   2.987   7.242  0.7913 -1.8579 -2.7717
  893MOL0     H20511   3.964   3.166   7.377 -0.6922 -0.0596 -0.2280
  893MOL0     H20512   3.814   3.091   7.337 -0.2411  0.7600  0.2012
  893MOL0     H20513   3.749   3.241   7.181 -1.1173 -0.0365  0.3656
  893MOL0     H20514   3.909   3.329   7.183 -0.8281  2.8288  3.2782
  893MOL0     H20515   3.676   3.565   7.355 -0.3542  0.6708 -2.2809
  893MOL0     H20516   3.373   3.690   7.251 -0.5133 -2.0983 -0.2346
  893MOL0     H20517   3.363   3.720   7.414  0.9815  1.1885  1.9539
  893MOL0     H20518   3.511   3.747   7.329 -1.1133  1.9426 -2.3769
  893MOL0     H20519   3.008   3.360   7.239  2.4063  1.0122  1.7587
  893MOL0     H20520   2.762   3.321   7.233 -0.0007  0.6917 -0.3280
  893MOL0     H20521   2.565   3.125   7.526 -0.7257 -0.4869 -1.2679
  893MOL0     H20522   2.539   3.270   7.622  2.1024 -0.8920 -0.3526
  893MOL0     H20523   2.320   3.202   7.567 -1.6224 -3.7270 -2.1157
  893MOL0     H20524   2.350   3.338   7.453 -0.8459 -0.3595 -1.5966
  893MOL0     H20525   2.403   3.162   7.284 -1.0528 -1.1532 -1.4063
  893MOL0     H20526   2.233   3.159   7.329 -0.6338 -1.6259  2.0762
  893MOL0     H20527   2.428   2.965   7.453  0.0644 -0.6928 -0.8329
  893MOL0     H20528   2.258   2.984   7.502  2.4844  0.0770  1.8907
  893MOL0     H20529   2.232   2.815   7.354  0.1688  0.6953  2.7340
  893MOL0     H20530   2.364   2.867   7.255 -0.1658  1.3311 -1.2473
  893MOL0     H20531   2.093   3.022   7.260 -0.1643  0.2318 -0.1461
  893MOL0     H20532   2.224   3.027   7.146 -1.5225  3.1739  1.4249
  893MOL0     H20533   2.076   2.782   7.202 -1.1065  0.7359  0.1683
  893MOL0     H20534   2.163   2.806   7.052 -0.5931  4.7799 -2.9851
  893MOL0     H20535   2.011   2.992   6.984  2.0739  0.5104  1.3651
  893MOL0     H20536   1.914   2.969   7.128  0.0555  1.4360 -0.8446
  893MOL0     H20537   2.752   3.264   7.645 -0.7000 -2.1114 -1.2419
  893MOL0     H20538   3.003   3.284   7.659  0.3549 -0.6322  0.2356
  893MOL0     H20539   3.358   3.211   7.433  1.0375 -0.9225  1.8538
  893MOL0     H20540   3.578   3.155   7.397 -1.3346  0.0145  1.3460
  893MOL0     H20541   3.643   2.706   5.604 -0.9031  0.5226 -1.1229
  893MOL0     H20542   3.780   2.842   5.455  0.5694  3.3261 -1.7758
  893MOL0     H20543   3.792   2.923   5.051  0.4138 -0.7476 -3.1820
  893MOL0     H20544   3.985   2.981   4.905 -0.4030  1.9459 -0.3771
  893MOL0     H20545   4.176   3.020   4.848 -1.3378 -0.7719  0.4791
  893MOL0     H20546   4.100   3.155   4.751 -0.3051  2.5570  1.8663
  893MOL0     H20547   4.380   3.223   4.867  0.2315 -1.9641  0.8199
  893MOL0     H20548   4.292   3.280   4.734 -1.4272 -2.2168 -2.9119
  893MOL0     H20549   4.473   3.160   4.636  0.8812 -2.4467 -1.3724
  893MOL0     H20550   4.327   3.055   4.618  1.2939 -1.3052  0.0468
  893MOL0     H20551   4.414   2.931   4.821 -1.9750 -0.3602 -2.3383
  893MOL0     H20552   4.556   3.045   4.811  0.4910 -0.1580  0.1466
  893MOL0     H20553   4.628   2.761   4.510  0.5406  0.4378 -1.2076
  893MOL0     H20554   4.078   3.305   5.176  0.0069  0.4586  0.0848
  893MOL0     H20555   3.893   3.268   5.309  4.1118 -0.8738  0.6178
  894MOL0     O20556   0.634   4.080   3.219 -0.2509  0.0388 -0.3347
  894MOL0     C20557   0.727   4.059   3.297  0.3175  0.5044 -0.8845
  894MOL0     O20558   0.761   4.146   3.401 -0.6697  0.1150  0.4763
  894MOL0     C20559   0.695   4.261   3.430  0.5609 -0.1612  0.2513
  894MOL0     C20560   0.558   4.270   3.415  0.5287 -0.7490  0.5665
  894MOL0     C20561   0.489   4.391   3.441  0.6515  0.4236 -0.5871
  894MOL0     C20562   0.552   4.495   3.503 -0.1816 -0.3115 -0.7348
  894MOL0     O20563   0.474   4.590   3.563  0.2013 -0.1596  0.4088
  894MOL0     C20564   0.520   4.722   3.576  0.6402 -0.7883  0.2224
  894MOL0     C20565   0.415   4.829   3.607 -0.0226 -0.6441  0.0352
  894MOL0     C20566   0.327   4.834   3.475  0.6678 -0.5006 -0.8054
  894MOL0     C20567   0.188   4.906   3.493  1.1812  0.0904 -0.1150
  894MOL0     C20568   0.075   4.824   3.441  0.5463  0.0758  1.1076
  894MOL0     C20569   0.054   4.818   3.291 -0.1413  0.9816  0.2901
  894MOL0     C20570   0.018   4.949   3.223 -0.5761 -0.5275  0.7137
  894MOL0     C20571  -0.051   4.948   3.090  0.6922 -0.2558  0.5563
  894MOL0     N20572   0.031   4.890   2.976 -0.1212 -0.7733  0.7097
  894MOL0     C20573   0.013   4.776   2.911 -0.0067  0.6377  0.7301
  894MOL0     C20574   0.107   4.770   2.817  0.5713 -0.0149  0.2915
  894MOL0     C20575   0.144   4.656   2.725 -0.0476 -0.5784  0.1548
  894MOL0     C20576   0.214   4.709   2.601 -0.2198 -0.1198  0.4225
  894MOL0     C20577   0.124   4.773   2.500 -0.1290 -0.5715 -0.1728
  894MOL0     C20578   0.189   4.861   2.391 -0.5189 -1.2799 -0.6352
  894MOL0     O20579   0.254   4.783   2.294 -0.4739 -0.7523 -0.2434
  894MOL0     C20580   0.187   4.762   2.176 -0.1335 -0.1916  1.0594
  894MOL0     C20581   0.150   4.862   2.090 -0.2438  0.1367 -0.2008
  894MOL0     C20582   0.072   4.826   1.975 -0.7064  0.0322  0.7576
  894MOL0     C20583   0.033   4.940   1.874  1.0438 -0.2755 -0.2847
  894MOL0     C20584   0.052   4.691   1.930  0.1567 -0.5862  0.5396
  894MOL0     C20585  -0.030   4.648   1.807  0.2059  0.5046  0.4062
  894MOL0     O20586  -0.084   4.522   1.815 -0.6171 -0.0417 -0.7045
  894MOL0     C20587  -0.169   4.474   1.721 -0.3616 -0.1865 -0.4689
  894MOL0     C20588  -0.296   4.525   1.684  0.2688 -0.5363  1.0012
  894MOL0     C20589  -0.367   4.473   1.575  0.8967  0.9883  0.0811
  894MOL0     C20590  -0.325   4.342   1.525 -0.9834 -0.6759 -0.2911
  894MOL0     O20591  -0.380   4.304   1.411  0.0023 -0.4479  0.7864
  894MOL0     C20592  -0.388   4.169   1.370 -0.3516 -0.3537 -0.7737
  894MOL0     C20593  -0.466   4.066   1.461 -1.0036  1.1597  0.4597
  894MOL0     C20594  -0.599   4.122   1.488  0.5271 -0.2233 -0.6300
  894MOL0     C20595  -0.681   4.015   1.555 -0.5404  0.6722  0.0037
  894MOL0     C20596  -0.811   4.061   1.625  0.9292 -0.1433  0.3446
  894MOL0     C20597  -0.871   3.949   1.711  0.8587 -0.9633  0.0294
  894MOL0     C20598  -0.909   3.819   1.636  0.4662 -0.2945 -0.6554
  894MOL0     C20599  -1.008   3.834   1.522  0.0006  0.1492  1.2972
  894MOL0    Cl20600  -1.103   3.691   1.504 -0.3077  0.4613 -0.5509
  894MOL0     C20601  -0.204   4.286   1.572  0.9903  0.1944  0.4946
  894MOL0     C20602  -0.126   4.354   1.663  0.6757  0.9338 -0.5337
  894MOL0     O20603  -0.029   4.723   1.708  0.8719 -0.1621  0.5288
  894MOL0     C20604   0.076   4.598   2.035 -0.1972 -0.4941  0.5779
  894MOL0     C20605   0.149   4.636   2.148 -0.0250 -0.6336  0.6009
  894MOL0     N20606   0.184   4.889   2.834 -0.2107  0.5735  0.2140
  894MOL0     N20607   0.137   4.959   2.930  0.5373  0.0973  0.6383
  894MOL0     C20608   0.690   4.484   3.528  0.0607  0.9095 -1.1307
  894MOL0     C20609   0.764   4.371   3.489 -0.5964 -0.0646  1.1476
  894MOL0     C20610   0.829   3.953   3.270 -0.2635 -0.4602 -1.0879
  894MOL0     C20611   0.920   3.921   3.366  0.2069  1.4268 -0.3167
  894MOL0     C20612   1.015   3.815   3.352 -0.3982  0.5549 -0.2664
  894MOL0     C20613   1.004   3.732   3.239  0.1794 -0.0298  0.7155
  894MOL0     O20614   1.071   3.620   3.219  0.3266 -0.0520  0.5427
  894MOL0     C20615   1.121   3.550   3.327  0.1405  0.3386  0.3932
  894MOL0     C20616   1.146   3.399   3.276  1.0472 -0.1472  0.0723
  894MOL0     C20617   1.168   3.295   3.376 -0.0566 -0.3003 -0.0986
  894MOL0     C20618   1.181   3.147   3.321  0.1601 -0.3933 -0.7989
  894MOL0     C20619   1.086   3.096   3.227  0.0488 -0.7212 -0.3012
  894MOL0     C20620   1.009   3.062   3.147 -0.0116  0.3385  0.6042
  894MOL0     C20621   0.921   3.778   3.131  0.5512  0.7601  0.2712
  894MOL0     C20622   0.833   3.883   3.150 -0.1691  0.4592  0.0695
  894MOL0     H20623   0.488   4.194   3.383 -0.1378 -1.9999  4.4292
  894MOL0     H20624   0.384   4.406   3.418  0.3357  0.2653  0.6693
  894MOL0     H20625   0.583   4.729   3.666 -2.2134  0.8936  2.2324
  894MOL0     H20626   0.572   4.743   3.482  1.1539 -1.6790  0.2964
  894MOL0     H20627   0.342   4.792   3.679 -1.6981  0.0096 -1.2637
  894MOL0     H20628   0.457   4.927   3.632  3.4250 -1.6604 -1.1893
  894MOL0     H20629   0.380   4.890   3.398 -0.3924 -0.6825 -1.6966
  894MOL0     H20630   0.305   4.736   3.430 -2.2919 -1.1639  1.7395
  894MOL0     H20631   0.165   4.920   3.599 -0.5431 -0.0916 -0.4360
  894MOL0     H20632   0.191   5.005   3.447 -0.4374  0.2074 -0.0358
  894MOL0     H20633   0.102   4.724   3.476 -3.0087 -0.3567  3.0135
  894MOL0     H20634  -0.023   4.858   3.475  0.1666  2.6754 -2.0514
  894MOL0     H20635   0.150   4.775   3.259 -0.4472 -1.2433  2.1174
  894MOL0     H20636  -0.025   4.747   3.268 -0.8185  1.8719 -0.1969
  894MOL0     H20637  -0.046   5.008   3.289 -3.5078  0.8160 -2.9595
  894MOL0     H20638   0.104   5.014   3.208 -1.7133  1.3689  2.0025
  894MOL0     H20639  -0.077   5.051   3.064 -1.2208 -0.4992  1.3106
  894MOL0     H20640  -0.147   4.894   3.093  1.6157 -2.0297 -0.2320
  894MOL0     H20641  -0.058   4.695   2.919  2.5216 -2.4706 -3.9887
  894MOL0     H20642   0.222   4.600   2.778 -0.4788 -0.5936  0.7920
  894MOL0     H20643   0.061   4.595   2.690 -0.6324  0.8878 -1.1041
  894MOL0     H20644   0.268   4.631   2.547 -2.0332 -1.0412 -0.1226
  894MOL0     H20645   0.285   4.782   2.642 -2.4685  0.3559  3.8415
  894MOL0     H20646   0.059   4.839   2.558 -2.9611 -0.5527 -3.0810
  894MOL0     H20647   0.064   4.703   2.442  0.9950  0.5010 -2.7942
  894MOL0     H20648   0.254   4.933   2.442 -2.9847  0.0437  0.8050
  894MOL0     H20649   0.123   4.936   2.347  2.1571  1.2691 -0.6672
  894MOL0     H20650   0.179   4.959   2.127  0.3774 -1.1171  2.8591
  894MOL0     H20651   0.038   5.041   1.915 -1.3265 -0.7385  1.4032
  894MOL0     H20652   0.108   4.935   1.795  0.2463  0.9895 -1.1667
  894MOL0     H20653  -0.066   4.921   1.832 -0.1870 -1.6902  2.9318
  894MOL0     H20654  -0.318   4.620   1.732  2.7388  0.1501  0.9201
  894MOL0     H20655  -0.449   4.529   1.532  1.2382 -0.7854 -3.1624
  894MOL0     H20656  -0.429   4.155   1.269 -1.0066 -3.0266 -0.2090
  894MOL0     H20657  -0.282   4.145   1.360  0.2748  2.9388 -4.2168
  894MOL0     H20658  -0.462   3.964   1.422  0.5369  1.6731 -0.8875
  894MOL0     H20659  -0.413   4.064   1.557 -2.0108  1.2921  1.0319
  894MOL0     H20660  -0.650   4.159   1.399  0.1703  1.2323  0.1428
  894MOL0     H20661  -0.574   4.195   1.566  0.1088 -0.1380 -0.5720
  894MOL0     H20662  -0.703   3.931   1.489 -0.2074 -1.1703  2.1315
  894MOL0     H20663  -0.613   3.974   1.630 -1.4439  1.6105  1.3848
  894MOL0     H20664  -0.886   4.080   1.547  0.0815  2.7228  1.7342
  894MOL0     H20665  -0.796   4.154   1.679  2.2536  0.0017 -0.2400
  894MOL0     H20666  -0.816   3.919   1.801 -1.0316  1.4928  2.1607
  894MOL0     H20667  -0.961   3.995   1.752  0.8567 -1.5701  0.7346
  894MOL0     H20668  -0.950   3.756   1.715  0.1331 -0.0656 -0.6425
  894MOL0     H20669  -0.818   3.765   1.610  1.6252  0.5157  1.4132
  894MOL0     H20670  -0.963   3.861   1.426 -1.5553  0.6758  0.7004
  894MOL0     H20671  -1.072   3.918   1.549  3.4933  3.6056 -0.2662
  894MOL0     H20672  -0.165   4.199   1.521 -0.4531  2.5690 -5.5060
  894MOL0     H20673  -0.030   4.303   1.668  0.1962 -0.4343 -3.1104
  894MOL0     H20674   0.057   4.491   2.033  0.7144 -0.6902  1.6389
  894MOL0     H20675   0.170   4.558   2.221  1.4119 -0.5154  0.3446
  894MOL0     H20676   0.741   4.567   3.576  1.8841 -0.1076 -1.1990
  894MOL0     H20677   0.872   4.366   3.501  0.0176  1.2449 -2.5543
  894MOL0     H20678   0.913   3.981   3.457  1.9403 -2.2310  2.4970
  894MOL0     H20679   1.096   3.811   3.424  1.0998  0.9420 -1.8441
  894MOL0     H20680   1.216   3.588   3.366  0.6575 -1.7779  1.3094
  894MOL0     H20681   1.046   3.557   3.407  1.2820 -1.4903  1.6901
  894MOL0     H20682   1.215   3.396   3.191 -1.7182 -1.7145 -2.2931
  894MOL0     H20683   1.050   3.367   3.236 -0.1683  1.2988  1.6839
  894MOL0     H20684   1.086   3.290   3.448 -0.3021  0.8277 -0.2804
  894MOL0     H20685   1.255   3.318   3.437 -0.0395 -0.7183  0.0354
  894MOL0     H20686   1.192   3.077   3.405  0.7788 -0.6480 -1.0799
  894MOL0     H20687   1.277   3.133   3.270  0.2153 -1.7146 -0.3842
  894MOL0     H20688   0.944   3.033   3.067  2.4633 -3.8178 -0.1564
  894MOL0     H20689   0.913   3.708   3.048 -2.8072 -0.0936  1.1348
  894MOL0     H20690   0.745   3.887   3.087 -1.2017 -0.3314  1.3923
  895MOL0     O20691   4.653   3.576   0.280  0.8547 -0.0238 -0.5399
  895MOL0     C20692   4.761   3.541   0.328  0.9767  0.3391  0.2979
  895MOL0     O20693   4.796   3.571   0.458 -0.2420  0.8191  0.2734
  895MOL0     C20694   4.709   3.627   0.547 -0.5997 -0.0748 -0.5491
  895MOL0     C20695   4.571   3.618   0.547 -0.2612  1.6987  1.0340
  895MOL0     C20696   4.484   3.677   0.641  0.4209 -0.9071 -0.6340
  895MOL0     C20697   4.545   3.747   0.750  0.8349  0.3606 -0.1503
  895MOL0     O20698   4.469   3.786   0.855 -0.9852 -1.1662  1.3275
  895MOL0     C20699   4.520   3.789   0.986 -0.4963 -0.9372 -0.2485
  895MOL0     C20700   4.414   3.765   1.096 -0.0391  0.0733  0.0488
  895MOL0     C20701   4.384   3.619   1.125  0.4502 -0.1335 -0.0285
  895MOL0     C20702   4.237   3.601   1.173  0.8253 -1.4102 -0.0637
  895MOL0     C20703   4.195   3.455   1.216 -0.2248 -0.1030 -0.2350
  895MOL0     C20704   4.127   3.390   1.090 -0.5364 -0.4738 -0.0792
  895MOL0     C20705   4.072   3.250   1.113 -0.0312  0.6318 -0.1754
  895MOL0     C20706   4.044   3.167   0.989 -0.6180 -0.3159 -0.3204
  895MOL0     N20707   3.920   3.074   1.006  0.0399 -0.9347 -0.3212
  895MOL0     C20708   3.914   2.964   1.082  0.9162  0.0229  0.6843
  895MOL0     C20709   3.788   2.918   1.054  0.3184 -0.4900  0.7797
  895MOL0     C20710   3.716   2.807   1.119 -0.3158 -0.1248  0.2723
  895MOL0     C20711   3.608   2.861   1.218 -1.2526 -0.2635  0.2685
  895MOL0     C20712   3.518   2.746   1.260 -0.1081 -0.4300  0.3608
  895MOL0     C20713   3.421   2.781   1.375  0.0701  0.0764  0.2815
  895MOL0     O20714   3.331   2.669   1.389 -0.1602  0.2615  0.3440
  895MOL0     C20715   3.218   2.657   1.314  0.2846  0.3622  0.2138
  895MOL0     C20716   3.182   2.737   1.206 -0.4423 -0.2844  1.3173
  895MOL0     C20717   3.061   2.720   1.133 -0.0985 -0.5772 -0.3578
  895MOL0     C20718   3.051   2.799   1.006  0.7838  0.7190 -0.2953
  895MOL0     C20719   2.976   2.608   1.171 -1.6767 -0.2744  0.9412
  895MOL0     C20720   2.859   2.568   1.094  0.2509  0.0325  0.0557
  895MOL0     O20721   2.831   2.438   1.081  0.4571  0.7752  0.3792
  895MOL0     C20722   2.712   2.403   1.030 -0.0854 -0.4351 -0.3628
  895MOL0     C20723   2.707   2.343   0.908 -0.6628  0.0186 -0.3731
  895MOL0     C20724   2.580   2.301   0.860 -0.4598  0.0136  0.3779
  895MOL0     C20725   2.466   2.338   0.908  0.5326  0.1215 -0.1214
  895MOL0     O20726   2.344   2.320   0.847  0.8754 -0.3084 -0.4820
  895MOL0     C20727   2.343   2.301   0.708 -0.1800 -0.1946 -0.1805
  895MOL0     C20728   2.203   2.317   0.656 -1.3744 -0.3849 -0.0046
  895MOL0     C20729   2.106   2.211   0.686 -0.1518  1.0204 -1.0935
  895MOL0     C20730   2.004   2.177   0.575  0.0660  0.0766 -0.6588
  895MOL0     C20731   1.882   2.270   0.594  0.4404 -0.1654  1.3737
  895MOL0     C20732   1.778   2.222   0.491  0.4913  0.1273  0.3307
  895MOL0     C20733   1.637   2.280   0.517 -0.5428 -0.5017 -0.0147
  895MOL0     C20734   1.540   2.245   0.398 -0.2103  0.2079  0.2716
  895MOL0    Cl20735   1.563   2.071   0.360  0.3091 -0.2018 -0.4127
  895MOL0     C20736   2.473   2.399   1.033  0.4040  0.7866 -0.3369
  895MOL0     C20737   2.590   2.434   1.101  0.2437 -0.7662  0.6951
  895MOL0     O20738   2.794   2.660   1.039 -0.3354  0.2533 -0.8637
  895MOL0     C20739   3.001   2.536   1.288  0.7047  0.1894  0.2350
  895MOL0     C20740   3.130   2.552   1.351  0.0250 -0.8194 -0.4174
  895MOL0     N20741   3.728   2.990   0.955  0.1024 -0.3412 -0.0729
  895MOL0     N20742   3.807   3.089   0.933  0.9682 -0.1926 -0.0643
  895MOL0     C20743   4.686   3.754   0.753 -0.1647 -0.7761  0.0419
  895MOL0     C20744   4.767   3.692   0.656 -0.1934 -0.8227 -0.1206
  895MOL0     C20745   4.868   3.495   0.232  0.0697 -0.1864  0.4521
  895MOL0     C20746   4.829   3.426   0.114 -0.5753 -0.4071 -0.8099
  895MOL0     C20747   4.913   3.397   0.011 -0.2247 -0.3157  0.4847
  895MOL0     C20748   5.050   3.452   0.008  0.4458 -0.4955 -0.0836
  895MOL0     O20749   5.139   3.418  -0.083 -0.3933 -0.0146  0.1816
  895MOL0     C20750   5.115   3.475  -0.211 -0.1588  0.1908  0.2895
  895MOL0     C20751   5.247   3.465  -0.289 -0.0741 -0.1531  1.3333
  895MOL0     C20752   5.239   3.507  -0.436 -0.1347  0.0221 -0.1974
  895MOL0     C20753   5.193   3.650  -0.467 -0.6034  0.1327 -0.0741
  895MOL0     C20754   5.303   3.735  -0.434  1.0958 -0.3424 -0.0216
  895MOL0     C20755   5.399   3.815  -0.424 -0.2980  0.1095  0.8613
  895MOL0     C20756   5.085   3.527   0.124 -1.8296 -0.4605  0.7322
  895MOL0     C20757   4.998   3.555   0.235 -0.1420 -0.0080  0.3924
  895MOL0     H20758   4.524   3.541   0.486 -0.0808  0.4131  2.4739
  895MOL0     H20759   4.379   3.652   0.637  1.4033 -5.6696 -2.4379
  895MOL0     H20760   4.601   3.716   0.998  0.1857 -0.5948 -2.2771
  895MOL0     H20761   4.565   3.887   0.999  1.3774 -1.7701 -0.1720
  895MOL0     H20762   4.423   3.832   1.181 -0.4015  0.4655 -0.2200
  895MOL0     H20763   4.330   3.822   1.057  0.1037 -0.2783 -0.8084
  895MOL0     H20764   4.400   3.551   1.040  3.3078  1.2318 -0.7049
  895MOL0     H20765   4.455   3.586   1.202  0.8103  1.8864  0.5502
  895MOL0     H20766   4.227   3.673   1.255 -1.9461 -2.3423  0.5276
  895MOL0     H20767   4.181   3.636   1.086  1.0220 -1.2086 -0.1101
  895MOL0     H20768   4.286   3.403   1.246  3.2248  3.5905 -3.2078
  895MOL0     H20769   4.123   3.442   1.297 -0.6430 -1.7278 -0.8222
  895MOL0     H20770   4.038   3.450   1.068  1.1699  3.2468  2.0869
  895MOL0     H20771   4.198   3.387   1.006  0.9844  0.1797  1.1242
  895MOL0     H20772   4.150   3.193   1.164 -2.0091 -1.6415  0.4825
  895MOL0     H20773   3.982   3.272   1.170 -1.0766 -1.1828 -1.0649
  895MOL0     H20774   4.132   3.111   0.956 -1.8146 -2.6359  0.2237
  895MOL0     H20775   4.024   3.235   0.906  0.5651  1.6278  0.8949
  895MOL0     H20776   3.991   2.937   1.153  1.5889  2.3101  0.8912
  895MOL0     H20777   3.659   2.754   1.042 -0.1103 -1.6613  1.1342
  895MOL0     H20778   3.800   2.750   1.160 -0.4710 -2.6756 -2.5891
  895MOL0     H20779   3.546   2.937   1.171 -0.1821  1.1965  1.0972
  895MOL0     H20780   3.652   2.898   1.312  0.1928 -1.1501 -0.0167
  895MOL0     H20781   3.585   2.676   1.311 -1.2442 -1.4254  0.5107
  895MOL0     H20782   3.463   2.697   1.180 -0.0316  1.4156 -0.9024
  895MOL0     H20783   3.360   2.865   1.339 -1.1487 -1.7851 -2.2690
  895MOL0     H20784   3.470   2.810   1.468 -0.4431  0.7642  0.3465
  895MOL0     H20785   3.242   2.819   1.171  0.9729 -0.0743  3.9734
  895MOL0     H20786   2.988   2.887   1.026  0.0935 -0.1283  1.4472
  895MOL0     H20787   3.151   2.832   0.977  2.3003  0.4071  3.8905
  895MOL0     H20788   3.024   2.733   0.924  0.6637 -0.3908  0.6033
  895MOL0     H20789   2.793   2.319   0.847 -0.4069 -1.5391  0.5514
  895MOL0     H20790   2.588   2.252   0.764 -1.9043  0.7616 -0.1650
  895MOL0     H20791   2.414   2.367   0.658 -2.1623  3.6170  1.6097
  895MOL0     H20792   2.366   2.194   0.693 -2.8451 -1.4183  3.2597
  895MOL0     H20793   2.170   2.418   0.678  2.1756  0.8554  0.2831
  895MOL0     H20794   2.214   2.329   0.548  1.5758 -1.6195  0.0387
  895MOL0     H20795   2.061   2.229   0.784 -2.2819 -0.2254 -1.7713
  895MOL0     H20796   2.170   2.124   0.700 -1.1237  0.6482  1.6163
  895MOL0     H20797   2.051   2.190   0.477 -1.2448 -1.2894 -1.5203
  895MOL0     H20798   1.971   2.074   0.590  0.3099  0.1318  0.3366
  895MOL0     H20799   1.913   2.375   0.588 -1.9479  0.6307  1.8607
  895MOL0     H20800   1.836   2.265   0.693 -0.1079 -0.2380  1.1176
  895MOL0     H20801   1.806   2.241   0.387  2.9303  5.1132  1.5944
  895MOL0     H20802   1.770   2.116   0.517 -1.3899  0.2912  0.5276
  895MOL0     H20803   1.642   2.388   0.530 -0.9642 -0.8809  4.8702
  895MOL0     H20804   1.602   2.230   0.607  1.0931 -1.1849  0.2802
  895MOL0     H20805   1.563   2.311   0.314  3.9468 -0.9895  0.2704
  895MOL0     H20806   1.433   2.261   0.418 -0.7633  0.5198 -2.5241
  895MOL0     H20807   2.372   2.426   1.064 -0.3599  1.0691 -2.8444
  895MOL0     H20808   2.598   2.490   1.194  0.5971 -1.1998  0.9283
  895MOL0     H20809   2.927   2.458   1.298 -1.3529  2.0372  0.0992
  895MOL0     H20810   3.150   2.500   1.444  2.7413  0.3249 -0.2709
  895MOL0     H20811   4.731   3.801   0.840  0.4167  2.8043 -2.0028
  895MOL0     H20812   4.875   3.701   0.651 -0.1669  4.6802  2.8647
  895MOL0     H20813   4.729   3.391   0.091 -0.0229 -1.3626 -1.8651
  895MOL0     H20814   4.882   3.346  -0.079 -0.6283 -0.5534  0.7563
  895MOL0     H20815   5.031   3.428  -0.262 -0.1735  0.0936  0.4019
  895MOL0     H20816   5.106   3.583  -0.196  1.3006  0.0523  2.7968
  895MOL0     H20817   5.270   3.359  -0.301 -2.5856 -0.6431 -0.0206
  895MOL0     H20818   5.318   3.524  -0.232  0.6758  0.4914 -0.2035
  895MOL0     H20819   5.173   3.442  -0.494  1.0085 -2.1181  0.8133
  895MOL0     H20820   5.332   3.480  -0.487 -0.4604 -0.6736 -0.4383
  895MOL0     H20821   5.102   3.663  -0.408  0.5471  4.6239  1.0376
  895MOL0     H20822   5.165   3.656  -0.573 -3.1928 -0.2102  0.5393
  895MOL0     H20823   5.486   3.872  -0.401 -1.7049  2.1606  1.3784
  895MOL0     H20824   5.187   3.564   0.129 -1.8762 -0.1124 -0.4826
  895MOL0     H20825   5.036   3.616   0.316  1.6510  0.3326 -0.6539
  896MOL0     O20826   4.913   9.210   4.669  0.1633  0.0400  0.3708
  896MOL0     C20827   4.990   9.215   4.762 -0.2378 -0.6549  0.0266
  896MOL0     O20828   5.003   9.315   4.852 -0.0270 -0.4946  0.6469
  896MOL0     C20829   4.945   9.441   4.828  0.8869 -0.4055  0.2760
  896MOL0     C20830   4.847   9.499   4.904  0.5933 -0.7386  0.5335
  896MOL0     C20831   4.804   9.635   4.873  0.0210  0.5060  0.3367
  896MOL0     C20832   4.863   9.702   4.771 -0.0134  0.8394 -0.7495
  896MOL0     O20833   4.827   9.831   4.735 -0.1278  1.3275  0.5255
  896MOL0     C20834   4.788   9.864   4.601  0.7813  0.0884  0.2409
  896MOL0     C20835   4.657   9.796   4.548 -0.1305 -0.2324 -0.3375
  896MOL0     C20836   4.658   9.644   4.535  0.0458 -0.0600  0.9252
  896MOL0     C20837   4.525   9.592   4.488 -0.8252  0.4773  0.3353
  896MOL0     C20838   4.525   9.443   4.434  0.4915 -0.3775  0.6890
  896MOL0     C20839   4.549   9.336   4.547 -0.6111 -1.0669 -1.1866
  896MOL0     C20840   4.639   9.231   4.499 -0.8432 -0.7729  0.0637
  896MOL0     C20841   4.587   9.138   4.386 -0.2167  0.5464  0.4553
  896MOL0     N20842   4.498   9.025   4.435  0.0067  0.1880  0.2748
  896MOL0     C20843   4.506   8.958   4.558 -0.2211 -0.4642  0.6077
  896MOL0     C20844   4.392   8.886   4.553  0.4290  0.0725  0.4772
  896MOL0     C20845   4.343   8.810   4.665  0.8063 -0.0206  0.9904
  896MOL0     C20846   4.324   8.890   4.783  0.2667 -1.1874 -0.8394
  896MOL0     C20847   4.250   8.815   4.896  0.1088  0.7486  0.6786
  896MOL0     C20848   4.215   8.887   5.027  0.0185  0.1000  0.2592
  896MOL0     O20849   4.159   8.788   5.109  0.2763  0.5035 -0.0874
  896MOL0     C20850   4.198   8.760   5.236  0.1871  0.5856 -0.0182
  896MOL0     C20851   4.287   8.823   5.312 -0.8793  0.4809 -0.1071
  896MOL0     C20852   4.308   8.791   5.448 -0.5005 -0.6807  0.6548
  896MOL0     C20853   4.432   8.844   5.518  0.2670 -0.3981 -0.7713
  896MOL0     C20854   4.219   8.692   5.510  0.1952  1.0304 -0.6998
  896MOL0     C20855   4.215   8.664   5.655 -0.4552  0.1987 -0.3952
  896MOL0     O20856   4.105   8.591   5.696 -0.2492  0.6617 -0.2606
  896MOL0     C20857   4.070   8.577   5.827  0.2982 -0.4422 -0.0305
  896MOL0     C20858   3.955   8.500   5.861  0.2305  0.4326  0.0065
  896MOL0     C20859   3.918   8.489   5.993  0.3501 -1.0721 -1.0518
  896MOL0     C20860   4.001   8.544   6.099  0.4215  1.2350  0.4335
  896MOL0     O20861   3.975   8.520   6.232  0.3240 -0.5570  0.1839
  896MOL0     C20862   3.901   8.405   6.266  0.2333  0.7501  1.0444
  896MOL0     C20863   3.917   8.389   6.422 -0.4939  0.5031 -0.7007
  896MOL0     C20864   4.069   8.361   6.456  0.7260  0.8396 -1.0344
  896MOL0     C20865   4.097   8.377   6.606  1.7675 -0.9525  1.1763
  896MOL0     C20866   4.250   8.342   6.635 -0.7610 -0.3000  0.0021
  896MOL0     C20867   4.332   8.472   6.670  0.5856 -0.0983 -0.0693
  896MOL0     C20868   4.328   8.560   6.546  0.3464 -1.0385  0.1956
  896MOL0     C20869   4.446   8.656   6.545 -0.3666  0.7379 -0.0757
  896MOL0    Cl20870   4.454   8.740   6.705  0.1055  0.3785 -0.5026
  896MOL0     C20871   4.102   8.631   6.070 -0.5140 -0.3440  0.5320
  896MOL0     C20872   4.131   8.650   5.932 -0.3054  0.2785 -0.8545
  896MOL0     O20873   4.312   8.693   5.721 -0.5234 -0.2369 -0.5634
  896MOL0     C20874   4.116   8.636   5.434  0.2307 -1.3131  0.2129
  896MOL0     C20875   4.108   8.672   5.296 -0.0725  0.7026 -0.2683
  896MOL0     N20876   4.326   8.899   4.438 -0.1146 -0.0514 -0.3009
  896MOL0     N20877   4.392   8.974   4.364 -0.1437  0.2522  0.2931
  896MOL0     C20878   4.961   9.642   4.696  0.5070 -0.1245 -1.2215
  896MOL0     C20879   4.999   9.510   4.722  0.4390 -0.4596  0.0040
  896MOL0     C20880   5.074   9.106   4.787 -0.1784 -0.8301 -0.0026
  896MOL0     C20881   5.038   8.969   4.783  0.6037 -0.2349 -0.1348
  896MOL0     C20882   5.127   8.871   4.823 -0.0694  0.1119  0.3182
  896MOL0     C20883   5.253   8.899   4.880 -0.0381  0.1756  0.1563
  896MOL0     O20884   5.331   8.804   4.952 -0.2895  0.2004  0.4546
  896MOL0     C20885   5.292   8.792   5.091 -0.0039 -0.0419 -0.2798
  896MOL0     C20886   5.324   8.662   5.164 -0.4747 -0.4569 -0.0066
  896MOL0     C20887   5.254   8.552   5.079 -0.0416  0.1352 -0.6487
  896MOL0     C20888   5.095   8.548   5.108  0.0290 -0.4855 -0.1898
  896MOL0     C20889   5.035   8.457   5.018  0.5527  0.8250  0.9913
  896MOL0     C20890   4.986   8.382   4.934 -0.4009 -0.0130 -0.3531
  896MOL0     C20891   5.297   9.038   4.884  0.2685  0.0869 -0.6264
  896MOL0     C20892   5.213   9.140   4.836  1.3697 -0.3184 -0.2818
  896MOL0     H20893   4.812   9.438   4.987 -5.8330  0.7984 -0.5486
  896MOL0     H20894   4.723   9.680   4.931 -1.3733  1.5974 -2.2683
  896MOL0     H20895   4.774   9.972   4.589 -1.7675  0.0655  2.1497
  896MOL0     H20896   4.869   9.824   4.539  0.0049  2.0023 -2.1596
  896MOL0     H20897   4.580   9.822   4.622  0.1547 -0.9084  0.2187
  896MOL0     H20898   4.629   9.836   4.451  1.0593 -1.5708 -1.2841
  896MOL0     H20899   4.740   9.614   4.469 -0.7354  0.8901 -0.5451
  896MOL0     H20900   4.679   9.591   4.628 -1.0755 -3.4686 -0.5807
  896MOL0     H20901   4.445   9.605   4.562 -1.6438  2.7679 -0.8566
  896MOL0     H20902   4.485   9.654   4.407 -0.2055 -0.3562 -0.6335
  896MOL0     H20903   4.425   9.431   4.392 -0.9285 -0.6750  3.8947
  896MOL0     H20904   4.594   9.442   4.349 -0.8041  1.2282 -0.4615
  896MOL0     H20905   4.593   9.380   4.638 -0.1863  1.9745 -2.7219
  896MOL0     H20906   4.451   9.297   4.575 -1.1092  0.5285 -0.5711
  896MOL0     H20907   4.725   9.273   4.447 -2.0883  1.7397 -0.0967
  896MOL0     H20908   4.675   9.167   4.580  1.5484 -1.3260 -1.3339
  896MOL0     H20909   4.672   9.081   4.347 -1.7969 -1.3244 -0.4526
  896MOL0     H20910   4.550   9.189   4.297 -0.8222 -3.0967 -1.6101
  896MOL0     H20911   4.585   8.966   4.632  0.1225 -0.9734  0.3011
  896MOL0     H20912   4.252   8.757   4.635  1.0805 -0.6779  1.2986
  896MOL0     H20913   4.414   8.729   4.686 -1.2838 -2.9039 -1.9761
  896MOL0     H20914   4.264   8.977   4.754  1.7372 -0.9218 -3.3891
  896MOL0     H20915   4.416   8.923   4.832 -0.7969 -3.2022  2.9519
  896MOL0     H20916   4.290   8.715   4.917 -1.3592  0.2732  1.3607
  896MOL0     H20917   4.152   8.791   4.856 -1.0058  2.0675  2.4796
  896MOL0     H20918   4.142   8.967   5.017 -0.6026 -0.4817  0.0441
  896MOL0     H20919   4.305   8.929   5.073 -0.7546  1.3356  0.6860
  896MOL0     H20920   4.351   8.889   5.254 -2.1136 -0.2885 -2.4798
  896MOL0     H20921   4.493   8.915   5.461 -0.1704  1.1647  0.6285
  896MOL0     H20922   4.408   8.888   5.615  0.9306  2.7991 -1.9465
  896MOL0     H20923   4.495   8.758   5.544 -1.3765 -2.0360 -1.8803
  896MOL0     H20924   3.896   8.434   5.799 -0.6614  1.6044 -0.4372
  896MOL0     H20925   3.831   8.427   6.015  0.0239  0.3041  2.1733
  896MOL0     H20926   3.793   8.417   6.250 -0.1399 -0.5327  2.2978
  896MOL0     H20927   3.940   8.319   6.211 -2.5964  0.6710 -1.0742
  896MOL0     H20928   3.879   8.482   6.466 -1.1743 -0.4744  0.8724
  896MOL0     H20929   3.845   8.319   6.466  2.3632 -1.7728  0.7092
  896MOL0     H20930   4.136   8.426   6.400  1.3033  0.5380 -0.7008
  896MOL0     H20931   4.086   8.258   6.425 -4.7733 -1.1641  1.1938
  896MOL0     H20932   4.063   8.474   6.641  1.9105 -0.9484  1.3063
  896MOL0     H20933   4.040   8.301   6.660 -1.2173  0.3122  0.0013
  896MOL0     H20934   4.294   8.291   6.549  1.8148 -1.5526  1.9399
  896MOL0     H20935   4.258   8.275   6.721  5.2549 -0.4481 -0.2599
  896MOL0     H20936   4.275   8.526   6.746 -2.4643  2.8787 -4.0132
  896MOL0     H20937   4.436   8.446   6.694  0.7072 -2.7228 -2.8333
  896MOL0     H20938   4.241   8.625   6.557 -0.3141 -1.5504 -1.5953
  896MOL0     H20939   4.321   8.492   6.460  4.0541 -3.3122  1.4701
  896MOL0     H20940   4.435   8.728   6.463 -0.3644  0.3859 -0.3913
  896MOL0     H20941   4.541   8.603   6.534  1.4058  3.6078  0.4870
  896MOL0     H20942   4.156   8.694   6.140 -0.2231  3.3591 -2.6874
  896MOL0     H20943   4.206   8.728   5.919  0.9658 -0.1492  2.8192
  896MOL0     H20944   4.059   8.550   5.468 -0.5964 -1.1698 -0.7806
  896MOL0     H20945   4.044   8.621   5.225  3.0332 -1.2591 -1.8987
  896MOL0     H20946   5.020   9.697   4.624  2.5007  0.1020  0.4938
  896MOL0     H20947   5.094   9.493   4.671 -0.0896 -2.7491 -0.3424
  896MOL0     H20948   4.940   8.950   4.741  0.8210 -0.5860 -0.4950
  896MOL0     H20949   5.097   8.767   4.813  1.6509 -0.8579  3.7625
  896MOL0     H20950   5.354   8.863   5.147 -1.5525  0.5110  0.8040
  896MOL0     H20951   5.190   8.825   5.111 -0.1553 -0.0653 -0.9881
  896MOL0     H20952   5.279   8.667   5.263 -0.0806  3.1768  0.1287
  896MOL0     H20953   5.432   8.647   5.174 -0.0302  2.9255  1.7673
  896MOL0     H20954   5.285   8.450   5.104  1.0711  0.8347  0.9993
  896MOL0     H20955   5.273   8.564   4.972 -3.4243  0.2490 -1.3314
  896MOL0     H20956   5.063   8.651   5.090  1.0410 -0.4690 -2.1911
  896MOL0     H20957   5.071   8.521   5.211 -1.6724  0.6704 -0.2481
  896MOL0     H20958   4.964   8.330   4.843  1.6570 -3.3331  0.8572
  896MOL0     H20959   5.397   9.051   4.925  1.2660 -3.0551 -1.7725
  896MOL0     H20960   5.248   9.242   4.832  1.0149 -0.1277  1.0041
  897MOL0     O20961   3.555   3.247   4.190 -0.1113 -0.4994 -0.1078
  897MOL0     C20962   3.562   3.158   4.100  0.5640 -0.0778  0.2586
  897MOL0     O20963   3.675   3.123   4.037  0.1111 -0.1664 -0.3320
  897MOL0     C20964   3.788   3.197   4.057  0.2950  0.2541  0.1775
  897MOL0     C20965   3.797   3.333   4.089  0.2059  0.3933 -0.3418
  897MOL0     C20966   3.920   3.391   4.112  0.2237 -0.1929 -0.4948
  897MOL0     C20967   4.036   3.329   4.098  0.4767  0.5716  0.3989
  897MOL0     O20968   4.154   3.397   4.122 -0.7092  0.2049 -0.4161
  897MOL0     C20969   4.168   3.544   4.130 -0.2670  0.4633 -0.6578
  897MOL0     C20970   4.163   3.606   3.991  0.3740  0.2475 -0.7407
  897MOL0     C20971   4.181   3.761   4.010  0.1663  0.2468  0.0253
  897MOL0     C20972   4.134   3.843   3.884 -0.4321  0.9191  0.3376
  897MOL0     C20973   4.164   3.992   3.915 -0.3644 -0.7954  0.2463
  897MOL0     C20974   4.167   4.065   3.779  0.0736 -0.2246 -0.3327
  897MOL0     C20975   4.184   4.218   3.791 -0.5655  0.0588  0.9600
  897MOL0     C20976   4.292   4.267   3.890  0.1652 -0.2379  0.3319
  897MOL0     N20977   4.431   4.216   3.848  0.8758  0.0217  0.1409
  897MOL0     C20978   4.495   4.115   3.907  0.2489 -0.8043 -0.9016
  897MOL0     C20979   4.624   4.113   3.861 -0.1396 -0.7842 -0.3624
  897MOL0     C20980   4.739   4.033   3.902  0.3830  0.0832  0.3599
  897MOL0     C20981   4.697   3.919   3.998 -1.1056  0.2186 -0.1703
  897MOL0     C20982   4.625   3.800   3.929  0.1666  0.2067 -0.1052
  897MOL0     C20983   4.629   3.674   4.009 -0.4050  0.4940  0.6660
  897MOL0     O20984   4.532   3.582   3.957  0.3853 -0.3632 -0.1282
  897MOL0     C20985   4.563   3.451   3.936 -0.2161 -0.1510  0.3894
  897MOL0     C20986   4.663   3.375   4.006 -0.2454 -0.6072  0.4638
  897MOL0     C20987   4.694   3.243   3.983 -0.3143 -0.1239  0.1558
  897MOL0     C20988   4.815   3.197   4.052  0.1995  0.0481 -0.5287
  897MOL0     C20989   4.613   3.170   3.892 -1.3366 -0.4637 -0.1884
  897MOL0     C20990   4.614   3.023   3.884  0.7357  0.2391 -0.0287
  897MOL0     O20991   4.518   2.973   3.792 -0.2947 -0.0617 -0.7708
  897MOL0     C20992   4.492   2.836   3.806  0.4844  0.0071  0.2959
  897MOL0     C20993   4.573   2.743   3.741 -0.0062  0.1042 -0.4077
  897MOL0     C20994   4.561   2.613   3.773 -0.2959 -0.0520 -0.2130
  897MOL0     C20995   4.472   2.570   3.871 -0.1178  0.0564 -0.1834
  897MOL0     O20996   4.452   2.438   3.893 -0.2039  0.4146 -0.3961
  897MOL0     C20997   4.515   2.333   3.810  0.3656  0.1379 -0.8307
  897MOL0     C20998   4.447   2.311   3.675 -0.1955  0.4094 -0.2490
  897MOL0     C20999   4.512   2.187   3.603  0.0447 -0.1609  0.0781
  897MOL0     C21000   4.467   2.184   3.457 -0.1322 -0.2298  0.2663
  897MOL0     C21001   4.560   2.114   3.364  0.0738  0.9063 -0.1983
  897MOL0     C21002   4.708   2.161   3.383 -0.0477  0.2951  0.6853
  897MOL0     C21003   4.736   2.307   3.381  0.6489 -0.2888 -0.0740
  897MOL0     C21004   4.885   2.337   3.372  0.2417  0.3325  0.2650
  897MOL0    Cl21005   4.969   2.284   3.521 -0.0721 -0.5840  0.6097
  897MOL0     C21006   4.399   2.662   3.943  0.7258  0.5524  0.7176
  897MOL0     C21007   4.406   2.795   3.912 -0.2563  0.4147 -0.4745
  897MOL0     O21008   4.672   2.962   3.972 -0.2767 -1.0199  0.7830
  897MOL0     C21009   4.510   3.242   3.831 -0.4135  0.0288 -0.3683
  897MOL0     C21010   4.488   3.373   3.846 -0.2050  0.0605 -0.1867
  897MOL0     N21011   4.646   4.216   3.769  0.5144  0.0833  0.5452
  897MOL0     N21012   4.524   4.273   3.762 -0.6113 -0.1699 -0.3352
  897MOL0     C21013   4.033   3.198   4.066  0.0462  0.3222  0.6979
  897MOL0     C21014   3.909   3.130   4.039 -0.1149 -0.0735  0.7123
  897MOL0     C21015   3.432   3.100   4.048  0.5848  0.1301  0.4259
  897MOL0     C21016   3.422   3.007   3.937 -0.3345  0.1502 -1.2216
  897MOL0     C21017   3.290   2.971   3.902  0.1428  0.6303  0.4680
  897MOL0     C21018   3.169   3.029   3.960 -0.8202  1.1215  0.1136
  897MOL0     O21019   3.031   3.010   3.928 -0.0535 -0.3156 -0.2002
  897MOL0     C21020   2.983   2.936   3.817 -0.3758 -0.5824 -0.3938
  897MOL0     C21021   3.004   2.783   3.836 -0.2680  0.6289  0.3247
  897MOL0     C21022   2.987   2.711   3.967  0.4365  0.0892 -1.0951
  897MOL0     C21023   2.845   2.683   4.025  0.3170 -0.5978 -0.5542
  897MOL0     C21024   2.752   2.795   3.993  0.5003 -0.5801  0.4365
  897MOL0     C21025   2.667   2.874   3.950  0.5567 -0.0111  0.0683
  897MOL0     C21026   3.187   3.119   4.061 -0.3783  0.6221 -0.8456
  897MOL0     C21027   3.313   3.154   4.114 -0.1987 -0.0872 -0.5565
  897MOL0     H21028   3.707   3.390   4.112 -2.0270 -3.4695  1.3313
  897MOL0     H21029   3.911   3.490   4.156  0.0241 -0.6370  0.4896
  897MOL0     H21030   4.083   3.588   4.183 -0.1225  0.9881 -0.8615
  897MOL0     H21031   4.253   3.577   4.191 -0.7221 -0.0467  0.2699
  897MOL0     H21032   4.250   3.568   3.938 -0.2793  0.7766 -2.2501
  897MOL0     H21033   4.067   3.600   3.939 -0.1930  2.3989 -0.0631
  897MOL0     H21034   4.124   3.796   4.096  2.1006  0.8216  1.1328
  897MOL0     H21035   4.290   3.774   4.015  0.3284 -1.2004  0.8654
  897MOL0     H21036   4.183   3.800   3.796  0.2569  0.0973  1.0946
  897MOL0     H21037   4.026   3.832   3.880 -0.2664 -0.6689 -2.4027
  897MOL0     H21038   4.092   4.030   3.989  1.2623 -0.3389  1.6582
  897MOL0     H21039   4.262   4.006   3.962 -1.7180  0.6020  2.9230
  897MOL0     H21040   4.244   4.029   3.709 -1.7817 -2.2665 -1.4294
  897MOL0     H21041   4.075   4.037   3.727  2.1060 -1.1061 -3.8280
  897MOL0     H21042   4.200   4.249   3.687 -1.2912  2.4285  1.4750
  897MOL0     H21043   4.081   4.252   3.808 -0.5641 -0.0112  1.1113
  897MOL0     H21044   4.285   4.240   3.996  1.7010  2.1075  1.1133
  897MOL0     H21045   4.285   4.376   3.886  1.0225 -0.1666  0.6017
  897MOL0     H21046   4.443   4.051   3.977  1.1918 -0.7895 -0.1792
  897MOL0     H21047   4.770   3.984   3.809 -0.9006  0.3117 -0.2084
  897MOL0     H21048   4.815   4.086   3.960 -1.6949  0.5019  2.8730
  897MOL0     H21049   4.646   3.962   4.085  2.7724  2.3880  1.2683
  897MOL0     H21050   4.785   3.872   4.043 -0.3859  2.5132  0.9450
  897MOL0     H21051   4.672   3.771   3.835  2.5568  0.8401  0.7963
  897MOL0     H21052   4.518   3.817   3.917 -0.6659 -4.1868 -0.6931
  897MOL0     H21053   4.611   3.700   4.114  1.6039 -1.9173  1.7212
  897MOL0     H21054   4.732   3.636   4.003  0.2818  2.3962 -0.4740
  897MOL0     H21055   4.719   3.427   4.083  0.8182  0.8962 -1.2429
  897MOL0     H21056   4.896   3.161   3.989  2.0796 -0.0139  1.7819
  897MOL0     H21057   4.852   3.285   4.105 -0.3766 -1.5111  2.7409
  897MOL0     H21058   4.803   3.115   4.123  1.1930  0.3403 -0.0080
  897MOL0     H21059   4.655   2.788   3.685 -1.8381  6.3847  1.1495
  897MOL0     H21060   4.636   2.553   3.722  0.8234  1.8486 -0.9196
  897MOL0     H21061   4.616   2.367   3.783  0.0919 -0.8360 -3.3387
  897MOL0     H21062   4.523   2.243   3.872 -0.9932 -0.3290 -1.3011
  897MOL0     H21063   4.339   2.303   3.685 -0.0631 -1.6325  0.1615
  897MOL0     H21064   4.467   2.401   3.616  0.9039 -0.9939 -2.1330
  897MOL0     H21065   4.492   2.089   3.647 -0.5094 -0.8854 -1.6616
  897MOL0     H21066   4.619   2.206   3.616  0.0244 -1.1177  1.8939
  897MOL0     H21067   4.371   2.139   3.433 -1.4504  2.5988 -0.2378
  897MOL0     H21068   4.460   2.284   3.413 -2.3547 -2.0351 -4.0922
  897MOL0     H21069   4.534   2.129   3.259 -0.4330 -0.1109 -0.2339
  897MOL0     H21070   4.550   2.007   3.387 -2.4966  0.5036 -2.7110
  897MOL0     H21071   4.751   2.109   3.469 -1.4878 -0.6607  0.8685
  897MOL0     H21072   4.761   2.120   3.296 -0.9279  2.5633 -1.0245
  897MOL0     H21073   4.689   2.360   3.465 -0.1202  1.1981 -1.3866
  897MOL0     H21074   4.677   2.348   3.299  0.7345 -1.7126 -0.8753
  897MOL0     H21075   4.899   2.445   3.366  1.2855  0.2224  0.6826
  897MOL0     H21076   4.919   2.292   3.278 -0.1447 -1.6447  1.0233
  897MOL0     H21077   4.333   2.615   4.016  0.6702  1.2094  1.0997
  897MOL0     H21078   4.341   2.861   3.969 -2.2555 -1.3820 -0.5414
  897MOL0     H21079   4.450   3.204   3.750  2.3934 -0.3549 -2.4101
  897MOL0     H21080   4.404   3.419   3.795  1.0776  1.7724 -0.8426
  897MOL0     H21081   4.128   3.147   4.055  0.3704  0.6964  1.5923
  897MOL0     H21082   3.906   3.025   4.010 -2.1845 -0.0885  0.7982
  897MOL0     H21083   3.518   2.963   3.915  1.9209  0.1340  5.9048
  897MOL0     H21084   3.272   2.891   3.830 -0.9834  2.3668 -1.2770
  897MOL0     H21085   2.875   2.956   3.820  0.0411  2.0289  0.6682
  897MOL0     H21086   3.026   2.965   3.720  0.1023  0.8073  0.2060
  897MOL0     H21087   3.102   2.764   3.791 -0.2151  0.1471  0.6455
  897MOL0     H21088   2.933   2.736   3.768  0.6175 -0.5229  0.1611
  897MOL0     H21089   3.018   2.778   4.048 -0.4627 -2.1521  1.2407
  897MOL0     H21090   3.051   2.622   3.969  1.9731  1.1738  0.2601
  897MOL0     H21091   2.847   2.683   4.134  1.1703 -1.2288 -0.5651
  897MOL0     H21092   2.807   2.590   3.983 -0.6405 -0.1387 -0.7573
  897MOL0     H21093   2.601   2.950   3.913  0.6553  0.7396  1.3961
  897MOL0     H21094   3.101   3.154   4.117 -1.4258  0.1382 -2.0911
  897MOL0     H21095   3.321   3.220   4.200  2.6469 -0.9927 -0.0176
  898MOL0     O21096   8.418   0.236   3.959  0.2819 -0.4880 -0.8202
  898MOL0     C21097   8.380   0.118   3.986 -0.4886  0.1542 -0.1199
  898MOL0     O21098   8.381   0.058   4.107  0.5352  0.1109 -0.1713
  898MOL0     C21099   8.405   0.139   4.214 -0.5315  0.3817  0.3591
  898MOL0     C21100   8.328   0.251   4.234 -0.3704 -0.8838 -0.3252
  898MOL0     C21101   8.346   0.339   4.340 -1.3266  0.0232 -0.9709
  898MOL0     C21102   8.454   0.307   4.430 -0.2064 -0.6370  0.3564
  898MOL0     O21103   8.484   0.405   4.521  0.3955  0.0450 -0.6506
  898MOL0     C21104   8.620   0.406   4.586 -0.3604  0.3410  0.4798
  898MOL0     C21105   8.641   0.536   4.658  1.0053 -0.3560  0.4104
  898MOL0     C21106   8.758   0.549   4.764 -0.3038 -0.1590  0.0451
  898MOL0     C21107   8.880   0.584   4.675 -0.1480  0.0811  0.1860
  898MOL0     C21108   9.019   0.592   4.743 -0.2648 -0.6728 -0.2157
  898MOL0     C21109   9.041   0.712   4.843  0.2103  0.3919  0.0216
  898MOL0     C21110   9.188   0.723   4.894 -0.3706  0.1227  0.1783
  898MOL0     C21111   9.221   0.858   4.965  0.7239 -0.7541 -0.2498
  898MOL0     N21112   9.346   0.934   4.930 -0.4336 -0.2721 -0.1282
  898MOL0     C21113   9.408   1.017   5.017  0.5736 -0.6731  0.7589
  898MOL0     C21114   9.505   1.077   4.938 -0.3200  0.4993 -1.2315
  898MOL0     C21115   9.597   1.184   4.981  0.0185 -0.1808  0.1478
  898MOL0     C21116   9.709   1.129   5.067  0.0255 -0.1439 -0.1438
  898MOL0     C21117   9.770   1.002   5.002 -0.4683 -0.4235  0.1836
  898MOL0     C21118   9.916   1.011   5.046  0.1468 -0.4879  0.9751
  898MOL0     O21119   9.988   1.103   4.965  1.0270  0.3089 -0.0484
  898MOL0     C21120  10.110   1.151   4.995  0.6969  1.4995 -0.0973
  898MOL0     C21121  10.179   1.134   5.116  0.1008  0.2142 -0.1740
  898MOL0     C21122  10.295   1.205   5.147 -0.6234 -0.6706 -0.3539
  898MOL0     C21123  10.353   1.193   5.285 -0.7398  0.4512 -0.6896
  898MOL0     C21124  10.343   1.302   5.054  0.0834  0.8313 -0.3815
  898MOL0     C21125  10.469   1.370   5.070 -0.1543 -0.2928 -1.0177
  898MOL0     O21126  10.501   1.428   5.188 -0.8846 -0.0606 -0.2719
  898MOL0     C21127  10.623   1.486   5.198  0.2233 -1.1453 -0.3135
  898MOL0     C21128  10.663   1.590   5.110  0.0804 -0.6412  0.2156
  898MOL0     C21129  10.792   1.638   5.119 -1.1778 -0.3594  0.5595
  898MOL0     C21130  10.874   1.610   5.229 -0.2923 -0.1461 -0.7963
  898MOL0     O21131  10.987   1.684   5.262 -0.1254  0.2279  0.3278
  898MOL0     C21132  11.094   1.671   5.168  0.0951  0.6641  0.9781
  898MOL0     C21133  11.171   1.539   5.177 -1.2943  0.7550  0.6904
  898MOL0     C21134  11.320   1.559   5.213 -0.0939  0.5308 -0.6622
  898MOL0     C21135  11.411   1.605   5.100  0.2989 -0.4125 -0.6979
  898MOL0     C21136  11.556   1.640   5.149  0.5358 -0.1984  0.4212
  898MOL0     C21137  11.645   1.691   5.031  0.6206  0.1602  0.3949
  898MOL0     C21138  11.794   1.684   5.074 -0.0266  0.2555  0.2319
  898MOL0     C21139  11.885   1.727   4.956 -0.3974 -0.1561  0.4837
  898MOL0    Cl21140  12.054   1.712   5.002 -0.4639 -0.2181  0.1729
  898MOL0     C21141  10.831   1.514   5.328 -0.5636  0.1867 -0.6789
  898MOL0     C21142  10.706   1.450   5.312 -0.0840 -0.9325 -0.5235
  898MOL0     O21143  10.530   1.370   4.963 -0.5114 -0.2841  0.2386
  898MOL0     C21144  10.281   1.319   4.930 -0.9673 -0.3549  0.4553
  898MOL0     C21145  10.166   1.240   4.905  0.2480 -0.7448 -0.4264
  898MOL0     N21146   9.497   1.029   4.815 -0.1463  0.4733  0.1847
  898MOL0     N21147   9.419   0.930   4.814 -0.1617 -0.1540  0.5631
  898MOL0     C21148   8.539   0.198   4.401  0.4373 -0.0935 -0.5741
  898MOL0     C21149   8.513   0.108   4.293  0.4867  0.9470  0.7586
  898MOL0     C21150   8.374   0.026   3.873 -0.2674 -0.0540  0.5728
  898MOL0     C21151   8.423   0.062   3.744  0.5167  1.0824 -0.3288
  898MOL0     C21152   8.398  -0.025   3.638 -0.2310 -0.2648 -0.3265
  898MOL0     C21153   8.325  -0.139   3.655 -0.5906  0.1750 -0.4554
  898MOL0     O21154   8.313  -0.218   3.537 -0.6851 -0.1909 -0.6928
  898MOL0     C21155   8.224  -0.327   3.545 -0.3912 -0.5247 -0.6732
  898MOL0     C21156   8.244  -0.411   3.423 -0.1847 -0.7426  0.4058
  898MOL0     C21157   8.374  -0.491   3.449 -0.5081  0.0331  0.3126
  898MOL0     C21158   8.462  -0.514   3.319 -0.2159  0.7051  0.5071
  898MOL0     C21159   8.369  -0.590   3.228 -0.0392 -0.2151 -0.2324
  898MOL0     C21160   8.282  -0.645   3.166 -0.8925  0.1716  0.3572
  898MOL0     C21161   8.260  -0.158   3.775 -1.0515  0.0664  0.4006
  898MOL0     C21162   8.288  -0.085   3.881  0.5721  0.4773  0.2401
  898MOL0     H21163   8.255   0.278   4.159 -0.0471 -1.8360 -1.0071
  898MOL0     H21164   8.282   0.426   4.354 -5.0564 -2.8886  3.1288
  898MOL0     H21165   8.632   0.314   4.643  2.1855 -0.2359 -0.8429
  898MOL0     H21166   8.697   0.407   4.509  0.0768 -2.1852  0.8210
  898MOL0     H21167   8.642   0.622   4.590  0.9681  0.6672  1.6741
  898MOL0     H21168   8.546   0.550   4.711 -1.4373  1.2306 -3.9001
  898MOL0     H21169   8.742   0.627   4.839  1.2492  1.4472 -1.2001
  898MOL0     H21170   8.769   0.455   4.819  0.3080 -0.5323 -0.7030
  898MOL0     H21171   8.880   0.512   4.593  1.0808 -0.5956  0.7519
  898MOL0     H21172   8.868   0.686   4.636  1.1215  1.0256  2.0929
  898MOL0     H21173   9.037   0.501   4.802  1.8291  1.0696  2.0139
  898MOL0     H21174   9.100   0.601   4.670 -1.6737 -0.8806 -1.8713
  898MOL0     H21175   9.023   0.802   4.785  3.3102  0.0338 -1.7389
  898MOL0     H21176   8.963   0.705   4.919  0.4718  0.6761  0.3170
  898MOL0     H21177   9.219   0.645   4.965 -1.9925  0.1489  0.9547
  898MOL0     H21178   9.257   0.711   4.810 -0.0318 -1.0724  0.6078
  898MOL0     H21179   9.215   0.850   5.074  1.3585 -0.9063 -0.2214
  898MOL0     H21180   9.137   0.926   4.948  1.4552 -0.3602 -2.5983
  898MOL0     H21181   9.365   1.048   5.112  0.6099 -1.6026  1.0882
  898MOL0     H21182   9.634   1.236   4.892 -1.9304  0.0523 -0.5801
  898MOL0     H21183   9.536   1.256   5.036 -1.2927 -0.8926 -0.3347
  898MOL0     H21184   9.683   1.113   5.172  2.5851  0.3061  0.6318
  898MOL0     H21185   9.778   1.213   5.067  0.9766 -0.9107 -0.3681
  898MOL0     H21186   9.774   1.004   4.893  1.3543  1.6072  0.2296
  898MOL0     H21187   9.718   0.924   5.058 -1.3258 -0.1294 -0.1797
  898MOL0     H21188   9.958   0.911   5.043 -2.2601 -1.5634  0.5828
  898MOL0     H21189   9.918   1.038   5.152  0.7520 -0.4423  0.9535
  898MOL0     H21190  10.133   1.081   5.199 -0.2092  0.7724  0.0176
  898MOL0     H21191  10.328   1.278   5.349 -0.0400 -0.1557  0.4254
  898MOL0     H21192  10.319   1.099   5.330 -0.1457 -1.7702 -4.4278
  898MOL0     H21193  10.461   1.179   5.281 -0.9948 -1.7412 -1.4022
  898MOL0     H21194  10.590   1.616   5.034 -1.9717 -1.5491  1.7658
  898MOL0     H21195  10.844   1.708   5.055  0.1929  0.8062  2.8007
  898MOL0     H21196  11.062   1.671   5.064 -0.0803  0.9263  1.0329
  898MOL0     H21197  11.159   1.758   5.177  0.2283  0.4377  2.7611
  898MOL0     H21198  11.114   1.469   5.240 -0.5496 -2.6477 -2.0948
  898MOL0     H21199  11.165   1.494   5.077 -2.1439  2.3611 -0.0164
  898MOL0     H21200  11.354   1.460   5.247  1.1380  1.5833  1.3880
  898MOL0     H21201  11.330   1.615   5.306  3.2823  0.4742 -0.8633
  898MOL0     H21202  11.423   1.524   5.027  2.8410  0.2611 -1.1207
  898MOL0     H21203  11.364   1.696   5.061  0.7215 -0.2149 -0.7459
  898MOL0     H21204  11.597   1.550   5.197 -0.5013 -0.3090  1.1385
  898MOL0     H21205  11.551   1.719   5.224  1.2926 -0.4836  0.7765
  898MOL0     H21206  11.625   1.620   4.951 -1.7252 -0.6623  1.5906
  898MOL0     H21207  11.603   1.788   5.002  3.4744  1.3802  0.0055
  898MOL0     H21208  11.829   1.584   5.100 -0.0906 -0.1043 -1.0003
  898MOL0     H21209  11.797   1.750   5.162 -5.9037 -0.9704  1.8071
  898MOL0     H21210  11.852   1.825   4.920  0.1309  0.2846  1.1783
  898MOL0     H21211  11.880   1.649   4.880  3.8238 -0.4500  0.3031
  898MOL0     H21212  10.911   1.489   5.398 -0.3212  2.9915  0.1845
  898MOL0     H21213  10.666   1.363   5.364  0.9241 -2.5009 -2.2694
  898MOL0     H21214  10.324   1.392   4.862 -0.6027 -1.0061 -0.0157
  898MOL0     H21215  10.105   1.256   4.817  1.1071 -0.5053 -0.9995
  898MOL0     H21216   8.625   0.179   4.465  2.5915  0.1149 -3.2094
  898MOL0     H21217   8.580   0.026   4.268 -0.6759 -0.4363  1.9984
  898MOL0     H21218   8.487   0.147   3.726 -1.0125  1.8201 -2.7067
  898MOL0     H21219   8.438  -0.005   3.539 -1.3063 -1.7451 -1.1079
  898MOL0     H21220   8.247  -0.383   3.637  1.0947 -2.2047 -1.9871
  898MOL0     H21221   8.121  -0.294   3.559 -0.4713 -0.9317 -0.2607
  898MOL0     H21222   8.249  -0.339   3.340 -0.2039 -0.2965  0.7892
  898MOL0     H21223   8.168  -0.488   3.407  1.3889 -1.6331 -4.5567
  898MOL0     H21224   8.344  -0.582   3.503  0.3043 -0.0046  0.7208
  898MOL0     H21225   8.446  -0.449   3.520  2.6441 -1.6583 -1.6650
  898MOL0     H21226   8.549  -0.576   3.344  1.3342  2.7619  0.4293
  898MOL0     H21227   8.504  -0.426   3.271  1.0175 -0.5767 -0.8610
  898MOL0     H21228   8.198  -0.676   3.107 -1.7520 -0.1007  1.6770
  898MOL0     H21229   8.177  -0.226   3.781 -0.5337 -0.5789  0.3359
  898MOL0     H21230   8.226  -0.106   3.967 -1.9404 -1.2971 -1.8443
  899MOL0     O21231   9.413   5.330   5.406  0.0127 -0.7774  0.1897
  899MOL0     C21232   9.463   5.387   5.310  0.7373 -0.2350  0.3383
  899MOL0     O21233   9.591   5.437   5.301  0.2730 -0.0967  0.0817
  899MOL0     C21234   9.653   5.503   5.404 -0.1286 -0.4727  0.1771
  899MOL0     C21235   9.602   5.540   5.527  0.4233  0.0436  0.2239
  899MOL0     C21236   9.682   5.603   5.624  0.7389 -0.4230 -0.0694
  899MOL0     C21237   9.821   5.622   5.598 -0.3787  0.8951  0.1451
  899MOL0     O21238   9.886   5.681   5.706  0.4017 -0.2640  0.6551
  899MOL0     C21239  10.027   5.701   5.684 -0.2712 -0.3192  0.2765
  899MOL0     C21240  10.078   5.798   5.783 -0.0115  0.4511 -0.3470
  899MOL0     C21241  10.064   5.769   5.931  0.1066  0.7400  0.7766
  899MOL0     C21242  10.172   5.666   5.977  0.3287  0.3308 -0.0668
  899MOL0     C21243  10.204   5.670   6.116  0.4702  0.8543 -1.0677
  899MOL0     C21244  10.086   5.632   6.218 -0.2892  0.1141 -0.7055
  899MOL0     C21245  10.116   5.684   6.356 -0.2310  0.3714  0.0084
  899MOL0     C21246  10.077   5.594   6.466 -0.2639 -0.9161 -0.5106
  899MOL0     N21247   9.928   5.586   6.486  0.4898 -0.1290  0.6613
  899MOL0     C21248   9.849   5.506   6.409  0.9130  0.0768  0.4017
  899MOL0     C21249   9.725   5.524   6.467  0.7075 -1.0143 -0.1028
  899MOL0     C21250   9.592   5.455   6.422 -1.0085  1.3438  0.0185
  899MOL0     C21251   9.566   5.316   6.481 -0.1116  0.0834  0.2245
  899MOL0     C21252   9.526   5.332   6.631 -0.3903  0.8849 -0.1011
  899MOL0     C21253   9.505   5.193   6.687 -0.2463 -0.4766  0.8000
  899MOL0     O21254   9.404   5.182   6.778  0.1459  0.1483 -0.8701
  899MOL0     C21255   9.429   5.256   6.898  0.5983  1.1889  0.5932
  899MOL0     C21256   9.391   5.389   6.917  0.2456  0.3676  0.3229
  899MOL0     C21257   9.416   5.452   7.038  0.6500 -0.4558 -0.0918
  899MOL0     C21258   9.397   5.603   7.054 -0.5328 -0.0633  0.9397
  899MOL0     C21259   9.466   5.383   7.159  0.5515 -0.2697  0.9807
  899MOL0     C21260   9.519   5.436   7.287  0.5303  0.0855  0.3492
  899MOL0     O21261   9.481   5.371   7.397  0.8327 -0.3207 -0.8178
  899MOL0     C21262   9.577   5.364   7.485 -0.6326 -1.0052 -0.9315
  899MOL0     C21263   9.586   5.450   7.592  0.4882 -0.4897 -0.5439
  899MOL0     C21264   9.678   5.427   7.697 -0.1372  0.2485  0.8145
  899MOL0     C21265   9.777   5.328   7.694  0.4673  0.1224  0.2423
  899MOL0     O21266   9.859   5.319   7.793 -0.7066  0.4013 -1.1260
  899MOL0     C21267   9.940   5.204   7.806  0.0760 -0.3893 -0.6876
  899MOL0     C21268  10.025   5.214   7.931  0.2303  1.1859 -0.3475
  899MOL0     C21269  10.102   5.084   7.932  0.2009 -0.3255 -0.3736
  899MOL0     C21270  10.190   5.070   8.062 -0.1776 -0.3873 -0.0469
  899MOL0     C21271  10.306   4.963   8.042  0.6412  0.0033 -0.1803
  899MOL0     C21272  10.380   4.939   8.171 -0.1802 -0.9862  0.0186
  899MOL0     C21273  10.497   4.843   8.156 -0.5462  0.3145 -0.5524
  899MOL0     C21274  10.523   4.784   8.293  0.1661 -0.6509 -0.8615
  899MOL0    Cl21275  10.635   4.648   8.302  0.1420 -0.3389  0.0230
  899MOL0     C21276   9.774   5.245   7.576  1.0928 -0.4155  0.1075
  899MOL0     C21277   9.680   5.262   7.472 -0.3157 -0.5339  0.4182
  899MOL0     O21278   9.588   5.539   7.292 -0.2164 -0.7519 -0.6022
  899MOL0     C21279   9.492   5.242   7.132  0.4274 -0.3177  0.4355
  899MOL0     C21280   9.474   5.178   7.006 -0.0907 -0.5894 -0.6531
  899MOL0     N21281   9.731   5.602   6.574  0.0711 -0.7029  0.0461
  899MOL0     N21282   9.859   5.627   6.594 -0.2040  0.8842 -0.2390
  899MOL0     C21283   9.883   5.568   5.475  0.1694 -0.7835 -0.2861
  899MOL0     C21284   9.786   5.519   5.384 -0.8648  0.2226  0.1091
  899MOL0     C21285   9.375   5.391   5.192  0.6824 -0.3058  0.0644
  899MOL0     C21286   9.247   5.333   5.199 -0.0704  0.3195  0.3691
  899MOL0     C21287   9.157   5.351   5.093  0.0503 -0.7944 -0.5323
  899MOL0     C21288   9.188   5.437   4.981  1.1356  0.0941 -0.6593
  899MOL0     O21289   9.113   5.435   4.867  0.0223  0.4410 -0.5950
  899MOL0     C21290   8.979   5.498   4.893 -0.7077 -0.0376 -0.3234
  899MOL0     C21291   8.885   5.502   4.769 -0.3390 -0.5229 -0.6715
  899MOL0     C21292   8.736   5.534   4.802 -0.1697 -0.7975 -0.8303
  899MOL0     C21293   8.664   5.443   4.907  0.1890  1.0478 -0.2707
  899MOL0     C21294   8.523   5.462   4.918 -0.7060  0.7091 -0.9800
  899MOL0     C21295   8.403   5.484   4.927 -0.4226 -0.2955 -1.2606
  899MOL0     C21296   9.309   5.502   4.988  0.4897  0.6053  0.4422
  899MOL0     C21297   9.399   5.479   5.087 -0.4571  0.8576 -0.3663
  899MOL0     H21298   9.497   5.523   5.549  0.2100 -0.2372 -0.9876
  899MOL0     H21299   9.641   5.625   5.722 -0.2858 -2.0390 -0.0974
  899MOL0     H21300  10.077   5.604   5.694  1.0487  0.5730  3.3789
  899MOL0     H21301  10.046   5.740   5.583 -1.0330  3.4195  1.4494
  899MOL0     H21302  10.185   5.810   5.759 -0.0549 -1.0818 -1.4771
  899MOL0     H21303  10.014   5.885   5.771 -2.3780 -1.0813  0.5657
  899MOL0     H21304  10.066   5.863   5.985  1.1539  0.9524  0.3813
  899MOL0     H21305   9.962   5.729   5.943  0.9221 -0.8103  3.3249
  899MOL0     H21306  10.125   5.570   5.952 -0.2097  1.0493 -2.0485
  899MOL0     H21307  10.266   5.681   5.922 -1.1420  0.2871 -2.7960
  899MOL0     H21308  10.282   5.597   6.137 -1.3219 -1.4831 -2.0624
  899MOL0     H21309  10.230   5.773   6.142  0.8107  0.2984  0.9650
  899MOL0     H21310   9.986   5.660   6.183  0.0487 -0.5911 -2.3173
  899MOL0     H21311  10.092   5.524   6.229 -0.6397 -0.0320 -1.8030
  899MOL0     H21312  10.225   5.686   6.346 -0.1814 -1.1165  0.0532
  899MOL0     H21313  10.073   5.782   6.380 -1.4366 -0.3446  0.8703
  899MOL0     H21314  10.117   5.636   6.559  0.4086 -1.9631 -0.3064
  899MOL0     H21315  10.130   5.499   6.458 -0.0247 -1.0532  1.9367
  899MOL0     H21316   9.875   5.444   6.325 -1.3643 -1.3776  0.6764
  899MOL0     H21317   9.512   5.524   6.448 -2.3548  0.1597 -0.8689
  899MOL0     H21318   9.598   5.455   6.313 -1.6025  2.1187 -0.0223
  899MOL0     H21319   9.659   5.260   6.483  0.3764  0.8827  2.0008
  899MOL0     H21320   9.486   5.256   6.435 -0.9878 -1.1429  3.1269
  899MOL0     H21321   9.428   5.382   6.630 -0.6917  0.3086  0.0975
  899MOL0     H21322   9.586   5.400   6.692 -1.0518  1.5951 -0.2137
  899MOL0     H21323   9.594   5.151   6.735  1.4915 -1.1808 -2.7182
  899MOL0     H21324   9.493   5.126   6.602 -4.8690  3.2201 -2.0173
  899MOL0     H21325   9.350   5.449   6.836 -0.2081 -2.6646 -1.8647
  899MOL0     H21326   9.361   5.643   6.959 -1.9113 -3.6770 -0.2294
  899MOL0     H21327   9.328   5.638   7.132 -3.2952  0.6187 -1.6486
  899MOL0     H21328   9.491   5.652   7.081 -0.1737  0.3528 -0.9303
  899MOL0     H21329   9.520   5.536   7.602  3.6906  2.2097 -0.7584
  899MOL0     H21330   9.671   5.496   7.780  1.7646  1.8100 -0.2198
  899MOL0     H21331   9.873   5.118   7.808  0.3464 -0.5942  0.1705
  899MOL0     H21332  10.013   5.185   7.727  0.2964 -2.4804 -0.0354
  899MOL0     H21333  10.097   5.296   7.932  0.5370  0.9380  1.0526
  899MOL0     H21334   9.954   5.229   8.013 -1.6463  2.3860 -2.1056
  899MOL0     H21335  10.171   5.083   7.848  0.0271 -1.3404 -0.5164
  899MOL0     H21336  10.036   4.997   7.923  1.3364 -1.1290 -1.2136
  899MOL0     H21337  10.240   5.165   8.083  0.7725 -0.5663 -1.3613
  899MOL0     H21338  10.135   5.044   8.153 -1.6542  0.1238 -0.7627
  899MOL0     H21339  10.387   4.992   7.974  0.1533  1.0381 -0.3326
  899MOL0     H21340  10.253   4.874   8.005  0.1157  1.2561 -2.6833
  899MOL0     H21341  10.420   5.030   8.216  1.9494 -1.8919  0.0864
  899MOL0     H21342  10.310   4.901   8.246 -0.4644 -0.6395 -0.0685
  899MOL0     H21343  10.580   4.893   8.104  0.1437 -0.4531 -0.2206
  899MOL0     H21344  10.471   4.759   8.092  0.8753 -1.6077  1.2393
  899MOL0     H21345  10.429   4.753   8.340  0.0885  1.8234  0.8062
  899MOL0     H21346  10.548   4.859   8.368 -2.1425 -0.9823  0.3434
  899MOL0     H21347   9.856   5.175   7.565  1.7515  0.5751 -1.7221
  899MOL0     H21348   9.689   5.211   7.377  1.1222 -0.3473  0.4453
  899MOL0     H21349   9.535   5.181   7.211  0.2597 -0.3610  0.4936
  899MOL0     H21350   9.487   5.073   6.985 -0.8637 -0.8200 -0.0011
  899MOL0     H21351   9.987   5.580   5.449  0.0909  0.2923 -0.1751
  899MOL0     H21352   9.831   5.478   5.294  3.1415  0.0818  1.9439
  899MOL0     H21353   9.219   5.257   5.272  0.1661  0.0746  0.2066
  899MOL0     H21354   9.067   5.290   5.096  0.3103 -1.1401  0.4016
  899MOL0     H21355   8.920   5.445   4.969 -4.1350  0.1134 -2.6320
  899MOL0     H21356   8.999   5.600   4.925  1.0173 -0.0159 -1.3792
  899MOL0     H21357   8.884   5.405   4.717  3.1392 -0.5096 -0.9720
  899MOL0     H21358   8.922   5.567   4.690 -2.3777  0.4543 -0.9029
  899MOL0     H21359   8.676   5.544   4.711 -0.6197  1.6323 -0.3373
  899MOL0     H21360   8.730   5.638   4.836  1.5471 -2.0276  3.9800
  899MOL0     H21361   8.706   5.462   5.006 -0.1133 -2.7963  0.7482
  899MOL0     H21362   8.672   5.337   4.883 -2.0229  0.8215 -0.2026
  899MOL0     H21363   8.298   5.503   4.926 -0.9002 -2.2536  1.2895
  899MOL0     H21364   9.337   5.559   4.900 -1.9745  0.6649 -0.4037
  899MOL0     H21365   9.493   5.532   5.094 -0.5693  1.0536 -0.3461
  900MOL0     O21366   6.225   8.606   9.400 -0.0375  0.0534  0.0895
  900MOL0     C21367   6.170   8.661   9.493  0.2985  0.5430  0.7265
  900MOL0     O21368   6.157   8.604   9.615 -0.6664  0.3550 -0.5458
  900MOL0     C21369   6.188   8.466   9.626 -1.2804 -0.3878 -0.8798
  900MOL0     C21370   6.091   8.370   9.608 -0.6210  0.4390  0.6676
  900MOL0     C21371   6.108   8.234   9.620 -0.2355 -0.0645 -0.3316
  900MOL0     C21372   6.239   8.190   9.639  0.0128  0.9469  1.5858
  900MOL0     O21373   6.266   8.049   9.631  0.4075  0.3041 -0.2357
  900MOL0     C21374   6.177   7.961   9.694  0.4168 -0.7864 -0.1194
  900MOL0     C21375   6.223   7.819   9.678  0.0854 -0.3911 -0.2916
  900MOL0     C21376   6.115   7.732   9.608 -0.1676  0.1776  0.2390
  900MOL0     C21377   6.167   7.585   9.586  0.2033 -0.4085  1.1830
  900MOL0     C21378   6.080   7.524   9.474  0.2950  0.3925  0.3228
  900MOL0     C21379   6.127   7.383   9.457 -0.2614  1.2838 -0.6766
  900MOL0     C21380   6.067   7.281   9.555  0.1547 -0.4075 -0.0181
  900MOL0     C21381   6.064   7.134   9.496 -0.0416  0.9723  0.1437
  900MOL0     N21382   5.948   7.050   9.547  1.0358  0.7505  0.0446
  900MOL0     C21383   5.833   7.017   9.474 -1.0913 -0.0631  0.2040
  900MOL0     C21384   5.759   6.947   9.560  0.3464  0.3880  0.5304
  900MOL0     C21385   5.616   6.903   9.542 -0.2454  0.1266  1.0891
  900MOL0     C21386   5.554   6.803   9.637  0.0074  0.5839 -0.3814
  900MOL0     C21387   5.423   6.760   9.576  0.4289 -0.7011  0.0802
  900MOL0     C21388   5.380   6.621   9.622  0.7290  0.6839  0.2150
  900MOL0     O21389   5.465   6.530   9.556 -0.3809 -0.3466  0.4908
  900MOL0     C21390   5.458   6.396   9.575 -0.0414  1.3531  0.4587
  900MOL0     C21391   5.558   6.331   9.497 -1.2000  1.2267 -0.3175
  900MOL0     C21392   5.577   6.192   9.509  0.2618 -0.6221  0.2564
  900MOL0     C21393   5.684   6.136   9.429  0.8293 -0.8487 -0.5901
  900MOL0     C21394   5.473   6.116   9.571  0.3815  0.1742 -0.5456
  900MOL0     C21395   5.474   5.967   9.564  0.4394  0.1204 -0.6518
  900MOL0     O21396   5.350   5.910   9.560 -0.0279 -0.4043  0.8661
  900MOL0     C21397   5.331   5.771   9.565 -0.1582  0.2356  0.4044
  900MOL0     C21398   5.374   5.686   9.463 -0.2571  1.0073 -0.2359
  900MOL0     C21399   5.368   5.544   9.490  0.3488 -0.4926 -0.3665
  900MOL0     C21400   5.308   5.494   9.602  0.1807 -0.5924 -0.2494
  900MOL0     O21401   5.300   5.359   9.605  0.5298 -0.3060 -0.1315
  900MOL0     C21402   5.262   5.303   9.744  0.2182  0.1956  1.1574
  900MOL0     C21403   5.254   5.154   9.733 -0.7773  0.9302 -0.5857
  900MOL0     C21404   5.404   5.093   9.726  0.6305  0.0901  0.6405
  900MOL0     C21405   5.438   5.036   9.868  0.0961  0.0949  0.0543
  900MOL0     C21406   5.571   4.952   9.870  0.5729 -0.2486 -0.3575
  900MOL0     C21407   5.568   4.806   9.815  0.0639 -0.2906  0.0527
  900MOL0     C21408   5.712   4.754   9.780  0.2629  0.6112 -0.0428
  900MOL0     C21409   5.801   4.847   9.693 -0.1319 -0.8416  0.6270
  900MOL0    Cl21410   5.727   4.880   9.535  0.1108 -0.3836  0.2681
  900MOL0     C21411   5.253   5.584   9.699  0.3040  0.0488 -0.4374
  900MOL0     C21412   5.266   5.723   9.674  0.2643  0.3708  0.1358
  900MOL0     O21413   5.577   5.896   9.579  0.6926  0.3548 -0.3399
  900MOL0     C21414   5.376   6.182   9.646 -0.7491 -0.1837  0.7249
  900MOL0     C21415   5.361   6.320   9.648 -0.5203 -0.1948 -0.6933
  900MOL0     N21416   5.832   6.924   9.674  0.6662  0.1316 -0.2095
  900MOL0     N21417   5.948   6.988   9.669 -0.5085 -0.7006  0.2361
  900MOL0     C21418   6.347   8.287   9.642  0.2806  0.6569 -0.4712
  900MOL0     C21419   6.323   8.423   9.642 -0.4701  0.8319  0.2138
  900MOL0     C21420   6.097   8.793   9.470 -1.1579 -0.3870  1.5453
  900MOL0     C21421   6.073   8.878   9.569 -0.0070 -0.8081  0.6826
  900MOL0     C21422   6.006   9.005   9.547 -0.8391  0.5829  0.2661
  900MOL0     C21423   5.949   9.031   9.421 -0.4486 -0.2167  0.0692
  900MOL0     O21424   5.873   9.145   9.395  0.6678 -0.3670  0.7032
  900MOL0     C21425   5.887   9.204   9.261  0.5387  0.0651 -0.6030
  900MOL0     C21426   5.810   9.341   9.272  0.5338  0.5620 -0.5370
  900MOL0     C21427   5.764   9.394   9.132 -0.6161  0.8424 -0.0291
  900MOL0     C21428   5.623   9.361   9.089  0.2302  0.2665  0.1075
  900MOL0     C21429   5.525   9.437   9.174 -0.0000 -0.0872 -0.3377
  900MOL0     C21430   5.447   9.511   9.229  0.1449  0.4606  0.0817
  900MOL0     C21431   5.981   8.936   9.316  1.7702  0.1642  0.8707
  900MOL0     C21432   6.052   8.826   9.340  1.1426  0.6891 -0.2649
  900MOL0     H21433   5.989   8.406   9.605  0.0867  3.0756  3.2223
  900MOL0     H21434   6.024   8.172   9.590  0.4153  0.2610 -3.0647
  900MOL0     H21435   6.179   7.996   9.798  3.0159 -0.8282 -0.0965
  900MOL0     H21436   6.070   7.974   9.675  0.8241  0.9299 -1.4705
  900MOL0     H21437   6.319   7.808   9.627  0.1214 -1.1717 -0.0654
  900MOL0     H21438   6.243   7.782   9.779  1.0777  0.7318 -0.0618
  900MOL0     H21439   6.021   7.730   9.665 -0.0191  2.8344  0.6887
  900MOL0     H21440   6.087   7.766   9.508 -1.4062 -2.2261 -0.3099
  900MOL0     H21441   6.274   7.588   9.562  0.1745  1.2658  1.1913
  900MOL0     H21442   6.165   7.524   9.677  0.0599 -0.6944  0.9894
  900MOL0     H21443   5.972   7.517   9.482  0.2763 -1.5239 -0.7922
  900MOL0     H21444   6.099   7.583   9.384 -0.9057  0.9039  0.3897
  900MOL0     H21445   6.076   7.351   9.366 -0.2442  0.8347 -0.5327
  900MOL0     H21446   6.232   7.368   9.429 -1.3382 -1.2894 -3.9636
  900MOL0     H21447   6.122   7.285   9.649  0.2774  0.5423 -0.1278
  900MOL0     H21448   5.965   7.311   9.580 -0.8656 -2.3474 -1.5201
  900MOL0     H21449   6.157   7.085   9.527  0.2499  0.4466 -1.4301
  900MOL0     H21450   6.055   7.147   9.388  0.9936 -0.9960 -0.2257
  900MOL0     H21451   5.803   7.051   9.376  1.3072  2.1543  0.1309
  900MOL0     H21452   5.554   6.992   9.530 -2.4790 -1.3948  0.6275
  900MOL0     H21453   5.617   6.867   9.439  1.9184  0.1055  1.0849
  900MOL0     H21454   5.534   6.838   9.738  0.0468 -0.9630  0.1793
  900MOL0     H21455   5.619   6.716   9.640  0.8933  1.2375 -0.0448
  900MOL0     H21456   5.432   6.772   9.467  1.5028  3.6847  0.4499
  900MOL0     H21457   5.342   6.828   9.607  1.8210  1.7990 -1.4304
  900MOL0     H21458   5.277   6.597   9.593  0.1172  3.9144 -0.6599
  900MOL0     H21459   5.406   6.600   9.726  0.2252 -1.7687 -0.0834
  900MOL0     H21460   5.623   6.392   9.436  0.4691 -0.4818 -0.3356
  900MOL0     H21461   5.722   6.209   9.358 -2.9130 -0.3537 -2.3111
  900MOL0     H21462   5.768   6.093   9.486  1.2932  0.1532 -0.4898
  900MOL0     H21463   5.641   6.058   9.365  0.8101 -1.1187 -0.2532
  900MOL0     H21464   5.433   5.720   9.379  1.8153  2.7148  1.7861
  900MOL0     H21465   5.397   5.487   9.402 -2.1145  0.7609 -2.1303
  900MOL0     H21466   5.349   5.334   9.802  2.7543  2.3980 -3.3088
  900MOL0     H21467   5.162   5.329   9.781  0.2841  1.7463  0.2982
  900MOL0     H21468   5.196   5.103   9.810  0.0141 -0.6274 -0.9712
  900MOL0     H21469   5.216   5.133   9.632  0.8825 -0.7277 -0.9194
  900MOL0     H21470   5.484   5.165   9.705  2.0935 -0.6446  3.2922
  900MOL0     H21471   5.398   5.019   9.646 -1.8936  1.0566 -0.1905
  900MOL0     H21472   5.447   5.121   9.936 -2.1998 -0.5097  1.2038
  900MOL0     H21473   5.351   4.985   9.911 -1.9090  2.0133 -1.4646
  900MOL0     H21474   5.612   4.961   9.971  1.3325  1.1650 -0.7788
  900MOL0     H21475   5.626   5.015   9.801  2.3058 -0.5045  0.7292
  900MOL0     H21476   5.519   4.747   9.893 -2.5455  1.6665  0.0235
  900MOL0     H21477   5.496   4.799   9.733  0.9394 -1.3576 -0.6619
  900MOL0     H21478   5.720   4.666   9.715  2.2137  1.6830 -1.3770
  900MOL0     H21479   5.761   4.733   9.875 -0.0975  0.3513  0.0869
  900MOL0     H21480   5.897   4.800   9.670 -0.5457 -1.0203 -0.8381
  900MOL0     H21481   5.811   4.945   9.739 -0.7336  1.2831 -3.3988
  900MOL0     H21482   5.206   5.561   9.794  2.0501  4.2807  1.7390
  900MOL0     H21483   5.223   5.790   9.749 -1.8198 -1.9595  1.1567
  900MOL0     H21484   5.296   6.115   9.678 -1.7223 -0.2172 -1.5327
  900MOL0     H21485   5.283   6.365   9.709 -0.1709 -0.8614  0.2608
  900MOL0     H21486   6.447   8.248   9.624 -0.1324 -0.6894 -0.0198
  900MOL0     H21487   6.399   8.500   9.633 -0.5265  1.4047  3.3790
  900MOL0     H21488   6.112   8.863   9.669 -0.8361 -0.6605  1.0387
  900MOL0     H21489   5.991   9.087   9.617  1.1945  1.0011  0.2879
  900MOL0     H21490   5.992   9.219   9.231  1.2966 -1.8648  0.8418
  900MOL0     H21491   5.840   9.137   9.188  1.3411  0.2757 -1.3331
  900MOL0     H21492   5.870   9.420   9.319  0.1244  0.9153 -0.6052
  900MOL0     H21493   5.727   9.328   9.343  0.9576  2.7389  0.4374
  900MOL0     H21494   5.830   9.357   9.053 -2.6054  1.4187 -2.0433
  900MOL0     H21495   5.777   9.503   9.128  4.4120  0.4773 -3.5198
  900MOL0     H21496   5.592   9.257   9.103  2.9894 -0.3887  2.2717
  900MOL0     H21497   5.602   9.396   8.988  0.1793 -3.0925 -1.1648
  900MOL0     H21498   5.380   9.579   9.277  1.5797  1.6645  0.4564
  900MOL0     H21499   5.934   8.938   9.218  1.1891 -0.6271  1.1243
  900MOL0     H21500   6.078   8.765   9.254  1.4457  0.4339  0.0058
  901MOL0     O21501   5.822   5.236   2.208 -0.2336 -0.2897 -0.3444
  901MOL0     C21502   5.774   5.126   2.208 -0.1767 -0.1499  0.0403
  901MOL0     O21503   5.819   5.015   2.129 -0.3412 -0.2654 -0.9863
  901MOL0     C21504   5.928   5.043   2.048  0.1512  0.5485  0.2012
  901MOL0     C21505   6.065   5.014   2.081 -0.7708 -0.3030 -0.8726
  901MOL0     C21506   6.171   5.045   1.999  1.1125 -0.2988 -1.0504
  901MOL0     C21507   6.138   5.103   1.876  0.0467 -0.0022 -0.3007
  901MOL0     O21508   6.252   5.136   1.806  0.1483 -0.0715  0.1536
  901MOL0     C21509   6.241   5.202   1.680  0.4945 -0.6302  0.3667
  901MOL0     C21510   6.379   5.258   1.633  0.9012  0.4562 -0.5127
  901MOL0     C21511   6.374   5.327   1.503  0.2019  0.5395 -0.4954
  901MOL0     C21512   6.519   5.348   1.450 -0.3901 -0.3976  0.2528
  901MOL0     C21513   6.534   5.402   1.310  0.3874 -0.5811  0.3585
  901MOL0     C21514   6.480   5.546   1.305 -1.2945 -0.6261  0.0435
  901MOL0     C21515   6.517   5.617   1.175  0.5220  0.1054  0.4623
  901MOL0     C21516   6.456   5.558   1.059  0.1071 -0.1675 -0.1918
  901MOL0     N21517   6.520   5.592   0.938  0.5118 -0.4566 -0.6454
  901MOL0     C21518   6.632   5.533   0.881  0.3487  0.9817 -0.5534
  901MOL0     C21519   6.659   5.600   0.768 -0.6314  0.3293 -0.4978
  901MOL0     C21520   6.761   5.580   0.663 -0.0629  0.4299  0.3552
  901MOL0     C21521   6.893   5.544   0.723 -0.3850  0.1861 -0.1120
  901MOL0     C21522   6.946   5.651   0.825  0.5748 -0.0405  1.2532
  901MOL0     C21523   7.061   5.594   0.905  1.1160  0.0321  1.1194
  901MOL0     O21524   6.999   5.506   1.003 -1.1764 -0.3971  0.1380
  901MOL0     C21525   7.019   5.547   1.134 -1.2195 -0.5814  0.8171
  901MOL0     C21526   7.058   5.446   1.224 -0.9146 -0.7804 -0.1635
  901MOL0     C21527   7.085   5.473   1.363 -1.0737 -0.7230 -1.0469
  901MOL0     C21528   7.126   5.350   1.438 -0.7621 -0.9819  0.1408
  901MOL0     C21529   7.079   5.604   1.411  0.0709 -0.9397  0.5222
  901MOL0     C21530   7.114   5.646   1.557  0.0263  0.6391 -0.5477
  901MOL0     O21531   7.128   5.777   1.592 -0.6011  0.2879  0.2276
  901MOL0     C21532   7.170   5.806   1.723 -0.2353 -0.4566  0.2900
  901MOL0     C21533   7.092   5.889   1.800  0.1768  0.8987 -0.6570
  901MOL0     C21534   7.136   5.911   1.933  0.0112  0.1011  0.4632
  901MOL0     C21535   7.258   5.869   1.979  0.1364  0.2038 -1.2353
  901MOL0     O21536   7.305   5.904   2.102  0.1834  0.2827  0.0884
  901MOL0     C21537   7.283   6.034   2.155  0.4966  0.3204 -0.3364
  901MOL0     C21538   7.411   6.107   2.155  0.2809 -0.4679 -0.3562
  901MOL0     C21539   7.527   6.026   2.227  0.0839 -0.1891  0.7566
  901MOL0     C21540   7.669   6.075   2.197  0.8156 -0.5928 -0.9098
  901MOL0     C21541   7.732   6.028   2.070 -0.0679  0.9614  0.5191
  901MOL0     C21542   7.886   6.051   2.054  0.2991  0.2564  0.3795
  901MOL0     C21543   7.930   6.069   1.914  0.4673  0.1455 -0.1182
  901MOL0     C21544   8.086   6.075   1.896  1.2150 -0.4566  1.0656
  901MOL0    Cl21545   8.153   6.220   1.985 -0.1333  0.2571 -0.2874
  901MOL0     C21546   7.334   5.795   1.897  0.0820  0.0482 -0.3401
  901MOL0     C21547   7.292   5.756   1.771  0.3325 -0.1143  0.1526
  901MOL0     O21548   7.103   5.553   1.642  0.3093  0.4340  0.1138
  901MOL0     C21549   7.065   5.713   1.312  0.2602  0.4546  0.6022
  901MOL0     C21550   7.033   5.683   1.177  0.5927  0.3984 -0.3950
  901MOL0     N21551   6.557   5.700   0.753  0.9410 -0.8237  0.1244
  901MOL0     N21552   6.479   5.689   0.853 -0.4672  0.9930 -0.7688
  901MOL0     C21553   6.013   5.142   1.848  0.4258  0.4649 -0.1905
  901MOL0     C21554   5.908   5.106   1.932 -0.5304  0.1091 -0.6266
  901MOL0     C21555   5.641   5.110   2.276 -0.6697 -0.3261  0.5356
  901MOL0     C21556   5.563   4.999   2.248  0.4946  1.3360  0.0553
  901MOL0     C21557   5.436   4.987   2.304  0.2838  0.6546 -0.4924
  901MOL0     C21558   5.389   5.080   2.401 -0.0460  0.4062  0.1003
  901MOL0     O21559   5.273   5.061   2.465  0.8110 -0.4729  0.5384
  901MOL0     C21560   5.197   4.942   2.452 -0.2069  0.1026 -0.0609
  901MOL0     C21561   5.071   4.953   2.547  0.8907 -0.0208  0.3452
  901MOL0     C21562   5.095   5.038   2.683 -0.2870 -0.4038 -0.2513
  901MOL0     C21563   5.106   5.187   2.656  0.2298 -0.5062  1.2225
  901MOL0     C21564   5.088   5.256   2.785  0.9259  0.1257  0.0180
  901MOL0     C21565   5.056   5.308   2.894 -0.3219  0.3303 -0.1197
  901MOL0     C21566   5.466   5.194   2.421 -0.1998  0.1783 -0.0121
  901MOL0     C21567   5.589   5.211   2.361 -0.5126  0.4442  0.7704
  901MOL0     H21568   6.089   4.959   2.171 -2.8977  0.3988  0.1749
  901MOL0     H21569   6.272   5.044   2.039  1.1068  2.4535 -0.7253
  901MOL0     H21570   6.208   5.132   1.603 -1.5709  0.0814  0.5606
  901MOL0     H21571   6.166   5.281   1.685  1.0145 -0.1589  0.8512
  901MOL0     H21572   6.402   5.321   1.719 -1.9915  1.8735 -0.6766
  901MOL0     H21573   6.453   5.178   1.619 -0.6827 -1.4760  1.3791
  901MOL0     H21574   6.312   5.275   1.430  1.2637 -1.4805 -0.0355
  901MOL0     H21575   6.315   5.419   1.513 -1.2178 -0.4201  0.4074
  901MOL0     H21576   6.584   5.414   1.509  0.2626  0.1928 -1.0804
  901MOL0     H21577   6.559   5.246   1.455 -1.1803 -0.7802 -0.8940
  901MOL0     H21578   6.640   5.401   1.283  0.3456  0.6602  0.1101
  901MOL0     H21579   6.476   5.342   1.239 -0.4335 -0.5463  0.9810
  901MOL0     H21580   6.371   5.553   1.313 -1.2268  1.8823 -0.3665
  901MOL0     H21581   6.526   5.600   1.389  0.1347 -2.7230  0.6849
  901MOL0     H21582   6.473   5.716   1.195  0.2103  0.6353 -2.4890
  901MOL0     H21583   6.626   5.622   1.167  0.8572 -1.9729  2.7028
  901MOL0     H21584   6.351   5.587   1.063 -0.0346 -0.7958  1.3254
  901MOL0     H21585   6.462   5.450   1.072  0.6214  0.0451  1.6084
  901MOL0     H21586   6.693   5.454   0.925  1.3705  2.0191 -0.0612
  901MOL0     H21587   6.722   5.492   0.612  0.2870  0.8152 -0.6025
  901MOL0     H21588   6.752   5.671   0.603 -1.0796 -0.1179 -0.3487
  901MOL0     H21589   6.962   5.551   0.638 -1.8840  0.0656 -1.3901
  901MOL0     H21590   6.898   5.443   0.766  0.5894 -0.7374 -2.2449
  901MOL0     H21591   6.869   5.677   0.898 -0.0022  4.7377 -0.7041
  901MOL0     H21592   6.969   5.734   0.757  0.3443 -0.8121  0.1988
  901MOL0     H21593   7.129   5.671   0.942 -0.9734  3.0287 -0.8467
  901MOL0     H21594   7.123   5.529   0.842 -1.8274 -1.9526  0.0169
  901MOL0     H21595   7.060   5.341   1.194  0.1841 -0.5045 -1.1387
  901MOL0     H21596   7.040   5.293   1.474 -1.7717 -1.4473 -2.7270
  901MOL0     H21597   7.197   5.286   1.384  1.7329  0.7957  1.1379
  901MOL0     H21598   7.190   5.382   1.521 -1.4323  1.3896 -0.1995
  901MOL0     H21599   6.991   5.914   1.768 -0.0588  2.0008  0.8254
  901MOL0     H21600   7.069   5.971   1.993  1.7773  0.9622  1.6697
  901MOL0     H21601   7.199   6.084   2.106 -1.4922 -1.9158  0.5759
  901MOL0     H21602   7.249   6.016   2.258 -0.4092 -0.4626 -0.7607
  901MOL0     H21603   7.450   6.119   2.054 -0.0060  2.3946 -0.2106
  901MOL0     H21604   7.408   6.207   2.199  4.8384 -1.5310  3.1528
  901MOL0     H21605   7.525   5.922   2.193 -1.9560 -0.6918  2.2050
  901MOL0     H21606   7.520   6.022   2.336 -2.6144 -0.8115  0.6381
  901MOL0     H21607   7.661   6.184   2.191  0.1422 -0.2280  3.4631
  901MOL0     H21608   7.736   6.047   2.278  1.6188  0.1920 -1.2854
  901MOL0     H21609   7.683   6.086   1.991  0.4946 -1.7211 -1.9719
  901MOL0     H21610   7.722   5.919   2.064  1.0134  0.6901  2.6586
  901MOL0     H21611   7.912   6.150   2.093  1.5375  0.5298 -1.0422
  901MOL0     H21612   7.942   5.970   2.101  0.8104  0.3390 -0.0797
  901MOL0     H21613   7.882   6.163   1.885 -0.9148 -0.2352  0.8244
  901MOL0     H21614   7.898   5.978   1.862  0.2273  0.3029 -0.2481
  901MOL0     H21615   8.109   6.080   1.789  1.7496 -1.4924  1.1220
  901MOL0     H21616   8.138   5.986   1.934  1.7302 -1.4993 -1.8179
  901MOL0     H21617   7.435   5.769   1.925 -0.0011  0.4098  0.3355
  901MOL0     H21618   7.368   5.726   1.700 -0.8268 -1.3526 -0.6415
  901MOL0     H21619   7.054   5.819   1.332  0.6576  0.5543  0.3062
  901MOL0     H21620   7.002   5.765   1.113  1.1776  0.3684 -0.7245
  901MOL0     H21621   5.993   5.174   1.746 -1.1336 -2.5739 -0.9522
  901MOL0     H21622   5.805   5.118   1.898 -0.3714 -1.8069 -1.9188
  901MOL0     H21623   5.585   4.923   2.173 -1.6486  1.6963 -1.0111
  901MOL0     H21624   5.381   4.906   2.256  0.6206  0.5442 -0.6984
  901MOL0     H21625   5.170   4.920   2.348  1.4141 -0.0140 -0.4961
  901MOL0     H21626   5.253   4.853   2.481  0.5409  0.5426 -0.1138
  901MOL0     H21627   5.043   4.850   2.568 -0.6181 -0.0376 -1.4066
  901MOL0     H21628   4.985   4.989   2.489 -2.6472 -0.7907  4.5827
  901MOL0     H21629   5.189   4.999   2.725 -0.4358 -2.9208 -2.0230
  901MOL0     H21630   5.008   5.024   2.747 -1.8725  0.3308 -2.1650
  901MOL0     H21631   5.040   5.206   2.572  1.7586 -1.0402 -0.1468
  901MOL0     H21632   5.207   5.212   2.621  0.2703 -3.4392 -1.1430
  901MOL0     H21633   5.024   5.355   2.985 -2.8092 -2.1113  0.4096
  901MOL0     H21634   5.420   5.265   2.490 -1.3268  1.8060 -2.2832
  901MOL0     H21635   5.648   5.298   2.386 -1.3070  1.2752 -0.1680
  902MOL0     O21636   5.677  10.955   9.936  0.1557 -0.5064 -1.2412
  902MOL0     C21637   5.663  10.979  10.054 -0.1696 -0.3803 -0.3353
  902MOL0     O21638   5.575  11.073  10.112 -0.5489 -0.4623  0.2533
  902MOL0     C21639   5.529  11.167  10.024 -1.1620  0.0332  0.3301
  902MOL0     C21640   5.399  11.164   9.963 -0.2579 -0.0643 -0.0734
  902MOL0     C21641   5.361  11.254   9.861 -0.0210 -0.2190 -0.3449
  902MOL0     C21642   5.445  11.364   9.833 -0.4098  0.3533 -0.2380
  902MOL0     O21643   5.423  11.449   9.723  0.2419  0.1663  0.0588
  902MOL0     C21644   5.282  11.482   9.698 -0.6464  0.0024  0.0755
  902MOL0     C21645   5.267  11.621   9.648 -0.6190 -0.7433  0.2944
  902MOL0     C21646   5.127  11.625   9.581  0.9603  0.0562 -0.7441
  902MOL0     C21647   5.013  11.694   9.662 -0.2521 -0.5698  0.0734
  902MOL0     C21648   4.890  11.710   9.587  0.3307  0.3706 -0.1474
  902MOL0     C21649   4.759  11.752   9.654  0.1505 -0.4435  0.2421
  902MOL0     C21650   4.728  11.902   9.633  0.5036 -0.0646 -0.4666
  902MOL0     C21651   4.837  11.989   9.709  0.9136  0.5029 -0.1137
  902MOL0     N21652   4.787  12.124   9.738 -0.3582  0.6639 -0.4003
  902MOL0     C21653   4.753  12.208   9.642 -0.2546  0.0597  0.5870
  902MOL0     C21654   4.732  12.323   9.708 -0.0434 -1.5246 -0.8202
  902MOL0     C21655   4.684  12.447   9.641 -0.7969 -0.2007 -0.4631
  902MOL0     C21656   4.773  12.508   9.523 -0.2209  0.5860  0.7081
  902MOL0     C21657   4.916  12.521   9.550 -0.8498  0.1656  0.0547
  902MOL0     C21658   4.994  12.544   9.422  0.4906  0.8288  1.1316
  902MOL0     O21659   5.067  12.425   9.379  0.3943  0.2138 -0.6232
  902MOL0     C21660   4.991  12.319   9.336 -0.1839 -0.7631  0.6736
  902MOL0     C21661   4.928  12.329   9.216  0.7500  0.0503  0.0602
  902MOL0     C21662   4.861  12.219   9.169  0.0556  0.7422  0.6898
  902MOL0     C21663   4.805  12.226   9.023 -0.8874  0.5409 -1.1418
  902MOL0     C21664   4.861  12.098   9.238  0.2923 -0.3790 -1.0900
  902MOL0     C21665   4.783  11.979   9.196  0.3497 -0.9540 -0.1795
  902MOL0     O21666   4.649  11.960   9.244  0.0212  0.1897  0.2991
  902MOL0     C21667   4.566  11.872   9.182 -0.2111 -0.3578 -0.3924
  902MOL0     C21668   4.573  11.827   9.051 -0.4397  0.3026  0.1853
  902MOL0     C21669   4.479  11.732   8.997  0.4643 -0.2520 -0.6458
  902MOL0     C21670   4.377  11.682   9.078  0.0097 -0.0530  0.5379
  902MOL0     O21671   4.288  11.579   9.050 -1.1265  0.7517  0.1515
  902MOL0     C21672   4.331  11.471   8.961 -0.3895 -0.7956 -0.7753
  902MOL0     C21673   4.222  11.362   8.973  0.7106  0.8830  1.2478
  902MOL0     C21674   4.270  11.246   8.889  0.1976  1.0093  0.2466
  902MOL0     C21675   4.240  11.272   8.744  0.2850  0.2684 -0.7713
  902MOL0     C21676   4.291  11.161   8.660 -0.0304  1.0440  0.3017
  902MOL0     C21677   4.300  11.202   8.515  0.4742  0.4931  0.8220
  902MOL0     C21678   4.396  11.111   8.438 -0.3622 -1.0976  0.3056
  902MOL0     C21679   4.443  11.174   8.309  0.0260  0.6878  0.0977
  902MOL0    Cl21680   4.493  11.045   8.205  0.0793  0.1048 -0.0316
  902MOL0     C21681   4.370  11.739   9.202 -0.0029  0.1025 -0.0544
  902MOL0     C21682   4.458  11.836   9.252  0.5845  0.4184  0.3556
  902MOL0     O21683   4.847  11.895   9.131 -0.2127 -0.0219  0.2570
  902MOL0     C21684   4.928  12.091   9.362  1.0233  0.8118 -0.3966
  902MOL0     C21685   4.989  12.202   9.408  0.7871  0.0011 -0.4933
  902MOL0     N21686   4.740  12.305   9.840  0.3293 -1.0862 -0.6923
  902MOL0     N21687   4.761  12.185   9.861 -0.0913 -0.0795 -0.4461
  902MOL0     C21688   5.557  11.381   9.903  0.4205 -0.8082 -0.1474
  902MOL0     C21689   5.602  11.284   9.997 -0.3266 -0.4042  1.0873
  902MOL0     C21690   5.742  10.894  10.148  0.4776  1.2663 -0.3652
  902MOL0     C21691   5.830  10.801  10.103 -0.7886 -0.2559  0.8641
  902MOL0     C21692   5.882  10.707  10.194 -0.6872 -0.4305  0.5643
  902MOL0     C21693   5.854  10.709  10.338  0.1437  1.6116  0.6159
  902MOL0     O21694   5.892  10.618  10.433  0.5497 -0.1442 -0.3624
  902MOL0     C21695   6.000  10.530  10.395 -0.2692 -0.0183 -0.6778
  902MOL0     C21696   6.033  10.437  10.517  0.3335  0.4438 -0.2424
  902MOL0     C21697   6.105  10.511  10.636  0.1867 -0.3774 -0.5520
  902MOL0     C21698   6.250  10.529  10.612 -0.7891 -0.3446 -0.2979
  902MOL0     C21699   6.320  10.613  10.710 -0.0284 -0.8454  1.0552
  902MOL0     C21700   6.381  10.666  10.798  0.9384 -0.1127 -0.3342
  902MOL0     C21701   5.777  10.816  10.386  0.3695  0.2970  0.3199
  902MOL0     C21702   5.725  10.908  10.290  0.3725  0.0163 -0.4843
  902MOL0     H21703   5.334  11.090  10.006 -0.4012  0.1423  0.0660
  902MOL0     H21704   5.266  11.244   9.811  0.1843 -0.1733 -0.7498
  902MOL0     H21705   5.230  11.407   9.639  0.4757  1.9037 -3.6461
  902MOL0     H21706   5.237  11.485   9.798  1.5793 -0.2348  1.1500
  902MOL0     H21707   5.280  11.706   9.716 -2.1294 -1.8792  2.1269
  902MOL0     H21708   5.339  11.631   9.567  1.6538 -0.9806  2.1768
  902MOL0     H21709   5.124  11.678   9.485 -2.4368  1.4499 -0.0409
  902MOL0     H21710   5.086  11.525   9.564 -0.1377  0.2228  0.7086
  902MOL0     H21711   4.980  11.633   9.746 -0.9946  0.4398  0.5424
  902MOL0     H21712   5.042  11.794   9.696 -2.2638  1.3062 -3.2562
  902MOL0     H21713   4.917  11.781   9.509  1.0714  1.3056  0.9193
  902MOL0     H21714   4.861  11.612   9.548 -1.6872  0.8340  0.0936
  902MOL0     H21715   4.677  11.697   9.608  1.8701 -2.4934 -0.5198
  902MOL0     H21716   4.759  11.709   9.755 -1.9245  1.9334  1.3964
  902MOL0     H21717   4.736  11.934   9.528  0.5490  3.2492  0.4292
  902MOL0     H21718   4.632  11.927   9.679  1.3059  1.0068  0.6721
  902MOL0     H21719   4.927  11.988   9.646  0.9805  0.2306 -0.0144
  902MOL0     H21720   4.871  11.944   9.803 -3.6726  1.0728  2.0717
  902MOL0     H21721   4.750  12.200   9.534  0.4634 -4.2763  0.7260
  902MOL0     H21722   4.585  12.426   9.601 -0.8998 -0.9788  0.1569
  902MOL0     H21723   4.689  12.532   9.710  1.2714  0.0258 -0.8329
  902MOL0     H21724   4.728  12.602   9.489 -2.0627 -0.9669 -1.4630
  902MOL0     H21725   4.757  12.448   9.433 -1.9782 -0.5596  1.7146
  902MOL0     H21726   4.952  12.425   9.588  0.1195 -0.2755 -1.8489
  902MOL0     H21727   4.931  12.604   9.620 -0.6997  0.0013  0.2172
  902MOL0     H21728   5.074  12.616   9.443  0.2493  1.9899 -1.4974
  902MOL0     H21729   4.941  12.593   9.339  2.1182 -1.9139 -1.7312
  902MOL0     H21730   4.927  12.419   9.155 -0.7919  0.6951  0.9885
  902MOL0     H21731   4.864  12.161   8.958  2.1613  1.0097  0.9339
  902MOL0     H21732   4.701  12.193   9.031 -1.0145  1.3059  1.2736
  902MOL0     H21733   4.814  12.331   8.992  0.8163  0.6019 -0.5343
  902MOL0     H21734   4.653  11.862   8.985 -0.6671 -0.6703 -0.6223
  902MOL0     H21735   4.497  11.708   8.893  0.7527  1.1102 -0.9337
  902MOL0     H21736   4.329  11.517   8.862  1.3166  0.7883 -0.1256
  902MOL0     H21737   4.428  11.438   8.999 -0.4644  1.8196  2.0779
  902MOL0     H21738   4.230  11.330   9.077  2.0600 -1.5550  0.4670
  902MOL0     H21739   4.126  11.397   8.934  1.1437 -0.3903 -1.1918
  902MOL0     H21740   4.211  11.159   8.919  0.6700  1.0751  1.4205
  902MOL0     H21741   4.378  11.232   8.899  0.4655 -1.3937 -3.8437
  902MOL0     H21742   4.132  11.287   8.729  0.0869 -0.3528 -0.0371
  902MOL0     H21743   4.293  11.359   8.705  1.7327 -1.3160 -2.5301
  902MOL0     H21744   4.235  11.068   8.673  1.1672  0.6175  3.3388
  902MOL0     H21745   4.390  11.132   8.697 -0.5349 -0.6887  0.3671
  902MOL0     H21746   4.198  11.178   8.486  1.8218 -4.4960 -0.8262
  902MOL0     H21747   4.328  11.306   8.491  4.2721 -0.2522  1.3307
  902MOL0     H21748   4.341  11.018   8.419  0.2270 -1.4348  0.2190
  902MOL0     H21749   4.489  11.080   8.486  0.9359 -0.3269 -1.5881
  902MOL0     H21750   4.526  11.242   8.332  0.0361  0.6691  0.1169
  902MOL0     H21751   4.366  11.236   8.262 -0.1794  0.9198  0.7275
  902MOL0     H21752   4.285  11.723   9.268 -0.1561 -2.4794 -0.7546
  902MOL0     H21753   4.422  11.878   9.346 -2.7515  2.5836 -1.6606
  902MOL0     H21754   4.917  12.000   9.420 -2.3859  0.7691 -0.9092
  902MOL0     H21755   5.034  12.201   9.507  0.0034 -2.1079 -0.1060
  902MOL0     H21756   5.614  11.464   9.863  1.2300 -0.7913  1.0147
  902MOL0     H21757   5.706  11.303  10.023 -0.0063  1.1516 -1.0247
  902MOL0     H21758   5.877  10.796  10.005  0.6827 -0.6004  1.5537
  902MOL0     H21759   5.957  10.642  10.150  0.1961  1.6218 -1.1341
  902MOL0     H21760   5.959  10.470  10.313 -0.4683  3.2599 -3.1957
  902MOL0     H21761   6.088  10.574  10.348 -2.1624  4.4786 -0.5982
  902MOL0     H21762   6.085  10.351  10.474 -1.5051 -0.3695 -0.9392
  902MOL0     H21763   5.941  10.396  10.559  0.4995 -0.1423 -0.4356
  902MOL0     H21764   6.087  10.446  10.721 -0.2527 -1.3526 -1.3706
  902MOL0     H21765   6.059  10.606  10.665  2.2285  0.9548 -1.4516
  902MOL0     H21766   6.279  10.584  10.522 -0.1620 -0.3115 -0.0886
  902MOL0     H21767   6.307  10.436  10.616  1.1348  0.7792  3.3430
  902MOL0     H21768   6.446  10.716  10.866  0.9840 -1.1979  0.4426
  902MOL0     H21769   5.764  10.811  10.493  0.8545  1.3407  0.4332
  902MOL0     H21770   5.644  10.971  10.325 -0.4495 -1.0727 -0.3858
  903MOL0     O21771   1.305   9.451  11.303  0.0607 -0.3292 -0.1730
  903MOL0     C21772   1.202   9.511  11.282 -0.2382 -0.8536  0.0666
  903MOL0     O21773   1.138   9.598  11.374 -0.2895  0.3847 -0.5895
  903MOL0     C21774   1.205   9.607  11.491  0.2377 -0.7336  0.5879
  903MOL0     C21775   1.148   9.554  11.599  0.2950  0.0233  0.5951
  903MOL0     C21776   1.206   9.565  11.721  0.4428 -0.1485  0.6235
  903MOL0     C21777   1.322   9.643  11.750  1.3630  0.5948  1.3854
  903MOL0     O21778   1.363   9.645  11.872  0.4565 -0.4145  0.1425
  903MOL0     C21779   1.493   9.682  11.897 -0.1142  0.4291 -1.2003
  903MOL0     C21780   1.520   9.678  12.052 -0.6417 -0.5028 -1.4065
  903MOL0     C21781   1.399   9.716  12.146  0.1418 -0.8321 -0.4399
  903MOL0     C21782   1.434   9.728  12.288  0.0166 -0.2171  0.8523
  903MOL0     C21783   1.483   9.860  12.333 -0.2456  1.1033 -0.4115
  903MOL0     C21784   1.475   9.881  12.495 -0.7551 -0.0727  1.3810
  903MOL0     C21785   1.577   9.804  12.575  0.5730  0.6647 -0.1488
  903MOL0     C21786   1.520   9.667  12.623  0.0656 -1.1955 -0.1988
  903MOL0     N21787   1.394   9.677  12.700  0.9867 -0.7658  0.0271
  903MOL0     C21788   1.384   9.752  12.817  0.4607 -0.1983 -0.3433
  903MOL0     C21789   1.252   9.751  12.847  0.5534  0.0216  0.0781
  903MOL0     C21790   1.189   9.824  12.964  0.1619  0.1575 -0.0152
  903MOL0     C21791   1.165   9.981  12.955 -0.5161 -1.0594  0.8452
  903MOL0     C21792   1.025  10.013  12.902 -0.2461 -0.2286 -0.8977
  903MOL0     C21793   0.984  10.162  12.938 -0.2611 -0.5034 -0.0164
  903MOL0     O21794   1.006  10.191  13.081  0.8212  0.1636 -0.0499
  903MOL0     C21795   1.106  10.278  13.111  0.5595  0.6909  1.0724
  903MOL0     C21796   1.199  10.234  13.199 -0.3942 -0.3837 -0.1256
  903MOL0     C21797   1.303  10.317  13.249 -0.1013 -0.3107 -0.3660
  903MOL0     C21798   1.391  10.262  13.362 -0.3675  1.0901 -0.5280
  903MOL0     C21799   1.330  10.442  13.180  0.0707 -0.1602  0.1080
  903MOL0     C21800   1.448  10.532  13.217 -0.2328 -0.0202 -0.3623
  903MOL0     O21801   1.549  10.474  13.296  0.2417  0.1168  0.0339
  903MOL0     C21802   1.650  10.539  13.352 -0.0201 -0.5816 -0.0877
  903MOL0     C21803   1.782  10.493  13.349 -0.5747  0.4677  0.0085
  903MOL0     C21804   1.893  10.555  13.413 -0.1214  0.7826 -0.8629
  903MOL0     C21805   1.874  10.676  13.475  0.1706 -0.3931 -0.0332
  903MOL0     O21806   1.985  10.756  13.507 -0.1486  0.1370  0.6334
  903MOL0     C21807   1.988  10.799  13.638 -0.7077 -0.4552 -0.1908
  903MOL0     C21808   2.080  10.922  13.657 -0.5212 -0.2374  0.0348
  903MOL0     C21809   2.010  11.050  13.607 -0.3341  0.3299 -0.6629
  903MOL0     C21810   1.899  11.078  13.719 -0.3395  0.3948  0.1884
  903MOL0     C21811   1.845  11.225  13.704 -0.7042 -0.1299  0.0185
  903MOL0     C21812   1.798  11.278  13.841 -0.6418  0.1064 -0.0452
  903MOL0     C21813   1.746  11.417  13.818 -0.4980  0.1797  0.3713
  903MOL0     C21814   1.603  11.426  13.759  0.6488 -0.0432 -0.6423
  903MOL0    Cl21815   1.605  11.441  13.583 -0.3288 -0.2245  0.2810
  903MOL0     C21816   1.750  10.732  13.478 -0.6609 -0.3882 -0.4452
  903MOL0     C21817   1.634  10.664  13.419 -0.1271  0.6685 -0.0084
  903MOL0     O21818   1.455  10.642  13.171  0.1187  0.3570  0.1489
  903MOL0     C21819   1.227  10.479  13.085 -0.1571 -0.7537 -0.2698
  903MOL0     C21820   1.120  10.405  13.054  0.9729  0.6617 -0.2111
  903MOL0     N21821   1.185   9.677  12.753  0.0062  0.7080 -0.0051
  903MOL0     N21822   1.269   9.632  12.670 -0.3800  0.0358  0.9519
  903MOL0     C21823   1.379   9.694  11.633 -0.2925 -0.1372 -0.8737
  903MOL0     C21824   1.316   9.686  11.506  0.1852 -0.4376  0.8488
  903MOL0     C21825   1.139   9.495  11.146  0.1083 -0.8479  1.6223
  903MOL0     C21826   1.207   9.444  11.029  0.5761  0.4254 -0.2339
  903MOL0     C21827   1.136   9.426  10.910 -0.1616  0.2999 -0.0269
  903MOL0     C21828   0.998   9.434  10.914  0.0381  0.0936 -0.6489
  903MOL0     O21829   0.941   9.393  10.795  0.5031 -0.2611 -0.0961
  903MOL0     C21830   0.794   9.405  10.781 -0.1268 -0.7976 -0.2598
  903MOL0     C21831   0.749   9.392  10.629 -0.1021  0.8477  0.5744
  903MOL0     C21832   0.826   9.469  10.519  0.2423  0.9435  0.3769
  903MOL0     C21833   0.806   9.400  10.374  0.0828  0.4628 -0.7200
  903MOL0     C21834   0.730   9.494  10.284 -0.2687  0.0957 -0.3093
  903MOL0     C21835   0.651   9.565  10.221 -0.3525 -0.5800  0.4302
  903MOL0     C21836   0.930   9.481  11.026  1.0275  0.6662 -0.4833
  903MOL0     C21837   0.996   9.518  11.141  0.0508 -0.2884  0.1698
  903MOL0     H21838   1.062   9.493  11.574  2.2417 -1.2782 -4.0034
  903MOL0     H21839   1.161   9.522  11.810 -2.0905 -1.6108 -1.2322
  903MOL0     H21840   1.564   9.616  11.846  1.1745  1.7247 -1.1632
  903MOL0     H21841   1.507   9.786  11.865  0.2200  0.7677 -0.0239
  903MOL0     H21842   1.552   9.578  12.082 -0.8017 -0.1745 -0.0953
  903MOL0     H21843   1.598   9.751  12.077 -0.2165  0.0712 -4.1025
  903MOL0     H21844   1.366   9.812  12.106 -0.7148 -1.4515 -1.2339
  903MOL0     H21845   1.322   9.640  12.131 -1.4533  0.6264  0.0335
  903MOL0     H21846   1.340   9.714  12.344 -0.1495  0.9425  0.9011
  903MOL0     H21847   1.498   9.643  12.311  0.1749 -0.3148  0.0617
  903MOL0     H21848   1.586   9.878  12.302  0.5469  2.2308  2.5237
  903MOL0     H21849   1.422   9.942  12.295  0.5325  2.5751  1.3554
  903MOL0     H21850   1.496   9.987  12.510 -2.7142  0.5911 -0.2068
  903MOL0     H21851   1.373   9.856  12.526 -0.4194 -1.7906  1.1904
  903MOL0     H21852   1.659   9.771  12.510 -0.1121 -0.5656 -0.4366
  903MOL0     H21853   1.594   9.855  12.670 -3.2424  1.2619  0.3898
  903MOL0     H21854   1.604   9.615  12.670 -0.6343 -2.6571 -0.4930
  903MOL0     H21855   1.495   9.600  12.540 -1.3738  0.8700 -1.5271
  903MOL0     H21856   1.466   9.808  12.861 -0.9322  0.3796  1.6767
  903MOL0     H21857   1.091   9.779  12.982  1.0678 -1.3830  1.3199
  903MOL0     H21858   1.251   9.805  13.052  0.7196  3.3336  0.3898
  903MOL0     H21859   1.244  10.030  12.897 -0.3920  0.3806  2.1495
  903MOL0     H21860   1.167  10.021  13.057 -1.7945  2.8676 -0.4673
  903MOL0     H21861   0.954   9.938  12.938  0.1581  1.3106  3.7172
  903MOL0     H21862   1.035   9.991  12.795 -3.4335  0.1696 -1.3885
  903MOL0     H21863   0.880  10.183  12.911  0.3456  0.5335 -1.6807
  903MOL0     H21864   1.053  10.228  12.886  2.1127 -2.4062  0.5045
  903MOL0     H21865   1.180  10.133  13.235  0.9586 -1.2245 -1.6206
  903MOL0     H21866   1.372  10.159  13.392  1.1286  1.3018  1.3236
  903MOL0     H21867   1.494  10.259  13.324  0.8494  2.1768  2.4143
  903MOL0     H21868   1.388  10.338  13.440  1.7819  1.5993 -0.8672
  903MOL0     H21869   1.816  10.396  13.313 -0.2972  0.1701  1.0338
  903MOL0     H21870   1.990  10.515  13.385 -0.0750 -2.1699  2.8467
  903MOL0     H21871   1.888  10.825  13.675 -2.4020 -0.4431 -4.2114
  903MOL0     H21872   2.033  10.715  13.691 -0.6078 -0.6444 -0.5757
  903MOL0     H21873   2.125  10.924  13.756 -0.1474 -1.4813 -0.0844
  903MOL0     H21874   2.157  10.902  13.582 -1.6892 -3.2086 -0.5398
  903MOL0     H21875   1.965  11.035  13.509  0.0641 -0.4503 -0.7403
  903MOL0     H21876   2.085  11.129  13.603  0.3170 -0.0400  1.8704
  903MOL0     H21877   1.811  11.015  13.711 -2.7674  3.6823 -1.3881
  903MOL0     H21878   1.947  11.057  13.815  0.4105 -0.2470 -0.3127
  903MOL0     H21879   1.775  11.229  13.619  0.0298  0.7365 -0.5642
  903MOL0     H21880   1.931  11.286  13.674 -0.8480  0.0614 -0.0043
  903MOL0     H21881   1.720  11.219  13.889 -0.3632  0.6727  1.1456
  903MOL0     H21882   1.893  11.288  13.894 -0.3589 -0.0916 -0.5057
  903MOL0     H21883   1.816  11.484  13.766 -3.0635  1.6848 -1.4254
  903MOL0     H21884   1.738  11.457  13.919  1.3068  0.7730  0.3176
  903MOL0     H21885   1.545  11.515  13.785  0.6851 -0.2262  0.0873
  903MOL0     H21886   1.540  11.341  13.784  0.2696 -0.3032 -2.3191
  903MOL0     H21887   1.740  10.832  13.517  2.9022 -0.9900  2.5768
  903MOL0     H21888   1.534  10.706  13.433 -1.1474 -1.4781 -0.4872
  903MOL0     H21889   1.217  10.581  13.048 -0.9850 -0.6177  0.2835
  903MOL0     H21890   1.040  10.438  12.988  0.9558  0.1423 -0.4555
  903MOL0     H21891   1.473   9.747  11.639 -0.6568  0.4548 -0.3112
  903MOL0     H21892   1.365   9.723  11.416 -1.2298  1.2024  0.7093
  903MOL0     H21893   1.312   9.426  11.049  0.2801  1.2243  2.4575
  903MOL0     H21894   1.185   9.390  10.819 -2.1260 -4.1110  0.3704
  903MOL0     H21895   0.750   9.334  10.851  1.2508  0.6200  2.1861
  903MOL0     H21896   0.764   9.507  10.806 -0.9901 -0.3400 -2.8753
  903MOL0     H21897   0.641   9.409  10.628 -0.9814 -3.4853  1.3603
  903MOL0     H21898   0.754   9.283  10.623  1.6118  0.8080  1.9208
  903MOL0     H21899   0.931   9.451  10.543  0.3964  1.4851  0.0976
  903MOL0     H21900   0.804   9.576  10.515  4.3290  2.0035 -4.8686
  903MOL0     H21901   0.747   9.308  10.379 -0.8009  1.0145 -0.8428
  903MOL0     H21902   0.896   9.378  10.316 -0.3483 -1.7645 -0.6144
  903MOL0     H21903   0.598   9.634  10.159  3.3272  3.8812  1.7070
  903MOL0     H21904   0.824   9.495  11.008  1.3254 -1.2879 -5.3083
  903MOL0     H21905   0.940   9.557  11.225 -1.9891  0.4849 -1.4578
  904MOL0     O21906   3.821   6.714   7.063 -0.1698  0.1219  0.0789
  904MOL0     C21907   3.895   6.627   7.013  0.3217 -0.1872 -0.2608
  904MOL0     O21908   4.001   6.576   7.074 -0.6846 -0.6960  0.4413
  904MOL0     C21909   4.058   6.622   7.197 -0.2883 -1.0006 -0.0790
  904MOL0     C21910   4.125   6.746   7.203  0.4663  0.0698 -0.9995
  904MOL0     C21911   4.194   6.790   7.319 -0.3841  0.1220  0.0553
  904MOL0     C21912   4.199   6.700   7.428  0.5725 -0.4934 -0.1915
  904MOL0     O21913   4.259   6.746   7.545  0.0159  0.2998 -0.7386
  904MOL0     C21914   4.174   6.848   7.608  0.5199 -0.4121 -0.8382
  904MOL0     C21915   4.197   6.850   7.758  0.2476 -0.7606  0.1354
  904MOL0     C21916   4.128   6.973   7.829 -0.9880 -0.1943 -0.1045
  904MOL0     C21917   3.980   6.949   7.852  1.1490 -0.0326 -0.2466
  904MOL0     C21918   3.945   6.914   7.999 -0.7757  0.0998 -0.0786
  904MOL0     C21919   3.794   6.909   8.017  0.7138  0.6411  0.1021
  904MOL0     C21920   3.741   6.855   8.151  0.3026  0.5773  0.2326
  904MOL0     C21921   3.599   6.801   8.143  0.3719  0.4554  0.4862
  904MOL0     N21922   3.584   6.732   8.272  0.4833 -0.2590 -0.4847
  904MOL0     C21923   3.512   6.784   8.381 -0.7367  0.6674 -0.1392
  904MOL0     C21924   3.525   6.695   8.476  0.9688  0.3373 -0.7175
  904MOL0     C21925   3.429   6.676   8.593 -0.2332  0.3632 -0.0171
  904MOL0     C21926   3.317   6.569   8.567  0.1521 -0.4739 -1.4561
  904MOL0     C21927   3.228   6.563   8.696 -0.4992 -0.7838  0.6933
  904MOL0     C21928   3.142   6.434   8.685  0.9774 -0.9559  1.2515
  904MOL0     O21929   3.080   6.424   8.814 -0.1322 -0.3749 -1.3980
  904MOL0     C21930   3.147   6.347   8.909  0.3492  0.5308 -0.7167
  904MOL0     C21931   3.204   6.405   9.015 -0.0175 -0.3835 -0.7708
  904MOL0     C21932   3.288   6.345   9.115  0.0412 -0.2357 -0.2095
  904MOL0     C21933   3.368   6.417   9.224  0.6108 -0.4212  0.1783
  904MOL0     C21934   3.308   6.200   9.108  1.0312  0.8309 -0.0823
  904MOL0     C21935   3.404   6.123   9.187  0.8289  0.7906 -0.1573
  904MOL0     O21936   3.521   6.175   9.215 -0.1171 -0.5174 -0.2872
  904MOL0     C21937   3.629   6.098   9.248 -0.5779  0.8553  0.2994
  904MOL0     C21938   3.704   6.141   9.354 -0.4409 -0.1091  0.1447
  904MOL0     C21939   3.824   6.078   9.384  0.7577 -0.3775  0.5599
  904MOL0     C21940   3.849   5.961   9.315 -0.4057 -0.0866 -0.7632
  904MOL0     O21941   3.949   5.901   9.385  0.4155  0.0938 -0.0888
  904MOL0     C21942   4.000   5.781   9.328  1.3140 -0.2384  0.4212
  904MOL0     C21943   4.088   5.820   9.215 -0.0290  0.8033 -0.6305
  904MOL0     C21944   4.181   5.703   9.191  0.7210  0.7895 -0.1088
  904MOL0     C21945   4.101   5.576   9.170 -0.0142  0.1573  0.1700
  904MOL0     C21946   4.166   5.461   9.087 -0.0863 -1.1055  0.7257
  904MOL0     C21947   4.113   5.333   9.140  0.5958 -0.9343  0.6606
  904MOL0     C21948   4.120   5.213   9.048 -0.5972  0.0481 -0.5991
  904MOL0     C21949   4.255   5.154   9.026  0.1417  0.2386  0.2504
  904MOL0    Cl21950   4.340   5.244   8.899  0.0554 -0.3167  0.0019
  904MOL0     C21951   3.775   5.910   9.208  0.2750  1.1512  0.0790
  904MOL0     C21952   3.662   5.987   9.184 -0.0475  0.0751  0.8908
  904MOL0     O21953   3.371   6.006   9.214 -0.2820 -0.6337 -0.5038
  904MOL0     C21954   3.257   6.144   8.990  0.2724 -0.5120 -0.3505
  904MOL0     C21955   3.173   6.210   8.901  0.7858 -0.3839  0.1276
  904MOL0     N21956   3.617   6.596   8.440 -0.5640 -0.4691  0.0832
  904MOL0     N21957   3.651   6.620   8.318  0.0132 -0.2148  1.4608
  904MOL0     C21958   4.132   6.584   7.425 -0.4748 -0.6534  0.1569
  904MOL0     C21959   4.063   6.544   7.311  0.0334 -0.5315 -0.3122
  904MOL0     C21960   3.863   6.582   6.873  0.5421 -1.0004 -0.6409
  904MOL0     C21961   3.951   6.508   6.787 -0.2723 -0.0413 -0.4067
  904MOL0     C21962   3.904   6.473   6.658 -0.0806 -0.0658  0.5942
  904MOL0     C21963   3.785   6.511   6.606  1.2701 -0.1418 -0.2738
  904MOL0     O21964   3.739   6.502   6.476 -0.1335  0.5596  0.0467
  904MOL0     C21965   3.845   6.538   6.382  0.5310  0.4132 -0.3948
  904MOL0     C21966   3.891   6.681   6.391  0.4536  0.4379 -0.6931
  904MOL0     C21967   4.031   6.710   6.342  0.6264  1.3704  0.5012
  904MOL0     C21968   4.065   6.687   6.197  0.9800 -0.2479  0.7515
  904MOL0     C21969   4.188   6.601   6.190  0.2112 -0.9330  0.3987
  904MOL0     C21970   4.281   6.530   6.171 -0.1067  0.2400 -0.4224
  904MOL0     C21971   3.702   6.577   6.695 -0.1112  0.1719 -0.6701
  904MOL0     C21972   3.739   6.615   6.825  0.4293 -0.5094 -0.5624
  904MOL0     H21973   4.125   6.812   7.117  0.6867 -0.0514 -1.0917
  904MOL0     H21974   4.236   6.889   7.335  1.9588 -1.0875  2.2418
  904MOL0     H21975   4.205   6.945   7.568  1.4169  0.1399  1.0684
  904MOL0     H21976   4.068   6.840   7.585  0.1308  0.6756  0.4115
  904MOL0     H21977   4.168   6.763   7.817 -1.5858 -1.4140 -1.5917
  904MOL0     H21978   4.304   6.862   7.777  0.1349 -1.4602  1.2577
  904MOL0     H21979   4.180   6.994   7.924  1.7137  2.9345 -2.0504
  904MOL0     H21980   4.148   7.067   7.776  1.0969  0.6216  1.9548
  904MOL0     H21981   3.925   7.038   7.821  1.1279  0.2179  0.4853
  904MOL0     H21982   3.947   6.867   7.788  2.5621 -0.3226 -0.6493
  904MOL0     H21983   3.990   6.821   8.034 -1.7302  0.1692  1.4747
  904MOL0     H21984   3.992   6.997   8.054  1.8887 -0.5894 -1.1621
  904MOL0     H21985   3.753   7.008   7.995  0.2393  0.4139 -0.0494
  904MOL0     H21986   3.755   6.830   7.952 -1.8245 -0.7898  3.1035
  904MOL0     H21987   3.814   6.779   8.178  0.3556 -0.6447 -2.9115
  904MOL0     H21988   3.745   6.926   8.234 -2.1821 -0.4322  1.3206
  904MOL0     H21989   3.600   6.718   8.072 -1.0461 -1.7439  2.8693
  904MOL0     H21990   3.523   6.878   8.132 -0.9041 -0.8147  0.1553
  904MOL0     H21991   3.450   6.873   8.372  2.2075  3.0223  0.8928
  904MOL0     H21992   3.488   6.634   8.676 -0.4802  1.5354  0.7742
  904MOL0     H21993   3.387   6.773   8.623 -3.5110 -0.2517 -2.1301
  904MOL0     H21994   3.354   6.467   8.561  0.5856 -0.4415  0.2511
  904MOL0     H21995   3.260   6.601   8.479  0.2494  1.1902 -0.9580
  904MOL0     H21996   3.158   6.646   8.703  0.5689  0.0023  2.8642
  904MOL0     H21997   3.293   6.557   8.784  0.4963  0.0267  0.0407
  904MOL0     H21998   3.209   6.350   8.664 -1.3396 -2.2347 -1.9948
  904MOL0     H21999   3.066   6.448   8.607  2.7006 -0.2603 -0.3803
  904MOL0     H22000   3.189   6.512   9.021 -0.5837 -0.4495 -0.9696
  904MOL0     H22001   3.341   6.521   9.204 -2.8972 -1.5246 -1.6227
  904MOL0     H22002   3.324   6.400   9.323 -2.9431  1.3273 -0.9496
  904MOL0     H22003   3.478   6.416   9.226  0.6595 -0.6233 -1.5807
  904MOL0     H22004   3.681   6.234   9.405  0.2258  0.2904 -0.2724
  904MOL0     H22005   3.876   6.111   9.473  1.6427  0.5819 -0.2787
  904MOL0     H22006   4.050   5.727   9.410 -2.2478  0.3598  3.2475
  904MOL0     H22007   3.913   5.719   9.301  2.5531 -1.9575  0.1747
  904MOL0     H22008   4.028   5.848   9.127  0.8880  1.0798 -1.1871
  904MOL0     H22009   4.154   5.904   9.241  2.6885 -0.4137 -3.0556
  904MOL0     H22010   4.250   5.680   9.273 -0.6434 -1.6619  0.4471
  904MOL0     H22011   4.234   5.715   9.096  0.4307 -2.6019 -0.8356
  904MOL0     H22012   4.079   5.540   9.271 -0.0044  1.7688  0.7785
  904MOL0     H22013   4.011   5.609   9.116  0.2403 -0.1432 -0.4407
  904MOL0     H22014   4.274   5.465   9.103  0.3610 -1.7412 -1.8175
  904MOL0     H22015   4.152   5.477   8.980 -0.2318 -4.8156  0.0617
  904MOL0     H22016   4.162   5.300   9.232  3.1801  0.7365  0.0054
  904MOL0     H22017   4.005   5.339   9.158 -0.1381 -4.9950 -1.3319
  904MOL0     H22018   4.047   5.217   8.966 -0.6917 -0.1970 -0.5275
  904MOL0     H22019   4.077   5.136   9.112  1.2693  1.8624  3.1442
  904MOL0     H22020   4.242   5.054   8.984 -3.4359  1.1747 -1.2767
  904MOL0     H22021   4.309   5.158   9.121  0.0563  0.7757  0.2796
  904MOL0     H22022   3.794   5.820   9.150  1.2901  0.2718  1.6876
  904MOL0     H22023   3.603   5.963   9.096  3.1054 -0.8805 -1.1449
  904MOL0     H22024   3.284   6.042   8.964  1.6579 -0.6365  1.3814
  904MOL0     H22025   3.155   6.169   8.803 -1.1875  3.2378 -1.1987
  904MOL0     H22026   4.137   6.522   7.513  1.3883  2.6425  2.6198
  904MOL0     H22027   4.014   6.448   7.312  1.1916 -1.1401  0.8723
  904MOL0     H22028   4.053   6.473   6.799 -0.6755 -3.9690 -5.1591
  904MOL0     H22029   3.975   6.416   6.598  0.6166  0.4327  0.9280
  904MOL0     H22030   3.923   6.464   6.398 -2.5318 -2.5378  2.3753
  904MOL0     H22031   3.807   6.519   6.282 -1.2528  1.0717  0.1178
  904MOL0     H22032   3.886   6.697   6.499  4.8195 -1.6312  0.0362
  904MOL0     H22033   3.826   6.745   6.330  1.4640  3.6978  1.3895
  904MOL0     H22034   4.093   6.646   6.405  0.1360  1.4703  1.0964
  904MOL0     H22035   4.052   6.813   6.372  0.1853  2.8528 -3.6238
  904MOL0     H22036   4.070   6.779   6.138 -1.2019 -1.4972 -1.6092
  904MOL0     H22037   3.991   6.617   6.157  0.4885  0.5328  0.2702
  904MOL0     H22038   4.376   6.488   6.145 -0.6835 -2.1130  1.0022
  904MOL0     H22039   3.614   6.617   6.645 -0.1871 -0.3619 -0.9658
  904MOL0     H22040   3.672   6.680   6.880  0.4175  0.5514 -1.8007
  905MOL0     O22041   6.623   3.907  10.117 -0.6609  0.7871  0.4731
  905MOL0     C22042   6.667   3.907   9.999  1.0445  0.3453  1.0214
  905MOL0     O22043   6.694   3.797   9.918  0.1882 -0.1453  0.2470
  905MOL0     C22044   6.700   3.675   9.971  0.1780 -0.3838  1.2702
  905MOL0     C22045   6.657   3.591   9.876  0.0319  0.5953  0.1723
  905MOL0     C22046   6.659   3.454   9.895 -0.4003  0.4720  0.2585
  905MOL0     C22047   6.728   3.401  10.010 -0.3945 -1.0763 -0.2538
  905MOL0     O22048   6.751   3.269  10.024 -0.0624  0.1501 -0.7126
  905MOL0     C22049   6.681   3.186   9.929  0.1775 -0.2370 -0.6553
  905MOL0     C22050   6.676   3.041   9.967  0.5672  0.8716 -0.0516
  905MOL0     C22051   6.632   3.016  10.110 -0.5017 -0.1113 -0.4041
  905MOL0     C22052   6.585   2.874  10.137 -0.0975  0.2676 -1.2117
  905MOL0     C22053   6.606   2.820  10.276  0.5769 -0.7377 -1.3830
  905MOL0     C22054   6.496   2.860  10.373  0.4280  0.0803 -0.6384
  905MOL0     C22055   6.498   3.012  10.428  0.5530 -0.2522 -0.4494
  905MOL0     C22056   6.596   3.040  10.540 -0.3833 -0.6173  0.0098
  905MOL0     N22057   6.612   3.178  10.584 -0.3938  0.3994 -0.0566
  905MOL0     C22058   6.560   3.232  10.709  0.6041  0.3862  0.9220
  905MOL0     C22059   6.633   3.350  10.719  0.1532  0.1903 -0.3811
  905MOL0     C22060   6.631   3.445  10.834  0.3800  0.2850 -0.4710
  905MOL0     C22061   6.650   3.595  10.811 -0.6230  0.2260  0.1496
  905MOL0     C22062   6.791   3.643  10.819 -0.4820 -0.8181  0.2103
  905MOL0     C22063   6.885   3.563  10.726 -0.0481 -0.7236  0.1243
  905MOL0     O22064   7.017   3.608  10.730 -0.6192  0.5266 -0.1414
  905MOL0     C22065   7.099   3.595  10.620  0.0714  0.2119  0.4733
  905MOL0     C22066   7.101   3.481  10.533 -0.5944  0.0467 -0.9708
  905MOL0     C22067   7.176   3.475  10.416 -0.1585 -0.1665  0.7851
  905MOL0     C22068   7.176   3.358  10.322  0.3111 -0.7638 -0.3777
  905MOL0     C22069   7.269   3.582  10.402 -0.0163  0.0380  0.1700
  905MOL0     C22070   7.367   3.572  10.292 -0.6014  0.7681 -1.1554
  905MOL0     O22071   7.330   3.543  10.163  0.1787  0.1151 -0.1632
  905MOL0     C22072   7.425   3.506  10.076  0.1576  0.2740 -0.3581
  905MOL0     C22073   7.530   3.599  10.043 -0.3199 -0.2833  0.1135
  905MOL0     C22074   7.606   3.560   9.931 -0.0472 -0.7366  0.2813
  905MOL0     C22075   7.602   3.439   9.864  0.3210  0.0223  0.1646
  905MOL0     O22076   7.682   3.418   9.754  0.0752  0.7306 -0.8243
  905MOL0     C22077   7.666   3.301   9.677  0.2567  0.5211  0.9977
  905MOL0     C22078   7.749   3.183   9.726  0.2535  0.9090  0.5977
  905MOL0     C22079   7.893   3.214   9.747  0.3690  0.1364 -0.1773
  905MOL0     C22080   7.973   3.098   9.798  0.9302 -0.5401  0.1529
  905MOL0     C22081   8.109   3.137   9.850 -0.1514  0.0236  0.0404
  905MOL0     C22082   8.202   3.014   9.858  0.6251  0.0290  0.9084
  905MOL0     C22083   8.335   3.059   9.910 -0.1955  0.0319  0.1740
  905MOL0     C22084   8.436   2.940   9.892  1.0898  0.7231  0.5561
  905MOL0    Cl22085   8.594   2.973   9.956  0.5617 -0.3820  0.0556
  905MOL0     C22086   7.514   3.344   9.917  0.5503 -1.4490  0.7023
  905MOL0     C22087   7.418   3.380  10.020  0.3839 -0.4312 -1.6747
  905MOL0     O22088   7.480   3.592  10.322 -0.4159 -0.0924 -0.6126
  905MOL0     C22089   7.275   3.689  10.491  0.4828 -0.6472  0.5511
  905MOL0     C22090   7.184   3.705  10.593 -0.4523  0.6299 -0.7669
  905MOL0     N22091   6.713   3.362  10.603 -0.5943  0.6241 -0.2189
  905MOL0     N22092   6.709   3.255  10.536  0.3652  0.3221  0.3450
  905MOL0     C22093   6.773   3.490  10.105  0.2320  0.7249 -0.7489
  905MOL0     C22094   6.755   3.631  10.096  0.3759 -0.7382  1.5687
  905MOL0     C22095   6.719   4.033   9.946 -0.0241 -0.7427  0.3371
  905MOL0     C22096   6.768   4.138  10.026  0.7990 -0.2619 -0.6788
  905MOL0     C22097   6.797   4.264   9.967  0.8364  1.2422  0.1134
  905MOL0     C22098   6.791   4.285   9.835  0.7252 -0.1147  0.2450
  905MOL0     O22099   6.833   4.400   9.767  0.1513  0.2244 -0.3436
  905MOL0     C22100   6.840   4.520   9.845 -0.4456  1.3173  0.1797
  905MOL0     C22101   6.786   4.641   9.770 -0.4485  0.1648  0.4465
  905MOL0     C22102   6.636   4.664   9.784 -0.2943 -0.2040  0.0987
  905MOL0     C22103   6.568   4.748   9.676  0.2707  0.2317  0.1038
  905MOL0     C22104   6.422   4.721   9.660 -0.2512  0.6337 -0.4829
  905MOL0     C22105   6.306   4.691   9.637 -0.5197  0.5427  1.9519
  905MOL0     C22106   6.761   4.174   9.754  0.3174 -0.0610  0.1750
  905MOL0     C22107   6.725   4.048   9.805  0.1486 -0.2620  0.1486
  905MOL0     H22108   6.598   3.624   9.791 -1.0785  1.6012  1.2826
  905MOL0     H22109   6.624   3.403   9.807  2.7676 -1.6652  0.0785
  905MOL0     H22110   6.578   3.223   9.929  0.6146  1.4677  3.1965
  905MOL0     H22111   6.723   3.198   9.829  0.9534 -3.2493 -0.8124
  905MOL0     H22112   6.599   2.994   9.906 -0.4834  1.2187  0.9799
  905MOL0     H22113   6.773   2.993   9.946  1.3033  2.4771 -0.4811
  905MOL0     H22114   6.709   3.054  10.178 -1.6544 -0.7356  1.3082
  905MOL0     H22115   6.548   3.086  10.114 -0.2612  0.3795 -2.4843
  905MOL0     H22116   6.479   2.858  10.115 -0.5710 -0.9629  1.6203
  905MOL0     H22117   6.634   2.802  10.070 -0.4446  2.2973 -3.8000
  905MOL0     H22118   6.602   2.711  10.280  1.3432 -0.7252  0.7481
  905MOL0     H22119   6.704   2.847  10.316 -1.5893  1.3632  3.3472
  905MOL0     H22120   6.400   2.828  10.330  0.7421 -0.1089 -1.2005
  905MOL0     H22121   6.515   2.794  10.459  1.4522  1.6071  0.3548
  905MOL0     H22122   6.515   3.070  10.336  1.6224 -1.4520 -1.0550
  905MOL0     H22123   6.395   3.038  10.452  0.4192  0.4351 -1.6708
  905MOL0     H22124   6.693   3.004  10.503  0.9187 -1.0813  3.5080
  905MOL0     H22125   6.584   2.978  10.629 -1.2386 -0.9570 -0.3337
  905MOL0     H22126   6.484   3.181  10.768  0.7886 -0.7001  0.2507
  905MOL0     H22127   6.535   3.441  10.888 -0.2808 -0.3354 -1.6690
  905MOL0     H22128   6.697   3.395  10.905 -0.6546  1.9921  1.8384
  905MOL0     H22129   6.589   3.662  10.872 -2.0082  0.3705 -1.3180
  905MOL0     H22130   6.617   3.621  10.710  1.1215  2.7888  0.1761
  905MOL0     H22131   6.817   3.646  10.925 -1.9724 -0.0580  0.5809
  905MOL0     H22132   6.801   3.744  10.777 -2.9280 -0.4373  0.4140
  905MOL0     H22133   6.844   3.580  10.626  1.1105  1.6974 -0.0162
  905MOL0     H22134   6.873   3.457  10.749 -2.4955 -0.3893  0.6830
  905MOL0     H22135   7.022   3.409  10.550 -0.6226 -0.2691 -2.3622
  905MOL0     H22136   7.130   3.397  10.231  0.1138  0.8088  0.3768
  905MOL0     H22137   7.274   3.309  10.309  1.2008  1.2029 -1.4807
  905MOL0     H22138   7.101   3.283  10.349 -0.3900 -0.5332 -1.6381
  905MOL0     H22139   7.537   3.695  10.093  0.0921  0.3052 -1.0351
  905MOL0     H22140   7.667   3.632   9.876  0.7057 -2.8835 -1.8838
  905MOL0     H22141   7.558   3.281   9.683  0.0228  1.1972 -0.4334
  905MOL0     H22142   7.686   3.329   9.573  0.5709 -1.3672  0.5160
  905MOL0     H22143   7.695   3.150   9.815 -0.7069 -1.9013 -0.9388
  905MOL0     H22144   7.744   3.107   9.648 -0.6143  0.3962  1.1422
  905MOL0     H22145   7.907   3.291   9.823  0.9261  3.2612 -3.1733
  905MOL0     H22146   7.945   3.252   9.658 -0.7763 -0.1159 -0.9729
  905MOL0     H22147   7.917   3.054   9.881 -2.0846 -0.0404 -1.4901
  905MOL0     H22148   7.986   3.030   9.714 -0.7469  1.5659 -1.9403
  905MOL0     H22149   8.098   3.191   9.945 -0.2335 -0.0755  0.0867
  905MOL0     H22150   8.137   3.217   9.781 -2.0358  2.4120  1.8583
  905MOL0     H22151   8.155   2.939   9.923 -2.5514  0.0747 -1.1292
  905MOL0     H22152   8.217   2.966   9.760  1.4857 -1.3411  1.6681
  905MOL0     H22153   8.325   3.075  10.018  2.6448 -2.3879  0.9246
  905MOL0     H22154   8.361   3.146   9.849  1.2330 -1.7943 -1.9863
  905MOL0     H22155   8.443   2.907   9.788 -1.3253 -1.0608  0.8803
  905MOL0     H22156   8.390   2.864   9.956  1.4089  1.4893  1.7341
  905MOL0     H22157   7.504   3.244   9.877  0.3846  0.0353 -3.4508
  905MOL0     H22158   7.335   3.316  10.049  0.4822  0.3856  0.6217
  905MOL0     H22159   7.355   3.762  10.485  0.2680 -0.3488  1.2194
  905MOL0     H22160   7.189   3.799  10.647 -1.3398  1.0231 -1.3519
  905MOL0     H22161   6.822   3.451  10.194 -0.4843  0.6198 -0.3956
  905MOL0     H22162   6.794   3.692  10.177 -0.5692  0.0672  1.4378
  905MOL0     H22163   6.784   4.117  10.131  2.2906 -0.3503 -0.8900
  905MOL0     H22164   6.834   4.337  10.039  2.6844 -0.5230  1.0566
  905MOL0     H22165   6.773   4.506   9.931  2.3979  0.6405  2.4511
  905MOL0     H22166   6.945   4.537   9.871  0.6821 -2.0979 -1.5408
  905MOL0     H22167   6.811   4.640   9.663 -0.2069 -4.0835  0.3946
  905MOL0     H22168   6.826   4.736   9.808 -0.7581  1.6051 -2.4931
  905MOL0     H22169   6.615   4.716   9.879 -2.5478 -2.2404  0.8126
  905MOL0     H22170   6.580   4.572   9.800 -0.6096 -0.0564 -0.1539
  905MOL0     H22171   6.614   4.719   9.581  0.9745 -2.0229  1.0635
  905MOL0     H22172   6.586   4.853   9.701  0.4098  0.9840 -2.8349
  905MOL0     H22173   6.215   4.652   9.594  1.7288  0.6222 -3.7430
  905MOL0     H22174   6.772   4.177   9.646 -0.0700 -2.7579  0.0091
  905MOL0     H22175   6.720   3.965   9.736  2.8196  0.5978 -1.2565
  906MOL0     O22176   5.350  10.721  10.511  0.5308  0.7861  0.1395
  906MOL0     C22177   5.415  10.706  10.407 -0.4302 -0.9853  0.4602
  906MOL0     O22178   5.422  10.806  10.309  0.3723  0.1947  0.0244
  906MOL0     C22179   5.348  10.914  10.328  0.0439  0.5956  0.7893
  906MOL0     C22180   5.245  10.950  10.245  0.3823 -1.0447  0.5582
  906MOL0     C22181   5.170  11.065  10.268 -0.5370 -0.4708 -1.1079
  906MOL0     C22182   5.189  11.158  10.373 -0.7463  0.0623 -0.7794
  906MOL0     O22183   5.105  11.260  10.382 -0.6899 -0.1410 -0.1681
  906MOL0     C22184   5.109  11.348  10.494  0.7392  0.6100  0.4158
  906MOL0     C22185   4.966  11.399  10.519 -0.9699 -0.3815  0.4778
  906MOL0     C22186   4.870  11.315  10.601  0.4555 -0.5351 -0.1235
  906MOL0     C22187   4.936  11.224  10.703  0.4919  0.1319 -0.1587
  906MOL0     C22188   4.833  11.134  10.770 -0.0384 -0.4885 -0.2739
  906MOL0     C22189   4.716  11.217  10.844 -0.0243  0.3213 -0.2814
  906MOL0     C22190   4.779  11.278  10.967 -0.2478 -0.0595 -0.7283
  906MOL0     C22191   4.678  11.381  11.019  0.6041 -1.0000 -0.5225
  906MOL0     N22192   4.563  11.307  11.073  0.3698  0.5223  0.2157
  906MOL0     C22193   4.563  11.194  11.153  0.1176 -0.7388  0.5922
  906MOL0     C22194   4.430  11.186  11.192 -1.1096  0.4493  0.0236
  906MOL0     C22195   4.350  11.088  11.263 -0.6462  0.4720 -0.9112
  906MOL0     C22196   4.314  10.976  11.154 -0.0002 -1.0499 -0.0297
  906MOL0     C22197   4.425  10.883  11.117 -0.4108 -1.0263 -0.1515
  906MOL0     C22198   4.479  10.801  11.227 -0.0730 -0.3600  0.8894
  906MOL0     O22199   4.568  10.869  11.311  1.4083 -0.2166  0.0731
  906MOL0     C22200   4.635  10.802  11.405  0.4494  0.6649  0.6221
  906MOL0     C22201   4.651  10.663  11.407 -0.5003  0.0148  1.4598
  906MOL0     C22202   4.741  10.594  11.488  0.3893  0.1142  0.0724
  906MOL0     C22203   4.750  10.447  11.462 -0.8022 -0.0455  0.0392
  906MOL0     C22204   4.829  10.669  11.567  0.3738  0.8995 -0.1811
  906MOL0     C22205   4.930  10.613  11.652 -0.7710 -0.1801 -0.2229
  906MOL0     O22206   5.032  10.706  11.678  0.2594 -0.2853  0.0244
  906MOL0     C22207   5.131  10.662  11.765 -0.3492 -0.6337 -0.7732
  906MOL0     C22208   5.104  10.629  11.901 -0.1820 -0.5388 -0.2741
  906MOL0     C22209   5.212  10.600  11.987  0.4759  0.3502  0.1300
  906MOL0     C22210   5.352  10.599  11.951 -0.3886  0.2813  0.2145
  906MOL0     O22211   5.452  10.571  12.042 -0.7704 -0.2817  0.3012
  906MOL0     C22212   5.581  10.623  12.015  0.6557 -0.5438  0.4222
  906MOL0     C22213   5.676  10.591  12.140 -0.6055  0.0578 -0.7269
  906MOL0     C22214   5.802  10.670  12.146 -0.2498 -0.7331  0.5935
  906MOL0     C22215   5.865  10.652  12.281  1.0575  0.7522 -0.3956
  906MOL0     C22216   5.983  10.749  12.305 -0.2650  0.5001  0.9645
  906MOL0     C22217   6.035  10.734  12.447 -0.1796  0.4039 -0.8297
  906MOL0     C22218   6.192  10.773  12.450  0.4441 -0.6512  0.7961
  906MOL0     C22219   6.251  10.753  12.584  0.3463  0.2477 -0.5524
  906MOL0    Cl22220   6.427  10.803  12.593  0.8439  0.4583  0.1665
  906MOL0     C22221   5.370  10.612  11.812 -0.2167  0.3630  0.4364
  906MOL0     C22222   5.268  10.650  11.721  0.7097 -0.3696  0.2932
  906MOL0     O22223   4.928  10.492  11.683  0.7088 -0.2722  0.4248
  906MOL0     C22224   4.802  10.807  11.583  0.3806  0.5118  0.5369
  906MOL0     C22225   4.700  10.872  11.504 -0.9729  0.0375  0.0156
  906MOL0     N22226   4.363  11.294  11.138  0.4144 -0.2110  1.1151
  906MOL0     N22227   4.451  11.373  11.081  0.7452  1.0243 -0.1446
  906MOL0     C22228   5.304  11.119  10.451  0.9109 -0.4942  0.9531
  906MOL0     C22229   5.382  11.001  10.434  0.5399 -0.2573 -0.0055
  906MOL0     C22230   5.497  10.590  10.406 -0.4044  0.1859 -0.1517
  906MOL0     C22231   5.494  10.485  10.503 -0.0911  0.0115  0.0760
  906MOL0     C22232   5.581  10.372  10.484 -0.1301  1.2998  0.1705
  906MOL0     C22233   5.662  10.347  10.367  0.3487 -0.1833  0.1308
  906MOL0     O22234   5.738  10.233  10.356 -0.3416  0.5260 -0.4515
  906MOL0     C22235   5.698  10.113  10.428 -0.3403 -0.0098 -0.0553
  906MOL0     C22236   5.793   9.991  10.412  0.0394 -0.3260 -0.4517
  906MOL0     C22237   5.921  10.027  10.497  0.8049 -0.5687  0.5470
  906MOL0     C22238   6.032   9.928  10.475  0.1633  0.1120 -0.3665
  906MOL0     C22239   6.152   9.981  10.545  0.1889  0.3084  0.1394
  906MOL0     C22240   6.227  10.042  10.607  0.1733  0.4615 -0.2644
  906MOL0     C22241   5.666  10.460  10.278 -1.2803 -0.3079 -0.4954
  906MOL0     C22242   5.580  10.570  10.295  0.7650 -0.7920 -0.3248
  906MOL0     H22243   5.201  10.896  10.162 -0.8363  0.9539 -0.1673
  906MOL0     H22244   5.092  11.094  10.197 -0.4867  0.2097 -0.8953
  906MOL0     H22245   5.164  11.313  10.582  3.8600 -0.5327 -1.8302
  906MOL0     H22246   5.177  11.425  10.456 -1.3832  2.1777 -0.3716
  906MOL0     H22247   4.979  11.497  10.565  3.0318  0.7511 -2.4195
  906MOL0     H22248   4.923  11.428  10.422  0.8894 -0.0085 -0.2896
  906MOL0     H22249   4.816  11.397  10.650  3.3693  0.1130  2.3564
  906MOL0     H22250   4.804  11.247  10.548  3.9207 -4.9064  0.5743
  906MOL0     H22251   4.998  11.148  10.655  0.0546 -0.2121 -0.1941
  906MOL0     H22252   4.997  11.281  10.774 -0.3999  0.6977  0.1693
  906MOL0     H22253   4.787  11.066  10.698 -1.2592 -0.0319  0.0549
  906MOL0     H22254   4.885  11.072  10.844  0.3542 -0.7057 -0.7221
  906MOL0     H22255   4.671  11.290  10.777 -2.8698 -1.3865 -0.3835
  906MOL0     H22256   4.639  11.153  10.888 -1.3293  1.6859 -0.5130
  906MOL0     H22257   4.814  11.207  11.042 -1.2567  2.1781  2.0473
  906MOL0     H22258   4.868  11.337  10.944  1.5639 -2.9952 -1.7318
  906MOL0     H22259   4.656  11.459  10.946  2.1269  0.6303  0.6699
  906MOL0     H22260   4.725  11.437  11.101  0.1915  0.3090 -1.1644
  906MOL0     H22261   4.647  11.126  11.166  1.0959 -0.0829 -1.7131
  906MOL0     H22262   4.401  11.046  11.350 -0.0609  0.9557 -1.0227
  906MOL0     H22263   4.253  11.127  11.296 -0.2097  1.7112 -1.0361
  906MOL0     H22264   4.289  11.029  11.061 -3.8593 -2.4904 -0.0164
  906MOL0     H22265   4.228  10.913  11.181 -0.4641 -0.5617 -0.3535
  906MOL0     H22266   4.508  10.945  11.081 -0.2373 -0.2585  1.4915
  906MOL0     H22267   4.403  10.817  11.032  2.7309 -3.6968  0.8725
  906MOL0     H22268   4.535  10.717  11.184  0.7278 -0.4263  2.0289
  906MOL0     H22269   4.397  10.761  11.287 -1.3062  2.7387  1.4976
  906MOL0     H22270   4.587  10.602  11.345  0.3355 -1.5921  2.1303
  906MOL0     H22271   4.701  10.403  11.374 -3.7255  3.0963 -0.1215
  906MOL0     H22272   4.857  10.426  11.454  0.0297  3.5144  0.2150
  906MOL0     H22273   4.731  10.388  11.553  1.6614 -0.5478  0.2856
  906MOL0     H22274   5.001  10.628  11.935  0.0158  2.7127  0.8304
  906MOL0     H22275   5.185  10.576  12.089  0.7478  2.3412  0.7138
  906MOL0     H22276   5.623  10.570  11.928 -0.3152  1.4115 -1.3209
  906MOL0     H22277   5.567  10.728  11.987 -3.1853 -1.2201 -0.8270
  906MOL0     H22278   5.624  10.589  12.236 -0.1100 -2.2619 -0.4456
  906MOL0     H22279   5.693  10.484  12.129 -0.4074 -0.3294  2.4944
  906MOL0     H22280   5.779  10.776  12.133  1.9064 -0.4063 -1.1492
  906MOL0     H22281   5.878  10.642  12.072 -0.6945  3.0337 -1.5657
  906MOL0     H22282   5.792  10.629  12.359 -0.0037 -4.5416 -2.5182
  906MOL0     H22283   5.901  10.548  12.279  0.9669  0.7273 -0.9590
  906MOL0     H22284   5.956  10.853  12.283  2.2589  2.1748  4.6214
  906MOL0     H22285   6.059  10.722  12.232 -0.7782  2.7924 -0.5272
  906MOL0     H22286   5.976  10.789  12.522 -0.7956  3.3195 -3.2532
  906MOL0     H22287   6.034  10.630  12.479 -1.1022  0.6615  0.0547
  906MOL0     H22288   6.199  10.880  12.427  0.5747 -0.5943  1.0945
  906MOL0     H22289   6.244  10.724  12.368  0.9626  0.1464  0.6416
  906MOL0     H22290   6.244  10.647  12.607  2.0652  0.3730  0.7256
  906MOL0     H22291   6.197  10.794  12.670 -0.5914 -3.0172  0.5388
  906MOL0     H22292   5.472  10.617  11.775  0.2037  0.3713  1.5326
  906MOL0     H22293   5.298  10.662  11.617  0.0587 -0.6140  0.0756
  906MOL0     H22294   4.852  10.865  11.660  0.3573 -0.2539  1.1464
  906MOL0     H22295   4.698  10.978  11.527  1.0006 -0.1601  1.3756
  906MOL0     H22296   5.347  11.179  10.531  0.9408 -1.5059  1.7193
  906MOL0     H22297   5.464  10.988  10.505 -0.7496 -0.5956  1.4858
  906MOL0     H22298   5.432  10.497  10.592 -0.1960  1.6630 -0.2041
  906MOL0     H22299   5.566  10.305  10.568 -0.3477  1.8966  0.6140
  906MOL0     H22300   5.695  10.143  10.533 -0.4629 -0.2255  0.0045
  906MOL0     H22301   5.596  10.085  10.398 -0.2924 -2.8557  2.0928
  906MOL0     H22302   5.811   9.961  10.308 -1.7583 -0.3959 -0.7689
  906MOL0     H22303   5.736   9.915  10.465 -0.3021 -0.6320 -1.2394
  906MOL0     H22304   5.888  10.030  10.602 -0.4904 -2.9294  0.2679
  906MOL0     H22305   5.954  10.129  10.474 -0.4151 -0.6956 -2.1781
  906MOL0     H22306   6.061   9.925  10.369  0.4500 -0.8185 -0.2702
  906MOL0     H22307   5.999   9.826  10.498  1.1387 -0.0116  0.5212
  906MOL0     H22308   6.289  10.113  10.658  2.3778 -0.9538 -0.8359
  906MOL0     H22309   5.724  10.460  10.186 -2.5217 -1.0866 -1.3275
  906MOL0     H22310   5.573  10.638  10.211 -2.9987 -2.0504 -1.2451
  907MOL0     O22311   8.912   8.265   5.266  0.6472  0.7251 -0.3441
  907MOL0     C22312   9.021   8.308   5.232 -0.2283  0.1199  0.3205
  907MOL0     O22313   9.120   8.231   5.183 -0.4784  0.5707  0.1824
  907MOL0     C22314   9.125   8.091   5.205 -0.7595  0.3781  0.4426
  907MOL0     C22315   9.239   8.042   5.132  0.4440  0.3689 -0.3794
  907MOL0     C22316   9.278   7.908   5.153  0.8094  0.1285  0.3377
  907MOL0     C22317   9.194   7.817   5.213  0.3236  0.9283  0.0112
  907MOL0     O22318   9.217   7.685   5.196  0.4883 -0.3673 -0.0417
  907MOL0     C22319   9.104   7.605   5.148 -0.0395 -0.2454 -0.7322
  907MOL0     C22320   9.158   7.476   5.084  0.0568 -0.8604  0.1010
  907MOL0     C22321   9.214   7.387   5.185 -0.9808  0.4228  0.0601
  907MOL0     C22322   9.227   7.236   5.132 -0.3137  0.3133  0.3960
  907MOL0     C22323   9.319   7.152   5.215  0.4119  0.4038 -0.2692
  907MOL0     C22324   9.314   7.006   5.176  0.3674  0.6671 -0.3112
  907MOL0     C22325   9.173   6.942   5.171 -0.5767 -0.6595  0.7387
  907MOL0     C22326   9.158   6.818   5.260 -0.7840 -0.2403 -0.2878
  907MOL0     N22327   9.030   6.757   5.243 -0.5135  0.2432  0.3317
  907MOL0     C22328   9.004   6.632   5.196  0.3861  0.2596 -0.3694
  907MOL0     C22329   8.872   6.635   5.176  0.1574  0.5224 -0.1927
  907MOL0     C22330   8.787   6.532   5.117 -0.4466 -0.5764  0.1047
  907MOL0     C22331   8.715   6.443   5.220 -0.2593 -0.1637 -0.4665
  907MOL0     C22332   8.786   6.424   5.357 -0.3756  0.4686 -0.7571
  907MOL0     C22333   8.712   6.302   5.415 -0.3727  0.4304  1.5075
  907MOL0     O22334   8.573   6.311   5.436 -0.3023 -0.6317 -0.1994
  907MOL0     C22335   8.539   6.272   5.563 -0.1945  0.5457  0.0389
  907MOL0     C22336   8.501   6.366   5.655  0.6297  0.6905  0.3912
  907MOL0     C22337   8.459   6.323   5.782 -0.0649  0.2177  0.0476
  907MOL0     C22338   8.433   6.434   5.880 -0.9963  0.2417 -0.4915
  907MOL0     C22339   8.444   6.182   5.805 -0.2920  0.4718  0.3345
  907MOL0     C22340   8.381   6.134   5.925  0.3676  0.5080  0.7973
  907MOL0     O22341   8.328   6.010   5.912 -0.4948  0.1266  0.1084
  907MOL0     C22342   8.298   5.949   6.031  0.1633 -0.1216  0.4086
  907MOL0     C22343   8.387   5.914   6.131 -0.2473 -0.1520 -1.0462
  907MOL0     C22344   8.354   5.826   6.238 -0.2092  0.1369  0.7802
  907MOL0     C22345   8.226   5.771   6.249 -0.1324 -0.0530 -0.5183
  907MOL0     O22346   8.192   5.730   6.368 -1.3317  0.7073  0.0155
  907MOL0     C22347   8.273   5.625   6.429  0.7127 -0.4174  0.1686
  907MOL0     C22348   8.180   5.514   6.483 -0.0668 -0.4565  0.2008
  907MOL0     C22349   8.270   5.397   6.538  0.0548 -0.3114 -0.8246
  907MOL0     C22350   8.167   5.311   6.624 -0.6314  0.0556  1.3458
  907MOL0     C22351   8.240   5.187   6.664  0.0172  0.6398 -0.0598
  907MOL0     C22352   8.227   5.081   6.555 -0.2309  0.5081 -0.9472
  907MOL0     C22353   8.085   5.019   6.573 -0.4857 -0.5657 -0.0149
  907MOL0     C22354   8.088   4.891   6.491  0.2020  1.1260  0.8480
  907MOL0    Cl22355   8.191   4.760   6.563 -0.3781  0.0963 -0.4166
  907MOL0     C22356   8.133   5.821   6.160  0.8499 -0.4946  0.2038
  907MOL0     C22357   8.167   5.897   6.047  0.6172  0.5391 -0.9145
  907MOL0     O22358   8.371   6.196   6.030  0.2656  0.4367  0.2361
  907MOL0     C22359   8.484   6.091   5.710  0.5227 -0.1832 -0.6730
  907MOL0     C22360   8.530   6.133   5.585  0.9025 -0.3866 -0.8310
  907MOL0     N22361   8.813   6.757   5.222 -0.4358 -0.0658 -0.3783
  907MOL0     N22362   8.914   6.830   5.258  0.5479 -0.3775 -0.2718
  907MOL0     C22363   9.080   7.863   5.285  0.1179  0.1449 -0.2213
  907MOL0     C22364   9.048   8.004   5.288 -0.0722  0.8455 -0.7211
  907MOL0     C22365   9.047   8.446   5.201  0.2221 -0.4808 -0.4290
  907MOL0     C22366   9.160   8.493   5.122 -0.0342  0.0714  0.4660
  907MOL0     C22367   9.197   8.627   5.115  0.2638  0.0479 -0.0242
  907MOL0     C22368   9.115   8.726   5.174 -0.7694 -0.2294 -0.0305
  907MOL0     O22369   9.129   8.863   5.148  0.5423  0.1105 -1.3820
  907MOL0     C22370   9.228   8.905   5.054  0.1264 -0.3285 -0.2760
  907MOL0     C22371   9.216   9.058   5.021 -0.8462 -0.3817 -0.4132
  907MOL0     C22372   9.325   9.093   4.912 -0.0216 -0.7586  0.4000
  907MOL0     C22373   9.325   9.246   4.889  0.7070 -0.2613 -0.0513
  907MOL0     C22374   9.464   9.291   4.836  0.2021  0.0313 -1.3586
  907MOL0     C22375   9.573   9.309   4.783  0.9155 -0.3482  0.1143
  907MOL0     C22376   9.008   8.681   5.251 -0.6448  0.1464 -0.0461
  907MOL0     C22377   8.969   8.542   5.264  0.2663  0.5232  0.8865
  907MOL0     H22378   9.305   8.103   5.071  0.2371 -0.3896 -1.3813
  907MOL0     H22379   9.367   7.863   5.112 -0.9224 -2.7633 -0.6050
  907MOL0     H22380   9.035   7.590   5.232 -2.9973  1.8437 -2.5581
  907MOL0     H22381   9.046   7.663   5.076  0.6228 -0.8248 -1.7511
  907MOL0     H22382   9.087   7.428   5.017 -0.2273 -0.3119  0.0068
  907MOL0     H22383   9.237   7.499   5.012  2.1325 -1.1925  2.1487
  907MOL0     H22384   9.319   7.413   5.203 -0.9004 -0.3045  0.7128
  907MOL0     H22385   9.157   7.395   5.278  0.4555  0.5992  0.9653
  907MOL0     H22386   9.124   7.198   5.135 -0.2357  0.0612 -0.0942
  907MOL0     H22387   9.255   7.222   5.027  0.7589 -1.4875  0.8944
  907MOL0     H22388   9.426   7.178   5.211  1.3982 -3.1336 -0.3916
  907MOL0     H22389   9.279   7.169   5.315 -3.4372 -0.2321 -1.5290
  907MOL0     H22390   9.348   7.005   5.072  2.3078 -0.8289  0.2807
  907MOL0     H22391   9.385   6.951   5.239 -1.0186 -0.7214  0.0932
  907MOL0     H22392   9.103   7.011   5.219 -0.3900 -0.6710  1.0336
  907MOL0     H22393   9.152   6.928   5.065  0.3332  2.0408  0.1115
  907MOL0     H22394   9.166   6.849   5.365 -2.9598  2.5176 -0.8276
  907MOL0     H22395   9.240   6.749   5.236 -0.0811  1.0735 -1.9086
  907MOL0     H22396   9.086   6.562   5.187  2.2471  2.0484  1.3196
  907MOL0     H22397   8.708   6.583   5.061 -0.0492 -1.0185 -0.8801
  907MOL0     H22398   8.849   6.479   5.045 -1.8970 -0.8864 -0.9727
  907MOL0     H22399   8.689   6.348   5.173 -0.0032 -0.5843  0.2381
  907MOL0     H22400   8.616   6.488   5.236  0.0553  0.4416 -0.1820
  907MOL0     H22401   8.782   6.517   5.414  3.5517  0.6661 -0.5119
  907MOL0     H22402   8.892   6.398   5.353 -0.3737  0.5909 -1.6567
  907MOL0     H22403   8.762   6.269   5.507 -1.2150 -0.3679  1.7001
  907MOL0     H22404   8.737   6.216   5.353  2.9335  3.7535 -2.3280
  907MOL0     H22405   8.512   6.471   5.632 -1.7678  1.4465  2.2601
  907MOL0     H22406   8.471   6.534   5.855 -1.1205  1.0138  2.1591
  907MOL0     H22407   8.324   6.432   5.893 -1.1865  0.9274 -1.7749
  907MOL0     H22408   8.479   6.402   5.974 -0.8373  0.0875 -0.6215
  907MOL0     H22409   8.484   5.961   6.137  1.3133 -3.1224 -1.4445
  907MOL0     H22410   8.427   5.806   6.316 -0.9423  1.7102  1.9304
  907MOL0     H22411   8.344   5.576   6.362  0.0236 -0.3014 -0.6511
  907MOL0     H22412   8.325   5.661   6.519 -4.3898  1.5833  2.7454
  907MOL0     H22413   8.132   5.559   6.570  0.6476 -0.6013  0.6822
  907MOL0     H22414   8.110   5.479   6.407 -0.3965 -0.4177  0.4856
  907MOL0     H22415   8.354   5.441   6.592  0.4825  1.2871 -2.6500
  907MOL0     H22416   8.316   5.346   6.453  0.5886  1.6734 -1.7935
  907MOL0     H22417   8.139   5.351   6.722 -1.5864 -0.7298  1.4073
  907MOL0     H22418   8.074   5.301   6.568  0.3366  0.6886 -0.4746
  907MOL0     H22419   8.203   5.144   6.758  2.4513 -0.2003  0.5891
  907MOL0     H22420   8.343   5.209   6.693 -0.4912  1.5752  1.1052
  907MOL0     H22421   8.252   5.115   6.454 -3.9367 -2.3182 -3.0716
  907MOL0     H22422   8.300   5.004   6.581 -3.7961 -2.6244  0.7937
  907MOL0     H22423   8.011   5.084   6.525  1.4664 -1.0444 -4.0917
  907MOL0     H22424   8.062   4.994   6.677 -0.8046 -2.1121 -0.4241
  907MOL0     H22425   8.121   4.909   6.388 -1.4131 -2.1276 -0.3925
  907MOL0     H22426   7.987   4.849   6.492  0.8961 -0.5756  1.7157
  907MOL0     H22427   8.027   5.799   6.163  0.4249 -0.0374 -4.2774
  907MOL0     H22428   8.094   5.934   5.975 -1.9404  0.8209  1.6238
  907MOL0     H22429   8.477   5.984   5.728  1.9341 -0.3916 -1.1699
  907MOL0     H22430   8.553   6.057   5.510 -1.2958 -1.4831 -0.4699
  907MOL0     H22431   9.027   7.783   5.336  3.2131 -0.2905  2.7149
  907MOL0     H22432   8.960   8.044   5.337  0.9622  0.5309  1.4964
  907MOL0     H22433   9.208   8.411   5.068 -0.8689  0.8187 -1.5182
  907MOL0     H22434   9.285   8.660   5.063  1.0504 -2.2003 -0.2259
  907MOL0     H22435   9.332   8.887   5.086  1.8746  0.9846 -4.5272
  907MOL0     H22436   9.213   8.852   4.960 -1.2702 -2.4925  1.0711
  907MOL0     H22437   9.237   9.113   5.113 -0.6832 -0.1244 -0.6042
  907MOL0     H22438   9.117   9.082   4.982 -0.8621 -1.0237 -0.7837
  907MOL0     H22439   9.299   9.034   4.824  1.1891 -0.5019 -0.1542
  907MOL0     H22440   9.421   9.047   4.938  2.4200 -0.4374 -6.1338
  907MOL0     H22441   9.288   9.288   4.983  0.7366  1.0677 -0.6002
  907MOL0     H22442   9.258   9.273   4.807  2.0468  0.6717 -0.8962
  907MOL0     H22443   9.667   9.339   4.742  0.9936  0.9446  1.1754
  907MOL0     H22444   8.944   8.764   5.280  3.8376  4.7627 -1.9172
  907MOL0     H22445   8.873   8.524   5.311 -0.3173 -1.5718 -0.9207
  908MOL0     O22446   6.132   8.755   0.839  0.0776  0.7317  0.6076
  908MOL0     C22447   6.147   8.743   0.718  0.5924 -0.6673  0.4947
  908MOL0     O22448   6.061   8.674   0.633  0.0486 -0.3465  0.6028
  908MOL0     C22449   5.932   8.634   0.674 -0.7258  0.4408 -1.0289
  908MOL0     C22450   5.861   8.699   0.777 -1.1028  0.2523  0.1854
  908MOL0     C22451   5.742   8.641   0.829  0.1234 -0.2496  0.0075
  908MOL0     C22452   5.685   8.532   0.767 -0.4306  0.7547  0.8408
  908MOL0     O22453   5.562   8.481   0.795  0.3807 -0.3345 -0.8942
  908MOL0     C22454   5.486   8.558   0.901  0.8232 -0.4948  0.4861
  908MOL0     C22455   5.346   8.492   0.895  1.2895 -0.1768  0.6047
  908MOL0     C22456   5.344   8.348   0.923  0.2193  0.1296 -0.4178
  908MOL0     C22457   5.197   8.299   0.936  0.5835  0.7443 -0.7204
  908MOL0     C22458   5.191   8.153   0.961 -0.0022 -0.5636 -0.3948
  908MOL0     C22459   5.054   8.088   0.977 -0.3507 -0.3996 -0.2460
  908MOL0     C22460   4.966   8.146   1.100 -0.0297  0.1393  0.3426
  908MOL0     C22461   4.820   8.109   1.098  0.7426 -0.4662 -1.0624
  908MOL0     N22462   4.789   7.971   1.075  0.4941  0.3823 -0.0362
  908MOL0     C22463   4.788   7.902   0.955  0.5993  0.4304  0.0858
  908MOL0     C22464   4.750   7.774   0.994 -0.0732  0.9325  0.3658
  908MOL0     C22465   4.734   7.651   0.903 -0.2434  0.8338  0.2743
  908MOL0     C22466   4.844   7.650   0.792  0.3804  0.2028  0.1653
  908MOL0     C22467   4.850   7.510   0.722 -0.9589  0.8086  0.2901
  908MOL0     C22468   4.892   7.393   0.808  0.4269 -0.1600 -0.4111
  908MOL0     O22469   5.027   7.413   0.846 -0.4506 -0.4310  0.0585
  908MOL0     C22470   5.127   7.367   0.757 -0.4992 -0.2202  0.1864
  908MOL0     C22471   5.140   7.231   0.732 -0.3990 -0.7600 -0.1687
  908MOL0     C22472   5.248   7.184   0.646  0.0652 -0.4805  0.5419
  908MOL0     C22473   5.251   7.030   0.637 -1.1215  0.4318 -0.2420
  908MOL0     C22474   5.334   7.272   0.576 -0.6633  0.1735 -0.2517
  908MOL0     C22475   5.445   7.229   0.483 -0.1671  0.0206  0.6317
  908MOL0     O22476   5.524   7.321   0.431  0.1448 -0.0581  0.2594
  908MOL0     C22477   5.584   7.306   0.312 -0.5675 -0.1617 -0.1847
  908MOL0     C22478   5.529   7.248   0.202  0.5286 -0.0206  0.5469
  908MOL0     C22479   5.607   7.228   0.087 -0.3027 -0.5036  0.3536
  908MOL0     C22480   5.736   7.280   0.067  0.5051 -0.1740 -0.6875
  908MOL0     O22481   5.818   7.281  -0.043 -0.2255  0.0547 -0.2986
  908MOL0     C22482   5.783   7.206  -0.162 -0.1916  0.3779 -0.3230
  908MOL0     C22483   5.899   7.201  -0.252 -0.3234  0.2154 -1.2314
  908MOL0     C22484   5.998   7.095  -0.197  1.4486 -1.0627 -0.8566
  908MOL0     C22485   6.129   7.121  -0.263  0.7919 -0.1347  0.2538
  908MOL0     C22486   6.222   7.236  -0.193  0.4933 -0.2892  0.4942
  908MOL0     C22487   6.367   7.181  -0.170  0.7252  0.5288  0.7884
  908MOL0     C22488   6.368   7.077  -0.065 -0.3964  0.2665  0.0970
  908MOL0     C22489   6.475   6.980  -0.069 -0.5782  1.1838 -0.3200
  908MOL0    Cl22490   6.624   7.066  -0.016  0.3068 -0.1097  0.6420
  908MOL0     C22491   5.788   7.355   0.176  0.8301  0.0688  0.8782
  908MOL0     C22492   5.714   7.355   0.301 -1.0237 -0.1766  0.6647
  908MOL0     O22493   5.452   7.111   0.462 -0.3945 -0.0327  0.3289
  908MOL0     C22494   5.315   7.412   0.607 -0.2173  0.0500  0.4922
  908MOL0     C22495   5.218   7.455   0.696 -0.5308 -0.1178 -0.3526
  908MOL0     N22496   4.736   7.776   1.129  0.4541 -0.7390  0.5787
  908MOL0     N22497   4.751   7.893   1.177  0.0735  0.1554  0.2003
  908MOL0     C22498   5.751   8.476   0.660 -0.3819 -0.7491  0.1472
  908MOL0     C22499   5.873   8.525   0.617 -0.0844 -0.2193  0.5706
  908MOL0     C22500   6.271   8.772   0.648  0.7694  0.2578  0.1981
  908MOL0     C22501   6.369   8.845   0.725 -0.0734 -0.2787 -1.0358
  908MOL0     C22502   6.485   8.891   0.661 -0.8083 -0.1758  0.1449
  908MOL0     C22503   6.503   8.877   0.525 -1.0314  0.2104 -0.7637
  908MOL0     O22504   6.610   8.928   0.459  0.4494 -0.0545  0.3990
  908MOL0     C22505   6.737   8.907   0.519  0.2736  0.1689 -0.1218
  908MOL0     C22506   6.782   8.756   0.521  0.2987  0.6194 -0.4589
  908MOL0     C22507   6.778   8.682   0.384 -0.3309  0.5928 -0.9398
  908MOL0     C22508   6.858   8.549   0.383 -0.8591 -0.4889  0.0488
  908MOL0     C22509   6.782   8.428   0.384 -0.2189  0.2862 -0.4308
  908MOL0     C22510   6.711   8.330   0.387  0.6952  0.2016  0.9945
  908MOL0     C22511   6.412   8.800   0.452 -0.2268 -1.0244  0.0624
  908MOL0     C22512   6.290   8.754   0.509 -0.5248  0.1537  0.5408
  908MOL0     H22513   5.888   8.794   0.820  0.9363  1.1755 -2.8360
  908MOL0     H22514   5.685   8.681   0.911 -2.3847  0.3320 -1.8987
  908MOL0     H22515   5.509   8.541   1.007  0.4638 -0.8553  0.5099
  908MOL0     H22516   5.486   8.666   0.887  1.4115 -0.4015  1.1760
  908MOL0     H22517   5.274   8.537   0.964  0.5081 -0.6131  0.0845
  908MOL0     H22518   5.298   8.504   0.798 -0.6308 -0.3065  1.5046
  908MOL0     H22519   5.401   8.283   0.855  0.8395 -0.9094  1.0282
  908MOL0     H22520   5.392   8.331   1.020 -2.0479  2.6307  1.2510
  908MOL0     H22521   5.145   8.363   1.007 -2.7681 -1.7076 -0.7298
  908MOL0     H22522   5.151   8.308   0.837 -2.8679 -0.7446  0.6097
  908MOL0     H22523   5.252   8.109   0.881  1.0558  3.6758 -2.1862
  908MOL0     H22524   5.254   8.142   1.050  0.4626 -1.8790 -0.8613
  908MOL0     H22525   4.998   8.102   0.884  0.5918 -2.7533 -1.2321
  908MOL0     H22526   5.067   7.980   0.989  1.3214 -0.5327 -2.6105
  908MOL0     H22527   5.010   8.098   1.188 -0.7776 -3.2746 -0.9826
  908MOL0     H22528   4.970   8.255   1.110  1.0034  0.0608  0.9261
  908MOL0     H22529   4.779   8.175   1.022  0.9447 -0.2061 -0.9447
  908MOL0     H22530   4.759   8.137   1.184 -0.4658  1.0107 -2.3395
  908MOL0     H22531   4.818   7.930   0.855  4.3514  1.3194  1.2848
  908MOL0     H22532   4.737   7.564   0.969  0.3809  0.4672 -0.2348
  908MOL0     H22533   4.635   7.662   0.856 -0.0752 -1.0544 -0.5848
  908MOL0     H22534   4.942   7.677   0.834  0.4257  2.1165 -1.0670
  908MOL0     H22535   4.813   7.725   0.719 -3.6608  1.5746  2.9817
  908MOL0     H22536   4.923   7.517   0.640  0.9129 -4.8821  1.0272
  908MOL0     H22537   4.754   7.493   0.672 -0.8079 -0.0097  0.2561
  908MOL0     H22538   4.876   7.299   0.755  3.8920  0.5183 -3.0142
  908MOL0     H22539   4.839   7.390   0.904  0.3035 -0.3767 -0.4853
  908MOL0     H22540   5.083   7.153   0.780 -0.3934 -0.0144  1.1093
  908MOL0     H22541   5.212   6.979   0.549  1.7361  1.1265 -2.0263
  908MOL0     H22542   5.359   7.012   0.635  0.4204  7.1712 -2.3355
  908MOL0     H22543   5.210   6.983   0.727  0.8283  1.1101  1.0685
  908MOL0     H22544   5.425   7.215   0.207  0.9347 -1.6493 -0.7175
  908MOL0     H22545   5.560   7.168   0.009 -0.5234 -1.3093  1.0848
  908MOL0     H22546   5.744   7.107  -0.135 -0.9473  0.5436 -0.8033
  908MOL0     H22547   5.707   7.247  -0.228  0.5762 -0.8482 -2.0311
  908MOL0     H22548   5.859   7.171  -0.349 -1.8105 -0.7858 -0.3633
  908MOL0     H22549   5.949   7.298  -0.246 -1.1337  0.5774  0.2349
  908MOL0     H22550   5.966   6.993  -0.224  0.5275 -0.8333 -0.6696
  908MOL0     H22551   6.015   7.102  -0.090  2.9370  1.1499 -1.1788
  908MOL0     H22552   6.182   7.025  -0.272 -2.4805 -1.9239 -2.6861
  908MOL0     H22553   6.121   7.149  -0.369  0.4490  0.2886  0.3892
  908MOL0     H22554   6.185   7.258  -0.092 -0.2842  1.5873 -0.1651
  908MOL0     H22555   6.234   7.328  -0.251  0.8622 -1.6093 -1.6332
  908MOL0     H22556   6.389   7.138  -0.268 -2.0236  2.2015 -0.7093
  908MOL0     H22557   6.438   7.260  -0.145 -1.0484  1.3452  3.7306
  908MOL0     H22558   6.273   7.023  -0.055 -1.1454  1.5320 -0.0742
  908MOL0     H22559   6.367   7.123   0.035  0.3609  0.3244  0.0804
  908MOL0     H22560   6.483   6.952  -0.174  2.5603  0.8360 -0.0983
  908MOL0     H22561   6.457   6.892  -0.005 -0.7938 -1.1886 -3.3908
  908MOL0     H22562   5.877   7.417   0.169  0.2022  1.2201  2.6099
  908MOL0     H22563   5.772   7.388   0.387 -0.0105  4.3069 -1.4266
  908MOL0     H22564   5.375   7.492   0.564 -0.6341 -0.6758 -1.5366
  908MOL0     H22565   5.215   7.561   0.719 -1.0365 -0.4492  1.2335
  908MOL0     H22566   5.693   8.396   0.616 -0.0371 -2.5810  2.8071
  908MOL0     H22567   5.920   8.472   0.535 -3.3637  1.7284 -2.8811
  908MOL0     H22568   6.348   8.868   0.829 -0.4664  0.2377 -1.2244
  908MOL0     H22569   6.547   8.960   0.717  1.9203 -1.8696 -0.5656
  908MOL0     H22570   6.803   8.971   0.459 -1.8478  2.1924 -0.4126
  908MOL0     H22571   6.744   8.949   0.620  1.2029 -0.8631  0.2649
  908MOL0     H22572   6.734   8.688   0.592  3.8841 -1.6249  0.0388
  908MOL0     H22573   6.883   8.756   0.563  0.9507 -4.2503 -1.4487
  908MOL0     H22574   6.815   8.750   0.306 -1.0814 -0.4310 -2.2349
  908MOL0     H22575   6.676   8.648   0.360  0.2840 -3.7983  1.5979
  908MOL0     H22576   6.902   8.528   0.480 -2.5861  0.0383  0.9901
  908MOL0     H22577   6.934   8.534   0.305 -0.2767 -0.0237  0.5244
  908MOL0     H22578   6.649   8.242   0.386 -1.4390  1.3144  5.6767
  908MOL0     H22579   6.433   8.798   0.346 -1.4191 -1.6357 -0.1762
  908MOL0     H22580   6.221   8.697   0.449  2.0467 -2.6813  0.0261
  909MOL0     O22581   3.230   8.369   7.705 -0.1377 -0.1492  0.6044
  909MOL0     C22582   3.294   8.469   7.686 -0.2752  0.0024  0.1332
  909MOL0     O22583   3.246   8.592   7.655  0.1497  0.0274  0.2069
  909MOL0     C22584   3.107   8.605   7.658 -0.0472 -0.4750 -0.7797
  909MOL0     C22585   3.031   8.557   7.551  0.1510 -0.8814 -0.0998
  909MOL0     C22586   2.897   8.549   7.569  0.9084  0.5596  0.3019
  909MOL0     C22587   2.827   8.587   7.682 -0.6669  0.0387 -0.2721
  909MOL0     O22588   2.690   8.578   7.689 -0.0030 -0.4848 -0.0925
  909MOL0     C22589   2.616   8.614   7.570 -0.5199  0.1886 -0.3831
  909MOL0     C22590   2.600   8.759   7.538  0.3408 -0.3305  0.2117
  909MOL0     C22591   2.702   8.811   7.429  0.6610 -0.5989 -0.6196
  909MOL0     C22592   2.808   8.908   7.486 -0.8540  0.5269  0.8603
  909MOL0     C22593   2.892   8.934   7.363  0.1933 -0.7309 -0.1631
  909MOL0     C22594   3.003   9.044   7.378 -0.9769 -0.2457 -0.5108
  909MOL0     C22595   3.124   8.990   7.450 -0.0262  0.1104 -0.0948
  909MOL0     C22596   3.236   8.935   7.367 -1.0488 -0.5843 -0.0050
  909MOL0     N22597   3.355   8.912   7.455 -0.2597 -0.2085 -0.0627
  909MOL0     C22598   3.356   8.934   7.590 -0.4247  0.3679  0.1867
  909MOL0     C22599   3.480   8.893   7.625 -0.3316 -0.0234 -0.0382
  909MOL0     C22600   3.555   8.914   7.760 -0.1246  0.0331  0.9188
  909MOL0     C22601   3.470   8.947   7.880 -0.1430  0.8672 -0.5353
  909MOL0     C22602   3.370   8.829   7.919 -1.0254 -0.2526  0.2058
  909MOL0     C22603   3.312   8.856   8.059 -0.0243 -0.5589 -0.0327
  909MOL0     O22604   3.207   8.763   8.092 -0.5018  0.0263 -0.3184
  909MOL0     C22605   3.119   8.779   8.199  0.2128  0.2231  0.1365
  909MOL0     C22606   2.979   8.758   8.174  0.4453  0.5196 -0.3459
  909MOL0     C22607   2.881   8.780   8.275 -0.0408 -0.0971  0.3416
  909MOL0     C22608   2.736   8.765   8.241 -0.4249  0.3303 -0.2382
  909MOL0     C22609   2.919   8.809   8.409  0.7923 -0.2185  0.9133
  909MOL0     C22610   2.827   8.829   8.521  0.6192 -0.5254 -0.4113
  909MOL0     O22611   2.693   8.827   8.504  0.3640  0.1966 -0.4755
  909MOL0     C22612   2.624   8.814   8.619 -0.8662  0.7160 -0.0440
  909MOL0     C22613   2.570   8.682   8.645 -0.1691 -0.5439 -0.3219
  909MOL0     C22614   2.501   8.665   8.766  0.5719  0.0137  0.0993
  909MOL0     C22615   2.486   8.768   8.857 -0.7980  0.0128  0.3591
  909MOL0     O22616   2.411   8.759   8.973 -0.0539  0.3647  0.1722
  909MOL0     C22617   2.455   8.653   9.053 -0.2351 -0.4065 -0.0875
  909MOL0     C22618   2.404   8.669   9.191 -0.0409 -0.0797  0.5771
  909MOL0     C22619   2.459   8.551   9.269  0.5297  0.7543  0.3150
  909MOL0     C22620   2.364   8.508   9.375 -0.8562  0.0783 -0.4880
  909MOL0     C22621   2.399   8.388   9.466  0.5223 -0.1639  0.2505
  909MOL0     C22622   2.289   8.356   9.572 -0.0501  0.2097 -0.3080
  909MOL0     C22623   2.328   8.240   9.671  0.4823 -0.6528 -0.2621
  909MOL0     C22624   2.220   8.161   9.738 -0.5845  0.1071  0.2557
  909MOL0    Cl22625   2.136   8.264   9.853  0.2419 -0.0099 -0.5836
  909MOL0     C22626   2.525   8.901   8.815 -0.0554  0.2349  0.3056
  909MOL0     C22627   2.594   8.926   8.693 -0.7868 -0.2169  0.1784
  909MOL0     O22628   2.889   8.845   8.628 -0.3354 -0.6033  0.7411
  909MOL0     C22629   3.056   8.818   8.428 -0.1599  0.7159 -0.3270
  909MOL0     C22630   3.153   8.798   8.323  0.5614 -1.4830 -0.6149
  909MOL0     N22631   3.553   8.848   7.516  0.8518  0.7561  0.4498
  909MOL0     N22632   3.476   8.859   7.412 -0.8566  0.0412  0.8329
  909MOL0     C22633   2.905   8.644   7.794 -0.2987 -0.0841 -0.4207
  909MOL0     C22634   3.045   8.646   7.780 -0.3728  0.3768 -0.3176
  909MOL0     C22635   3.437   8.450   7.684  0.5094  0.7833 -0.0373
  909MOL0     C22636   3.514   8.533   7.602 -1.4271  0.7560 -0.4536
  909MOL0     C22637   3.653   8.518   7.597  0.6548 -0.1480 -0.1996
  909MOL0     C22638   3.722   8.423   7.677 -0.4542 -0.1242 -0.1091
  909MOL0     O22639   3.860   8.436   7.689 -0.2643  0.7528  0.3282
  909MOL0     C22640   3.942   8.366   7.782  0.6047  0.0014 -0.7382
  909MOL0     C22641   4.004   8.240   7.714  1.6394  0.4533  0.5107
  909MOL0     C22642   3.913   8.161   7.610  0.2979  0.4859  0.5434
  909MOL0     C22643   3.992   8.035   7.564  0.0630 -0.7313  0.4403
  909MOL0     C22644   3.905   7.928   7.523 -0.0368 -0.6290  1.0876
  909MOL0     C22645   3.839   7.844   7.484  0.4930  1.5234 -0.0807
  909MOL0     C22646   3.640   8.348   7.761 -0.0792  0.6495 -0.4109
  909MOL0     C22647   3.502   8.350   7.761  0.1971 -0.4097  0.5277
  909MOL0     H22648   3.057   8.511   7.457  0.2790  0.9970 -1.0240
  909MOL0     H22649   2.846   8.506   7.484 -1.2821  3.6757 -0.1248
  909MOL0     H22650   2.656   8.557   7.485  1.3090  0.0473  0.5334
  909MOL0     H22651   2.517   8.574   7.596  0.8475 -2.1015  1.7526
  909MOL0     H22652   2.509   8.769   7.479  0.6009  1.0313  0.0033
  909MOL0     H22653   2.610   8.821   7.628 -1.0216  0.2178  0.0064
  909MOL0     H22654   2.752   8.726   7.383 -0.2622 -1.8006  0.5232
  909MOL0     H22655   2.643   8.859   7.351  0.2251 -3.3078 -2.0649
  909MOL0     H22656   2.759   9.003   7.508 -2.3514 -0.3761  1.6015
  909MOL0     H22657   2.859   8.863   7.572 -2.1692 -3.2181 -0.1256
  909MOL0     H22658   2.933   8.844   7.317 -0.7284 -0.8424 -0.7852
  909MOL0     H22659   2.828   8.983   7.290  1.8586  0.8296 -0.6649
  909MOL0     H22660   3.040   9.083   7.283  0.8480 -0.5596  0.0454
  909MOL0     H22661   2.956   9.120   7.441  0.6171 -1.7365  2.7168
  909MOL0     H22662   3.167   9.067   7.515  2.8026 -2.6130  1.5561
  909MOL0     H22663   3.094   8.918   7.527  0.2588  0.0445 -0.0446
  909MOL0     H22664   3.269   8.999   7.285  1.3070  1.2407  2.2175
  909MOL0     H22665   3.197   8.841   7.327 -0.7929 -0.7169  0.0586
  909MOL0     H22666   3.290   8.985   7.660 -1.1425  1.0538 -0.9538
  909MOL0     H22667   3.608   8.819   7.774  1.8353  0.4442 -2.6201
  909MOL0     H22668   3.635   8.988   7.748  2.4051 -2.7585 -0.9157
  909MOL0     H22669   3.419   9.041   7.857  1.3342  2.1287  1.1428
  909MOL0     H22670   3.532   8.968   7.967 -2.2087  2.9421  0.5400
  909MOL0     H22671   3.409   8.727   7.923  0.4503  0.2790 -0.2511
  909MOL0     H22672   3.298   8.821   7.837  0.2928 -2.7524 -0.8207
  909MOL0     H22673   3.257   8.950   8.050 -2.1490 -1.9198 -2.6873
  909MOL0     H22674   3.393   8.857   8.134 -1.7636  1.3879  1.9730
  909MOL0     H22675   2.959   8.712   8.078  0.9391 -0.4066 -0.0122
  909MOL0     H22676   2.714   8.730   8.140 -1.1690 -0.5960  0.2195
  909MOL0     H22677   2.689   8.697   8.313  1.9651 -1.1150  0.0502
  909MOL0     H22678   2.682   8.860   8.240  1.6428  1.5865 -2.4557
  909MOL0     H22679   2.606   8.606   8.578  0.3363 -2.6335  2.1605
  909MOL0     H22680   2.451   8.571   8.786 -1.2483  1.1880  1.3572
  909MOL0     H22681   2.428   8.556   9.010  3.3166 -1.7803  0.4307
  909MOL0     H22682   2.563   8.646   9.071  0.2730  0.2064 -2.5251
  909MOL0     H22683   2.453   8.762   9.223  0.8350 -1.6396  4.2228
  909MOL0     H22684   2.296   8.683   9.200 -0.7373 -1.0434 -3.8786
  909MOL0     H22685   2.558   8.575   9.307  0.4619  0.8914  0.4049
  909MOL0     H22686   2.472   8.460   9.209  0.4611  1.4514 -0.7835
  909MOL0     H22687   2.328   8.593   9.435  1.4651  0.1348  0.9223
  909MOL0     H22688   2.276   8.469   9.322 -1.0141 -0.7437  0.3487
  909MOL0     H22689   2.494   8.409   9.516  1.4764 -0.2264 -1.4498
  909MOL0     H22690   2.402   8.296   9.407 -2.6877 -3.9821  5.1679
  909MOL0     H22691   2.269   8.441   9.637 -1.9730 -1.0330  0.8086
  909MOL0     H22692   2.194   8.331   9.524 -1.7619  2.7963  1.4981
  909MOL0     H22693   2.395   8.277   9.748  1.0544 -1.2309 -0.4765
  909MOL0     H22694   2.373   8.161   9.610  2.5461 -1.6644  2.4232
  909MOL0     H22695   2.259   8.082   9.803 -2.8067 -1.7122 -0.4950
  909MOL0     H22696   2.153   8.125   9.659  1.4929 -0.2403 -1.4452
  909MOL0     H22697   2.499   8.967   8.897  0.5244 -0.0221  0.7019
  909MOL0     H22698   2.638   9.024   8.676 -0.1242 -0.2479  1.5615
  909MOL0     H22699   3.093   8.838   8.528  3.0033  1.5622 -1.5426
  909MOL0     H22700   3.257   8.805   8.350 -0.2158  0.5994  2.3884
  909MOL0     H22701   2.841   8.676   7.876  1.6895  1.3375  0.6660
  909MOL0     H22702   3.109   8.675   7.863  2.5280 -1.3926 -1.7433
  909MOL0     H22703   3.470   8.604   7.532 -2.5219 -0.8715 -1.4895
  909MOL0     H22704   3.720   8.577   7.533  0.9273  0.3204  0.5073
  909MOL0     H22705   4.028   8.424   7.818  0.4101  0.9636 -1.7491
  909MOL0     H22706   3.886   8.329   7.868 -1.2156 -5.2263 -3.6965
  909MOL0     H22707   4.013   8.170   7.797 -2.9654  0.4282  1.2333
  909MOL0     H22708   4.095   8.261   7.656  1.4984  2.3166  0.8883
  909MOL0     H22709   3.893   8.213   7.516  2.0642 -0.8185 -0.6261
  909MOL0     H22710   3.831   8.123   7.672  2.5442 -2.2641  2.0678
  909MOL0     H22711   4.053   7.990   7.644 -1.0763 -3.7517 -0.2679
  909MOL0     H22712   4.064   8.058   7.485 -1.9803  1.6859 -0.8519
  909MOL0     H22713   3.776   7.763   7.454 -1.3167  1.7733  2.7626
  909MOL0     H22714   3.690   8.279   7.828 -1.6870  2.0831  2.4379
  909MOL0     H22715   3.447   8.277   7.820 -2.1573 -0.8001 -1.9070
  910MOL0     O22716   8.448   5.524   2.116  0.5114  0.4363  0.0772
  910MOL0     C22717   8.505   5.530   2.226  0.5401 -0.4015  0.3576
  910MOL0     O22718   8.433   5.538   2.347 -0.3097  0.1035 -0.1331
  910MOL0     C22719   8.293   5.565   2.338 -0.2010  0.4618  0.0661
  910MOL0     C22720   8.216   5.456   2.335  0.1178  0.0229  0.1125
  910MOL0     C22721   8.082   5.474   2.347  0.2937  0.0372 -0.2024
  910MOL0     C22722   8.020   5.595   2.336  0.6335  0.2483 -1.1933
  910MOL0     O22723   7.880   5.588   2.347 -0.4433  0.0477  0.8264
  910MOL0     C22724   7.815   5.712   2.391 -0.5054  0.7323 -0.6534
  910MOL0     C22725   7.847   5.781   2.526 -0.2619  0.2413  0.4517
  910MOL0     C22726   7.861   5.676   2.644  0.3132 -0.1380 -0.1761
  910MOL0     C22727   7.939   5.745   2.753  0.4570 -0.9278  1.3182
  910MOL0     C22728   7.941   5.660   2.885 -0.2963 -0.4772 -0.1359
  910MOL0     C22729   8.000   5.518   2.868 -0.6691  0.1760  0.0881
  910MOL0     C22730   8.025   5.446   2.997  0.0488  0.2602  0.6720
  910MOL0     C22731   7.890   5.394   3.053 -0.7863  1.1421 -0.7700
  910MOL0     N22732   7.907   5.315   3.185  0.9573 -0.5549 -0.5266
  910MOL0     C22733   7.974   5.377   3.286  0.0938  0.0808  1.1200
  910MOL0     C22734   7.973   5.283   3.379 -0.0185 -0.1558 -0.6011
  910MOL0     C22735   8.039   5.303   3.513  0.5546  0.9427  0.2879
  910MOL0     C22736   8.117   5.180   3.568 -0.1095  0.9050  0.1388
  910MOL0     C22737   8.019   5.067   3.605 -0.2260 -0.7594  0.3077
  910MOL0     C22738   8.050   5.016   3.740  0.3383  0.5846 -0.1567
  910MOL0     O22739   8.179   4.950   3.744  0.1955 -0.5039 -1.1724
  910MOL0     C22740   8.204   4.879   3.859  0.2516  0.0516  0.1541
  910MOL0     C22741   8.130   4.904   3.977  0.4212 -0.4131  0.0000
  910MOL0     C22742   8.136   4.824   4.087 -0.4763 -0.5357 -0.9457
  910MOL0     C22743   8.055   4.862   4.209 -0.0133 -0.9394 -0.2663
  910MOL0     C22744   8.236   4.717   4.089  1.2800  0.4090  0.1509
  910MOL0     C22745   8.252   4.617   4.201 -0.9188 -0.2460  0.4131
  910MOL0     O22746   8.332   4.508   4.178  0.1582 -0.3032 -0.4117
  910MOL0     C22747   8.357   4.412   4.273  0.3791  0.5073 -0.3329
  910MOL0     C22748   8.489   4.375   4.277 -0.0689  0.2990  0.5042
  910MOL0     C22749   8.523   4.274   4.361  0.6275 -0.1496 -0.2515
  910MOL0     C22750   8.432   4.193   4.435  0.2331 -0.7766 -0.5997
  910MOL0     O22751   8.477   4.092   4.512  0.8781  0.0589  0.5321
  910MOL0     C22752   8.378   3.992   4.558  0.4561  0.4526  0.4111
  910MOL0     C22753   8.327   3.905   4.435 -0.3402 -0.3355 -1.6192
  910MOL0     C22754   8.241   3.787   4.465  0.8591  0.2841 -0.9976
  910MOL0     C22755   8.118   3.820   4.553  0.4924  0.1096  0.0268
  910MOL0     C22756   8.040   3.687   4.569  0.0294  0.8026 -0.6162
  910MOL0     C22757   7.897   3.716   4.626  0.1227 -0.0802  0.4077
  910MOL0     C22758   7.901   3.710   4.781  0.2104  0.1086 -0.0792
  910MOL0     C22759   7.775   3.762   4.852  1.2016  0.8928  0.7336
  910MOL0    Cl22760   7.627   3.691   4.771  0.1623 -0.0062 -0.1353
  910MOL0     C22761   8.300   4.233   4.430  0.1017 -0.4382  0.2327
  910MOL0     C22762   8.258   4.337   4.346  0.1360 -0.0787 -0.0579
  910MOL0     O22763   8.180   4.641   4.301 -0.3877  0.8112  0.1875
  910MOL0     C22764   8.317   4.702   3.967 -0.1440 -0.1028 -0.2499
  910MOL0     C22765   8.302   4.783   3.852 -0.2699  0.0751 -1.0083
  910MOL0     N22766   7.900   5.173   3.343  0.8762  1.0810 -0.4667
  910MOL0     N22767   7.864   5.190   3.225 -0.2807  1.0829 -0.1726
  910MOL0     C22768   8.098   5.703   2.316  0.3365 -0.0765 -0.2205
  910MOL0     C22769   8.237   5.695   2.329  0.1049  0.3085 -0.4568
  910MOL0     C22770   8.650   5.536   2.246 -1.1466 -1.0861 -0.1574
  910MOL0     C22771   8.741   5.507   2.137  0.7237 -0.9503 -0.8680
  910MOL0     C22772   8.883   5.527   2.151  0.8133  0.3656  0.0869
  910MOL0     C22773   8.934   5.565   2.272  0.5088  0.2747  0.0906
  910MOL0     O22774   9.069   5.583   2.280 -1.0181 -0.4156  0.8278
  910MOL0     C22775   9.124   5.674   2.382  0.3476  0.8622  0.4939
  910MOL0     C22776   9.276   5.675   2.359 -0.2309 -0.3719 -0.3172
  910MOL0     C22777   9.300   5.748   2.230 -0.1425 -0.5391 -0.0362
  910MOL0     C22778   9.434   5.710   2.167  0.3981  0.1495 -0.5168
  910MOL0     C22779   9.541   5.757   2.257  0.4580  0.0224 -0.5329
  910MOL0     C22780   9.640   5.798   2.318  0.2865  0.5879 -0.3161
  910MOL0     C22781   8.838   5.593   2.375 -0.1365  0.1382 -0.5604
  910MOL0     C22782   8.698   5.581   2.363  0.1324  0.1340  0.4828
  910MOL0     H22783   8.251   5.355   2.354 -0.0325 -0.1384 -0.4461
  910MOL0     H22784   8.022   5.392   2.385 -1.6010  1.2311 -0.5303
  910MOL0     H22785   7.808   5.789   2.314 -2.6640 -1.9337 -3.3505
  910MOL0     H22786   7.712   5.683   2.413 -0.8658  0.0259 -2.9852
  910MOL0     H22787   7.941   5.836   2.517 -0.0942  0.2125  1.8374
  910MOL0     H22788   7.768   5.852   2.553 -0.2796  1.2692 -2.0302
  910MOL0     H22789   7.763   5.648   2.683  1.1905  0.0879  2.4070
  910MOL0     H22790   7.906   5.582   2.610 -0.6620 -0.3514 -0.9328
  910MOL0     H22791   8.036   5.774   2.713 -0.7456 -0.6560 -1.6712
  910MOL0     H22792   7.889   5.837   2.785 -0.4344 -0.5176 -1.0580
  910MOL0     H22793   7.989   5.714   2.967 -1.3072 -0.8847  0.7438
  910MOL0     H22794   7.834   5.654   2.907 -0.6410 -0.9581 -1.7568
  910MOL0     H22795   7.929   5.464   2.805  0.5131  0.6447 -1.7348
  910MOL0     H22796   8.098   5.526   2.819  1.0918  0.0144  3.3364
  910MOL0     H22797   8.092   5.360   2.987 -1.7720 -1.8049  4.0798
  910MOL0     H22798   8.085   5.513   3.061  0.9793  2.9121 -2.7000
  910MOL0     H22799   7.829   5.340   2.980  1.4495 -1.2360 -1.0590
  910MOL0     H22800   7.836   5.486   3.075 -2.4545  0.2184 -0.8142
  910MOL0     H22801   8.011   5.478   3.273 -2.4155  1.0190  0.7080
  910MOL0     H22802   8.088   5.399   3.533  0.7954  0.4208  2.4724
  910MOL0     H22803   7.953   5.320   3.579  0.7703 -0.7812  1.0768
  910MOL0     H22804   8.179   5.210   3.653 -0.0514  0.0653  0.4069
  910MOL0     H22805   8.180   5.144   3.485 -0.4535 -1.2592  0.7574
  910MOL0     H22806   8.010   4.993   3.524  1.7342  0.5210 -1.1652
  910MOL0     H22807   7.922   5.115   3.620 -0.4259 -1.1690  0.3480
  910MOL0     H22808   7.960   4.958   3.762 -0.7033  1.4377 -2.0417
  910MOL0     H22809   8.048   5.105   3.804  1.1402  0.5486 -0.0657
  910MOL0     H22810   8.058   4.985   3.981 -0.8142 -1.4156  5.5208
  910MOL0     H22811   8.101   4.861   4.309 -0.1140 -2.3565 -0.2147
  910MOL0     H22812   8.022   4.965   4.190  1.8983 -0.3535 -0.6819
  910MOL0     H22813   7.960   4.808   4.215 -0.7693  0.4569  1.2142
  910MOL0     H22814   8.564   4.425   4.217  0.2633 -0.5306  0.2238
  910MOL0     H22815   8.626   4.238   4.363  1.9859  3.1269 -2.5828
  910MOL0     H22816   8.431   3.921   4.622 -1.3023 -0.8171  0.5527
  910MOL0     H22817   8.294   4.046   4.604 -0.2144 -0.0407 -0.2212
  910MOL0     H22818   8.268   3.971   4.371  1.0784  3.2123  0.4343
  910MOL0     H22819   8.409   3.856   4.381 -0.7571 -1.6587 -1.0816
  910MOL0     H22820   8.309   3.717   4.514  2.3533  3.1106  1.2619
  910MOL0     H22821   8.206   3.753   4.367 -1.4198 -2.8879  0.6981
  910MOL0     H22822   8.142   3.864   4.650 -5.0153  3.2225  0.3698
  910MOL0     H22823   8.060   3.897   4.502  3.2594  0.1966 -3.3721
  910MOL0     H22824   8.089   3.613   4.633  0.2016 -0.2594 -1.9376
  910MOL0     H22825   8.030   3.638   4.472  0.1869 -0.1940 -0.1456
  910MOL0     H22826   7.861   3.813   4.590 -0.5525 -0.5888 -0.2989
  910MOL0     H22827   7.825   3.642   4.591  0.1706 -0.7903  1.7330
  910MOL0     H22828   7.986   3.773   4.810 -0.3457  2.4179 -3.0174
  910MOL0     H22829   7.927   3.607   4.807  0.2503  0.4937  1.5003
  910MOL0     H22830   7.781   3.872   4.857  0.6410  0.8788  4.3057
  910MOL0     H22831   7.770   3.739   4.959  2.8974 -0.2531  0.6124
  910MOL0     H22832   8.215   4.185   4.480 -0.5350  1.6961  1.3431
  910MOL0     H22833   8.151   4.355   4.342  0.0949 -0.1863 -4.8188
  910MOL0     H22834   8.379   4.613   3.968 -1.9977 -1.5850 -3.2691
  910MOL0     H22835   8.367   4.761   3.768  1.1487 -0.8459  0.2610
  910MOL0     H22836   8.047   5.797   2.301 -0.3267 -0.2842  0.6655
  910MOL0     H22837   8.298   5.785   2.323 -0.7464  0.8930 -0.5200
  910MOL0     H22838   8.692   5.493   2.041 -5.1013 -0.8072  1.6575
  910MOL0     H22839   8.942   5.527   2.060 -1.5031  1.3214 -1.5081
  910MOL0     H22840   9.096   5.780   2.370  0.5562  1.0206  1.3513
  910MOL0     H22841   9.093   5.636   2.480  0.6285 -0.1606  0.1953
  910MOL0     H22842   9.302   5.570   2.349 -3.2752 -1.3158  0.5451
  910MOL0     H22843   9.332   5.723   2.440 -1.7300  0.3186  0.3677
  910MOL0     H22844   9.288   5.855   2.250 -1.9207 -0.9504  1.4395
  910MOL0     H22845   9.226   5.718   2.155 -1.5484  0.4777  0.8878
  910MOL0     H22846   9.435   5.766   2.073 -2.8120 -1.0205 -1.3508
  910MOL0     H22847   9.432   5.605   2.136  0.5832  0.4145 -1.4693
  910MOL0     H22848   9.715   5.850   2.375  1.6051 -1.8030  0.2367
  910MOL0     H22849   8.871   5.627   2.472  1.2724  4.0410 -2.1934
  910MOL0     H22850   8.640   5.610   2.449  3.4643  2.6858  2.1178
  911MOL0     O22851   2.261   6.042  11.003  0.6055 -0.3748 -0.1263
  911MOL0     C22852   2.326   6.145  11.004 -1.0798  0.6925 -0.5584
  911MOL0     O22853   2.308   6.255  11.078 -0.4041  0.1465 -0.4068
  911MOL0     C22854   2.191   6.285  11.142 -0.1094 -0.5511  0.0810
  911MOL0     C22855   2.189   6.352  11.259 -0.9556  0.2201 -0.0954
  911MOL0     C22856   2.084   6.399  11.328  0.6219  0.9257  0.0836
  911MOL0     C22857   1.956   6.373  11.268  0.5290 -0.3139  0.0610
  911MOL0     O22858   1.836   6.418  11.320 -0.0481  0.7631 -0.2088
  911MOL0     C22859   1.831   6.422  11.462 -0.0954 -0.0532 -0.1037
  911MOL0     C22860   1.687   6.448  11.503 -0.6599 -0.7202 -0.4803
  911MOL0     C22861   1.584   6.358  11.464  0.2478 -0.3055  0.0323
  911MOL0     C22862   1.445   6.389  11.533 -0.5911  0.4905  0.2230
  911MOL0     C22863   1.336   6.297  11.466 -0.3595  1.0900 -0.6523
  911MOL0     C22864   1.300   6.324  11.321  0.0299 -0.9622 -0.4893
  911MOL0     C22865   1.293   6.474  11.281 -0.5546 -0.0632 -0.5386
  911MOL0     C22866   1.236   6.500  11.144  0.0978 -0.5069 -0.4248
  911MOL0     N22867   1.340   6.494  11.040 -0.6306  0.2051 -0.9187
  911MOL0     C22868   1.456   6.560  11.026 -0.1735  0.5208  0.0476
  911MOL0     C22869   1.513   6.527  10.909  0.2958 -0.5361  0.0234
  911MOL0     C22870   1.643   6.593  10.864 -0.3716  0.9044  0.6724
  911MOL0     C22871   1.594   6.692  10.751 -0.8541  0.4894  0.0861
  911MOL0     C22872   1.719   6.779  10.714  0.1963  0.8328 -0.0181
  911MOL0     C22873   1.829   6.693  10.650  0.0014  0.6031 -0.0248
  911MOL0     O22874   1.755   6.610  10.560  0.2691  0.0449  0.1301
  911MOL0     C22875   1.712   6.660  10.434 -0.0351  0.5570  0.5858
  911MOL0     C22876   1.622   6.579  10.355 -0.4838  0.5863 -0.7393
  911MOL0     C22877   1.586   6.609  10.231  0.1514  1.2945 -0.0933
  911MOL0     C22878   1.503   6.505  10.153 -0.7152  0.4488  0.4421
  911MOL0     C22879   1.610   6.739  10.179  0.0608 -0.4109  0.1942
  911MOL0     C22880   1.571   6.790  10.045 -0.9381 -0.6301 -0.7093
  911MOL0     O22881   1.573   6.930  10.028 -0.0686 -0.4520 -0.8856
  911MOL0     C22882   1.567   6.982   9.903  0.1805 -0.1423 -0.1824
  911MOL0     C22883   1.642   6.927   9.797 -0.9464  0.3177 -0.7452
  911MOL0     C22884   1.648   6.990   9.674  0.1298  0.1980  0.4693
  911MOL0     C22885   1.573   7.108   9.646 -0.5818 -0.1153  0.3555
  911MOL0     O22886   1.583   7.153   9.518  0.0936 -0.5472  0.1014
  911MOL0     C22887   1.482   7.248   9.476 -0.5004 -0.0340 -0.2944
  911MOL0     C22888   1.487   7.252   9.327 -1.0243 -1.0821  1.1956
  911MOL0     C22889   1.630   7.279   9.270 -0.5343 -0.8102  0.6687
  911MOL0     C22890   1.728   7.159   9.277 -1.2120 -0.1715  0.4949
  911MOL0     C22891   1.673   7.011   9.269 -1.2330  0.3628 -0.5351
  911MOL0     C22892   1.773   6.894   9.286  0.1553 -0.2940  0.6808
  911MOL0     C22893   1.717   6.765   9.240  0.2134  0.1841 -0.4017
  911MOL0     C22894   1.828   6.662   9.220  1.1913  0.4770  0.1354
  911MOL0    Cl22895   1.885   6.599   9.372  0.2192  0.2079 -0.2109
  911MOL0     C22896   1.490   7.158   9.745 -0.1930  0.1553 -0.7501
  911MOL0     C22897   1.493   7.096   9.878 -0.9035 -0.0836 -0.7663
  911MOL0     O22898   1.541   6.709   9.961 -0.5360 -0.4324  0.3929
  911MOL0     C22899   1.686   6.825  10.257  0.0871  0.2476  0.1919
  911MOL0     C22900   1.734   6.785  10.381 -1.3466  0.4235  0.4455
  911MOL0     N22901   1.428   6.441  10.847  0.1838  0.2005  0.1447
  911MOL0     N22902   1.332   6.420  10.929  0.3096  0.0507 -0.4210
  911MOL0     C22903   1.944   6.299  11.149  0.6031 -0.1565 -1.3136
  911MOL0     C22904   2.060   6.266  11.081 -0.8328 -0.3536  1.0224
  911MOL0     C22905   2.430   6.146  10.897 -0.3093 -0.4794  0.6529
  911MOL0     C22906   2.464   6.040  10.811  0.1018  0.8454 -0.2423
  911MOL0     C22907   2.556   6.055  10.710 -0.5650  0.5116  0.7050
  911MOL0     C22908   2.626   6.176  10.690 -0.5074  0.6233 -0.4846
  911MOL0     O22909   2.713   6.198  10.585 -0.3783 -0.3945  0.7384
  911MOL0     C22910   2.688   6.126  10.463 -1.1906 -0.9296 -0.2859
  911MOL0     C22911   2.729   6.219  10.348 -1.0904  0.6459 -0.1365
  911MOL0     C22912   2.633   6.340  10.335  0.9529  0.3671  0.2719
  911MOL0     C22913   2.599   6.368  10.185 -0.4841  0.7717 -0.0748
  911MOL0     C22914   2.509   6.260  10.134 -0.0809  0.6148 -0.0753
  911MOL0     C22915   2.416   6.190  10.107  0.2304 -0.2072 -0.5970
  911MOL0     C22916   2.597   6.280  10.783  0.6703 -0.3580  0.8212
  911MOL0     C22917   2.496   6.265  10.878 -0.2259  0.0481 -0.1953
  911MOL0     H22918   2.288   6.354  11.303 -0.7317  1.8816 -0.5857
  911MOL0     H22919   2.100   6.460  11.416  1.0842  4.3355 -2.1947
  911MOL0     H22920   1.855   6.325  11.504 -2.5837 -1.4525 -1.6177
  911MOL0     H22921   1.902   6.497  11.497  1.1758  0.4372 -3.3820
  911MOL0     H22922   1.709   6.464  11.609  1.0172  1.9471 -1.1230
  911MOL0     H22923   1.661   6.549  11.471 -3.0196 -1.3229 -0.6753
  911MOL0     H22924   1.559   6.375  11.359 -4.9784  1.5836  1.2476
  911MOL0     H22925   1.622   6.257  11.478 -0.8009 -1.1778 -2.7621
  911MOL0     H22926   1.471   6.366  11.636  0.1960  3.0614  0.6561
  911MOL0     H22927   1.410   6.493  11.533 -0.0173  0.6912 -0.4506
  911MOL0     H22928   1.359   6.191  11.482  2.3483  1.7368  0.3494
  911MOL0     H22929   1.249   6.312  11.530  1.1747 -2.1685  2.5844
  911MOL0     H22930   1.359   6.265  11.251 -1.3175 -3.1763  0.1461
  911MOL0     H22931   1.196   6.291  11.316 -0.6023  0.8163  0.1229
  911MOL0     H22932   1.227   6.522  11.355 -0.0084 -1.5053  0.9453
  911MOL0     H22933   1.394   6.516  11.281  0.3198 -1.9777  1.3156
  911MOL0     H22934   1.202   6.604  11.143 -2.5536 -1.2996 -0.1447
  911MOL0     H22935   1.161   6.424  11.122 -0.7011  0.4661 -1.1797
  911MOL0     H22936   1.500   6.609  11.112 -0.4326 -1.9513  1.7117
  911MOL0     H22937   1.698   6.639  10.947 -2.0177  1.2858  1.5919
  911MOL0     H22938   1.696   6.505  10.824 -1.0249  0.3914  0.9138
  911MOL0     H22939   1.515   6.762  10.782 -1.9330 -0.1898 -1.0269
  911MOL0     H22940   1.554   6.638  10.665  0.1753  0.6761 -0.5268
  911MOL0     H22941   1.756   6.808  10.813 -1.4438 -2.8459  1.8672
  911MOL0     H22942   1.690   6.858  10.644  2.1051 -0.3872 -2.2908
  911MOL0     H22943   1.879   6.625  10.719  1.2512 -1.3805 -2.7159
  911MOL0     H22944   1.906   6.756  10.604 -0.8355  0.6569 -1.4114
  911MOL0     H22945   1.577   6.501  10.415 -3.7167  0.8622 -2.5470
  911MOL0     H22946   1.554   6.481  10.059  0.0587  0.3339  0.8788
  911MOL0     H22947   1.491   6.411  10.209  2.0018 -0.9782 -1.1494
  911MOL0     H22948   1.403   6.537  10.121 -0.0853 -0.0025 -2.2430
  911MOL0     H22949   1.701   6.839   9.820 -3.8456 -1.2425  1.3672
  911MOL0     H22950   1.704   6.946   9.592  2.1933  7.3281 -2.7302
  911MOL0     H22951   1.378   7.221   9.501 -1.1882  4.3837  2.8029
  911MOL0     H22952   1.495   7.348   9.520 -2.0463  0.2654 -0.4593
  911MOL0     H22953   1.455   7.156   9.285  0.6521 -1.0689 -0.2268
  911MOL0     H22954   1.424   7.335   9.294  1.0949  0.8242  1.7195
  911MOL0     H22955   1.689   7.359   9.318 -0.6391 -1.3972  1.8143
  911MOL0     H22956   1.612   7.299   9.164 -3.5995  0.8853  1.4161
  911MOL0     H22957   1.807   7.181   9.205  0.0046  0.2217  1.9062
  911MOL0     H22958   1.785   7.169   9.369  2.1236  1.2578 -1.5576
  911MOL0     H22959   1.627   6.996   9.171  0.3122 -1.5449 -1.0489
  911MOL0     H22960   1.585   7.002   9.332 -0.4122  0.2189  0.6211
  911MOL0     H22961   1.871   6.917   9.244  0.5091  0.1466  1.7311
  911MOL0     H22962   1.792   6.878   9.392  0.4688  2.7186  1.1497
  911MOL0     H22963   1.671   6.768   9.141 -0.7637 -2.1774 -0.0851
  911MOL0     H22964   1.636   6.728   9.304 -1.4989  3.6819 -0.2985
  911MOL0     H22965   1.904   6.713   9.160  1.8039  0.6788  1.0613
  911MOL0     H22966   1.789   6.577   9.163 -0.4071  0.0432  1.7844
  911MOL0     H22967   1.421   7.239   9.724  0.3918  0.2553 -2.3829
  911MOL0     H22968   1.424   7.132   9.954 -0.3543  2.1956 -1.2691
  911MOL0     H22969   1.706   6.925  10.220 -2.0534  0.1787 -1.3979
  911MOL0     H22970   1.791   6.860  10.437  1.3758 -0.5921 -0.7683
  911MOL0     H22971   1.844   6.267  11.122  0.7875 -1.3261 -0.6780
  911MOL0     H22972   2.070   6.214  10.987  0.2802  3.1010 -0.9367
  911MOL0     H22973   2.407   5.948  10.824 -0.9179  1.3819 -0.7968
  911MOL0     H22974   2.586   5.971  10.649  0.5723 -1.3069  3.5736
  911MOL0     H22975   2.754   6.039  10.463 -2.4221 -1.9624  2.2908
  911MOL0     H22976   2.582   6.099  10.456 -1.4620  0.1908 -0.7227
  911MOL0     H22977   2.734   6.173  10.249 -0.3444  0.8927 -0.2163
  911MOL0     H22978   2.827   6.258  10.376  0.1128 -2.3149  0.1156
  911MOL0     H22979   2.682   6.425  10.384 -3.4303  2.0344  2.2577
  911MOL0     H22980   2.541   6.328  10.392 -0.7212  0.9666 -2.1649
  911MOL0     H22981   2.700   6.370  10.142 -0.5895 -3.2653 -0.8922
  911MOL0     H22982   2.557   6.468  10.169  3.4679  2.6274 -0.2107
  911MOL0     H22983   2.336   6.126  10.076  2.3462 -2.6375 -1.4323
  911MOL0     H22984   2.655   6.372  10.790  0.8513 -0.1706 -2.0777
  911MOL0     H22985   2.489   6.348  10.947 -0.7722 -1.4885  1.6607
  912MOL0     O22986  10.010   7.497   6.608 -0.9236  0.3657  0.2247
  912MOL0     C22987   9.951   7.609   6.599  0.0288  0.5605 -1.0568
  912MOL0     O22988  10.009   7.729   6.574 -0.4006  0.5674  0.2403
  912MOL0     C22989  10.139   7.726   6.522  0.6003 -0.4128  0.4155
  912MOL0     C22990  10.156   7.745   6.380  0.3084  0.0214  0.4890
  912MOL0     C22991  10.285   7.765   6.333 -0.1504  0.4880 -0.7199
  912MOL0     C22992  10.392   7.763   6.424  0.3466 -0.5993 -0.5692
  912MOL0     O22993  10.521   7.775   6.371 -0.3621  0.2302  0.1154
  912MOL0     C22994  10.541   7.775   6.230 -0.8785 -0.9243  0.3772
  912MOL0     C22995  10.688   7.779   6.174  0.4295  0.2858  0.0050
  912MOL0     C22996  10.742   7.635   6.140  0.5981 -0.4712  0.9139
  912MOL0     C22997  10.883   7.635   6.097  0.3703  0.4214 -0.4374
  912MOL0     C22998  10.930   7.507   6.042  0.4369  0.2709 -0.1781
  912MOL0     C22999  10.912   7.393   6.143 -1.1158  0.2429  0.1917
  912MOL0     C23000  10.942   7.262   6.058  0.8423  0.0257 -0.3667
  912MOL0     C23001  10.829   7.229   5.964  0.3896 -1.4354  0.0614
  912MOL0     N23002  10.780   7.099   5.980 -1.0035  0.3099 -0.5419
  912MOL0     C23003  10.826   6.994   5.917 -0.2218  1.4668 -0.6551
  912MOL0     C23004  10.766   6.888   5.977 -0.5370 -0.4843  0.1581
  912MOL0     C23005  10.781   6.740   5.950  0.4799  0.0691  0.1370
  912MOL0     C23006  10.690   6.680   5.838 -0.0380  1.0837 -0.6989
  912MOL0     C23007  10.717   6.761   5.708  0.7099  0.3306  0.4987
  912MOL0     C23008  10.684   6.691   5.578 -0.2477 -0.0649  0.1352
  912MOL0     O23009  10.549   6.663   5.569 -1.2454 -0.2970 -0.5307
  912MOL0     C23010  10.511   6.576   5.470  0.1169  0.1520  0.2200
  912MOL0     C23011  10.601   6.483   5.405  0.5308 -0.2518 -0.2987
  912MOL0     C23012  10.556   6.396   5.304  0.5371  0.4456 -0.1306
  912MOL0     C23013  10.658   6.288   5.258  0.1278  1.6089  0.4140
  912MOL0     C23014  10.422   6.403   5.259 -0.1576  0.1701 -1.2585
  912MOL0     C23015  10.358   6.304   5.162 -0.1565 -0.6772 -0.3471
  912MOL0     O23016  10.218   6.312   5.147 -0.2499 -0.2752 -1.1160
  912MOL0     C23017  10.177   6.260   5.029 -0.0229  0.1800 -0.0739
  912MOL0     C23018  10.198   6.323   4.911  0.2388  0.2879  0.1054
  912MOL0     C23019  10.145   6.267   4.795 -0.2773  1.5666  0.4857
  912MOL0     C23020  10.084   6.142   4.791  0.2302  0.4708  0.2349
  912MOL0     O23021  10.049   6.085   4.671 -1.2227  0.2930 -1.0983
  912MOL0     C23022  10.034   5.947   4.661 -0.0424 -0.3112 -0.1357
  912MOL0     C23023  10.164   5.866   4.677  0.1767  0.8295  0.7715
  912MOL0     C23024  10.138   5.727   4.634  0.5442 -0.1705 -0.9327
  912MOL0     C23025  10.273   5.653   4.656 -0.2540  0.2969  0.1948
  912MOL0     C23026  10.257   5.506   4.664  0.3810  1.1030 -0.3734
  912MOL0     C23027  10.376   5.419   4.650 -0.7758  0.3369  0.6147
  912MOL0     C23028  10.335   5.271   4.668  0.7462 -0.0745 -0.2656
  912MOL0     C23029  10.208   5.237   4.591  0.0418 -0.0845  0.4283
  912MOL0    Cl23030  10.217   5.060   4.548  0.1624 -0.0383 -0.0656
  912MOL0     C23031  10.053   6.084   4.916 -0.1081  0.6243  1.2723
  912MOL0     C23032  10.095   6.143   5.033 -0.0362 -0.0425  0.7059
  912MOL0     O23033  10.431   6.219   5.109  0.4081  0.1370 -0.9591
  912MOL0     C23034  10.337   6.493   5.328  0.7374 -0.1074  0.2396
  912MOL0     C23035  10.384   6.586   5.419  0.1679 -0.1186  0.5048
  912MOL0     N23036  10.696   6.941   6.080  0.4897 -0.3969 -0.5996
  912MOL0     N23037  10.699   7.066   6.087 -0.0442  0.2361  0.2465
  912MOL0     C23038  10.378   7.733   6.557 -0.2449 -0.5370 -0.6544
  912MOL0     C23039  10.251   7.713   6.602 -0.0952 -1.3308 -0.1941
  912MOL0     C23040   9.801   7.613   6.632 -0.0107  0.2927  0.6679
  912MOL0     C23041   9.741   7.516   6.711  0.7738  0.3546  0.3875
  912MOL0     C23042   9.600   7.514   6.736 -0.1836  0.8900 -0.1143
  912MOL0     C23043   9.527   7.621   6.699  0.1260  0.5661  0.3570
  912MOL0     O23044   9.388   7.641   6.727 -0.5138 -0.1934 -0.0326
  912MOL0     C23045   9.324   7.569   6.829 -0.1422  0.3397 -0.3235
  912MOL0     C23046   9.245   7.452   6.768  0.5988  0.2178 -0.4484
  912MOL0     C23047   9.182   7.386   6.890  0.2895 -0.6238 -0.4775
  912MOL0     C23048   9.278   7.319   7.004 -0.6612 -0.1086  0.2425
  912MOL0     C23049   9.259   7.172   7.024 -0.1830  0.6151  0.1626
  912MOL0     C23050   9.264   7.053   7.047 -0.7132 -0.3756  0.3105
  912MOL0     C23051   9.577   7.722   6.623 -0.0059 -0.2781 -0.7811
  912MOL0     C23052   9.717   7.719   6.592  0.4696  1.1075  0.4242
  912MOL0     H23053  10.074   7.744   6.308  0.3836 -2.4329  0.3694
  912MOL0     H23054  10.299   7.769   6.225 -2.3419 -4.9736 -1.5108
  912MOL0     H23055  10.499   7.680   6.196 -1.8039 -1.5237  2.9770
  912MOL0     H23056  10.485   7.854   6.179 -0.1672 -1.5686 -1.4736
  912MOL0     H23057  10.689   7.840   6.083  0.0040  1.6921  0.9130
  912MOL0     H23058  10.759   7.829   6.241 -0.4077  0.5583  0.7172
  912MOL0     H23059  10.740   7.582   6.235 -0.7502 -1.3635  0.4243
  912MOL0     H23060  10.677   7.588   6.065  1.0424 -0.3946  0.4769
  912MOL0     H23061  10.894   7.709   6.017 -1.0225  2.7221  1.3590
  912MOL0     H23062  10.940   7.656   6.188 -1.2250 -0.0202  0.7232
  912MOL0     H23063  10.863   7.488   5.957 -3.9845 -1.6765  3.3241
  912MOL0     H23064  11.036   7.500   6.016  0.1695  1.0296 -1.5936
  912MOL0     H23065  10.991   7.394   6.219 -1.3194  0.3547  0.4044
  912MOL0     H23066  10.815   7.384   6.193 -0.4405  0.5381  1.5945
  912MOL0     H23067  11.034   7.275   6.001 -0.1882  0.7037 -1.9555
  912MOL0     H23068  10.953   7.180   6.130  1.6626  1.5619  1.3395
  912MOL0     H23069  10.873   7.261   5.870  0.4198  3.1188  1.3885
  912MOL0     H23070  10.746   7.299   5.975  1.5104 -0.3072  1.8768
  912MOL0     H23071  10.903   6.982   5.841 -0.4807 -0.7446 -0.6539
  912MOL0     H23072  10.883   6.727   5.913  0.2842  1.6276 -1.0311
  912MOL0     H23073  10.769   6.678   6.040  2.8832 -2.7451 -1.2965
  912MOL0     H23074  10.583   6.680   5.860 -0.0227 -1.8456 -0.2489
  912MOL0     H23075  10.714   6.574   5.829  2.2357  0.8267  4.5009
  912MOL0     H23076  10.818   6.802   5.713  0.5376  0.8811 -0.1792
  912MOL0     H23077  10.652   6.850   5.707  1.3661  0.8205  0.1406
  912MOL0     H23078  10.738   6.596   5.582 -3.4791 -2.0069  1.5471
  912MOL0     H23079  10.714   6.751   5.491 -0.4808 -1.1914 -0.7383
  912MOL0     H23080  10.699   6.473   5.451 -0.2892  1.9936  2.2080
  912MOL0     H23081  10.619   6.186   5.272  2.6649  0.0296 -2.6040
  912MOL0     H23082  10.682   6.300   5.152 -0.5620  0.7076  0.1350
  912MOL0     H23083  10.741   6.292   5.330  1.2323  1.1063 -0.7883
  912MOL0     H23084  10.276   6.397   4.897 -0.2124  0.3338 -3.0695
  912MOL0     H23085  10.162   6.314   4.699 -1.8689 -1.0452 -1.1856
  912MOL0     H23086   9.952   5.927   4.731 -1.1355  0.7742 -1.0584
  912MOL0     H23087  10.006   5.919   4.559  1.4130 -3.6698  0.2297
  912MOL0     H23088  10.231   5.908   4.601 -1.8290 -1.7029 -2.7209
  912MOL0     H23089  10.207   5.876   4.776  1.9361 -4.0262  0.7214
  912MOL0     H23090  10.110   5.727   4.528 -0.6775  1.8150 -0.6639
  912MOL0     H23091  10.057   5.679   4.690  1.9369 -0.2103  1.1498
  912MOL0     H23092  10.340   5.683   4.575 -1.9176  0.5991 -1.1389
  912MOL0     H23093  10.318   5.678   4.752 -1.9186 -0.4948  1.2212
  912MOL0     H23094  10.185   5.468   4.590 -0.1127 -0.9151  1.0522
  912MOL0     H23095  10.201   5.478   4.753  0.6983 -1.6521 -0.9455
  912MOL0     H23096  10.415   5.415   4.548  3.1682  3.0060  1.8122
  912MOL0     H23097  10.457   5.453   4.714 -0.3460  0.5523 -0.0356
  912MOL0     H23098  10.321   5.266   4.776  3.2085  3.4515  0.3877
  912MOL0     H23099  10.415   5.199   4.648  0.7853  0.1197 -0.8263
  912MOL0     H23100  10.183   5.284   4.495 -3.0386 -0.0789  1.1091
  912MOL0     H23101  10.121   5.242   4.657  0.0674  0.7708  0.4146
  912MOL0     H23102   9.999   5.991   4.924  2.3223 -1.0021  0.0479
  912MOL0     H23103  10.063   6.095   5.125 -0.3142 -1.2956 -0.0276
  912MOL0     H23104  10.231   6.503   5.306  1.0790  1.8890 -0.7498
  912MOL0     H23105  10.317   6.667   5.448  0.6192 -0.7344  3.5660
  912MOL0     H23106  10.465   7.730   6.623 -0.6489  2.2843  0.1594
  912MOL0     H23107  10.235   7.701   6.708 -1.5883 -0.4465 -0.2835
  912MOL0     H23108   9.813   7.440   6.738 -0.1288 -0.4627  0.5460
  912MOL0     H23109   9.555   7.427   6.783  3.1195 -0.9061 -0.0039
  912MOL0     H23110   9.401   7.532   6.897  0.7280  0.8386 -1.0094
  912MOL0     H23111   9.253   7.642   6.869 -1.1632  0.7502 -2.7119
  912MOL0     H23112   9.310   7.386   6.711 -0.0436 -1.0526  0.2275
  912MOL0     H23113   9.161   7.490   6.710 -0.1039  2.8238  2.0137
  912MOL0     H23114   9.118   7.313   6.841  1.5028 -1.2175 -1.2026
  912MOL0     H23115   9.130   7.472   6.935 -3.0656 -2.1020 -1.2602
  912MOL0     H23116   9.277   7.375   7.099  2.3729  0.9547 -0.2407
  912MOL0     H23117   9.383   7.320   6.972  0.5504  0.7716  3.7218
  912MOL0     H23118   9.283   6.948   7.053  3.1230  0.1270 -0.6794
  912MOL0     H23119   9.515   7.801   6.582 -0.3942 -0.2003 -0.0463
  912MOL0     H23120   9.767   7.799   6.537  1.2354 -1.3716 -2.7562
  913MOL0     O23121   6.646   7.714  10.024  1.2350 -0.3988  0.5092
  913MOL0     C23122   6.714   7.803  10.070  0.7231  0.3643  0.1827
  913MOL0     O23123   6.749   7.820  10.207 -0.4264  0.0926  0.4044
  913MOL0     C23124   6.716   7.731  10.300  0.1337 -0.0161 -0.8820
  913MOL0     C23125   6.687   7.779  10.427 -0.3028  0.8902 -0.1764
  913MOL0     C23126   6.644   7.700  10.534  0.7999  0.0521  0.1940
  913MOL0     C23127   6.638   7.560  10.526  0.4297  0.1575  0.2970
  913MOL0     O23128   6.587   7.499  10.630  0.4190  0.0204 -0.0310
  913MOL0     C23129   6.651   7.374  10.661 -0.9073  0.5840 -0.0568
  913MOL0     C23130   6.631   7.351  10.810  0.0665  0.2352 -0.0660
  913MOL0     C23131   6.664   7.206  10.859  0.6018  0.5068 -0.1505
  913MOL0     C23132   6.604   7.191  10.999  1.3437 -0.7837  1.0294
  913MOL0     C23133   6.645   7.056  11.058  1.2460 -0.0092  0.0413
  913MOL0     C23134   6.587   6.937  10.979  0.3439 -0.7609 -0.8070
  913MOL0     C23135   6.644   6.802  11.001  0.7512  0.1253 -0.1501
  913MOL0     C23136   6.796   6.795  10.965 -0.1845  0.6231 -0.5921
  913MOL0     N23137   6.819   6.835  10.826 -0.4839  0.5902 -0.2118
  913MOL0     C23138   6.838   6.762  10.710 -0.1004  0.3942 -0.4040
  913MOL0     C23139   6.881   6.856  10.626  0.0554  0.1507  0.1860
  913MOL0     C23140   6.918   6.820  10.485 -0.2569  0.6288  0.5336
  913MOL0     C23141   7.049   6.728  10.471 -0.0973  0.2911  0.0662
  913MOL0     C23142   7.186   6.816  10.490 -0.0409 -0.3665 -0.7350
  913MOL0     C23143   7.321   6.744  10.466 -0.4845  0.2839 -0.3868
  913MOL0     O23144   7.442   6.826  10.482  0.5791 -0.3695 -0.1872
  913MOL0     C23145   7.472   6.886  10.599  0.1995 -0.4735  0.1583
  913MOL0     C23146   7.550   7.008  10.585  0.1109  0.0420  1.0383
  913MOL0     C23147   7.610   7.063  10.700  0.2465 -0.6777 -0.2450
  913MOL0     C23148   7.724   7.160  10.685  0.3806  0.9602  0.6503
  913MOL0     C23149   7.568   7.022  10.835  0.5177 -0.7332  0.0242
  913MOL0     C23150   7.604   7.091  10.951 -0.7544 -0.0397  0.0381
  913MOL0     O23151   7.514   7.120  11.041  0.4290 -0.2038 -0.3367
  913MOL0     C23152   7.551   7.096  11.172 -0.0220  0.5147  0.1702
  913MOL0     C23153   7.534   6.969  11.226 -0.1128  0.6311  0.9973
  913MOL0     C23154   7.543   6.952  11.364  0.7016 -0.3512  0.2187
  913MOL0     C23155   7.568   7.059  11.452 -0.0867 -0.2894  0.9160
  913MOL0     O23156   7.545   7.042  11.585  0.5502 -0.9506 -0.0477
  913MOL0     C23157   7.640   7.128  11.652  0.4504 -0.4647 -0.0528
  913MOL0     C23158   7.687   7.058  11.782 -0.7934  0.1156  0.2107
  913MOL0     C23159   7.575   7.035  11.884  0.8707  0.3462 -0.5743
  913MOL0     C23160   7.512   7.162  11.940  0.2545  0.5953  0.3222
  913MOL0     C23161   7.383   7.150  12.026 -0.1294 -0.5065 -0.3118
  913MOL0     C23162   7.395   7.054  12.146  0.2814 -1.2124 -0.4860
  913MOL0     C23163   7.494   7.103  12.257  0.0547 -0.0620  0.3750
  913MOL0     C23164   7.494   6.995  12.363 -0.5368 -0.3567 -0.9443
  913MOL0    Cl23165   7.592   7.021  12.508 -0.3945 -0.1143  0.7656
  913MOL0     C23166   7.608   7.188  11.387  0.9966 -0.3252 -1.1211
  913MOL0     C23167   7.588   7.203  11.249 -0.9295  0.2033 -0.6757
  913MOL0     O23168   7.719   7.133  10.962  0.0926  0.6513  0.7923
  913MOL0     C23169   7.472   6.917  10.845  0.2089  0.1841 -0.0912
  913MOL0     C23170   7.430   6.851  10.727  0.1572 -0.4269 -0.4775
  913MOL0     N23171   6.872   6.979  10.678 -0.4709  0.3822  0.0146
  913MOL0     N23172   6.856   6.966  10.802  0.4983  0.2146 -0.2204
  913MOL0     C23173   6.679   7.499  10.401 -0.5472  0.3894 -0.4026
  913MOL0     C23174   6.705   7.589  10.289 -0.2045 -0.1958 -0.9272
  913MOL0     C23175   6.772   7.902   9.973  0.8395 -0.4595  0.0732
  913MOL0     C23176   6.703   7.913   9.848  0.3032 -0.7371  0.2536
  913MOL0     C23177   6.744   7.998   9.747  0.5210  0.5409  0.2378
  913MOL0     C23178   6.856   8.076   9.769  0.1689  0.3590  0.2062
  913MOL0     O23179   6.916   8.145   9.658 -0.2522  0.3380 -0.0401
  913MOL0     C23180   6.860   8.147   9.522  0.1060  0.4158 -0.8595
  913MOL0     C23181   6.932   8.249   9.432  0.4456 -0.6151 -0.5575
  913MOL0     C23182   6.931   8.389   9.488  0.1724 -0.6546  0.0206
  913MOL0     C23183   6.796   8.451   9.472 -0.0220 -0.2730 -0.6521
  913MOL0     C23184   6.769   8.461   9.329  0.5314  0.4867 -0.9372
  913MOL0     C23185   6.758   8.456   9.212 -0.5447 -0.2860  0.1247
  913MOL0     C23186   6.926   8.067   9.889  0.3378 -0.3122  0.0053
  913MOL0     C23187   6.885   7.981   9.997  0.6132 -0.2522 -0.9512
  913MOL0     H23188   6.701   7.886  10.443  1.0868  0.7351 -0.1944
  913MOL0     H23189   6.604   7.741  10.626 -1.8277  0.3871 -1.0072
  913MOL0     H23190   6.618   7.284  10.608  1.1643  1.7575 -3.6481
  913MOL0     H23191   6.755   7.381  10.629 -1.2509  1.3813 -1.0413
  913MOL0     H23192   6.693   7.428  10.859 -0.4440  1.3685 -1.1540
  913MOL0     H23193   6.525   7.372  10.819 -0.2602 -1.0310 -0.7360
  913MOL0     H23194   6.639   7.133  10.782 -0.2912  0.7430 -0.0998
  913MOL0     H23195   6.770   7.201  10.885  0.7312  0.5582 -0.6607
  913MOL0     H23196   6.633   7.274  11.065 -0.1166  2.1784 -1.7539
  913MOL0     H23197   6.495   7.189  10.991  1.4311 -0.3230 -0.6749
  913MOL0     H23198   6.754   7.046  11.066  1.3221 -0.1173 -0.9480
  913MOL0     H23199   6.613   7.050  11.162  3.9206  1.4854  1.0505
  913MOL0     H23200   6.487   6.935  11.023  0.7876  1.1461  0.4297
  913MOL0     H23201   6.565   6.958  10.874  1.7898 -1.9129 -1.3816
  913MOL0     H23202   6.625   6.778  11.106  0.8614 -1.2330 -0.4263
  913MOL0     H23203   6.576   6.732  10.952 -2.0819  1.4975  1.5262
  913MOL0     H23204   6.831   6.693  10.981 -0.1843  0.9706  2.0538
  913MOL0     H23205   6.839   6.860  11.041 -0.2930  0.8191 -0.6990
  913MOL0     H23206   6.830   6.654  10.705 -2.0605  0.3674  1.6542
  913MOL0     H23207   6.840   6.759  10.439  0.6410 -0.0235 -0.1790
  913MOL0     H23208   6.934   6.911  10.426  1.5818  0.8535  1.3044
  913MOL0     H23209   7.054   6.688  10.369 -0.2178  1.4362 -0.4026
  913MOL0     H23210   7.052   6.637  10.533 -0.3630  2.3039  3.2644
  913MOL0     H23211   7.180   6.856  10.591 -0.3362 -1.7184 -0.1968
  913MOL0     H23212   7.186   6.899  10.418  1.3391  1.8257  1.6305
  913MOL0     H23213   7.319   6.697  10.367 -0.4873 -0.0704 -0.2207
  913MOL0     H23214   7.320   6.662  10.537  2.6341 -0.4748 -1.0465
  913MOL0     H23215   7.557   7.049  10.485  0.2642 -3.1513 -0.3726
  913MOL0     H23216   7.708   7.243  10.755  0.1476 -0.3583  2.2443
  913MOL0     H23217   7.816   7.104  10.704  1.3394  1.7231 -1.4751
  913MOL0     H23218   7.739   7.195  10.583 -0.1863 -0.0122  0.2210
  913MOL0     H23219   7.521   6.881  11.164  3.2166  1.0935 -0.5557
  913MOL0     H23220   7.527   6.849  11.395 -1.9973 -0.4571 -1.2343
  913MOL0     H23221   7.733   7.146  11.599  2.0090 -2.2057  1.9135
  913MOL0     H23222   7.601   7.229  11.668  2.2726  0.0543  1.3876
  913MOL0     H23223   7.729   6.960  11.758 -2.6825 -1.2281  2.0287
  913MOL0     H23224   7.765   7.110  11.838 -0.5089  0.2477 -0.3010
  913MOL0     H23225   7.610   6.976  11.968  2.1344  1.5902 -0.1799
  913MOL0     H23226   7.488   6.987  11.838  0.5299 -0.8696  1.2358
  913MOL0     H23227   7.586   7.214  12.002 -3.0672  3.1433  2.4647
  913MOL0     H23228   7.488   7.217  11.849  3.4150 -0.7340 -1.5091
  913MOL0     H23229   7.306   7.113  11.957 -1.6848  0.7043  0.7311
  913MOL0     H23230   7.352   7.249  12.059 -3.3236 -2.4201  3.1765
  913MOL0     H23231   7.298   7.052  12.196  0.7420  1.0742  0.6891
  913MOL0     H23232   7.423   6.953  12.116  0.9762 -1.0170 -0.5192
  913MOL0     H23233   7.440   7.192  12.292 -2.1980 -1.1193 -0.2189
  913MOL0     H23234   7.596   7.115  12.218 -0.5370  2.1245 -0.6942
  913MOL0     H23235   7.544   6.908  12.319  2.4511  1.7157 -1.9471
  913MOL0     H23236   7.392   6.978  12.397 -0.3424 -1.3568 -0.8461
  913MOL0     H23237   7.645   7.274  11.441 -3.0723 -0.5401  2.4766
  913MOL0     H23238   7.616   7.297  11.202  0.1969 -0.5416 -1.5661
  913MOL0     H23239   7.420   6.884  10.934  0.0787 -1.9629 -0.9003
  913MOL0     H23240   7.359   6.770  10.737  1.3320 -1.3823  0.4385
  913MOL0     H23241   6.679   7.391  10.397 -1.8402  0.3866 -0.7680
  913MOL0     H23242   6.730   7.554  10.189  0.1849  0.5503 -1.0932
  913MOL0     H23243   6.615   7.854   9.824 -0.1440  0.3912 -1.0311
  913MOL0     H23244   6.690   8.000   9.653 -0.4400 -0.4795  0.7481
  913MOL0     H23245   6.855   8.046   9.481 -4.1874  1.1048 -2.6432
  913MOL0     H23246   6.753   8.172   9.521 -0.1097 -0.4281 -0.3063
  913MOL0     H23247   6.899   8.232   9.329  0.2495 -0.7573 -0.4704
  913MOL0     H23248   7.039   8.232   9.447  1.0216  3.1931  0.6519
  913MOL0     H23249   7.005   8.450   9.435 -1.3066  1.3562  0.1535
  913MOL0     H23250   6.958   8.383   9.594  0.7301  2.4875  0.1584
  913MOL0     H23251   6.801   8.552   9.512  1.9265 -0.5489 -0.1170
  913MOL0     H23252   6.714   8.401   9.525 -0.1051  0.7516  0.2174
  913MOL0     H23253   6.757   8.453   9.105  4.5053  0.9161 -0.2035
  913MOL0     H23254   7.018   8.122   9.906  1.0745 -1.2804 -0.7227
  913MOL0     H23255   6.934   7.984  10.094  3.1933  2.3034 -2.1787
  914MOL0     O23256   1.578   0.603   6.360  1.0442 -1.4660  0.3107
  914MOL0     C23257   1.682   0.655   6.333  0.1990 -0.6444  0.5032
  914MOL0     O23258   1.716   0.688   6.204  0.5280  0.4525  0.1980
  914MOL0     C23259   1.633   0.645   6.100  0.4322  0.1026  0.1665
  914MOL0     C23260   1.660   0.521   6.046  0.4235 -0.2293 -0.4520
  914MOL0     C23261   1.575   0.462   5.961  0.1206 -0.0328 -0.2112
  914MOL0     C23262   1.455   0.527   5.920 -0.1485 -0.0699 -0.6810
  914MOL0     O23263   1.378   0.448   5.839 -0.8165  0.1886  0.0317
  914MOL0     C23264   1.283   0.517   5.758  0.3563 -0.4856 -0.8326
  914MOL0     C23265   1.245   0.441   5.635  1.0605 -0.0526 -0.3593
  914MOL0     C23266   1.206   0.294   5.651  0.3202  0.4593  0.8495
  914MOL0     C23267   1.096   0.258   5.751  1.4577 -0.4734  0.4559
  914MOL0     C23268   1.066   0.111   5.738 -0.6833  0.1559 -0.4043
  914MOL0     C23269   1.175   0.011   5.787  0.0377 -0.1726 -0.4407
  914MOL0     C23270   1.212   0.039   5.935  0.4500 -1.0169 -0.2009
  914MOL0     C23271   1.295  -0.073   5.989  0.0368  1.0019  0.6121
  914MOL0     N23272   1.273  -0.209   5.941 -0.1522  0.2067  0.0714
  914MOL0     C23273   1.298  -0.262   5.818 -0.5746 -0.6144 -0.0940
  914MOL0     C23274   1.264  -0.394   5.821 -0.0684 -0.5919  0.5677
  914MOL0     C23275   1.290  -0.485   5.708  0.0762  0.2633  0.6308
  914MOL0     C23276   1.318  -0.633   5.739  0.7211  0.1468  0.0671
  914MOL0     C23277   1.359  -0.701   5.609  0.4375  0.2423 -0.6944
  914MOL0     C23278   1.434  -0.835   5.638  0.7585 -0.7698 -0.5691
  914MOL0     O23279   1.373  -0.931   5.728  0.1255 -0.5003 -0.3531
  914MOL0     C23280   1.269  -1.018   5.682 -0.4710 -0.6032 -0.1662
  914MOL0     C23281   1.226  -1.011   5.546 -0.3741  0.0713  1.1642
  914MOL0     C23282   1.127  -1.106   5.498  0.0538  0.2317  0.7425
  914MOL0     C23283   1.076  -1.082   5.361  0.5555 -0.3157  0.1872
  914MOL0     C23284   1.078  -1.210   5.573 -0.7766 -0.2896 -1.2141
  914MOL0     C23285   0.992  -1.320   5.528 -0.2158 -0.2488  0.3906
  914MOL0     O23286   0.936  -1.392   5.628  0.7102  0.0520 -0.0145
  914MOL0     C23287   0.850  -1.492   5.588  0.4791  0.1433 -0.5877
  914MOL0     C23288   0.889  -1.627   5.579 -0.2343 -0.4138 -0.2423
  914MOL0     C23289   0.796  -1.730   5.534  0.3744 -0.5550 -0.5569
  914MOL0     C23290   0.667  -1.695   5.502 -0.3671 -0.0146 -0.3311
  914MOL0     O23291   0.580  -1.795   5.475 -0.1766 -0.1999  0.2853
  914MOL0     C23292   0.436  -1.781   5.468 -0.4190  0.1376 -0.6421
  914MOL0     C23293   0.393  -1.752   5.328  0.3791 -0.5148 -0.1186
  914MOL0     C23294   0.242  -1.748   5.329 -0.8542 -0.2642  0.5788
  914MOL0     C23295   0.176  -1.738   5.191  0.3980  0.3950 -0.2204
  914MOL0     C23296   0.178  -1.591   5.146  0.4423 -0.5954  0.5367
  914MOL0     C23297   0.278  -1.569   5.037 -0.1604  0.0017  0.1691
  914MOL0     C23298   0.280  -1.427   4.986 -0.2796 -0.1159 -0.8072
  914MOL0     C23299   0.306  -1.329   5.100 -0.4621  0.1399  0.3502
  914MOL0    Cl23300   0.440  -1.385   5.209 -0.5606  0.1858  0.2014
  914MOL0     C23301   0.638  -1.554   5.500  0.4425 -0.5081  1.0273
  914MOL0     C23302   0.722  -1.458   5.541 -0.1363 -0.3702  0.6286
  914MOL0     O23303   0.974  -1.340   5.410  0.3366  0.2144  0.3877
  914MOL0     C23304   1.119  -1.206   5.709 -0.3966  0.4093 -0.4523
  914MOL0     C23305   1.205  -1.112   5.760 -0.0945 -0.5943  0.5171
  914MOL0     N23306   1.212  -0.423   5.943  0.5320 -0.3864 -0.1267
  914MOL0     N23307   1.213  -0.312   6.014 -0.4221  0.3215 -0.1217
  914MOL0     C23308   1.426   0.656   5.968 -0.8154 -0.8438  0.7927
  914MOL0     C23309   1.508   0.701   6.065 -0.2391  0.6808 -0.0665
  914MOL0     C23310   1.774   0.710   6.437  0.2955 -0.2897 -0.9575
  914MOL0     C23311   1.871   0.807   6.417  1.0778 -0.4943  1.1548
  914MOL0     C23312   1.950   0.860   6.510 -0.7730  1.0658 -0.4780
  914MOL0     C23313   1.946   0.814   6.640 -0.0093  0.5634 -0.3214
  914MOL0     O23314   2.019   0.869   6.753 -0.2693  0.5874 -0.0054
  914MOL0     C23315   2.090   0.986   6.726  0.8213 -0.5412  0.1080
  914MOL0     C23316   2.150   1.053   6.852  0.3894  0.1374  0.6466
  914MOL0     C23317   2.049   1.079   6.966 -0.7936  0.5251 -0.0600
  914MOL0     C23318   2.108   1.173   7.068 -1.1188 -0.5153  0.5860
  914MOL0     C23319   2.229   1.119   7.125  0.2555 -0.5370 -0.5252
  914MOL0     C23320   2.328   1.074   7.166 -0.7519  0.1855  0.9531
  914MOL0     C23321   1.841   0.720   6.668 -0.4543 -0.2246  0.4079
  914MOL0     C23322   1.752   0.671   6.568 -1.1481  1.1326 -0.6904
  914MOL0     H23323   1.747   0.466   6.080 -0.5292 -0.5865  1.5546
  914MOL0     H23324   1.591   0.358   5.935  1.9676  0.8345 -2.9721
  914MOL0     H23325   1.199   0.510   5.828  0.1891 -2.3061 -1.1748
  914MOL0     H23326   1.300   0.624   5.742 -2.8805  0.0846 -1.1376
  914MOL0     H23327   1.162   0.498   5.590 -0.1144 -0.6260  1.0153
  914MOL0     H23328   1.325   0.446   5.561  0.3543 -1.4587 -1.2620
  914MOL0     H23329   1.163   0.273   5.552  1.0064 -3.4494  1.2217
  914MOL0     H23330   1.293   0.229   5.663 -1.6856 -2.5015  0.5961
  914MOL0     H23331   1.127   0.295   5.849  0.9291  0.9698  0.1095
  914MOL0     H23332   1.004   0.313   5.727  1.1459 -0.2092  2.1277
  914MOL0     H23333   0.977   0.102   5.800  1.1023 -0.7728  2.1824
  914MOL0     H23334   1.047   0.088   5.633  0.6258 -1.3465 -0.3506
  914MOL0     H23335   1.129  -0.087   5.770 -0.3949  0.1942 -1.5068
  914MOL0     H23336   1.270   0.017   5.734  0.1264 -0.6964 -0.3488
  914MOL0     H23337   1.267   0.134   5.931  0.3523 -0.9277  0.5118
  914MOL0     H23338   1.130   0.039   6.007 -0.8893 -1.6273 -1.6669
  914MOL0     H23339   1.288  -0.069   6.098 -2.6690  0.2157  0.5305
  914MOL0     H23340   1.401  -0.049   5.973  1.0120 -2.3330  1.2759
  914MOL0     H23341   1.342  -0.210   5.734  1.3312 -3.7729 -1.2449
  914MOL0     H23342   1.203  -0.492   5.642 -0.3421 -2.2785  1.3518
  914MOL0     H23343   1.378  -0.444   5.658 -0.2182 -0.5815 -0.6104
  914MOL0     H23344   1.220  -0.672   5.769 -1.0858  3.7347 -0.6222
  914MOL0     H23345   1.393  -0.636   5.819  0.2704  1.8425  0.5787
  914MOL0     H23346   1.420  -0.637   5.545  2.4843 -3.6753 -3.0244
  914MOL0     H23347   1.266  -0.736   5.563 -0.9905 -0.8119  2.6690
  914MOL0     H23348   1.524  -0.801   5.690  1.4537 -0.6816 -1.8163
  914MOL0     H23349   1.469  -0.882   5.546 -0.0259 -3.4908  0.4221
  914MOL0     H23350   1.284  -0.945   5.483  1.1726  0.5609  3.0249
  914MOL0     H23351   1.108  -0.988   5.315 -0.0983 -1.0504 -1.8877
  914MOL0     H23352   1.115  -1.162   5.298  0.6675 -1.9173  2.1929
  914MOL0     H23353   0.967  -1.088   5.351  0.8180 -3.4707 -3.4320
  914MOL0     H23354   0.992  -1.649   5.606  0.4710  4.2509  1.8171
  914MOL0     H23355   0.823  -1.835   5.528  2.2443 -0.1389  0.0101
  914MOL0     H23356   0.394  -1.875   5.504  0.2653  0.1911  0.3356
  914MOL0     H23357   0.421  -1.699   5.539  0.8476  0.0111 -0.2080
  914MOL0     H23358   0.440  -1.657   5.300 -0.3693 -0.0451  0.1802
  914MOL0     H23359   0.423  -1.832   5.260 -0.6230 -0.1428 -1.0384
  914MOL0     H23360   0.208  -1.677   5.404 -2.5026  0.1394 -0.5051
  914MOL0     H23361   0.205  -1.846   5.361 -0.7924  0.3789  2.8162
  914MOL0     H23362   0.232  -1.813   5.134 -0.5848 -2.5787  2.4131
  914MOL0     H23363   0.070  -1.760   5.204  0.6583 -1.5762 -1.0198
  914MOL0     H23364   0.206  -1.530   5.232  0.6498 -2.1068  1.5839
  914MOL0     H23365   0.083  -1.561   5.101 -1.1458 -2.1377  2.6566
  914MOL0     H23366   0.376  -1.587   5.082 -0.5727  1.3907  1.7535
  914MOL0     H23367   0.252  -1.644   4.962  1.2978  0.4001 -0.7594
  914MOL0     H23368   0.185  -1.398   4.939 -2.4638 -3.4729  1.1135
  914MOL0     H23369   0.358  -1.423   4.910  0.7753  3.5601  0.2402
  914MOL0     H23370   0.211  -1.304   5.149 -1.6357 -1.0673 -1.2076
  914MOL0     H23371   0.347  -1.239   5.053 -1.4072  0.6557  0.4890
  914MOL0     H23372   0.539  -1.533   5.460 -0.1346 -2.7022  1.1511
  914MOL0     H23373   0.682  -1.357   5.535 -1.6545 -0.9786 -3.5555
  914MOL0     H23374   1.103  -1.286   5.780 -0.4926  1.1240  0.3437
  914MOL0     H23375   1.241  -1.112   5.862  4.1325 -1.2751 -0.7365
  914MOL0     H23376   1.335   0.709   5.942 -2.2005 -2.6867  1.6168
  914MOL0     H23377   1.479   0.798   6.106  1.6394  0.7938  1.1258
  914MOL0     H23378   1.868   0.845   6.315  2.3077  2.2634  2.0405
  914MOL0     H23379   2.031   0.930   6.495 -0.8198  2.1367  3.2147
  914MOL0     H23380   2.177   0.965   6.663 -0.7172 -1.5378 -1.7875
  914MOL0     H23381   2.030   1.063   6.676  0.3691  0.4407  2.0853
  914MOL0     H23382   2.188   1.151   6.822 -0.8996 -0.3751 -3.1812
  914MOL0     H23383   2.235   0.990   6.879  0.9998  1.0340  0.8835
  914MOL0     H23384   2.021   0.984   7.012  1.9270  0.2947  1.3172
  914MOL0     H23385   1.965   1.122   6.911  0.1264  1.5646 -0.6846
  914MOL0     H23386   2.040   1.189   7.152  0.3956 -1.3122  2.0161
  914MOL0     H23387   2.124   1.259   7.002 -2.1186 -0.0472  0.9355
  914MOL0     H23388   2.427   1.040   7.192 -0.3950  0.1144 -0.3906
  914MOL0     H23389   1.833   0.686   6.770  1.6592  0.0806  0.7214
  914MOL0     H23390   1.687   0.590   6.598  0.8327  0.9677  3.9565
  915MOL0     O23391   5.438   6.502   5.026  0.0448  0.1918  0.3586
  915MOL0     C23392   5.545   6.516   5.082  0.5941  0.4365  0.8092
  915MOL0     O23393   5.560   6.567   5.199  0.1040 -0.5257 -0.8518
  915MOL0     C23394   5.444   6.602   5.273  0.0735 -0.1572 -0.6205
  915MOL0     C23395   5.422   6.720   5.340 -0.3297  0.2682  0.4691
  915MOL0     C23396   5.319   6.735   5.430  1.1296  0.2821  0.3305
  915MOL0     C23397   5.236   6.630   5.468 -0.3388  0.2171  0.0088
  915MOL0     O23398   5.123   6.633   5.545 -0.1587 -0.2301  0.4541
  915MOL0     C23399   5.098   6.755   5.613  0.6667  0.1223 -1.0269
  915MOL0     C23400   5.013   6.721   5.725  0.7011  0.6617 -0.1878
  915MOL0     C23401   4.874   6.665   5.688 -0.0302  0.7834  0.4136
  915MOL0     C23402   4.872   6.509   5.654  0.6533  0.3201  0.2069
  915MOL0     C23403   4.733   6.463   5.611  0.0457 -0.0325 -0.1537
  915MOL0     C23404   4.690   6.532   5.478 -0.7754 -0.7438 -0.4368
  915MOL0     C23405   4.796   6.540   5.366  0.4990 -0.5736 -0.1464
  915MOL0     C23406   4.753   6.593   5.232 -0.5893  0.2070  0.5023
  915MOL0     N23407   4.666   6.704   5.227  0.5820 -0.2745  0.0091
  915MOL0     C23408   4.698   6.819   5.295  1.3233 -0.4366 -0.5949
  915MOL0     C23409   4.594   6.905   5.266 -0.5687 -0.9157  1.1337
  915MOL0     C23410   4.571   7.050   5.312  0.2984 -0.3312  0.3158
  915MOL0     C23411   4.435   7.070   5.373  0.6638 -0.0067 -0.7520
  915MOL0     C23412   4.320   7.079   5.271 -0.5985  0.3315  0.6843
  915MOL0     C23413   4.194   7.143   5.338 -0.3410 -0.3350 -1.0982
  915MOL0     O23414   4.082   7.141   5.240  0.0194 -0.0724 -0.2942
  915MOL0     C23415   3.959   7.156   5.296  0.4393 -0.3434  0.0097
  915MOL0     C23416   3.846   7.116   5.219  0.0263  0.3539 -0.9952
  915MOL0     C23417   3.722   7.108   5.282 -1.4498  0.4435  0.8161
  915MOL0     C23418   3.610   7.074   5.193 -0.2790  0.2193  0.1442
  915MOL0     C23419   3.697   7.160   5.407 -0.3848 -0.4020 -0.1135
  915MOL0     C23420   3.569   7.147   5.487 -0.9968 -0.5891  0.6167
  915MOL0     O23421   3.555   7.223   5.606  0.0600  0.2498  0.6185
  915MOL0     C23422   3.446   7.191   5.682  0.0807  0.1233 -0.6044
  915MOL0     C23423   3.361   7.297   5.704 -0.1221  0.2677  0.2169
  915MOL0     C23424   3.249   7.284   5.792  0.2681  0.2600  0.4644
  915MOL0     C23425   3.235   7.165   5.863  0.9237  0.2671  0.1194
  915MOL0     O23426   3.130   7.124   5.946  0.1356 -0.0746 -0.5683
  915MOL0     C23427   3.075   7.212   6.049 -0.0853  0.0852  0.2430
  915MOL0     C23428   2.989   7.133   6.151 -0.2084  0.0202  0.5781
  915MOL0     C23429   2.893   7.024   6.089  0.1454 -0.7779  0.5995
  915MOL0     C23430   2.768   7.018   6.169  0.4603 -0.0926  0.1702
  915MOL0     C23431   2.789   6.924   6.289  0.5217 -0.5062  0.2867
  915MOL0     C23432   2.662   6.918   6.388 -0.8158  0.2860 -0.1544
  915MOL0     C23433   2.706   6.835   6.514  0.1894  1.6361 -1.0872
  915MOL0     C23434   2.646   6.890   6.643 -0.1637 -0.7102  1.1192
  915MOL0    Cl23435   2.680   7.070   6.661  0.2504  0.3710  0.0770
  915MOL0     C23436   3.320   7.053   5.838 -0.8738 -0.4652 -0.0992
  915MOL0     C23437   3.428   7.069   5.746  0.1448  0.8215 -0.5485
  915MOL0     O23438   3.485   7.068   5.444 -0.0005 -0.1671 -0.2059
  915MOL0     C23439   3.808   7.211   5.482  0.2265  0.8210  0.4540
  915MOL0     C23440   3.940   7.211   5.426  0.4474 -0.1263  0.4312
  915MOL0     N23441   4.514   6.850   5.171 -0.3372  0.1380  1.1805
  915MOL0     N23442   4.563   6.733   5.142  0.1055 -0.4269 -0.4702
  915MOL0     C23443   5.256   6.507   5.403 -0.4752  0.0317  0.4408
  915MOL0     C23444   5.362   6.493   5.310 -0.1213  0.1753 -0.4295
  915MOL0     C23445   5.660   6.460   5.010  0.4047  0.2163 -0.0611
  915MOL0     C23446   5.786   6.476   5.048 -0.8338  0.4587 -0.3675
  915MOL0     C23447   5.899   6.430   4.973 -0.5051  0.5671 -0.5304
  915MOL0     C23448   5.877   6.362   4.848  0.3208  0.6976  0.0143
  915MOL0     O23449   5.983   6.298   4.778 -0.2819  0.4189  0.1872
  915MOL0     C23450   5.973   6.158   4.760  0.3781  0.5179  0.2320
  915MOL0     C23451   5.968   6.074   4.893 -0.2608  0.3668 -0.7070
  915MOL0     C23452   6.100   6.114   4.967 -0.2424 -0.0078  1.0083
  915MOL0     C23453   6.112   6.071   5.105 -0.0134 -0.5251  0.1429
  915MOL0     C23454   6.023   6.164   5.180 -1.0941  0.4144  0.0847
  915MOL0     C23455   5.971   6.250   5.256 -0.5866  0.0638 -0.1980
  915MOL0     C23456   5.747   6.357   4.793 -0.2932  0.3378 -0.6985
  915MOL0     C23457   5.646   6.411   4.877  0.8110  0.5137 -1.7988
  915MOL0     H23458   5.489   6.803   5.317  0.5170  0.3603  2.9557
  915MOL0     H23459   5.305   6.832   5.475  2.8296  0.4838  0.4743
  915MOL0     H23460   5.190   6.792   5.657  0.9663 -2.1421  0.3893
  915MOL0     H23461   5.056   6.829   5.544  0.2941 -0.2439 -1.1956
  915MOL0     H23462   5.058   6.653   5.797 -0.2759  1.2082  0.9879
  915MOL0     H23463   4.988   6.817   5.772  0.6640  0.3385  0.4632
  915MOL0     H23464   4.800   6.685   5.767  2.3877  0.6011  2.8688
  915MOL0     H23465   4.846   6.713   5.593  3.6125 -0.6394 -1.5764
  915MOL0     H23466   4.933   6.476   5.570  1.8448  0.8694  0.8333
  915MOL0     H23467   4.902   6.442   5.735 -1.8227 -1.9723 -0.6223
  915MOL0     H23468   4.727   6.356   5.590 -3.1806  0.1400 -0.5914
  915MOL0     H23469   4.659   6.473   5.692 -1.4731 -0.9411 -1.3732
  915MOL0     H23470   4.597   6.482   5.448 -1.1395 -0.6231  0.4506
  915MOL0     H23471   4.673   6.636   5.505 -1.4795 -0.9749  0.0436
  915MOL0     H23472   4.881   6.599   5.402  1.4425 -2.4613  0.8776
  915MOL0     H23473   4.842   6.443   5.345 -0.8162 -1.8267  2.2704
  915MOL0     H23474   4.714   6.506   5.178 -0.1381 -3.0866  4.9173
  915MOL0     H23475   4.838   6.632   5.175 -2.5432  2.1897 -1.2154
  915MOL0     H23476   4.782   6.828   5.362 -0.7907  0.1768  2.1404
  915MOL0     H23477   4.644   7.074   5.390 -0.1990  1.7734  0.1915
  915MOL0     H23478   4.587   7.113   5.225  0.8295 -0.8495  0.0324
  915MOL0     H23479   4.438   7.160   5.435 -1.3289  0.3820 -1.1525
  915MOL0     H23480   4.399   6.992   5.441 -3.0003  3.2598  1.4873
  915MOL0     H23481   4.295   6.984   5.223  0.4787  1.0053 -1.3472
  915MOL0     H23482   4.348   7.137   5.182  2.6597 -3.2209 -0.8861
  915MOL0     H23483   4.212   7.238   5.388  1.1839 -0.7805 -0.7335
  915MOL0     H23484   4.167   7.065   5.410 -1.2001  1.4055  0.5352
  915MOL0     H23485   3.858   7.073   5.120 -0.1333 -0.0302 -0.8501
  915MOL0     H23486   3.647   7.069   5.091  2.9859  0.7373  1.1762
  915MOL0     H23487   3.574   6.973   5.214 -0.2614 -0.0755 -1.1609
  915MOL0     H23488   3.530   7.148   5.199 -0.5685 -0.1167  0.4834
  915MOL0     H23489   3.375   7.392   5.654  4.1972  0.5371  1.5144
  915MOL0     H23490   3.180   7.365   5.814 -1.8614 -1.6100  1.0172
  915MOL0     H23491   3.156   7.270   6.095  0.0118  2.6439 -2.7843
  915MOL0     H23492   3.000   7.284   6.015 -2.6896 -1.4623  2.3324
  915MOL0     H23493   3.054   7.077   6.219 -0.3904 -1.0625 -0.1128
  915MOL0     H23494   2.937   7.207   6.213 -3.6733  0.9915 -3.0647
  915MOL0     H23495   2.933   6.923   6.088  0.1298 -0.8024  1.8924
  915MOL0     H23496   2.873   7.058   5.987  1.7232 -1.3128  0.0865
  915MOL0     H23497   2.742   7.118   6.204  1.0039  1.0121 -2.4154
  915MOL0     H23498   2.686   6.980   6.107  1.0273  0.4628 -0.9323
  915MOL0     H23499   2.864   6.952   6.363  0.1729  1.1481  0.0486
  915MOL0     H23500   2.805   6.828   6.239  0.3564  0.0812 -0.9262
  915MOL0     H23501   2.637   7.022   6.410 -1.3813  0.1708 -0.2398
  915MOL0     H23502   2.575   6.879   6.334  0.8631 -1.8808 -1.4556
  915MOL0     H23503   2.814   6.838   6.529  0.2372 -1.4140 -0.2295
  915MOL0     H23504   2.678   6.730   6.504  2.7516  0.8125 -0.2688
  915MOL0     H23505   2.686   6.838   6.731 -3.1617  0.6982  3.5258
  915MOL0     H23506   2.538   6.873   6.646  0.1213 -2.6371  2.6894
  915MOL0     H23507   3.314   6.956   5.886  0.1334 -0.7056 -0.4233
  915MOL0     H23508   3.495   6.987   5.723 -1.6782  0.2622 -4.9916
  915MOL0     H23509   3.796   7.253   5.581  0.3381 -0.1269  0.8764
  915MOL0     H23510   4.010   7.269   5.487  2.0005 -0.9434 -0.4940
  915MOL0     H23511   5.192   6.426   5.435 -2.7523  1.5456 -0.0692
  915MOL0     H23512   5.378   6.400   5.256 -2.8259 -0.3036 -0.5316
  915MOL0     H23513   5.808   6.522   5.143  1.9302 -1.4448  0.0324
  915MOL0     H23514   5.998   6.430   5.018  0.3496  0.8271 -2.3384
  915MOL0     H23515   5.886   6.122   4.703  0.8559 -0.0786 -0.1366
  915MOL0     H23516   6.065   6.139   4.703  1.7079  1.4928  1.9590
  915MOL0     H23517   5.950   5.966   4.881 -1.6528  0.3661  1.0111
  915MOL0     H23518   5.894   6.104   4.967  0.6811 -2.4826  1.5969
  915MOL0     H23519   6.100   6.223   4.974  1.6755  0.0440  0.7416
  915MOL0     H23520   6.188   6.087   4.906 -1.2601  0.9644 -0.9831
  915MOL0     H23521   6.215   6.083   5.140 -0.0240 -0.8525  0.2863
  915MOL0     H23522   6.085   5.966   5.121  3.2359 -1.5432 -0.3648
  915MOL0     H23523   5.921   6.330   5.306 -2.9273 -1.9979  0.9906
  915MOL0     H23524   5.718   6.298   4.707 -2.4180  0.8507 -0.3917
  915MOL0     H23525   5.546   6.406   4.835 -1.1683 -0.9608  2.5738
  916MOL0     O23526   4.453   7.010   2.801  0.1479  0.2481 -0.5186
  916MOL0     C23527   4.334   7.004   2.822  0.3281  0.3790 -0.3997
  916MOL0     O23528   4.234   7.010   2.725 -0.7058  0.0004 -0.0104
  916MOL0     C23529   4.274   7.033   2.591  0.4298  0.1924  0.4172
  916MOL0     C23530   4.218   7.139   2.515  0.6575 -0.1870  0.0144
  916MOL0     C23531   4.244   7.156   2.381 -0.7120  0.2775 -0.1881
  916MOL0     C23532   4.323   7.064   2.311  0.9974  1.5024 -0.5398
  916MOL0     O23533   4.339   7.092   2.181  0.3441 -0.0591 -0.2832
  916MOL0     C23534   4.312   6.989   2.091 -0.7069  0.4172  1.0174
  916MOL0     C23535   4.172   6.930   2.077  0.5310 -0.1872 -0.8138
  916MOL0     C23536   4.052   7.028   2.045 -0.3208 -0.1172  1.7302
  916MOL0     C23537   3.980   7.095   2.153  0.2655  0.6469 -0.5472
  916MOL0     C23538   3.867   7.175   2.099  0.1103 -0.1343 -0.0730
  916MOL0     C23539   3.776   7.225   2.220 -0.5270  0.1343 -0.1882
  916MOL0     C23540   3.835   7.290   2.343  0.4042  0.4041  0.1309
  916MOL0     C23541   3.915   7.420   2.309 -1.1012  0.4557 -0.3048
  916MOL0     N23542   3.847   7.508   2.220 -0.2702 -0.1443 -0.5921
  916MOL0     C23543   3.895   7.529   2.094  0.2110 -0.9519 -0.7001
  916MOL0     C23544   3.838   7.656   2.065  0.3250  0.5099 -0.1297
  916MOL0     C23545   3.862   7.743   1.945 -0.6859 -0.0603 -0.3692
  916MOL0     C23546   3.937   7.683   1.830  0.3550 -0.0171  0.3330
  916MOL0     C23547   3.933   7.773   1.701  0.1854 -0.5201 -0.6540
  916MOL0     C23548   3.987   7.703   1.568 -0.4445 -0.4705  0.7484
  916MOL0     O23549   3.984   7.802   1.468 -0.4693 -0.7952 -0.3550
  916MOL0     C23550   3.954   7.765   1.336 -0.3008 -0.2769 -0.4773
  916MOL0     C23551   3.953   7.875   1.241  0.0188  0.1305  0.1074
  916MOL0     C23552   3.921   7.852   1.102 -0.1933  0.5873  0.5021
  916MOL0     C23553   3.917   7.970   1.004  0.1181 -0.4303 -0.0378
  916MOL0     C23554   3.901   7.717   1.055  0.3047  0.0397  0.1653
  916MOL0     C23555   3.852   7.693   0.910 -0.5826 -0.0871 -0.4118
  916MOL0     O23556   3.735   7.751   0.871  0.1338 -0.6424  0.0863
  916MOL0     C23557   3.684   7.765   0.756  0.2891  0.3152  0.5240
  916MOL0     C23558   3.545   7.760   0.747 -0.0512 -0.4055 -0.1899
  916MOL0     C23559   3.483   7.746   0.623  1.1575  0.0501 -0.6442
  916MOL0     C23560   3.544   7.762   0.504 -0.5083  0.9239 -0.5367
  916MOL0     O23561   3.478   7.755   0.383  0.1859 -0.2356  0.0969
  916MOL0     C23562   3.525   7.676   0.275 -0.7375 -0.3796  0.5381
  916MOL0     C23563   3.462   7.718   0.148 -0.3992  0.1573 -0.1185
  916MOL0     C23564   3.524   7.651   0.022  0.2116  0.2228 -0.5126
  916MOL0     C23565   3.461   7.518  -0.007 -0.2779  0.5976  0.5102
  916MOL0     C23566   3.521   7.439  -0.121 -0.3791  0.2681 -0.1064
  916MOL0     C23567   3.545   7.517  -0.258 -0.4099  0.6788 -0.3934
  916MOL0     C23568   3.416   7.573  -0.318  0.1009 -0.8956  0.3090
  916MOL0     C23569   3.429   7.611  -0.464 -0.2650  0.2802  0.1621
  916MOL0    Cl23570   3.442   7.468  -0.558  0.1439  0.2592 -0.0745
  916MOL0     C23571   3.684   7.769   0.512  0.0230 -0.1248 -0.4625
  916MOL0     C23572   3.756   7.758   0.632  1.2090 -0.0302  0.0405
  916MOL0     O23573   3.920   7.613   0.837 -0.2243  0.2115 -0.7205
  916MOL0     C23574   3.907   7.614   1.155 -0.3366 -0.6600  0.3687
  916MOL0     C23575   3.926   7.638   1.287 -0.0765  0.7862 -2.0664
  916MOL0     N23576   3.744   7.694   2.162 -0.5513  0.2234 -0.0720
  916MOL0     N23577   3.743   7.601   2.246  0.0751  0.5891 -0.6098
  916MOL0     C23578   4.388   6.965   2.387 -0.2345 -0.4005 -0.2902
  916MOL0     C23579   4.355   6.943   2.519  0.2806  0.2721 -0.6196
  916MOL0     C23580   4.291   6.968   2.963 -0.4101 -0.7714  0.3195
  916MOL0     C23581   4.153   6.937   2.995  0.1391  0.8921  1.0718
  916MOL0     C23582   4.116   6.914   3.132 -0.1792  0.9649  0.5159
  916MOL0     C23583   4.212   6.912   3.234 -1.1665  0.4586  0.3059
  916MOL0     O23584   4.163   6.875   3.356 -0.8126  1.2020  0.5550
  916MOL0     C23585   4.257   6.822   3.455 -0.4156  0.6054 -0.3029
  916MOL0     C23586   4.188   6.841   3.585  0.1011  0.4500 -0.0193
  916MOL0     C23587   4.269   6.793   3.711  0.5989  0.1050 -0.4134
  916MOL0     C23588   4.187   6.835   3.834  0.7508  0.0406 -0.2599
  916MOL0     C23589   4.242   6.786   3.959 -0.0313  0.3012 -0.3665
  916MOL0     C23590   4.281   6.727   4.057 -1.0516 -0.8967 -0.2015
  916MOL0     C23591   4.339   6.958   3.206  0.5328  0.7129  0.8750
  916MOL0     C23592   4.380   6.974   3.074 -0.5362 -1.3143  0.2624
  916MOL0     H23593   4.160   7.218   2.563 -0.0573  0.2382 -1.4770
  916MOL0     H23594   4.192   7.240   2.334 -0.0745  0.5786 -0.3650
  916MOL0     H23595   4.338   7.014   1.988  0.9114  0.8736  1.5186
  916MOL0     H23596   4.385   6.909   2.106 -0.3026  0.1039 -2.0034
  916MOL0     H23597   4.181   6.851   2.002 -0.6815 -0.0648 -1.1122
  916MOL0     H23598   4.150   6.890   2.177  0.2567  0.9838 -0.3897
  916MOL0     H23599   4.101   7.101   1.980 -0.1173 -3.2798 -2.0757
  916MOL0     H23600   3.982   6.979   1.976  2.1986 -0.4445 -0.7935
  916MOL0     H23601   3.949   7.015   2.221  0.4408  1.5745  0.6640
  916MOL0     H23602   4.052   7.148   2.215  0.4009  0.0230 -0.1579
  916MOL0     H23603   3.903   7.262   2.045 -0.9580 -0.5152 -1.4454
  916MOL0     H23604   3.803   7.109   2.040 -0.4335 -2.1446  2.5524
  916MOL0     H23605   3.705   7.303   2.190 -1.8352  0.0398  2.3255
  916MOL0     H23606   3.728   7.133   2.255  3.0164 -2.6260 -2.0185
  916MOL0     H23607   3.751   7.326   2.403 -0.0949  0.3871 -0.5429
  916MOL0     H23608   3.893   7.220   2.405  1.2120 -0.8796 -1.9554
  916MOL0     H23609   4.018   7.403   2.275  0.1412  1.8112  2.4643
  916MOL0     H23610   3.932   7.483   2.397 -0.0040  2.5854 -1.9407
  916MOL0     H23611   3.964   7.479   2.028  0.2089  0.8177 -2.1319
  916MOL0     H23612   3.760   7.774   1.920 -1.8368 -1.5990  2.0414
  916MOL0     H23613   3.929   7.824   1.976 -1.2512  0.0384  0.6269
  916MOL0     H23614   3.887   7.588   1.809  2.1627 -1.2442  1.1834
  916MOL0     H23615   4.044   7.671   1.851  0.7375  1.9070 -0.3438
  916MOL0     H23616   3.979   7.872   1.710  1.0573 -0.7501 -2.2993
  916MOL0     H23617   3.827   7.797   1.693  0.8150  3.0600 -0.0768
  916MOL0     H23618   3.920   7.621   1.540 -1.6750  0.6946  0.1845
  916MOL0     H23619   4.090   7.667   1.569  0.0364  0.8654  1.6916
  916MOL0     H23620   3.994   7.972   1.271 -0.7077  0.2266  0.8147
  916MOL0     H23621   3.817   8.013   1.016  0.1797 -0.8777  2.7699
  916MOL0     H23622   4.000   8.038   1.026  0.7103 -0.7622 -1.1671
  916MOL0     H23623   3.928   7.939   0.900 -2.5230 -0.2235 -0.4380
  916MOL0     H23624   3.486   7.761   0.838 -0.3373  2.5750 -0.2854
  916MOL0     H23625   3.380   7.713   0.608  1.3992 -1.2087  0.3394
  916MOL0     H23626   3.632   7.694   0.263 -0.1878 -3.7229 -0.9768
  916MOL0     H23627   3.509   7.569   0.294 -2.6465 -0.1468  0.4147
  916MOL0     H23628   3.359   7.682   0.157  0.8382 -3.4147  1.5890
  916MOL0     H23629   3.464   7.827   0.143  0.1288  0.1106 -1.4183
  916MOL0     H23630   3.633   7.645   0.017  0.0964 -2.7081 -1.9951
  916MOL0     H23631   3.493   7.722  -0.055 -0.0117 -0.4282 -1.0364
  916MOL0     H23632   3.469   7.447   0.075 -2.2395 -3.7681 -2.6713
  916MOL0     H23633   3.354   7.511  -0.027 -0.4515 -0.5805  1.7200
  916MOL0     H23634   3.470   7.346  -0.148  0.8568 -0.7399  0.8732
  916MOL0     H23635   3.618   7.394  -0.094  0.7000 -0.5278 -4.5210
  916MOL0     H23636   3.613   7.601  -0.242 -0.6896  0.5323  2.0031
  916MOL0     H23637   3.609   7.465  -0.329 -0.1881  0.3411  0.0523
  916MOL0     H23638   3.394   7.666  -0.266 -0.7950 -1.3899  0.8305
  916MOL0     H23639   3.322   7.523  -0.292 -1.9136  3.8948  3.6094
  916MOL0     H23640   3.511   7.682  -0.476  0.3824 -0.3890  0.6167
  916MOL0     H23641   3.341   7.668  -0.496  0.0160  0.9480  0.5529
  916MOL0     H23642   3.746   7.781   0.424  0.9251 -1.5953 -0.0624
  916MOL0     H23643   3.863   7.771   0.634  1.0460  1.4343  1.7396
  916MOL0     H23644   3.907   7.510   1.124  0.7805 -0.8701  1.0283
  916MOL0     H23645   3.906   7.545   1.339  1.0125  1.3243 -0.6217
  916MOL0     H23646   4.454   6.898   2.333 -1.7667 -0.8294 -1.7212
  916MOL0     H23647   4.383   6.849   2.565  2.7867  1.2109 -0.0928
  916MOL0     H23648   4.084   6.919   2.914 -0.9394 -1.3551  2.3970
  916MOL0     H23649   4.018   6.887   3.169  0.2416  1.0318  1.7134
  916MOL0     H23650   4.272   6.715   3.437 -1.2345  0.2467  1.0764
  916MOL0     H23651   4.352   6.876   3.464  1.3620 -2.1274 -1.2963
  916MOL0     H23652   4.094   6.785   3.582  0.9990 -1.2663  1.8594
  916MOL0     H23653   4.158   6.946   3.589  0.7844  0.6525 -0.0925
  916MOL0     H23654   4.371   6.830   3.723  0.0525  1.6039 -0.0994
  916MOL0     H23655   4.258   6.684   3.717 -1.6438  0.1925 -1.5524
  916MOL0     H23656   4.089   6.786   3.831  1.7573 -2.0627 -3.2553
  916MOL0     H23657   4.177   6.944   3.830  2.6956  0.2250 -1.4854
  916MOL0     H23658   4.296   6.683   4.154 -0.8712 -1.6392 -0.5555
  916MOL0     H23659   4.412   6.950   3.286  1.3353 -4.1678 -0.0511
  916MOL0     H23660   4.486   6.994   3.061 -0.9733  5.1104  2.7774
  917MOL0     O23661   5.449   6.155   2.796 -0.5377 -0.1392  0.2376
  917MOL0     C23662   5.361   6.156   2.712 -0.2476  0.8003  0.6008
  917MOL0     O23663   5.256   6.243   2.710 -0.4225 -0.2174 -0.2287
  917MOL0     C23664   5.228   6.343   2.806  0.6618  0.5568  0.3191
  917MOL0     C23665   5.114   6.418   2.784 -0.3800  0.4051  0.6147
  917MOL0     C23666   5.056   6.495   2.877  0.0674  0.5014  0.2317
  917MOL0     C23667   5.114   6.513   3.006  0.3493 -0.0849 -0.7891
  917MOL0     O23668   5.061   6.580   3.101 -0.0552 -0.0222 -0.8915
  917MOL0     C23669   5.120   6.710   3.142 -0.5398 -0.2184  0.0331
  917MOL0     C23670   5.125   6.831   3.056 -0.5023  1.0949 -0.1008
  917MOL0     C23671   4.980   6.868   3.035  0.1691 -0.0688  0.9738
  917MOL0     C23672   4.970   6.985   2.936  1.6968  0.6287 -0.4430
  917MOL0     C23673   4.827   7.012   2.886 -0.2052  1.3189 -1.1771
  917MOL0     C23674   4.803   7.106   2.761  0.0582  0.2250 -0.7779
  917MOL0     C23675   4.857   7.053   2.628  0.6367  0.5394  0.1174
  917MOL0     C23676   4.769   6.957   2.549  0.5951  0.3941 -0.6326
  917MOL0     N23677   4.772   6.824   2.598  0.4063 -0.4756 -0.2992
  917MOL0     C23678   4.687   6.779   2.697 -0.5192  0.1767 -0.6068
  917MOL0     C23679   4.729   6.657   2.726 -0.0031 -0.0406  0.5230
  917MOL0     C23680   4.674   6.573   2.830 -0.5219  0.3142 -0.4204
  917MOL0     C23681   4.644   6.433   2.776  0.2911  0.1130 -0.2514
  917MOL0     C23682   4.550   6.352   2.865  0.1064 -0.1648  0.0725
  917MOL0     C23683   4.550   6.202   2.819 -0.7832 -0.0634  0.8329
  917MOL0     O23684   4.673   6.129   2.834  0.6707 -0.9999 -0.9050
  917MOL0     C23685   4.720   6.105   2.965 -0.1903 -0.7693  0.8783
  917MOL0     C23686   4.640   6.068   3.067 -0.2325 -0.7917 -0.1033
  917MOL0     C23687   4.679   6.076   3.195 -0.0022 -0.6468  0.7006
  917MOL0     C23688   4.573   6.048   3.306  0.6752 -1.2056  0.2150
  917MOL0     C23689   4.815   6.101   3.226  0.1341  0.6878  0.8586
  917MOL0     C23690   4.875   6.104   3.358  0.0509 -0.4419  0.1028
  917MOL0     O23691   4.803   6.168   3.447 -0.8594 -0.3504  0.6309
  917MOL0     C23692   4.860   6.162   3.571 -0.8863 -1.1773  1.0328
  917MOL0     C23693   4.801   6.088   3.669  0.3315 -0.4029 -0.3554
  917MOL0     C23694   4.853   6.087   3.802 -0.0633  1.1488  0.1571
  917MOL0     C23695   4.964   6.164   3.839 -0.5566 -0.8237  0.3340
  917MOL0     O23696   5.019   6.175   3.966  0.4563 -0.5640 -0.1781
  917MOL0     C23697   5.037   6.052   4.035  0.1196 -0.3707  0.4150
  917MOL0     C23698   5.184   6.025   4.048  0.6353 -0.5901 -0.2562
  917MOL0     C23699   5.197   5.918   4.155  0.2378  0.3469  0.0258
  917MOL0     C23700   5.350   5.879   4.188  0.3029 -0.6184  0.5985
  917MOL0     C23701   5.365   5.745   4.251 -1.3005 -0.0187  0.0631
  917MOL0     C23702   5.507   5.729   4.309 -0.1913 -0.1977  0.0909
  917MOL0     C23703   5.525   5.595   4.370 -0.9726  0.0635 -0.2908
  917MOL0     C23704   5.673   5.557   4.400  0.4390  0.4496 -0.2010
  917MOL0    Cl23705   5.676   5.434   4.515 -0.1212 -0.0265 -0.1011
  917MOL0     C23706   5.016   6.267   3.741  0.2393  0.2270  0.3033
  917MOL0     C23707   4.956   6.263   3.609 -0.2954  1.1098 -0.4027
  917MOL0     O23708   4.996   6.075   3.372 -0.0219 -0.1822  0.2296
  917MOL0     C23709   4.904   6.139   3.115  0.1848  0.1631 -0.4431
  917MOL0     C23710   4.851   6.136   2.991  0.1999 -1.5351  1.3144
  917MOL0     N23711   4.833   6.622   2.648  0.4096 -0.1864  0.0731
  917MOL0     N23712   4.849   6.721   2.563  0.2907 -0.2046 -0.3612
  917MOL0     C23713   5.241   6.451   3.025  0.5215 -0.3335 -1.1919
  917MOL0     C23714   5.293   6.367   2.929 -0.6770  0.7798 -0.0796
  917MOL0     C23715   5.355   6.043   2.604 -0.1331  0.6725  0.0028
  917MOL0     C23716   5.463   5.963   2.584 -0.7669  0.4469  0.7023
  917MOL0     C23717   5.455   5.856   2.494  0.0962 -0.4637 -0.3733
  917MOL0     C23718   5.338   5.828   2.428  0.5464  0.0918 -0.0113
  917MOL0     O23719   5.335   5.734   2.330 -0.6217 -0.4803  0.1649
  917MOL0     C23720   5.277   5.613   2.366 -0.3448 -0.1082 -0.6967
  917MOL0     C23721   5.212   5.538   2.247  0.3137  0.2528  0.6057
  917MOL0     C23722   5.320   5.457   2.176 -1.1452 -0.0140  0.6051
  917MOL0     C23723   5.252   5.378   2.048  0.1237  0.5676 -0.4806
  917MOL0     C23724   5.154   5.282   2.107 -0.4420  0.1549 -0.4411
  917MOL0     C23725   5.067   5.214   2.159 -0.6613  0.6021 -0.0136
  917MOL0     C23726   5.229   5.919   2.446  0.0052 -0.8948  0.0722
  917MOL0     C23727   5.237   6.025   2.528  0.4421  0.5100 -0.1275
  917MOL0     H23728   5.064   6.387   2.693  2.9799  0.3235 -1.3614
  917MOL0     H23729   4.957   6.535   2.857 -1.2589 -1.9797  1.3934
  917MOL0     H23730   5.069   6.738   3.235 -1.4789 -0.6095 -0.3484
  917MOL0     H23731   5.224   6.679   3.153 -0.6425 -3.1149 -4.3913
  917MOL0     H23732   5.182   6.912   3.102  0.3374  0.4406  0.0175
  917MOL0     H23733   5.178   6.812   2.962 -0.1548  0.9797  0.1204
  917MOL0     H23734   4.930   6.789   2.979  3.0849 -1.2002 -0.1826
  917MOL0     H23735   4.921   6.886   3.126 -0.2290 -2.1330  1.1690
  917MOL0     H23736   4.991   7.078   2.990 -0.7994 -1.3228  4.6032
  917MOL0     H23737   5.036   6.967   2.852  2.9363  1.6567  0.2653
  917MOL0     H23738   4.766   6.922   2.877 -3.4655  3.0634  1.1930
  917MOL0     H23739   4.778   7.055   2.975  0.8838 -1.9253  1.1577
  917MOL0     H23740   4.694   7.115   2.757 -0.6786 -2.9917  4.1457
  917MOL0     H23741   4.848   7.206   2.772  0.6827  0.0254 -1.4181
  917MOL0     H23742   4.852   7.146   2.570  0.9476  0.7760  0.4664
  917MOL0     H23743   4.961   7.021   2.637  1.1549  2.2095  0.5380
  917MOL0     H23744   4.807   6.963   2.447  0.2859  3.8147 -0.6778
  917MOL0     H23745   4.666   6.994   2.550  0.1710 -0.5630  2.5639
  917MOL0     H23746   4.620   6.838   2.760 -1.5131  0.2162 -1.6649
  917MOL0     H23747   4.752   6.565   2.906 -1.3873  0.5378  0.5119
  917MOL0     H23748   4.577   6.610   2.867 -2.6341 -2.7750 -2.4446
  917MOL0     H23749   4.735   6.375   2.755 -2.2420 -3.8837 -1.3364
  917MOL0     H23750   4.597   6.448   2.678  0.7020  3.8585 -0.0278
  917MOL0     H23751   4.455   6.404   2.884 -0.5539 -1.7853  1.5075
  917MOL0     H23752   4.591   6.358   2.966 -1.5060 -1.3026  0.8421
  917MOL0     H23753   4.521   6.214   2.714  0.1014 -2.2158  0.2891
  917MOL0     H23754   4.473   6.140   2.866 -0.0220 -0.1561  1.9952
  917MOL0     H23755   4.542   6.029   3.041  0.0468 -1.4152 -0.2594
  917MOL0     H23756   4.521   6.141   3.333 -3.3907 -2.9412 -0.9484
  917MOL0     H23757   4.492   5.983   3.272 -1.4530  2.2098 -1.8741
  917MOL0     H23758   4.608   6.004   3.400 -1.6796  0.2994  1.9088
  917MOL0     H23759   4.713   6.026   3.655 -0.9803  0.6437  2.4914
  917MOL0     H23760   4.809   6.032   3.885  1.0176 -0.1920 -0.1195
  917MOL0     H23761   4.987   6.062   4.131 -2.1988 -2.2159 -0.4785
  917MOL0     H23762   4.987   5.964   3.992 -2.5999  0.6363  1.2773
  917MOL0     H23763   5.221   5.993   3.951 -1.5787 -2.1032 -0.6569
  917MOL0     H23764   5.234   6.116   4.083  1.9692  0.5532 -4.5947
  917MOL0     H23765   5.139   5.828   4.133  1.9461 -0.4443 -1.4721
  917MOL0     H23766   5.156   5.959   4.247 -0.7020  1.0379 -0.6888
  917MOL0     H23767   5.405   5.875   4.094 -3.4461 -0.2261 -1.8237
  917MOL0     H23768   5.394   5.953   4.255 -0.2040  0.7257 -0.4943
  917MOL0     H23769   5.345   5.670   4.174  2.8605 -0.3670 -0.8874
  917MOL0     H23770   5.301   5.732   4.339 -0.8175 -0.1786  0.3906
  917MOL0     H23771   5.580   5.742   4.229  1.2005 -0.8143  1.2104
  917MOL0     H23772   5.535   5.800   4.387 -0.0243 -0.0405 -0.1128
  917MOL0     H23773   5.489   5.525   4.295 -1.4882  0.2412 -0.2083
  917MOL0     H23774   5.455   5.594   4.454 -0.1616  0.7151  0.4138
  917MOL0     H23775   5.726   5.639   4.450  4.5697 -1.2345 -1.4411
  917MOL0     H23776   5.728   5.530   4.310  0.3746 -1.0059  0.1690
  917MOL0     H23777   5.095   6.339   3.758  0.0520  1.2605 -2.6634
  917MOL0     H23778   4.985   6.339   3.538 -1.5839  3.2076  1.2141
  917MOL0     H23779   5.007   6.171   3.128 -0.1264  0.3327  2.1430
  917MOL0     H23780   4.912   6.171   2.908  1.8649 -0.3369  2.9755
  917MOL0     H23781   5.299   6.463   3.116  0.3182 -2.1522 -0.7848
  917MOL0     H23782   5.388   6.324   2.959 -0.3529  0.9557 -0.8431
  917MOL0     H23783   5.554   5.980   2.639 -0.8187 -0.0838  0.9669
  917MOL0     H23784   5.538   5.786   2.490  2.5864  2.3285 -1.0989
  917MOL0     H23785   5.342   5.544   2.420  0.0278  1.0346  0.3434
  917MOL0     H23786   5.198   5.629   2.440  1.1982  0.1971  0.9315
  917MOL0     H23787   5.178   5.620   2.183  0.3628  0.1712  0.4754
  917MOL0     H23788   5.120   5.495   2.286 -1.3844  3.1032  0.0831
  917MOL0     H23789   5.363   5.383   2.243 -1.3455 -0.3248  0.3929
  917MOL0     H23790   5.392   5.529   2.136 -0.7541  1.2457  3.3781
  917MOL0     H23791   5.326   5.318   1.994 -2.0205  0.0999 -3.1244
  917MOL0     H23792   5.198   5.436   1.973 -1.9919  1.9472  1.9395
  917MOL0     H23793   5.004   5.147   2.214 -1.5627  0.2017 -1.4671
  917MOL0     H23794   5.140   5.921   2.384 -0.5855  3.2739  0.7530
  917MOL0     H23795   5.156   6.097   2.530  1.2418  1.5908 -2.6941
  918MOL0     O23796   4.807   8.688   4.821 -0.2300 -0.2039 -0.5171
  918MOL0     C23797   4.692   8.676   4.861  0.1424 -0.0194  0.3696
  918MOL0     O23798   4.638   8.746   4.966  0.2411 -0.2616  0.1918
  918MOL0     C23799   4.716   8.831   5.039  0.1735 -0.2792 -0.0175
  918MOL0     C23800   4.734   8.958   4.994  1.7596  0.0368  0.2807
  918MOL0     C23801   4.811   9.040   5.071 -0.3949 -1.2703 -0.0745
  918MOL0     C23802   4.872   9.000   5.192 -0.6102 -0.3295  0.2871
  918MOL0     O23803   4.960   9.081   5.269  0.5453  0.4401  0.2695
  918MOL0     C23804   4.910   9.214   5.305 -0.1279  1.0663 -0.4546
  918MOL0     C23805   4.981   9.246   5.434  0.5759  0.7140 -0.3378
  918MOL0     C23806   4.900   9.365   5.498 -0.2055 -0.0956 -0.8235
  918MOL0     C23807   4.910   9.493   5.413 -0.0086  0.2292  0.6291
  918MOL0     C23808   5.050   9.535   5.381  0.0473 -0.6479 -0.2481
  918MOL0     C23809   5.054   9.680   5.310 -0.0891 -0.2715 -0.0256
  918MOL0     C23810   5.026   9.684   5.161 -1.0724 -0.2401  0.9061
  918MOL0     C23811   5.016   9.829   5.100  0.2635 -0.5150 -0.5092
  918MOL0     N23812   4.874   9.873   5.108 -0.0637  0.1097 -0.5451
  918MOL0     C23813   4.831  10.003   5.088  0.4370 -0.6236 -0.0566
  918MOL0     C23814   4.699  10.012   5.127  0.8495 -0.3716 -0.2108
  918MOL0     C23815   4.620  10.130   5.150 -0.2825  0.6966  0.4567
  918MOL0     C23816   4.531  10.152   5.028  0.4502 -0.5350 -1.0176
  918MOL0     C23817   4.449  10.273   5.049 -0.4867 -0.3814 -0.3963
  918MOL0     C23818   4.366  10.306   4.921 -0.0545 -0.0208  0.3213
  918MOL0     O23819   4.288  10.416   4.945  0.6695 -0.4341  0.2850
  918MOL0     C23820   4.200  10.456   4.836 -0.7784  0.3365 -0.0604
  918MOL0     C23821   4.091  10.531   4.873 -0.9006 -0.5398  0.3090
  918MOL0     C23822   3.992  10.573   4.781 -0.0129 -0.1847  0.5268
  918MOL0     C23823   3.872  10.643   4.845  0.7746  0.3803  0.7875
  918MOL0     C23824   4.003  10.543   4.645  0.9701 -0.9573 -0.2599
  918MOL0     C23825   3.902  10.585   4.543  0.5767  0.3616  0.2734
  918MOL0     O23826   3.787  10.667   4.578 -0.5944  0.9893  0.4516
  918MOL0     C23827   3.700  10.720   4.475  0.0704  0.1050  0.2792
  918MOL0     C23828   3.610  10.823   4.516  0.2733 -0.2621  1.0703
  918MOL0     C23829   3.518  10.882   4.420  0.2555  0.0043 -0.2481
  918MOL0     C23830   3.509  10.829   4.294  0.9368 -0.4980 -0.6121
  918MOL0     O23831   3.417  10.867   4.204 -0.6580 -0.0291  0.4175
  918MOL0     C23832   3.289  10.920   4.247  0.3136  0.7450  0.0633
  918MOL0     C23833   3.210  10.949   4.108  0.3768 -0.2174  0.3905
  918MOL0     C23834   3.264  11.073   4.032 -0.0764 -0.5437  0.5396
  918MOL0     C23835   3.187  11.080   3.903  0.9531  0.0909  0.0929
  918MOL0     C23836   3.035  11.123   3.919  0.1071 -0.1656 -0.2314
  918MOL0     C23837   2.972  11.142   3.781  1.6658 -1.3576  0.1053
  918MOL0     C23838   2.998  11.266   3.723 -0.5129 -0.6040 -0.2524
  918MOL0     C23839   2.974  11.257   3.568  0.3175 -0.5136  0.3418
  918MOL0    Cl23840   3.098  11.165   3.502  0.1917  0.0463  0.4713
  918MOL0     C23841   3.603  10.730   4.258 -0.2085 -0.4403  0.3095
  918MOL0     C23842   3.690  10.674   4.339 -0.0260 -1.0887 -0.4780
  918MOL0     O23843   3.939  10.559   4.430  0.0281 -0.4445  0.5342
  918MOL0     C23844   4.118  10.470   4.611 -0.0673 -0.2732  0.0662
  918MOL0     C23845   4.214  10.415   4.707 -0.0881 -0.4331 -0.1531
  918MOL0     N23846   4.666   9.884   5.181  0.1736  1.1764  0.0483
  918MOL0     N23847   4.768   9.808   5.162 -1.1812 -0.2704 -0.2315
  918MOL0     C23848   4.845   8.870   5.238  0.2914  0.5929  0.2572
  918MOL0     C23849   4.778   8.777   5.151  0.2321  0.1586  0.0988
  918MOL0     C23850   4.613   8.574   4.807 -0.4764 -0.1437  0.3993
  918MOL0     C23851   4.502   8.523   4.876  0.6743 -0.5038 -0.2635
  918MOL0     C23852   4.393   8.457   4.810 -0.2011  0.6476 -0.5821
  918MOL0     C23853   4.412   8.417   4.669  0.6389  0.8892  0.5076
  918MOL0     O23854   4.328   8.328   4.596  0.0882  0.1031  0.3513
  918MOL0     C23855   4.184   8.351   4.622 -0.9194  0.6602  0.2482
  918MOL0     C23856   4.125   8.377   4.482  2.0501 -0.3647  0.4092
  918MOL0     C23857   4.172   8.526   4.445  0.0308  1.2152 -0.0028
  918MOL0     C23858   4.203   8.547   4.292  0.4798 -1.2044  0.1992
  918MOL0     C23859   4.345   8.506   4.264 -0.7622  0.0325 -0.3827
  918MOL0     C23860   4.455   8.468   4.246  0.6539 -0.0722 -0.1619
  918MOL0     C23861   4.534   8.446   4.610  0.1572  0.0643  0.0626
  918MOL0     C23862   4.634   8.516   4.680  0.5619 -0.3940  0.1943
  918MOL0     H23863   4.686   8.983   4.900  1.6920 -2.2903 -0.3795
  918MOL0     H23864   4.844   9.136   5.031  0.3253 -2.1461 -1.6852
  918MOL0     H23865   4.939   9.289   5.231 -2.7603  3.5644  0.8911
  918MOL0     H23866   4.803   9.228   5.322  0.4167  3.5494  1.4896
  918MOL0     H23867   4.988   9.163   5.504 -1.8648  0.5650 -0.1955
  918MOL0     H23868   5.081   9.271   5.397 -1.0011  2.9278 -3.6490
  918MOL0     H23869   4.794   9.342   5.514  0.1428  0.8323  4.1908
  918MOL0     H23870   4.952   9.387   5.592 -1.3156  4.5408 -1.0862
  918MOL0     H23871   4.869   9.473   5.314 -1.9715  0.3380  1.3743
  918MOL0     H23872   4.847   9.573   5.453 -1.9610 -1.5402  1.2758
  918MOL0     H23873   5.112   9.535   5.471 -0.3668  0.8419  0.0754
  918MOL0     H23874   5.088   9.467   5.305 -0.6274  0.0091 -1.2094
  918MOL0     H23875   4.983   9.749   5.357  0.1345  1.1536 -1.6428
  918MOL0     H23876   5.157   9.713   5.323 -0.9336  1.9404  1.6878
  918MOL0     H23877   5.115   9.649   5.108 -3.9138 -0.6835 -4.0753
  918MOL0     H23878   4.933   9.636   5.131 -1.5499  1.1260  0.1342
  918MOL0     H23879   5.050   9.823   4.996  1.2253  1.2746 -0.3326
  918MOL0     H23880   5.071   9.902   5.159 -1.7038 -0.7763  1.7838
  918MOL0     H23881   4.891  10.085   5.048 -1.1870  0.3366 -0.6039
  918MOL0     H23882   4.564  10.117   5.244 -1.2697  1.4182 -0.0130
  918MOL0     H23883   4.684  10.218   5.155 -0.3068  1.0460 -3.0388
  918MOL0     H23884   4.461  10.069   5.019  0.5271 -0.7628  0.4059
  918MOL0     H23885   4.584  10.140   4.933  0.4726  0.8409 -1.2019
  918MOL0     H23886   4.507  10.359   5.083  0.1481  0.0350 -2.3978
  918MOL0     H23887   4.379  10.248   5.129  1.0358 -0.1458  1.0600
  918MOL0     H23888   4.306  10.219   4.891  2.5009 -0.5532 -4.3578
  918MOL0     H23889   4.442  10.328   4.846 -1.4904 -1.5016 -1.6950
  918MOL0     H23890   4.077  10.557   4.978 -1.0934  0.9124 -0.0538
  918MOL0     H23891   3.869  10.619   4.951 -1.0592 -2.3677  0.2328
  918MOL0     H23892   3.868  10.752   4.835  2.6335  0.3711 -0.4666
  918MOL0     H23893   3.781  10.589   4.817  0.0647  1.1898  1.4687
  918MOL0     H23894   3.608  10.875   4.611  0.5011 -1.0786  1.5409
  918MOL0     H23895   3.463  10.974   4.440  1.1999  0.8211 -1.2821
  918MOL0     H23896   3.247  10.841   4.309  1.9677  0.6346  1.0951
  918MOL0     H23897   3.300  11.011   4.308  0.5751  0.9134 -0.2320
  918MOL0     H23898   3.205  10.861   4.043  1.1963  0.7690 -1.0445
  918MOL0     H23899   3.108  10.980   4.135  0.4042  0.5286 -0.3317
  918MOL0     H23900   3.368  11.056   4.003 -0.4919  1.5455 -2.6112
  918MOL0     H23901   3.258  11.168   4.086 -1.5314 -0.7390  0.7638
  918MOL0     H23902   3.231  11.158   3.840  0.2164  0.1500 -0.3627
  918MOL0     H23903   3.207  10.987   3.850 -0.1840 -0.3541  0.4003
  918MOL0     H23904   3.038  11.221   3.968  1.0138 -0.4377  0.2710
  918MOL0     H23905   2.974  11.053   3.976  2.1332 -0.6829  1.4169
  918MOL0     H23906   2.996  11.063   3.709  1.0018 -0.6857 -0.8728
  918MOL0     H23907   2.863  11.143   3.786  1.2738  5.4087 -0.6008
  918MOL0     H23908   3.099  11.299   3.750 -1.0113 -0.1348  1.0829
  918MOL0     H23909   2.920  11.331   3.762 -0.9619  0.0198 -2.0683
  918MOL0     H23910   2.971  11.356   3.521  3.2001 -1.3324 -1.8477
  918MOL0     H23911   2.873  11.220   3.550 -0.1847  0.5976  0.7524
  918MOL0     H23912   3.598  10.714   4.151 -0.9495  0.8165  0.1368
  918MOL0     H23913   3.760  10.603   4.295 -0.2260 -0.0428 -2.6064
  918MOL0     H23914   4.149  10.456   4.508  0.1087  2.1440 -0.2696
  918MOL0     H23915   4.295  10.356   4.665  0.5194  0.0287  0.3515
  918MOL0     H23916   4.863   8.826   5.335 -2.7483 -2.2082 -0.2524
  918MOL0     H23917   4.777   8.675   5.187  0.5757  0.3473  0.6570
  918MOL0     H23918   4.504   8.542   4.983  3.9767 -2.7221  0.2274
  918MOL0     H23919   4.301   8.425   4.858 -0.6722  1.1785 -1.1059
  918MOL0     H23920   4.143   8.265   4.675  2.4928 -0.0796  1.9452
  918MOL0     H23921   4.170   8.433   4.693  1.4088  0.5979  0.8714
  918MOL0     H23922   4.016   8.376   4.480  2.0087  1.5189  0.0011
  918MOL0     H23923   4.167   8.307   4.409  2.6688  0.8766 -0.4751
  918MOL0     H23924   4.264   8.556   4.496  0.7041  0.6997 -0.8809
  918MOL0     H23925   4.087   8.584   4.482 -2.2528 -2.4350  1.1289
  918MOL0     H23926   4.192   8.655   4.277 -0.8771 -0.9650  2.4429
  918MOL0     H23927   4.125   8.497   4.233  0.4683 -2.5461  1.2859
  918MOL0     H23928   4.552   8.424   4.230  1.2102  0.8090  0.7054
  918MOL0     H23929   4.552   8.391   4.518  3.0554  0.8899  0.0105
  918MOL0     H23930   4.720   8.554   4.626 -0.7592 -0.7058 -2.2838
  919MOL0     O23931   7.914   2.851  11.396 -0.4139 -0.3110 -0.6943
  919MOL0     C23932   8.024   2.792  11.393 -0.4880 -1.1931  0.2689
  919MOL0     O23933   8.054   2.683  11.324 -0.7969 -0.3800 -0.2626
  919MOL0     C23934   7.968   2.640  11.232 -0.0707 -0.6052 -0.6052
  919MOL0     C23935   7.923   2.510  11.263 -0.1978  0.6049 -0.6637
  919MOL0     C23936   7.841   2.446  11.157  0.3278 -0.1112 -0.6073
  919MOL0     C23937   7.821   2.512  11.038 -0.2353  0.5421 -0.3198
  919MOL0     O23938   7.747   2.454  10.936 -0.1815  0.1629 -0.1138
  919MOL0     C23939   7.777   2.310  10.919  0.2057 -0.1588  0.0718
  919MOL0     C23940   7.756   2.260  10.778  0.1805 -0.1542 -0.7987
  919MOL0     C23941   7.874   2.280  10.684 -0.0203  0.2023  0.2746
  919MOL0     C23942   7.893   2.427  10.651 -0.5150  1.2181 -0.4177
  919MOL0     C23943   8.013   2.455  10.560  0.1641 -0.7780 -0.0006
  919MOL0     C23944   7.983   2.580  10.480  0.3742  0.0283  0.1313
  919MOL0     C23945   8.102   2.608  10.393  0.7619  0.7886 -0.2017
  919MOL0     C23946   8.094   2.754  10.322  0.1113 -0.1648  0.2671
  919MOL0     N23947   8.004   2.736  10.207  0.0790 -0.5330 -0.5055
  919MOL0     C23948   8.050   2.698  10.083  0.0559  1.1021  0.2149
  919MOL0     C23949   7.943   2.670  10.007  0.4580  0.0207 -0.5636
  919MOL0     C23950   7.930   2.634   9.866  0.2525  0.5296  0.6626
  919MOL0     C23951   8.032   2.708   9.777 -0.2645 -0.6926 -0.5143
  919MOL0     C23952   8.040   2.655   9.629 -0.8258 -0.6584  0.8404
  919MOL0     C23953   8.097   2.510   9.620  0.9810 -0.7022 -0.1560
  919MOL0     O23954   8.099   2.460   9.487  0.4682 -0.3858 -0.2780
  919MOL0     C23955   8.180   2.516   9.397 -0.0424  0.0303 -1.1202
  919MOL0     C23956   8.191   2.441   9.279  0.3058 -0.3756  0.6263
  919MOL0     C23957   8.285   2.475   9.183  0.4865  0.2658 -0.0330
  919MOL0     C23958   8.274   2.388   9.061  0.2995  0.2431  0.7602
  919MOL0     C23959   8.374   2.580   9.203  0.3970 -0.6884  1.5563
  919MOL0     C23960   8.479   2.626   9.094  0.6769  0.1133 -0.5346
  919MOL0     O23961   8.574   2.723   9.138  0.3522 -0.6289  0.0503
  919MOL0     C23962   8.641   2.806   9.053 -0.0529 -0.3241 -0.0948
  919MOL0     C23963   8.613   2.828   8.918 -0.3572  0.4350 -0.4760
  919MOL0     C23964   8.703   2.904   8.835 -0.4714  0.1447 -0.4114
  919MOL0     C23965   8.820   2.959   8.886  0.5100 -0.7255 -0.4106
  919MOL0     O23966   8.896   3.038   8.807 -0.2452 -0.4874 -0.5916
  919MOL0     C23967   8.888   3.180   8.810  0.4130  0.7288 -0.3023
  919MOL0     C23968   8.801   3.224   8.701 -0.2104  0.1376  0.8376
  919MOL0     C23969   8.827   3.151   8.568 -0.0288  0.6364 -0.0180
  919MOL0     C23970   8.930   3.224   8.492  0.2455  0.8475 -0.6781
  919MOL0     C23971   8.973   3.142   8.366  0.0060 -0.9476 -0.1128
  919MOL0     C23972   8.872   3.138   8.250 -0.6994  0.1071 -0.0941
  919MOL0     C23973   8.915   3.051   8.137  0.7325  1.1981  0.4204
  919MOL0     C23974   8.900   2.899   8.154  0.6133  0.6817 -0.0163
  919MOL0    Cl23975   8.732   2.875   8.204  0.1211  0.5718 -0.2185
  919MOL0     C23976   8.845   2.950   9.028  0.2007 -0.1782  0.5635
  919MOL0     C23977   8.754   2.869   9.104  0.2041  0.5190  0.4470
  919MOL0     O23978   8.484   2.572   8.979 -1.0153 -0.9645  0.5531
  919MOL0     C23979   8.354   2.658   9.315 -0.5186  0.3805 -0.1993
  919MOL0     C23980   8.273   2.620   9.424  0.0240 -0.0395 -0.0866
  919MOL0     N23981   7.835   2.678  10.087 -0.1346 -0.2463  0.4643
  919MOL0     N23982   7.868   2.722  10.202 -0.2506  0.6272 -0.3424
  919MOL0     C23983   7.860   2.644  11.019  0.6893  0.1624 -0.0365
  919MOL0     C23984   7.936   2.704  11.114 -0.6868  0.2115  0.1137
  919MOL0     C23985   8.136   2.878  11.449 -0.4056 -0.4329  0.0098
  919MOL0     C23986   8.107   2.997  11.523 -0.1409 -0.0331  0.0775
  919MOL0     C23987   8.206   3.080  11.590 -0.1091  0.4112 -0.1682
  919MOL0     C23988   8.339   3.043  11.590 -1.1665 -0.2473 -0.4414
  919MOL0     O23989   8.433   3.110  11.668  0.3699  0.3645 -0.3045
  919MOL0     C23990   8.443   3.256  11.668 -0.3634  0.3130  0.1687
  919MOL0     C23991   8.589   3.288  11.618 -1.1052 -0.0714 -0.3450
  919MOL0     C23992   8.704   3.227  11.696  0.1230  0.2421  0.0020
  919MOL0     C23993   8.835   3.310  11.667  1.1184 -0.7317  0.4219
  919MOL0     C23994   8.941   3.264  11.755  0.3379  0.1586 -0.4393
  919MOL0     C23995   9.033   3.219  11.827  0.4204 -0.5240 -0.4442
  919MOL0     C23996   8.376   2.935  11.502  0.2295 -0.5623  0.0792
  919MOL0     C23997   8.277   2.849  11.436 -0.0651  0.5729 -0.4144
  919MOL0     H23998   7.946   2.462  11.358  3.2264 -0.0331 -1.6838
  919MOL0     H23999   7.804   2.346  11.180  1.3330 -0.3123  0.2353
  919MOL0     H24000   7.880   2.288  10.949  0.1621 -0.2524  0.1520
  919MOL0     H24001   7.715   2.253  10.988 -1.1550  1.8191  0.5444
  919MOL0     H24002   7.728   2.155  10.791  1.3847 -0.2405  1.4740
  919MOL0     H24003   7.665   2.308  10.740  0.2016  0.2750 -0.3222
  919MOL0     H24004   7.965   2.239  10.729  1.1118  0.4765 -1.6465
  919MOL0     H24005   7.852   2.229  10.589  0.1193  2.1325 -0.8541
  919MOL0     H24006   7.798   2.463  10.610 -2.1269 -1.4395  0.7395
  919MOL0     H24007   7.892   2.490  10.740 -5.2284  1.8066 -0.6190
  919MOL0     H24008   8.114   2.461  10.602 -0.1179 -3.4017  1.2578
  919MOL0     H24009   8.022   2.371  10.492  2.3026 -1.8924  1.5487
  919MOL0     H24010   7.891   2.564  10.424  0.6578  1.3799 -0.7689
  919MOL0     H24011   7.967   2.655  10.559 -0.0721  1.9331 -1.6892
  919MOL0     H24012   8.189   2.623  10.458 -0.4890 -0.5644  1.8737
  919MOL0     H24013   8.123   2.525  10.325  0.0763 -0.2307  0.8074
  919MOL0     H24014   8.191   2.775  10.277  0.3028  1.4418  1.3479
  919MOL0     H24015   8.074   2.835  10.393  1.6540  0.0345  0.5126
  919MOL0     H24016   8.154   2.689  10.056 -0.0949 -2.5234  0.3023
  919MOL0     H24017   7.946   2.526   9.855 -0.2291  0.2976  2.0727
  919MOL0     H24018   7.834   2.676   9.837  0.3632  2.2670  2.5617
  919MOL0     H24019   8.127   2.698   9.831 -1.1215 -0.3995  1.1330
  919MOL0     H24020   7.996   2.811   9.776  1.7218  0.0421 -0.3050
  919MOL0     H24021   8.102   2.734   9.588  1.4594 -1.8349  1.8608
  919MOL0     H24022   7.941   2.658   9.581  0.0123 -0.5914 -0.9520
  919MOL0     H24023   8.025   2.443   9.668 -0.2018  1.1644  0.8134
  919MOL0     H24024   8.196   2.499   9.663  1.2661 -0.2063 -0.6658
  919MOL0     H24025   8.120   2.363   9.256  0.9386  0.2357 -4.3785
  919MOL0     H24026   8.286   2.442   8.967  3.8590  0.3138  1.1147
  919MOL0     H24027   8.361   2.322   9.064 -0.8095 -1.3415  0.0897
  919MOL0     H24028   8.185   2.323   9.059  1.2221 -1.0726 -0.3703
  919MOL0     H24029   8.533   2.778   8.864 -0.2898 -1.1288  0.7883
  919MOL0     H24030   8.677   2.928   8.732  0.3205 -2.1394 -1.2157
  919MOL0     H24031   8.868   3.221   8.910  1.4617 -0.6419  0.5021
  919MOL0     H24032   8.990   3.215   8.792  1.4584 -1.9404  0.0014
  919MOL0     H24033   8.696   3.198   8.718 -0.4898  0.8021  0.1672
  919MOL0     H24034   8.809   3.331   8.683  0.1392  0.1030  0.7861
  919MOL0     H24035   8.729   3.158   8.521 -1.8370 -0.4399  3.2889
  919MOL0     H24036   8.854   3.046   8.583  2.0122  1.1433  0.2428
  919MOL0     H24037   8.895   3.321   8.458  1.8208  1.0463 -1.8350
  919MOL0     H24038   9.024   3.232   8.548 -1.8133 -0.6203  3.4538
  919MOL0     H24039   8.980   3.041   8.407 -2.7925 -1.1011  0.1866
  919MOL0     H24040   9.065   3.186   8.326 -1.7536  1.5213 -1.7205
  919MOL0     H24041   8.778   3.100   8.290  0.4015 -3.0850 -0.2563
  919MOL0     H24042   8.865   3.239   8.209 -0.6032 -1.1945 -3.6851
  919MOL0     H24043   9.018   3.079   8.111  0.8466  0.8909  0.5326
  919MOL0     H24044   8.855   3.076   8.049  1.0748 -1.7204 -0.7809
  919MOL0     H24045   8.966   2.869   8.236 -1.0596 -1.1876  0.7163
  919MOL0     H24046   8.926   2.838   8.067 -0.1013 -0.7288  0.7176
  919MOL0     H24047   8.919   3.008   9.082 -0.0462 -1.8091  2.7730
  919MOL0     H24048   8.768   2.847   9.210 -1.7233 -0.0523  0.6366
  919MOL0     H24049   8.399   2.757   9.329 -3.7849  1.8145  1.1198
  919MOL0     H24050   8.276   2.677   9.516  0.7441 -0.8300  0.4054
  919MOL0     H24051   7.837   2.696  10.927 -0.4142  1.0082  0.6894
  919MOL0     H24052   7.963   2.807  11.095 -2.0480  1.4514  4.0078
  919MOL0     H24053   8.007   3.033  11.547 -0.8129 -0.0439 -2.4969
  919MOL0     H24054   8.166   3.168  11.640  1.1424  0.4190  0.8598
  919MOL0     H24055   8.365   3.289  11.599  0.5687  4.1480  0.6753
  919MOL0     H24056   8.432   3.309  11.763  1.5475  1.1981 -0.0498
  919MOL0     H24057   8.589   3.398  11.624  0.1550  0.0101 -1.3787
  919MOL0     H24058   8.606   3.250  11.517  2.1110  1.6859 -0.5804
  919MOL0     H24059   8.718   3.120  11.680  0.1282  0.4510 -1.5943
  919MOL0     H24060   8.690   3.234  11.804  2.0776  1.8331  0.2129
  919MOL0     H24061   8.813   3.415  11.689 -0.7365 -1.2516  1.2637
  919MOL0     H24062   8.859   3.290  11.563 -2.3302 -1.8492 -0.2901
  919MOL0     H24063   9.107   3.173  11.889 -0.0312 -0.7299 -0.0476
  919MOL0     H24064   8.479   2.901  11.492 -0.6009 -3.1286 -0.5672
  919MOL0     H24065   8.310   2.771  11.369 -0.9178  0.0280 -0.2160
  920MOL0     O24066   5.578   6.372   7.509 -0.2019 -0.3720 -0.4879
  920MOL0     C24067   5.522   6.477   7.471 -0.3143  0.6540 -0.8910
  920MOL0     O24068   5.411   6.488   7.387 -0.0208 -1.1213 -0.5841
  920MOL0     C24069   5.372   6.369   7.336  0.7127  0.7105 -0.1540
  920MOL0     C24070   5.296   6.271   7.408  0.0649 -0.3915  1.0795
  920MOL0     C24071   5.232   6.157   7.347 -0.7297 -0.1779  0.1711
  920MOL0     C24072   5.254   6.145   7.203  0.2677  0.2082  0.4366
  920MOL0     O24073   5.187   6.043   7.131 -0.8003 -0.1252  0.9445
  920MOL0     C24074   5.191   5.914   7.198  0.2214 -0.3038  0.3670
  920MOL0     C24075   5.152   5.812   7.099 -0.4979 -0.1845 -0.2102
  920MOL0     C24076   5.184   5.665   7.157  0.2918  0.6565 -0.1285
  920MOL0     C24077   5.149   5.558   7.061 -0.3344 -0.3332 -0.1814
  920MOL0     C24078   5.006   5.569   7.014 -0.6402 -0.0666 -0.7142
  920MOL0     C24079   4.964   5.430   6.971  0.0181  0.3648  0.3955
  920MOL0     C24080   4.817   5.411   6.925  0.7319  0.3653  0.3727
  920MOL0     C24081   4.793   5.270   6.862  0.1719 -0.7134  0.0581
  920MOL0     N24082   4.889   5.237   6.753 -0.3899 -0.1130  0.5434
  920MOL0     C24083   4.909   5.305   6.633  0.1556 -0.0887 -0.6941
  920MOL0     C24084   5.003   5.246   6.568 -0.2917 -1.0424 -1.1023
  920MOL0     C24085   5.063   5.289   6.432  0.0523 -0.1699  0.5957
  920MOL0     C24086   4.992   5.232   6.312  0.7970  0.2219 -0.3418
  920MOL0     C24087   4.959   5.075   6.317 -0.6056 -0.9131  0.8804
  920MOL0     C24088   4.837   5.032   6.396 -0.5411  0.6495 -0.2962
  920MOL0     O24089   4.793   4.894   6.377  0.0400  0.6116 -0.1738
  920MOL0     C24090   4.875   4.791   6.423 -0.3302 -0.4043 -0.3179
  920MOL0     C24091   4.836   4.654   6.410 -0.5028  0.4232  0.4854
  920MOL0     C24092   4.894   4.547   6.475 -1.0922  0.0269 -0.2092
  920MOL0     C24093   4.819   4.418   6.491  0.0549 -0.4515  0.5006
  920MOL0     C24094   5.021   4.566   6.541  0.7736 -0.2927 -0.6678
  920MOL0     C24095   5.104   4.458   6.603  0.5483 -0.6143 -0.4425
  920MOL0     O24096   5.221   4.507   6.657  0.2758 -0.1899 -0.3590
  920MOL0     C24097   5.295   4.432   6.750 -0.5783  0.0913  1.0441
  920MOL0     C24098   5.243   4.350   6.843  1.1312 -0.1422  0.3671
  920MOL0     C24099   5.319   4.298   6.946 -0.3231  0.3544  0.0499
  920MOL0     C24100   5.465   4.294   6.941 -0.9257 -0.0613  0.1913
  920MOL0     O24101   5.556   4.243   7.026 -0.8631 -0.3139 -0.4554
  920MOL0     C24102   5.501   4.179   7.147  0.5045 -0.5085  0.2641
  920MOL0     C24103   5.605   4.081   7.218 -0.5292 -0.3355  0.1867
  920MOL0     C24104   5.544   3.957   7.297 -0.2050  0.0079 -0.1046
  920MOL0     C24105   5.501   3.849   7.204  0.1896 -0.7139 -0.2543
  920MOL0     C24106   5.441   3.738   7.272 -0.2757 -0.0017 -0.0918
  920MOL0     C24107   5.519   3.681   7.386  0.3873  0.2779  0.2581
  920MOL0     C24108   5.441   3.580   7.464 -0.4091  0.0994 -0.3800
  920MOL0     C24109   5.507   3.549   7.600 -0.3001 -0.3668  0.7262
  920MOL0    Cl24110   5.410   3.421   7.684  0.3137  0.4774 -0.3227
  920MOL0     C24111   5.510   4.361   6.825 -0.5137 -0.1768 -0.9438
  920MOL0     C24112   5.432   4.434   6.736 -0.0137 -0.6515 -0.1787
  920MOL0     O24113   5.071   4.344   6.617  0.0883 -0.5863  0.6530
  920MOL0     C24114   5.067   4.701   6.547  0.7080 -0.3375 -0.4237
  920MOL0     C24115   4.990   4.811   6.502  0.3609 -0.3050 -0.2922
  920MOL0     N24116   5.040   5.142   6.647  0.8886 -0.7954  0.2885
  920MOL0     N24117   4.985   5.138   6.761  0.3185 -0.2512 -0.1242
  920MOL0     C24118   5.330   6.241   7.133 -1.5033 -0.0977 -0.1477
  920MOL0     C24119   5.385   6.352   7.196  0.8471 -0.9090 -0.2431
  920MOL0     C24120   5.567   6.609   7.535  1.1624 -0.1880 -0.2526
  920MOL0     C24121   5.679   6.619   7.618 -0.4930  0.8607  0.2338
  920MOL0     C24122   5.715   6.741   7.672 -0.3093 -0.3660  0.2950
  920MOL0     C24123   5.650   6.861   7.651  0.1460  0.3600  0.0109
  920MOL0     O24124   5.680   6.988   7.702 -0.6977  0.2707  0.1846
  920MOL0     C24125   5.765   6.988   7.822 -0.9039  0.8089 -0.0149
  920MOL0     C24126   5.763   7.131   7.873 -0.2895 -0.6500 -0.1922
  920MOL0     C24127   5.618   7.194   7.891  0.1809  0.3795  0.1580
  920MOL0     C24128   5.563   7.138   8.020  0.6112 -0.6264 -0.2027
  920MOL0     C24129   5.638   7.202   8.132  1.0543 -0.5530 -0.9327
  920MOL0     C24130   5.691   7.257   8.231 -0.3447 -0.0957  0.0889
  920MOL0     C24131   5.533   6.848   7.572  0.5689 -0.0060 -0.2487
  920MOL0     C24132   5.499   6.729   7.510  1.4368 -0.0130  0.2527
  920MOL0     H24133   5.298   6.297   7.513 -1.8837  0.6609  0.9099
  920MOL0     H24134   5.176   6.084   7.404 -0.9942 -2.3155 -2.5792
  920MOL0     H24135   5.294   5.904   7.235 -0.7212  0.4922  3.5839
  920MOL0     H24136   5.125   5.914   7.285 -1.1450 -3.7913 -0.5235
  920MOL0     H24137   5.047   5.833   7.076  0.0414  2.2184 -0.7836
  920MOL0     H24138   5.207   5.836   7.008  0.2494 -0.0185  0.2677
  920MOL0     H24139   5.292   5.662   7.173  0.3996 -2.4237 -0.7100
  920MOL0     H24140   5.133   5.643   7.251 -0.1757  1.5918 -0.1511
  920MOL0     H24141   5.208   5.568   6.969 -1.1405 -1.6223 -0.8698
  920MOL0     H24142   5.166   5.461   7.109 -2.3504 -0.7669 -0.2576
  920MOL0     H24143   4.947   5.598   7.101  0.5461 -2.8736  1.1732
  920MOL0     H24144   5.011   5.641   6.932  0.4349 -0.1966 -0.7717
  920MOL0     H24145   5.026   5.403   6.885 -0.0162 -0.4310  0.6125
  920MOL0     H24146   4.986   5.363   7.054 -0.8444 -0.4117  0.0044
  920MOL0     H24147   4.758   5.416   7.017  2.2306  0.0160  1.3925
  920MOL0     H24148   4.791   5.495   6.860 -1.6132 -0.8267 -0.3157
  920MOL0     H24149   4.693   5.269   6.816  0.3807 -1.4343 -0.3938
  920MOL0     H24150   4.795   5.194   6.940 -0.4912 -0.2035  0.5806
  920MOL0     H24151   4.843   5.386   6.604 -1.5645 -1.7005 -1.5515
  920MOL0     H24152   5.040   5.395   6.421 -0.5209 -0.5103 -1.9611
  920MOL0     H24153   5.172   5.278   6.424  0.1327  0.1835  1.1051
  920MOL0     H24154   5.038   5.255   6.216 -0.0770 -0.1966 -0.8766
  920MOL0     H24155   4.897   5.285   6.321  1.7070  1.6908  1.2000
  920MOL0     H24156   5.049   5.015   6.331  0.8046  0.2747 -2.1263
  920MOL0     H24157   4.925   5.051   6.216 -0.3004  1.7417  0.0673
  920MOL0     H24158   4.764   5.100   6.353  2.4507  1.7024 -4.2825
  920MOL0     H24159   4.851   5.050   6.503 -0.1186 -2.3986  0.2761
  920MOL0     H24160   4.755   4.636   6.340 -0.7265  0.5371  0.7121
  920MOL0     H24161   4.712   4.435   6.483  0.1582  1.1372  2.0549
  920MOL0     H24162   4.847   4.352   6.408  0.5847 -1.0384  1.1384
  920MOL0     H24163   4.838   4.376   6.590  4.0174  0.4036  0.2894
  920MOL0     H24164   5.136   4.337   6.846  0.6152  2.4336 -2.3369
  920MOL0     H24165   5.266   4.252   7.028  1.1598 -1.8867 -0.1636
  920MOL0     H24166   5.482   4.253   7.226  1.5490 -0.9100  0.9205
  920MOL0     H24167   5.405   4.131   7.123 -0.0374  0.5561  0.2495
  920MOL0     H24168   5.679   4.046   7.145  0.8435 -0.0019  1.3688
  920MOL0     H24169   5.675   4.132   7.285  1.2367 -2.4051  0.0450
  920MOL0     H24170   5.454   3.979   7.355 -1.7923 -1.8861 -1.6905
  920MOL0     H24171   5.631   3.916   7.349 -0.2441 -0.1772 -0.1860
  920MOL0     H24172   5.424   3.878   7.132  0.5776 -1.0110 -0.8010
  920MOL0     H24173   5.588   3.817   7.145  0.0537 -0.5292 -0.5593
  920MOL0     H24174   5.430   3.655   7.201 -0.7781  1.2124 -1.5018
  920MOL0     H24175   5.343   3.774   7.303 -2.6540 -2.7228 -3.5500
  920MOL0     H24176   5.621   3.657   7.357  0.5431  1.8111 -0.5119
  920MOL0     H24177   5.525   3.758   7.464 -2.3593  0.0651  0.7830
  920MOL0     H24178   5.438   3.485   7.411  0.0568 -0.8575  1.2136
  920MOL0     H24179   5.340   3.612   7.490 -0.6060 -1.8582  1.6235
  920MOL0     H24180   5.514   3.635   7.668 -0.8043 -2.4504  3.5874
  920MOL0     H24181   5.610   3.522   7.576  0.3193 -1.4569  4.0696
  920MOL0     H24182   5.618   4.367   6.821 -0.3244  0.9625  2.5413
  920MOL0     H24183   5.473   4.507   6.667 -0.1948  0.1236  0.5238
  920MOL0     H24184   5.158   4.724   6.601  0.6959 -2.8981  0.8305
  920MOL0     H24185   5.027   4.910   6.526 -2.2079 -0.0097  3.2697
  920MOL0     H24186   5.333   6.234   7.024  1.4410  2.1269 -0.3157
  920MOL0     H24187   5.436   6.428   7.137  0.1153 -1.2982 -1.4118
  920MOL0     H24188   5.740   6.534   7.643 -1.2027  0.2892  0.0633
  920MOL0     H24189   5.803   6.743   7.736 -0.6410  2.5573  0.8301
  920MOL0     H24190   5.711   6.925   7.892 -2.5985 -0.5986 -2.4586
  920MOL0     H24191   5.870   6.959   7.813 -0.9042  1.0010 -0.7072
  920MOL0     H24192   5.806   7.206   7.807  1.9499  1.9210  3.7823
  920MOL0     H24193   5.830   7.129   7.959  2.2036 -0.7653 -2.0296
  920MOL0     H24194   5.555   7.170   7.805 -0.0499 -1.8910  0.9099
  920MOL0     H24195   5.629   7.303   7.899  0.2877  0.2546  2.1767
  920MOL0     H24196   5.575   7.030   8.035  1.3992 -0.8158 -1.9279
  920MOL0     H24197   5.456   7.160   8.031  1.1276  1.1822  1.9249
  920MOL0     H24198   5.744   7.313   8.305  2.4047 -1.1844 -0.9259
  920MOL0     H24199   5.458   6.925   7.566 -0.2475 -0.5080  2.2894
  920MOL0     H24200   5.401   6.735   7.464  0.4290  2.1037  2.4306
  921MOL0     O24201   8.763   3.020   0.534 -0.4539 -0.1509  0.9996
  921MOL0     C24202   8.833   2.921   0.563  0.3682 -0.6681  0.2867
  921MOL0     O24203   8.812   2.798   0.525  0.3423  0.1281  0.6087
  921MOL0     C24204   8.699   2.747   0.462  0.7222 -0.4778  0.4319
  921MOL0     C24205   8.579   2.814   0.418 -0.0294 -0.7107  0.2664
  921MOL0     C24206   8.472   2.756   0.354  0.2395  0.8993  0.1050
  921MOL0     C24207   8.469   2.620   0.321 -0.0700  0.3783 -0.0034
  921MOL0     O24208   8.370   2.551   0.261  0.1272 -0.4490  0.3654
  921MOL0     C24209   8.257   2.611   0.211  0.6028 -0.2155 -0.5854
  921MOL0     C24210   8.150   2.644   0.328 -0.2920  0.3530 -0.2452
  921MOL0     C24211   8.023   2.708   0.272 -0.9180 -0.0869 -1.2656
  921MOL0     C24212   7.925   2.606   0.210 -0.6654 -0.5762 -0.1031
  921MOL0     C24213   7.798   2.662   0.177  0.3994  0.3595 -0.7138
  921MOL0     C24214   7.705   2.554   0.118  0.1113 -0.4893 -0.1089
  921MOL0     C24215   7.585   2.621   0.057 -0.0768 -0.3250  0.1979
  921MOL0     C24216   7.484   2.515  -0.000 -0.4117  0.9375  1.2890
  921MOL0     N24217   7.419   2.598  -0.103  0.3051  0.4746  0.7443
  921MOL0     C24218   7.484   2.630  -0.220  0.9254  0.3223 -0.2912
  921MOL0     C24219   7.387   2.699  -0.294 -0.2313  0.8002  0.0759
  921MOL0     C24220   7.413   2.744  -0.430  0.0412 -0.6234  0.7947
  921MOL0     C24221   7.370   2.636  -0.525 -0.2425  0.5458  1.4175
  921MOL0     C24222   7.407   2.683  -0.673 -0.2746  0.2525  0.4851
  921MOL0     C24223   7.412   2.557  -0.757 -0.2225  0.8973  0.9131
  921MOL0     O24224   7.376   2.584  -0.894 -1.0743  0.2306 -0.4252
  921MOL0     C24225   7.433   2.488  -0.969  0.3200  0.3620 -0.3823
  921MOL0     C24226   7.431   2.351  -0.947  1.1548 -0.5879 -0.2537
  921MOL0     C24227   7.521   2.265  -1.026 -0.6894 -1.2024  0.5749
  921MOL0     C24228   7.510   2.116  -1.007 -0.8177  0.1219 -0.1178
  921MOL0     C24229   7.615   2.324  -1.111 -0.5195  0.5163 -0.4559
  921MOL0     C24230   7.703   2.246  -1.195  0.6176 -0.4003  0.2633
  921MOL0     O24231   7.820   2.310  -1.227 -0.2380 -0.0771 -0.0978
  921MOL0     C24232   7.913   2.235  -1.294 -0.0881  0.4486  1.0449
  921MOL0     C24233   7.984   2.299  -1.395 -0.2543 -0.0369 -0.0353
  921MOL0     C24234   8.093   2.244  -1.473  0.8164  0.1973 -0.5174
  921MOL0     C24235   8.127   2.110  -1.441 -0.4561 -1.0676 -0.0186
  921MOL0     O24236   8.231   2.049  -1.511  0.4988 -0.1013  0.1398
  921MOL0     C24237   8.188   1.954  -1.616 -0.8860 -0.2285  0.0670
  921MOL0     C24238   8.296   1.932  -1.723  0.2879  0.9931 -0.0513
  921MOL0     C24239   8.301   2.057  -1.811  0.0704 -1.0221 -0.3212
  921MOL0     C24240   8.386   2.044  -1.932  0.1291  0.9232 -0.0785
  921MOL0     C24241   8.446   2.181  -1.971  0.5219 -0.2896 -1.5063
  921MOL0     C24242   8.500   2.179  -2.110  0.4458 -0.5204  0.2236
  921MOL0     C24243   8.579   2.299  -2.140 -0.3340  0.0113  0.0139
  921MOL0     C24244   8.669   2.268  -2.253  0.2557 -0.2726  0.9474
  921MOL0    Cl24245   8.764   2.398  -2.334  0.1878  0.1811 -0.0333
  921MOL0     C24246   8.056   2.039  -1.349  1.1254 -0.0105  0.6697
  921MOL0     C24247   7.944   2.102  -1.281  0.3784  0.8593 -0.1458
  921MOL0     O24248   7.674   2.129  -1.230  0.8129  0.4047 -0.4436
  921MOL0     C24249   7.624   2.460  -1.120 -0.4031 -0.3061  0.4602
  921MOL0     C24250   7.537   2.533  -1.051  0.6297 -0.9908 -0.2572
  921MOL0     N24251   7.290   2.731  -0.202 -0.0975 -0.2255  0.9414
  921MOL0     N24252   7.295   2.662  -0.089 -0.0130  0.0928  0.6529
  921MOL0     C24253   8.585   2.548   0.368  1.1372  0.1309 -0.0728
  921MOL0     C24254   8.689   2.611   0.436  0.3616  0.6845 -0.3072
  921MOL0     C24255   8.964   2.939   0.631  0.4726 -0.5205 -0.5313
  921MOL0     C24256   9.009   3.069   0.682  0.0390 -0.1333  0.8324
  921MOL0     C24257   9.133   3.081   0.740 -0.0555  0.5913 -0.8224
  921MOL0     C24258   9.206   2.972   0.771 -0.4043  1.1068  0.3351
  921MOL0     O24259   9.328   2.970   0.836 -0.3980  0.5779 -0.4582
  921MOL0     C24260   9.364   3.090   0.912  1.1059  0.4766  0.5281
  921MOL0     C24261   9.490   3.047   0.980  0.1786  0.5187 -0.2828
  921MOL0     C24262   9.605   3.019   0.880 -0.8093 -0.2830  0.1111
  921MOL0     C24263   9.681   2.896   0.941  0.3400 -0.7995 -0.5092
  921MOL0     C24264   9.753   2.931   1.067  0.3763 -0.1686 -0.2496
  921MOL0     C24265   9.811   2.966   1.171  0.8028 -0.4085  0.0033
  921MOL0     C24266   9.161   2.846   0.723 -0.7235 -0.1737 -0.4784
  921MOL0     C24267   9.041   2.831   0.671  0.5654  1.5585 -0.2742
  921MOL0     H24268   8.586   2.922   0.421 -3.1388 -0.4338  0.7454
  921MOL0     H24269   8.399   2.831   0.324 -0.8227  0.5255  1.6162
  921MOL0     H24270   8.280   2.704   0.159  0.2969 -0.2234 -0.7371
  921MOL0     H24271   8.218   2.543   0.134  2.3542 -3.5689  1.2489
  921MOL0     H24272   8.117   2.551   0.375 -2.1686  2.1048  2.2017
  921MOL0     H24273   8.200   2.712   0.398 -0.1331  0.6787 -0.6738
  921MOL0     H24274   7.971   2.736   0.364 -2.0327  2.4258 -2.5434
  921MOL0     H24275   8.035   2.792   0.203 -0.0518  0.9420  0.0954
  921MOL0     H24276   7.962   2.571   0.113  0.6720  0.2156  0.0942
  921MOL0     H24277   7.918   2.512   0.266  1.4854  0.2309  1.6539
  921MOL0     H24278   7.764   2.688   0.278 -0.7166 -1.1298 -0.6641
  921MOL0     H24279   7.799   2.756   0.121  0.2626  0.7325 -0.1018
  921MOL0     H24280   7.756   2.504   0.035  1.7206 -0.2433  0.7125
  921MOL0     H24281   7.669   2.484   0.194 -2.1829 -1.1450 -1.6905
  921MOL0     H24282   7.526   2.680   0.127 -2.0393 -1.3434 -0.4867
  921MOL0     H24283   7.628   2.686  -0.019  0.5386  1.8812  2.3185
  921MOL0     H24284   7.412   2.479   0.074 -0.6995  0.5578  0.8265
  921MOL0     H24285   7.526   2.422  -0.040 -1.6904  0.0241  2.0040
  921MOL0     H24286   7.586   2.597  -0.239  0.2749 -2.4968  0.5253
  921MOL0     H24287   7.358   2.833  -0.463  0.3152 -0.8218 -0.2231
  921MOL0     H24288   7.520   2.765  -0.423  0.1959 -1.9490  4.2735
  921MOL0     H24289   7.262   2.620  -0.520 -1.1260  0.4549 -6.2011
  921MOL0     H24290   7.412   2.543  -0.484 -1.2827  0.7036  2.9464
  921MOL0     H24291   7.497   2.744  -0.683 -0.6047  0.9112  1.3667
  921MOL0     H24292   7.324   2.742  -0.712  0.9940  2.2442  0.6412
  921MOL0     H24293   7.342   2.486  -0.711  0.3312 -0.8371 -0.7640
  921MOL0     H24294   7.511   2.514  -0.741  1.1450  2.8851 -1.4989
  921MOL0     H24295   7.342   2.313  -0.897  1.2851  2.0668  2.2917
  921MOL0     H24296   7.470   2.073  -1.099 -0.6313 -1.4519  0.4917
  921MOL0     H24297   7.602   2.064  -0.979 -1.8697 -1.1203  1.1967
  921MOL0     H24298   7.437   2.102  -0.926 -0.5807  0.9205  0.2450
  921MOL0     H24299   7.951   2.401  -1.411 -0.6072  0.2218  2.0773
  921MOL0     H24300   8.152   2.306  -1.540 -0.9261  2.1086 -0.3869
  921MOL0     H24301   8.182   1.855  -1.571 -1.6813 -2.6290 -4.6346
  921MOL0     H24302   8.090   1.979  -1.657 -0.8462  1.5675  0.9606
  921MOL0     H24303   8.388   1.897  -1.674 -0.5212 -0.5340  0.4454
  921MOL0     H24304   8.269   1.862  -1.802  1.0490  1.7428 -0.9993
  921MOL0     H24305   8.350   2.130  -1.746  0.2919 -1.7533  0.3568
  921MOL0     H24306   8.196   2.085  -1.828  0.6675  1.7096 -0.0443
  921MOL0     H24307   8.463   1.969  -1.913 -0.6427  0.3452  0.8345
  921MOL0     H24308   8.337   2.001  -2.019 -1.1618 -1.7084  1.8337
  921MOL0     H24309   8.522   2.220  -1.903 -0.7708  1.2781 -0.8950
  921MOL0     H24310   8.367   2.257  -1.966  2.9268  2.5163 -2.7068
  921MOL0     H24311   8.570   2.095  -2.121  4.4431  2.5635 -0.3719
  921MOL0     H24312   8.424   2.171  -2.188  1.2567 -1.2334 -0.5278
  921MOL0     H24313   8.652   2.308  -2.059 -1.1086 -2.1268  1.0070
  921MOL0     H24314   8.518   2.389  -2.158  1.8334  1.3575 -1.0591
  921MOL0     H24315   8.613   2.220  -2.334 -0.7443  0.1883  1.3462
  921MOL0     H24316   8.745   2.197  -2.221 -0.3984 -0.5520  1.9491
  921MOL0     H24317   8.084   1.934  -1.348  0.8292 -0.1065 -0.2588
  921MOL0     H24318   7.890   2.043  -1.208 -0.3604  1.6681 -0.0229
  921MOL0     H24319   7.706   2.518  -1.162  0.1032 -1.0874  0.3405
  921MOL0     H24320   7.557   2.639  -1.047  2.8827 -1.4192  1.7315
  921MOL0     H24321   8.607   2.444   0.349 -1.4835 -0.7868  1.5042
  921MOL0     H24322   8.768   2.539   0.455 -0.1317 -0.7620 -3.2086
  921MOL0     H24323   8.948   3.154   0.653  0.1644 -0.8994 -2.0033
  921MOL0     H24324   9.161   3.177   0.782  1.6029 -1.1823  2.5619
  921MOL0     H24325   9.382   3.177   0.848 -0.0749  0.1329 -0.3163
  921MOL0     H24326   9.281   3.108   0.981 -1.2574 -2.7983 -1.1543
  921MOL0     H24327   9.464   2.959   1.040  0.1398 -0.0167 -1.0561
  921MOL0     H24328   9.529   3.115   1.056  1.0129 -0.6558  0.3834
  921MOL0     H24329   9.675   3.103   0.870 -1.5770  0.2686 -0.9099
  921MOL0     H24330   9.561   2.985   0.786  2.2763 -2.4737 -0.7053
  921MOL0     H24331   9.751   2.864   0.863  0.2456  1.7530 -1.7322
  921MOL0     H24332   9.600   2.825   0.958  0.1708 -1.3868 -3.2286
  921MOL0     H24333   9.880   3.011   1.239  1.2944  0.6633 -1.1619
  921MOL0     H24334   9.220   2.756   0.737  0.4320  0.6910  0.4722
  921MOL0     H24335   8.982   2.740   0.663 -1.4369  2.6586  1.1307
  922MOL0     O24336   2.336   4.167   7.970 -0.6014  0.0398  0.5330
  922MOL0     C24337   2.372   4.063   8.025 -0.0055 -0.1294 -0.3560
  922MOL0     O24338   2.341   3.935   7.996 -0.8715  0.7151 -0.2391
  922MOL0     C24339   2.288   3.910   7.870  0.3319  0.7286  0.2202
  922MOL0     C24340   2.144   3.900   7.849 -0.8522  0.8104  0.5289
  922MOL0     C24341   2.090   3.875   7.726 -0.5473 -1.1725  0.6660
  922MOL0     C24342   2.172   3.845   7.618 -0.0812  0.2334  0.8499
  922MOL0     O24343   2.118   3.816   7.492  0.1661  0.0635  0.4647
  922MOL0     C24344   2.201   3.844   7.378 -0.6977 -0.2224  0.0036
  922MOL0     C24345   2.240   3.711   7.307 -0.2394 -1.0033  0.2430
  922MOL0     C24346   2.121   3.639   7.234  0.4079  0.4062  1.0099
  922MOL0     C24347   2.166   3.505   7.175 -1.6949  0.1621 -0.4037
  922MOL0     C24348   2.047   3.427   7.125  0.5062  0.3020  0.4306
  922MOL0     C24349   1.957   3.497   7.017 -0.5242 -0.3213  0.2729
  922MOL0     C24350   1.849   3.399   6.958  0.3660  0.0278 -0.3182
  922MOL0     C24351   1.766   3.452   6.846  0.3057 -0.4951 -0.1106
  922MOL0     N24352   1.636   3.372   6.822 -0.4578  0.4550 -0.7583
  922MOL0     C24353   1.637   3.253   6.763  1.1496  0.1419 -0.4831
  922MOL0     C24354   1.504   3.219   6.755  0.0316 -0.6595  0.7206
  922MOL0     C24355   1.445   3.098   6.685  0.0080 -0.3537  0.3948
  922MOL0     C24356   1.430   3.132   6.537  0.3453 -0.0619 -0.1943
  922MOL0     C24357   1.555   3.098   6.456  0.3743  1.4178 -0.0887
  922MOL0     C24358   1.548   2.946   6.429 -0.3969  0.4285  0.4037
  922MOL0     O24359   1.661   2.895   6.350 -0.0569 -0.5978 -0.2739
  922MOL0     C24360   1.788   2.905   6.401  0.3318 -0.1864 -0.0664
  922MOL0     C24361   1.899   2.922   6.317 -0.7280 -0.6445  0.2353
  922MOL0     C24362   2.030   2.940   6.370 -1.1871  0.1511  0.3322
  922MOL0     C24363   2.142   2.975   6.278 -0.7664  0.8782  0.0938
  922MOL0     C24364   2.055   2.938   6.508  0.5349  0.5374  1.2095
  922MOL0     C24365   2.187   2.951   6.580  0.5398  0.0337 -0.0266
  922MOL0     O24366   2.205   3.044   6.680  0.0950 -0.6105  0.0241
  922MOL0     C24367   2.312   3.038   6.766 -0.1427 -0.3591 -0.2613
  922MOL0     C24368   2.420   2.954   6.769 -0.0124 -0.3912  0.6943
  922MOL0     C24369   2.518   2.951   6.861 -0.2344 -0.5140 -0.6254
  922MOL0     C24370   2.508   3.053   6.965  0.5239  0.3134 -0.4605
  922MOL0     O24371   2.590   3.064   7.080 -0.0375  0.6330 -0.9407
  922MOL0     C24372   2.651   2.944   7.123 -0.6838 -0.2169  0.2125
  922MOL0     C24373   2.758   2.985   7.226  0.8075 -0.2113  0.2454
  922MOL0     C24374   2.802   2.867   7.309  0.2645 -0.5399  0.1504
  922MOL0     C24375   2.932   2.895   7.379  0.0058 -0.1984 -0.1206
  922MOL0     C24376   2.991   2.765   7.447  0.5962 -0.1932  0.5713
  922MOL0     C24377   3.115   2.802   7.525 -0.4465  0.3106  0.7003
  922MOL0     C24378   3.165   2.689   7.604  0.0369  0.0736 -0.2963
  922MOL0     C24379   3.225   2.734   7.735 -0.2715 -0.5676 -0.1951
  922MOL0    Cl24380   3.315   2.612   7.819  0.1852  0.0803 -0.4788
  922MOL0     C24381   2.399   3.141   6.970  0.3684 -0.2357 -0.1611
  922MOL0     C24382   2.303   3.139   6.865  0.1758 -1.0167 -0.0651
  922MOL0     O24383   2.263   2.869   6.531 -0.4580 -0.5443  0.9207
  922MOL0     C24384   1.946   2.904   6.586  0.0619 -0.0818  0.2166
  922MOL0     C24385   1.815   2.893   6.539  0.3148  1.5066 -0.5360
  922MOL0     N24386   1.428   3.313   6.819 -0.2205 -0.2437  0.8348
  922MOL0     N24387   1.508   3.406   6.859 -0.3097 -0.0376 -0.6256
  922MOL0     C24388   2.310   3.825   7.647  0.6854 -0.7293 -1.3488
  922MOL0     C24389   2.371   3.868   7.764 -0.0991 -0.1340 -1.1512
  922MOL0     C24390   2.465   4.079   8.142  0.2082  0.9860  0.3487
  922MOL0     C24391   2.508   4.204   8.186 -0.7044  0.0630 -0.8608
  922MOL0     C24392   2.604   4.214   8.294 -0.2044 -0.2120 -0.0849
  922MOL0     C24393   2.654   4.095   8.356  0.6901  0.8861  0.6881
  922MOL0     O24394   2.748   4.099   8.458  0.7811  0.6997  0.5776
  922MOL0     C24395   2.870   4.178   8.437  0.0763  0.2348 -0.6181
  922MOL0     C24396   2.958   4.179   8.562 -0.2349 -0.5924  0.4307
  922MOL0     C24397   3.097   4.239   8.542 -0.5352 -0.3613  0.3495
  922MOL0     C24398   3.207   4.189   8.639 -0.4621  1.0194 -0.9841
  922MOL0     C24399   3.178   4.230   8.784 -0.5993  0.6437  1.2478
  922MOL0     C24400   3.154   4.269   8.896 -1.2361  0.7961  0.2837
  922MOL0     C24401   2.602   3.976   8.307  1.1788 -0.5356 -0.1433
  922MOL0     C24402   2.517   3.962   8.198 -0.5686 -0.8187  0.8273
  922MOL0     H24403   2.076   3.919   7.931  0.0900  0.2495  1.4678
  922MOL0     H24404   1.990   3.888   7.689  0.3292  0.2108 -1.3679
  922MOL0     H24405   2.147   3.903   7.304  1.6976 -0.9269 -2.4429
  922MOL0     H24406   2.284   3.910   7.404 -0.2875 -0.7083 -0.0672
  922MOL0     H24407   2.312   3.739   7.230 -0.5558 -2.9969 -0.8384
  922MOL0     H24408   2.296   3.649   7.377  2.7130  2.4631  1.2712
  922MOL0     H24409   2.033   3.627   7.298 -1.5735  2.0028 -1.1886
  922MOL0     H24410   2.086   3.707   7.155  0.5117 -1.1636 -0.4510
  922MOL0     H24411   2.243   3.505   7.097 -1.7829  1.0502 -0.5093
  922MOL0     H24412   2.196   3.450   7.265 -1.5753 -2.0682 -1.7485
  922MOL0     H24413   2.100   3.343   7.080  2.1899  0.1272  2.5914
  922MOL0     H24414   1.987   3.389   7.208  1.7284 -0.4907  0.9729
  922MOL0     H24415   1.906   3.576   7.073  1.3695  0.4813  0.9558
  922MOL0     H24416   2.025   3.542   6.944  2.2658 -1.6925  1.8936
  922MOL0     H24417   1.908   3.316   6.919  1.6136  0.4503  0.5866
  922MOL0     H24418   1.789   3.365   7.043  1.7618 -0.8368  0.3629
  922MOL0     H24419   1.828   3.450   6.756  0.7074 -0.7758  0.1677
  922MOL0     H24420   1.736   3.553   6.873  1.2951  0.2087 -1.5309
  922MOL0     H24421   1.719   3.199   6.716  0.4736 -4.1330  2.5914
  922MOL0     H24422   1.509   3.014   6.716 -1.7298 -1.9291 -0.0733
  922MOL0     H24423   1.349   3.071   6.729 -0.5499  2.2834  0.9516
  922MOL0     H24424   1.408   3.238   6.522 -0.6198 -0.3420 -0.8318
  922MOL0     H24425   1.351   3.067   6.498  0.7064 -0.9703  0.5627
  922MOL0     H24426   1.648   3.135   6.500 -0.8520  1.7468  2.3820
  922MOL0     H24427   1.539   3.148   6.360 -2.7452  0.5399 -0.1128
  922MOL0     H24428   1.457   2.927   6.372 -0.3930  0.7683  0.2804
  922MOL0     H24429   1.548   2.883   6.518  0.1475 -1.6148 -0.9671
  922MOL0     H24430   1.873   2.932   6.212 -0.6717  1.6201  0.3763
  922MOL0     H24431   2.222   3.035   6.321  1.0576 -1.2540 -0.1818
  922MOL0     H24432   2.186   2.887   6.230 -1.9447 -0.0577  0.6614
  922MOL0     H24433   2.095   3.038   6.202  2.6176 -0.0185 -3.0293
  922MOL0     H24434   2.429   2.880   6.690 -0.6000 -3.3820  3.2149
  922MOL0     H24435   2.595   2.876   6.851  1.9677  1.7073 -1.1549
  922MOL0     H24436   2.572   2.883   7.169 -0.1721 -1.3229 -0.3607
  922MOL0     H24437   2.693   2.893   7.037 -1.4842 -0.6379  0.0699
  922MOL0     H24438   2.846   3.030   7.179  1.3598 -1.7486 -0.2360
  922MOL0     H24439   2.715   3.050   7.303  2.9929 -0.8933  2.1342
  922MOL0     H24440   2.798   2.775   7.251 -0.5785  0.2449 -1.0950
  922MOL0     H24441   2.721   2.865   7.383  1.4888 -0.0343  1.5294
  922MOL0     H24442   3.002   2.924   7.300  1.7289 -1.0796  1.0115
  922MOL0     H24443   2.915   2.975   7.452 -0.3950 -3.4837  3.7279
  922MOL0     H24444   3.009   2.693   7.367 -0.5749 -0.3054  0.4019
  922MOL0     H24445   2.908   2.731   7.509 -1.3892  3.4595  0.2277
  922MOL0     H24446   3.201   2.829   7.463 -0.2542 -3.7847 -1.1523
  922MOL0     H24447   3.093   2.884   7.594  0.1875 -0.7110  2.1763
  922MOL0     H24448   3.227   2.628   7.537 -0.9076 -2.2206  0.8124
  922MOL0     H24449   3.086   2.620   7.635  0.4150  0.3687  1.4125
  922MOL0     H24450   3.139   2.756   7.798 -1.2244 -2.0377 -0.9187
  922MOL0     H24451   3.283   2.825   7.717 -1.2520 -0.0605 -0.8704
  922MOL0     H24452   2.398   3.210   7.054 -1.1726 -2.0237  1.3990
  922MOL0     H24453   2.226   3.214   6.879  1.3268  0.6013 -1.9291
  922MOL0     H24454   1.958   2.880   6.691 -1.9569 -1.9506  0.0740
  922MOL0     H24455   1.737   2.887   6.614 -0.2160  0.3563 -1.1548
  922MOL0     H24456   2.378   3.798   7.566  1.8248  1.8332 -1.3649
  922MOL0     H24457   2.479   3.871   7.768 -0.1491  1.0958 -0.0394
  922MOL0     H24458   2.473   4.299   8.146  2.0827  1.1316 -0.9812
  922MOL0     H24459   2.637   4.312   8.327  2.1262 -0.7352 -0.6105
  922MOL0     H24460   2.927   4.131   8.357 -1.9204 -0.6245 -1.6208
  922MOL0     H24461   2.857   4.282   8.405 -0.4369  0.5956  0.6958
  922MOL0     H24462   2.959   4.076   8.599  0.2012 -0.3492  1.1242
  922MOL0     H24463   2.909   4.238   8.641 -2.4720 -1.1058 -0.4788
  922MOL0     H24464   3.094   4.349   8.538 -2.3895 -0.4154 -1.8537
  922MOL0     H24465   3.118   4.208   8.440 -2.3101  0.4397 -0.3042
  922MOL0     H24466   3.296   4.243   8.605  0.2771  0.5748  0.1710
  922MOL0     H24467   3.216   4.080   8.637 -3.0770  0.6903  0.3234
  922MOL0     H24468   3.155   4.301   8.999  0.2360 -4.3371  2.1893
  922MOL0     H24469   2.612   3.885   8.366 -2.6593 -1.3352 -0.4268
  922MOL0     H24470   2.484   3.866   8.158  0.4902 -1.2898  1.0407
  923MOL0     O24471   5.689   9.489   1.263 -0.0336 -0.2857 -0.2670
  923MOL0     C24472   5.749   9.545   1.354 -0.3428 -0.0538 -0.2333
  923MOL0     O24473   5.749   9.678   1.375  0.3017  0.0175 -0.1327
  923MOL0     C24474   5.647   9.744   1.310  0.9055 -0.4497 -0.1572
  923MOL0     C24475   5.516   9.750   1.369 -0.3633 -0.1355 -0.5659
  923MOL0     C24476   5.416   9.835   1.318 -0.4303  0.1307 -0.6160
  923MOL0     C24477   5.443   9.913   1.200 -0.4083  0.1409 -0.2730
  923MOL0     O24478   5.344   9.997   1.145  0.1544 -0.2499  0.0428
  923MOL0     C24479   5.203   9.967   1.183 -0.6574  0.8146  0.1488
  923MOL0     C24480   5.105  10.039   1.085  0.2518 -0.7632 -0.6454
  923MOL0     C24481   4.964   9.978   1.070 -0.8746 -0.6569 -0.3392
  923MOL0     C24482   4.841  10.064   1.055  0.0375  0.1039 -0.0601
  923MOL0     C24483   4.715   9.990   1.066 -0.6613  0.1239  0.2176
  923MOL0     C24484   4.604  10.079   1.010  0.0525 -0.5472  0.5441
  923MOL0     C24485   4.468  10.040   1.062  0.2236 -0.2521  0.2846
  923MOL0     C24486   4.362  10.136   1.001  0.3223 -0.6152 -0.2250
  923MOL0     N24487   4.235  10.130   1.074 -0.3047  0.7978  0.1810
  923MOL0     C24488   4.156  10.016   1.075 -0.3521  0.2894 -0.4317
  923MOL0     C24489   4.051  10.047   1.150  1.1569 -0.4123 -0.8876
  923MOL0     C24490   3.934   9.962   1.200 -0.1499  0.3674  1.1623
  923MOL0     C24491   3.847  10.039   1.303 -0.8243 -0.5287 -0.1780
  923MOL0     C24492   3.723   9.965   1.350  0.5462  0.6676  0.4816
  923MOL0     C24493   3.751   9.863   1.465  0.0771  0.4274 -0.1650
  923MOL0     O24494   3.634   9.772   1.483 -0.3745 -0.2778 -0.6852
  923MOL0     C24495   3.660   9.641   1.481  0.7290 -0.1345 -0.6519
  923MOL0     C24496   3.593   9.577   1.377 -0.3229 -0.4474  0.2353
  923MOL0     C24497   3.603   9.440   1.354 -0.9184 -0.0188 -0.4513
  923MOL0     C24498   3.532   9.380   1.238 -0.7878 -0.7085  0.0089
  923MOL0     C24499   3.688   9.362   1.448  1.3463 -0.0557  0.4995
  923MOL0     C24500   3.692   9.219   1.446 -0.4195 -0.8635 -0.0135
  923MOL0     O24501   3.727   9.157   1.559 -0.1225  0.0130  0.1067
  923MOL0     C24502   3.653   9.052   1.603  0.3552  1.1338  0.1482
  923MOL0     C24503   3.614   8.940   1.530 -0.3568 -0.6169  0.6977
  923MOL0     C24504   3.530   8.837   1.572  0.2588 -0.2439  0.4115
  923MOL0     C24505   3.488   8.846   1.711  0.2245 -0.6589 -0.1350
  923MOL0     O24506   3.416   8.744   1.767 -0.4634 -0.3702 -0.4408
  923MOL0     C24507   3.351   8.754   1.894  0.2781 -0.0328  0.3651
  923MOL0     C24508   3.448   8.713   1.999 -0.8679  0.1773  0.4131
  923MOL0     C24509   3.490   8.567   1.976  0.6040 -0.1983 -1.2169
  923MOL0     C24510   3.620   8.530   2.045 -1.3160 -0.2262 -1.2090
  923MOL0     C24511   3.648   8.378   2.013 -0.6810  0.5308 -0.3412
  923MOL0     C24512   3.539   8.283   2.064  0.7285  0.7567 -0.9147
  923MOL0     C24513   3.572   8.135   2.095 -0.3410 -0.1411  0.1359
  923MOL0     C24514   3.550   8.037   1.985  0.4324  0.9105  0.5052
  923MOL0    Cl24515   3.691   8.076   1.869  0.1112 -0.3632 -0.4089
  923MOL0     C24516   3.525   8.961   1.788 -0.3502 -0.2482  0.6561
  923MOL0     C24517   3.606   9.062   1.731 -0.6365 -1.1711  0.8823
  923MOL0     O24518   3.672   9.162   1.339  0.2591  0.2327 -0.4997
  923MOL0     C24519   3.755   9.429   1.548 -0.3626 -0.2512  0.0436
  923MOL0     C24520   3.741   9.570   1.572 -0.4951  0.3859  0.1784
  923MOL0     N24521   4.063  10.181   1.183  0.6103 -0.4303 -0.4402
  923MOL0     N24522   4.170  10.226   1.134 -0.2221 -0.2097 -0.0735
  923MOL0     C24523   5.574   9.908   1.138  0.1357 -0.2936 -0.6739
  923MOL0     C24524   5.678   9.832   1.199 -0.2857  0.5241 -0.6730
  923MOL0     C24525   5.832   9.464   1.440  0.9083 -0.2064 -0.0870
  923MOL0     C24526   5.875   9.495   1.571  0.6424  0.2912  0.3309
  923MOL0     C24527   5.941   9.414   1.656 -0.1517  0.3382 -0.6793
  923MOL0     C24528   5.972   9.281   1.625  0.9677  0.1959  0.2454
  923MOL0     O24529   6.026   9.200   1.724  0.1691  0.0507  0.4407
  923MOL0     C24530   6.151   9.138   1.688  0.3389  0.1200  0.2965
  923MOL0     C24531   6.151   8.980   1.718  0.5061  0.5674 -0.5843
  923MOL0     C24532   6.035   8.904   1.649 -0.8264 -0.5907  0.1729
  923MOL0     C24533   6.059   8.851   1.506  0.2139  0.5995 -0.1020
  923MOL0     C24534   6.174   8.761   1.500 -0.7029 -1.0497  0.1237
  923MOL0     C24535   6.265   8.676   1.504  0.0356 -0.5626 -0.0863
  923MOL0     C24536   5.929   9.243   1.494 -0.5912 -0.1214 -0.2216
  923MOL0     C24537   5.857   9.326   1.409  0.5280 -0.0923  0.7220
  923MOL0     H24538   5.477   9.690   1.450 -0.6279 -0.6728 -1.0877
  923MOL0     H24539   5.316   9.830   1.358  0.1526 -5.9366  1.1960
  923MOL0     H24540   5.186   9.859   1.176  1.6994  0.0181  3.8612
  923MOL0     H24541   5.185   9.982   1.290 -0.9126 -1.6391  0.5049
  923MOL0     H24542   5.095  10.143   1.116 -0.7813 -0.4926 -1.7800
  923MOL0     H24543   5.150  10.038   0.985  1.0921 -1.9649 -0.2823
  923MOL0     H24544   4.968   9.924   0.974  0.5988  0.5095 -0.9680
  923MOL0     H24545   4.947   9.916   1.159 -0.3275  0.7910  0.8108
  923MOL0     H24546   4.842  10.143   1.131  0.4504  0.7397 -0.7179
  923MOL0     H24547   4.849  10.121   0.962  0.5061  3.7696  2.0242
  923MOL0     H24548   4.718   9.899   1.004 -0.1865 -1.3039  2.2167
  923MOL0     H24549   4.694   9.955   1.167 -0.7258 -1.4082 -0.2983
  923MOL0     H24550   4.623  10.178   1.054  1.3660 -1.7368  2.8504
  923MOL0     H24551   4.603  10.089   0.901 -0.1404 -1.8279  0.4170
  923MOL0     H24552   4.460   9.931   1.050  1.2048 -0.3173  0.1641
  923MOL0     H24553   4.465  10.052   1.171  1.5911 -1.1677  0.4445
  923MOL0     H24554   4.345  10.111   0.896 -0.8636 -2.3926  0.3415
  923MOL0     H24555   4.404  10.236   1.013 -3.2780  0.8101  2.2968
  923MOL0     H24556   4.178   9.926   1.019  0.3426  0.8671 -1.1048
  923MOL0     H24557   3.879   9.939   1.108 -0.0550 -2.6475  1.7643
  923MOL0     H24558   3.968   9.870   1.249 -0.5157 -0.8613 -0.7868
  923MOL0     H24559   3.802  10.124   1.250 -3.0875 -1.7697 -0.3631
  923MOL0     H24560   3.902  10.081   1.388 -1.9783 -1.5941  1.1300
  923MOL0     H24561   3.685   9.906   1.266  5.5117 -2.1771 -0.1730
  923MOL0     H24562   3.643  10.029   1.388  2.2149  4.0804 -1.3728
  923MOL0     H24563   3.793   9.918   1.549  1.6645 -1.0692  0.0741
  923MOL0     H24564   3.844   9.810   1.440 -1.0543 -0.4077 -3.0562
  923MOL0     H24565   3.542   9.637   1.303 -0.6167 -0.6002  0.3123
  923MOL0     H24566   3.446   9.324   1.277 -0.0233  0.1408  3.2429
  923MOL0     H24567   3.486   9.463   1.184  0.4536  1.8488  2.6015
  923MOL0     H24568   3.595   9.317   1.174 -0.9103  1.5608 -2.4913
  923MOL0     H24569   3.647   8.938   1.427  2.0069  0.0756  1.3661
  923MOL0     H24570   3.516   8.755   1.503 -3.3830  2.2935 -2.2361
  923MOL0     H24571   3.314   8.855   1.913  0.7257  0.3200 -0.6072
  923MOL0     H24572   3.266   8.684   1.892  1.5878 -1.7801 -3.3528
  923MOL0     H24573   3.542   8.768   1.987 -1.0183  0.4703  0.5866
  923MOL0     H24574   3.405   8.712   2.100  2.5007  0.5395  1.9804
  923MOL0     H24575   3.519   8.547   1.872 -0.1953 -0.5382 -1.3820
  923MOL0     H24576   3.403   8.502   1.989 -0.4924  1.0271 -2.2038
  923MOL0     H24577   3.703   8.589   2.006 -1.5919  0.2117 -1.1334
  923MOL0     H24578   3.622   8.547   2.153  0.0785  1.2318 -1.4344
  923MOL0     H24579   3.749   8.342   2.032 -0.8452 -0.2010 -0.8198
  923MOL0     H24580   3.638   8.369   1.904 -3.1634 -0.8165 -0.0694
  923MOL0     H24581   3.514   8.317   2.165  2.4243 -0.1367 -0.1502
  923MOL0     H24582   3.441   8.279   2.015 -0.6657 -1.7061  1.7716
  923MOL0     H24583   3.508   8.104   2.178  2.3061 -3.3972  1.1970
  923MOL0     H24584   3.673   8.126   2.137 -0.6509  0.2225  0.9904
  923MOL0     H24585   3.453   8.053   1.938 -0.4032  1.9908  2.4912
  923MOL0     H24586   3.558   7.934   2.021 -0.2161  0.8302  0.4348
  923MOL0     H24587   3.493   8.981   1.890  0.1002  1.6887  0.4615
  923MOL0     H24588   3.644   9.146   1.787  1.1464 -0.5063 -1.1715
  923MOL0     H24589   3.823   9.378   1.615 -0.0156 -0.3158 -0.3522
  923MOL0     H24590   3.789   9.624   1.654  1.2643  0.9409 -1.1656
  923MOL0     H24591   5.585   9.970   1.050 -2.7442  1.4480  0.0430
  923MOL0     H24592   5.772   9.811   1.148 -1.1814 -0.9450 -1.8077
  923MOL0     H24593   5.862   9.603   1.583 -6.0534 -0.0780  0.0889
  923MOL0     H24594   5.974   9.464   1.746 -1.3825  3.4337 -1.8132
  923MOL0     H24595   6.162   9.143   1.579 -1.6425 -2.6725 -0.1372
  923MOL0     H24596   6.233   9.194   1.733 -0.1980  0.3344  1.0321
  923MOL0     H24597   6.140   8.954   1.823 -0.2375  0.7376 -0.6100
  923MOL0     H24598   6.245   8.934   1.688 -0.4900 -1.0208 -1.4342
  923MOL0     H24599   5.950   8.973   1.639  1.0259  1.7254 -0.2647
  923MOL0     H24600   6.009   8.824   1.720  0.2137 -1.8569 -0.8365
  923MOL0     H24601   6.071   8.930   1.432 -0.4063  0.6052 -0.2023
  923MOL0     H24602   5.970   8.794   1.479  0.3300  0.6084 -0.5014
  923MOL0     H24603   6.343   8.604   1.512  1.1809  0.6610  0.2521
  923MOL0     H24604   5.934   9.135   1.481 -0.0227 -0.3967  1.9010
  923MOL0     H24605   5.806   9.293   1.319  1.4537 -0.9320  0.4954
  924MOL0     O24606   3.563  10.521   2.102  0.2258 -0.0830 -0.0367
  924MOL0     C24607   3.524  10.600   2.023  0.5158 -0.0970  0.5002
  924MOL0     O24608   3.591  10.711   1.972 -0.5393  0.1849  0.0867
  924MOL0     C24609   3.699  10.747   2.036  0.1423  0.4603  0.3885
  924MOL0     C24610   3.704  10.796   2.169  0.0302  0.3600 -1.2580
  924MOL0     C24611   3.823  10.846   2.223 -0.4563  0.5752 -0.2999
  924MOL0     C24612   3.934  10.860   2.148  0.5076 -1.1703 -0.4337
  924MOL0     O24613   4.052  10.906   2.206  0.1004  0.3848 -1.0426
  924MOL0     C24614   4.142  10.815   2.279  0.0752 -0.7483  0.0621
  924MOL0     C24615   4.258  10.914   2.339 -0.4513  0.3076 -1.0325
  924MOL0     C24616   4.347  10.826   2.431  0.4514  0.5628  0.3815
  924MOL0     C24617   4.478  10.897   2.464 -1.0664  0.4643 -0.0737
  924MOL0     C24618   4.563  10.811   2.555  0.0513  0.1333 -0.1580
  924MOL0     C24619   4.682  10.888   2.603 -0.8469 -0.3331  0.4115
  924MOL0     C24620   4.759  10.794   2.704  0.3320 -0.1010  0.8090
  924MOL0     C24621   4.705  10.771   2.845  0.0021  0.3685  0.3427
  924MOL0     N24622   4.800  10.727   2.943 -0.6660 -0.2070  0.2754
  924MOL0     C24623   4.890  10.807   3.014  0.1259  0.7070 -0.4818
  924MOL0     C24624   4.988  10.728   3.061  0.7390  0.3405 -0.7449
  924MOL0     C24625   5.118  10.773   3.114 -0.1646 -0.0248  0.0857
  924MOL0     C24626   5.216  10.657   3.094 -0.3492 -0.4699 -0.9085
  924MOL0     C24627   5.360  10.698   3.099  0.0691  0.0887  0.1546
  924MOL0     C24628   5.456  10.582   3.062 -0.5655  0.2391  0.3047
  924MOL0     O24629   5.452  10.486   3.177  0.2636  0.3757  0.1152
  924MOL0     C24630   5.537  10.385   3.174 -0.0464  1.3503  0.3792
  924MOL0     C24631   5.500  10.281   3.257 -0.2438  0.1194  0.3927
  924MOL0     C24632   5.584  10.170   3.255 -0.1716  0.4126 -0.5278
  924MOL0     C24633   5.544  10.076   3.363 -0.4518  0.4478  0.3076
  924MOL0     C24634   5.692  10.141   3.165  0.3135 -0.3606  0.1141
  924MOL0     C24635   5.782  10.013   3.163  0.4654 -0.2410  0.7646
  924MOL0     O24636   5.735   9.889   3.204  0.1337 -0.1756  0.0877
  924MOL0     C24637   5.821   9.782   3.200 -0.6569  0.6015 -0.5606
  924MOL0     C24638   5.781   9.671   3.121  0.0665 -0.3341 -0.7645
  924MOL0     C24639   5.873   9.574   3.104  0.6386  0.7079 -0.1945
  924MOL0     C24640   5.994   9.569   3.167 -0.3999 -0.2679  0.4992
  924MOL0     O24641   6.095   9.474   3.148 -0.0605 -0.0343  0.3667
  924MOL0     C24642   6.073   9.378   3.035 -0.0420  0.5260  0.6810
  924MOL0     C24643   6.179   9.270   3.008  1.0192 -0.7359  0.1160
  924MOL0     C24644   6.165   9.169   3.110  0.1328 -0.0704 -0.1691
  924MOL0     C24645   6.197   9.021   3.065 -0.3984 -0.0710 -0.5655
  924MOL0     C24646   6.199   8.936   3.199  1.0826 -0.1735  1.3252
  924MOL0     C24647   6.335   8.956   3.275  0.2417  0.7026 -0.4221
  924MOL0     C24648   6.325   8.875   3.404  0.9028 -0.7019 -0.0445
  924MOL0     C24649   6.408   8.746   3.397 -0.3768 -0.5248  0.6552
  924MOL0    Cl24650   6.315   8.605   3.336  0.2364 -0.0879 -0.2248
  924MOL0     C24651   6.025   9.663   3.262  0.3689  1.0045 -0.0359
  924MOL0     C24652   5.938   9.775   3.284  1.0980 -0.2139 -0.0699
  924MOL0     O24653   5.899  10.029   3.129  0.2150  0.0816 -0.4399
  924MOL0     C24654   5.713  10.248   3.078 -0.7331 -0.0619 -0.0381
  924MOL0     C24655   5.637  10.362   3.078  0.7025 -0.6117  1.1107
  924MOL0     N24656   4.956  10.598   3.029 -0.8708  0.2956  0.1974
  924MOL0     N24657   4.846  10.600   2.959  0.0317 -0.7077  0.8598
  924MOL0     C24658   3.929  10.824   2.009 -0.3271  0.6844  0.7510
  924MOL0     C24659   3.812  10.770   1.953  0.4049  0.4376  0.2692
  924MOL0     C24660   3.386  10.586   1.975 -0.4004  0.7065 -0.3935
  924MOL0     C24661   3.333  10.668   1.871 -0.2807  0.1718 -0.8596
  924MOL0     C24662   3.199  10.654   1.827 -0.2073 -0.2035  0.7091
  924MOL0     C24663   3.114  10.556   1.878 -0.3020 -1.2075 -0.8555
  924MOL0     O24664   2.981  10.535   1.835 -0.2178 -0.6438 -0.4701
  924MOL0     C24665   2.928  10.611   1.723  0.5803 -0.2206  1.0224
  924MOL0     C24666   2.800  10.557   1.658  0.2057  0.5507 -0.0856
  924MOL0     C24667   2.661  10.587   1.732 -0.6133  0.2230  0.0060
  924MOL0     C24668   2.638  10.531   1.872  0.3282 -0.3043  0.1414
  924MOL0     C24669   2.514  10.588   1.921  0.3643  0.0170  0.1523
  924MOL0     C24670   2.406  10.627   1.969 -0.3378 -0.3741  0.1608
  924MOL0     C24671   3.168  10.472   1.983 -0.1810  0.7139 -0.6514
  924MOL0     C24672   3.297  10.488   2.029 -0.4866  0.1716 -0.4027
  924MOL0     H24673   3.613  10.783   2.226  2.0971 -0.7476  2.0648
  924MOL0     H24674   3.816  10.879   2.326  2.1300  0.3332  0.0023
  924MOL0     H24675   4.077  10.762   2.349 -2.5311  0.5953 -1.1794
  924MOL0     H24676   4.174  10.736   2.210  0.9900  0.7129 -1.2428
  924MOL0     H24677   4.320  10.957   2.260  2.6216  4.0138  2.8572
  924MOL0     H24678   4.226  10.991   2.411  1.8370 -1.7876  2.5557
  924MOL0     H24679   4.283  10.798   2.516 -1.1750 -0.4240 -1.1033
  924MOL0     H24680   4.378  10.730   2.390 -1.4718 -1.2944  2.9288
  924MOL0     H24681   4.541  10.918   2.378 -0.9339  0.2163 -0.0375
  924MOL0     H24682   4.446  10.993   2.506  2.0128  1.1165  1.0401
  924MOL0     H24683   4.502  10.780   2.640  0.9667 -0.4900  0.2882
  924MOL0     H24684   4.591  10.715   2.511 -1.3952 -1.0115  1.2718
  924MOL0     H24685   4.752  10.926   2.527  0.7459  2.2851  2.9426
  924MOL0     H24686   4.640  10.977   2.650 -2.4809  1.2014 -3.5221
  924MOL0     H24687   4.772  10.698   2.654  2.3564  0.7330 -0.3762
  924MOL0     H24688   4.857  10.838   2.724  0.3884  0.5519 -0.7414
  924MOL0     H24689   4.635  10.689   2.827  1.8398 -0.8073 -2.0607
  924MOL0     H24690   4.642  10.858   2.868  0.5189  1.6387 -2.5913
  924MOL0     H24691   4.899  10.914   3.003 -1.1441  0.8029 -0.7675
  924MOL0     H24692   5.165  10.859   3.066 -0.0256  1.6182  2.9398
  924MOL0     H24693   5.097  10.789   3.220 -1.9704 -1.6159  0.0305
  924MOL0     H24694   5.209  10.607   2.997 -1.6226  0.2344 -1.2069
  924MOL0     H24695   5.207  10.576   3.166  2.9839 -1.0960 -1.0817
  924MOL0     H24696   5.388  10.718   3.202  0.4362  0.7635 -0.0686
  924MOL0     H24697   5.371  10.787   3.036 -1.1097  1.1610  1.4037
  924MOL0     H24698   5.554  10.631   3.063 -3.0721  6.0727  2.2204
  924MOL0     H24699   5.425  10.538   2.967  2.6599 -0.7274 -0.4066
  924MOL0     H24700   5.416  10.288   3.326 -0.7668 -2.7550  0.1761
  924MOL0     H24701   5.639  10.045   3.407 -0.2081  0.0903 -0.4449
  924MOL0     H24702   5.473  10.104   3.441 -2.1147 -0.9357 -0.6409
  924MOL0     H24703   5.500   9.985   3.322 -1.5052  1.5339 -1.0898
  924MOL0     H24704   5.686   9.664   3.069 -0.9557  1.4020  0.7580
  924MOL0     H24705   5.841   9.485   3.051 -2.4824  1.5566  0.0108
  924MOL0     H24706   5.974   9.337   3.057  0.0873 -0.1930 -0.0706
  924MOL0     H24707   6.066   9.440   2.945 -3.3151  0.6647  0.9068
  924MOL0     H24708   6.163   9.231   2.907  3.2534 -4.1104  0.8970
  924MOL0     H24709   6.278   9.316   2.995 -0.2792  1.5741 -2.9354
  924MOL0     H24710   6.063   9.167   3.149 -0.4132 -1.2418 -1.5963
  924MOL0     H24711   6.227   9.193   3.197 -1.0073 -2.8786  1.5875
  924MOL0     H24712   6.105   8.998   3.011 -1.9761  0.0640  1.9020
  924MOL0     H24713   6.282   9.013   2.997  0.0621  3.5043 -0.5622
  924MOL0     H24714   6.181   8.831   3.175  0.5990 -0.0685  1.2127
  924MOL0     H24715   6.123   8.969   3.271  0.3277  1.9174 -0.3439
  924MOL0     H24716   6.420   8.925   3.214  0.4569 -2.3820  1.2633
  924MOL0     H24717   6.364   9.056   3.309  2.2803  0.2557 -0.7493
  924MOL0     H24718   6.224   8.857   3.443  0.7266  1.7830  0.7852
  924MOL0     H24719   6.377   8.943   3.472  0.6558 -1.3069  0.7660
  924MOL0     H24720   6.437   8.712   3.496 -1.4198  1.2072  1.6133
  924MOL0     H24721   6.501   8.774   3.347 -0.6593  1.9255  1.3614
  924MOL0     H24722   6.121   9.642   3.308  0.2574 -0.1164 -0.2852
  924MOL0     H24723   5.948   9.845   3.366 -0.9149 -1.6495  1.4922
  924MOL0     H24724   5.787  10.248   2.998  0.3893 -2.8031  0.8513
  924MOL0     H24725   5.657  10.438   3.003 -0.5589  0.4200  1.7784
  924MOL0     H24726   4.012  10.835   1.940 -1.4962 -1.4692 -1.1405
  924MOL0     H24727   3.808  10.745   1.847 -1.7407  1.4854  0.0522
  924MOL0     H24728   3.391  10.751   1.831  0.9180 -1.4786 -2.7285
  924MOL0     H24729   3.157  10.726   1.757 -2.2785 -2.0656 -0.0759
  924MOL0     H24730   2.917  10.716   1.752  0.2170 -0.6663  2.6511
  924MOL0     H24731   2.989  10.614   1.633 -0.4086 -2.5987  0.1996
  924MOL0     H24732   2.815  10.449   1.643 -4.1388 -0.2142 -0.1849
  924MOL0     H24733   2.793  10.611   1.563 -1.1604 -1.6705 -1.3375
  924MOL0     H24734   2.584  10.555   1.661 -4.1837  0.7546  3.2899
  924MOL0     H24735   2.648  10.695   1.750 -1.0448  0.5155 -1.9109
  924MOL0     H24736   2.721  10.564   1.936  1.9107  0.0307 -1.9726
  924MOL0     H24737   2.634  10.422   1.863 -0.8900 -0.1594 -1.3587
  924MOL0     H24738   2.313  10.667   2.003 -1.9508 -4.7673  1.5749
  924MOL0     H24739   3.101  10.400   2.029  0.8859 -0.3551 -0.7034
  924MOL0     H24740   3.321  10.427   2.116 -1.7720 -0.8047 -0.7004
  925MOL0     O24741   1.092   3.365   6.369  0.1932 -0.6633  0.8368
  925MOL0     C24742   1.081   3.398   6.484 -0.4438 -0.9021 -0.9745
  925MOL0     O24743   1.109   3.525   6.531 -0.0318 -0.4408 -0.4060
  925MOL0     C24744   1.107   3.635   6.444  0.2733 -0.3378 -0.2409
  925MOL0     C24745   0.983   3.689   6.411  0.6968  0.3695  0.1127
  925MOL0     C24746   0.972   3.798   6.317  0.2063  0.0679  0.0544
  925MOL0     C24747   1.090   3.858   6.265 -0.7681  0.7694 -0.3483
  925MOL0     O24748   1.101   3.974   6.196  0.1851 -0.8580 -0.3430
  925MOL0     C24749   1.019   3.981   6.080 -0.1274 -0.4725  1.0234
  925MOL0     C24750   0.974   4.125   6.069  0.1869  0.1616  0.6872
  925MOL0     C24751   1.087   4.223   6.043 -0.7271 -0.1733 -0.3030
  925MOL0     C24752   1.135   4.230   5.898 -1.1674  0.7981 -0.4072
  925MOL0     C24753   1.271   4.289   5.886 -0.7068 -0.1451 -0.3300
  925MOL0     C24754   1.324   4.295   5.737 -1.1289  0.1599  0.6574
  925MOL0     C24755   1.444   4.396   5.757  0.6697 -0.1730 -0.3952
  925MOL0     C24756   1.503   4.440   5.630 -0.8165 -1.0141  0.7355
  925MOL0     N24757   1.645   4.478   5.665 -1.3290 -0.3200  0.2476
  925MOL0     C24758   1.693   4.552   5.773 -0.4230 -0.1781 -0.2670
  925MOL0     C24759   1.830   4.537   5.765 -0.2751 -0.7184  0.4882
  925MOL0     C24760   1.929   4.589   5.855  0.4075  0.4535  0.0724
  925MOL0     C24761   1.973   4.737   5.811  0.2954  0.6700  0.3616
  925MOL0     C24762   2.099   4.794   5.876 -0.1987 -0.0152  0.5885
  925MOL0     C24763   2.076   4.858   6.016 -0.3916  0.0076 -0.0915
  925MOL0     O24764   2.015   4.762   6.106 -0.2843  0.4876  0.9521
  925MOL0     C24765   2.090   4.676   6.180 -0.0740  0.5279  0.1854
  925MOL0     C24766   2.024   4.612   6.283  0.2321 -0.6780  0.0281
  925MOL0     C24767   2.094   4.527   6.372  1.0232  0.5015 -0.8627
  925MOL0     C24768   2.023   4.462   6.482  0.9732  0.6404  0.5030
  925MOL0     C24769   2.235   4.508   6.357  0.0033 -0.8081  0.4265
  925MOL0     C24770   2.319   4.417   6.430  0.5034 -0.1667  0.0164
  925MOL0     O24771   2.393   4.319   6.362  0.0925  0.7674  0.4184
  925MOL0     C24772   2.475   4.244   6.442  0.5814  0.9724  0.5991
  925MOL0     C24773   2.427   4.143   6.525 -0.1750 -0.9660 -0.1668
  925MOL0     C24774   2.507   4.072   6.613 -0.9090 -0.4308 -0.5068
  925MOL0     C24775   2.644   4.104   6.610  0.0604 -0.5157 -0.3445
  925MOL0     O24776   2.724   4.027   6.688  0.8397  0.6370 -0.6942
  925MOL0     C24777   2.853   4.068   6.737 -0.0558 -0.1367  0.4310
  925MOL0     C24778   2.951   4.008   6.628 -0.8977 -0.5634 -1.0867
  925MOL0     C24779   3.002   3.861   6.667  0.2870 -0.8254  0.8085
  925MOL0     C24780   2.897   3.756   6.656 -0.3655  0.6526  0.4902
  925MOL0     C24781   2.952   3.619   6.697  0.7305 -0.8549 -0.5821
  925MOL0     C24782   2.961   3.606   6.847 -0.3070 -0.2170 -0.1880
  925MOL0     C24783   2.994   3.469   6.901  0.0713 -0.1048  0.0948
  925MOL0     C24784   2.874   3.365   6.891  0.5122 -0.1373  0.3797
  925MOL0    Cl24785   2.944   3.206   6.949  0.6128  0.0283 -0.1328
  925MOL0     C24786   2.700   4.202   6.528  1.1175  0.1436  0.4008
  925MOL0     C24787   2.612   4.273   6.441  0.3557  0.1631 -0.8353
  925MOL0     O24788   2.325   4.443   6.550 -0.2308 -1.2219  0.2621
  925MOL0     C24789   2.297   4.573   6.248  1.0031  0.0749  0.2043
  925MOL0     C24790   2.225   4.655   6.167 -0.2182  0.2513 -1.0586
  925MOL0     N24791   1.857   4.459   5.647  0.0204  0.3530  0.1323
  925MOL0     N24792   1.749   4.415   5.596 -0.1709  0.2602 -0.0975
  925MOL0     C24793   1.215   3.806   6.306 -0.1260  0.3022  0.7178
  925MOL0     C24794   1.219   3.685   6.380 -0.0780  0.6468  0.1566
  925MOL0     C24795   1.054   3.291   6.588  0.7361 -0.5706 -0.0374
  925MOL0     C24796   0.977   3.182   6.559  0.1290 -0.1188 -0.9419
  925MOL0     C24797   0.961   3.085   6.662 -0.5803 -0.7005  0.1745
  925MOL0     C24798   1.025   3.099   6.775 -0.1387  0.0345 -0.4408
  925MOL0     O24799   1.015   3.001   6.865  0.3754 -0.1782 -0.8779
  925MOL0     C24800   1.132   2.942   6.932 -0.5503 -0.2432  0.5207
  925MOL0     C24801   1.096   2.816   7.014  0.3613  0.2009 -0.5065
  925MOL0     C24802   1.062   2.701   6.916  0.9912 -0.1991 -0.2939
  925MOL0     C24803   0.970   2.585   6.972 -0.4573  1.2086  0.7543
  925MOL0     C24804   0.833   2.624   6.989 -0.3077  0.1812 -0.4411
  925MOL0     C24805   0.717   2.647   7.015  0.0849  1.0956  0.4285
  925MOL0     C24806   1.105   3.200   6.808 -0.1734 -0.1165 -0.6220
  925MOL0     C24807   1.113   3.302   6.714  0.4821 -0.4595  0.0595
  925MOL0     H24808   0.898   3.631   6.446 -0.3434  1.9363  0.2477
  925MOL0     H24809   0.879   3.850   6.300  1.3485  2.4227  0.6601
  925MOL0     H24810   1.067   3.947   5.988 -1.4615  0.9066 -0.2227
  925MOL0     H24811   0.927   3.929   6.107 -0.1529  0.9472  4.0913
  925MOL0     H24812   0.895   4.141   5.996  0.0022 -1.2325  0.5543
  925MOL0     H24813   0.942   4.134   6.173  4.0758 -0.6400  2.1504
  925MOL0     H24814   1.055   4.323   6.071  1.8015  0.8609 -0.7542
  925MOL0     H24815   1.178   4.194   6.098 -0.5730 -1.1874 -1.0548
  925MOL0     H24816   1.146   4.129   5.858 -3.6214  0.7281 -1.0324
  925MOL0     H24817   1.075   4.278   5.820  1.6097  2.4305 -1.6879
  925MOL0     H24818   1.271   4.393   5.920  1.0514  0.7780 -2.8379
  925MOL0     H24819   1.344   4.231   5.945  1.6222  2.8827  0.0013
  925MOL0     H24820   1.359   4.198   5.700  2.4018  2.0522 -1.5440
  925MOL0     H24821   1.246   4.336   5.672 -0.6971  1.2334  0.7924
  925MOL0     H24822   1.409   4.484   5.812 -2.2627 -2.0021  0.8857
  925MOL0     H24823   1.513   4.340   5.821 -1.0585  1.2947  3.0087
  925MOL0     H24824   1.445   4.520   5.582  1.4298 -1.7625 -3.8097
  925MOL0     H24825   1.495   4.369   5.546  0.4137  1.7255 -1.8889
  925MOL0     H24826   1.643   4.601   5.856 -0.1436  0.5516 -0.5228
  925MOL0     H24827   1.888   4.601   5.956 -0.5549 -0.0059 -0.2583
  925MOL0     H24828   2.004   4.511   5.871 -1.1826 -0.9403  0.9454
  925MOL0     H24829   1.891   4.808   5.823  0.2658  0.9666 -1.2976
  925MOL0     H24830   1.996   4.737   5.704  0.3199 -0.3384  0.3502
  925MOL0     H24831   2.148   4.870   5.815 -1.2354 -0.8381 -1.3535
  925MOL0     H24832   2.173   4.713   5.875 -0.7722 -0.5598 -1.1067
  925MOL0     H24833   2.006   4.941   6.014 -0.2759  0.1498 -2.9967
  925MOL0     H24834   2.169   4.909   6.044 -0.6832  1.0388 -0.9204
  925MOL0     H24835   1.921   4.644   6.290  1.2516  3.6561 -1.3589
  925MOL0     H24836   2.085   4.416   6.559 -0.6805  0.1703  1.6128
  925MOL0     H24837   1.970   4.541   6.535 -0.3800  1.2774 -1.6467
  925MOL0     H24838   1.949   4.391   6.442  1.7103 -0.1312  0.4800
  925MOL0     H24839   2.319   4.134   6.519 -0.3102  0.2942  0.1771
  925MOL0     H24840   2.462   3.996   6.676 -2.1292 -0.8755 -1.8839
  925MOL0     H24841   2.854   4.177   6.746 -2.2047 -0.0722  0.4734
  925MOL0     H24842   2.870   4.021   6.834 -0.5599 -2.9343 -0.7366
  925MOL0     H24843   2.901   4.016   6.530 -1.1621  1.6619 -0.8291
  925MOL0     H24844   3.043   4.066   6.637 -0.5630 -1.2081 -0.2277
  925MOL0     H24845   3.031   3.875   6.772  0.2815 -0.0201  0.7102
  925MOL0     H24846   3.090   3.832   6.610  1.6917 -0.8778  2.8884
  925MOL0     H24847   2.814   3.781   6.723 -0.8398  0.0889  0.1206
  925MOL0     H24848   2.860   3.750   6.553 -0.5310 -0.3159  0.5980
  925MOL0     H24849   3.056   3.610   6.666  1.7176  1.2236  1.7311
  925MOL0     H24850   2.900   3.533   6.656 -0.2383 -1.5864  1.9609
  925MOL0     H24851   3.032   3.677   6.889 -1.2652 -0.4484  1.9806
  925MOL0     H24852   2.862   3.623   6.891 -0.5515  0.6073 -1.0196
  925MOL0     H24853   3.009   3.478   7.009 -0.5742 -2.4019  0.4143
  925MOL0     H24854   3.087   3.432   6.857  0.6088 -1.1351  1.9802
  925MOL0     H24855   2.828   3.354   6.792 -0.1367 -4.0952  0.9644
  925MOL0     H24856   2.802   3.406   6.962  1.1411  0.6632  0.5759
  925MOL0     H24857   2.807   4.218   6.518  1.3474 -0.9713  0.9385
  925MOL0     H24858   2.659   4.345   6.374 -1.3716  0.3146 -1.9451
  925MOL0     H24859   2.405   4.573   6.248  1.0249  1.5179  0.8535
  925MOL0     H24860   2.286   4.700   6.089 -0.4237 -0.5557 -1.6951
  925MOL0     H24861   1.308   3.850   6.269  0.1036 -1.5117 -1.0421
  925MOL0     H24862   1.316   3.644   6.404 -0.4134 -1.5912 -1.9553
  925MOL0     H24863   0.926   3.176   6.463  0.1351  3.7825 -1.3826
  925MOL0     H24864   0.917   2.989   6.638  3.3179 -2.0822 -2.3527
  925MOL0     H24865   1.219   2.924   6.867  0.2758 -1.3053  1.8706
  925MOL0     H24866   1.169   3.012   7.008  2.7368 -0.3459 -0.7757
  925MOL0     H24867   1.011   2.838   7.080  1.3758 -1.3521  1.4366
  925MOL0     H24868   1.181   2.803   7.082 -0.3386  2.5321  0.9449
  925MOL0     H24869   1.151   2.644   6.887  1.1827 -0.7646  1.3470
  925MOL0     H24870   1.011   2.745   6.830  3.5724  3.2796 -0.2665
  925MOL0     H24871   1.005   2.531   7.060 -0.7714  0.3986  0.3942
  925MOL0     H24872   0.970   2.513   6.889  2.1031  0.1775  1.5377
  925MOL0     H24873   0.618   2.672   7.048  0.6105  0.4439  2.7191
  925MOL0     H24874   1.149   3.205   6.907 -2.3048 -0.2637  0.3631
  925MOL0     H24875   1.168   3.394   6.732  3.1645 -1.4052 -2.4304
  926MOL0     O24876   6.635   6.251   1.495  0.1727 -0.2440 -0.2016
  926MOL0     C24877   6.659   6.247   1.615 -0.0832 -0.0493 -0.6194
  926MOL0     O24878   6.788   6.224   1.675 -0.9590 -0.1039  0.1481
  926MOL0     C24879   6.906   6.242   1.589 -0.3885  0.7378  1.8023
  926MOL0     C24880   6.974   6.131   1.542  0.2314 -0.2035 -0.8312
  926MOL0     C24881   7.075   6.141   1.455  0.4577  0.6427  0.2891
  926MOL0     C24882   7.119   6.261   1.409  0.7946 -0.7139 -0.0259
  926MOL0     O24883   7.203   6.256   1.302 -1.0479  0.4488 -0.1076
  926MOL0     C24884   7.269   6.366   1.251  0.7083  0.1370  0.7637
  926MOL0     C24885   7.318   6.350   1.109 -1.1182  0.3546  0.1015
  926MOL0     C24886   7.446   6.253   1.106 -0.2110 -0.4862 -0.1452
  926MOL0     C24887   7.487   6.240   0.961 -0.2667  0.5349 -0.0736
  926MOL0     C24888   7.576   6.126   0.955 -0.7863  0.2939  1.3580
  926MOL0     C24889   7.653   6.115   0.821  0.2447 -0.9686  0.0876
  926MOL0     C24890   7.741   5.991   0.797 -0.0490  0.9321  0.3574
  926MOL0     C24891   7.677   5.845   0.828 -0.4993 -0.2608 -0.3821
  926MOL0     N24892   7.780   5.740   0.814 -0.2942 -0.1215  0.5291
  926MOL0     C24893   7.770   5.614   0.868 -0.1981 -0.3604  0.9484
  926MOL0     C24894   7.892   5.553   0.831 -0.2582  0.6656  0.0881
  926MOL0     C24895   7.944   5.421   0.861  0.3223 -0.5951 -0.0299
  926MOL0     C24896   7.859   5.298   0.851 -0.3846  0.3045  1.1096
  926MOL0     C24897   7.940   5.170   0.847  0.2721  0.1803 -0.2303
  926MOL0     C24898   8.021   5.158   0.714  0.0933 -0.5304 -0.0443
  926MOL0     O24899   7.933   5.163   0.605  1.0664  0.2410  0.3912
  926MOL0     C24900   7.975   5.190   0.479 -0.0591  0.0124  0.6459
  926MOL0     C24901   8.110   5.196   0.430  1.0665  0.6443 -0.5380
  926MOL0     C24902   8.135   5.234   0.293 -0.3748 -0.2603 -0.3500
  926MOL0     C24903   8.276   5.221   0.248 -0.9247 -0.0968 -0.1704
  926MOL0     C24904   8.031   5.265   0.208  0.3739  0.1350  0.7845
  926MOL0     C24905   8.051   5.309   0.069 -0.0975 -0.5725 -0.2193
  926MOL0     O24906   7.975   5.253  -0.028  0.6535  0.3881 -0.6403
  926MOL0     C24907   8.006   5.275  -0.152 -0.0460 -0.0675  0.3902
  926MOL0     C24908   7.904   5.336  -0.235 -0.3593  0.2372 -0.1298
  926MOL0     C24909   7.940   5.361  -0.366  0.6405 -1.2179 -0.2637
  926MOL0     C24910   8.069   5.336  -0.418  0.5235 -0.0515  0.7177
  926MOL0     O24911   8.093   5.365  -0.558 -0.4381  0.2829  0.0005
  926MOL0     C24912   7.996   5.336  -0.655 -0.6553 -0.4494  0.2409
  926MOL0     C24913   8.031   5.406  -0.782 -0.3982 -0.2128 -0.6552
  926MOL0     C24914   8.177   5.394  -0.818 -0.9750  0.5152 -0.1528
  926MOL0     C24915   8.233   5.250  -0.846  0.6769  0.1435  0.5204
  926MOL0     C24916   8.382   5.258  -0.906 -0.1385  0.0898 -0.3045
  926MOL0     C24917   8.493   5.324  -0.822  0.9666  0.1762 -0.4564
  926MOL0     C24918   8.634   5.324  -0.889  1.2319  0.3832  0.5403
  926MOL0     C24919   8.720   5.402  -0.791 -0.0260 -0.5652 -0.1742
  926MOL0    Cl24920   8.896   5.372  -0.845 -0.0291  0.2704  0.5235
  926MOL0     C24921   8.166   5.263  -0.337 -0.9672 -0.4024 -0.3967
  926MOL0     C24922   8.136   5.250  -0.202  0.5950  0.2480  0.3298
  926MOL0     O24923   8.138   5.400   0.045 -0.2526 -0.5543  0.4251
  926MOL0     C24924   7.898   5.262   0.261 -0.2749  0.3870  0.1457
  926MOL0     C24925   7.873   5.235   0.394 -0.0781 -0.1690  0.2901
  926MOL0     N24926   7.965   5.650   0.763  0.2141 -0.4367 -0.6894
  926MOL0     N24927   7.898   5.757   0.748  0.4558  1.2523 -0.6103
  926MOL0     C24928   7.052   6.382   1.460 -0.4292 -0.4629  0.0376
  926MOL0     C24929   6.952   6.369   1.551  0.4657 -0.2797 -0.7403
  926MOL0     C24930   6.550   6.235   1.713  0.5508  0.6577  0.9341
  926MOL0     C24931   6.412   6.253   1.680  0.5376 -0.9075  0.0656
  926MOL0     C24932   6.305   6.250   1.767  0.3158  0.0884 -0.0128
  926MOL0     C24933   6.339   6.217   1.896  0.6318 -0.5013 -0.4047
  926MOL0     O24934   6.231   6.219   1.987 -0.1348  0.6630 -0.1508
  926MOL0     C24935   6.235   6.150   2.112 -0.1649  0.1132  0.9440
  926MOL0     C24936   6.244   6.244   2.235 -0.6476  0.3552 -0.0934
  926MOL0     C24937   6.390   6.286   2.275  0.5659  0.8748  0.4473
  926MOL0     C24938   6.392   6.355   2.408 -0.1816 -0.2260  0.2413
  926MOL0     C24939   6.525   6.358   2.454 -0.6313  0.7376 -0.0471
  926MOL0     C24940   6.640   6.354   2.483  0.4953 -0.4054 -1.1841
  926MOL0     C24941   6.469   6.195   1.932  0.1992 -1.0273 -0.0042
  926MOL0     C24942   6.580   6.195   1.844  0.2896  0.0609  0.1074
  926MOL0     H24943   6.935   6.031   1.562 -0.6289  0.5260  1.5605
  926MOL0     H24944   7.121   6.048   1.421  0.5067  1.2644 -1.4504
  926MOL0     H24945   7.216   6.462   1.243  1.0022  0.1492 -2.7943
  926MOL0     H24946   7.358   6.375   1.314  0.5286 -1.0477  1.2020
  926MOL0     H24947   7.239   6.298   1.054 -0.6234 -0.0332 -0.2521
  926MOL0     H24948   7.334   6.447   1.062  0.0830 -0.9769 -2.4664
  926MOL0     H24949   7.531   6.300   1.157  0.0147 -2.2299  1.1530
  926MOL0     H24950   7.419   6.161   1.156 -0.7450  0.2847  1.0204
  926MOL0     H24951   7.401   6.219   0.896 -0.2063 -0.0623  0.0375
  926MOL0     H24952   7.528   6.336   0.928  0.2034 -0.1112 -1.4460
  926MOL0     H24953   7.654   6.127   1.032  1.1200  2.9905 -0.4298
  926MOL0     H24954   7.527   6.032   0.981  0.3029 -0.1176  1.9906
  926MOL0     H24955   7.572   6.110   0.748  2.1947 -3.0664 -2.0901
  926MOL0     H24956   7.719   6.194   0.785 -1.8356 -0.7730 -3.7773
  926MOL0     H24957   7.761   5.996   0.690  1.0019 -0.1338  0.4855
  926MOL0     H24958   7.838   5.986   0.846  0.8542  1.7325 -1.2847
  926MOL0     H24959   7.588   5.829   0.767 -2.2724  1.2229  1.6688
  926MOL0     H24960   7.644   5.856   0.932  2.6783 -0.0955  0.7214
  926MOL0     H24961   7.686   5.583   0.930  0.7890  0.1036  2.5754
  926MOL0     H24962   8.045   5.407   0.822  0.1599  0.9459 -1.0881
  926MOL0     H24963   7.985   5.418   0.962  2.7268 -2.0640 -0.9847
  926MOL0     H24964   7.791   5.299   0.765 -0.4834 -2.4277  1.0831
  926MOL0     H24965   7.797   5.288   0.940 -1.1214 -3.5732  0.3353
  926MOL0     H24966   7.868   5.088   0.855 -1.5140  1.1721 -3.8865
  926MOL0     H24967   8.001   5.171   0.937  0.8794  3.2491 -0.5489
  926MOL0     H24968   8.079   5.066   0.703  2.1643  0.9311 -2.2881
  926MOL0     H24969   8.086   5.246   0.715  3.3096 -2.7392 -0.0083
  926MOL0     H24970   8.189   5.181   0.502  0.1053  4.1030  1.5175
  926MOL0     H24971   8.328   5.139   0.298  1.2321  0.2254 -1.7119
  926MOL0     H24972   8.280   5.196   0.142 -2.6359 -0.0344 -0.2687
  926MOL0     H24973   8.326   5.317   0.263 -3.4221  1.0149  1.6589
  926MOL0     H24974   7.807   5.361  -0.194 -0.7527 -2.7698  0.9686
  926MOL0     H24975   7.865   5.421  -0.416 -0.5295 -1.6369  0.9216
  926MOL0     H24976   7.990   5.229  -0.675  1.4623 -0.4190 -0.7275
  926MOL0     H24977   7.893   5.367  -0.634 -0.4609  1.3017 -1.1344
  926MOL0     H24978   7.971   5.365  -0.864 -1.5294 -0.0002  0.0479
  926MOL0     H24979   8.000   5.510  -0.772  0.1641 -0.0576 -0.4624
  926MOL0     H24980   8.237   5.447  -0.743 -0.0541  0.8593 -1.1078
  926MOL0     H24981   8.193   5.460  -0.904 -1.4869  2.6977  1.3207
  926MOL0     H24982   8.226   5.190  -0.755 -4.0385 -1.4472 -0.5933
  926MOL0     H24983   8.154   5.209  -0.908  1.0157 -0.8179  0.7133
  926MOL0     H24984   8.382   5.310  -1.002  0.6705  2.3180  0.8065
  926MOL0     H24985   8.406   5.153  -0.925 -2.2018 -0.5211  0.2252
  926MOL0     H24986   8.450   5.424  -0.815  0.1364 -0.0431 -1.9727
  926MOL0     H24987   8.508   5.291  -0.719  0.8216  2.4745  0.3660
  926MOL0     H24988   8.634   5.377  -0.985 -0.6545  0.7416  0.7036
  926MOL0     H24989   8.663   5.219  -0.900  1.0774  0.3415  0.5414
  926MOL0     H24990   8.715   5.361  -0.689  2.5981 -1.5307 -0.3561
  926MOL0     H24991   8.687   5.506  -0.793 -3.0224 -1.2355  3.2366
  926MOL0     H24992   8.251   5.230  -0.396 -1.7379 -0.9672 -1.2167
  926MOL0     H24993   8.207   5.233  -0.122 -1.0420  0.3642  1.8659
  926MOL0     H24994   7.826   5.314   0.197 -0.7146  1.3608  1.3960
  926MOL0     H24995   7.771   5.238   0.429 -0.1180 -0.8533  0.2531
  926MOL0     H24996   7.065   6.482   1.420 -0.0724  0.0476  1.4044
  926MOL0     H24997   6.901   6.454   1.594  1.1644  1.8785 -3.8262
  926MOL0     H24998   6.374   6.281   1.582  0.0084  2.0917  1.0348
  926MOL0     H24999   6.206   6.290   1.748 -0.4220 -1.5309  0.2419
  926MOL0     H25000   6.146   6.088   2.119 -1.4821  1.6193 -1.1602
  926MOL0     H25001   6.316   6.077   2.116  2.1998  2.6141  1.9949
  926MOL0     H25002   6.192   6.202   2.321 -0.2130 -1.1097 -0.5140
  926MOL0     H25003   6.206   6.346   2.223 -0.5176  0.6291  1.5753
  926MOL0     H25004   6.437   6.345   2.195 -0.4491  1.6064  0.3746
  926MOL0     H25005   6.443   6.192   2.289  3.3037  2.4255  1.3461
  926MOL0     H25006   6.333   6.295   2.478 -1.6153  3.4315  2.4690
  926MOL0     H25007   6.340   6.451   2.409 -1.0899 -0.7023  0.8496
  926MOL0     H25008   6.746   6.358   2.499  0.3053 -1.5668  0.4929
  926MOL0     H25009   6.494   6.180   2.037 -3.8030  1.5298  1.5565
  926MOL0     H25010   6.679   6.187   1.886  0.2217  0.2809  0.3095
  927MOL0     O25011   5.916   2.943   4.741 -0.6855  0.0915 -0.2784
  927MOL0     C25012   5.888   2.908   4.858  0.7897  0.3823 -0.7353
  927MOL0     O25013   5.860   2.775   4.898 -0.1003  0.0634  0.2300
  927MOL0     C25014   5.926   2.671   4.831  1.1605  0.3828 -0.3376
  927MOL0     C25015   5.980   2.657   4.704 -0.3668  0.9161  0.2827
  927MOL0     C25016   6.051   2.541   4.668 -0.7456 -0.4346  0.9045
  927MOL0     C25017   6.088   2.443   4.763  0.2832 -0.9743  0.0980
  927MOL0     O25018   6.161   2.332   4.739 -0.4009 -0.5131 -0.0032
  927MOL0     C25019   6.291   2.349   4.682  0.6095 -0.0113  0.2006
  927MOL0     C25020   6.396   2.356   4.792  0.1179 -0.6063  0.0723
  927MOL0     C25021   6.524   2.417   4.741  1.1610 -0.0030  0.3782
  927MOL0     C25022   6.603   2.457   4.863 -0.9759  0.5510 -0.5772
  927MOL0     C25023   6.587   2.606   4.899 -0.0842  0.8086  0.2704
  927MOL0     C25024   6.668   2.629   5.030 -0.5470 -0.8846  0.1158
  927MOL0     C25025   6.701   2.774   5.042 -0.8286  0.0295  0.1920
  927MOL0     C25026   6.787   2.810   5.160  0.2232 -0.0981 -0.0960
  927MOL0     N25027   6.925   2.778   5.145  0.2440  0.0972  0.5162
  927MOL0     C25028   7.002   2.850   5.054 -0.0926 -0.3368 -0.0875
  927MOL0     C25029   7.126   2.796   5.076  0.0355 -0.4681 -0.3637
  927MOL0     C25030   7.251   2.821   4.992  0.0271  0.4348  0.1465
  927MOL0     C25031   7.232   2.782   4.844  0.3984  0.2306  0.7627
  927MOL0     C25032   7.196   2.633   4.834  0.8162 -0.1966 -0.2367
  927MOL0     C25033   7.065   2.602   4.783  0.8317 -0.1868 -0.2705
  927MOL0     O25034   7.033   2.465   4.791 -0.7766 -0.0609  0.3409
  927MOL0     C25035   6.951   2.408   4.693  0.4470 -0.8430 -0.3743
  927MOL0     C25036   6.956   2.271   4.691  1.4080  0.2875 -0.7838
  927MOL0     C25037   6.876   2.199   4.604 -0.0013 -0.3614 -0.1598
  927MOL0     C25038   6.898   2.053   4.609 -0.1156  1.1706 -0.5410
  927MOL0     C25039   6.794   2.269   4.515  0.7295  0.6020  0.2235
  927MOL0     C25040   6.695   2.194   4.430 -0.8669  0.0045  0.6827
  927MOL0     O25041   6.576   2.256   4.413  0.1394  0.2495 -0.1822
  927MOL0     C25042   6.475   2.193   4.358  0.7913  0.5403  0.3842
  927MOL0     C25043   6.449   2.054   4.337 -0.0074  0.4648 -0.0519
  927MOL0     C25044   6.322   2.018   4.274  0.2236  0.3082  0.4690
  927MOL0     C25045   6.219   2.112   4.242 -0.1502  0.8056  0.3056
  927MOL0     O25046   6.085   2.086   4.218 -0.5627  0.3280 -0.7872
  927MOL0     C25047   6.057   1.951   4.192  0.2566  0.4284  0.3630
  927MOL0     C25048   5.908   1.930   4.153 -0.6521  0.0255  0.3023
  927MOL0     C25049   5.841   2.022   4.049 -0.5208 -0.3835 -0.4732
  927MOL0     C25050   5.798   1.957   3.920 -0.6434  0.9905  0.3099
  927MOL0     C25051   5.667   1.894   3.911  0.6050 -1.1302 -0.0084
  927MOL0     C25052   5.656   1.760   3.981  0.3211 -0.0335 -0.5390
  927MOL0     C25053   5.541   1.659   3.955  0.5023 -0.9844 -0.2518
  927MOL0     C25054   5.401   1.725   3.988  0.5379  0.4271 -0.8995
  927MOL0    Cl25055   5.264   1.625   3.920  0.2181  0.0762 -0.1488
  927MOL0     C25056   6.246   2.244   4.272 -0.6172  0.7390  1.0809
  927MOL0     C25057   6.367   2.274   4.321 -0.5146 -0.5095 -0.0263
  927MOL0     O25058   6.725   2.093   4.373 -0.1395  0.2222 -0.1893
  927MOL0     C25059   6.800   2.404   4.508 -0.4954  0.4251  0.3162
  927MOL0     C25060   6.873   2.480   4.600  1.3168  0.2155 -0.0058
  927MOL0     N25061   7.116   2.692   5.159  0.5606 -0.0473 -0.4705
  927MOL0     N25062   6.995   2.682   5.202 -0.1886  0.5633 -0.6212
  927MOL0     C25063   6.023   2.451   4.885 -0.7451 -0.3688  0.6273
  927MOL0     C25064   5.948   2.565   4.920 -0.4869  0.3682 -1.0365
  927MOL0     C25065   5.880   3.002   4.973  0.0648 -0.1800 -0.1729
  927MOL0     C25066   5.978   3.102   4.988 -1.1122  0.5807 -0.4981
  927MOL0     C25067   5.963   3.197   5.098 -0.1039 -0.0974 -0.5167
  927MOL0     C25068   5.859   3.190   5.192  0.3506  0.3474 -0.4399
  927MOL0     O25069   5.840   3.279   5.298  0.2201  0.4959  0.4017
  927MOL0     C25070   5.905   3.404   5.299  0.0164  1.3822  0.7127
  927MOL0     C25071   5.865   3.501   5.196  0.4043 -0.5024 -0.0684
  927MOL0     C25072   5.781   3.624   5.237 -0.0078 -0.9418 -0.6662
  927MOL0     C25073   5.802   3.735   5.131  0.1883 -0.0017  0.0985
  927MOL0     C25074   5.775   3.693   4.995 -0.1718  0.9450 -0.2022
  927MOL0     C25075   5.788   3.647   4.888 -0.2352 -0.1741  0.7322
  927MOL0     C25076   5.767   3.085   5.176  0.2420  0.0387 -0.3031
  927MOL0     C25077   5.772   3.003   5.062 -0.5703  0.3352  0.2322
  927MOL0     H25078   5.957   2.739   4.636 -1.7870  0.3053 -0.0225
  927MOL0     H25079   6.092   2.525   4.569  1.1403  2.0061  1.1719
  927MOL0     H25080   6.320   2.268   4.614 -0.9507  1.4151 -2.3477
  927MOL0     H25081   6.290   2.437   4.618 -2.5221 -0.4637 -0.5461
  927MOL0     H25082   6.360   2.430   4.864 -1.5737 -3.0259  1.8643
  927MOL0     H25083   6.404   2.264   4.850 -1.1399 -1.0193 -0.3884
  927MOL0     H25084   6.584   2.337   4.696  1.8015  1.2257 -1.0304
  927MOL0     H25085   6.516   2.506   4.678 -0.1065  0.0145  0.5423
  927MOL0     H25086   6.574   2.405   4.955  2.6610  0.1121  0.4882
  927MOL0     H25087   6.705   2.432   4.833 -0.9188  0.9503 -0.7249
  927MOL0     H25088   6.623   2.654   4.807  0.3813 -3.8466 -2.2668
  927MOL0     H25089   6.479   2.623   4.910 -0.0890  0.3064  1.1023
  927MOL0     H25090   6.621   2.605   5.126 -1.2437  0.5945  0.1605
  927MOL0     H25091   6.763   2.577   5.018 -0.4316 -0.3842 -1.3161
  927MOL0     H25092   6.742   2.810   4.947 -3.8681 -0.6436 -1.5128
  927MOL0     H25093   6.607   2.823   5.069 -1.9801 -2.4923  0.9811
  927MOL0     H25094   6.752   2.750   5.244  2.4512  0.6716  1.5013
  927MOL0     H25095   6.785   2.917   5.184  0.4278  0.0626 -0.7627
  927MOL0     H25096   6.975   2.921   4.977  2.0824 -1.0560 -1.6209
  927MOL0     H25097   7.268   2.929   5.002 -4.0305  1.0857  2.0162
  927MOL0     H25098   7.338   2.768   5.031 -0.4097  0.2526  0.8763
  927MOL0     H25099   7.331   2.805   4.806 -0.2562 -0.0105 -1.2111
  927MOL0     H25100   7.163   2.841   4.783 -1.4815 -2.0519  0.4983
  927MOL0     H25101   7.205   2.588   4.933 -0.3864  2.9333  1.4233
  927MOL0     H25102   7.275   2.592   4.770  3.2156  2.2305  0.9779
  927MOL0     H25103   7.069   2.625   4.676 -2.3254  0.5036 -0.3378
  927MOL0     H25104   6.986   2.665   4.825 -2.1233 -2.6426 -1.7836
  927MOL0     H25105   7.032   2.227   4.756  1.0078  3.0111  1.7360
  927MOL0     H25106   6.949   2.013   4.697 -3.6676  0.9945  1.6484
  927MOL0     H25107   6.798   2.009   4.610  0.0682  0.4984 -3.2825
  927MOL0     H25108   6.948   2.016   4.518 -2.5798 -0.7058 -1.2370
  927MOL0     H25109   6.522   1.980   4.367 -0.5776  1.3590  4.2256
  927MOL0     H25110   6.312   1.914   4.243  2.8184 -0.2185  1.1697
  927MOL0     H25111   6.117   1.925   4.103  0.7906 -1.2369  1.1697
  927MOL0     H25112   6.087   1.881   4.271  3.2551 -0.3263 -1.2557
  927MOL0     H25113   5.897   1.827   4.119 -1.0107  0.0073  0.4726
  927MOL0     H25114   5.844   1.949   4.239 -1.4505  0.0592 -0.2829
  927MOL0     H25115   5.901   2.110   4.024  1.5640 -1.7306 -0.4379
  927MOL0     H25116   5.756   2.071   4.099 -0.5607  2.6474 -3.1674
  927MOL0     H25117   5.814   2.039   3.848  2.2887 -0.8041 -1.2703
  927MOL0     H25118   5.872   1.881   3.893  0.4846  1.2458  2.4425
  927MOL0     H25119   5.635   1.889   3.806 -1.5454  1.4320  0.4027
  927MOL0     H25120   5.592   1.960   3.956  0.9034 -0.2935 -0.7037
  927MOL0     H25121   5.747   1.710   3.947  0.0837  0.2200 -1.5564
  927MOL0     H25122   5.653   1.763   4.091 -1.5699 -2.7028 -0.4178
  927MOL0     H25123   5.566   1.567   4.009 -0.4583 -1.4575 -0.5803
  927MOL0     H25124   5.549   1.623   3.852  1.2674  2.0326 -1.3459
  927MOL0     H25125   5.405   1.820   3.934  0.8308 -0.0064 -1.6480
  927MOL0     H25126   5.395   1.733   4.097 -0.8756 -1.2550 -0.8158
  927MOL0     H25127   6.165   2.315   4.263 -3.7664 -2.6482  0.5056
  927MOL0     H25128   6.391   2.379   4.330  0.8225 -0.7832 -0.1888
  927MOL0     H25129   6.739   2.458   4.436 -2.0206 -1.1516  0.3587
  927MOL0     H25130   6.859   2.585   4.576 -2.5296 -0.4733 -1.4158
  927MOL0     H25131   6.054   2.369   4.948 -1.3514 -0.4202  0.8665
  927MOL0     H25132   5.909   2.558   5.021  2.4935 -2.0097  0.0733
  927MOL0     H25133   6.062   3.111   4.921  2.7811  0.7509  3.9128
  927MOL0     H25134   6.021   3.289   5.094 -1.6780  0.9722  0.3333
  927MOL0     H25135   5.882   3.445   5.398 -1.8809 -1.6183  1.6585
  927MOL0     H25136   6.014   3.392   5.295  0.0411  1.3587  1.2948
  927MOL0     H25137   5.818   3.448   5.113 -1.3703  1.7007 -0.5900
  927MOL0     H25138   5.958   3.541   5.154  0.3711 -1.9777 -1.6403
  927MOL0     H25139   5.818   3.665   5.332 -0.1350  0.0500 -1.0386
  927MOL0     H25140   5.676   3.597   5.249 -0.4344  1.2935  1.3267
  927MOL0     H25141   5.904   3.772   5.133  0.5012 -0.8281 -0.1555
  927MOL0     H25142   5.743   3.821   5.164  0.0017 -0.9172  2.3384
  927MOL0     H25143   5.800   3.594   4.796  0.0585  0.8818  0.1500
  927MOL0     H25144   5.681   3.067   5.240 -0.4399 -2.0797 -1.7264
  927MOL0     H25145   5.690   2.937   5.032  1.5190 -2.2798 -0.1581
  928MOL0     O25146   9.511   0.551   6.495  0.0851 -0.6529 -0.4578
  928MOL0     C25147   9.394   0.523   6.476 -0.1841  0.6977  0.5234
  928MOL0     O25148   9.311   0.600   6.404 -0.6769  0.1552 -0.2739
  928MOL0     C25149   9.352   0.703   6.322 -0.9432 -0.9001 -0.2900
  928MOL0     C25150   9.483   0.720   6.273  1.1246  0.1633 -0.0832
  928MOL0     C25151   9.515   0.831   6.196  0.5781  0.1023  0.2222
  928MOL0     C25152   9.414   0.931   6.175  0.3969 -0.8628 -0.1759
  928MOL0     O25153   9.425   1.040   6.090  0.1135 -0.0774 -0.0008
  928MOL0     C25154   9.541   1.117   6.103 -1.1777  0.1198  0.3866
  928MOL0     C25155   9.518   1.221   6.219 -1.0654  0.5049  0.9549
  928MOL0     C25156   9.635   1.318   6.227 -0.3079 -0.7188  0.5929
  928MOL0     C25157   9.622   1.406   6.352 -0.9496  0.6398  0.4557
  928MOL0     C25158   9.747   1.490   6.388 -0.6691 -0.0076  0.4791
  928MOL0     C25159   9.796   1.596   6.290  0.2958  0.2777 -0.0444
  928MOL0     C25160   9.933   1.662   6.335  0.0115 -0.1547 -0.3612
  928MOL0     C25161  10.045   1.557   6.324 -1.1429  0.2705 -0.2163
  928MOL0     N25162  10.037   1.490   6.198 -0.0713 -0.1400 -0.5168
  928MOL0     C25163  10.054   1.560   6.081 -0.5631  0.0920 -0.3950
  928MOL0     C25164  10.046   1.467   5.982  1.1733 -0.3716 -0.7503
  928MOL0     C25165  10.047   1.483   5.840 -0.0114  0.5521 -0.8105
  928MOL0     C25166   9.955   1.608   5.798 -0.3859 -1.1710  0.2037
  928MOL0     C25167   9.806   1.608   5.835 -0.1382  0.3371 -0.1290
  928MOL0     C25168   9.728   1.528   5.735 -0.4849  0.5326  0.4986
  928MOL0     O25169   9.728   1.383   5.752 -0.5335 -0.7354  0.5806
  928MOL0     C25170   9.637   1.309   5.688 -0.0202  0.8464 -0.3962
  928MOL0     C25171   9.551   1.350   5.590 -0.3172  0.0225 -0.1451
  928MOL0     C25172   9.448   1.265   5.535 -0.8970 -1.0794  0.0590
  928MOL0     C25173   9.369   1.326   5.418 -0.2320  0.4093 -0.1354
  928MOL0     C25174   9.431   1.136   5.591  0.2213 -0.1264  0.3069
  928MOL0     C25175   9.331   1.044   5.533  0.3846  0.8910 -0.4669
  928MOL0     O25176   9.387   0.920   5.521  0.1422 -0.7283  0.8371
  928MOL0     C25177   9.319   0.808   5.474 -0.9732 -0.7211 -0.0708
  928MOL0     C25178   9.251   0.726   5.564  0.8358 -0.1577  0.0859
  928MOL0     C25179   9.194   0.601   5.517 -0.1914 -0.3513 -0.0745
  928MOL0     C25180   9.202   0.572   5.379  0.3795  0.7299 -0.0378
  928MOL0     O25181   9.157   0.453   5.336  0.4270 -0.2465 -0.0615
  928MOL0     C25182   9.017   0.438   5.338 -0.0032  0.3229 -0.1762
  928MOL0     C25183   8.967   0.352   5.210 -0.4387  0.9151 -0.3038
  928MOL0     C25184   8.811   0.328   5.222  0.4724  0.0255  0.3253
  928MOL0     C25185   8.754   0.284   5.081 -0.2047 -0.1093 -0.0445
  928MOL0     C25186   8.606   0.280   5.090  0.1438  0.6568 -0.1227
  928MOL0     C25187   8.528   0.301   4.955 -0.9033 -0.0009 -1.0673
  928MOL0     C25188   8.375   0.292   4.972 -0.5644  0.1766 -1.1388
  928MOL0     C25189   8.308   0.301   4.828 -0.4914  0.1529  0.3025
  928MOL0    Cl25190   8.129   0.261   4.832  0.0405 -0.2873 -0.2353
  928MOL0     C25191   9.255   0.664   5.290 -0.0027  0.4143  0.2299
  928MOL0     C25192   9.315   0.782   5.339  0.9189 -0.4455 -0.8054
  928MOL0     O25193   9.231   1.081   5.467 -0.0051 -0.1587  0.0199
  928MOL0     C25194   9.519   1.097   5.685 -0.7251 -0.1152 -0.4830
  928MOL0     C25195   9.617   1.184   5.743 -0.1964 -0.9589  0.8224
  928MOL0     N25196  10.024   1.348   6.053 -0.2713 -0.6675  0.4287
  928MOL0     N25197  10.004   1.364   6.172 -0.3666 -0.3833 -0.1913
  928MOL0     C25198   9.278   0.901   6.218  0.6010 -0.3560  0.6294
  928MOL0     C25199   9.245   0.797   6.299 -0.3030  1.4989  0.5109
  928MOL0     C25200   9.342   0.395   6.530 -0.1508 -0.2637 -0.0982
  928MOL0     C25201   9.440   0.311   6.577  0.2027  0.3904 -0.6544
  928MOL0     C25202   9.416   0.183   6.617  0.4113  0.9333 -0.1898
  928MOL0     C25203   9.285   0.137   6.610 -0.0956 -0.3121 -0.4580
  928MOL0     O25204   9.254   0.003   6.635  0.0495 -0.5065  0.5557
  928MOL0     C25205   9.359  -0.091   6.666  0.6152 -0.1028 -0.2016
  928MOL0     C25206   9.288  -0.227   6.701  1.1957  0.3973 -0.5315
  928MOL0     C25207   9.179  -0.213   6.817  0.2107  0.6292  0.1968
  928MOL0     C25208   9.247  -0.200   6.955 -0.9323 -0.5008 -0.0357
  928MOL0     C25209   9.151  -0.190   7.066  0.8509 -0.3726  0.0721
  928MOL0     C25210   9.097  -0.155   7.167 -0.6735  0.6326 -0.5673
  928MOL0     C25211   9.183   0.221   6.565  0.9171  0.3419  0.1326
  928MOL0     C25212   9.206   0.353   6.524 -0.5782  0.4588 -0.4766
  928MOL0     H25213   9.567   0.654   6.292  0.8213  0.0686  0.9565
  928MOL0     H25214   9.617   0.849   6.162  0.3205  0.9082 -0.1367
  928MOL0     H25215   9.633   1.064   6.128 -1.4382 -0.4312  0.2139
  928MOL0     H25216   9.575   1.177   6.018  2.3509 -2.3362 -0.1595
  928MOL0     H25217   9.420   1.270   6.211 -2.2242 -1.8788 -0.8848
  928MOL0     H25218   9.513   1.167   6.314  0.8722  0.3097  0.9804
  928MOL0     H25219   9.728   1.262   6.239  0.7461  0.8311 -0.0891
  928MOL0     H25220   9.621   1.388   6.144  0.0587  1.1427  2.0574
  928MOL0     H25221   9.530   1.466   6.345 -0.5378  1.2891  0.5981
  928MOL0     H25222   9.617   1.345   6.443 -0.5679 -0.8873 -0.5080
  928MOL0     H25223   9.709   1.545   6.475 -3.3630  1.6165 -1.5656
  928MOL0     H25224   9.830   1.426   6.417 -1.4265 -1.3858 -0.3064
  928MOL0     H25225   9.804   1.556   6.188  1.5101  0.6452 -0.1028
  928MOL0     H25226   9.718   1.672   6.301 -1.5064 -1.4443 -0.3446
  928MOL0     H25227   9.960   1.750   6.276  0.0835  1.4629  1.9853
  928MOL0     H25228   9.918   1.696   6.437  1.2754 -0.6350  0.0136
  928MOL0     H25229  10.031   1.481   6.402  3.1025 -0.3045  0.2161
  928MOL0     H25230  10.143   1.600   6.343 -0.8126 -0.0084 -1.2184
  928MOL0     H25231  10.066   1.667   6.064  1.2483  0.2574  1.4161
  928MOL0     H25232  10.147   1.510   5.805  0.3878 -0.0537 -0.1573
  928MOL0     H25233  10.019   1.391   5.790  0.2428  0.7113 -1.2496
  928MOL0     H25234   9.961   1.637   5.692 -0.5287 -4.6714 -0.8819
  928MOL0     H25235   9.989   1.699   5.849 -0.3363  0.3907 -2.4468
  928MOL0     H25236   9.780   1.714   5.841  0.1058  0.5328 -1.8786
  928MOL0     H25237   9.779   1.566   5.932 -0.8567  1.6010  0.2475
  928MOL0     H25238   9.761   1.561   5.636  0.5262  0.5269  0.8223
  928MOL0     H25239   9.626   1.562   5.755 -1.8616 -0.7143 -3.4568
  928MOL0     H25240   9.560   1.451   5.551 -1.6012  0.1118 -0.2314
  928MOL0     H25241   9.394   1.426   5.382  1.2111 -0.0349 -0.4209
  928MOL0     H25242   9.374   1.260   5.331 -0.3228  2.2195 -1.5636
  928MOL0     H25243   9.266   1.342   5.452 -0.0583 -0.6914  0.9926
  928MOL0     H25244   9.250   0.758   5.668 -1.5410  0.1676  0.0093
  928MOL0     H25245   9.146   0.532   5.585 -5.9815  0.3262 -2.8311
  928MOL0     H25246   8.996   0.389   5.434 -0.0313  1.8974  0.6485
  928MOL0     H25247   8.965   0.534   5.341 -3.5247 -1.4140  0.5456
  928MOL0     H25248   8.997   0.402   5.117  0.1379  1.0100 -0.0717
  928MOL0     H25249   9.027   0.261   5.202  0.0320  1.1362  0.5795
  928MOL0     H25250   8.756   0.421   5.235 -0.4925 -0.2179 -1.6485
  928MOL0     H25251   8.773   0.259   5.298 -2.3509  0.2556 -0.7584
  928MOL0     H25252   8.800   0.349   5.006  0.3329 -1.1536 -0.6444
  928MOL0     H25253   8.787   0.183   5.055 -1.5310 -1.1843  2.1508
  928MOL0     H25254   8.581   0.363   5.157 -0.0623  0.6421 -0.1793
  928MOL0     H25255   8.587   0.183   5.136 -0.7856  0.6966 -0.4067
  928MOL0     H25256   8.545   0.402   4.919  3.2436 -1.4126 -3.7842
  928MOL0     H25257   8.572   0.238   4.877  3.7684 -0.0716  1.2792
  928MOL0     H25258   8.328   0.370   5.034 -0.3813 -0.6050  0.0144
  928MOL0     H25259   8.352   0.196   5.019 -1.6464  1.1970  0.5192
  928MOL0     H25260   8.357   0.235   4.755 -1.8942 -2.8476  1.8790
  928MOL0     H25261   8.322   0.399   4.781 -3.9701  0.1036 -1.1062
  928MOL0     H25262   9.259   0.642   5.183 -0.5875 -1.5509  0.5808
  928MOL0     H25263   9.368   0.851   5.274  1.6435 -1.2471 -1.0984
  928MOL0     H25264   9.521   0.997   5.727  0.6556 -0.8624 -2.2173
  928MOL0     H25265   9.679   1.144   5.822  1.1363  0.4244  0.5361
  928MOL0     H25266   9.199   0.967   6.182  0.7355 -0.1775  0.6602
  928MOL0     H25267   9.144   0.795   6.340 -1.5743  1.6742 -2.3559
  928MOL0     H25268   9.543   0.343   6.582  0.0541  0.8136 -0.1332
  928MOL0     H25269   9.504   0.125   6.642  1.6132  2.1825 -1.3856
  928MOL0     H25270   9.415  -0.091   6.572  1.0306 -1.8242  0.0088
  928MOL0     H25271   9.422  -0.050   6.745  1.7793  1.7966 -2.0249
  928MOL0     H25272   9.369  -0.294   6.732  2.5402  1.5202 -1.5212
  928MOL0     H25273   9.244  -0.283   6.618 -4.0212 -1.7108  3.1500
  928MOL0     H25274   9.106  -0.294   6.822 -2.1835  2.6661  0.3770
  928MOL0     H25275   9.126  -0.118   6.804  2.0382  1.9524  1.8299
  928MOL0     H25276   9.322  -0.121   6.962 -3.9967  2.8565 -1.6704
  928MOL0     H25277   9.303  -0.292   6.970 -0.9390 -0.9389 -2.3359
  928MOL0     H25278   9.043  -0.125   7.254  1.3683  0.4623  0.8419
  928MOL0     H25279   9.083   0.179   6.562  1.3161 -0.5770 -1.2679
  928MOL0     H25280   9.131   0.429   6.505  0.8523  2.4032  1.2463
  929MOL0     O25281  10.467   4.765   7.543  0.1859 -0.4944 -0.6567
  929MOL0     C25282  10.402   4.732   7.442  1.5189 -0.6678  0.0982
  929MOL0     O25283  10.367   4.613   7.401  0.0106 -0.4718  0.7068
  929MOL0     C25284  10.453   4.516   7.441 -0.1152  0.4473 -0.7921
  929MOL0     C25285  10.585   4.507   7.401 -0.6051  0.0568 -0.9678
  929MOL0     C25286  10.672   4.404   7.442 -0.5017 -0.2286 -0.2216
  929MOL0     C25287  10.621   4.302   7.523 -1.0399  0.5445 -0.0426
  929MOL0     O25288  10.693   4.188   7.555 -0.2634 -0.1676  0.7206
  929MOL0     C25289  10.836   4.187   7.553 -0.1877  0.0174  0.9658
  929MOL0     C25290  10.885   4.107   7.424  0.1745 -0.0804 -1.0159
  929MOL0     C25291  10.830   4.156   7.288  0.0539 -0.1913 -0.9307
  929MOL0     C25292  10.839   4.045   7.180 -0.1681  1.1566 -0.7443
  929MOL0     C25293  10.791   4.097   7.045 -0.0433  0.5168  0.3295
  929MOL0     C25294  10.903   4.156   6.965  0.3354 -0.5394  0.4614
  929MOL0     C25295  10.856   4.218   6.831  0.0603  0.1987  0.1705
  929MOL0     C25296  10.955   4.286   6.747 -0.7030  0.6123  0.1083
  929MOL0     N25297  11.059   4.202   6.689 -0.6708  0.7968  0.8024
  929MOL0     C25298  11.094   4.203   6.553 -0.4912 -0.2629 -0.2292
  929MOL0     C25299  11.195   4.125   6.544  0.0773  0.5890 -0.6303
  929MOL0     C25300  11.265   4.107   6.414 -0.7173  0.0212  0.5280
  929MOL0     C25301  11.157   4.080   6.295 -0.0701  0.2537  0.3583
  929MOL0     C25302  11.086   3.942   6.294 -0.0769 -0.3128  1.4216
  929MOL0     C25303  11.009   3.929   6.170 -0.4184 -0.4647 -0.9147
  929MOL0     O25304  10.940   3.800   6.181  0.8998 -0.4236  0.3594
  929MOL0     C25305  10.996   3.695   6.118  0.0665 -0.1732  0.0300
  929MOL0     C25306  11.048   3.693   5.981 -0.0998  0.1724 -0.3225
  929MOL0     C25307  11.121   3.582   5.938 -0.6475  0.3512  0.1990
  929MOL0     C25308  11.164   3.580   5.792  0.2996  0.2732  0.1784
  929MOL0     C25309  11.137   3.461   6.013  0.0989 -0.3787 -1.0099
  929MOL0     C25310  11.193   3.338   5.970 -0.2461 -0.4870  0.2782
  929MOL0     O25311  11.149   3.227   6.039 -0.1668  0.2324 -0.4679
  929MOL0     C25312  11.211   3.111   6.022  0.6605 -0.6115 -0.4973
  929MOL0     C25313  11.325   3.079   6.090 -0.0318 -0.3095  0.1874
  929MOL0     C25314  11.393   2.952   6.072  0.3489  1.0960 -0.1795
  929MOL0     C25315  11.339   2.858   5.981 -0.4255 -0.3443 -0.7076
  929MOL0     O25316  11.411   2.742   5.970 -0.1289  0.2718 -0.1257
  929MOL0     C25317  11.338   2.621   5.905  0.4103 -0.5228  0.0552
  929MOL0     C25318  11.434   2.506   5.895  0.6067  0.1326  0.1043
  929MOL0     C25319  11.411   2.396   5.797 -0.9252  1.2865  0.4863
  929MOL0     C25320  11.304   2.302   5.852  0.9605  0.6638  0.4409
  929MOL0     C25321  11.332   2.150   5.842 -0.6179 -0.0377  0.1616
  929MOL0     C25322  11.429   2.098   5.941 -0.6894 -0.1662  0.0213
  929MOL0     C25323  11.523   1.994   5.877 -0.3519  0.2953 -0.6003
  929MOL0     C25324  11.634   1.918   5.962 -0.6070 -0.6994  0.0980
  929MOL0    Cl25325  11.737   2.026   6.067  0.3650  0.2875  0.1649
  929MOL0     C25326  11.212   2.893   5.919 -0.2594  0.2703 -0.4397
  929MOL0     C25327  11.154   3.022   5.943  0.6018 -0.2722  0.1128
  929MOL0     O25328  11.297   3.332   5.901  0.8807  0.2797  0.0671
  929MOL0     C25329  11.086   3.466   6.147 -0.6713  0.4655 -0.1275
  929MOL0     C25330  11.003   3.575   6.190 -1.4829  0.5918 -0.3932
  929MOL0     N25331  11.237   4.080   6.663  0.1636  0.1670  0.4931
  929MOL0     N25332  11.153   4.116   6.748 -0.6759 -0.0463  0.0903
  929MOL0     C25333  10.484   4.298   7.551  0.3006 -0.5572  0.3556
  929MOL0     C25334  10.404   4.413   7.528 -0.3409  0.5013  0.3062
  929MOL0     C25335  10.322   4.837   7.375 -0.2298  0.0137 -0.1575
  929MOL0     C25336  10.279   4.950   7.451 -0.3716 -0.0639  0.1622
  929MOL0     C25337  10.224   5.063   7.390  0.4607  0.7773  0.1764
  929MOL0     C25338  10.221   5.067   7.254  0.3907 -0.2602  0.9963
  929MOL0     O25339  10.168   5.170   7.184 -0.0269  0.4868 -0.2536
  929MOL0     C25340  10.173   5.303   7.242 -0.6193  0.7875  0.0658
  929MOL0     C25341  10.119   5.397   7.138 -0.1034 -0.2453  0.0162
  929MOL0     C25342  10.106   5.538   7.197 -0.5035 -0.0336 -0.6324
  929MOL0     C25343   9.979   5.562   7.269 -1.6001 -0.0332  0.5749
  929MOL0     C25344   9.987   5.551   7.414 -0.4044  0.2083  0.3142
  929MOL0     C25345   9.989   5.537   7.531  0.1472  0.0029  0.4469
  929MOL0     C25346  10.258   4.952   7.173 -0.3869 -0.3814 -1.1421
  929MOL0     C25347  10.311   4.841   7.231 -0.5490  0.1608  1.2252
  929MOL0     H25348  10.630   4.581   7.336  0.4350  0.5612  0.2860
  929MOL0     H25349  10.775   4.406   7.410 -1.0138  0.8978 -1.9032
  929MOL0     H25350  10.881   4.286   7.539 -1.5140  0.6112  0.7975
  929MOL0     H25351  10.878   4.138   7.642 -0.7616 -3.1650 -0.3741
  929MOL0     H25352  10.992   4.101   7.402  0.3270 -2.4789  0.0237
  929MOL0     H25353  10.847   4.007   7.448 -1.3711  0.6836 -0.1614
  929MOL0     H25354  10.731   4.202   7.287  0.3532  0.5036 -0.1333
  929MOL0     H25355  10.889   4.246   7.266  0.6360  0.3171  2.2247
  929MOL0     H25356  10.941   4.003   7.184 -1.1770 -1.4123  1.9698
  929MOL0     H25357  10.763   3.970   7.203 -1.3670  1.5544 -3.0965
  929MOL0     H25358  10.747   4.016   6.985 -1.1819  1.4967 -0.2012
  929MOL0     H25359  10.701   4.158   7.060 -1.3902 -1.3991  0.4238
  929MOL0     H25360  10.955   4.242   7.009 -2.2795  1.1292  0.4989
  929MOL0     H25361  10.973   4.072   6.952 -0.7110 -1.3380 -0.2366
  929MOL0     H25362  10.806   4.139   6.775  1.8445 -2.7523  2.4424
  929MOL0     H25363  10.785   4.301   6.844  0.5756  1.0547 -1.9999
  929MOL0     H25364  11.013   4.350   6.813 -1.6497  0.9960  0.5910
  929MOL0     H25365  10.898   4.340   6.670 -1.5300 -0.5077 -0.0897
  929MOL0     H25366  11.049   4.267   6.477  0.9571  1.0612 -0.0428
  929MOL0     H25367  11.321   4.198   6.392  1.3620 -1.6792 -1.7453
  929MOL0     H25368  11.324   4.016   6.409 -0.8969 -0.2109  2.0659
  929MOL0     H25369  11.229   4.086   6.213  0.6756  1.8758  1.0836
  929MOL0     H25370  11.080   4.157   6.291  0.0068  0.3220  0.2210
  929MOL0     H25371  11.021   3.931   6.382 -0.0575  1.3490  1.6791
  929MOL0     H25372  11.160   3.862   6.292  0.7053  0.4107  0.7498
  929MOL0     H25373  11.060   3.942   6.074 -2.1319 -1.1844 -1.9767
  929MOL0     H25374  10.928   4.002   6.172 -2.1803 -2.3437 -0.6184
  929MOL0     H25375  11.038   3.774   5.909 -2.2880 -1.7419 -2.3210
  929MOL0     H25376  11.087   3.585   5.714  1.0826 -5.2991 -1.3812
  929MOL0     H25377  11.234   3.663   5.781  2.4669 -1.0188  3.0496
  929MOL0     H25378  11.213   3.487   5.764  0.6969 -0.1228  2.0369
  929MOL0     H25379  11.367   3.149   6.162 -0.5274 -1.1011  1.2761
  929MOL0     H25380  11.490   2.924   6.112 -0.0870  0.3256  0.3703
  929MOL0     H25381  11.246   2.601   5.960  0.4922 -0.0536  0.3664
  929MOL0     H25382  11.316   2.633   5.799  1.9663  1.0557 -0.1347
  929MOL0     H25383  11.526   2.544   5.850 -0.2770 -0.6406 -2.5061
  929MOL0     H25384  11.466   2.466   5.992  3.0736  0.6439 -0.4324
  929MOL0     H25385  11.513   2.357   5.782 -1.2592 -0.6942  2.6768
  929MOL0     H25386  11.373   2.437   5.703  1.8919 -1.5203 -2.1178
  929MOL0     H25387  11.263   2.325   5.950  0.2079 -0.4336  0.3888
  929MOL0     H25388  11.221   2.294   5.781  0.8194  0.2908  0.6490
  929MOL0     H25389  11.366   2.140   5.739 -1.4264  3.5895 -0.5917
  929MOL0     H25390  11.236   2.096   5.840 -1.7308  1.8715 -1.1553
  929MOL0     H25391  11.489   2.176   5.988 -0.3550 -0.6166  0.3464
  929MOL0     H25392  11.377   2.047   6.022  0.8623 -1.6606  0.1307
  929MOL0     H25393  11.577   2.039   5.793  2.9829 -0.5639  0.9183
  929MOL0     H25394  11.457   1.922   5.828  0.6595  0.6552 -2.5918
  929MOL0     H25395  11.700   1.861   5.895 -0.7846  2.1805 -2.7665
  929MOL0     H25396  11.583   1.838   6.016  2.0191 -0.3923  3.3226
  929MOL0     H25397  11.150   2.835   5.852 -3.1831  0.0537  2.2464
  929MOL0     H25398  11.053   3.050   5.915 -0.3497 -0.3225  3.1336
  929MOL0     H25399  11.099   3.388   6.221 -2.5169 -0.7990 -1.0647
  929MOL0     H25400  10.969   3.575   6.293 -0.1034  0.8115  0.0881
  929MOL0     H25401  10.433   4.213   7.596  0.3303 -0.3050  0.8833
  929MOL0     H25402  10.296   4.415   7.539 -0.1719  4.0657  2.7412
  929MOL0     H25403  10.282   4.946   7.559 -0.6330  0.9754  0.2204
  929MOL0     H25404  10.166   5.136   7.444  1.5913  1.2615  0.7797
  929MOL0     H25405  10.090   5.302   7.313 -0.9857  1.4405 -0.3439
  929MOL0     H25406  10.273   5.331   7.275 -0.6951  0.5851  0.4724
  929MOL0     H25407  10.018   5.364   7.113 -1.9794  3.3815  2.0335
  929MOL0     H25408  10.174   5.391   7.044  0.5764 -0.6711  0.4287
  929MOL0     H25409  10.104   5.604   7.110  1.8786  0.5473 -0.2980
  929MOL0     H25410  10.191   5.570   7.258 -1.1890  3.4044 -1.3023
  929MOL0     H25411   9.898   5.510   7.217 -2.6116  0.6099  1.4520
  929MOL0     H25412   9.972   5.669   7.245 -0.0334  0.1332  0.7233
  929MOL0     H25413   9.976   5.536   7.638  2.0587  1.9924  0.7699
  929MOL0     H25414  10.284   4.967   7.069  1.8063 -2.8515 -1.0437
  929MOL0     H25415  10.360   4.764   7.172  1.1832  0.8735  1.6453
  930MOL0     O25416   0.720   2.219   3.153 -0.1131 -0.9991  0.4578
  930MOL0     C25417   0.662   2.111   3.156 -0.4477 -1.1034 -0.4583
  930MOL0     O25418   0.525   2.099   3.135 -0.3181 -0.0964  0.5823
  930MOL0     C25419   0.466   2.203   3.067  0.2783 -0.3411 -0.5290
  930MOL0     C25420   0.376   2.284   3.128  0.5791 -0.2169  0.5745
  930MOL0     C25421   0.321   2.395   3.064 -0.5650  0.0412 -0.2297
  930MOL0     C25422   0.341   2.409   2.929 -0.7483  0.2492  0.3587
  930MOL0     O25423   0.263   2.509   2.870 -0.3261 -0.2377 -0.1394
  930MOL0     C25424   0.291   2.573   2.742 -0.6875  0.3486 -0.5006
  930MOL0     C25425   0.207   2.713   2.743 -0.0051 -0.0225  0.5270
  930MOL0     C25426   0.217   2.774   2.599  0.6604 -0.4987  0.5382
  930MOL0     C25427   0.103   2.704   2.507 -0.0226 -1.0091 -0.5438
  930MOL0     C25428   0.095   2.766   2.370  0.6286 -0.2165  0.4275
  930MOL0     C25429   0.221   2.745   2.287  1.0066 -0.5077 -0.7332
  930MOL0     C25430   0.201   2.777   2.153 -0.0762  0.2314  1.5549
  930MOL0     C25431   0.192   2.932   2.124  0.1290  0.7111  0.0248
  930MOL0     N25432   0.229   2.965   1.985  0.2107 -0.2246  0.3246
  930MOL0     C25433   0.277   3.090   1.943 -0.0418 -0.5573 -0.7386
  930MOL0     C25434   0.296   3.078   1.812 -0.5289 -0.5996  0.3323
  930MOL0     C25435   0.368   3.191   1.733  0.0714 -0.7377  0.1421
  930MOL0     C25436   0.505   3.235   1.796 -0.7421 -0.4035 -0.6958
  930MOL0     C25437   0.593   3.135   1.856 -1.2539  0.6007 -0.6220
  930MOL0     C25438   0.689   3.178   1.962  0.5511 -0.5238 -0.7709
  930MOL0     O25439   0.624   3.243   2.078 -0.2124 -0.1858 -0.1437
  930MOL0     C25440   0.604   3.158   2.187 -0.4893  0.2623 -1.0223
  930MOL0     C25441   0.638   3.207   2.309 -0.4818  0.4291 -0.6713
  930MOL0     C25442   0.625   3.136   2.430 -0.0754 -0.5889  0.5714
  930MOL0     C25443   0.648   3.216   2.551  0.8353 -0.6731  0.3990
  930MOL0     C25444   0.588   3.002   2.430 -0.1389 -0.5960 -0.1537
  930MOL0     C25445   0.582   2.908   2.549 -0.3591  0.1082  0.5014
  930MOL0     O25446   0.596   2.956   2.677  0.0290  0.4892  0.0837
  930MOL0     C25447   0.596   2.875   2.789  0.5045 -0.0679  0.1614
  930MOL0     C25448   0.531   2.933   2.898 -0.1704 -0.0669 -0.1906
  930MOL0     C25449   0.538   2.876   3.020  0.4241  0.3071 -0.2009
  930MOL0     C25450   0.599   2.753   3.041 -1.2955  0.4670 -0.3930
  930MOL0     O25451   0.611   2.711   3.172 -1.4468 -0.0643  0.0936
  930MOL0     C25452   0.624   2.574   3.201  0.2310 -0.0379 -0.1998
  930MOL0     C25453   0.617   2.537   3.351  0.0840  0.2525 -0.2176
  930MOL0     C25454   0.481   2.584   3.400 -1.0346 -0.9666 -0.1204
  930MOL0     C25455   0.451   2.524   3.535  0.3246 -0.1162 -0.2113
  930MOL0     C25456   0.325   2.574   3.598 -0.3435 -0.2535 -0.9074
  930MOL0     C25457   0.296   2.491   3.728 -0.5561  0.7993  0.0459
  930MOL0     C25458   0.157   2.519   3.780 -0.4126  0.4652  0.0891
  930MOL0     C25459   0.158   2.607   3.899  0.1416  0.8934  0.8460
  930MOL0    Cl25460   0.245   2.763   3.878 -0.5282  0.3686 -0.0064
  930MOL0     C25461   0.653   2.685   2.932  0.5736  0.8710 -1.0506
  930MOL0     C25462   0.655   2.750   2.804 -0.9688 -0.4667  0.3507
  930MOL0     O25463   0.560   2.790   2.518 -0.1850  0.6298  0.3522
  930MOL0     C25464   0.561   2.955   2.303  0.5308  0.8632 -0.0856
  930MOL0     C25465   0.565   3.028   2.185  0.6223 -0.9992 -0.2849
  930MOL0     N25466   0.280   2.944   1.775 -0.1483 -0.1334  0.5292
  930MOL0     N25467   0.226   2.889   1.874 -0.7197  0.5497 -0.0370
  930MOL0     C25468   0.445   2.337   2.864 -0.7216 -0.5326 -0.3800
  930MOL0     C25469   0.511   2.234   2.934 -0.0456 -0.0536 -0.3101
  930MOL0     C25470   0.746   2.007   3.223 -1.1991 -0.8094 -1.6334
  930MOL0     C25471   0.683   1.899   3.290 -0.2541  0.6951 -0.6325
  930MOL0     C25472   0.764   1.824   3.367  0.0870  0.7197  0.0933
  930MOL0     C25473   0.905   1.830   3.375 -0.0157  1.0558  1.3540
  930MOL0     O25474   0.978   1.748   3.453  0.5798  0.3097  0.3191
  930MOL0     C25475   0.962   1.769   3.588  0.5325  0.6714 -0.1249
  930MOL0     C25476   1.076   1.720   3.669 -0.5556  0.2247  0.6587
  930MOL0     C25477   1.197   1.825   3.656  0.0504 -0.4909  0.0210
  930MOL0     C25478   1.170   1.977   3.665  0.0292 -0.1410 -0.7039
  930MOL0     C25479   1.077   2.023   3.777  0.1933 -0.2432  0.1061
  930MOL0     C25480   0.988   2.052   3.863 -0.4435 -0.3487 -1.2319
  930MOL0     C25481   0.960   1.947   3.315 -0.2916 -1.0787 -0.3433
  930MOL0     C25482   0.887   2.031   3.241  0.1273  0.6559 -1.4267
  930MOL0     H25483   0.365   2.278   3.236 -0.1914  0.6017  0.5519
  930MOL0     H25484   0.251   2.466   3.108  0.6156  3.0710 -2.8219
  930MOL0     H25485   0.397   2.600   2.745 -0.1691 -1.5873  0.5269
  930MOL0     H25486   0.287   2.513   2.651 -0.7258 -1.4978  0.6505
  930MOL0     H25487   0.104   2.686   2.768 -1.2359  1.7465 -2.1459
  930MOL0     H25488   0.241   2.770   2.829  1.1464  1.6917 -0.9819
  930MOL0     H25489   0.202   2.883   2.594 -0.0344 -0.6481 -2.4838
  930MOL0     H25490   0.304   2.741   2.542 -0.3007 -1.9843 -0.1261
  930MOL0     H25491   0.126   2.597   2.507  2.7951 -0.5483  2.3870
  930MOL0     H25492   0.007   2.712   2.560  0.1282  0.2078 -0.4292
  930MOL0     H25493   0.011   2.719   2.317  3.3040 -2.3834 -2.2576
  930MOL0     H25494   0.082   2.874   2.371  1.8811 -0.0426 -0.3666
  930MOL0     H25495   0.300   2.804   2.335  1.1355 -1.4430  0.2366
  930MOL0     H25496   0.249   2.640   2.283 -2.3540 -1.4927 -1.7338
  930MOL0     H25497   0.284   2.744   2.089 -1.8523 -1.9372  0.2168
  930MOL0     H25498   0.114   2.726   2.112  0.5357  0.5246 -0.1728
  930MOL0     H25499   0.267   2.979   2.189  0.7474  0.6141 -0.6004
  930MOL0     H25500   0.090   2.968   2.143 -0.1231 -0.9076  2.0924
  930MOL0     H25501   0.281   3.181   2.002 -0.8474 -0.4457 -0.8344
  930MOL0     H25502   0.379   3.155   1.630 -1.5092 -1.5207  0.2212
  930MOL0     H25503   0.310   3.284   1.727  1.3896  0.0499 -1.1015
  930MOL0     H25504   0.472   3.308   1.870  0.4580  0.4356 -0.9546
  930MOL0     H25505   0.560   3.295   1.722 -0.4987 -2.9923 -2.7532
  930MOL0     H25506   0.658   3.098   1.776  0.4907 -2.1878  1.8746
  930MOL0     H25507   0.532   3.051   1.891  2.1525 -2.3600 -1.0903
  930MOL0     H25508   0.749   3.260   1.923 -1.2637  2.0698  1.4577
  930MOL0     H25509   0.758   3.102   1.998 -0.4135 -0.9846  0.1529
  930MOL0     H25510   0.666   3.312   2.297  1.9749  0.2151  2.0775
  930MOL0     H25511   0.600   3.181   2.643 -3.3499 -1.0706 -1.6617
  930MOL0     H25512   0.757   3.218   2.557  0.7425 -0.2306  2.2284
  930MOL0     H25513   0.600   3.311   2.529 -1.2741 -1.9983 -1.1675
  930MOL0     H25514   0.480   3.029   2.902  0.8641  0.4697  1.2300
  930MOL0     H25515   0.483   2.907   3.109  0.2090 -3.5132  1.1877
  930MOL0     H25516   0.537   2.532   3.150 -0.9560 -0.7358  2.2688
  930MOL0     H25517   0.721   2.545   3.159  0.6685  1.9254 -0.6509
  930MOL0     H25518   0.613   2.428   3.359  1.1410  0.2687  0.7880
  930MOL0     H25519   0.699   2.567   3.417 -0.1903 -0.6358  0.5461
  930MOL0     H25520   0.411   2.552   3.322 -3.4770 -1.5856  2.1631
  930MOL0     H25521   0.476   2.693   3.411  0.0222 -0.0231 -5.8943
  930MOL0     H25522   0.445   2.415   3.526  3.1266 -0.1925 -2.3388
  930MOL0     H25523   0.538   2.535   3.600  0.5010  0.1861 -0.4983
  930MOL0     H25524   0.247   2.554   3.524  1.1756  0.8279 -2.8791
  930MOL0     H25525   0.332   2.681   3.619  3.6748  0.0593 -2.8239
  930MOL0     H25526   0.319   2.385   3.713 -1.7414  0.6546 -0.9193
  930MOL0     H25527   0.371   2.523   3.802  2.3938  1.9385 -3.1576
  930MOL0     H25528   0.116   2.424   3.816  0.0047  0.1208 -0.3318
  930MOL0     H25529   0.099   2.558   3.696 -0.5000  0.1806  0.0139
  930MOL0     H25530   0.208   2.549   3.977  0.1401 -1.5896 -0.8759
  930MOL0     H25531   0.054   2.615   3.929 -0.3604 -0.7179 -0.3220
  930MOL0     H25532   0.705   2.591   2.952 -0.9213  0.4729  1.4167
  930MOL0     H25533   0.705   2.708   2.718  0.9123  2.0826  0.1018
  930MOL0     H25534   0.571   2.848   2.289  4.6834  1.2627 -1.5196
  930MOL0     H25535   0.534   2.970   2.098  1.2850 -0.3946 -0.9350
  930MOL0     H25536   0.489   2.376   2.773 -0.4679  0.2463  0.0626
  930MOL0     H25537   0.594   2.179   2.889 -0.3509 -0.8271  0.0487
  930MOL0     H25538   0.577   1.874   3.285  0.1430 -2.4378  2.3508
  930MOL0     H25539   0.718   1.745   3.424 -0.3983  1.5918  0.9430
  930MOL0     H25540   0.941   1.874   3.611  2.3743  0.7844  1.3749
  930MOL0     H25541   0.876   1.714   3.627  0.1648  1.2559 -0.0966
  930MOL0     H25542   1.107   1.623   3.631  3.5260  1.1347  1.1591
  930MOL0     H25543   1.048   1.707   3.774  3.1212 -1.3073  1.6225
  930MOL0     H25544   1.239   1.809   3.556 -0.8725  1.2820 -0.6962
  930MOL0     H25545   1.275   1.788   3.722  0.9347 -1.1644 -1.3500
  930MOL0     H25546   1.128   2.015   3.571 -4.2662  0.7395  1.3127
  930MOL0     H25547   1.270   2.019   3.679  0.2993 -0.7203 -0.8724
  930MOL0     H25548   0.912   2.081   3.932  2.0130  1.8656  0.7650
  930MOL0     H25549   1.066   1.963   3.335 -0.3065 -2.9304  1.5334
  930MOL0     H25550   0.947   2.109   3.195  1.3764  0.1075 -0.7865
  931MOL0     O25551   8.034   7.447   5.474  0.0169 -0.4549  0.4241
  931MOL0     C25552   7.947   7.520   5.429 -0.2806 -0.6668 -0.8237
  931MOL0     O25553   7.840   7.482   5.357 -0.4172  1.0746  0.2198
  931MOL0     C25554   7.836   7.354   5.307 -0.2344 -0.1321  0.3087
  931MOL0     C25555   7.930   7.314   5.208 -0.5753 -0.4438  0.0611
  931MOL0     C25556   7.926   7.188   5.148 -0.3320  0.2900  0.4163
  931MOL0     C25557   7.810   7.107   5.169 -0.1424  0.0242 -0.3448
  931MOL0     O25558   7.789   6.984   5.106 -0.5964  0.4956  0.1723
  931MOL0     C25559   7.819   6.980   4.965  0.8292 -0.6903 -0.1279
  931MOL0     C25560   7.956   6.925   4.934  0.0124  0.1513  0.2454
  931MOL0     C25561   7.976   6.780   4.983 -0.4722 -0.2406  0.0619
  931MOL0     C25562   8.076   6.722   4.887 -0.4647  0.7343 -0.5025
  931MOL0     C25563   8.119   6.575   4.936 -0.0966  0.0809  0.1239
  931MOL0     C25564   8.233   6.512   4.855 -0.4181  0.2873 -0.2246
  931MOL0     C25565   8.285   6.380   4.909 -0.2243 -0.6675 -0.0989
  931MOL0     C25566   8.416   6.401   4.996  0.3426  0.9154 -0.5991
  931MOL0     N25567   8.510   6.285   4.984  0.0741  0.0466  0.2016
  931MOL0     C25568   8.507   6.172   5.062 -0.6619  0.2495 -0.3036
  931MOL0     C25569   8.629   6.101   5.029  0.1439  0.4526 -0.0420
  931MOL0     C25570   8.675   5.965   5.079  0.2470 -0.3484 -0.4163
  931MOL0     C25571   8.593   5.899   5.183  0.2632  0.8281  0.3098
  931MOL0     C25572   8.476   5.823   5.127  0.0084 -0.3505 -0.2063
  931MOL0     C25573   8.466   5.675   5.170 -0.2635  1.3188 -0.2995
  931MOL0     O25574   8.447   5.678   5.320  0.7692  0.2733  0.2547
  931MOL0     C25575   8.486   5.572   5.401  0.5545 -0.5464  0.1877
  931MOL0     C25576   8.461   5.434   5.368  0.1955 -0.0458 -0.3522
  931MOL0     C25577   8.510   5.334   5.460  0.3858 -0.0223  0.0919
  931MOL0     C25578   8.489   5.189   5.420  0.3373 -1.7774 -0.0208
  931MOL0     C25579   8.597   5.368   5.561  0.2207 -0.5012  0.7709
  931MOL0     C25580   8.649   5.264   5.663 -1.2774  0.6931 -0.2260
  931MOL0     O25581   8.717   5.159   5.622  0.3165 -0.1490  0.5676
  931MOL0     C25582   8.742   5.055   5.710  0.8638 -0.2389  0.5618
  931MOL0     C25583   8.880   5.018   5.727 -0.1052 -0.6406 -0.6228
  931MOL0     C25584   8.908   4.904   5.800  0.1931 -1.0945  0.0710
  931MOL0     C25585   8.805   4.821   5.855 -0.5527  0.4303 -0.4297
  931MOL0     O25586   8.851   4.704   5.913  0.4475  0.1711  0.7270
  931MOL0     C25587   8.753   4.618   5.968 -0.2677 -0.1008 -1.1303
  931MOL0     C25588   8.816   4.482   6.021  0.2745 -0.7273  0.3194
  931MOL0     C25589   8.905   4.500   6.133  0.7638 -0.6672 -1.2640
  931MOL0     C25590   8.819   4.542   6.256 -0.5682  0.2279  0.9648
  931MOL0     C25591   8.879   4.532   6.398  0.7345  0.1092 -1.0919
  931MOL0     C25592   8.873   4.393   6.452 -1.1964  0.3175  0.2431
  931MOL0     C25593   8.870   4.396   6.609  0.2305 -0.6062  0.1933
  931MOL0     C25594   8.878   4.267   6.678 -0.0921  1.2991  0.0557
  931MOL0    Cl25595   9.014   4.167   6.618 -0.2500 -0.2357  0.8586
  931MOL0     C25596   8.674   4.866   5.844  0.4083  0.4257 -0.5520
  931MOL0     C25597   8.641   4.979   5.769 -0.5650  0.6856  0.4539
  931MOL0     O25598   8.628   5.290   5.781 -0.3168 -0.5420  0.0410
  931MOL0     C25599   8.621   5.496   5.588 -0.2893 -1.0718  0.8498
  931MOL0     C25600   8.573   5.601   5.506 -0.3029 -0.0573  0.4558
  931MOL0     N25601   8.696   6.178   4.933  0.4341  0.2745 -0.2727
  931MOL0     N25602   8.626   6.287   4.921 -0.5066 -0.4558 -0.3487
  931MOL0     C25603   7.706   7.156   5.257 -0.3987  0.0914  0.1878
  931MOL0     C25604   7.724   7.273   5.326  0.4265 -0.0778 -0.0620
  931MOL0     C25605   7.952   7.662   5.463  0.1661 -0.7214  0.7620
  931MOL0     C25606   8.030   7.715   5.568 -0.6323  0.6239 -0.0656
  931MOL0     C25607   8.025   7.851   5.593 -0.1835  0.0671 -0.0687
  931MOL0     C25608   7.960   7.943   5.517  0.2052  0.4510 -0.0650
  931MOL0     O25609   7.965   8.074   5.559  0.2069  0.4282 -0.4195
  931MOL0     C25610   7.932   8.184   5.475  0.3111  1.1957  0.6658
  931MOL0     C25611   7.996   8.177   5.330 -0.0609  0.1610  0.3332
  931MOL0     C25612   7.937   8.294   5.249 -0.3984 -0.0384  0.5002
  931MOL0     C25613   7.974   8.257   5.100  1.0797 -0.0884  0.6549
  931MOL0     C25614   7.934   8.355   5.005  0.4097  0.6177  0.0602
  931MOL0     C25615   7.902   8.451   4.939  0.6179  0.2588  0.0573
  931MOL0     C25616   7.874   7.888   5.414 -0.9390 -0.9747 -1.4616
  931MOL0     C25617   7.867   7.751   5.392  0.5703 -1.0411 -0.1434
  931MOL0     H25618   8.007   7.372   5.159 -0.3979 -0.5708  0.1919
  931MOL0     H25619   8.004   7.134   5.094 -1.0643  0.2659 -0.6491
  931MOL0     H25620   7.747   6.907   4.927 -0.5881  0.7175 -0.1989
  931MOL0     H25621   7.804   7.070   4.906 -1.7565 -2.0304 -1.6846
  931MOL0     H25622   7.970   6.934   4.826  0.2359  3.5738  0.4436
  931MOL0     H25623   8.034   6.984   4.983 -0.1285  1.0389 -0.5744
  931MOL0     H25624   8.020   6.785   5.082 -0.7742  0.0573  0.1848
  931MOL0     H25625   7.888   6.716   4.992 -0.0857 -0.5279  2.1881
  931MOL0     H25626   8.018   6.710   4.795  0.2377 -3.0919 -0.6151
  931MOL0     H25627   8.158   6.792   4.873  0.3756  0.1523  1.1535
  931MOL0     H25628   8.150   6.585   5.041  1.7054  1.1819 -0.4665
  931MOL0     H25629   8.028   6.515   4.934  0.9554 -1.7381  2.2725
  931MOL0     H25630   8.207   6.498   4.750  1.4106  2.7036 -1.0856
  931MOL0     H25631   8.308   6.591   4.864 -1.1792  1.0646 -0.5696
  931MOL0     H25632   8.214   6.326   4.972  1.3334 -4.3972 -1.2602
  931MOL0     H25633   8.294   6.309   4.826 -0.2473 -2.2701  1.2121
  931MOL0     H25634   8.377   6.419   5.096  0.5978 -0.1463 -0.2984
  931MOL0     H25635   8.470   6.492   4.966  0.4416  1.1501  0.2601
  931MOL0     H25636   8.434   6.143   5.137  2.2187 -1.1219  2.1975
  931MOL0     H25637   8.692   5.902   4.992  0.3131  2.4748 -2.6125
  931MOL0     H25638   8.775   5.972   5.123 -0.3145 -1.5123  1.1239
  931MOL0     H25639   8.551   5.965   5.260 -1.2707 -0.1608  0.3538
  931MOL0     H25640   8.652   5.832   5.245 -0.8980 -1.9410 -1.4168
  931MOL0     H25641   8.479   5.823   5.018 -1.7351  2.2250 -0.3369
  931MOL0     H25642   8.388   5.867   5.175 -1.4315  0.0569 -2.9962
  931MOL0     H25643   8.558   5.621   5.145 -0.3079  0.7126  0.7613
  931MOL0     H25644   8.372   5.645   5.122 -0.2000  4.3054 -2.5504
  931MOL0     H25645   8.398   5.401   5.287 -1.4826  1.0767  0.4447
  931MOL0     H25646   8.441   5.129   5.498 -0.0298 -0.8922  0.4503
  931MOL0     H25647   8.433   5.187   5.326  0.9262 -0.9656 -0.4021
  931MOL0     H25648   8.582   5.138   5.394  1.9613  1.4045 -0.9133
  931MOL0     H25649   8.958   5.079   5.682  0.7415 -0.7710  0.6280
  931MOL0     H25650   9.007   4.860   5.806  1.1021  0.6378 -1.6274
  931MOL0     H25651   8.695   4.660   6.051  1.9158  1.5622 -0.3697
  931MOL0     H25652   8.692   4.589   5.881  0.5780 -1.3651 -1.3267
  931MOL0     H25653   8.735   4.417   6.054 -1.4137  0.2212 -1.6605
  931MOL0     H25654   8.866   4.433   5.937 -0.6508  0.6219 -1.1023
  931MOL0     H25655   8.982   4.576   6.125 -2.8226  3.1794 -2.5423
  931MOL0     H25656   8.960   4.412   6.169 -0.0350 -0.9981 -0.7930
  931MOL0     H25657   8.797   4.647   6.239 -3.0025 -0.6436 -2.2663
  931MOL0     H25658   8.719   4.498   6.246 -1.0060  1.7680 -3.0319
  931MOL0     H25659   8.828   4.602   6.465  1.6272  0.3752 -0.6674
  931MOL0     H25660   8.981   4.572   6.389  1.3046 -1.3617 -1.4186
  931MOL0     H25661   8.788   4.337   6.411 -0.7245 -0.8397  0.7895
  931MOL0     H25662   8.966   4.344   6.420 -1.3012  1.6189 -2.3099
  931MOL0     H25663   8.779   4.448   6.639 -0.6495 -1.3708 -1.0557
  931MOL0     H25664   8.944   4.467   6.648 -0.4520  1.1404 -1.4872
  931MOL0     H25665   8.793   4.205   6.647  3.2724 -4.1678  0.3039
  931MOL0     H25666   8.891   4.282   6.786  4.1812 -0.3430 -0.0207
  931MOL0     H25667   8.592   4.812   5.890 -0.3898 -0.1592 -2.5384
  931MOL0     H25668   8.535   5.002   5.766 -0.5433  0.7101 -0.4049
  931MOL0     H25669   8.675   5.523   5.679 -3.0274  0.0872  2.2534
  931MOL0     H25670   8.585   5.700   5.547 -1.5784  0.8038 -1.1558
  931MOL0     H25671   7.624   7.087   5.272 -0.6885  0.2564 -0.6392
  931MOL0     H25672   7.643   7.298   5.394 -2.3508 -0.4292 -2.9698
  931MOL0     H25673   8.096   7.645   5.618 -0.6654 -0.6821 -1.7501
  931MOL0     H25674   8.089   7.893   5.670 -0.1124 -0.0838 -0.0449
  931MOL0     H25675   7.823   8.183   5.465  0.2473 -0.9721  1.0447
  931MOL0     H25676   7.953   8.281   5.521 -2.5924  1.4861  1.6059
  931MOL0     H25677   7.975   8.083   5.279 -2.4903 -0.0100  1.5226
  931MOL0     H25678   8.104   8.197   5.334 -0.2038  0.7844  2.6973
  931MOL0     H25679   7.965   8.399   5.267 -1.1749  0.1124  0.8448
  931MOL0     H25680   7.828   8.299   5.248 -0.4123  0.1139 -1.4483
  931MOL0     H25681   7.925   8.163   5.072  0.0501  0.2756  1.1727
  931MOL0     H25682   8.081   8.243   5.085  1.2637  1.6846  0.1266
  931MOL0     H25683   7.888   8.534   4.872 -0.7688 -0.5456 -0.7139
  931MOL0     H25684   7.817   7.956   5.351 -0.7669  0.8318  0.2275
  931MOL0     H25685   7.824   7.728   5.295 -0.9492  1.4972 -0.1561
  932MOL0     O25686   4.967   0.481   7.181 -0.8004 -0.2631 -0.2822
  932MOL0     C25687   4.964   0.386   7.257 -0.1971  0.2195 -0.3941
  932MOL0     O25688   4.853   0.316   7.285  0.4393  0.5094  0.4847
  932MOL0     C25689   4.745   0.334   7.201 -0.9229 -0.6904  0.6436
  932MOL0     C25690   4.665   0.450   7.181 -0.3645 -0.7939  1.3583
  932MOL0     C25691   4.578   0.466   7.072 -0.6320  0.1490  0.7201
  932MOL0     C25692   4.550   0.352   6.992  0.4642  0.8929 -0.9503
  932MOL0     O25693   4.477   0.370   6.878  0.3323 -0.1088 -0.8941
  932MOL0     C25694   4.387   0.261   6.838 -0.0344  0.3434  0.8683
  932MOL0     C25695   4.262   0.337   6.772 -0.6058  0.0666  0.0681
  932MOL0     C25696   4.180   0.234   6.691 -0.7711 -0.2407 -0.3275
  932MOL0     C25697   4.119   0.124   6.776  0.6602 -0.7773  0.3794
  932MOL0     C25698   4.025   0.045   6.687  0.2151  0.1553  0.2057
  932MOL0     C25699   3.877   0.098   6.663 -0.1949  0.3140  0.2125
  932MOL0     C25700   3.794   0.001   6.572 -0.2037 -0.7212 -0.3199
  932MOL0     C25701   3.778  -0.147   6.605 -0.2635 -0.0232  0.5322
  932MOL0     N25702   3.717  -0.214   6.492 -0.6487  0.0531  0.4188
  932MOL0     C25703   3.780  -0.280   6.389 -0.5105 -0.0534  0.9801
  932MOL0     C25704   3.677  -0.333   6.311  0.3726  0.0596 -1.2172
  932MOL0     C25705   3.679  -0.409   6.179  0.0879  0.8822 -0.4757
  932MOL0     C25706   3.823  -0.438   6.123  0.0399 -0.1627  0.1111
  932MOL0     C25707   3.843  -0.474   5.973  0.6598 -0.0779 -0.7354
  932MOL0     C25708   3.762  -0.586   5.921 -0.3343 -0.9847 -0.4145
  932MOL0     O25709   3.831  -0.653   5.816  0.8154 -0.6162  0.0433
  932MOL0     C25710   3.767  -0.758   5.758 -0.5451 -0.2945  0.1909
  932MOL0     C25711   3.818  -0.890   5.749  0.1909  1.0481 -0.3813
  932MOL0     C25712   3.751  -0.992   5.675 -0.7702  0.1915 -1.3042
  932MOL0     C25713   3.803  -1.133   5.686  0.6828  0.2758 -0.9872
  932MOL0     C25714   3.639  -0.956   5.595 -1.4964 -1.2853 -0.7426
  932MOL0     C25715   3.556  -1.049   5.519 -0.0414 -0.1890  0.3559
  932MOL0     O25716   3.448  -0.999   5.463 -0.2338 -0.3386  0.3775
  932MOL0     C25717   3.369  -1.094   5.400 -0.4967 -0.1212  0.0079
  932MOL0     C25718   3.325  -1.220   5.456 -0.8410 -0.3794 -0.8197
  932MOL0     C25719   3.229  -1.292   5.385 -0.1055  0.6464  1.1179
  932MOL0     C25720   3.186  -1.260   5.252  0.2025  0.1478  0.8388
  932MOL0     O25721   3.108  -1.338   5.173 -0.4857 -0.0420 -0.0237
  932MOL0     C25722   2.969  -1.322   5.146  0.0349 -0.0065  0.1724
  932MOL0     C25723   2.913  -1.467   5.151 -0.2734 -0.7241 -0.0690
  932MOL0     C25724   2.941  -1.540   5.022 -0.1302  0.8569 -0.4087
  932MOL0     C25725   2.879  -1.471   4.902  0.9575  0.2195 -0.9641
  932MOL0     C25726   2.840  -1.547   4.773  0.1709  0.3279 -0.2210
  932MOL0     C25727   2.793  -1.467   4.648 -0.2729 -0.2173  0.9705
  932MOL0     C25728   2.730  -1.569   4.541 -0.5409 -0.6266  0.3783
  932MOL0     C25729   2.828  -1.677   4.501  0.8814 -0.1860  0.5048
  932MOL0    Cl25730   2.806  -1.744   4.332  0.4906 -0.7968 -0.1500
  932MOL0     C25731   3.234  -1.147   5.188  0.4755  0.3224 -0.7278
  932MOL0     C25732   3.313  -1.055   5.272  0.2402  0.4841  0.2625
  932MOL0     O25733   3.598  -1.163   5.497  0.2831  0.0676  0.0066
  932MOL0     C25734   3.597  -0.817   5.603 -0.0861  0.2555  0.8990
  932MOL0     C25735   3.651  -0.724   5.684 -0.2836  0.3574  0.1398
  932MOL0     N25736   3.561  -0.303   6.376  0.0603  0.3969  0.1470
  932MOL0     N25737   3.579  -0.217   6.472 -0.5595  0.2117  0.2978
  932MOL0     C25738   4.611   0.225   7.029 -0.3691 -0.7486 -0.1856
  932MOL0     C25739   4.710   0.223   7.124 -1.1529  0.3804 -0.1925
  932MOL0     C25740   5.072   0.374   7.355 -0.4794  0.5495  0.3473
  932MOL0     C25741   5.141   0.488   7.397  0.4105  0.5492  0.3348
  932MOL0     C25742   5.232   0.491   7.503 -0.2746  0.7875 -0.1653
  932MOL0     C25743   5.271   0.364   7.552  0.8964 -0.1259 -0.5694
  932MOL0     O25744   5.367   0.347   7.654  0.8873 -0.1943 -0.1646
  932MOL0     C25745   5.446   0.463   7.694  0.0985 -0.0758  0.5898
  932MOL0     C25746   5.551   0.422   7.788 -1.1911  0.0089 -0.6292
  932MOL0     C25747   5.633   0.533   7.846 -0.0988 -0.2427  0.3253
  932MOL0     C25748   5.754   0.466   7.918 -0.1962 -0.6869  0.1209
  932MOL0     C25749   5.839   0.572   7.971  0.9024 -0.7911  0.9576
  932MOL0     C25750   5.906   0.669   8.025  0.0906  0.0594  1.3249
  932MOL0     C25751   5.209   0.251   7.506 -0.7893 -0.4066 -0.0282
  932MOL0     C25752   5.110   0.255   7.408 -0.6805  0.6949  1.2490
  932MOL0     H25753   4.690   0.536   7.241 -0.2233  0.2319 -0.1260
  932MOL0     H25754   4.553   0.568   7.042  3.1917  1.4651  1.4362
  932MOL0     H25755   4.441   0.197   6.768  0.1843  0.3922  0.9890
  932MOL0     H25756   4.356   0.206   6.928  0.5079 -1.9036 -0.2416
  932MOL0     H25757   4.198   0.391   6.841 -0.4822  0.0960  0.1585
  932MOL0     H25758   4.306   0.411   6.704 -2.0615 -0.8202 -1.9639
  932MOL0     H25759   4.092   0.288   6.656 -0.7792  2.1755  2.9904
  932MOL0     H25760   4.246   0.191   6.614 -1.2684  0.1682 -0.9918
  932MOL0     H25761   4.207   0.065   6.803  0.0643 -2.0157 -0.2924
  932MOL0     H25762   4.058   0.163   6.858 -3.8986  1.7375 -3.7138
  932MOL0     H25763   4.076   0.044   6.590  0.6783  1.9736  0.3897
  932MOL0     H25764   4.028  -0.050   6.741  1.1214  2.0349  3.7497
  932MOL0     H25765   3.827   0.105   6.761 -0.3523  0.3344  0.1312
  932MOL0     H25766   3.879   0.204   6.638  0.1337  0.7238  1.8310
  932MOL0     H25767   3.707   0.066   6.567  3.5436  5.1770  0.7514
  932MOL0     H25768   3.836  -0.005   6.471  0.0850  1.7633 -0.4028
  932MOL0     H25769   3.717  -0.153   6.695 -1.2462 -3.2134 -0.2335
  932MOL0     H25770   3.871  -0.195   6.634 -1.7704 -2.5658  1.4140
  932MOL0     H25771   3.886  -0.278   6.367 -0.2010 -2.3624  1.9693
  932MOL0     H25772   3.618  -0.497   6.198  1.6850 -0.3940 -0.9962
  932MOL0     H25773   3.624  -0.363   6.097  2.9525  1.0763 -2.4594
  932MOL0     H25774   3.862  -0.525   6.177  0.5723  1.0305  1.7671
  932MOL0     H25775   3.881  -0.345   6.131 -4.1733  3.0898 -2.8922
  932MOL0     H25776   3.945  -0.506   5.950  0.2750 -1.0517 -1.1480
  932MOL0     H25777   3.838  -0.382   5.913  0.7338  1.9201  2.1086
  932MOL0     H25778   3.662  -0.547   5.900  1.0604  3.4798  0.3886
  932MOL0     H25779   3.743  -0.662   5.998  0.4974  0.3101  1.1122
  932MOL0     H25780   3.912  -0.911   5.799 -1.7673 -0.4838  2.9814
  932MOL0     H25781   3.849  -1.150   5.588 -0.4466 -2.5047 -1.1375
  932MOL0     H25782   3.870  -1.147   5.772  1.5084  2.0147 -1.3003
  932MOL0     H25783   3.726  -1.209   5.699  0.2163  0.6344 -1.5686
  932MOL0     H25784   3.360  -1.256   5.552  2.1235 -0.0075 -1.6547
  932MOL0     H25785   3.206  -1.392   5.421 -2.7851 -0.5696 -3.1584
  932MOL0     H25786   2.924  -1.252   5.218 -4.2962 -1.1225 -1.1496
  932MOL0     H25787   2.955  -1.272   5.050  1.0702 -2.1085 -1.1453
  932MOL0     H25788   2.945  -1.525   5.238 -1.3851  1.9140  2.2413
  932MOL0     H25789   2.804  -1.470   5.162 -0.6137 -1.6912 -2.8939
  932MOL0     H25790   2.895  -1.639   5.029  0.8485  0.2816 -1.6730
  932MOL0     H25791   3.047  -1.550   4.996  0.4681  4.3492  0.1589
  932MOL0     H25792   2.780  -1.447   4.940  0.5084  1.6868 -2.8890
  932MOL0     H25793   2.932  -1.375   4.892 -0.6241  1.5480  2.1221
  932MOL0     H25794   2.764  -1.623   4.792  2.4234 -2.1035 -0.3845
  932MOL0     H25795   2.933  -1.599   4.748  1.9719  2.1909  2.1899
  932MOL0     H25796   2.714  -1.398   4.679 -0.7188  0.0203 -0.5674
  932MOL0     H25797   2.879  -1.416   4.603 -0.5600 -0.7530 -0.2299
  932MOL0     H25798   2.712  -1.504   4.454  2.4087  2.7305  1.9944
  932MOL0     H25799   2.642  -1.621   4.580 -0.6739  1.4613  3.2308
  932MOL0     H25800   2.810  -1.761   4.569 -3.0389  0.7778  0.9315
  932MOL0     H25801   2.929  -1.642   4.523  1.7226 -2.7049  0.9812
  932MOL0     H25802   3.189  -1.116   5.094 -2.4837  3.5763  1.4911
  932MOL0     H25803   3.331  -0.956   5.232 -2.7687  0.6272 -1.0264
  932MOL0     H25804   3.514  -0.782   5.543 -0.0663 -3.2645 -1.4563
  932MOL0     H25805   3.630  -0.618   5.673  3.9992  1.4287  0.2253
  932MOL0     H25806   4.583   0.130   6.984 -3.8432  0.4909 -1.0124
  932MOL0     H25807   4.763   0.129   7.130 -1.0876  0.3142 -1.6147
  932MOL0     H25808   5.108   0.581   7.351  2.9646 -0.4489 -4.1699
  932MOL0     H25809   5.252   0.591   7.540  0.2606  0.7640 -0.3957
  932MOL0     H25810   5.476   0.494   7.593 -3.2954 -0.9646 -0.8495
  932MOL0     H25811   5.392   0.543   7.745  2.4822  0.6964  2.0798
  932MOL0     H25812   5.608   0.356   7.721  0.9554  1.9047 -0.8106
  932MOL0     H25813   5.518   0.363   7.874 -0.2565 -0.6673 -0.7098
  932MOL0     H25814   5.573   0.584   7.922  0.4767 -0.6623  1.0862
  932MOL0     H25815   5.668   0.596   7.764 -2.3800 -1.5429 -1.7786
  932MOL0     H25816   5.807   0.398   7.851  0.1133  0.3557 -0.7291
  932MOL0     H25817   5.717   0.404   8.000  1.5017 -0.4555  1.1055
  932MOL0     H25818   5.973   0.748   8.050  0.1132 -0.0923  1.7564
  932MOL0     H25819   5.244   0.157   7.546  0.7513  1.1623  2.6357
  932MOL0     H25820   5.064   0.162   7.376  1.1770  0.7953 -2.2054
  933MOL0     O25821   7.807   6.105   2.802  0.4873 -0.5099  0.4502
  933MOL0     C25822   7.809   6.104   2.677  0.8391  0.4408 -0.2838
  933MOL0     O25823   7.698   6.087   2.594  0.1340 -0.1479 -0.1060
  933MOL0     C25824   7.579   6.065   2.651 -0.3564  0.1940 -0.3647
  933MOL0     C25825   7.556   5.945   2.726 -0.0797 -0.2983 -0.5787
  933MOL0     C25826   7.431   5.918   2.767  0.8157  0.1659 -0.0972
  933MOL0     C25827   7.319   6.006   2.747 -0.7345  0.1695 -0.1633
  933MOL0     O25828   7.191   6.007   2.809  0.4547  0.8029 -0.7713
  933MOL0     C25829   7.175   6.102   2.909 -0.5509 -0.7253 -1.5816
  933MOL0     C25830   7.237   6.050   3.037  0.5953 -0.0564 -0.3365
  933MOL0     C25831   7.179   5.913   3.078  1.2068  0.2428 -0.7547
  933MOL0     C25832   7.274   5.847   3.180  0.2104 -0.3262  0.4421
  933MOL0     C25833   7.191   5.756   3.269 -0.1282 -0.1976 -0.9556
  933MOL0     C25834   7.277   5.696   3.375  0.4532 -0.2060  0.5509
  933MOL0     C25835   7.194   5.628   3.483  0.3299  0.5888  0.6975
  933MOL0     C25836   7.274   5.532   3.579 -0.0235 -0.1341  0.9733
  933MOL0     N25837   7.205   5.476   3.683 -0.0849 -0.9083 -1.0269
  933MOL0     C25838   7.083   5.417   3.678  0.3717  0.4085  0.3515
  933MOL0     C25839   7.057   5.381   3.805 -0.2630 -0.6337  0.1487
  933MOL0     C25840   6.924   5.327   3.858 -0.1718  0.7379  0.6963
  933MOL0     C25841   6.858   5.233   3.749 -0.0352 -0.1486  0.1051
  933MOL0     C25842   6.727   5.171   3.804  0.1905  0.4956 -1.0776
  933MOL0     C25843   6.740   5.063   3.904  0.0821 -0.7370  0.0611
  933MOL0     O25844   6.625   4.986   3.925  0.0130 -0.1998 -0.1978
  933MOL0     C25845   6.610   4.899   4.025  0.0728  0.5136 -1.0050
  933MOL0     C25846   6.710   4.844   4.105 -0.2874 -0.4238 -0.4980
  933MOL0     C25847   6.685   4.763   4.219 -0.3230 -1.1258  0.3866
  933MOL0     C25848   6.808   4.709   4.282 -0.4360 -0.5136 -0.4967
  933MOL0     C25849   6.554   4.721   4.250 -0.1009 -0.6330  0.3193
  933MOL0     C25850   6.521   4.610   4.339  0.2955 -0.1180 -0.3716
  933MOL0     O25851   6.397   4.612   4.394  0.0786 -0.4558 -0.5901
  933MOL0     C25852   6.362   4.523   4.496 -0.3849 -0.8494 -0.5042
  933MOL0     C25853   6.222   4.512   4.502 -0.0043  0.5983  0.0414
  933MOL0     C25854   6.166   4.422   4.594  0.3150 -0.1388 -0.4724
  933MOL0     C25855   6.248   4.346   4.679  0.5703 -0.1602 -0.1332
  933MOL0     O25856   6.207   4.236   4.750  0.3465  0.3342 -0.7886
  933MOL0     C25857   6.070   4.197   4.750  0.1286  0.7725  0.1655
  933MOL0     C25858   6.024   4.115   4.876 -0.6351  0.0144 -0.0573
  933MOL0     C25859   5.930   4.204   4.955 -0.2310 -0.7190 -0.3738
  933MOL0     C25860   5.896   4.140   5.095 -0.2384 -0.2115 -0.6085
  933MOL0     C25861   5.815   4.251   5.161  0.9574 -0.3378  0.9443
  933MOL0     C25862   5.794   4.249   5.311  0.4070 -0.0424  1.0374
  933MOL0     C25863   5.774   4.108   5.354  0.3931  0.5780  0.1274
  933MOL0     C25864   5.633   4.071   5.303 -0.2618  0.8319  0.3025
  933MOL0    Cl25865   5.571   3.931   5.388 -0.6917  0.0233  0.3430
  933MOL0     C25866   6.384   4.390   4.702 -0.0802  0.0792 -0.0832
  933MOL0     C25867   6.442   4.469   4.603  0.1563 -0.3892 -0.0004
  933MOL0     O25868   6.609   4.531   4.364  0.0311  0.5497 -0.6200
  933MOL0     C25869   6.451   4.783   4.172 -0.0714  0.0775  0.5433
  933MOL0     C25870   6.480   4.861   4.060  1.0235  0.4634  0.3015
  933MOL0     N25871   7.157   5.407   3.892 -0.5644 -0.0601  0.3895
  933MOL0     N25872   7.249   5.465   3.813  0.0359  0.1452 -0.2718
  933MOL0     C25873   7.348   6.121   2.666 -0.0629 -1.1826 -0.3927
  933MOL0     C25874   7.472   6.147   2.612  0.0289 -0.6749 -0.7018
  933MOL0     C25875   7.948   6.126   2.616  1.1749 -0.0230  1.3950
  933MOL0     C25876   7.962   6.124   2.473  0.7295  0.1555 -0.6014
  933MOL0     C25877   8.087   6.151   2.413  0.3471 -0.6824  0.1627
  933MOL0     C25878   8.213   6.165   2.493  0.7907 -0.1596 -0.3651
  933MOL0     O25879   8.341   6.172   2.455 -0.3163  0.6690  0.0565
  933MOL0     C25880   8.367   6.182   2.313  0.0442  0.4960 -0.1704
  933MOL0     C25881   8.333   6.329   2.256 -0.6170  0.1421  1.0667
  933MOL0     C25882   8.417   6.444   2.330 -0.1428 -0.6177 -0.5480
  933MOL0     C25883   8.412   6.574   2.255 -0.5980 -0.6753 -0.6002
  933MOL0     C25884   8.515   6.662   2.308 -0.4325 -0.2496  0.1185
  933MOL0     C25885   8.600   6.729   2.359  0.4870  1.3542 -0.0945
  933MOL0     C25886   8.188   6.162   2.631 -0.1480  0.4831  0.4618
  933MOL0     C25887   8.060   6.148   2.689 -0.5841 -0.4767 -0.2217
  933MOL0     H25888   7.631   5.869   2.738 -1.6783 -1.4197  5.2433
  933MOL0     H25889   7.395   5.834   2.826 -2.7474  2.0782  0.7190
  933MOL0     H25890   7.222   6.195   2.877 -0.5496 -1.4996 -4.0932
  933MOL0     H25891   7.068   6.122   2.920  0.0627  2.3673 -0.2607
  933MOL0     H25892   7.343   6.026   3.025  0.3182 -1.4800 -0.1300
  933MOL0     H25893   7.224   6.120   3.120  2.1410  1.8601 -1.6175
  933MOL0     H25894   7.081   5.924   3.126  0.1611 -0.4086 -2.6558
  933MOL0     H25895   7.175   5.843   2.994 -0.8043  1.7129 -1.9710
  933MOL0     H25896   7.348   5.792   3.121 -1.0997  0.2045 -1.8140
  933MOL0     H25897   7.324   5.924   3.240 -0.9196 -0.1574  1.1867
  933MOL0     H25898   7.098   5.797   3.308 -2.2445 -2.4508 -3.3014
  933MOL0     H25899   7.162   5.672   3.205  0.6500 -0.2665 -1.2321
  933MOL0     H25900   7.337   5.624   3.319  0.7476  1.7388 -1.8324
  933MOL0     H25901   7.343   5.768   3.425  1.4494 -0.9968  0.3903
  933MOL0     H25902   7.137   5.696   3.547  0.6271 -0.0952  1.7156
  933MOL0     H25903   7.122   5.559   3.440  0.8518  0.3442  0.1989
  933MOL0     H25904   7.351   5.597   3.622  0.6058 -0.7809  0.8632
  933MOL0     H25905   7.327   5.452   3.525 -1.9588 -0.6616 -0.2445
  933MOL0     H25906   7.034   5.388   3.586 -0.0593 -1.7004  1.2049
  933MOL0     H25907   6.944   5.264   3.946  0.6216 -2.1834 -1.4288
  933MOL0     H25908   6.851   5.406   3.879 -1.2158  0.1474 -0.5690
  933MOL0     H25909   6.929   5.160   3.709 -0.0237 -1.0667  1.7209
  933MOL0     H25910   6.824   5.305   3.674 -1.2233  1.2392  1.8792
  933MOL0     H25911   6.681   5.121   3.719 -1.4440  1.4043 -0.7644
  933MOL0     H25912   6.664   5.252   3.842  5.1224  5.0541 -1.4180
  933MOL0     H25913   6.767   5.108   4.001 -3.8930  3.0903 -0.3046
  933MOL0     H25914   6.821   4.996   3.874 -1.2944 -3.5406  2.1083
  933MOL0     H25915   6.810   4.880   4.087 -0.5352  0.1485 -0.7460
  933MOL0     H25916   6.883   4.789   4.289 -0.5111 -0.3492 -1.4949
  933MOL0     H25917   6.795   4.674   4.385 -0.2428  0.6303 -0.0709
  933MOL0     H25918   6.854   4.624   4.232  2.9456  1.6115 -1.3410
  933MOL0     H25919   6.150   4.569   4.445 -2.5103 -0.7602  1.6864
  933MOL0     H25920   6.062   4.392   4.594  0.5114 -0.8490  0.0633
  933MOL0     H25921   6.006   4.285   4.737  0.6709  0.7076 -4.9404
  933MOL0     H25922   6.061   4.146   4.654 -0.1101 -0.2597  0.7229
  933MOL0     H25923   5.986   4.013   4.861  1.6218 -1.1158  1.3897
  933MOL0     H25924   6.117   4.106   4.933  0.0509  0.2813 -1.1064
  933MOL0     H25925   5.834   4.214   4.902 -0.2953 -0.9189 -0.2970
  933MOL0     H25926   5.981   4.300   4.969  1.0404 -1.4112 -0.1581
  933MOL0     H25927   5.832   4.053   5.084 -1.7481  0.0200  4.2430
  933MOL0     H25928   5.992   4.113   5.141 -1.1477  0.1830  1.6429
  933MOL0     H25929   5.720   4.273   5.111  1.9645  0.1324 -0.8773
  933MOL0     H25930   5.854   4.351   5.136 -0.3675  0.2595  1.1875
  933MOL0     H25931   5.882   4.281   5.368  0.8617  0.3286  0.1413
  933MOL0     H25932   5.713   4.317   5.339 -2.5367 -2.4720 -0.9968
  933MOL0     H25933   5.780   4.098   5.463  1.2429  0.7551  0.0983
  933MOL0     H25934   5.852   4.044   5.313 -0.7827 -1.1215  0.4404
  933MOL0     H25935   5.643   4.044   5.198  1.8511  0.9023  0.4458
  933MOL0     H25936   5.569   4.160   5.302 -2.4040 -0.4147 -4.8277
  933MOL0     H25937   6.444   4.353   4.785 -0.8027 -0.9496 -0.0017
  933MOL0     H25938   6.550   4.479   4.593  0.2664 -1.8716 -0.5514
  933MOL0     H25939   6.348   4.755   4.192  0.2228 -0.7100  0.9967
  933MOL0     H25940   6.394   4.895   4.005 -1.2701 -1.7008  2.2609
  933MOL0     H25941   7.257   6.177   2.649  0.4717 -0.3262 -0.4445
  933MOL0     H25942   7.488   6.222   2.535 -0.8052 -0.2864 -0.5089
  933MOL0     H25943   7.875   6.106   2.412  0.1792 -1.1394  0.5055
  933MOL0     H25944   8.093   6.163   2.305  1.3790 -0.8969  0.1837
  933MOL0     H25945   8.472   6.164   2.287  0.8730 -2.2004  4.1136
  933MOL0     H25946   8.322   6.102   2.254  0.4054  2.1726 -2.9130
  933MOL0     H25947   8.229   6.362   2.258 -0.1020  2.2675 -1.5897
  933MOL0     H25948   8.351   6.337   2.148 -0.0633  0.3988  1.1716
  933MOL0     H25949   8.518   6.402   2.333 -0.6046 -1.7425 -0.3011
  933MOL0     H25950   8.383   6.454   2.433 -4.3757  1.0211 -1.8677
  933MOL0     H25951   8.315   6.622   2.271 -1.3818 -0.1662 -5.4411
  933MOL0     H25952   8.428   6.567   2.147  2.6056  1.0796 -0.3723
  933MOL0     H25953   8.686   6.785   2.391 -0.1705  0.0481  4.6607
  933MOL0     H25954   8.251   6.183   2.717 -1.1662 -3.1255  2.2921
  933MOL0     H25955   8.068   6.154   2.797  0.0820 -2.8180 -0.0826
  934MOL0     O25956  10.974   0.239   3.424 -0.3376  0.0747  0.2201
  934MOL0     C25957  10.862   0.250   3.369  0.0607 -0.2637 -0.0272
  934MOL0     O25958  10.829   0.268   3.231  0.0140 -1.1580 -0.3069
  934MOL0     C25959  10.912   0.304   3.131 -1.5616 -0.6352 -0.1960
  934MOL0     C25960  10.859   0.372   3.018  0.0007  0.4328  0.7253
  934MOL0     C25961  10.936   0.398   2.908 -0.6425 -0.1467  0.2249
  934MOL0     C25962  11.078   0.382   2.915 -0.6288  0.3253  0.1813
  934MOL0     O25963  11.149   0.420   2.805 -0.0260  0.0967 -0.1684
  934MOL0     C25964  11.297   0.401   2.802  0.8350  0.0337 -0.7279
  934MOL0     C25965  11.329   0.249   2.780 -0.3859  0.4771  0.0680
  934MOL0     C25966  11.294   0.189   2.640 -1.0370 -0.4803  0.1196
  934MOL0     C25967  11.352   0.047   2.630 -0.0735 -0.5937 -1.5308
  934MOL0     C25968  11.280  -0.043   2.526 -0.2076 -0.0541  0.0793
  934MOL0     C25969  11.315  -0.193   2.557  0.5331  0.7486  1.0339
  934MOL0     C25970  11.208  -0.271   2.471 -0.3129 -0.4444  0.0783
  934MOL0     C25971  11.208  -0.412   2.526 -0.2392  0.6120  0.6547
  934MOL0     N25972  11.108  -0.500   2.465  0.5053 -0.3953  0.2037
  934MOL0     C25973  10.979  -0.518   2.498 -0.3042  0.3234  0.0430
  934MOL0     C25974  10.920  -0.557   2.377 -0.3714  0.1638  0.2188
  934MOL0     C25975  10.781  -0.581   2.344 -0.8828  0.0068 -0.0867
  934MOL0     C25976  10.713  -0.457   2.274  1.0256  0.5784 -1.4837
  934MOL0     C25977  10.733  -0.468   2.124 -0.0516  0.0504  0.6690
  934MOL0     C25978  10.647  -0.367   2.054 -0.2915  0.4726 -0.0776
  934MOL0     O25979  10.690  -0.353   1.920 -0.7373  1.1470  0.4098
  934MOL0     C25980  10.630  -0.254   1.841 -0.2305  1.4454  0.4298
  934MOL0     C25981  10.677  -0.236   1.711  0.0286 -0.5238 -0.1305
  934MOL0     C25982  10.617  -0.152   1.624  0.2873 -0.3690  0.7709
  934MOL0     C25983  10.679  -0.162   1.486  0.5048  0.5031  0.2816
  934MOL0     C25984  10.509  -0.072   1.662  0.4956 -0.1911  0.2484
  934MOL0     C25985  10.430   0.015   1.569  0.4488  0.5614 -0.0804
  934MOL0     O25986  10.302   0.052   1.604 -0.2301 -0.6361 -0.2205
  934MOL0     C25987  10.274   0.181   1.572 -0.1249  0.6400  0.0133
  934MOL0     C25988  10.202   0.216   1.452 -0.5345  0.4419  0.0576
  934MOL0     C25989  10.163   0.350   1.431  0.5372 -0.8391 -0.5159
  934MOL0     C25990  10.206   0.449   1.518 -1.0689 -0.3834  0.0284
  934MOL0     O25991  10.205   0.583   1.484  0.6140 -0.0779 -0.3946
  934MOL0     C25992  10.080   0.650   1.463 -1.0674  0.6391  0.5221
  934MOL0     C25993  10.027   0.706   1.597  0.5339 -0.6927  0.3962
  934MOL0     C25994  10.110   0.819   1.657  0.1576  0.6594 -0.4654
  934MOL0     C25995  10.022   0.904   1.744 -0.2502  0.5500  0.3139
  934MOL0     C25996  10.109   0.999   1.835 -0.7602  0.2286 -0.4361
  934MOL0     C25997  10.153   0.936   1.971  0.0173  0.0309 -0.4034
  934MOL0     C25998  10.207   0.795   1.966  0.3233 -0.7321  0.1858
  934MOL0     C25999  10.236   0.765   2.105  0.2471 -0.1265  0.0514
  934MOL0    Cl26000  10.374   0.657   2.105 -0.0452  0.3109  0.1722
  934MOL0     C26001  10.276   0.411   1.641  0.4372  0.1009 -0.6069
  934MOL0     C26002  10.302   0.276   1.669  0.1766  0.4312 -0.3630
  934MOL0     O26003  10.472   0.036   1.455 -0.3613 -0.3624  0.3440
  934MOL0     C26004  10.465  -0.087   1.795 -0.9202  0.3011 -0.3698
  934MOL0     C26005  10.518  -0.183   1.884  0.1233 -0.0554  0.7752
  934MOL0     N26006  11.017  -0.586   2.281 -0.7013 -0.1820  0.1614
  934MOL0     N26007  11.126  -0.537   2.334  0.1695 -0.2675 -0.4136
  934MOL0     C26008  11.139   0.330   3.033  0.2695  0.2623 -0.1735
  934MOL0     C26009  11.049   0.285   3.132  0.7376 -0.4705 -0.6612
  934MOL0     C26010  10.749   0.217   3.460  0.3065 -0.2053  0.9550
  934MOL0     C26011  10.624   0.264   3.425  0.0505  1.4399  0.6813
  934MOL0     C26012  10.517   0.239   3.512  0.3095 -0.0255 -0.5821
  934MOL0     C26013  10.526   0.156   3.619 -0.0154 -0.3857  1.2005
  934MOL0     O26014  10.418   0.109   3.689 -0.0796 -0.6800 -0.7473
  934MOL0     C26015  10.288   0.167   3.674  0.9398  0.2252  0.5219
  934MOL0     C26016  10.275   0.286   3.768 -0.5855 -0.0430 -0.5157
  934MOL0     C26017  10.278   0.260   3.921  0.4154  0.4461  0.4038
  934MOL0     C26018  10.152   0.201   3.972  1.1539  0.6869  0.2819
  934MOL0     C26019  10.166   0.151   4.111 -0.8123 -0.1001 -0.6412
  934MOL0     C26020  10.192   0.137   4.228  0.6848  0.4857 -1.1028
  934MOL0     C26021  10.646   0.102   3.656  1.0351 -0.0986 -0.2250
  934MOL0     C26022  10.761   0.137   3.576  0.2054  0.5271  0.7827
  934MOL0     H26023  10.752   0.391   3.016 -0.2644 -0.9868 -0.1949
  934MOL0     H26024  10.898   0.442   2.817 -2.6417 -1.9758  0.0853
  934MOL0     H26025  11.337   0.455   2.716  1.9264  1.4085  0.5893
  934MOL0     H26026  11.333   0.435   2.900 -3.9213  2.3646  0.5533
  934MOL0     H26027  11.435   0.232   2.797  0.2506  2.3575 -1.5985
  934MOL0     H26028  11.291   0.190   2.864  2.4968 -0.5290  0.7752
  934MOL0     H26029  11.185   0.182   2.626 -0.6747 -2.4132 -2.5916
  934MOL0     H26030  11.347   0.255   2.571  0.0816 -0.6053  0.8455
  934MOL0     H26031  11.458   0.047   2.605 -0.4564  2.1750 -3.5991
  934MOL0     H26032  11.328  -0.005   2.723  0.5782 -0.8306 -1.4940
  934MOL0     H26033  11.173  -0.021   2.522  0.1307  1.8150  0.1973
  934MOL0     H26034  11.316  -0.021   2.425 -3.0075 -0.5354 -1.1181
  934MOL0     H26035  11.417  -0.217   2.526  1.1287  1.1555  2.5695
  934MOL0     H26036  11.290  -0.212   2.662 -0.0185  1.8121  1.1169
  934MOL0     H26037  11.113  -0.219   2.491 -1.7134 -1.6369 -2.7853
  934MOL0     H26038  11.237  -0.253   2.367  0.4289  2.4936  0.6937
  934MOL0     H26039  11.191  -0.407   2.634  1.0130 -0.4053  0.9197
  934MOL0     H26040  11.304  -0.458   2.499 -0.8967 -0.1941 -0.3959
  934MOL0     H26041  10.932  -0.500   2.594  1.1839  2.5675  0.4395
  934MOL0     H26042  10.777  -0.676   2.289 -0.6993 -0.7264  1.1296
  934MOL0     H26043  10.722  -0.604   2.433 -0.6325 -2.2822 -0.4326
  934MOL0     H26044  10.754  -0.365   2.316 -0.8124 -0.1632  2.4397
  934MOL0     H26045  10.608  -0.456   2.306  1.0916 -1.5346 -1.0582
  934MOL0     H26046  10.723  -0.570   2.086  1.9487 -0.7852  2.1982
  934MOL0     H26047  10.838  -0.446   2.106  0.5429 -2.7610  0.2714
  934MOL0     H26048  10.655  -0.279   2.119 -1.1548  0.4176  0.1133
  934MOL0     H26049  10.544  -0.404   2.058 -0.4398  0.8112 -0.7780
  934MOL0     H26050  10.761  -0.296   1.677  0.4794 -0.3371  0.6396
  934MOL0     H26051  10.694  -0.061   1.447 -0.6763  0.4227 -0.4073
  934MOL0     H26052  10.780  -0.204   1.480 -0.0359 -1.1387  1.7834
  934MOL0     H26053  10.619  -0.226   1.421  1.4478 -0.9363  0.7885
  934MOL0     H26054  10.182   0.139   1.378  3.5062 -0.5999 -0.1771
  934MOL0     H26055  10.106   0.386   1.346  0.6620  1.1617  0.1985
  934MOL0     H26056  10.094   0.739   1.400 -2.2269  1.1221  0.9130
  934MOL0     H26057  10.003   0.585   1.420  0.8318 -1.2797 -0.1643
  934MOL0     H26058   9.929   0.742   1.563  1.2471  2.2860  1.2183
  934MOL0     H26059  10.020   0.624   1.670  3.0348 -0.9892  0.3732
  934MOL0     H26060  10.155   0.878   1.576  2.7666 -1.3786 -0.6640
  934MOL0     H26061  10.196   0.777   1.711  0.5539 -0.3040 -1.7748
  934MOL0     H26062   9.955   0.964   1.682  0.2050  0.6277 -0.1110
  934MOL0     H26063   9.956   0.857   1.817 -1.4901  0.1450 -1.0217
  934MOL0     H26064  10.046   1.086   1.857 -3.3704 -1.4436 -0.8527
  934MOL0     H26065  10.192   1.025   1.768 -2.0159  1.9185 -1.4186
  934MOL0     H26066  10.230   0.994   2.023  1.3260 -1.2532 -0.8492
  934MOL0     H26067  10.059   0.938   2.027 -0.5150  2.4334 -1.2737
  934MOL0     H26068  10.295   0.798   1.901  0.0705  1.1073 -0.1199
  934MOL0     H26069  10.131   0.727   1.926 -1.9888  0.9481  1.4506
  934MOL0     H26070  10.154   0.717   2.160  0.3292  0.2134  0.4791
  934MOL0     H26071  10.276   0.851   2.159  0.9329 -0.4870  0.1221
  934MOL0     H26072  10.329   0.480   1.706  1.0244 -3.3001  2.9723
  934MOL0     H26073  10.341   0.254   1.768  1.3084 -0.1934 -0.9416
  934MOL0     H26074  10.385  -0.024   1.834 -0.7873  0.4933 -0.4055
  934MOL0     H26075  10.483  -0.200   1.985  2.6936 -1.1411  1.5690
  934MOL0     H26076  11.244   0.310   3.053 -0.2811 -1.7763  0.9397
  934MOL0     H26077  11.099   0.239   3.216  0.4523  1.2301  0.5095
  934MOL0     H26078  10.620   0.323   3.334  1.9266  0.5722 -0.0050
  934MOL0     H26079  10.424   0.285   3.478 -0.7382 -2.7798 -1.7419
  934MOL0     H26080  10.269   0.213   3.576 -2.0888  0.8293  1.2923
  934MOL0     H26081  10.214   0.086   3.679  1.7663 -0.8349 -2.3962
  934MOL0     H26082  10.187   0.339   3.731 -0.0142 -1.0030 -3.4884
  934MOL0     H26083  10.366   0.343   3.746 -0.9796  2.0639  2.6022
  934MOL0     H26084  10.297   0.353   3.975 -2.8422  1.2830  0.2993
  934MOL0     H26085  10.360   0.190   3.941 -0.0197 -0.7653 -1.7285
  934MOL0     H26086  10.145   0.110   3.912  1.7556  1.2010 -0.5874
  934MOL0     H26087  10.065   0.266   3.967 -0.1643 -0.9269  1.2963
  934MOL0     H26088  10.232   0.118   4.326 -1.6701 -2.1730 -0.5321
  934MOL0     H26089  10.656   0.030   3.737  0.3719  1.1115  0.9631
  934MOL0     H26090  10.854   0.086   3.601  0.1548  1.3663  2.9267
  935MOL0     O26091   6.899   4.078   7.019 -0.2409 -0.0869 -0.5692
  935MOL0     C26092   6.836   3.983   6.961  0.2420 -0.0146 -0.3384
  935MOL0     O26093   6.808   3.857   7.007  0.2219 -0.3193  0.0348
  935MOL0     C26094   6.876   3.825   7.123  0.0066 -0.2355  0.6972
  935MOL0     C26095   6.822   3.851   7.246 -0.6537 -0.7476  0.2304
  935MOL0     C26096   6.887   3.819   7.366 -1.3025 -0.0995  0.1243
  935MOL0     C26097   7.009   3.744   7.356 -0.0392 -0.1531  0.4903
  935MOL0     O26098   7.079   3.713   7.468  0.5518 -0.4797  0.3473
  935MOL0     C26099   7.219   3.685   7.458 -0.4618  0.1375 -0.6870
  935MOL0     C26100   7.276   3.661   7.596 -0.9764 -0.1924  0.1898
  935MOL0     C26101   7.233   3.520   7.649  0.1077 -0.3571  0.5567
  935MOL0     C26102   7.312   3.489   7.778  0.1421  0.4183  0.3073
  935MOL0     C26103   7.275   3.349   7.837  0.2486 -0.9472 -0.1047
  935MOL0     C26104   7.130   3.357   7.908 -0.3682 -0.5025  1.0942
  935MOL0     C26105   7.085   3.225   7.960  0.0664  0.5592  0.6067
  935MOL0     C26106   6.937   3.214   7.947  0.4044 -0.5410 -0.7673
  935MOL0     N26107   6.897   3.082   7.979 -0.3324  0.4300  0.8190
  935MOL0     C26108   6.927   2.977   7.905 -0.7434  0.3073 -0.1411
  935MOL0     C26109   6.891   2.870   7.977 -0.1031 -0.5159 -0.8664
  935MOL0     C26110   6.886   2.731   7.923  0.6329  0.6187 -0.0122
  935MOL0     C26111   6.816   2.642   8.020  0.1387 -0.2433 -0.6324
  935MOL0     C26112   6.846   2.491   8.003  0.8211  0.3015  0.1132
  935MOL0     C26113   6.818   2.446   7.854  0.7526 -0.3042  0.2386
  935MOL0     O26114   6.906   2.482   7.752  0.7440 -0.3261  0.4095
  935MOL0     C26115   7.036   2.432   7.740  1.7230  0.8898 -0.8519
  935MOL0     C26116   7.085   2.323   7.816 -0.5933  0.3734  0.5636
  935MOL0     C26117   7.220   2.276   7.804  1.2268 -0.0265  1.6294
  935MOL0     C26118   7.260   2.161   7.889 -0.5901 -0.4715 -0.4083
  935MOL0     C26119   7.303   2.355   7.723 -0.5405  0.6303  0.0155
  935MOL0     C26120   7.449   2.321   7.709 -0.3747 -0.7866  1.0361
  935MOL0     O26121   7.538   2.421   7.695 -0.0904  0.2153  0.4023
  935MOL0     C26122   7.664   2.389   7.656 -0.5819  0.0481  0.1632
  935MOL0     C26123   7.682   2.350   7.523  0.4626  0.0674 -0.9100
  935MOL0     C26124   7.803   2.328   7.480 -0.1786  0.6126  0.4153
  935MOL0     C26125   7.918   2.341   7.563 -0.5815 -0.6622  0.8877
  935MOL0     O26126   8.034   2.324   7.503  0.4539  0.2443 -0.1959
  935MOL0     C26127   8.165   2.356   7.583 -0.0684  0.3911  0.1060
  935MOL0     C26128   8.235   2.215   7.603 -0.1040 -0.2768 -0.0567
  935MOL0     C26129   8.369   2.232   7.679 -0.3534  1.4062  0.5881
  935MOL0     C26130   8.480   2.139   7.631  0.5498 -0.0753 -0.7822
  935MOL0     C26131   8.530   2.158   7.484 -0.0815 -0.1365 -1.0674
  935MOL0     C26132   8.641   2.060   7.460 -0.4032  0.5660 -0.3634
  935MOL0     C26133   8.732   2.105   7.350  0.4419  0.1189 -0.0631
  935MOL0     C26134   8.876   2.032   7.358  0.6785  0.6120 -0.5445
  935MOL0    Cl26135   8.998   2.124   7.277  0.1501 -0.0636 -0.0369
  935MOL0     C26136   7.893   2.369   7.700  0.4612 -0.0737  0.4000
  935MOL0     C26137   7.768   2.391   7.756  0.4460  0.3715  0.5925
  935MOL0     O26138   7.478   2.203   7.703 -0.5276 -0.0488 -0.5418
  935MOL0     C26139   7.253   2.470   7.654  0.2159  0.3629  0.3809
  935MOL0     C26140   7.124   2.500   7.657  0.4940 -0.3115 -0.6526
  935MOL0     N26141   6.852   2.921   8.103 -0.0022  0.1085 -0.0351
  935MOL0     N26142   6.855   3.045   8.097  0.3241  0.3131 -0.6300
  935MOL0     C26143   7.060   3.713   7.225  0.1141 -0.4692 -0.7634
  935MOL0     C26144   6.990   3.754   7.112 -0.9970 -0.3997  0.2205
  935MOL0     C26145   6.786   4.024   6.828  0.9981  0.2720  0.4335
  935MOL0     C26146   6.709   3.933   6.748 -0.3684 -0.9489 -0.4162
  935MOL0     C26147   6.663   3.974   6.621 -0.2545 -0.7546 -0.1981
  935MOL0     C26148   6.704   4.098   6.567  0.0205 -0.6570 -0.8678
  935MOL0     O26149   6.668   4.138   6.441  0.5303  0.0920 -0.2412
  935MOL0     C26150   6.622   4.038   6.351  1.7254  0.4562  0.1503
  935MOL0     C26151   6.624   4.068   6.205 -0.1360 -0.5229  0.1906
  935MOL0     C26152   6.481   4.089   6.150  0.3352  0.0491  0.4338
  935MOL0     C26153   6.459   4.054   5.998 -0.2992  1.4412 -0.4861
  935MOL0     C26154   6.571   4.095   5.912 -0.6301 -0.3592 -0.9159
  935MOL0     C26155   6.663   4.144   5.848  0.3145 -0.6385 -0.0142
  935MOL0     C26156   6.766   4.196   6.646  0.0578 -0.0127 -0.3366
  935MOL0     C26157   6.811   4.152   6.778  0.4907  0.3398  0.9571
  935MOL0     H26158   6.722   3.894   7.251 -0.3793  0.0320 -0.8363
  935MOL0     H26159   6.846   3.848   7.462 -0.1055 -0.0198  0.6263
  935MOL0     H26160   7.222   3.591   7.402 -5.8131  0.3358 -1.8315
  935MOL0     H26161   7.266   3.766   7.402  0.3470  1.0335  1.1890
  935MOL0     H26162   7.385   3.662   7.603 -0.9805 -3.5164  3.1328
  935MOL0     H26163   7.245   3.740   7.664 -1.7139 -0.0065 -0.3439
  935MOL0     H26164   7.125   3.516   7.662 -0.0132 -0.1753 -0.3618
  935MOL0     H26165   7.260   3.440   7.580  0.3060  1.2552 -1.3236
  935MOL0     H26166   7.414   3.464   7.748 -0.4772 -1.4922 -0.3158
  935MOL0     H26167   7.291   3.567   7.852 -2.2721  0.0619  0.0445
  935MOL0     H26168   7.278   3.269   7.762 -0.7188  2.1891 -3.8707
  935MOL0     H26169   7.350   3.318   7.911 -0.8229 -3.7434 -0.0651
  935MOL0     H26170   7.139   3.429   7.990 -1.3523  1.1249 -0.1771
  935MOL0     H26171   7.057   3.406   7.842  0.2924  0.6486  1.1938
  935MOL0     H26172   7.131   3.156   7.889  3.0028 -0.0911  2.9481
  935MOL0     H26173   7.116   3.196   8.060  2.0349  1.9068  0.4371
  935MOL0     H26174   6.893   3.233   7.849 -1.7561 -2.1020 -0.1787
  935MOL0     H26175   6.902   3.285   8.022  3.5089  1.8940 -1.4212
  935MOL0     H26176   6.982   2.964   7.813  0.3720 -0.0585  0.5674
  935MOL0     H26177   6.838   2.732   7.825  1.7607  0.9627 -0.5719
  935MOL0     H26178   6.987   2.692   7.910  0.5346  0.3783 -0.0491
  935MOL0     H26179   6.710   2.667   8.029  0.8929  3.2087  0.1499
  935MOL0     H26180   6.848   2.665   8.122  1.4624 -2.3520 -0.5012
  935MOL0     H26181   6.779   2.445   8.076  3.3128 -0.5385  2.0500
  935MOL0     H26182   6.951   2.464   8.019  0.6592 -1.9766 -2.0811
  935MOL0     H26183   6.716   2.481   7.838 -0.4084 -2.5885  2.1258
  935MOL0     H26184   6.823   2.336   7.860  3.6616 -0.3324 -1.1225
  935MOL0     H26185   7.020   2.265   7.881  0.9852  0.3971  2.2289
  935MOL0     H26186   7.186   2.108   7.950  2.1866 -0.4762  3.3245
  935MOL0     H26187   7.319   2.083   7.840 -0.0534 -0.6733  0.5311
  935MOL0     H26188   7.329   2.194   7.968 -1.7734 -2.7862  1.7478
  935MOL0     H26189   7.592   2.343   7.463  0.3123  0.9069 -0.7878
  935MOL0     H26190   7.822   2.281   7.384  0.6992 -2.4592  1.9334
  935MOL0     H26191   8.231   2.419   7.523 -0.3600  0.6984  0.1029
  935MOL0     H26192   8.148   2.408   7.678  3.0655  1.6104  0.1195
  935MOL0     H26193   8.169   2.158   7.669 -0.4447  1.3481  1.0774
  935MOL0     H26194   8.236   2.168   7.504  1.8770  0.9940 -0.7037
  935MOL0     H26195   8.361   2.218   7.787  4.7645  1.1838  1.1957
  935MOL0     H26196   8.406   2.335   7.674  1.9986  0.6191  0.4273
  935MOL0     H26197   8.555   2.169   7.705 -2.6163  0.6984  2.4277
  935MOL0     H26198   8.450   2.034   7.645  3.5059 -0.9904 -0.6363
  935MOL0     H26199   8.570   2.259   7.472  1.0848 -0.3581  0.5669
  935MOL0     H26200   8.447   2.131   7.419  0.7578 -1.0143 -1.8175
  935MOL0     H26201   8.696   2.045   7.553  0.7936  1.1609 -0.9388
  935MOL0     H26202   8.596   1.965   7.433 -1.2229  1.1608 -1.1462
  935MOL0     H26203   8.732   2.214   7.340 -1.9771  0.0445 -1.5551
  935MOL0     H26204   8.677   2.070   7.262  1.6598  1.4514 -1.4286
  935MOL0     H26205   8.872   1.928   7.324  2.5070  0.5723 -0.7295
  935MOL0     H26206   8.914   2.017   7.460  3.5662 -1.3880 -1.7910
  935MOL0     H26207   7.973   2.390   7.771  0.0058 -1.7183  1.4442
  935MOL0     H26208   7.738   2.405   7.859 -2.1440 -3.2383  0.5378
  935MOL0     H26209   7.325   2.519   7.589  1.7274 -3.7622 -1.3703
  935MOL0     H26210   7.083   2.578   7.593 -0.6898 -0.8559 -0.5768
  935MOL0     H26211   7.149   3.652   7.214  0.7538 -0.2225  2.2289
  935MOL0     H26212   7.029   3.736   7.013 -0.8111 -1.5100  0.4864
  935MOL0     H26213   6.672   3.835   6.778  3.0155 -2.3585 -0.4834
  935MOL0     H26214   6.597   3.907   6.568 -0.4581 -0.1332 -0.7534
  935MOL0     H26215   6.686   3.951   6.364  0.8120  0.0428  2.2082
  935MOL0     H26216   6.522   4.008   6.381  1.3031  2.8189  1.3364
  935MOL0     H26217   6.671   3.990   6.143  0.1523 -0.8996  0.8750
  935MOL0     H26218   6.681   4.160   6.187 -0.9336  0.3261  1.8218
  935MOL0     H26219   6.465   4.197   6.162  1.8046  0.2419  0.8742
  935MOL0     H26220   6.400   4.046   6.209 -1.2213  3.2195  0.8128
  935MOL0     H26221   6.364   4.097   5.964 -1.0371  2.0462  2.1230
  935MOL0     H26222   6.453   3.945   5.996  3.7749  0.8066  4.1547
  935MOL0     H26223   6.731   4.195   5.783 -3.4451  1.2943 -2.7930
  935MOL0     H26224   6.778   4.295   6.604 -1.1623  0.2364 -0.1492
  935MOL0     H26225   6.868   4.225   6.835  3.4939 -0.1973 -1.1321
  936MOL0     O26226   9.451   8.088   7.819 -0.0899  0.2659  0.1003
  936MOL0     C26227   9.437   8.025   7.924 -0.6618 -0.6562  1.1700
  936MOL0     O26228   9.530   7.991   8.010  0.7936 -0.0853  0.2170
  936MOL0     C26229   9.659   8.026   7.977 -1.0056  0.3222 -0.0385
  936MOL0     C26230   9.691   8.163   7.971 -0.1050 -0.3420 -1.2346
  936MOL0     C26231   9.821   8.207   7.931  0.4267  0.4053  0.3642
  936MOL0     C26232   9.925   8.112   7.907  0.0163 -0.4186 -0.5472
  936MOL0     O26233  10.045   8.160   7.876  0.4871  0.2006 -0.6640
  936MOL0     C26234  10.151   8.123   7.963  0.6180  0.4208 -1.5540
  936MOL0     C26235  10.283   8.178   7.909 -1.1366  0.1788 -0.4155
  936MOL0     C26236  10.349   8.074   7.814  0.7789 -0.1673  0.5299
  936MOL0     C26237  10.494   8.121   7.791 -0.2445  0.5817  0.2379
  936MOL0     C26238  10.591   8.080   7.899  0.0572 -0.3944  0.4287
  936MOL0     C26239  10.740   8.105   7.863 -0.0712 -0.6508 -0.1357
  936MOL0     C26240  10.776   8.244   7.852  0.0292 -0.2363  0.2600
  936MOL0     C26241  10.921   8.277   7.858 -1.0037  0.1494  0.5352
  936MOL0     N26242  10.998   8.233   7.743 -0.3256  0.3381 -0.5654
  936MOL0     C26243  10.961   8.248   7.609  0.6364 -0.2666 -0.8348
  936MOL0     C26244  11.060   8.188   7.545  0.0620 -0.3706 -0.6062
  936MOL0     C26245  11.071   8.186   7.398  0.3720  0.4404 -0.1064
  936MOL0     C26246  10.993   8.062   7.337 -0.5867 -0.9299 -1.6291
  936MOL0     C26247  11.061   8.002   7.214  0.1833 -0.3528  0.3904
  936MOL0     C26248  11.009   8.089   7.099  0.3773  0.4799  0.6735
  936MOL0     O26249  11.032   8.006   6.984  0.3139  0.6994  0.0843
  936MOL0     C26250  11.140   8.027   6.905 -0.0051  0.5211 -0.7267
  936MOL0     C26251  11.263   7.975   6.936  0.4915  0.2958 -0.2479
  936MOL0     C26252  11.369   7.962   6.848 -0.0982 -0.5170  0.7648
  936MOL0     C26253  11.487   7.893   6.904 -0.1646 -0.3260 -0.3671
  936MOL0     C26254  11.346   7.999   6.714  0.2101 -1.0752  0.8144
  936MOL0     C26255  11.443   7.979   6.607  0.7235 -1.1437 -0.2807
  936MOL0     O26256  11.552   7.899   6.632  1.0643  0.0467  1.6836
  936MOL0     C26257  11.640   7.880   6.527  0.4002  0.5242  0.3312
  936MOL0     C26258  11.624   7.772   6.455  0.0123  0.3516 -0.2008
  936MOL0     C26259  11.696   7.756   6.331 -0.2924  0.5493 -1.1593
  936MOL0     C26260  11.810   7.841   6.310  1.1089  0.4547  0.8959
  936MOL0     O26261  11.889   7.807   6.202 -0.2394 -0.4047 -0.2678
  936MOL0     C26262  12.015   7.874   6.202 -0.1656  0.4805  0.0253
  936MOL0     C26263  12.122   7.792   6.270  0.3513 -0.6509  1.1613
  936MOL0     C26264  12.144   7.815   6.417 -0.3330  0.4485 -1.0367
  936MOL0     C26265  12.068   7.718   6.503 -0.6571  0.5166  0.4083
  936MOL0     C26266  12.144   7.583   6.526 -0.4667  1.2970 -0.2287
  936MOL0     C26267  12.043   7.471   6.583 -0.3645 -0.4966 -0.0608
  936MOL0     C26268  11.957   7.537   6.693 -0.0687 -0.3677 -0.1859
  936MOL0     C26269  11.856   7.435   6.754  0.3126 -0.5532  0.1340
  936MOL0    Cl26270  11.757   7.350   6.629  0.0601  0.3027  0.2465
  936MOL0     C26271  11.831   7.949   6.397 -0.3185  0.2408 -1.4463
  936MOL0     C26272  11.731   7.977   6.499 -0.1067  0.6529 -0.1974
  936MOL0     O26273  11.422   8.044   6.497  0.0676 -0.3851  0.7802
  936MOL0     C26274  11.221   8.047   6.678  0.6368  0.3385 -0.5890
  936MOL0     C26275  11.121   8.061   6.774  0.1205 -0.5013 -0.4744
  936MOL0     N26276  11.140   8.125   7.634 -0.1533 -0.0742  0.5030
  936MOL0     N26277  11.114   8.161   7.754  0.1848  1.0584 -0.9158
  936MOL0     C26278   9.895   7.977   7.906 -0.2176 -0.0785 -0.3467
  936MOL0     C26279   9.764   7.936   7.948 -0.3596 -0.2770 -0.0056
  936MOL0     C26280   9.307   7.963   7.953 -0.0619 -0.3269  0.1651
  936MOL0     C26281   9.285   7.909   8.085  0.3122  0.1100  0.0245
  936MOL0     C26282   9.157   7.859   8.111  0.3582 -0.3271 -0.4683
  936MOL0     C26283   9.051   7.861   8.015 -0.6675  0.0063 -0.0155
  936MOL0     O26284   8.922   7.827   8.050 -0.5635  0.1483  0.6257
  936MOL0     C26285   8.899   7.748   8.172 -0.1932  0.1318 -1.5938
  936MOL0     C26286   8.876   7.597   8.150 -0.2168 -0.1979  0.2117
  936MOL0     C26287   8.763   7.576   8.052  0.2692 -0.1166 -0.3421
  936MOL0     C26288   8.772   7.445   7.980  0.3512  0.1636  0.4902
  936MOL0     C26289   8.867   7.449   7.867  0.0347  0.3106  0.3694
  936MOL0     C26290   8.932   7.473   7.771  0.3183  0.1166 -0.7416
  936MOL0     C26291   9.076   7.931   7.896 -0.2490  0.1197 -0.0690
  936MOL0     C26292   9.202   7.982   7.862 -0.0605  0.2880  0.5351
  936MOL0     H26293   9.617   8.242   7.975  0.0826 -0.2154  0.2432
  936MOL0     H26294   9.828   8.312   7.903  0.2934 -0.0856 -1.6362
  936MOL0     H26295  10.130   8.150   8.067  0.0464 -3.2354 -0.5756
  936MOL0     H26296  10.168   8.016   7.977  3.4117  0.9914  0.2991
  936MOL0     H26297  10.256   8.270   7.855 -4.1461  2.0162  3.6748
  936MOL0     H26298  10.358   8.195   7.987  2.2714 -2.3877 -2.8072
  936MOL0     H26299  10.369   7.977   7.861  0.9171  0.7147  2.3436
  936MOL0     H26300  10.293   8.060   7.720  2.8531 -1.1096 -0.6465
  936MOL0     H26301  10.528   8.071   7.699 -2.5774 -0.2707 -0.2361
  936MOL0     H26302  10.503   8.226   7.762  4.5423  0.5354  0.8168
  936MOL0     H26303  10.574   8.123   7.998 -1.9279  1.4000 -0.6020
  936MOL0     H26304  10.580   7.972   7.915  1.4205 -0.4482  1.1235
  936MOL0     H26305  10.799   8.068   7.948 -3.6635 -1.8038  2.1144
  936MOL0     H26306  10.778   8.043   7.781  2.6224 -2.9588  2.5733
  936MOL0     H26307  10.727   8.273   7.759 -0.4970 -0.0326  0.5960
  936MOL0     H26308  10.724   8.303   7.928 -2.8796  0.1195 -1.8483
  936MOL0     H26309  10.961   8.249   7.956  1.5197  2.0723  0.1613
  936MOL0     H26310  10.934   8.385   7.850 -0.5121  0.0879  0.4869
  936MOL0     H26311  10.875   8.299   7.566 -0.0686 -0.8008 -0.0740
  936MOL0     H26312  11.023   8.269   7.346 -0.6460 -0.3057 -0.4136
  936MOL0     H26313  11.178   8.184   7.375  0.7858 -1.4077  1.6856
  936MOL0     H26314  10.891   8.094   7.312 -0.2900  2.1027  0.5470
  936MOL0     H26315  10.995   7.981   7.410  1.5323  0.0658 -0.4935
  936MOL0     H26316  11.037   7.899   7.187  0.8124  0.1694 -2.4650
  936MOL0     H26317  11.169   8.006   7.232  0.1990 -0.1975  0.2617
  936MOL0     H26318  11.054   8.188   7.085 -1.1583  1.0730 -0.3450
  936MOL0     H26319  10.901   8.103   7.104  0.3990  1.0062 -0.0989
  936MOL0     H26320  11.261   7.921   7.030 -1.9276 -0.0316 -0.4086
  936MOL0     H26321  11.494   7.901   7.012  2.6729 -2.7866 -0.2337
  936MOL0     H26322  11.496   7.787   6.881  2.2574 -0.3235  0.2720
  936MOL0     H26323  11.583   7.935   6.871 -0.1730 -1.4532 -1.9733
  936MOL0     H26324  11.547   7.701   6.485  0.6601 -0.1100  0.4075
  936MOL0     H26325  11.672   7.671   6.267 -0.4216  0.2413 -0.7094
  936MOL0     H26326  12.043   7.878   6.097  1.1076  1.8596  0.3786
  936MOL0     H26327  12.004   7.981   6.226 -5.5654  0.2184 -0.1041
  936MOL0     H26328  12.114   7.685   6.247  0.1412 -0.6667  1.2981
  936MOL0     H26329  12.217   7.816   6.222 -0.5963 -1.9792 -1.6351
  936MOL0     H26330  12.115   7.916   6.448 -2.1549 -0.6847  1.3300
  936MOL0     H26331  12.247   7.794   6.448 -1.5977 -1.8536  2.1492
  936MOL0     H26332  12.036   7.769   6.594 -0.7008  1.8661 -0.3337
  936MOL0     H26333  11.976   7.696   6.448 -0.2518 -4.0745  1.1868
  936MOL0     H26334  12.221   7.602   6.602 -1.2798 -2.7459  1.9231
  936MOL0     H26335  12.191   7.541   6.437 -0.7566  3.0269 -1.2249
  936MOL0     H26336  11.976   7.463   6.496 -1.1122 -0.8269  0.5371
  936MOL0     H26337  12.097   7.378   6.601  3.0947  1.4832  0.7674
  936MOL0     H26338  11.890   7.619   6.666  1.5383  0.2852 -2.5145
  936MOL0     H26339  12.021   7.578   6.771  0.6350  1.7535 -1.7827
  936MOL0     H26340  11.787   7.483   6.823  0.0213 -2.9125  1.5853
  936MOL0     H26341  11.907   7.356   6.811  0.5966 -2.0894 -2.1069
  936MOL0     H26342  11.902   8.030   6.384 -0.5590  0.2654 -2.7571
  936MOL0     H26343  11.751   8.062   6.563  0.2078 -1.3412  2.5269
  936MOL0     H26344  11.203   8.070   6.573 -0.7401  1.6729 -0.0899
  936MOL0     H26345  11.018   8.092   6.755 -0.1055  2.3274  3.7357
  936MOL0     H26346   9.961   7.901   7.867 -0.6889  0.0632 -1.4557
  936MOL0     H26347   9.730   7.833   7.949  1.0984 -0.7837  0.8258
  936MOL0     H26348   9.365   7.904   8.158  0.8748 -1.9947 -0.6636
  936MOL0     H26349   9.147   7.812   8.208  2.5268 -0.6896 -0.3698
  936MOL0     H26350   8.973   7.762   8.252 -1.3238 -4.6924  0.6430
  936MOL0     H26351   8.803   7.778   8.214  0.2847 -1.6813  1.0385
  936MOL0     H26352   8.851   7.556   8.248  2.3100  0.1502  1.0745
  936MOL0     H26353   8.972   7.550   8.123  0.4155  2.1073 -1.8637
  936MOL0     H26354   8.767   7.649   7.970 -2.4849 -1.8131 -2.1347
  936MOL0     H26355   8.668   7.585   8.105  1.1307  2.1914  0.9911
  936MOL0     H26356   8.670   7.412   7.958  0.9874 -1.1715 -0.6094
  936MOL0     H26357   8.801   7.368   8.053  2.7468  0.0140 -0.5562
  936MOL0     H26358   8.972   7.510   7.679 -0.5995 -2.5573 -2.3230
  936MOL0     H26359   8.988   7.941   7.834  0.6634  1.6614 -1.1951
  936MOL0     H26360   9.215   8.041   7.772 -0.7161 -0.2835  0.0505
  937MOL0     O26361   5.127  10.403  11.242 -0.1695  0.5480 -0.1373
  937MOL0     C26362   5.042  10.486  11.198 -0.1731 -0.0723  0.7212
  937MOL0     O26363   4.953  10.465  11.101  0.5349 -0.1603 -0.2972
  937MOL0     C26364   4.942  10.327  11.060  0.7428 -0.5853 -0.1161
  937MOL0     C26365   4.843  10.238  11.102 -0.1217  0.1497  0.0207
  937MOL0     C26366   4.832  10.112  11.045 -0.1552  0.1189  1.3954
  937MOL0     C26367   4.915  10.071  10.932 -0.3608  0.4921  0.7181
  937MOL0     O26368   4.893   9.943  10.890 -0.4430 -0.2484 -0.8965
  937MOL0     C26369   4.947   9.889  10.764 -0.2078 -0.3574  0.9914
  937MOL0     C26370   4.872   9.943  10.636  0.4136  0.9242  0.9777
  937MOL0     C26371   4.721   9.930  10.630 -0.3242  0.3648  0.1636
  937MOL0     C26372   4.679   9.781  10.639  0.8433  0.0475  0.6180
  937MOL0     C26373   4.536   9.746  10.600 -0.2557 -0.7009 -0.1137
  937MOL0     C26374   4.519   9.604  10.614  0.4239  0.2356  0.4666
  937MOL0     C26375   4.370   9.570  10.585 -0.3389 -0.2733 -0.6829
  937MOL0     C26376   4.306   9.598  10.452 -0.1910 -0.5104 -0.6381
  937MOL0     N26377   4.393   9.547  10.340 -0.0301 -0.4782  0.3114
  937MOL0     C26378   4.386   9.565  10.206  0.4395 -0.3199 -0.3733
  937MOL0     C26379   4.428   9.453  10.142  0.3893  0.4586  0.2536
  937MOL0     C26380   4.427   9.433   9.993 -0.0092  0.4019 -0.3384
  937MOL0     C26381   4.293   9.386   9.933 -0.3126  0.1249 -0.4826
  937MOL0     C26382   4.292   9.349   9.782 -0.0204 -0.3442 -0.8119
  937MOL0     C26383   4.365   9.218   9.759  0.4991  0.0062  0.3139
  937MOL0     O26384   4.310   9.115   9.845 -0.1584  0.2383  0.2210
  937MOL0     C26385   4.363   8.991   9.842  0.1859 -0.3798  1.0340
  937MOL0     C26386   4.357   8.925   9.963 -0.0837  0.1854 -0.7099
  937MOL0     C26387   4.410   8.795   9.995  0.3332  0.1093 -0.1903
  937MOL0     C26388   4.386   8.751  10.133 -0.2954  0.8341 -0.3410
  937MOL0     C26389   4.476   8.730   9.896 -0.0983 -0.9258  0.2841
  937MOL0     C26390   4.541   8.600   9.918  0.9826 -0.7228  0.0982
  937MOL0     O26391   4.532   8.531  10.028 -0.4713  0.7853 -0.1542
  937MOL0     C26392   4.615   8.423  10.044  0.6084  0.7350  0.1322
  937MOL0     C26393   4.574   8.296  10.004 -0.3188  0.1620  0.6887
  937MOL0     C26394   4.662   8.189  10.023 -0.3891 -0.0188  0.6543
  937MOL0     C26395   4.791   8.211  10.087  0.3023  0.2980  0.0956
  937MOL0     O26396   4.876   8.109  10.118  0.8467  0.5525 -0.5709
  937MOL0     C26397   4.858   7.984  10.050 -0.5700 -0.0329  0.0644
  937MOL0     C26398   4.948   7.873  10.114  0.1006  0.7853 -0.3176
  937MOL0     C26399   4.942   7.757  10.024  0.3843  0.8188  0.6462
  937MOL0     C26400   5.039   7.648  10.057 -0.9652  0.6019  0.7130
  937MOL0     C26401   5.007   7.557  10.180  0.2854  0.4377  0.5287
  937MOL0     C26402   5.075   7.422  10.164 -0.5734 -0.0286  0.1351
  937MOL0     C26403   5.228   7.430  10.144 -0.0227  0.2054 -0.1641
  937MOL0     C26404   5.275   7.315  10.059  0.1345 -0.6561 -0.0041
  937MOL0    Cl26405   5.220   7.153  10.135  0.0700 -0.8362  0.0844
  937MOL0     C26406   4.822   8.344  10.126 -0.5159 -0.4864  0.0019
  937MOL0     C26407   4.739   8.450  10.095  0.1636 -0.1506 -0.0314
  937MOL0     O26408   4.603   8.565   9.813  0.3442  0.0918 -0.5492
  937MOL0     C26409   4.485   8.801   9.774  0.3507  0.4172  0.0173
  937MOL0     C26410   4.431   8.928   9.741 -0.9797  0.0669  0.1260
  937MOL0     N26411   4.451   9.360  10.235  0.4431  0.3271  0.1668
  937MOL0     N26412   4.432   9.418  10.346  0.4416 -0.4763  0.9136
  937MOL0     C26413   5.013  10.161  10.893  0.2958  0.7970 -0.2797
  937MOL0     C26414   5.023  10.282  10.961  0.2591 -0.8903 -0.9554
  937MOL0     C26415   5.054  10.626  11.242  0.7332 -0.0639 -0.0071
  937MOL0     C26416   5.158  10.670  11.324  0.1336 -1.8161 -0.1694
  937MOL0     C26417   5.152  10.804  11.375  0.4361  0.6053  0.3015
  937MOL0     C26418   5.043  10.892  11.349  0.0035  0.5769 -0.7348
  937MOL0     O26419   5.043  11.020  11.411 -0.1669  0.6745 -0.2145
  937MOL0     C26420   4.965  11.123  11.347  0.4470 -0.3203  0.1985
  937MOL0     C26421   5.002  11.251  11.412  0.7408 -1.0973 -0.7626
  937MOL0     C26422   4.939  11.370  11.332 -0.0193  0.9873 -0.7509
  937MOL0     C26423   4.978  11.512  11.383  1.2446  0.3890  0.0013
  937MOL0     C26424   4.913  11.619  11.310 -1.1206 -0.5314  1.0667
  937MOL0     C26425   4.861  11.705  11.236  0.0677  0.3222  0.4596
  937MOL0     C26426   4.936  10.845  11.264  0.1433  0.1731 -0.4011
  937MOL0     C26427   4.942  10.715  11.210  0.9679  0.2558 -0.6660
  937MOL0     H26428   4.775  10.270  11.181  0.2571 -1.6183  1.1311
  937MOL0     H26429   4.759  10.045  11.091 -2.5005  1.4830 -0.0989
  937MOL0     H26430   5.050   9.926  10.760 -0.5673  0.9001  2.5392
  937MOL0     H26431   4.943   9.780  10.770  1.3180 -0.3481  3.2136
  937MOL0     H26432   4.890  10.051  10.632 -0.8166  1.1262  0.5543
  937MOL0     H26433   4.901   9.902  10.538 -0.3890  0.0590  1.0841
  937MOL0     H26434   4.677   9.980  10.717  0.5504 -3.6456  3.1969
  937MOL0     H26435   4.692   9.967  10.531 -1.1623 -0.7481 -0.0240
  937MOL0     H26436   4.752   9.723  10.582  2.4306  0.8384  1.7574
  937MOL0     H26437   4.688   9.740  10.740 -2.2395  0.9886  1.3659
  937MOL0     H26438   4.473   9.808  10.665 -2.6077 -1.8452 -1.1649
  937MOL0     H26439   4.525   9.775  10.495  0.6581 -1.9864 -0.5920
  937MOL0     H26440   4.582   9.553  10.541 -1.5973  0.6487 -1.6880
  937MOL0     H26441   4.545   9.573  10.716 -2.5103  3.3204  2.3787
  937MOL0     H26442   4.367   9.462  10.601  1.4726 -0.5208 -1.7539
  937MOL0     H26443   4.313   9.624  10.662  1.9712 -0.1524  1.0301
  937MOL0     H26444   4.265   9.696  10.427  2.0091  0.1397 -2.0370
  937MOL0     H26445   4.228   9.523  10.461  2.0192 -3.0082 -1.0755
  937MOL0     H26446   4.347   9.657  10.162  1.8968  0.0981 -0.8718
  937MOL0     H26447   4.460   9.521   9.937 -1.5023  0.3703 -1.3391
  937MOL0     H26448   4.495   9.349   9.972 -2.9294 -2.9859  2.3579
  937MOL0     H26449   4.214   9.460   9.945 -3.7158 -3.0053 -1.9349
  937MOL0     H26450   4.261   9.298   9.991 -1.0811 -0.1623 -1.3314
  937MOL0     H26451   4.322   9.427   9.712 -2.3128  0.5517 -0.8869
  937MOL0     H26452   4.184   9.338   9.763 -0.9462  1.1581  2.8037
  937MOL0     H26453   4.466   9.242   9.793 -0.5318  1.9885  2.2568
  937MOL0     H26454   4.371   9.189   9.654  3.6693 -2.3158  0.9996
  937MOL0     H26455   4.310   8.975  10.047  1.7340 -0.2525  0.6341
  937MOL0     H26456   4.477   8.718  10.184 -1.1982  2.1231  2.2536
  937MOL0     H26457   4.332   8.831  10.184 -0.0637  3.4846 -3.8972
  937MOL0     H26458   4.331   8.656  10.136 -0.2807  0.7034 -2.7278
  937MOL0     H26459   4.470   8.292   9.974 -0.8203  2.2401  1.9389
  937MOL0     H26460   4.619   8.092   9.999 -2.4591  0.1636  3.2399
  937MOL0     H26461   4.754   7.951  10.065 -0.1515 -1.4896 -0.1079
  937MOL0     H26462   4.889   7.992   9.946  4.7473 -0.0261  1.3942
  937MOL0     H26463   5.050   7.913  10.119  0.4889  0.2686 -2.7021
  937MOL0     H26464   4.909   7.847  10.212  0.6267  0.2163 -0.2566
  937MOL0     H26465   4.968   7.803   9.928  0.8788  1.2297  0.9696
  937MOL0     H26466   4.843   7.712  10.024  0.7017 -0.1923  4.3721
  937MOL0     H26467   5.039   7.571   9.979  1.8664  0.7379  0.4760
  937MOL0     H26468   5.142   7.686  10.057 -0.6696  0.0881 -2.7572
  937MOL0     H26469   4.898   7.551  10.185  0.3727 -0.1214  2.0878
  937MOL0     H26470   5.044   7.602  10.272 -0.4130  2.7546 -0.2660
  937MOL0     H26471   5.061   7.376  10.262  1.9868 -1.8592 -0.2504
  937MOL0     H26472   5.028   7.364  10.085  3.0871 -0.5794 -1.8625
  937MOL0     H26473   5.265   7.419  10.247 -3.1906  1.1538  1.1847
  937MOL0     H26474   5.266   7.523  10.101  3.8561  0.0317  2.3341
  937MOL0     H26475   5.382   7.314  10.039  0.7054 -1.2015  2.6512
  937MOL0     H26476   5.218   7.337   9.969  0.3450  1.4132  0.3280
  937MOL0     H26477   4.919   8.352  10.173  0.0898  2.4528 -1.5159
  937MOL0     H26478   4.764   8.554  10.110 -0.5060  0.3112 -1.8096
  937MOL0     H26479   4.547   8.757   9.697  2.0522  0.2466  1.4238
  937MOL0     H26480   4.445   8.959   9.638 -1.7178  1.3894  0.3947
  937MOL0     H26481   5.088  10.125  10.823  1.8052  0.4245  1.4532
  937MOL0     H26482   5.097  10.353  10.926 -1.9133  0.0594 -4.1656
  937MOL0     H26483   5.239  10.598  11.337 -1.1851 -3.4982 -0.9501
  937MOL0     H26484   5.243  10.838  11.424  0.3906 -2.0734  2.4424
  937MOL0     H26485   4.986  11.139  11.241 -1.0143 -0.0326 -0.0686
  937MOL0     H26486   4.861  11.094  11.363  1.7323 -6.6973 -0.2443
  937MOL0     H26487   5.109  11.271  11.409  0.1181  2.8448 -1.6049
  937MOL0     H26488   4.965  11.250  11.515 -1.2077 -1.5407 -1.4258
  937MOL0     H26489   4.832  11.353  11.350  0.3733 -1.0552 -0.0392
  937MOL0     H26490   4.958  11.355  11.225 -0.9802  0.0159 -0.8065
  937MOL0     H26491   5.084  11.530  11.360  2.1175  2.4232  4.4908
  937MOL0     H26492   4.969  11.522  11.492  1.2450  3.0802 -0.1866
  937MOL0     H26493   4.795  11.765  11.176 -0.6424 -1.0401 -0.1720
  937MOL0     H26494   4.842  10.896  11.244  0.5786  0.4020 -2.0131
  937MOL0     H26495   4.859  10.692  11.144 -1.0927  3.0999  0.7374
  938MOL0     O26496   5.194   2.162   6.603 -0.4121 -0.6716  0.4016
  938MOL0     C26497   5.140   2.212   6.503 -0.1462  0.4824 -0.3659
  938MOL0     O26498   5.160   2.333   6.456 -0.6387 -0.2223 -0.2015
  938MOL0     C26499   5.233   2.432   6.518  0.4774  0.2922  0.1332
  938MOL0     C26500   5.324   2.513   6.446 -0.1429  0.0359 -0.5564
  938MOL0     C26501   5.391   2.613   6.506 -0.6010 -0.5102 -0.5636
  938MOL0     C26502   5.363   2.641   6.650 -0.7509 -0.2926 -0.5939
  938MOL0     O26503   5.404   2.761   6.705  0.1546  0.0497 -0.9612
  938MOL0     C26504   5.462   2.855   6.621 -0.4260  1.2634 -0.1501
  938MOL0     C26505   5.491   2.965   6.717  0.9373 -0.0947  0.1468
  938MOL0     C26506   5.533   3.086   6.628  0.2233 -0.8591 -0.0038
  938MOL0     C26507   5.545   3.221   6.710 -0.1861  0.1525  1.4098
  938MOL0     C26508   5.547   3.356   6.635 -0.4524  0.5845 -0.2836
  938MOL0     C26509   5.643   3.353   6.513  0.6330 -0.3023 -0.3660
  938MOL0     C26510   5.643   3.487   6.441  0.1962 -0.2260 -0.7529
  938MOL0     C26511   5.742   3.496   6.329 -0.5735 -0.4445  0.6836
  938MOL0     N26512   5.743   3.626   6.262 -0.5381  0.2398  0.4447
  938MOL0     C26513   5.788   3.740   6.310  1.1082 -0.0299 -0.1136
  938MOL0     C26514   5.832   3.820   6.214  0.3526  0.3086 -0.1635
  938MOL0     C26515   5.920   3.944   6.226  0.4781  0.9264 -0.6566
  938MOL0     C26516   5.946   4.030   6.102  0.0097 -0.3502 -0.6304
  938MOL0     C26517   6.004   4.170   6.138 -0.4804  0.2734  0.0839
  938MOL0     C26518   5.951   4.280   6.058  1.2847  0.4600  1.1471
  938MOL0     O26519   6.015   4.400   6.117  0.2816 -0.0374 -0.9588
  938MOL0     C26520   6.119   4.462   6.047  0.0060  0.7609  0.1450
  938MOL0     C26521   6.187   4.414   5.942 -0.5513 -0.6288  0.5188
  938MOL0     C26522   6.297   4.482   5.877 -1.4313  0.3346  0.6328
  938MOL0     C26523   6.328   4.429   5.741 -0.8785  0.2655 -0.3683
  938MOL0     C26524   6.353   4.595   5.933  0.3623  0.0233 -0.1676
  938MOL0     C26525   6.460   4.671   5.866  0.7912  1.4633  0.2229
  938MOL0     O26526   6.457   4.801   5.886 -0.5151 -0.3643  0.0583
  938MOL0     C26527   6.516   4.877   5.791  0.4904  0.1349  0.3974
  938MOL0     C26528   6.649   4.924   5.814  0.2029  0.2085 -0.0350
  938MOL0     C26529   6.712   5.007   5.718 -0.4531 -0.4181 -0.1189
  938MOL0     C26530   6.644   5.032   5.594 -1.0231 -0.7697  0.3357
  938MOL0     O26531   6.696   5.115   5.495 -0.1594 -0.9279  0.6214
  938MOL0     C26532   6.811   5.062   5.425  0.1726  0.1174 -0.1457
  938MOL0     C26533   6.877   5.181   5.362 -0.2525  0.3344  0.6172
  938MOL0     C26534   6.866   5.191   5.204 -0.7279  0.0022 -0.9108
  938MOL0     C26535   6.731   5.245   5.151  0.4821 -0.1978  0.2969
  938MOL0     C26536   6.689   5.390   5.183  0.3714  0.2100 -0.7901
  938MOL0     C26537   6.563   5.431   5.110 -0.0255 -0.1069  0.4084
  938MOL0     C26538   6.535   5.581   5.132  0.1369  0.1593 -0.6567
  938MOL0     C26539   6.411   5.619   5.045  0.1432  0.3399  0.1529
  938MOL0    Cl26540   6.377   5.804   5.034  0.1582 -0.4529  0.4762
  938MOL0     C26541   6.512   5.009   5.590  0.4495  0.5308 -0.2842
  938MOL0     C26542   6.440   4.923   5.682  0.5564 -0.5280  0.3077
  938MOL0     O26543   6.535   4.611   5.796  0.2958  0.6210  0.3519
  938MOL0     C26544   6.289   4.641   6.046 -0.2761  0.3554 -0.6989
  938MOL0     C26545   6.179   4.581   6.100 -0.2517 -0.0532  0.3768
  938MOL0     N26546   5.779   3.753   6.107  0.0409  0.3181 -0.1369
  938MOL0     N26547   5.727   3.638   6.133 -0.0639  0.0945  0.0688
  938MOL0     C26548   5.267   2.562   6.717 -0.7016 -0.0747  0.7068
  938MOL0     C26549   5.199   2.458   6.652  0.9482 -0.5263  0.4135
  938MOL0     C26550   5.047   2.123   6.432  0.6932  0.1022 -0.6537
  938MOL0     C26551   4.987   2.168   6.311  0.3767 -0.7885 -0.0727
  938MOL0     C26552   4.880   2.110   6.251  0.1657 -0.5954  0.4627
  938MOL0     C26553   4.816   1.999   6.301  0.3717  0.3088  0.0050
  938MOL0     O26554   4.709   1.947   6.229  0.0639  0.5663  0.5687
  938MOL0     C26555   4.602   2.023   6.187 -1.0981  0.5623 -0.8159
  938MOL0     C26556   4.510   2.050   6.302 -0.6449 -0.4792 -0.2830
  938MOL0     C26557   4.472   1.912   6.371 -0.2455 -0.6101 -0.1238
  938MOL0     C26558   4.345   1.918   6.445 -0.7665  0.7416  0.9671
  938MOL0     C26559   4.225   1.953   6.370 -0.6525 -0.4055  0.4585
  938MOL0     C26560   4.120   1.960   6.312  0.5446 -0.6195 -0.0186
  938MOL0     C26561   4.862   1.948   6.423 -0.2136 -0.9293  0.4208
  938MOL0     C26562   4.977   2.012   6.487  0.1687  0.0270  0.2887
  938MOL0     H26563   5.328   2.497   6.339 -0.7617 -0.7529 -0.4678
  938MOL0     H26564   5.455   2.675   6.443 -0.5603 -1.4652 -1.4845
  938MOL0     H26565   5.549   2.816   6.568 -1.9527 -1.8406 -0.5912
  938MOL0     H26566   5.386   2.880   6.547 -0.6433 -2.0196 -1.2021
  938MOL0     H26567   5.406   2.998   6.777 -0.7972  1.2158 -2.7671
  938MOL0     H26568   5.578   2.935   6.777  0.5965  0.3545  0.8715
  938MOL0     H26569   5.624   3.064   6.571  0.5250  4.7164 -2.3722
  938MOL0     H26570   5.446   3.095   6.561 -1.0239  0.0883  1.6450
  938MOL0     H26571   5.468   3.227   6.789  0.9298 -2.0224  2.7605
  938MOL0     H26572   5.642   3.219   6.761 -0.0168  1.5096  1.1865
  938MOL0     H26573   5.449   3.382   6.595 -0.3693 -2.8281 -3.1995
  938MOL0     H26574   5.581   3.434   6.704  0.5581 -1.0141  1.1210
  938MOL0     H26575   5.738   3.317   6.554  0.5910 -3.5548 -2.8382
  938MOL0     H26576   5.602   3.272   6.452  0.8888 -1.1640  0.5768
  938MOL0     H26577   5.544   3.520   6.409  0.0235  1.7682  1.5577
  938MOL0     H26578   5.686   3.564   6.505  1.6657 -0.5187 -1.3588
  938MOL0     H26579   5.732   3.418   6.252  2.4306  0.7355 -1.1125
  938MOL0     H26580   5.847   3.480   6.357 -1.1563 -2.1570  2.0944
  938MOL0     H26581   5.798   3.750   6.418 -0.8106 -2.2744  0.3365
  938MOL0     H26582   5.878   4.012   6.300  0.4458 -1.4946  1.7064
  938MOL0     H26583   6.015   3.912   6.272  0.3296  3.2311  1.4793
  938MOL0     H26584   5.851   4.051   6.052  1.0711  1.7042 -1.9153
  938MOL0     H26585   6.012   3.982   6.029  0.1165  2.6636 -2.6764
  938MOL0     H26586   6.112   4.153   6.129 -0.2448  1.3426  0.7490
  938MOL0     H26587   6.000   4.189   6.245  0.1651 -2.1148  0.5899
  938MOL0     H26588   5.845   4.282   6.084  1.1265  1.1908  0.4797
  938MOL0     H26589   5.961   4.265   5.950  0.5652 -0.7132  1.2283
  938MOL0     H26590   6.155   4.317   5.907 -0.7829  0.5950 -3.0702
  938MOL0     H26591   6.248   4.358   5.717  1.1132 -2.7888  1.3613
  938MOL0     H26592   6.333   4.497   5.656  2.5871 -0.5494 -0.9520
  938MOL0     H26593   6.427   4.383   5.743  0.3241  2.6117 -1.2559
  938MOL0     H26594   6.692   4.895   5.909 -1.2792  1.8075  1.1875
  938MOL0     H26595   6.815   5.039   5.730 -0.0134 -2.0010  0.5642
  938MOL0     H26596   6.878   5.010   5.494 -0.5909  1.4798  1.6974
  938MOL0     H26597   6.779   4.993   5.347 -1.7852  1.0883 -0.2528
  938MOL0     H26598   6.834   5.273   5.403  2.0944  1.6581  0.3083
  938MOL0     H26599   6.983   5.171   5.386  0.2524 -0.1355 -1.6680
  938MOL0     H26600   6.899   5.094   5.166 -0.9103 -1.9676  3.4100
  938MOL0     H26601   6.937   5.268   5.174 -0.3647  0.8149  1.7299
  938MOL0     H26602   6.737   5.247   5.042  1.3600  2.6539  0.3135
  938MOL0     H26603   6.651   5.173   5.170 -0.3951  0.3472 -1.2235
  938MOL0     H26604   6.779   5.451   5.167  1.3148 -0.5304  1.3330
  938MOL0     H26605   6.672   5.387   5.291 -0.5650 -0.1216 -0.9414
  938MOL0     H26606   6.578   5.418   5.003  1.8795  3.6390  0.0182
  938MOL0     H26607   6.473   5.375   5.136 -2.5174  2.3301 -2.2388
  938MOL0     H26608   6.618   5.644   5.098 -0.1432  1.8465  1.6088
  938MOL0     H26609   6.509   5.601   5.236 -0.4390 -3.4087  0.0335
  938MOL0     H26610   6.326   5.572   5.095  2.1251 -0.3286  3.1222
  938MOL0     H26611   6.425   5.580   4.944  0.1838 -1.0606  0.6870
  938MOL0     H26612   6.460   5.061   5.511 -0.1606  4.8480  2.5594
  938MOL0     H26613   6.335   4.898   5.673  1.1076 -2.7414 -0.4304
  938MOL0     H26614   6.330   4.730   6.092  0.8587 -0.8643  0.7503
  938MOL0     H26615   6.149   4.635   6.188 -1.6035 -1.2606  0.6895
  938MOL0     H26616   5.234   2.590   6.817 -1.4099  0.5418  0.3098
  938MOL0     H26617   5.125   2.390   6.694  0.1299 -1.0303 -1.6869
  938MOL0     H26618   5.026   2.255   6.258  3.5461 -1.9523  0.1442
  938MOL0     H26619   4.843   2.152   6.158  2.8793 -0.0831 -0.4656
  938MOL0     H26620   4.635   2.113   6.134  3.8403 -0.5123 -0.0427
  938MOL0     H26621   4.538   1.969   6.116  2.4841  0.2758 -4.1728
  938MOL0     H26622   4.421   2.100   6.263  0.1975  1.4690  0.1715
  938MOL0     H26623   4.559   2.120   6.370  0.7436 -3.0503  1.5323
  938MOL0     H26624   4.555   1.901   6.441  0.2522  0.3258 -0.5532
  938MOL0     H26625   4.463   1.827   6.302 -0.5457 -2.8464  2.4756
  938MOL0     H26626   4.358   1.980   6.534  1.0899 -1.7940  2.6085
  938MOL0     H26627   4.330   1.819   6.489 -0.1290  0.0807 -0.2225
  938MOL0     H26628   4.035   1.960   6.247  0.7216 -2.1584 -0.2817
  938MOL0     H26629   4.811   1.860   6.459  1.5518 -2.1288  0.1448
  938MOL0     H26630   5.005   1.980   6.587  0.5582 -1.3669 -0.2481
  939MOL0     O26631  11.026   0.379   8.422 -0.1930  0.6888  0.1841
  939MOL0     C26632  11.114   0.352   8.507 -0.2584 -1.1891 -1.1404
  939MOL0     O26633  11.097   0.350   8.651  0.0161 -0.7726  1.0155
  939MOL0     C26634  10.990   0.419   8.703  0.2314 -0.1418 -0.0926
  939MOL0     C26635  10.937   0.379   8.826 -0.9141  0.4096  0.3707
  939MOL0     C26636  10.823   0.432   8.880  0.0873  0.0709  0.0121
  939MOL0     C26637  10.769   0.554   8.817 -0.0288  1.0407 -0.0488
  939MOL0     O26638  10.674   0.634   8.873 -0.3414 -0.0003 -0.8926
  939MOL0     C26639  10.591   0.578   8.975  0.3732  0.1045  0.4275
  939MOL0     C26640  10.514   0.687   9.046  0.3365 -0.0858  0.6456
  939MOL0     C26641  10.432   0.764   8.951  0.5370 -0.3905  0.7807
  939MOL0     C26642  10.347   0.861   9.035  0.2520 -0.0946 -0.2987
  939MOL0     C26643  10.246   0.949   8.965  0.2282 -1.0540 -0.1712
  939MOL0     C26644  10.319   1.071   8.898 -0.2365  0.3770  0.0773
  939MOL0     C26645  10.256   1.208   8.920  0.8085  0.1925  1.1124
  939MOL0     C26646  10.297   1.312   8.816  0.0951 -0.5267 -0.7054
  939MOL0     N26647  10.252   1.269   8.686  0.6618 -0.0931  0.5626
  939MOL0     C26648  10.117   1.243   8.652  0.1746 -0.1352 -0.4617
  939MOL0     C26649  10.117   1.183   8.532 -0.4581 -0.2195 -0.9165
  939MOL0     C26650   9.987   1.152   8.473  0.0315  0.3290  0.2402
  939MOL0     C26651   9.973   1.159   8.325 -0.2122 -0.4529  0.0136
  939MOL0     C26652   9.869   1.063   8.276  0.4211 -0.7174 -0.2915
  939MOL0     C26653   9.732   1.121   8.314  0.1934  0.0581 -0.1588
  939MOL0     O26654   9.640   1.008   8.300 -0.4032 -0.4575  0.3404
  939MOL0     C26655   9.614   0.956   8.176 -0.0910  0.3933  0.0927
  939MOL0     C26656   9.643   1.011   8.053  0.0735 -0.1958 -0.3448
  939MOL0     C26657   9.629   0.942   7.929  0.5074  0.1565 -0.0490
  939MOL0     C26658   9.662   1.019   7.805 -0.1381 -0.0308  0.2111
  939MOL0     C26659   9.590   0.798   7.933 -0.4438  0.4685  0.4120
  939MOL0     C26660   9.584   0.711   7.815  0.9275 -0.9127  0.0475
  939MOL0     O26661   9.478   0.633   7.799  0.2324 -0.0160  0.6607
  939MOL0     C26662   9.360   0.688   7.738 -0.3974 -0.2642  1.3027
  939MOL0     C26663   9.256   0.603   7.706  0.3167  0.6901 -0.0162
  939MOL0     C26664   9.138   0.634   7.644 -0.4524 -0.0520 -0.4318
  939MOL0     C26665   9.109   0.767   7.618  0.6062  0.0840 -0.4545
  939MOL0     O26666   8.994   0.818   7.554  0.0076  0.4758 -0.4775
  939MOL0     C26667   8.892   0.729   7.516  0.6503  0.1443  1.3912
  939MOL0     C26668   8.765   0.814   7.516 -0.1546  0.2763  0.2917
  939MOL0     C26669   8.643   0.723   7.468 -0.0049  0.3249  0.4377
  939MOL0     C26670   8.517   0.815   7.469 -0.3144  0.4971 -0.1386
  939MOL0     C26671   8.386   0.732   7.456  0.5919 -0.0016 -0.9835
  939MOL0     C26672   8.266   0.822   7.508  0.2385  0.0145 -0.4323
  939MOL0     C26673   8.130   0.757   7.519 -0.2964  0.1648 -0.1954
  939MOL0     C26674   8.022   0.869   7.509 -0.0054  0.2612  0.3556
  939MOL0    Cl26675   7.864   0.798   7.555  0.8311  0.4276 -0.1731
  939MOL0     C26676   9.210   0.859   7.641  0.1602 -0.2737 -0.7396
  939MOL0     C26677   9.335   0.829   7.702 -0.2509 -0.1345 -0.2025
  939MOL0     O26678   9.681   0.721   7.735 -0.1791  0.0701 -0.0872
  939MOL0     C26679   9.556   0.746   8.057  0.1934 -0.4248  0.2481
  939MOL0     C26680   9.571   0.821   8.174  0.5271 -0.0993 -0.3362
  939MOL0     N26681  10.252   1.185   8.488  0.0080 -0.5063 -0.5581
  939MOL0     N26682  10.320   1.243   8.573 -0.4946 -0.1312 -0.1560
  939MOL0     C26683  10.821   0.604   8.702  0.6467  0.4431  0.2709
  939MOL0     C26684  10.935   0.541   8.648 -0.0537  0.3654 -0.8904
  939MOL0     C26685  11.241   0.300   8.449 -0.1773 -0.2889 -0.8803
  939MOL0     C26686  11.262   0.295   8.312  0.4195  1.2331  0.3535
  939MOL0     C26687  11.370   0.222   8.255 -0.2725  0.0218  0.0304
  939MOL0     C26688  11.473   0.179   8.338 -0.0833  0.5493 -0.4517
  939MOL0     O26689  11.578   0.123   8.281 -0.5364  0.1823  0.1544
  939MOL0     C26690  11.694   0.093   8.358 -0.1748 -0.2225 -0.0006
  939MOL0     C26691  11.800   0.040   8.266 -0.4345 -0.9196 -0.6379
  939MOL0     C26692  11.831   0.161   8.170  0.9880 -0.0563 -0.5641
  939MOL0     C26693  11.945   0.118   8.091  0.1356  0.5223  0.3500
  939MOL0     C26694  11.982   0.204   7.984  0.0517 -0.3884 -0.7878
  939MOL0     C26695  12.024   0.278   7.900  0.4718 -0.1364  0.5402
  939MOL0     C26696  11.461   0.200   8.483 -0.2029 -0.0432 -0.9076
  939MOL0     C26697  11.348   0.253   8.534  0.1246 -0.0380 -0.2563
  939MOL0     H26698  10.974   0.284   8.863  1.5593 -0.2945 -3.4106
  939MOL0     H26699  10.781   0.385   8.968  0.5085 -1.3682 -0.5189
  939MOL0     H26700  10.532   0.494   8.937  1.2073  0.6476 -2.2109
  939MOL0     H26701  10.658   0.542   9.054  2.3146 -2.3728 -2.1748
  939MOL0     H26702  10.459   0.643   9.130  2.4843 -1.0784  1.5840
  939MOL0     H26703  10.582   0.757   9.095 -1.4962 -0.5663  4.2011
  939MOL0     H26704  10.492   0.820   8.879  0.0240  1.6791  1.8736
  939MOL0     H26705  10.358   0.709   8.891 -0.4194 -0.6191  2.1192
  939MOL0     H26706  10.291   0.795   9.102 -0.0386 -1.4575 -1.8142
  939MOL0     H26707  10.413   0.922   9.098  3.7308 -0.0019 -3.6767
  939MOL0     H26708  10.185   0.893   8.893 -0.5952 -2.4861  1.5614
  939MOL0     H26709  10.179   0.982   9.045  2.2113 -3.4921  2.6945
  939MOL0     H26710  10.419   1.073   8.941 -0.0988 -1.7086 -0.0121
  939MOL0     H26711  10.339   1.056   8.791  1.2231  0.4913  0.3102
  939MOL0     H26712  10.147   1.198   8.916  0.8841 -0.9234  1.5645
  939MOL0     H26713  10.291   1.257   9.012  0.2472 -2.1207  2.6493
  939MOL0     H26714  10.406   1.315   8.808  0.0915  0.6099 -0.5223
  939MOL0     H26715  10.258   1.409   8.848  1.8156  0.1556 -0.5734
  939MOL0     H26716  10.029   1.251   8.716  0.5044 -1.2857  0.1621
  939MOL0     H26717   9.954   1.055   8.513 -2.7377  1.3919  0.7684
  939MOL0     H26718   9.915   1.219   8.522 -0.7288 -1.6020  1.8971
  939MOL0     H26719  10.064   1.128   8.273 -1.4810 -0.3669 -2.4541
  939MOL0     H26720   9.945   1.259   8.289  1.8415 -0.2506 -1.2273
  939MOL0     H26721   9.877   0.957   8.299 -0.5270 -0.0263  3.9535
  939MOL0     H26722   9.886   1.073   8.168  0.9586 -0.2367 -0.1722
  939MOL0     H26723   9.702   1.205   8.251  2.5089  0.4351 -0.8702
  939MOL0     H26724   9.729   1.157   8.417 -1.6529 -2.7608  0.8982
  939MOL0     H26725   9.668   1.116   8.065 -1.9350  0.2954 -0.0821
  939MOL0     H26726   9.634   0.962   7.716  1.0661  0.0479 -0.2377
  939MOL0     H26727   9.607   1.113   7.810 -0.1719 -0.0657  0.4687
  939MOL0     H26728   9.768   1.044   7.807  0.2187 -1.5221  1.7672
  939MOL0     H26729   9.268   0.498   7.729  0.3599  0.7948  0.4406
  939MOL0     H26730   9.062   0.559   7.626 -1.3556  0.1443  2.0796
  939MOL0     H26731   8.912   0.690   7.416 -0.7850  0.8208  0.8165
  939MOL0     H26732   8.888   0.644   7.584  2.2994  0.3518  1.8020
  939MOL0     H26733   8.739   0.840   7.619  0.4795  1.4867  0.1546
  939MOL0     H26734   8.784   0.904   7.458 -0.4570 -0.2942 -0.7343
  939MOL0     H26735   8.627   0.634   7.530 -1.3478  1.0089  1.1192
  939MOL0     H26736   8.660   0.692   7.364 -2.2607  1.9128 -0.4748
  939MOL0     H26737   8.520   0.881   7.556 -1.8208 -1.5667  1.6045
  939MOL0     H26738   8.501   0.885   7.386 -5.1614  0.2858  0.2835
  939MOL0     H26739   8.391   0.637   7.512  0.2569 -0.7036 -2.1217
  939MOL0     H26740   8.379   0.700   7.352  1.2331  0.2673 -1.1159
  939MOL0     H26741   8.300   0.855   7.606  2.2753 -0.0516 -1.0725
  939MOL0     H26742   8.270   0.917   7.455 -1.2098  1.1690  1.4127
  939MOL0     H26743   8.111   0.719   7.620 -0.1447 -1.7110 -0.8263
  939MOL0     H26744   8.104   0.682   7.444  1.4405 -0.2671 -0.4264
  939MOL0     H26745   8.017   0.906   7.406 -1.8141 -0.0662  0.2936
  939MOL0     H26746   8.051   0.951   7.575  1.8314  0.2881 -0.4221
  939MOL0     H26747   9.202   0.962   7.606 -1.9263  0.4115  1.5163
  939MOL0     H26748   9.413   0.902   7.718  0.3656 -0.6783 -0.7149
  939MOL0     H26749   9.505   0.651   8.071  3.6606 -2.7660 -1.5462
  939MOL0     H26750   9.537   0.780   8.269  3.5414  1.8696  1.7763
  939MOL0     H26751  10.782   0.690   8.649  2.1113 -0.2032 -2.0678
  939MOL0     H26752  10.984   0.576   8.558 -0.1581  0.1459 -1.0332
  939MOL0     H26753  11.187   0.333   8.243  0.4662  2.2327  0.8302
  939MOL0     H26754  11.384   0.213   8.148  1.7385  3.4568 -0.1337
  939MOL0     H26755  11.734   0.190   8.389 -3.4660  1.2012  0.2464
  939MOL0     H26756  11.675   0.029   8.444 -1.2080 -1.4196 -1.0857
  939MOL0     H26757  11.773  -0.041   8.196  1.8949 -2.7435  0.4306
  939MOL0     H26758  11.886   0.013   8.328 -1.5344 -3.7208 -0.1569
  939MOL0     H26759  11.874   0.240   8.233 -1.0726  0.1607  0.6610
  939MOL0     H26760  11.750   0.203   8.110  0.3524 -0.2345  0.1404
  939MOL0     H26761  11.897   0.035   8.039 -2.5003  1.2136  1.5296
  939MOL0     H26762  12.042   0.088   8.132  0.0134  2.8436  2.5867
  939MOL0     H26763  12.076   0.332   7.824  1.4655  0.5505  1.6762
  939MOL0     H26764  11.531   0.161   8.556 -1.3173 -0.0921  0.1577
  939MOL0     H26765  11.334   0.272   8.640 -0.2666  0.1590 -0.3405
  940MOL0     O26766   2.715   3.197   8.747  0.5637  0.1276  0.4992
  940MOL0     C26767   2.771   3.194   8.640 -0.3920  0.6494 -0.5813
  940MOL0     O26768   2.712   3.201   8.516  0.0492 -0.0722 -0.4776
  940MOL0     C26769   2.584   3.200   8.486 -0.0170  0.1809 -1.0970
  940MOL0     C26770   2.562   3.137   8.359 -0.0274 -0.2568  0.0816
  940MOL0     C26771   2.428   3.117   8.313  0.9768 -0.4051 -0.5606
  940MOL0     C26772   2.321   3.201   8.365  0.3657  0.9477 -0.1409
  940MOL0     O26773   2.200   3.204   8.293 -0.3796  0.8718 -0.3826
  940MOL0     C26774   2.083   3.249   8.365  0.0942 -0.5221  0.7371
  940MOL0     C26775   1.953   3.191   8.296 -0.0869  0.1097  0.6042
  940MOL0     C26776   1.882   3.282   8.193  0.4159 -0.3418 -0.2952
  940MOL0     C26777   1.763   3.222   8.135  0.8479  0.7378  0.0778
  940MOL0     C26778   1.685   3.301   8.023 -0.6694  0.3570  0.2253
  940MOL0     C26779   1.564   3.210   7.975  0.0175  0.0158 -0.0089
  940MOL0     C26780   1.456   3.303   7.922 -0.1885 -0.4970  0.0672
  940MOL0     C26781   1.371   3.232   7.808  0.2038 -1.0199 -0.1103
  940MOL0     N26782   1.463   3.215   7.695  0.5918 -0.5635  0.4915
  940MOL0     C26783   1.537   3.313   7.644 -0.5460 -0.4184 -0.1263
  940MOL0     C26784   1.572   3.280   7.520 -0.6313 -0.0210  0.4575
  940MOL0     C26785   1.662   3.351   7.423  0.1272 -0.2520 -0.7683
  940MOL0     C26786   1.805   3.315   7.442 -0.9371 -0.6184  0.6105
  940MOL0     C26787   1.877   3.359   7.578 -0.6668  0.5304  0.8520
  940MOL0     C26788   1.886   3.508   7.587 -0.3084 -0.2948 -0.3871
  940MOL0     O26789   1.921   3.523   7.730 -0.1864 -0.2131 -0.1134
  940MOL0     C26790   2.047   3.533   7.781 -0.3696 -0.6853  1.1595
  940MOL0     C26791   2.067   3.564   7.907  0.2172 -0.3387 -0.5876
  940MOL0     C26792   2.198   3.570   7.962  1.0470 -0.7085  0.0198
  940MOL0     C26793   2.203   3.585   8.112  0.3011  0.6531 -0.6255
  940MOL0     C26794   2.312   3.549   7.887 -0.1909 -0.8942 -0.0613
  940MOL0     C26795   2.449   3.554   7.943  0.3672 -0.8136  0.0692
  940MOL0     O26796   2.492   3.433   7.976  0.2829 -0.0200 -0.2047
  940MOL0     C26797   2.617   3.439   8.037 -0.8707  0.1049  0.8350
  940MOL0     C26798   2.732   3.451   7.961 -0.5380  0.1748  0.2393
  940MOL0     C26799   2.857   3.453   8.012 -0.0725 -0.1103 -0.6446
  940MOL0     C26800   2.876   3.440   8.150  1.4495  0.8665  0.6507
  940MOL0     O26801   2.994   3.439   8.208  0.5335 -0.3349 -0.3269
  940MOL0     C26802   3.116   3.496   8.150  0.7489  0.7024  0.5311
  940MOL0     C26803   3.226   3.487   8.240  0.1478 -0.2048 -0.5395
  940MOL0     C26804   3.355   3.513   8.163 -0.1108  0.0232  0.4312
  940MOL0     C26805   3.469   3.506   8.261  0.1231 -0.7196  0.1375
  940MOL0     C26806   3.599   3.547   8.205  1.0159 -0.0314  1.0749
  940MOL0     C26807   3.709   3.540   8.298 -0.0157  0.3772  0.6482
  940MOL0     C26808   3.844   3.602   8.242  0.0476  0.2411 -0.7167
  940MOL0     C26809   3.968   3.561   8.306 -0.3506 -0.1413 -0.2670
  940MOL0    Cl26810   3.998   3.385   8.285  0.3530 -0.1878 -0.0896
  940MOL0     C26811   2.760   3.426   8.231 -0.0906  0.3855  0.0229
  940MOL0     C26812   2.626   3.423   8.174 -1.1431 -0.9953  0.3167
  940MOL0     O26813   2.509   3.666   7.957 -0.3341  0.6622  0.4003
  940MOL0     C26814   2.291   3.517   7.750  0.3666 -0.3388  0.2354
  940MOL0     C26815   2.160   3.512   7.704  0.1508  0.2132  0.2954
  940MOL0     N26816   1.515   3.161   7.496  0.0380  0.2079 -0.3415
  940MOL0     N26817   1.447   3.120   7.598 -0.2281  1.3478 -0.1949
  940MOL0     C26818   2.356   3.264   8.485  0.3662 -0.9403 -0.5529
  940MOL0     C26819   2.481   3.273   8.544 -0.3183  0.4324 -1.9514
  940MOL0     C26820   2.917   3.180   8.649 -0.0584 -0.5447  0.8786
  940MOL0     C26821   2.992   3.194   8.530  0.6059  0.5531  0.3188
  940MOL0     C26822   3.131   3.184   8.544  0.1904  1.0202  0.3057
  940MOL0     C26823   3.194   3.134   8.653  0.2432  0.0959  0.0184
  940MOL0     O26824   3.332   3.110   8.654  1.1337  0.2542  0.3429
  940MOL0     C26825   3.422   3.160   8.553  0.7349 -0.0169  0.0171
  940MOL0     C26826   3.556   3.163   8.612 -0.5185 -0.0881  0.4345
  940MOL0     C26827   3.643   3.249   8.511  0.9876 -0.8996  0.6784
  940MOL0     C26828   3.791   3.249   8.563 -0.0980 -0.0698 -0.4134
  940MOL0     C26829   3.848   3.119   8.550  0.5305  0.6621  0.1162
  940MOL0     C26830   3.873   3.010   8.511  0.3865  0.5849 -0.9746
  940MOL0     C26831   3.118   3.106   8.762 -0.2263  0.0612 -0.1330
  940MOL0     C26832   2.984   3.127   8.752  0.1481  0.2559  0.1410
  940MOL0     H26833   2.640   3.094   8.297 -3.5294 -1.1454 -4.2030
  940MOL0     H26834   2.415   3.068   8.217 -0.1311 -2.6151  0.6402
  940MOL0     H26835   2.095   3.241   8.474  1.5549 -0.3964  0.6114
  940MOL0     H26836   2.074   3.357   8.353 -1.8118 -0.2873  3.3462
  940MOL0     H26837   1.974   3.094   8.251 -0.9477  0.0285  0.3515
  940MOL0     H26838   1.871   3.169   8.365 -0.8175 -5.1664 -1.4774
  940MOL0     H26839   1.850   3.367   8.254  1.1070  0.3088 -0.8142
  940MOL0     H26840   1.951   3.309   8.112  1.4370 -0.6379  0.4516
  940MOL0     H26841   1.787   3.119   8.103  4.7511  1.3504  0.5563
  940MOL0     H26842   1.701   3.206   8.224 -0.5657  3.8950 -0.2014
  940MOL0     H26843   1.648   3.383   8.086 -0.0492  2.5189 -2.0852
  940MOL0     H26844   1.742   3.342   7.939 -0.4231 -1.7996 -0.7240
  940MOL0     H26845   1.592   3.141   7.895 -2.9847  0.7330 -1.8130
  940MOL0     H26846   1.525   3.160   8.064  0.7165 -0.1599  0.2065
  940MOL0     H26847   1.383   3.319   8.002 -1.7224 -3.6269 -0.5444
  940MOL0     H26848   1.495   3.400   7.889  0.3908 -1.1656 -1.2775
  940MOL0     H26849   1.282   3.290   7.784 -1.9476 -3.6685  0.9730
  940MOL0     H26850   1.326   3.143   7.852 -2.0094  0.1019  0.0211
  940MOL0     H26851   1.550   3.408   7.696 -0.2179  1.1117 -2.8296
  940MOL0     H26852   1.636   3.325   7.320 -0.3012  0.1611 -0.7698
  940MOL0     H26853   1.637   3.458   7.428  1.4699  0.1058 -1.4110
  940MOL0     H26854   1.859   3.371   7.365 -0.5952 -0.3005  1.0763
  940MOL0     H26855   1.814   3.209   7.417 -0.6150 -0.4546 -0.0190
  940MOL0     H26856   1.984   3.334   7.572 -0.8946 -0.7502  1.6709
  940MOL0     H26857   1.836   3.308   7.666  2.1176 -2.0190  0.8456
  940MOL0     H26858   1.789   3.548   7.555  0.7159  1.2575 -1.7404
  940MOL0     H26859   1.963   3.539   7.515 -0.2636 -0.9037 -0.6077
  940MOL0     H26860   1.978   3.574   7.969  1.4019 -2.8883  1.7711
  940MOL0     H26861   2.172   3.489   8.155  1.0460 -0.2293 -1.9772
  940MOL0     H26862   2.304   3.598   8.152  1.0653  1.0453 -2.5523
  940MOL0     H26863   2.131   3.664   8.134  2.0840  2.4015 -0.7504
  940MOL0     H26864   2.715   3.471   7.855  3.6149  0.7997 -0.5009
  940MOL0     H26865   2.932   3.487   7.942 -0.4270  2.3396  0.0921
  940MOL0     H26866   3.134   3.453   8.051  2.0230 -0.4921  1.2525
  940MOL0     H26867   3.099   3.601   8.128 -2.6550  0.4784  1.4799
  940MOL0     H26868   3.206   3.562   8.316  1.3892  2.7680 -2.9527
  940MOL0     H26869   3.231   3.390   8.291  1.3723 -1.1085 -2.2552
  940MOL0     H26870   3.354   3.606   8.105  1.3859  2.1649  3.5320
  940MOL0     H26871   3.379   3.440   8.086 -1.6513  0.9188 -0.9529
  940MOL0     H26872   3.448   3.572   8.346  0.3542  0.0108 -0.3574
  940MOL0     H26873   3.468   3.402   8.296  0.7274 -1.7516 -2.6817
  940MOL0     H26874   3.600   3.655   8.187  2.2586  0.0619  1.6547
  940MOL0     H26875   3.632   3.493   8.116 -0.2931 -3.6399  2.6199
  940MOL0     H26876   3.695   3.577   8.400 -0.0092 -2.5532  1.8153
  940MOL0     H26877   3.727   3.437   8.330 -0.3509  0.5312  1.3636
  940MOL0     H26878   3.829   3.711   8.245 -0.5154  0.1489  0.0188
  940MOL0     H26879   3.841   3.582   8.134 -0.7030  0.4847 -0.7497
  940MOL0     H26880   3.957   3.576   8.414  2.7128 -0.6871  0.2178
  940MOL0     H26881   4.056   3.617   8.274  0.7199  0.8101  3.7659
  940MOL0     H26882   2.781   3.414   8.337  1.2608 -1.8822 -0.4259
  940MOL0     H26883   2.540   3.423   8.241 -2.2128 -0.8096 -1.0081
  940MOL0     H26884   2.377   3.494   7.688 -0.6302  1.2375 -1.8415
  940MOL0     H26885   2.155   3.467   7.605  0.3979  0.4842  0.1569
  940MOL0     H26886   2.285   3.324   8.541  0.8978  3.3374 -3.9533
  940MOL0     H26887   2.501   3.324   8.638  2.5022  0.7836 -2.6492
  940MOL0     H26888   2.953   3.211   8.430  0.4471 -1.5964 -0.0319
  940MOL0     H26889   3.192   3.202   8.456  2.2856  1.3967  1.7630
  940MOL0     H26890   3.421   3.081   8.476  2.7371  0.2090 -0.2966
  940MOL0     H26891   3.391   3.254   8.506 -1.5060 -0.9417 -0.5029
  940MOL0     H26892   3.600   3.064   8.631  0.3979 -0.0391 -1.2403
  940MOL0     H26893   3.565   3.219   8.706 -2.4411 -0.1476  0.6873
  940MOL0     H26894   3.606   3.351   8.503  2.4998 -0.4836 -3.0643
  940MOL0     H26895   3.639   3.204   8.411 -0.2992  0.7751 -0.0717
  940MOL0     H26896   3.781   3.283   8.666  0.0389  2.6087 -1.2196
  940MOL0     H26897   3.837   3.331   8.508 -0.9897  1.5099  1.0957
  940MOL0     H26898   3.909   2.916   8.473  1.7947  0.6525  0.0796
  940MOL0     H26899   3.154   3.080   8.861 -0.5633 -1.6250 -0.4184
  940MOL0     H26900   2.922   3.101   8.838 -0.7351  0.9150 -0.2787
  941MOL0     O26901  10.779   0.803   5.018  0.5485  0.2634 -0.1203
  941MOL0     C26902  10.742   0.870   5.111  0.9682 -0.0135 -0.0069
  941MOL0     O26903  10.790   0.984   5.155  0.4621 -0.8635  0.9085
  941MOL0     C26904  10.890   1.056   5.093  0.4299 -0.1923  0.7910
  941MOL0     C26905  11.000   1.006   5.029 -0.5692  0.0214  0.2164
  941MOL0     C26906  11.092   1.083   4.961 -0.6196 -0.0675  0.0470
  941MOL0     C26907  11.070   1.223   4.945  0.2418 -0.2851 -0.7457
  941MOL0     O26908  11.154   1.306   4.878  0.1465 -0.9480 -0.2428
  941MOL0     C26909  11.131   1.318   4.731  0.2720  0.2141 -0.0276
  941MOL0     C26910  11.041   1.429   4.698  0.7752 -0.4403  0.7955
  941MOL0     C26911  11.063   1.567   4.762 -0.1137  0.7821  0.8708
  941MOL0     C26912  11.191   1.635   4.702 -0.1180 -0.2813  0.0485
  941MOL0     C26913  11.240   1.750   4.779  0.0565 -0.2111  0.5960
  941MOL0     C26914  11.376   1.798   4.740  0.7279 -0.4133  0.1071
  941MOL0     C26915  11.388   1.848   4.596  0.6921 -0.3904 -0.1632
  941MOL0     C26916  11.511   1.934   4.587  0.0748 -0.1927 -0.3785
  941MOL0     N26917  11.631   1.855   4.564 -0.6043 -0.4328 -0.0909
  941MOL0     C26918  11.663   1.800   4.443 -0.2638  0.0062 -0.1134
  941MOL0     C26919  11.790   1.748   4.463 -0.9718 -0.7269  0.0421
  941MOL0     C26920  11.866   1.674   4.362 -0.1408 -0.5890  0.9201
  941MOL0     C26921  11.991   1.763   4.335 -0.0480  0.4273  0.3382
  941MOL0     C26922  11.969   1.891   4.246 -0.7760 -0.0316  0.4134
  941MOL0     C26923  12.084   1.931   4.168 -1.0365 -0.0276 -1.0909
  941MOL0     O26924  12.126   1.820   4.080  0.1392 -0.4055  0.8634
  941MOL0     C26925  12.072   1.819   3.950 -0.5636  0.2752 -0.0023
  941MOL0     C26926  12.121   1.900   3.850 -0.2497  0.0623  0.0831
  941MOL0     C26927  12.062   1.906   3.725 -1.1039  0.0384 -0.2756
  941MOL0     C26928  12.107   2.017   3.633 -0.0054  0.3116  0.2070
  941MOL0     C26929  11.952   1.818   3.692 -0.0996  0.9652 -0.1749
  941MOL0     C26930  11.884   1.806   3.564  0.4280  0.4189  0.3296
  941MOL0     O26931  11.828   1.680   3.545 -0.3312 -0.1622 -0.2957
  941MOL0     C26932  11.775   1.660   3.427  0.5844 -0.1554  0.0386
  941MOL0     C26933  11.852   1.605   3.324  0.0942  0.1286 -0.6576
  941MOL0     C26934  11.797   1.569   3.202 -0.0622 -0.3784  0.1452
  941MOL0     C26935  11.654   1.560   3.197 -0.1307  0.2108 -0.0580
  941MOL0     O26936  11.591   1.507   3.085 -0.0365  0.2978 -0.1731
  941MOL0     C26937  11.634   1.372   3.046 -0.1731 -0.1998  0.8954
  941MOL0     C26938  11.532   1.303   2.941  0.2493 -1.0546 -0.3330
  941MOL0     C26939  11.519   1.371   2.799 -0.7177  0.7402 -0.0140
  941MOL0     C26940  11.655   1.393   2.727  0.3285  0.6732 -0.4884
  941MOL0     C26941  11.652   1.449   2.588 -0.7051  0.0924  0.8671
  941MOL0     C26942  11.693   1.339   2.489 -0.4508  0.0659  0.4237
  941MOL0     C26943  11.713   1.415   2.354 -0.0061  0.3013  1.3650
  941MOL0     C26944  11.822   1.345   2.264  0.2658 -0.2464 -0.0661
  941MOL0    Cl26945  11.788   1.174   2.238 -0.2602  0.2801  0.3922
  941MOL0     C26946  11.573   1.605   3.306  0.2163  0.2686  0.4881
  941MOL0     C26947  11.635   1.654   3.417 -0.6239 -0.5361  0.2641
  941MOL0     O26948  11.894   1.898   3.482  0.1258  0.3099 -0.2021
  941MOL0     C26949  11.909   1.724   3.795 -0.3135 -0.5228 -0.1702
  941MOL0     C26950  11.975   1.731   3.919 -0.2266  0.1359  0.2389
  941MOL0     N26951  11.824   1.759   4.596  0.1879  0.3920 -0.7821
  941MOL0     N26952  11.723   1.820   4.659 -0.0775  0.7773 -0.4654
  941MOL0     C26953  10.960   1.283   5.019  0.2755  0.0292  0.5373
  941MOL0     C26954  10.875   1.195   5.092  0.0067 -0.0997  0.4590
  941MOL0     C26955  10.642   0.811   5.194 -0.5219 -0.7931 -0.3543
  941MOL0     C26956  10.551   0.896   5.278 -0.6097 -0.6156  0.4114
  941MOL0     C26957  10.443   0.840   5.341  0.7716 -0.0564 -0.2661
  941MOL0     C26958  10.416   0.699   5.336  0.2001  0.1572 -0.1934
  941MOL0     O26959  10.310   0.647   5.412  0.1538 -0.3456  0.0939
  941MOL0     C26960  10.245   0.525   5.380  0.4522  0.3135 -0.5652
  941MOL0     C26961  10.173   0.461   5.504 -0.1500  0.3670 -0.7383
  941MOL0     C26962  10.265   0.442   5.626  0.2444  0.1374 -0.5870
  941MOL0     C26963  10.247   0.552   5.726  0.1925  0.8811 -0.4872
  941MOL0     C26964  10.327   0.526   5.844  0.3518  0.0432  0.8956
  941MOL0     C26965  10.389   0.497   5.947  0.7360  0.1373  0.9265
  941MOL0     C26966  10.496   0.621   5.249 -0.2260 -0.1944 -0.2759
  941MOL0     C26967  10.608   0.679   5.189 -0.1974 -0.3002 -0.0416
  941MOL0     H26968  11.016   0.898   5.029 -1.8826 -0.2834  3.3010
  941MOL0     H26969  11.178   1.021   4.937 -1.4470 -1.7626  1.2222
  941MOL0     H26970  11.222   1.336   4.674 -1.7134 -0.0144 -3.5215
  941MOL0     H26971  11.092   1.222   4.695  0.2636 -0.0139  0.5746
  941MOL0     H26972  11.014   1.441   4.592 -3.0017 -0.0373  1.6512
  941MOL0     H26973  10.944   1.398   4.738  0.9871 -1.7729  0.3197
  941MOL0     H26974  10.975   1.630   4.743 -0.5750 -0.2013 -0.4242
  941MOL0     H26975  11.065   1.559   4.871 -0.6937  2.4063  1.0301
  941MOL0     H26976  11.279   1.570   4.694  1.1705  1.5459 -1.7151
  941MOL0     H26977  11.167   1.674   4.602 -0.2925 -1.2863 -0.3077
  941MOL0     H26978  11.165   1.829   4.768 -0.9143 -1.3737 -1.7407
  941MOL0     H26979  11.240   1.716   4.883  0.9449 -0.2199  0.6020
  941MOL0     H26980  11.381   1.892   4.796 -2.6202 -0.8436  1.3299
  941MOL0     H26981  11.447   1.723   4.777 -0.7017 -1.6703  0.3983
  941MOL0     H26982  11.396   1.770   4.520 -0.7436  0.0347 -0.7764
  941MOL0     H26983  11.301   1.907   4.566 -0.4709 -0.8520  2.0863
  941MOL0     H26984  11.519   1.991   4.680 -0.6968 -0.9824  0.1905
  941MOL0     H26985  11.489   2.015   4.517 -0.0275 -0.7791 -1.0368
  941MOL0     H26986  11.610   1.808   4.349 -0.4729  1.6170  0.1120
  941MOL0     H26987  11.905   1.580   4.403  1.1953 -1.5549 -2.2329
  941MOL0     H26988  11.810   1.658   4.269  0.1091  0.5890  0.5547
  941MOL0     H26989  12.072   1.702   4.293  1.6198  1.7732  1.4791
  941MOL0     H26990  12.036   1.787   4.432 -1.4256  1.9934  0.6324
  941MOL0     H26991  11.938   1.973   4.311 -1.2041  1.8644 -2.0207
  941MOL0     H26992  11.892   1.881   4.169  0.3153 -3.4729 -0.4149
  941MOL0     H26993  12.170   1.960   4.230 -1.0667  3.6412 -2.5057
  941MOL0     H26994  12.078   2.019   4.104  1.5878  1.7947  0.8913
  941MOL0     H26995  12.205   1.957   3.888 -0.5483 -1.0523  2.6503
  941MOL0     H26996  12.147   1.975   3.540 -0.9024  0.4434 -0.2488
  941MOL0     H26997  12.025   2.083   3.602 -2.1529 -1.6295  1.4653
  941MOL0     H26998  12.184   2.081   3.677 -0.9602  1.0672  0.8216
  941MOL0     H26999  11.959   1.619   3.336  0.4300 -1.0462 -2.0955
  941MOL0     H27000  11.843   1.537   3.110 -0.0232 -2.1884  0.7447
  941MOL0     H27001  11.728   1.384   2.991 -0.1912  0.5864  1.0238
  941MOL0     H27002  11.648   1.305   3.132 -0.0333  1.1271  1.9351
  941MOL0     H27003  11.564   1.199   2.933  1.1653 -1.0135  2.0556
  941MOL0     H27004  11.430   1.313   2.981 -0.1127 -0.6499 -1.3156
  941MOL0     H27005  11.485   1.473   2.819  1.2334  1.6158 -0.8971
  941MOL0     H27006  11.450   1.304   2.746  0.8305 -0.8324 -0.1268
  941MOL0     H27007  11.707   1.462   2.793  1.3041 -1.5668  1.2238
  941MOL0     H27008  11.703   1.295   2.731 -2.1181 -0.6100 -0.3338
  941MOL0     H27009  11.734   1.521   2.581 -2.7175  2.4244 -0.1950
  941MOL0     H27010  11.559   1.494   2.551 -0.0681  0.2388 -0.6293
  941MOL0     H27011  11.791   1.301   2.519 -1.3674 -1.7017  1.3731
  941MOL0     H27012  11.625   1.256   2.465  0.5338 -0.6065 -0.0966
  941MOL0     H27013  11.744   1.519   2.370 -1.2351  0.7685  0.7959
  941MOL0     H27014  11.619   1.423   2.299  1.4076  2.8237 -0.9202
  941MOL0     H27015  11.923   1.370   2.299  0.4941 -0.6482 -0.4350
  941MOL0     H27016  11.812   1.398   2.169 -1.5614 -0.1091  0.1818
  941MOL0     H27017  11.465   1.596   3.308  0.3081 -4.5526 -1.4533
  941MOL0     H27018  11.570   1.677   3.500  0.4608  4.3428  0.0722
  941MOL0     H27019  11.838   1.644   3.775 -1.8768  0.4967  1.0793
  941MOL0     H27020  11.961   1.661   4.001 -0.2046  1.0583  1.0505
  941MOL0     H27021  10.941   1.390   5.019 -0.2148 -0.0400  2.1518
  941MOL0     H27022  10.794   1.239   5.149  1.6138 -1.5452  4.1100
  941MOL0     H27023  10.578   1.001   5.270 -2.5807 -0.1255 -0.3759
  941MOL0     H27024  10.370   0.895   5.401 -2.3230 -2.7413 -1.2788
  941MOL0     H27025  10.174   0.548   5.300 -1.9203 -0.7716  1.0995
  941MOL0     H27026  10.313   0.452   5.334  0.7516 -1.6240  2.6268
  941MOL0     H27027  10.137   0.362   5.477  1.6918 -0.6153  0.1839
  941MOL0     H27028  10.089   0.527   5.528  0.2313  0.6179 -0.0413
  941MOL0     H27029  10.368   0.447   5.589  0.7466  0.9624  0.8530
  941MOL0     H27030  10.240   0.348   5.675 -1.8116  1.1346  0.4049
  941MOL0     H27031  10.143   0.554   5.760 -0.2377 -0.4569 -1.6264
  941MOL0     H27032  10.277   0.650   5.688 -0.0511  1.4553  0.7458
  941MOL0     H27033  10.451   0.475   6.032  2.6845  2.5465  0.2223
  941MOL0     H27034  10.487   0.513   5.235  6.1172 -1.3689  1.3994
  941MOL0     H27035  10.655   0.609   5.120  0.1357 -1.9082  1.7181
  942MOL0     O27036   4.859   7.107   5.860 -0.3806  0.2772 -0.4042
  942MOL0     C27037   4.790   7.088   5.761  0.1777 -0.2983 -0.2928
  942MOL0     O27038   4.810   7.149   5.636  0.5694  0.2056 -0.4471
  942MOL0     C27039   4.909   7.241   5.636  0.5514  0.1749 -0.0590
  942MOL0     C27040   5.033   7.216   5.568  0.4490 -0.0237 -0.2516
  942MOL0     C27041   5.130   7.310   5.576  0.1877 -1.1850  0.7662
  942MOL0     C27042   5.112   7.426   5.656 -0.2245  0.1805  0.5449
  942MOL0     O27043   5.206   7.527   5.668  0.0029 -0.6015  0.9310
  942MOL0     C27044   5.329   7.519   5.588  0.1357 -0.1160 -0.0561
  942MOL0     C27045   5.452   7.479   5.671  1.2857 -0.1679  0.2957
  942MOL0     C27046   5.502   7.577   5.774  0.1139 -0.9245  0.2771
  942MOL0     C27047   5.479   7.547   5.929  0.3184  0.4350 -1.5084
  942MOL0     C27048   5.534   7.405   5.961  0.4170  0.2639 -0.3611
  942MOL0     C27049   5.513   7.405   6.115  0.3918 -1.0304 -0.0179
  942MOL0     C27050   5.560   7.272   6.177 -0.3421  0.1232  0.5387
  942MOL0     C27051   5.449   7.171   6.156 -0.3179 -0.7677  0.4770
  942MOL0     N27052   5.465   7.071   6.259 -0.3787  0.5265  0.1532
  942MOL0     C27053   5.512   6.941   6.239  0.1899  0.7528 -0.2245
  942MOL0     C27054   5.480   6.877   6.354  0.2825 -0.3332  0.7800
  942MOL0     C27055   5.511   6.733   6.386 -0.1833  0.3180  0.4120
  942MOL0     C27056   5.430   6.635   6.320 -0.3513 -0.3150 -0.4567
  942MOL0     C27057   5.455   6.494   6.379 -0.8162 -0.5547  0.1123
  942MOL0     C27058   5.359   6.393   6.320  0.5264  0.0824  0.6807
  942MOL0     O27059   5.434   6.274   6.334 -0.1533 -0.0976  0.7283
  942MOL0     C27060   5.397   6.148   6.285  0.0994  0.3367 -1.0249
  942MOL0     C27061   5.270   6.123   6.233 -0.7588 -0.4370 -0.0196
  942MOL0     C27062   5.241   5.989   6.194 -0.0812  0.9296 -0.4791
  942MOL0     C27063   5.092   5.959   6.162 -0.0933 -1.0624  0.0644
  942MOL0     C27064   5.331   5.882   6.216 -0.2411  0.6334  0.3040
  942MOL0     C27065   5.312   5.751   6.159 -1.1166  0.6996 -0.7249
  942MOL0     O27066   5.262   5.750   6.033  0.0164  0.3341  0.6350
  942MOL0     C27067   5.223   5.627   5.981  0.4882 -0.7218 -0.5735
  942MOL0     C27068   5.096   5.597   5.988  0.3693  0.3722 -0.4472
  942MOL0     C27069   5.063   5.464   5.950  0.1258  0.2855  0.7178
  942MOL0     C27070   5.153   5.377   5.889  0.2910  0.9339  0.0834
  942MOL0     O27071   5.114   5.244   5.840 -1.0865 -0.1639 -0.5684
  942MOL0     C27072   5.200   5.173   5.744  0.2019 -0.0292 -0.0233
  942MOL0     C27073   5.296   5.074   5.796 -0.2347 -0.1487  0.8517
  942MOL0     C27074   5.260   4.930   5.800 -0.1930  0.7279  0.0363
  942MOL0     C27075   5.371   4.846   5.733 -0.0302  0.8743  0.4052
  942MOL0     C27076   5.319   4.703   5.716 -0.2961  0.8182  0.3379
  942MOL0     C27077   5.421   4.623   5.625 -0.9560 -0.8137 -0.8733
  942MOL0     C27078   5.401   4.470   5.646 -0.5166  1.1257 -0.0615
  942MOL0     C27079   5.488   4.386   5.559 -0.1801 -0.0796  0.0319
  942MOL0    Cl27080   5.463   4.410   5.388 -0.1050 -0.0940 -0.5003
  942MOL0     C27081   5.287   5.420   5.874  0.8357  0.6242 -0.4238
  942MOL0     C27082   5.320   5.546   5.921  0.5531  0.8921 -0.0564
  942MOL0     O27083   5.326   5.650   6.233  0.2965 -0.2380 -0.1766
  942MOL0     C27084   5.451   5.909   6.265  0.0223 -0.0833 -0.1082
  942MOL0     C27085   5.488   6.044   6.293 -1.0028 -0.9055  0.3865
  942MOL0     N27086   5.412   6.965   6.434  0.0615  0.4279 -0.3725
  942MOL0     N27087   5.409   7.085   6.384  0.0710  0.8818  0.4539
  942MOL0     C27088   4.988   7.453   5.717 -0.1131 -0.2142 -0.2772
  942MOL0     C27089   4.884   7.357   5.714 -0.7253 -0.0257  0.1840
  942MOL0     C27090   4.678   6.996   5.779 -0.3725 -0.3839 -0.5705
  942MOL0     C27091   4.682   6.893   5.876  0.7489  0.9375  0.3570
  942MOL0     C27092   4.572   6.800   5.888  0.0839 -0.8238  0.5967
  942MOL0     C27093   4.461   6.809   5.804  0.8349  0.1840  0.3058
  942MOL0     O27094   4.353   6.723   5.815 -0.0765 -1.5295 -0.4748
  942MOL0     C27095   4.283   6.695   5.697  0.7376  0.9398  0.1054
  942MOL0     C27096   4.235   6.549   5.691  0.4075  0.3168 -0.2681
  942MOL0     C27097   4.121   6.517   5.780  0.6943  0.2043 -0.1478
  942MOL0     C27098   4.131   6.389   5.860 -0.0751 -0.3173  0.1690
  942MOL0     C27099   4.013   6.365   5.936  0.0563  0.0631 -0.4301
  942MOL0     C27100   3.920   6.321   6.000 -0.4117 -0.1955  0.3665
  942MOL0     C27101   4.450   6.925   5.715 -0.6294  0.2029 -0.8228
  942MOL0     C27102   4.563   7.016   5.709 -0.1648 -0.5862  0.1522
  942MOL0     H27103   5.058   7.118   5.529  0.9865 -0.7411  1.7857
  942MOL0     H27104   5.221   7.292   5.519  0.9930  1.6747  1.0142
  942MOL0     H27105   5.332   7.459   5.496  0.8655  2.0640 -1.5489
  942MOL0     H27106   5.341   7.623   5.555 -1.9267  0.4110  0.7376
  942MOL0     H27107   5.419   7.393   5.729 -0.4918  0.6125  0.5088
  942MOL0     H27108   5.527   7.440   5.601  2.2642 -0.6088  1.5639
  942MOL0     H27109   5.611   7.573   5.759  0.2218  0.4878  0.5507
  942MOL0     H27110   5.466   7.678   5.755  1.8646  0.6128  4.1065
  942MOL0     H27111   5.534   7.620   5.989  0.3257 -0.5263 -0.2977
  942MOL0     H27112   5.379   7.550   5.974  2.0961  1.4147  3.0037
  942MOL0     H27113   5.475   7.323   5.919 -2.5364  0.1211  3.6087
  942MOL0     H27114   5.635   7.399   5.919  0.7388 -3.6564  0.6414
  942MOL0     H27115   5.562   7.494   6.154  0.6110 -0.8543 -0.6847
  942MOL0     H27116   5.405   7.414   6.134  0.4137 -1.0000  0.0891
  942MOL0     H27117   5.658   7.247   6.135 -0.0056 -0.6047  1.7268
  942MOL0     H27118   5.587   7.291   6.281  1.7143 -2.1549  0.5118
  942MOL0     H27119   5.443   7.130   6.055 -1.4928  2.4090 -0.8724
  942MOL0     H27120   5.354   7.219   6.181  0.2427  0.3570  0.5064
  942MOL0     H27121   5.562   6.892   6.156  1.6281  1.8599 -0.0535
  942MOL0     H27122   5.615   6.727   6.353  0.3895  2.4331  1.6768
  942MOL0     H27123   5.510   6.718   6.495 -3.7170  1.1187  0.6126
  942MOL0     H27124   5.457   6.638   6.214 -2.2173 -1.3812 -1.0009
  942MOL0     H27125   5.322   6.651   6.324 -0.0481  1.9350  0.1566
  942MOL0     H27126   5.454   6.501   6.488  0.9450  2.7672  0.0603
  942MOL0     H27127   5.554   6.460   6.347  0.9559  0.6141  3.7377
  942MOL0     H27128   5.330   6.430   6.222 -0.2514  0.0530  0.8926
  942MOL0     H27129   5.269   6.381   6.382  1.3531 -1.1918  1.6789
  942MOL0     H27130   5.191   6.198   6.233 -1.0528 -0.7396  0.7781
  942MOL0     H27131   5.044   5.869   6.204  0.4408 -0.4583  2.1032
  942MOL0     H27132   5.043   6.047   6.206  4.6506  2.6941 -1.3447
  942MOL0     H27133   5.080   5.945   6.055  0.3168  0.0708 -0.1379
  942MOL0     H27134   5.024   5.664   6.033 -0.0190 -0.3388  0.0067
  942MOL0     H27135   4.967   5.416   5.967  0.1252  1.0180  3.0752
  942MOL0     H27136   5.134   5.120   5.675 -2.6142  1.6752  1.1398
  942MOL0     H27137   5.254   5.249   5.687 -2.3831  1.3894 -0.7534
  942MOL0     H27138   5.385   5.097   5.737 -2.1220  2.1277 -1.3289
  942MOL0     H27139   5.330   5.104   5.896  1.7206  2.6174 -0.5030
  942MOL0     H27140   5.165   4.914   5.748  0.3636  0.5332 -0.9518
  942MOL0     H27141   5.250   4.892   5.902  1.0359 -1.2173 -0.5020
  942MOL0     H27142   5.392   4.887   5.634 -1.4922  0.1394 -0.2378
  942MOL0     H27143   5.457   4.833   5.800 -1.5797 -0.8666  2.1885
  942MOL0     H27144   5.218   4.698   5.674  0.4713  0.9650 -1.6275
  942MOL0     H27145   5.321   4.661   5.817  4.0722  2.9744  1.3708
  942MOL0     H27146   5.405   4.649   5.520  0.2031  0.8789 -0.6742
  942MOL0     H27147   5.519   4.662   5.654 -2.6473  3.3456 -0.0044
  942MOL0     H27148   5.301   4.434   5.622 -0.3854 -0.6042  1.7021
  942MOL0     H27149   5.412   4.443   5.751  2.5306  3.3352  0.3317
  942MOL0     H27150   5.462   4.280   5.563 -2.3826  0.2774 -2.2046
  942MOL0     H27151   5.593   4.389   5.592 -0.0903  3.1051 -0.2747
  942MOL0     H27152   5.357   5.345   5.839  0.1813  0.5885 -1.6996
  942MOL0     H27153   5.424   5.578   5.916  1.9250 -2.6126  1.9512
  942MOL0     H27154   5.538   5.845   6.273 -0.4095 -0.7420 -0.5189
  942MOL0     H27155   5.590   6.067   6.323 -0.7851 -1.3275 -0.0141
  942MOL0     H27156   4.975   7.545   5.773  0.6546 -0.6642  0.6630
  942MOL0     H27157   4.793   7.366   5.772 -1.1515  3.6373 -0.8138
  942MOL0     H27158   4.769   6.864   5.935 -0.5476 -1.0279  1.4131
  942MOL0     H27159   4.582   6.716   5.956  0.8848 -1.1059  0.1348
  942MOL0     H27160   4.205   6.771   5.699 -2.4980 -1.9697  4.7762
  942MOL0     H27161   4.347   6.709   5.609  1.7065 -0.5108  0.5373
  942MOL0     H27162   4.315   6.478   5.717 -1.9376 -4.2163 -4.0160
  942MOL0     H27163   4.205   6.536   5.587  1.7905  3.5951 -1.2285
  942MOL0     H27164   4.039   6.494   5.711 -0.8466  3.1904  0.4913
  942MOL0     H27165   4.098   6.594   5.854  3.0548 -0.5503  1.4721
  942MOL0     H27166   4.223   6.388   5.920 -0.0672 -2.0993  0.1522
  942MOL0     H27167   4.145   6.306   5.791 -0.9729 -0.0812 -0.3048
  942MOL0     H27168   3.833   6.289   6.053  0.1579 -3.9482 -0.7348
  942MOL0     H27169   4.367   6.964   5.657 -0.3123 -0.2115 -1.5676
  942MOL0     H27170   4.561   7.093   5.633  4.4051  2.3754  2.5672
  943MOL0     O27171   1.184   9.500   9.038 -0.6893 -0.2705  0.2948
  943MOL0     C27172   1.138   9.616   9.040 -0.2664  0.1507 -0.4355
  943MOL0     O27173   1.110   9.683   9.149 -0.1462 -0.6315 -0.0055
  943MOL0     C27174   1.130   9.617   9.267 -0.6361 -0.4835  0.5444
  943MOL0     C27175   1.066   9.496   9.296  0.8486 -0.3219  0.8955
  943MOL0     C27176   1.075   9.434   9.418  0.2470  0.7880 -0.0083
  943MOL0     C27177   1.171   9.479   9.511 -0.4711  0.2805  0.6572
  943MOL0     O27178   1.192   9.401   9.619  0.4228  0.6200 -0.2395
  943MOL0     C27179   1.235   9.449   9.747 -0.2287 -0.0502 -0.4383
  943MOL0     C27180   1.173   9.353   9.854  0.4097  0.3962 -0.4646
  943MOL0     C27181   1.030   9.388   9.906  0.2218  0.1994  0.3136
  943MOL0     C27182   0.927   9.387   9.795  0.6825  0.1249  0.3106
  943MOL0     C27183   0.777   9.408   9.831 -0.0652  0.0350  0.0174
  943MOL0     C27184   0.722   9.513   9.741  0.0645 -0.0778 -0.7750
  943MOL0     C27185   0.758   9.653   9.793 -1.1981 -0.6911  0.7409
  943MOL0     C27186   0.649   9.760   9.788 -0.4161 -0.5731 -1.7327
  943MOL0     N27187   0.640   9.851   9.911  0.5397 -0.4443 -0.7975
  943MOL0     C27188   0.699   9.969   9.933  0.0146  0.0182 -0.0872
  943MOL0     C27189   0.655  10.028  10.048  0.2018 -1.4282  0.4877
  943MOL0     C27190   0.710  10.155  10.115 -0.7259 -0.7998 -0.3901
  943MOL0     C27191   0.782  10.258  10.016 -0.2883 -0.1939  0.0938
  943MOL0     C27192   0.676  10.305   9.919  0.7665 -0.3491 -0.8036
  943MOL0     C27193   0.739  10.359   9.797 -0.4501 -1.7057  0.3905
  943MOL0     O27194   0.791  10.247   9.724 -0.1748 -0.9010 -0.0017
  943MOL0     C27195   0.818  10.272   9.595  0.2864 -0.3267  0.2944
  943MOL0     C27196   0.903  10.374   9.547  0.9684 -0.0213 -0.8594
  943MOL0     C27197   0.916  10.399   9.411  1.2478 -0.3683 -0.4653
  943MOL0     C27198   1.012  10.498   9.360 -0.1083 -0.3765 -0.6505
  943MOL0     C27199   0.846  10.318   9.315  0.7130 -0.6588  0.7592
  943MOL0     C27200   0.859  10.335   9.166  0.0313  0.8371  0.6595
  943MOL0     O27201   0.745  10.305   9.102 -0.4743  0.5885  0.2929
  943MOL0     C27202   0.752  10.249   8.977 -0.9624  0.7653  0.3662
  943MOL0     C27203   0.713  10.116   8.967  1.3908  0.2370  0.1211
  943MOL0     C27204   0.714  10.045   8.843  1.2168 -0.3934 -0.3759
  943MOL0     C27205   0.756  10.116   8.734 -0.1992 -0.1129 -0.3777
  943MOL0     O27206   0.744  10.047   8.615 -0.0859 -0.6604 -0.3709
  943MOL0     C27207   0.710  10.113   8.495  0.4232 -0.2537 -0.0340
  943MOL0     C27208   0.551  10.101   8.466  0.9409 -0.0163 -1.0075
  943MOL0     C27209   0.485   9.967   8.498 -0.4125 -0.0501  0.3335
  943MOL0     C27210   0.563   9.843   8.428  0.4757 -0.7416 -1.1160
  943MOL0     C27211   0.555   9.842   8.271  0.4284  0.1184 -0.2899
  943MOL0     C27212   0.403   9.831   8.230  1.0078  1.0492  0.3005
  943MOL0     C27213   0.396   9.743   8.109  0.4114 -0.3769 -0.4634
  943MOL0     C27214   0.255   9.768   8.039  0.3111  1.0045  0.7543
  943MOL0    Cl27215   0.277   9.904   7.923 -0.0443  0.2464 -0.2907
  943MOL0     C27216   0.802  10.241   8.739 -1.0887  0.4817 -0.4644
  943MOL0     C27217   0.795  10.315   8.861 -0.2450 -0.5119  0.5822
  943MOL0     O27218   0.963  10.372   9.103  0.4042  0.3204  0.7756
  943MOL0     C27219   0.760  10.217   9.362  1.2299  0.1219  1.2740
  943MOL0     C27220   0.752  10.195   9.499  0.5319 -0.7910  0.6732
  943MOL0     N27221   0.558   9.940  10.089  0.6389 -0.0223  0.1402
  943MOL0     N27222   0.548   9.840  10.010  0.5246 -0.3986 -0.5577
  943MOL0     C27223   1.244   9.588   9.477 -0.7898  0.3270  0.0171
  943MOL0     C27224   1.230   9.658   9.354 -0.7283 -0.4838 -0.7517
  943MOL0     C27225   1.120   9.674   8.910 -0.5428  0.0623  0.0318
  943MOL0     C27226   1.168   9.597   8.804 -1.2175  0.6921  0.2121
  943MOL0     C27227   1.147   9.632   8.676 -0.1073  0.0516  0.8905
  943MOL0     C27228   1.081   9.751   8.646  0.3089 -0.4254 -0.0916
  943MOL0     O27229   1.078   9.787   8.513  0.2339 -0.6141 -0.1654
  943MOL0     C27230   1.001   9.913   8.482 -0.0816  0.0892 -0.4073
  943MOL0     C27231   1.028   9.961   8.335  0.2843  0.8854 -0.6916
  943MOL0     C27232   0.957   9.868   8.228  0.1162 -0.0901 -0.1561
  943MOL0     C27233   0.948   9.939   8.094 -1.3220 -0.4849  0.2059
  943MOL0     C27234   0.820   9.921   8.027 -1.1321  1.0568  0.5217
  943MOL0     C27235   0.723   9.915   7.954 -0.1759  0.0834  0.3273
  943MOL0     C27236   1.032   9.824   8.752 -0.1380 -0.1014  0.1955
  943MOL0     C27237   1.051   9.787   8.883 -0.0841 -0.4918  0.1582
  943MOL0     H27238   0.989   9.460   9.230  1.4333 -0.7352  0.4291
  943MOL0     H27239   1.006   9.354   9.442 -0.3577  1.2008 -0.3495
  943MOL0     H27240   1.341   9.422   9.738  0.0230 -0.1781  2.1427
  943MOL0     H27241   1.212   9.553   9.771  0.5045 -0.4578  2.3232
  943MOL0     H27242   1.190   9.248   9.827  4.0553  0.5520  0.7759
  943MOL0     H27243   1.243   9.366   9.937  0.5442 -1.3921 -0.2597
  943MOL0     H27244   0.999   9.308   9.975 -0.7373 -2.2401 -2.7287
  943MOL0     H27245   1.021   9.489   9.947  2.1232  0.3973  0.3129
  943MOL0     H27246   0.955   9.471   9.730 -3.7210  0.4121 -1.6174
  943MOL0     H27247   0.942   9.306   9.722 -2.1370  1.3650 -1.8878
  943MOL0     H27248   0.717   9.318   9.820  1.1191 -0.9055  1.0445
  943MOL0     H27249   0.772   9.436   9.936  2.0839 -0.1013  0.1908
  943MOL0     H27250   0.741   9.503   9.634  0.2464 -1.0251 -0.6663
  943MOL0     H27251   0.614   9.495   9.746  0.3830 -3.3111 -2.6703
  943MOL0     H27252   0.801   9.657   9.894 -0.0488 -0.3285  0.2547
  943MOL0     H27253   0.840   9.676   9.724 -2.1471 -1.1510 -0.5777
  943MOL0     H27254   0.556   9.703   9.773 -1.0704  0.4285 -1.5656
  943MOL0     H27255   0.685   9.818   9.703  2.0679 -0.6911 -0.8254
  943MOL0     H27256   0.767  10.011   9.860  0.7843  1.4237  1.3798
  943MOL0     H27257   0.623  10.194  10.169  0.4229  0.9630  0.3114
  943MOL0     H27258   0.775  10.131  10.200 -0.1782  3.6388  0.7193
  943MOL0     H27259   0.864  10.210   9.962  0.0782  1.7386 -1.1639
  943MOL0     H27260   0.827  10.335  10.079 -0.7258 -1.2084  1.7075
  943MOL0     H27261   0.622  10.387   9.967  1.7458  0.1035 -0.4657
  943MOL0     H27262   0.597  10.231   9.897 -0.8428  0.3889  1.9509
  943MOL0     H27263   0.816  10.434   9.817 -1.9028  0.3435 -1.2924
  943MOL0     H27264   0.664  10.413   9.738  2.9650 -0.1878 -3.0393
  943MOL0     H27265   0.949  10.437   9.621 -0.2073 -1.1515  0.9088
  943MOL0     H27266   0.975  10.541   9.267  0.5880  0.1791 -0.6783
  943MOL0     H27267   1.028  10.573   9.439  1.4338 -0.1835 -1.1083
  943MOL0     H27268   1.110  10.455   9.338  1.5294  1.4984  2.2770
  943MOL0     H27269   0.694  10.061   9.059  2.3478 -2.0087 -0.9561
  943MOL0     H27270   0.666   9.948   8.832 -1.1270  0.6414  0.1100
  943MOL0     H27271   0.719  10.222   8.495 -1.8336  0.0130 -1.7277
  943MOL0     H27272   0.768  10.082   8.407  1.3230  2.6392 -0.5878
  943MOL0     H27273   0.492  10.167   8.531  0.6201 -1.6264  0.4025
  943MOL0     H27274   0.523  10.125   8.364 -2.7695 -1.3415 -0.4569
  943MOL0     H27275   0.388   9.984   8.450  0.6936  0.2922 -1.9157
  943MOL0     H27276   0.477   9.939   8.603  0.0056 -1.7061 -0.0427
  943MOL0     H27277   0.669   9.845   8.455  0.2664 -2.3184 -0.0313
  943MOL0     H27278   0.519   9.747   8.456 -3.4818  1.2893  0.4184
  943MOL0     H27279   0.610   9.756   8.233 -3.9725 -3.6671  0.8721
  943MOL0     H27280   0.598   9.929   8.220 -0.7677  0.3267 -1.0032
  943MOL0     H27281   0.335   9.793   8.307  2.3215 -0.2405  0.8657
  943MOL0     H27282   0.377   9.933   8.198 -1.6999  0.0771 -0.8734
  943MOL0     H27283   0.396   9.635   8.127 -0.9272 -0.0365  2.0689
  943MOL0     H27284   0.474   9.769   8.036  1.5633  0.4015  0.9972
  943MOL0     H27285   0.166   9.788   8.099 -0.5747  1.6105 -0.7216
  943MOL0     H27286   0.230   9.683   7.975 -4.8363  4.3427 -2.4422
  943MOL0     H27287   0.850  10.277   8.648  0.3502 -2.0796 -0.7924
  943MOL0     H27288   0.826  10.419   8.860  2.2009 -1.1077 -2.6243
  943MOL0     H27289   0.715  10.149   9.290  2.5019 -1.2552  1.7286
  943MOL0     H27290   0.685  10.118   9.537 -1.9327  0.8831 -0.0426
  943MOL0     H27291   1.316   9.611   9.555 -2.9659 -1.8708  2.8849
  943MOL0     H27292   1.292   9.744   9.330  0.6719 -1.3443 -0.3205
  943MOL0     H27293   1.238   9.515   8.814 -1.7973  0.2700  0.8636
  943MOL0     H27294   1.187   9.578   8.590 -0.3896  0.5876  0.4104
  943MOL0     H27295   0.893   9.894   8.484  0.0584 -1.1638 -2.4232
  943MOL0     H27296   1.032   9.996   8.546  1.8167  1.0197 -2.4314
  943MOL0     H27297   1.134   9.940   8.320 -0.2419 -3.4222  0.2989
  943MOL0     H27298   1.022  10.070   8.327 -1.6515  0.8969  0.1911
  943MOL0     H27299   0.852   9.845   8.246  0.2815 -0.3473  0.4935
  943MOL0     H27300   1.013   9.774   8.229  1.8640  0.8737  2.2064
  943MOL0     H27301   1.038   9.903   8.042 -0.2659 -0.6168  2.0277
  943MOL0     H27302   0.976  10.044   8.103  1.5756 -1.0189 -1.2594
  943MOL0     H27303   0.633   9.919   7.895  0.1119  2.0033 -0.0251
  943MOL0     H27304   0.962   9.905   8.735 -1.3908 -0.8862  1.3642
  943MOL0     H27305   1.014   9.846   8.966  0.6486 -0.9387  0.8137
  944MOL0     O27306   9.639   9.318   0.910  0.5923 -0.3021  0.8019
  944MOL0     C27307   9.610   9.216   0.843 -0.9752 -0.0262 -0.4322
  944MOL0     O27308   9.556   9.215   0.715 -0.1220  0.4998 -0.4347
  944MOL0     C27309   9.562   9.323   0.632  0.4757 -0.2473 -0.3192
  944MOL0     C27310   9.671   9.403   0.629  1.1983  1.0387  0.1290
  944MOL0     C27311   9.696   9.492   0.525 -0.2433  0.1583 -0.1709
  944MOL0     C27312   9.599   9.521   0.434 -0.1686 -0.7285 -0.1584
  944MOL0     O27313   9.624   9.620   0.337 -0.8349  0.2834 -0.0380
  944MOL0     C27314   9.525   9.640   0.230 -0.9980  0.0444  0.6572
  944MOL0     C27315   9.584   9.686   0.096  0.5380 -1.0070 -0.5164
  944MOL0     C27316   9.655   9.579   0.017  0.4261 -0.1624  0.2236
  944MOL0     C27317   9.709   9.629  -0.119  0.4423 -0.5397 -0.5631
  944MOL0     C27318   9.614   9.617  -0.242 -0.2683  0.3483 -0.0195
  944MOL0     C27319   9.667   9.660  -0.379 -0.2535 -0.0128  0.2266
  944MOL0     C27320   9.764   9.572  -0.444 -0.0546  0.4537 -0.3507
  944MOL0     C27321   9.687   9.469  -0.523 -0.7449  0.3491  0.0215
  944MOL0     N27322   9.770   9.391  -0.613 -0.5221 -1.1012  0.0911
  944MOL0     C27323   9.863   9.294  -0.577 -0.3114 -0.2388 -0.0715
  944MOL0     C27324   9.915   9.248  -0.692 -0.7293 -0.0516  0.3254
  944MOL0     C27325  10.013   9.146  -0.723  1.0176  0.2389  0.7971
  944MOL0     C27326   9.971   9.002  -0.728 -0.2158  1.0118  0.6821
  944MOL0     C27327   9.960   8.932  -0.589  0.2588 -0.7101 -0.9564
  944MOL0     C27328   9.899   8.791  -0.618 -0.1675  0.6859  0.3628
  944MOL0     O27329   9.884   8.712  -0.501  0.7394  0.2875 -1.2191
  944MOL0     C27330   9.985   8.689  -0.410 -1.5165  0.0254  0.4240
  944MOL0     C27331  10.120   8.700  -0.440 -0.5191 -0.5028  0.5271
  944MOL0     C27332  10.221   8.682  -0.349  0.5087  0.1252  0.2356
  944MOL0     C27333  10.359   8.706  -0.391 -0.2195 -0.0477  0.7663
  944MOL0     C27334  10.180   8.647  -0.216  1.2047  0.6894  0.5812
  944MOL0     C27335  10.280   8.628  -0.112 -0.2201 -0.2281 -0.2370
  944MOL0     O27336  10.291   8.737  -0.031 -1.1921  0.1190 -0.6106
  944MOL0     C27337  10.388   8.732   0.063 -0.7490  0.1175  0.9684
  944MOL0     C27338  10.424   8.620   0.134 -0.1822  0.4922 -1.0969
  944MOL0     C27339  10.523   8.636   0.228  0.1289  0.3545 -0.2036
  944MOL0     C27340  10.607   8.747   0.243 -0.2002 -0.2645 -0.2166
  944MOL0     O27341  10.724   8.739   0.320 -0.5583 -0.4807  1.0941
  944MOL0     C27342  10.708   8.697   0.457 -0.1305  0.1093 -0.3142
  944MOL0     C27343  10.666   8.811   0.552 -0.0518  0.9436  0.8175
  944MOL0     C27344  10.749   8.938   0.557 -0.4126 -0.5610  0.1240
  944MOL0     C27345  10.881   8.918   0.625  0.4522 -0.4908 -0.8681
  944MOL0     C27346  10.962   9.048   0.631  0.1886 -0.7611  1.1610
  944MOL0     C27347  11.047   9.079   0.506  0.4608  0.6783 -0.2733
  944MOL0     C27348  11.126   9.205   0.518  0.2518 -0.6526 -1.0944
  944MOL0     C27349  11.230   9.213   0.628  0.2848  0.6786 -0.7109
  944MOL0    Cl27350  11.385   9.141   0.575  0.3283 -0.3480  0.0455
  944MOL0     C27351  10.565   8.867   0.176 -0.3532 -0.3108  0.8343
  944MOL0     C27352  10.459   8.857   0.087  0.2425  0.1559  1.2805
  944MOL0     O27353  10.352   8.529  -0.121 -0.4097 -0.1137  0.0588
  944MOL0     C27354  10.046   8.619  -0.188 -0.2603 -0.0640 -0.8648
  944MOL0     C27355   9.948   8.645  -0.286  0.5793  0.7515 -0.7459
  944MOL0     N27356   9.854   9.314  -0.796 -0.1578 -0.6404 -0.4924
  944MOL0     N27357   9.779   9.405  -0.744  0.1890 -0.7302  0.1609
  944MOL0     C27358   9.471   9.460   0.451  0.4301  0.5377  0.8143
  944MOL0     C27359   9.454   9.363   0.549 -0.0733  0.0218 -0.9388
  944MOL0     C27360   9.621   9.096   0.925  0.6741 -0.6409  0.0815
  944MOL0     C27361   9.633   9.115   1.063  0.0440 -0.3523 -0.1461
  944MOL0     C27362   9.635   9.002   1.137  0.6233  0.4605  0.1103
  944MOL0     C27363   9.615   8.870   1.095  0.1363  0.5593  0.7017
  944MOL0     O27364   9.594   8.767   1.186  0.7818  0.6437  0.5282
  944MOL0     C27365   9.534   8.637   1.148  0.1698  0.1613  0.6229
  944MOL0     C27366   9.546   8.530   1.254 -0.8583 -0.5630  0.5045
  944MOL0     C27367   9.526   8.574   1.400 -0.4450 -0.3470  0.3647
  944MOL0     C27368   9.543   8.465   1.504 -0.3627  0.5729 -0.1760
  944MOL0     C27369   9.459   8.344   1.495  0.6449  0.1789 -0.9786
  944MOL0     C27370   9.394   8.250   1.500  1.1635 -0.4609 -0.4917
  944MOL0     C27371   9.593   8.855   0.954 -0.3709  0.2436  0.3319
  944MOL0     C27372   9.606   8.967   0.874  0.8970 -0.2038  0.5888
  944MOL0     H27373   9.742   9.377   0.707 -0.1994 -0.8121  0.8573
  944MOL0     H27374   9.785   9.554   0.528 -0.1205 -0.0485  2.0137
  944MOL0     H27375   9.468   9.548   0.211 -0.5807 -0.2981  1.0533
  944MOL0     H27376   9.452   9.716   0.260 -1.0804  0.4248 -0.4489
  944MOL0     H27377   9.496   9.713   0.037  0.6533 -1.6349 -0.9809
  944MOL0     H27378   9.651   9.771   0.115  2.2980 -3.0386  3.8680
  944MOL0     H27379   9.749   9.540   0.057  0.3850  1.5255  2.1126
  944MOL0     H27380   9.591   9.490   0.013  2.4389 -1.7834  1.8552
  944MOL0     H27381   9.725   9.737  -0.113 -4.3755  0.4029  0.1027
  944MOL0     H27382   9.807   9.589  -0.147  0.0558 -1.8407 -0.1263
  944MOL0     H27383   9.585   9.513  -0.256  1.8906 -0.5202  1.4861
  944MOL0     H27384   9.532   9.685  -0.216  0.6341  1.6608 -0.4996
  944MOL0     H27385   9.581   9.688  -0.441 -2.5249 -2.8524  1.8458
  944MOL0     H27386   9.718   9.755  -0.360 -1.5496  0.3379  2.3287
  944MOL0     H27387   9.826   9.638  -0.505  0.0158 -0.2265 -1.0247
  944MOL0     H27388   9.822   9.519  -0.368  2.6877  2.2428 -1.0771
  944MOL0     H27389   9.619   9.528  -0.585  4.6540  3.4611 -3.7896
  944MOL0     H27390   9.639   9.395  -0.459  0.6474  0.3690  1.1461
  944MOL0     H27391   9.884   9.269  -0.474 -3.5930 -0.1044  0.7398
  944MOL0     H27392  10.045   9.184  -0.821 -1.9921  1.3905  0.1630
  944MOL0     H27393  10.099   9.144  -0.655  3.0709  0.2971 -1.6564
  944MOL0     H27394  10.034   8.936  -0.789  0.5021 -0.6408  3.0744
  944MOL0     H27395   9.873   9.005  -0.775 -1.0000 -0.4241  2.1456
  944MOL0     H27396   9.882   8.986  -0.533  2.4375  3.3013 -1.4117
  944MOL0     H27397  10.054   8.935  -0.533  0.5689 -0.9602 -1.4646
  944MOL0     H27398   9.970   8.735  -0.680 -0.6878  1.6424 -1.1684
  944MOL0     H27399   9.800   8.793  -0.665 -0.2208 -0.8328  0.3827
  944MOL0     H27400  10.152   8.725  -0.541  0.9488 -1.7881  0.6431
  944MOL0     H27401  10.378   8.676  -0.494 -0.9401  1.0354  0.2965
  944MOL0     H27402  10.386   8.812  -0.390  1.0796 -0.3670  0.3960
  944MOL0     H27403  10.436   8.664  -0.326 -0.7618  1.5145  2.5139
  944MOL0     H27404  10.374   8.524   0.127  0.8224  0.0579 -2.7763
  944MOL0     H27405  10.534   8.544   0.285  1.6471 -1.3990 -3.0546
  944MOL0     H27406  10.630   8.620   0.466 -1.7468  1.6256 -0.8115
  944MOL0     H27407  10.802   8.647   0.480 -0.3301 -0.0829  0.1053
  944MOL0     H27408  10.564   8.845   0.531 -1.0974 -1.3749  1.8826
  944MOL0     H27409  10.660   8.773   0.654  3.1277  3.2120  2.0068
  944MOL0     H27410  10.705   9.027   0.603  1.1679  1.8364 -2.6681
  944MOL0     H27411  10.767   8.984   0.459 -3.5128  0.6099 -0.0348
  944MOL0     H27412  10.864   8.893   0.730 -0.7017  1.8324 -0.4484
  944MOL0     H27413  10.945   8.846   0.572  1.9129  0.7382 -0.8370
  944MOL0     H27414  11.024   9.031   0.720  2.0454  2.1021  0.5446
  944MOL0     H27415  10.904   9.139   0.650  1.6240 -0.3463  4.2117
  944MOL0     H27416  11.122   9.001   0.492 -0.9004 -0.2737 -2.7335
  944MOL0     H27417  10.984   9.079   0.417  0.8063 -2.2099 -0.5953
  944MOL0     H27418  11.050   9.280   0.545 -0.7825 -2.4216  1.1932
  944MOL0     H27419  11.165   9.226   0.418  0.5432 -2.1283 -1.3124
  944MOL0     H27420  11.193   9.163   0.718  3.8891  0.3477  0.7485
  944MOL0     H27421  11.237   9.317   0.661 -0.6445  0.3534  0.6110
  944MOL0     H27422  10.610   8.965   0.190  0.3490 -0.5934  0.5980
  944MOL0     H27423  10.421   8.938   0.025 -4.9098 -1.3420  1.9827
  944MOL0     H27424  10.026   8.575  -0.091 -0.0188  2.0821  0.2173
  944MOL0     H27425   9.843   8.629  -0.263  0.9848  2.2328  2.5862
  944MOL0     H27426   9.384   9.476   0.387  0.3422 -1.0781  0.4994
  944MOL0     H27427   9.362   9.307   0.560 -1.7132  2.9039  2.3490
  944MOL0     H27428   9.644   9.212   1.112  3.9989 -1.3173  1.2311
  944MOL0     H27429   9.637   9.020   1.244 -0.7614 -1.8671  0.6043
  944MOL0     H27430   9.426   8.657   1.145 -0.1401 -1.1031  2.1531
  944MOL0     H27431   9.557   8.599   1.048  2.3152  2.0860  0.2998
  944MOL0     H27432   9.652   8.504   1.247 -0.6983 -1.1656  3.5672
  944MOL0     H27433   9.483   8.446   1.223 -0.6948 -0.8809  1.0163
  944MOL0     H27434   9.424   8.612   1.412 -1.0162 -2.4026  2.9145
  944MOL0     H27435   9.593   8.657   1.423 -0.4721 -0.6715  1.6705
  944MOL0     H27436   9.536   8.520   1.598  2.1684 -1.4198  1.3092
  944MOL0     H27437   9.649   8.437   1.499  0.5400  2.3616  4.0741
  944MOL0     H27438   9.346   8.154   1.487  1.3568 -1.1054  2.7253
  944MOL0     H27439   9.573   8.767   0.894  1.8306 -0.8946  1.1515
  944MOL0     H27440   9.581   8.944   0.771  0.1304  0.7343  0.5517
  945MOL0     O27441   5.787   1.718   5.851  0.8192 -0.7630  0.2098
  945MOL0     C27442   5.725   1.744   5.956 -0.9005 -0.1240  0.1327
  945MOL0     O27443   5.599   1.782   5.970 -0.0646 -0.1060  0.8916
  945MOL0     C27444   5.522   1.765   5.851  0.2802 -0.7089  0.0208
  945MOL0     C27445   5.462   1.641   5.832  0.5005  0.1556 -1.3238
  945MOL0     C27446   5.378   1.609   5.731  1.2306  0.7436  0.5446
  945MOL0     C27447   5.348   1.709   5.640 -0.2227  0.1344  0.1612
  945MOL0     O27448   5.267   1.681   5.528  0.2862  0.4501  0.3014
  945MOL0     C27449   5.141   1.626   5.562  0.1710 -0.0630 -0.3838
  945MOL0     C27450   5.037   1.635   5.445 -0.4307  0.1621 -0.1905
  945MOL0     C27451   5.031   1.772   5.380  0.3243  0.3316  0.3322
  945MOL0     C27452   4.929   1.793   5.274 -0.0487  0.2812  0.1266
  945MOL0     C27453   4.787   1.802   5.344 -0.6467  0.1125  0.7021
  945MOL0     C27454   4.681   1.855   5.256 -0.2857  0.2080 -0.2387
  945MOL0     C27455   4.537   1.840   5.321 -0.4496  0.5357 -0.5529
  945MOL0     C27456   4.441   1.816   5.210 -0.1432 -0.6435  0.4314
  945MOL0     N27457   4.422   1.935   5.126 -0.5583  0.3496  0.5849
  945MOL0     C27458   4.325   2.036   5.156 -0.5749 -0.0318 -0.2165
  945MOL0     C27459   4.345   2.121   5.054  0.5913  0.4007 -0.2743
  945MOL0     C27460   4.258   2.243   5.048  0.2443  0.0478  0.5464
  945MOL0     C27461   4.117   2.232   4.977 -0.3615  0.1246 -0.1465
  945MOL0     C27462   4.029   2.117   5.034  0.2275 -0.2524 -0.4288
  945MOL0     C27463   3.956   2.158   5.167 -0.3763 -0.1617 -0.1837
  945MOL0     O27464   4.042   2.163   5.274 -0.3774 -0.2757  1.0637
  945MOL0     C27465   4.010   2.248   5.374  0.1122 -0.5845 -0.7706
  945MOL0     C27466   4.114   2.288   5.455 -1.4330 -0.7851  0.3514
  945MOL0     C27467   4.093   2.381   5.561  0.5980 -0.6476 -0.9733
  945MOL0     C27468   4.222   2.408   5.645 -1.2141 -0.7907  0.9225
  945MOL0     C27469   3.972   2.440   5.581  0.1239  0.1955 -0.5631
  945MOL0     C27470   3.952   2.548   5.689 -0.6060 -0.5368 -0.4622
  945MOL0     O27471   4.058   2.599   5.755  0.1571 -0.0606 -0.1749
  945MOL0     C27472   4.033   2.695   5.844  0.9088 -0.4070  0.4911
  945MOL0     C27473   4.032   2.680   5.983 -0.3430 -0.2926  0.4832
  945MOL0     C27474   3.996   2.784   6.071 -0.1803  0.1634  0.1106
  945MOL0     C27475   3.975   2.916   6.026 -0.6993 -0.4368 -0.0083
  945MOL0     O27476   3.938   3.026   6.110  0.7556  0.0215  0.3717
  945MOL0     C27477   3.850   3.137   6.056 -0.3009  1.6362 -0.2386
  945MOL0     C27478   3.724   3.142   6.142  0.3785 -0.3399 -0.2576
  945MOL0     C27479   3.671   3.284   6.157  0.5866 -0.2436  0.7856
  945MOL0     C27480   3.589   3.312   6.283  0.1601 -0.1071 -0.0703
  945MOL0     C27481   3.566   3.460   6.301 -0.5643  0.9850 -0.5719
  945MOL0     C27482   3.496   3.494   6.429  0.0100  0.2918  0.3892
  945MOL0     C27483   3.481   3.644   6.428  0.6867  0.4105 -0.5440
  945MOL0     C27484   3.425   3.692   6.565 -0.2084 -0.3923  0.0167
  945MOL0    Cl27485   3.415   3.869   6.567  0.8098 -0.4155  0.4187
  945MOL0     C27486   4.000   2.933   5.885 -0.0177 -0.5987 -0.6192
  945MOL0     C27487   4.025   2.827   5.800 -0.8594  0.1216 -0.7247
  945MOL0     O27488   3.831   2.547   5.726 -0.4305  0.0900  0.0848
  945MOL0     C27489   3.866   2.392   5.505 -0.1889  0.3753  0.0856
  945MOL0     C27490   3.878   2.288   5.410  0.7906  0.1919 -0.8584
  945MOL0     N27491   4.439   2.077   4.969 -0.3458 -1.0145  0.6653
  945MOL0     N27492   4.493   1.963   5.012 -0.2745 -0.3020 -0.0451
  945MOL0     C27493   5.394   1.838   5.655  0.3386 -0.3510 -0.3285
  945MOL0     C27494   5.490   1.870   5.756  0.3652  0.6338 -0.3261
  945MOL0     C27495   5.810   1.735   6.079  0.8599  0.4371 -0.6985
  945MOL0     C27496   5.948   1.700   6.097 -0.5072  0.5873 -1.1116
  945MOL0     C27497   6.018   1.688   6.221  0.3179  0.1346  0.9653
  945MOL0     C27498   5.953   1.720   6.339  0.5610 -0.5671 -0.3474
  945MOL0     O27499   6.004   1.729   6.469 -0.6807 -0.8653  0.6652
  945MOL0     C27500   6.133   1.766   6.482 -0.5987 -0.4943  0.0800
  945MOL0     C27501   6.169   1.795   6.622  0.3851 -0.4569  0.0696
  945MOL0     C27502   6.102   1.927   6.663  0.2097  0.0002 -0.3147
  945MOL0     C27503   6.110   1.953   6.817  0.4842 -0.3865 -0.1257
  945MOL0     C27504   6.119   2.092   6.875  0.6776  1.1692  0.2018
  945MOL0     C27505   6.127   2.205   6.907 -0.0935  0.0337 -1.0473
  945MOL0     C27506   5.816   1.746   6.334  0.9967 -0.5017  0.8782
  945MOL0     C27507   5.745   1.751   6.207 -0.0066 -0.5862  0.4341
  945MOL0     H27508   5.463   1.567   5.911  1.4935  1.1414 -0.3747
  945MOL0     H27509   5.330   1.511   5.736 -2.5971  2.5185  2.3163
  945MOL0     H27510   5.147   1.524   5.599 -2.0371 -0.3616 -0.6863
  945MOL0     H27511   5.091   1.683   5.641 -0.3844 -1.6067  0.4101
  945MOL0     H27512   5.071   1.561   5.371  2.8802  1.5120 -0.1825
  945MOL0     H27513   4.936   1.625   5.485 -0.6239  0.1754 -0.6778
  945MOL0     H27514   5.014   1.846   5.458 -1.5545 -0.1481  0.4308
  945MOL0     H27515   5.117   1.794   5.317 -1.1062  0.4779 -1.6856
  945MOL0     H27516   4.951   1.883   5.215 -0.2094 -0.8132 -1.6722
  945MOL0     H27517   4.923   1.705   5.210 -0.0483  1.4080 -1.4938
  945MOL0     H27518   4.768   1.700   5.378 -0.5922 -0.2475 -0.2900
  945MOL0     H27519   4.798   1.866   5.432  3.3685  0.9453 -0.2066
  945MOL0     H27520   4.695   1.963   5.247 -0.1759  0.2274  0.1797
  945MOL0     H27521   4.698   1.826   5.151 -1.0949 -3.5378  0.5129
  945MOL0     H27522   4.539   1.762   5.398  2.7694  2.6400  1.7407
  945MOL0     H27523   4.508   1.927   5.381 -0.2742 -0.5468  1.1786
  945MOL0     H27524   4.342   1.775   5.229  0.4688 -2.1650  0.4489
  945MOL0     H27525   4.489   1.738   5.151  2.2286  1.5303 -0.7444
  945MOL0     H27526   4.244   2.042   5.228 -0.1330  0.8337  0.2171
  945MOL0     H27527   4.246   2.281   5.150 -0.7521  1.0474  0.0866
  945MOL0     H27528   4.317   2.318   4.994 -2.8156  1.1895 -1.4585
  945MOL0     H27529   4.128   2.227   4.868  2.4831  2.8712 -0.1289
  945MOL0     H27530   4.067   2.327   5.001  0.9990  0.8067  0.0536
  945MOL0     H27531   4.094   2.029   5.041  1.0428  0.1364 -2.5471
  945MOL0     H27532   3.958   2.097   4.953 -0.3079  2.5672 -0.7361
  945MOL0     H27533   3.880   2.081   5.186 -0.4242  0.0942  0.7176
  945MOL0     H27534   3.906   2.254   5.149  0.0944  0.4264  1.4669
  945MOL0     H27535   4.210   2.253   5.419 -1.4964  0.2929 -0.9246
  945MOL0     H27536   4.303   2.361   5.588 -0.4477 -1.4508  2.4983
  945MOL0     H27537   4.258   2.511   5.642  3.7653 -2.3006 -1.4931
  945MOL0     H27538   4.198   2.374   5.746 -0.0964 -0.8190  1.1837
  945MOL0     H27539   4.063   2.587   6.029 -2.0064 -0.6532  0.9152
  945MOL0     H27540   3.973   2.767   6.176 -1.1488 -0.1743 -0.1468
  945MOL0     H27541   3.906   3.231   6.063 -4.0850  4.2983 -1.8853
  945MOL0     H27542   3.812   3.118   5.955 -0.3941  2.0077 -0.2740
  945MOL0     H27543   3.646   3.088   6.087  0.3660 -0.2447 -0.3331
  945MOL0     H27544   3.742   3.089   6.236 -0.2550  0.6162  0.4277
  945MOL0     H27545   3.620   3.308   6.063  1.3880 -2.1429 -0.1835
  945MOL0     H27546   3.758   3.349   6.175  0.3918  0.0346  0.7259
  945MOL0     H27547   3.489   3.271   6.297  0.0800  0.2066  0.2961
  945MOL0     H27548   3.648   3.262   6.360 -1.0150  0.1729  1.0416
  945MOL0     H27549   3.503   3.490   6.216 -0.2426 -2.3126 -2.1413
  945MOL0     H27550   3.666   3.503   6.285  0.7570 -2.4822 -2.8904
  945MOL0     H27551   3.399   3.445   6.411 -0.7645  2.0291 -0.4438
  945MOL0     H27552   3.551   3.457   6.516 -0.7370 -1.3867  0.1928
  945MOL0     H27553   3.406   3.671   6.353 -0.6814  0.0251  0.6295
  945MOL0     H27554   3.577   3.692   6.408  1.5946 -1.1651 -0.1403
  945MOL0     H27555   3.498   3.660   6.640 -0.9914 -1.0154  0.5352
  945MOL0     H27556   3.323   3.659   6.586 -1.1990  1.4594 -1.5561
  945MOL0     H27557   3.995   3.036   5.850  2.5557  0.6642  2.2177
  945MOL0     H27558   4.023   2.831   5.692  2.7068  3.6377 -0.8887
  945MOL0     H27559   3.769   2.435   5.526  0.9561  2.4591  1.4955
  945MOL0     H27560   3.786   2.263   5.359  0.3883 -0.7227  0.2742
  945MOL0     H27561   5.372   1.920   5.587 -0.9477 -1.0670 -0.7906
  945MOL0     H27562   5.516   1.974   5.768  0.6302  0.7978 -2.0461
  945MOL0     H27563   6.000   1.671   6.006 -1.0630 -1.8367 -0.7013
  945MOL0     H27564   6.125   1.675   6.213  0.1598 -0.1194 -1.2431
  945MOL0     H27565   6.195   1.681   6.453  2.8244  2.1190 -0.8233
  945MOL0     H27566   6.156   1.856   6.424  1.1980 -1.4372 -0.7326
  945MOL0     H27567   6.277   1.787   6.637  0.3411 -1.0681  0.0928
  945MOL0     H27568   6.123   1.714   6.679 -2.3095  0.5880 -0.4499
  945MOL0     H27569   5.997   1.912   6.634 -0.1486 -4.0339  2.2675
  945MOL0     H27570   6.146   2.011   6.608  1.1970 -0.4855 -0.2689
  945MOL0     H27571   6.189   1.898   6.869 -0.9493  0.3207  3.0730
  945MOL0     H27572   6.021   1.904   6.858 -0.4645  3.0711  2.3907
  945MOL0     H27573   6.147   2.309   6.924 -2.2151  0.5264 -1.2554
  945MOL0     H27574   5.773   1.767   6.431  0.5352  0.4496  0.4784
  945MOL0     H27575   5.638   1.769   6.202  0.0092 -0.6679 -0.3035
  946MOL0     O27576   8.863   8.490   1.014 -0.2052  0.2011  0.0244
  946MOL0     C27577   8.817   8.546   0.920  0.9923  0.2548  0.2124
  946MOL0     O27578   8.716   8.485   0.844 -0.6335 -0.6382  0.4475
  946MOL0     C27579   8.655   8.371   0.878 -0.1744 -0.3418  0.9396
  946MOL0     C27580   8.665   8.248   0.803 -0.8161  0.1408 -0.1239
  946MOL0     C27581   8.587   8.135   0.843 -0.3913  0.4759 -0.6084
  946MOL0     C27582   8.501   8.145   0.948  0.2986 -0.3838 -0.5275
  946MOL0     O27583   8.432   8.033   0.981  0.5716  0.4642  0.7200
  946MOL0     C27584   8.400   7.991   1.118  0.7852  0.5773 -0.6206
  946MOL0     C27585   8.421   7.838   1.115 -0.3789 -0.1375 -0.0194
  946MOL0     C27586   8.354   7.763   1.234 -0.6073 -0.0436 -0.3795
  946MOL0     C27587   8.433   7.763   1.355  0.1752  0.8412 -0.0422
  946MOL0     C27588   8.568   7.691   1.353 -0.9189 -0.8534 -0.1583
  946MOL0     C27589   8.578   7.540   1.397  0.3863 -0.0779  0.4005
  946MOL0     C27590   8.544   7.445   1.281  0.3955  0.0505 -0.2914
  946MOL0     C27591   8.656   7.443   1.172 -0.4318  0.8112  0.2157
  946MOL0     N27592   8.636   7.339   1.062 -0.3320 -0.9313 -0.0139
  946MOL0     C27593   8.517   7.273   1.020  0.0336 -0.3445  0.3156
  946MOL0     C27594   8.559   7.157   0.964 -0.0884 -0.5700 -0.1975
  946MOL0     C27595   8.456   7.062   0.914 -0.0590  0.0484  0.8580
  946MOL0     C27596   8.436   7.081   0.765  0.5156  0.0808 -0.5347
  946MOL0     C27597   8.337   6.976   0.706 -0.1152 -0.0989 -0.9880
  946MOL0     C27598   8.299   7.019   0.568  0.3120 -0.6397  0.4868
  946MOL0     O27599   8.411   7.052   0.488 -0.9572  0.5889  0.4741
  946MOL0     C27600   8.382   7.060   0.356 -0.5156 -0.8783 -0.1205
  946MOL0     C27601   8.501   7.059   0.287 -0.3575 -0.4067 -0.6307
  946MOL0     C27602   8.508   7.075   0.153  0.3736  0.2222 -0.2814
  946MOL0     C27603   8.645   7.066   0.099  0.2156  0.3157  0.5572
  946MOL0     C27604   8.391   7.080   0.068  0.3676  0.2892 -0.0194
  946MOL0     C27605   8.380   7.095  -0.080  0.1249  0.1468  0.2170
  946MOL0     O27606   8.259   7.086  -0.133 -0.3607  0.6753 -0.0767
  946MOL0     C27607   8.252   7.067  -0.269  0.6910  0.4656  1.3412
  946MOL0     C27608   8.134   7.126  -0.332 -0.2480  0.2158  0.3196
  946MOL0     C27609   8.127   7.104  -0.470  0.2774 -0.0854  0.5118
  946MOL0     C27610   8.217   7.031  -0.540  0.9597 -0.4941 -0.1211
  946MOL0     O27611   8.187   7.031  -0.674  0.5957  0.1017  0.7132
  946MOL0     C27612   8.274   6.970  -0.756 -0.6497  0.6559 -0.2505
  946MOL0     C27613   8.238   6.982  -0.904 -0.5620  0.9997  0.6751
  946MOL0     C27614   8.094   6.933  -0.935 -0.3284 -1.2017 -0.5469
  946MOL0     C27615   8.062   6.915  -1.085 -0.4645 -0.8470  0.5835
  946MOL0     C27616   7.913   6.887  -1.115  0.4739  0.1985  0.1370
  946MOL0     C27617   7.895   6.887  -1.266 -0.1939  0.3045  0.5840
  946MOL0     C27618   7.750   6.857  -1.299  0.2800 -0.4593 -0.4418
  946MOL0     C27619   7.719   6.709  -1.299 -0.5453  0.1959 -0.6303
  946MOL0    Cl27620   7.557   6.689  -1.376 -0.4768  0.4096 -0.0492
  946MOL0     C27621   8.322   6.963  -0.483  0.4685 -1.5710 -0.3487
  946MOL0     C27622   8.340   6.982  -0.341  0.0948  0.4996  0.3782
  946MOL0     O27623   8.487   7.108  -0.133  0.4437 -0.1297  0.0136
  946MOL0     C27624   8.271   7.079   0.146  0.4354 -0.2331  0.2946
  946MOL0     C27625   8.263   7.063   0.281 -0.0291  0.0446  0.0652
  946MOL0     N27626   8.698   7.167   0.947  0.5129 -0.5948  0.1813
  946MOL0     N27627   8.746   7.272   0.999 -0.7450  0.1668 -0.6782
  946MOL0     C27628   8.486   8.276   1.022  0.6537  0.9439  1.1574
  946MOL0     C27629   8.566   8.384   0.983 -0.7267 -0.8379  0.3574
  946MOL0     C27630   8.839   8.690   0.875 -0.7994 -0.9210  0.3912
  946MOL0     C27631   8.894   8.785   0.956  0.0312  0.0691  1.0115
  946MOL0     C27632   8.944   8.906   0.907 -0.0320 -0.0986 -0.3157
  946MOL0     C27633   8.908   8.946   0.782 -0.0432 -0.0907 -0.8771
  946MOL0     O27634   8.930   9.072   0.732 -0.3737  0.2718 -0.2824
  946MOL0     C27635   9.012   9.174   0.789 -0.1083  0.1953  0.2241
  946MOL0     C27636   8.991   9.299   0.702 -0.0739  0.1236  0.1115
  946MOL0     C27637   9.107   9.401   0.716 -0.6752 -1.2388  0.5829
  946MOL0     C27638   9.070   9.529   0.641  0.1424 -0.4870  0.0016
  946MOL0     C27639   9.174   9.634   0.668  0.0310  0.3729  0.0126
  946MOL0     C27640   9.279   9.700   0.687  0.2396  0.6448  0.0724
  946MOL0     C27641   8.839   8.857   0.699  0.4511 -1.1580  0.4859
  946MOL0     C27642   8.790   8.732   0.748 -0.3694  0.3644 -0.0982
  946MOL0     H27643   8.742   8.234   0.728  1.3655 -0.0025  1.9783
  946MOL0     H27644   8.610   8.036   0.805  1.3942  0.2662  0.9051
  946MOL0     H27645   8.467   8.034   1.193 -1.9749  0.2226  2.2855
  946MOL0     H27646   8.298   8.016   1.148  1.2015  2.2799 -0.5417
  946MOL0     H27647   8.371   7.814   1.021  0.4965  1.2720 -0.8827
  946MOL0     H27648   8.529   7.826   1.102 -0.2463  0.6097  0.3565
  946MOL0     H27649   8.252   7.792   1.260 -0.6268 -0.1729 -0.3134
  946MOL0     H27650   8.349   7.659   1.203  0.8723  0.7039 -3.5114
  946MOL0     H27651   8.450   7.867   1.385 -0.2400  1.2941 -1.3297
  946MOL0     H27652   8.367   7.726   1.435  2.4147  1.6410  2.3302
  946MOL0     H27653   8.624   7.714   1.262 -0.4910 -2.3958 -0.3073
  946MOL0     H27654   8.626   7.745   1.428 -1.4460 -1.4200  0.6868
  946MOL0     H27655   8.681   7.518   1.426  0.4683  0.5832  0.6116
  946MOL0     H27656   8.521   7.527   1.490  2.8522 -1.4836  1.8250
  946MOL0     H27657   8.509   7.348   1.319 -1.4054  0.6442 -0.3536
  946MOL0     H27658   8.451   7.474   1.231  1.0906  1.4153 -0.8402
  946MOL0     H27659   8.751   7.423   1.222 -1.1668  0.3851  1.4771
  946MOL0     H27660   8.656   7.544   1.131 -0.6130  0.6054 -0.3049
  946MOL0     H27661   8.414   7.304   1.036 -0.1439 -1.6484  1.9739
  946MOL0     H27662   8.503   6.968   0.944 -0.5814  0.0167  1.5812
  946MOL0     H27663   8.365   7.082   0.970  0.6555  0.8925  1.7435
  946MOL0     H27664   8.530   7.075   0.710 -0.8574  0.3666 -3.0348
  946MOL0     H27665   8.400   7.183   0.745  2.2507  1.1810  1.4816
  946MOL0     H27666   8.257   6.953   0.777 -0.3413 -0.5220 -1.3719
  946MOL0     H27667   8.408   6.893   0.709  2.1154  1.5334 -3.8166
  946MOL0     H27668   8.235   7.108   0.564  1.8274  0.4414 -2.9445
  946MOL0     H27669   8.237   6.938   0.529  1.1749  0.1325 -2.7861
  946MOL0     H27670   8.588   7.045   0.351 -2.7446 -4.0169  2.2060
  946MOL0     H27671   8.709   7.036   0.183 -0.0107 -2.9826 -0.3226
  946MOL0     H27672   8.654   6.979   0.033  2.1315 -0.3640  1.6181
  946MOL0     H27673   8.674   7.159   0.050 -1.9353  0.3314 -0.7931
  946MOL0     H27674   8.054   7.177  -0.280 -0.2860  2.0043 -1.3694
  946MOL0     H27675   8.041   7.148  -0.521  0.4994 -0.4004 -0.1409
  946MOL0     H27676   8.376   7.003  -0.738 -0.0034 -1.1128 -0.5078
  946MOL0     H27677   8.272   6.864  -0.730  2.4376  0.3122 -1.0797
  946MOL0     H27678   8.245   7.088  -0.932 -1.7265  1.6320  2.5983
  946MOL0     H27679   8.298   6.911  -0.962 -2.0015 -0.8674  1.3685
  946MOL0     H27680   8.013   6.999  -0.903 -1.7760 -3.3066  0.3631
  946MOL0     H27681   8.079   6.831  -0.901  4.0636 -1.9548 -0.2957
  946MOL0     H27682   8.100   7.001  -1.140 -3.4002 -1.3160 -2.5719
  946MOL0     H27683   8.124   6.829  -1.114  1.4054  0.2131  1.3383
  946MOL0     H27684   7.863   6.978  -1.079 -0.1470 -0.1457  0.1684
  946MOL0     H27685   7.877   6.801  -1.058  0.4302  1.0445  1.4283
  946MOL0     H27686   7.935   6.973  -1.319  0.9314 -1.1663 -1.0892
  946MOL0     H27687   7.954   6.809  -1.315 -0.5851  1.3761 -1.7412
  946MOL0     H27688   7.739   6.891  -1.403 -1.7377 -2.3570 -0.9158
  946MOL0     H27689   7.677   6.906  -1.234  0.8778 -0.0719 -0.0552
  946MOL0     H27690   7.719   6.675  -1.195 -0.0356  1.5783 -0.1507
  946MOL0     H27691   7.792   6.656  -1.361 -0.6648  0.7797 -1.2720
  946MOL0     H27692   8.384   6.889  -0.533  0.7966 -1.7408  0.3045
  946MOL0     H27693   8.421   6.928  -0.295  0.3202 -1.5006 -2.1608
  946MOL0     H27694   8.179   7.096   0.089  0.0932  1.7020  1.3146
  946MOL0     H27695   8.169   7.052   0.333 -0.3501 -2.1138 -0.8530
  946MOL0     H27696   8.419   8.282   1.107 -2.0734  1.2788 -0.8754
  946MOL0     H27697   8.573   8.478   1.037 -1.7491 -0.6154  0.1280
  946MOL0     H27698   8.902   8.738   1.054 -1.3834 -1.0472  0.6241
  946MOL0     H27699   9.000   8.973   0.972  3.0479 -1.5228 -1.3041
  946MOL0     H27700   8.988   9.189   0.894  1.0881  0.6699  0.4425
  946MOL0     H27701   9.115   9.137   0.796  0.0693  0.2831 -1.4097
  946MOL0     H27702   8.892   9.340   0.723  0.1788  1.0546 -0.4386
  946MOL0     H27703   8.992   9.269   0.597  1.3956  2.6451 -0.6786
  946MOL0     H27704   9.188   9.358   0.657 -0.6927 -2.0074  1.1108
  946MOL0     H27705   9.122   9.428   0.821  1.6957 -0.8581  0.2191
  946MOL0     H27706   8.971   9.568   0.667  1.2707  1.1146  2.2157
  946MOL0     H27707   9.069   9.491   0.538  0.5110 -2.3335  0.6422
  946MOL0     H27708   9.369   9.758   0.694  0.5176  0.0736  1.6164
  946MOL0     H27709   8.818   8.901   0.602 -1.8583 -2.4118  0.3267
  946MOL0     H27710   8.739   8.662   0.683 -0.6329  0.8984 -0.4717
  947MOL0     O27711   5.455  11.444   6.284 -0.2807  0.8503 -0.4497
  947MOL0     C27712   5.494  11.358   6.211  0.4787 -0.4012  0.1319
  947MOL0     O27713   5.599  11.375   6.125  0.2908 -0.8346  0.3252
  947MOL0     C27714   5.668  11.492   6.112  0.4967 -0.5744 -0.3040
  947MOL0     C27715   5.712  11.528   5.989  0.1669  0.3589  0.2719
  947MOL0     C27716   5.808  11.620   5.968 -0.2152 -0.9350  0.9021
  947MOL0     C27717   5.846  11.706   6.065  0.3616  0.6584  1.1945
  947MOL0     O27718   5.951  11.791   6.053  1.0320 -0.5521 -0.3962
  947MOL0     C27719   6.035  11.770   5.939 -0.3164 -0.1913 -1.5247
  947MOL0     C27720   6.154  11.854   5.954 -0.5103 -0.2854 -0.1555
  947MOL0     C27721   6.259  11.805   6.050 -0.5542  0.0010 -0.1619
  947MOL0     C27722   6.409  11.839   6.025  0.7020 -0.2116  0.1279
  947MOL0     C27723   6.428  11.987   5.997 -0.7950  0.5919  0.4334
  947MOL0     C27724   6.571  12.039   6.015  0.1382 -0.3473  0.3473
  947MOL0     C27725   6.669  11.969   5.919  0.4638  0.5982 -0.2845
  947MOL0     C27726   6.629  11.968   5.764 -0.1413  0.3396 -0.2299
  947MOL0     N27727   6.569  11.848   5.704 -0.5811 -0.3906 -0.0375
  947MOL0     C27728   6.643  11.736   5.676 -0.7002 -0.3052  0.0651
  947MOL0     C27729   6.548  11.650   5.634  0.0333 -0.3822  0.5050
  947MOL0     C27730   6.575  11.509   5.586 -0.7574  0.1694  1.1420
  947MOL0     C27731   6.596  11.513   5.435  0.2261 -0.4267  0.0249
  947MOL0     C27732   6.650  11.381   5.380 -0.5725  0.0856 -0.7700
  947MOL0     C27733   6.711  11.386   5.241 -0.2634  0.3861 -0.2365
  947MOL0     O27734   6.833  11.467   5.239 -0.2041  0.1875 -0.4101
  947MOL0     C27735   6.946  11.437   5.315  0.6143 -0.0266 -0.2746
  947MOL0     C27736   6.999  11.541   5.379 -0.6472  1.0506 -0.1473
  947MOL0     C27737   7.112  11.530   5.460 -0.2213  0.5651  0.1317
  947MOL0     C27738   7.157  11.645   5.533  0.8715 -0.0694 -0.2437
  947MOL0     C27739   7.171  11.409   5.474 -0.2087 -0.0807  0.2601
  947MOL0     C27740   7.295  11.385   5.550 -0.7353  0.2202 -1.3666
  947MOL0     O27741   7.341  11.476   5.635 -0.3851  0.3081  1.0309
  947MOL0     C27742   7.470  11.487   5.681 -0.6303  0.0784 -0.0190
  947MOL0     C27743   7.494  11.519   5.811  0.7335  0.5551 -0.7673
  947MOL0     C27744   7.610  11.510   5.881 -0.6499 -0.4079 -0.1352
  947MOL0     C27745   7.726  11.489   5.800  0.1528  0.0097 -0.3309
  947MOL0     O27746   7.846  11.485   5.856 -0.1934 -0.1655  0.2576
  947MOL0     C27747   7.873  11.575   5.973 -0.0632  0.1390 -0.0606
  947MOL0     C27748   8.008  11.635   5.964 -0.6511 -0.6176  0.1822
  947MOL0     C27749   8.111  11.522   5.968 -0.1589  0.6844 -0.6547
  947MOL0     C27750   8.199  11.499   5.845  0.5647 -0.4062  0.8538
  947MOL0     C27751   8.294  11.380   5.879 -0.2384  0.4483 -0.1763
  947MOL0     C27752   8.392  11.386   5.755  0.8313 -0.2162  0.2214
  947MOL0     C27753   8.468  11.254   5.748 -0.0704  0.0252 -0.8431
  947MOL0     C27754   8.532  11.244   5.615  0.1827 -0.2644  0.6736
  947MOL0    Cl27755   8.690  11.337   5.628 -0.3793 -0.3598 -0.7038
  947MOL0     C27756   7.717  11.458   5.659 -0.1005 -0.1390  0.5601
  947MOL0     C27757   7.589  11.453   5.598  0.3516  0.8780  0.1610
  947MOL0     O27758   7.357  11.285   5.529 -0.5026  0.8095 -0.2383
  947MOL0     C27759   7.110  11.301   5.407  0.5033  0.0055  0.3567
  947MOL0     C27760   6.997  11.313   5.324 -0.4064  0.8668 -0.7630
  947MOL0     N27761   6.430  11.714   5.641 -0.6226  0.6553 -0.5914
  947MOL0     N27762   6.435  11.835   5.675 -0.8770 -0.0135  0.3485
  947MOL0     C27763   5.787  11.701   6.183  0.2479  0.3010 -0.6677
  947MOL0     C27764   5.705  11.587   6.215  0.4510 -0.3205 -0.5481
  947MOL0     C27765   5.391  11.260   6.188 -1.0102 -0.7512 -0.4748
  947MOL0     C27766   5.359  11.225   6.056  0.0539 -0.1707  0.6786
  947MOL0     C27767   5.257  11.131   6.039  0.0348  0.5828  0.7497
  947MOL0     C27768   5.166  11.100   6.146  0.1194 -0.2575 -0.0942
  947MOL0     O27769   5.050  11.027   6.118 -0.0382 -0.9016 -0.0875
  947MOL0     C27770   5.063  10.887   6.152  0.3044 -0.1526  0.4164
  947MOL0     C27771   4.935  10.819   6.131 -0.7338  0.4925 -0.3408
  947MOL0     C27772   4.881  10.807   5.984 -0.1265  0.2251  0.2429
  947MOL0     C27773   4.977  10.732   5.888  0.0020 -0.2233  0.0627
  947MOL0     C27774   4.975  10.594   5.923  0.0912  0.3197 -0.4466
  947MOL0     C27775   4.974  10.477   5.960 -0.8255  0.3849 -0.3270
  947MOL0     C27776   5.196  11.143   6.273  1.2960 -0.4026 -0.4559
  947MOL0     C27777   5.307  11.221   6.295 -0.1743 -0.3435 -0.9084
  947MOL0     H27778   5.696  11.472   5.898  2.0549 -0.4126  0.3728
  947MOL0     H27779   5.854  11.622   5.870 -3.6317  3.0505 -0.9219
  947MOL0     H27780   6.065  11.665   5.924 -2.3854 -1.1802  0.5605
  947MOL0     H27781   5.975  11.799   5.852  1.8938 -1.5225 -3.6250
  947MOL0     H27782   6.208  11.846   5.859  0.6771  0.3684  0.4439
  947MOL0     H27783   6.125  11.955   5.984 -1.0396 -1.0211  1.9348
  947MOL0     H27784   6.228  11.848   6.146  0.6367 -1.7545  1.0616
  947MOL0     H27785   6.247  11.697   6.055  2.2373 -0.3913 -0.6011
  947MOL0     H27786   6.474  11.812   6.109  1.7225  2.1076  0.1355
  947MOL0     H27787   6.439  11.788   5.932 -1.3916  1.9106 -1.8407
  947MOL0     H27788   6.408  11.994   5.889  0.6093 -2.5449 -0.1442
  947MOL0     H27789   6.355  12.037   6.061 -0.6311 -1.7288  2.5525
  947MOL0     H27790   6.577  12.147   6.002 -3.1168 -0.2464 -1.5793
  947MOL0     H27791   6.596  12.019   6.119  2.9738  3.1603  0.5237
  947MOL0     H27792   6.772  12.001   5.940  0.8677 -0.1477 -1.0436
  947MOL0     H27793   6.665  11.865   5.952  0.7724  0.5407 -0.4209
  947MOL0     H27794   6.723  11.995   5.714  0.1469  2.3993  1.3133
  947MOL0     H27795   6.559  12.047   5.732  1.0776  0.3171 -3.3551
  947MOL0     H27796   6.749  11.712   5.681 -1.1426 -2.2155  3.3522
  947MOL0     H27797   6.663  11.469   5.637 -0.3121 -2.7338 -1.6174
  947MOL0     H27798   6.494  11.438   5.604  1.1446 -2.2826  0.5278
  947MOL0     H27799   6.675  11.586   5.415  1.4951 -2.0744 -1.3009
  947MOL0     H27800   6.503  11.538   5.384 -0.0344 -0.4107  0.5084
  947MOL0     H27801   6.569  11.307   5.374  0.3600 -1.0565  0.1034
  947MOL0     H27802   6.718  11.333   5.451 -0.6848  1.8130  0.5504
  947MOL0     H27803   6.646  11.425   5.162 -0.1951 -0.7963 -0.9071
  947MOL0     H27804   6.727  11.281   5.216 -2.2395 -0.5003  1.9186
  947MOL0     H27805   6.962  11.641   5.359  1.8118  1.5003 -3.3228
  947MOL0     H27806   7.258  11.663   5.495  1.6897 -1.1104  1.3460
  947MOL0     H27807   7.091  11.731   5.513 -1.3568 -1.5922  0.1364
  947MOL0     H27808   7.165  11.641   5.642  1.5351  1.8268 -0.1947
  947MOL0     H27809   7.397  11.530   5.858  1.0059 -0.3955  0.0566
  947MOL0     H27810   7.608  11.530   5.988 -2.4544  0.1469 -0.2445
  947MOL0     H27811   7.797  11.654   5.969 -1.9754 -1.6466 -0.3621
  947MOL0     H27812   7.860  11.521   6.067  3.5375 -0.8843  0.0106
  947MOL0     H27813   8.023  11.705   5.880 -0.8437  0.5123  1.0611
  947MOL0     H27814   8.013  11.694   6.056 -2.7902 -0.4950  0.2613
  947MOL0     H27815   8.056  11.432   5.994  1.9041 -0.8521 -1.3538
  947MOL0     H27816   8.180  11.532   6.053  1.9835 -2.7723 -1.8020
  947MOL0     H27817   8.136  11.487   5.756  0.1996 -1.3096  1.2264
  947MOL0     H27818   8.250  11.594   5.825  1.2473 -0.7215  1.0620
  947MOL0     H27819   8.240  11.285   5.884 -3.5239  2.2086  3.2924
  947MOL0     H27820   8.344  11.393   5.975  0.8887 -3.1201 -0.1440
  947MOL0     H27821   8.333  11.388   5.663  0.6550  0.1054  0.3405
  947MOL0     H27822   8.465  11.467   5.765  1.9847 -1.2945  0.8841
  947MOL0     H27823   8.414  11.161   5.765  2.4155 -1.7334 -1.8264
  947MOL0     H27824   8.541  11.254   5.829 -2.2364  4.4957  1.4257
  947MOL0     H27825   8.473  11.288   5.534 -0.4178 -2.6534 -0.2699
  947MOL0     H27826   8.558  11.146   5.574  0.8286  0.6265 -1.1640
  947MOL0     H27827   7.799  11.434   5.592  0.5907 -3.3500  2.3613
  947MOL0     H27828   7.584  11.430   5.492  2.0451 -0.2704  0.2995
  947MOL0     H27829   7.168  11.209   5.408 -0.3761 -0.5519  0.5269
  947MOL0     H27830   6.958  11.224   5.275  1.1448  1.1474 -2.6151
  947MOL0     H27831   5.813  11.781   6.251  0.3463 -0.1147 -0.2067
  947MOL0     H27832   5.663  11.577   6.314 -0.4450  3.4371 -0.4194
  947MOL0     H27833   5.427  11.259   5.978 -0.0441  1.7533  1.3828
  947MOL0     H27834   5.220  11.093   5.945  1.9001  1.6694 -0.4949
  947MOL0     H27835   5.143  10.839   6.096 -1.1497  0.4621 -2.3551
  947MOL0     H27836   5.087  10.886   6.259 -2.8321  1.6054  1.2755
  947MOL0     H27837   4.853  10.873   6.180 -2.0496 -0.3091 -1.5576
  947MOL0     H27838   4.952  10.720   6.173  0.2976  1.2955  1.2514
  947MOL0     H27839   4.885  10.908   5.943  0.3913  0.2373  0.3147
  947MOL0     H27840   4.780  10.766   5.980  0.3381 -1.3412  2.5882
  947MOL0     H27841   5.075  10.774   5.912  0.3557 -0.1419 -1.4200
  947MOL0     H27842   4.950  10.746   5.783  3.5533  4.8342 -0.5864
  947MOL0     H27843   4.968  10.381   6.007  1.1443  0.0560 -0.6598
  947MOL0     H27844   5.136  11.121   6.360  0.8291 -0.7851 -0.8746
  947MOL0     H27845   5.349  11.233   6.395 -2.5794 -1.0795  0.2622
  948MOL0     O27846   6.024   3.599   1.653 -0.2560 -0.5229 -0.4960
  948MOL0     C27847   6.066   3.572   1.766  1.1350 -0.0876 -0.5107
  948MOL0     O27848   6.041   3.453   1.827  0.0469 -0.2490  0.6761
  948MOL0     C27849   5.955   3.370   1.754 -0.9021 -0.0135  1.0043
  948MOL0     C27850   6.006   3.259   1.683 -0.2006  0.2466 -0.1923
  948MOL0     C27851   5.920   3.161   1.624 -0.4108  0.4833  0.0080
  948MOL0     C27852   5.779   3.182   1.643  0.2930 -0.4076  0.5947
  948MOL0     O27853   5.690   3.102   1.578  0.4338 -0.7991 -0.2776
  948MOL0     C27854   5.707   3.050   1.444  0.3310 -0.7137  0.9966
  948MOL0     C27855   5.566   2.994   1.390 -0.6676  0.3134 -0.3048
  948MOL0     C27856   5.560   2.933   1.250  0.2356 -0.2084  0.6786
  948MOL0     C27857   5.425   2.889   1.207  0.3005  0.5697 -0.2670
  948MOL0     C27858   5.428   2.862   1.055  0.2267 -0.3408  0.5342
  948MOL0     C27859   5.290   2.812   1.008  0.3954 -0.7994 -1.1415
  948MOL0     C27860   5.317   2.786   0.862 -0.2066 -0.1520  0.1661
  948MOL0     C27861   5.195   2.709   0.798 -0.1525  0.2233  0.5405
  948MOL0     N27862   5.203   2.715   0.657  0.4989  0.5104 -0.3914
  948MOL0     C27863   5.303   2.648   0.596  0.0544 -0.5220  1.3149
  948MOL0     C27864   5.249   2.586   0.495  0.0316  0.1480  0.6424
  948MOL0     C27865   5.314   2.491   0.398 -0.2538 -0.2205 -1.3179
  948MOL0     C27866   5.366   2.556   0.274  0.4961  0.3905  0.7364
  948MOL0     C27867   5.431   2.464   0.176  0.1368 -0.2812  0.0807
  948MOL0     C27868   5.569   2.415   0.225 -0.9131 -0.4908  0.7630
  948MOL0     O27869   5.667   2.527   0.214 -0.6080 -0.5649  0.1366
  948MOL0     C27870   5.804   2.485   0.218  0.1081  0.0390 -1.1245
  948MOL0     C27871   5.847   2.352   0.250  0.5804  0.2298  0.4147
  948MOL0     C27872   5.980   2.300   0.227 -0.8948 -0.4964  1.2431
  948MOL0     C27873   5.992   2.155   0.268 -0.6984 -0.1223  0.3701
  948MOL0     C27874   6.076   2.393   0.180 -0.7016 -0.0182 -0.2537
  948MOL0     C27875   6.223   2.362   0.159 -0.7666 -1.1038  0.9589
  948MOL0     O27876   6.312   2.464   0.130  0.0105 -0.5591  0.9004
  948MOL0     C27877   6.436   2.437   0.069  0.6615 -0.2905  0.3041
  948MOL0     C27878   6.459   2.328  -0.010  0.2153 -0.4719 -0.9216
  948MOL0     C27879   6.585   2.315  -0.069  0.4577  0.0513 -1.2982
  948MOL0     C27880   6.671   2.422  -0.076 -0.2388 -0.4805  0.2137
  948MOL0     O27881   6.783   2.403  -0.154 -0.6482 -0.4292 -0.7123
  948MOL0     C27882   6.871   2.516  -0.180  0.0331  0.0233 -0.1160
  948MOL0     C27883   6.991   2.481  -0.255 -0.6488  0.0536  0.1878
  948MOL0     C27884   6.983   2.483  -0.406 -0.3287  0.7098 -0.8754
  948MOL0     C27885   7.067   2.373  -0.471 -0.3499  0.8357 -0.5332
  948MOL0     C27886   7.058   2.378  -0.622  0.2136  0.1298 -0.7991
  948MOL0     C27887   6.931   2.315  -0.689  0.2841 -0.4443  0.8862
  948MOL0     C27888   6.947   2.336  -0.843 -0.5915 -0.8201 -0.3572
  948MOL0     C27889   6.835   2.275  -0.933 -0.5093  0.2428 -0.1201
  948MOL0    Cl27890   6.798   2.109  -0.891  0.6123 -0.1819 -0.0199
  948MOL0     C27891   6.638   2.543  -0.005 -0.1131  0.8562 -0.0856
  948MOL0     C27892   6.524   2.553   0.068 -0.3009 -0.2584  0.3812
  948MOL0     O27893   6.250   2.246   0.176  0.2796  0.5570 -0.1090
  948MOL0     C27894   6.038   2.527   0.151  0.6380  0.2433 -0.3061
  948MOL0     C27895   5.907   2.567   0.175 -0.0627 -0.1949  0.3245
  948MOL0     N27896   5.119   2.631   0.481 -1.7460 -0.6500  1.1353
  948MOL0     N27897   5.099   2.714   0.575  0.1494  0.0158  0.0215
  948MOL0     C27898   5.730   3.285   1.725  0.2606  0.0368 -0.0208
  948MOL0     C27899   5.818   3.378   1.779 -0.6273 -0.0696 -0.3478
  948MOL0     C27900   6.167   3.659   1.838  0.6418 -0.5273  0.3076
  948MOL0     C27901   6.222   3.769   1.772 -1.0134  0.4108  0.9674
  948MOL0     C27902   6.289   3.864   1.839  0.1739 -0.3588 -0.1129
  948MOL0     C27903   6.315   3.845   1.978  0.3423  0.2633  0.1300
  948MOL0     O27904   6.401   3.931   2.058 -0.2261  0.8996 -0.4270
  948MOL0     C27905   6.523   3.962   1.996 -0.4248 -0.6711  0.7351
  948MOL0     C27906   6.614   3.844   1.973  0.3406 -1.1424  0.0978
  948MOL0     C27907   6.624   3.738   2.095 -0.4611  0.3079  0.5746
  948MOL0     C27908   6.666   3.604   2.047 -0.4516  0.1715 -0.3673
  948MOL0     C27909   6.554   3.515   2.023 -0.1507  0.2330  0.3847
  948MOL0     C27910   6.456   3.460   1.996 -1.5473 -0.4430  0.4246
  948MOL0     C27911   6.266   3.727   2.042  0.5862 -0.5924 -0.6213
  948MOL0     C27912   6.190   3.636   1.975 -0.2141 -0.1350  0.3205
  948MOL0     H27913   6.113   3.246   1.674 -0.2388 -0.4239  0.2594
  948MOL0     H27914   5.965   3.079   1.569 -1.4126 -0.3992  0.4570
  948MOL0     H27915   5.729   3.138   1.383 -1.3206  1.1307  2.8914
  948MOL0     H27916   5.783   2.971   1.447  2.0362  0.7742 -0.6266
  948MOL0     H27917   5.537   2.914   1.458 -1.9580  0.6676 -0.4032
  948MOL0     H27918   5.498   3.078   1.408  2.5213  2.8441  1.1370
  948MOL0     H27919   5.605   3.003   1.180  1.2308 -1.2916  0.2106
  948MOL0     H27920   5.615   2.838   1.250 -2.8202 -2.1449 -0.5343
  948MOL0     H27921   5.400   2.798   1.261 -1.3787  0.5612 -0.9922
  948MOL0     H27922   5.341   2.958   1.220 -1.8892 -1.4263 -2.6289
  948MOL0     H27923   5.441   2.963   1.014  0.7972 -0.7539 -0.3413
  948MOL0     H27924   5.504   2.794   1.018  0.1507 -1.2885  2.0442
  948MOL0     H27925   5.273   2.716   1.058  3.1028  0.0327  1.7471
  948MOL0     H27926   5.214   2.890   1.023  0.8224 -0.6014  0.1491
  948MOL0     H27927   5.336   2.883   0.815 -0.8991 -0.4272 -0.7060
  948MOL0     H27928   5.405   2.723   0.846 -0.5988 -0.9152  0.9863
  948MOL0     H27929   5.104   2.761   0.827  0.5919  1.3694  0.8930
  948MOL0     H27930   5.197   2.603   0.828  3.5556 -0.1943 -0.6434
  948MOL0     H27931   5.408   2.629   0.613  0.5039  1.0618  0.5398
  948MOL0     H27932   5.397   2.439   0.447 -2.4783 -1.3284  1.6119
  948MOL0     H27933   5.238   2.420   0.364 -1.1837 -0.7924  1.6224
  948MOL0     H27934   5.430   2.644   0.289 -0.9427  1.2645  2.0032
  948MOL0     H27935   5.280   2.594   0.218 -1.3962 -2.0996  1.7874
  948MOL0     H27936   5.456   2.508   0.079  1.8344  0.4800  0.8214
  948MOL0     H27937   5.371   2.375   0.155 -1.4830  0.5337  1.0305
  948MOL0     H27938   5.600   2.343   0.149  1.0798  2.7405 -1.7369
  948MOL0     H27939   5.580   2.373   0.326 -0.8980 -1.6552  0.2926
  948MOL0     H27940   5.790   2.272   0.293  0.4695 -0.8179 -1.5422
  948MOL0     H27941   6.090   2.143   0.315 -0.7942  1.8640  1.1520
  948MOL0     H27942   5.923   2.113   0.342  0.9672 -0.2905  1.9016
  948MOL0     H27943   5.991   2.093   0.177 -1.6117  0.1270  0.2019
  948MOL0     H27944   6.383   2.253  -0.029 -1.9291  1.3662 -0.1183
  948MOL0     H27945   6.617   2.228  -0.125  2.2606 -0.1537 -0.0359
  948MOL0     H27946   6.821   2.594  -0.239  2.5429  1.5955 -0.3078
  948MOL0     H27947   6.895   2.549  -0.079 -2.5239 -4.5855  2.3813
  948MOL0     H27948   7.061   2.560  -0.228  0.2632 -1.0390  1.1066
  948MOL0     H27949   7.033   2.391  -0.208  0.0099  0.1210 -0.2631
  948MOL0     H27950   7.016   2.582  -0.436 -2.8246  2.4982  1.7918
  948MOL0     H27951   6.880   2.475  -0.442 -0.1150  2.0325 -1.8368
  948MOL0     H27952   7.169   2.393  -0.436 -0.5852  3.1718 -1.0007
  948MOL0     H27953   7.030   2.273  -0.445 -1.3528  0.6290 -2.5416
  948MOL0     H27954   7.142   2.328  -0.671  0.5342 -0.0564 -0.0699
  948MOL0     H27955   7.065   2.483  -0.653  1.1323 -0.5261 -3.0569
  948MOL0     H27956   6.919   2.208  -0.673 -1.4162 -0.0034  2.9955
  948MOL0     H27957   6.838   2.365  -0.660 -0.8764 -0.8829 -1.7830
  948MOL0     H27958   7.039   2.288  -0.877 -0.2211  1.8466 -3.6596
  948MOL0     H27959   6.953   2.441  -0.875  2.9017 -0.7254  0.2244
  948MOL0     H27960   6.870   2.279  -1.037 -3.0142 -0.9629 -1.0893
  948MOL0     H27961   6.740   2.328  -0.925 -0.1612  1.1461 -1.6575
  948MOL0     H27962   6.697   2.633  -0.023 -0.4719  1.1536  0.2070
  948MOL0     H27963   6.512   2.647   0.122 -1.5091  2.5781 -4.2369
  948MOL0     H27964   6.109   2.606   0.126  0.1019  0.5750 -0.8256
  948MOL0     H27965   5.880   2.670   0.155 -2.8219 -0.3745  2.5071
  948MOL0     H27966   5.624   3.305   1.731  0.4098  0.7881  0.3784
  948MOL0     H27967   5.780   3.455   1.846  0.2109 -1.0495  1.3044
  948MOL0     H27968   6.199   3.776   1.666  4.1264 -1.5820 -0.6008
  948MOL0     H27969   6.329   3.955   1.796 -0.1404 -1.0041 -1.9026
  948MOL0     H27970   6.505   4.008   1.898 -1.0311 -1.9542  0.2317
  948MOL0     H27971   6.567   4.034   2.066 -1.2061  1.1877 -0.5909
  948MOL0     H27972   6.714   3.888   1.963 -0.1555 -0.0582 -0.2240
  948MOL0     H27973   6.592   3.805   1.873  1.4697  1.1821 -1.1271
  948MOL0     H27974   6.527   3.728   2.145 -2.0131 -1.9813 -2.5724
  948MOL0     H27975   6.715   3.768   2.148  2.2948 -0.7697 -3.1398
  948MOL0     H27976   6.726   3.575   2.133 -1.8101  1.4413  1.0561
  948MOL0     H27977   6.726   3.622   1.957 -3.2056  1.3839 -2.0831
  948MOL0     H27978   6.369   3.412   1.958 -2.1109  1.2875 -0.6015
  948MOL0     H27979   6.284   3.725   2.149  0.7785  0.5531 -0.6179
  948MOL0     H27980   6.153   3.542   2.015 -2.0630 -1.1511 -3.2496
  949MOL0     O27981   6.050   0.376   0.984 -0.6747  0.0648  0.1447
  949MOL0     C27982   5.980   0.421   0.893 -0.5470  0.8942 -0.3653
  949MOL0     O27983   6.011   0.532   0.824  0.3119  0.5672 -0.3270
  949MOL0     C27984   6.134   0.586   0.801  0.2635  0.5066 -0.4208
  949MOL0     C27985   6.153   0.718   0.829 -0.6124  0.2109 -0.2903
  949MOL0     C27986   6.266   0.784   0.792  0.4383 -0.3407  0.3676
  949MOL0     C27987   6.361   0.728   0.716 -0.2573 -0.3793  0.5218
  949MOL0     O27988   6.476   0.798   0.674  0.4982  0.2517 -0.0259
  949MOL0     C27989   6.536   0.893   0.757 -0.0076 -0.2624  0.3345
  949MOL0     C27990   6.630   0.982   0.681 -0.4205  0.0621  0.6954
  949MOL0     C27991   6.673   1.095   0.754  0.4479 -0.3175  0.5238
  949MOL0     C27992   6.746   1.074   0.892 -0.8941  0.3658 -0.7640
  949MOL0     C27993   6.760   1.200   0.964  0.6505 -0.4731 -0.0822
  949MOL0     C27994   6.870   1.218   1.072  0.9025 -0.4163  0.8780
  949MOL0     C27995   6.864   1.123   1.188 -0.5573 -0.0042 -0.8099
  949MOL0     C27996   7.013   1.076   1.222  0.4467 -0.3651 -0.3851
  949MOL0     N27997   7.020   0.989   1.344 -0.5241  0.1218  0.4856
  949MOL0     C27998   7.030   0.852   1.338 -0.3322 -0.9205  1.0398
  949MOL0     C27999   6.976   0.813   1.459  0.0469  0.3262 -0.6539
  949MOL0     C28000   6.941   0.670   1.492  0.0354  0.8389  0.4354
  949MOL0     C28001   6.834   0.653   1.602 -0.0936 -0.2125 -0.6169
  949MOL0     C28002   6.844   0.519   1.671  0.4380  0.4745 -0.4281
  949MOL0     C28003   6.801   0.409   1.573  0.1173 -0.9674 -0.0936
  949MOL0     O28004   6.923   0.376   1.506 -0.3091  0.3012 -0.2295
  949MOL0     C28005   6.903   0.317   1.383 -0.3834  1.3398 -0.2740
  949MOL0     C28006   6.816   0.203   1.363 -0.5597 -0.2807  0.0992
  949MOL0     C28007   6.825   0.145   1.238 -0.1734  0.3542 -1.0911
  949MOL0     C28008   6.746   0.015   1.219 -0.5422  0.3300 -0.1035
  949MOL0     C28009   6.897   0.192   1.130  0.1916 -1.1966 -0.5841
  949MOL0     C28010   6.898   0.126   0.996 -0.0970 -0.0072 -0.4204
  949MOL0     O28011   6.921  -0.011   0.994  0.3321 -0.3254 -0.1065
  949MOL0     C28012   6.887  -0.079   0.887 -0.3874 -0.3411  1.1659
  949MOL0     C28013   6.955  -0.198   0.862 -0.9836 -0.6863 -0.4423
  949MOL0     C28014   6.920  -0.288   0.763  0.8299 -0.0062  0.3151
  949MOL0     C28015   6.820  -0.264   0.663 -1.1363 -0.5099  0.2074
  949MOL0     O28016   6.808  -0.346   0.550  0.4526  0.2905 -0.4622
  949MOL0     C28017   6.851  -0.482   0.562  0.0946  0.0917 -0.5551
  949MOL0     C28018   6.771  -0.562   0.462 -0.6124  0.2460 -0.0524
  949MOL0     C28019   6.819  -0.555   0.307  0.5994 -0.3497  0.4923
  949MOL0     C28020   6.975  -0.526   0.294 -0.1127 -0.3314  0.7523
  949MOL0     C28021   7.038  -0.507   0.159  0.7046  0.4114 -0.6488
  949MOL0     C28022   7.194  -0.519   0.169  0.3616  0.5840  1.0367
  949MOL0     C28023   7.257  -0.496   0.033 -0.4465 -0.1652  0.1696
  949MOL0     C28024   7.215  -0.612  -0.052 -0.3984 -0.1665  0.0728
  949MOL0    Cl28025   7.347  -0.698  -0.130  0.3208  0.0013  0.0971
  949MOL0     C28026   6.747  -0.145   0.691  0.1350  0.4537  0.2882
  949MOL0     C28027   6.777  -0.050   0.792 -0.6787  0.0054 -0.1932
  949MOL0     O28028   6.888   0.199   0.900  0.1144 -0.3142 -0.3408
  949MOL0     C28029   6.974   0.307   1.150 -0.3760 -1.0898  0.1749
  949MOL0     C28030   6.982   0.365   1.280  0.4742 -0.4004 -0.3719
  949MOL0     N28031   6.950   0.924   1.538 -1.2046 -0.6413 -0.3044
  949MOL0     N28032   6.965   1.029   1.463 -0.7604  0.3579 -0.2305
  949MOL0     C28033   6.345   0.599   0.680 -0.4040 -0.2487 -0.2397
  949MOL0     C28034   6.227   0.530   0.710 -0.8748  0.3513 -0.2137
  949MOL0     C28035   5.841   0.385   0.882  0.3334 -0.9479 -0.8037
  949MOL0     C28036   5.790   0.280   0.949  0.5547 -0.6290 -0.5869
  949MOL0     C28037   5.651   0.251   0.955  0.0825 -0.1377  0.1163
  949MOL0     C28038   5.553   0.333   0.898 -0.5782  0.4119  0.4422
  949MOL0     O28039   5.421   0.301   0.901  1.2453 -0.3163 -0.0907
  949MOL0     C28040   5.316   0.378   0.842  0.2203  0.0593 -0.0899
  949MOL0     C28041   5.186   0.304   0.862  0.2378 -0.3245 -0.6002
  949MOL0     C28042   5.139   0.324   1.005  0.9003 -0.3646 -0.3145
  949MOL0     C28043   5.217   0.245   1.098 -0.1059  0.4750 -0.4862
  949MOL0     C28044   5.153   0.261   1.227 -0.3678  1.0850 -0.7653
  949MOL0     C28045   5.108   0.283   1.341  0.3978 -0.0946  0.1862
  949MOL0     C28046   5.608   0.447   0.838 -0.6091 -0.0624  0.9599
  949MOL0     C28047   5.746   0.472   0.815 -0.1582 -0.7691 -0.7364
  949MOL0     H28048   6.081   0.760   0.899 -0.1597 -2.9421  2.3122
  949MOL0     H28049   6.260   0.887   0.826  1.6561 -0.7715  2.0029
  949MOL0     H28050   6.468   0.947   0.822 -0.7796 -2.8269  1.8071
  949MOL0     H28051   6.598   0.848   0.835  3.2621  3.9993  0.5719
  949MOL0     H28052   6.715   0.922   0.648  0.8984  0.0328  3.8419
  949MOL0     H28053   6.571   1.021   0.597  2.1300 -0.6550 -1.5712
  949MOL0     H28054   6.733   1.156   0.687 -3.5280  2.6129 -0.7610
  949MOL0     H28055   6.581   1.152   0.771  1.1285  0.2625  2.5300
  949MOL0     H28056   6.682   1.010   0.953 -0.6786  1.0909  0.2348
  949MOL0     H28057   6.839   1.017   0.880 -1.5265 -0.8804  0.0555
  949MOL0     H28058   6.783   1.286   0.901  0.2794  0.6469  1.2588
  949MOL0     H28059   6.669   1.223   1.021  2.6233  1.2388  2.6280
  949MOL0     H28060   6.970   1.204   1.030  0.4850  0.2324 -0.3801
  949MOL0     H28061   6.858   1.314   1.122 -1.0116  0.3515 -0.9261
  949MOL0     H28062   6.832   1.175   1.280 -0.7951  0.1662 -0.9881
  949MOL0     H28063   6.812   1.029   1.168 -3.2369  1.1035  0.4991
  949MOL0     H28064   7.068   1.170   1.234 -2.2945  1.2439  0.6001
  949MOL0     H28065   7.055   1.021   1.138  0.1683  0.0581 -0.8035
  949MOL0     H28066   7.064   0.787   1.259  1.0162 -1.4522  2.0265
  949MOL0     H28067   6.912   0.622   1.398  0.1058 -2.3863  1.9221
  949MOL0     H28068   7.030   0.609   1.510  0.5837  0.7423 -2.1213
  949MOL0     H28069   6.735   0.673   1.558  1.1917 -0.5196 -3.9301
  949MOL0     H28070   6.861   0.732   1.672  0.2983  0.5646 -1.6136
  949MOL0     H28071   6.784   0.510   1.762  2.8685  1.4804  1.3948
  949MOL0     H28072   6.946   0.493   1.700 -0.6187 -2.1086  1.3175
  949MOL0     H28073   6.722   0.430   1.500 -0.0922 -4.0301 -0.8965
  949MOL0     H28074   6.770   0.318   1.626  0.5151 -0.4841  0.9917
  949MOL0     H28075   6.758   0.159   1.443 -1.9392 -1.7210 -1.6060
  949MOL0     H28076   6.668   0.009   1.296 -0.0327 -3.1482  0.3118
  949MOL0     H28077   6.709  -0.002   1.117 -0.0509 -1.7114  0.0192
  949MOL0     H28078   6.806  -0.075   1.234 -2.5623 -1.1141 -0.1537
  949MOL0     H28079   7.042  -0.228   0.921 -2.8117 -1.0949  2.1837
  949MOL0     H28080   6.989  -0.370   0.744  0.0263 -0.2624 -1.8265
  949MOL0     H28081   6.960  -0.484   0.558  0.3908  0.3525  3.5773
  949MOL0     H28082   6.827  -0.515   0.663  0.7758 -1.8321 -0.9786
  949MOL0     H28083   6.783  -0.668   0.486 -2.6804 -0.2275 -0.8286
  949MOL0     H28084   6.663  -0.545   0.454 -0.9167 -1.5454 -0.2972
  949MOL0     H28085   6.754  -0.485   0.253 -1.4885 -2.1928  0.4385
  949MOL0     H28086   6.787  -0.653   0.270 -0.6230  0.1985  0.0176
  949MOL0     H28087   6.995  -0.434   0.350  0.2180  0.1398 -0.1223
  949MOL0     H28088   7.032  -0.608   0.340  0.1729 -0.2813  0.4863
  949MOL0     H28089   7.015  -0.411   0.113 -1.2990  1.5625  2.4053
  949MOL0     H28090   6.999  -0.592   0.102 -0.7787  0.6954 -0.1006
  949MOL0     H28091   7.230  -0.453   0.250  1.4855  0.0313  1.0007
  949MOL0     H28092   7.221  -0.618   0.205  1.2304  1.2786  2.4060
  949MOL0     H28093   7.365  -0.511   0.043 -0.6545 -1.8699  0.2175
  949MOL0     H28094   7.242  -0.394  -0.003  2.3068  0.7605  1.3959
  949MOL0     H28095   7.148  -0.573  -0.129  2.3720 -1.3614 -3.1901
  949MOL0     H28096   7.155  -0.687   0.000  0.6665 -2.4930 -1.8521
  949MOL0     H28097   6.677  -0.114   0.614  1.8605  2.9856 -0.4058
  949MOL0     H28098   6.718   0.040   0.806  1.3041  1.1973  0.9105
  949MOL0     H28099   7.047   0.349   1.081  0.3132 -0.2044  1.4028
  949MOL0     H28100   7.030   0.457   1.309 -0.7379 -0.5948  2.5595
  949MOL0     H28101   6.428   0.552   0.629  2.4978  1.4627  2.5464
  949MOL0     H28102   6.215   0.424   0.688  2.2493 -0.5024  1.5800
  949MOL0     H28103   5.848   0.210   1.007 -2.2059 -2.7232 -0.1653
  949MOL0     H28104   5.616   0.166   1.011 -1.3734  1.2277  1.3801
  949MOL0     H28105   5.301   0.475   0.888 -0.8471 -0.8202  1.5130
  949MOL0     H28106   5.336   0.386   0.735  2.9440  0.0955  0.3613
  949MOL0     H28107   5.194   0.198   0.838 -4.5029 -0.3282 -3.6767
  949MOL0     H28108   5.121   0.348   0.786 -0.1165 -0.7510 -0.5493
  949MOL0     H28109   5.033   0.301   1.020  0.9727 -0.6430 -0.2094
  949MOL0     H28110   5.156   0.428   1.034  2.9358 -0.4668 -1.0098
  949MOL0     H28111   5.323   0.269   1.105 -0.4963  2.5938 -0.9113
  949MOL0     H28112   5.211   0.140   1.070 -1.3868  0.9971 -2.3938
  949MOL0     H28113   5.051   0.303   1.430  3.5205  0.5067  2.2129
  949MOL0     H28114   5.537   0.518   0.799 -3.0435 -2.0038  1.6063
  949MOL0     H28115   5.776   0.557   0.755  3.1284 -0.6282  0.9019
  950MOL0     O28116   8.518   4.601  10.728  0.6328  0.0237  0.1919
  950MOL0     C28117   8.444   4.500  10.722 -0.2726 -1.3616 -0.2918
  950MOL0     O28118   8.454   4.404  10.634  0.1808  0.5873  0.8840
  950MOL0     C28119   8.548   4.413  10.530 -0.4264  0.3369  0.6407
  950MOL0     C28120   8.684   4.370  10.539  0.7184 -0.2507 -1.0024
  950MOL0     C28121   8.765   4.388  10.424  0.2272  0.2254  0.0172
  950MOL0     C28122   8.714   4.418  10.294  0.6051 -0.5573  0.0351
  950MOL0     O28123   8.779   4.416  10.169  0.9546 -0.3176 -0.1365
  950MOL0     C28124   8.914   4.464  10.155 -0.8185 -0.4662  0.2487
  950MOL0     C28125   8.941   4.518  10.016  0.2472  0.6150  0.3403
  950MOL0     C28126   8.850   4.633   9.971  0.0749 -0.0760  0.1565
  950MOL0     C28127   8.710   4.590   9.913  0.4432  0.5368 -0.0689
  950MOL0     C28128   8.624   4.717   9.871  0.2692  0.3417 -0.0125
  950MOL0     C28129   8.498   4.683   9.796  0.3599  0.1104 -0.4052
  950MOL0     C28130   8.399   4.793   9.791 -0.2221  1.0452  0.6796
  950MOL0     C28131   8.292   4.762   9.678 -0.1257  0.2690  0.4571
  950MOL0     N28132   8.188   4.666   9.721 -0.8290  0.3152  0.4429
  950MOL0     C28133   8.125   4.663   9.843 -0.8370 -0.0267 -0.0218
  950MOL0     C28134   8.015   4.594   9.821  1.0901 -0.2965 -0.9799
  950MOL0     C28135   7.910   4.565   9.928  0.1291 -0.4253  0.5930
  950MOL0     C28136   7.922   4.657  10.051 -0.7062 -0.5787 -1.1327
  950MOL0     C28137   7.827   4.591  10.158 -0.3532 -0.0500  0.1583
  950MOL0     C28138   7.793   4.682  10.278 -0.2314  0.5273  0.1486
  950MOL0     O28139   7.671   4.760  10.249 -0.2660  0.3813 -0.6853
  950MOL0     C28140   7.620   4.808  10.363 -0.3822 -0.1231  0.4000
  950MOL0     C28141   7.687   4.858  10.470  0.1890  0.4243  0.7461
  950MOL0     C28142   7.620   4.920  10.573  0.3761 -0.0497 -1.1235
  950MOL0     C28143   7.707   4.980  10.683 -0.1350 -0.1332 -0.2954
  950MOL0     C28144   7.479   4.919  10.572  0.1676 -0.0087  1.0916
  950MOL0     C28145   7.391   4.979  10.672  0.8981 -0.0741  0.2215
  950MOL0     O28146   7.269   5.031  10.630 -0.4969 -0.5269  0.7917
  950MOL0     C28147   7.176   5.069  10.720  0.3403  0.4554  1.1409
  950MOL0     C28148   7.135   4.995  10.833  0.0631  0.0466  0.6316
  950MOL0     C28149   7.038   5.054  10.921  0.0432 -0.4228 -0.0543
  950MOL0     C28150   6.993   5.179  10.897  0.6780 -1.0944 -0.2771
  950MOL0     O28151   6.890   5.221  10.979 -0.2023  0.4968 -0.6850
  950MOL0     C28152   6.842   5.356  10.985 -0.3713 -0.7079  0.3617
  950MOL0     C28153   6.748   5.371  11.108 -0.9404  0.0020 -0.2438
  950MOL0     C28154   6.686   5.507  11.122 -0.1241 -0.1223  0.3223
  950MOL0     C28155   6.631   5.517  11.263  0.2562 -0.2865  0.2264
  950MOL0     C28156   6.748   5.545  11.365  0.5299 -0.4790 -0.7420
  950MOL0     C28157   6.726   5.665  11.469 -0.1286  0.8039 -1.1841
  950MOL0     C28158   6.616   5.615  11.569 -0.5945  0.5383 -1.0400
  950MOL0     C28159   6.576   5.730  11.658  0.1350 -0.4737 -0.9898
  950MOL0    Cl28160   6.681   5.735  11.794 -0.1306  0.2121  0.0444
  950MOL0     C28161   7.035   5.258  10.793 -0.7025 -0.1059  0.1420
  950MOL0     C28162   7.110   5.193  10.698  1.4092 -0.3049  0.2520
  950MOL0     O28163   7.419   4.950  10.789 -0.2838  0.3715 -0.0808
  950MOL0     C28164   7.416   4.843  10.473 -0.1802 -0.4708 -0.9785
  950MOL0     C28165   7.481   4.801  10.360 -0.7785  0.5467 -0.6937
  950MOL0     N28166   8.003   4.563   9.687 -0.9165  0.6332  0.3694
  950MOL0     N28167   8.106   4.611   9.622 -0.6956 -0.2162 -0.0161
  950MOL0     C28168   8.579   4.463  10.296  0.1181 -0.5803  0.7199
  950MOL0     C28169   8.502   4.464  10.413  0.5904  0.3163 -0.0740
  950MOL0     C28170   8.334   4.490  10.818 -0.3780 -0.6297 -0.5026
  950MOL0     C28171   8.218   4.403  10.803  0.1729 -0.4556 -0.8679
  950MOL0     C28172   8.128   4.404  10.914  0.3315  0.1452 -0.3621
  950MOL0     C28173   8.142   4.479  11.031 -0.5804 -0.1190  0.1350
  950MOL0     O28174   8.056   4.445  11.132 -0.5742 -0.1756 -0.1828
  950MOL0     C28175   8.058   4.508  11.263 -0.6382 -0.1081 -0.5659
  950MOL0     C28176   8.149   4.436  11.362  0.0773  0.1046  0.0281
  950MOL0     C28177   8.086   4.462  11.501 -0.7059  0.2489  0.3096
  950MOL0     C28178   8.175   4.529  11.602 -0.2490  0.4102  0.0439
  950MOL0     C28179   8.173   4.677  11.584 -0.0941 -0.1003  0.1485
  950MOL0     C28180   8.183   4.793  11.576 -0.9596 -0.3794 -0.0265
  950MOL0     C28181   8.259   4.561  11.046  0.3457  0.2507  0.2880
  950MOL0     C28182   8.356   4.565  10.944 -0.0775  0.0569 -0.3586
  950MOL0     H28183   8.729   4.327  10.628 -1.7230 -3.0855 -0.9965
  950MOL0     H28184   8.873   4.391  10.425  0.3085 -0.8101 -1.9244
  950MOL0     H28185   8.948   4.546  10.219 -1.6991 -1.1903  1.6993
  950MOL0     H28186   8.989   4.385  10.168  1.6253  1.4391 -1.3212
  950MOL0     H28187   9.039   4.562   9.999 -0.4357  1.9836 -0.1614
  950MOL0     H28188   8.932   4.434   9.946 -0.5534 -0.3752  1.5711
  950MOL0     H28189   8.832   4.697  10.058 -2.5094 -1.2936  0.6061
  950MOL0     H28190   8.891   4.708   9.903 -1.9876  0.4427 -0.5608
  950MOL0     H28191   8.713   4.519   9.829  0.8091 -0.0129  0.4004
  950MOL0     H28192   8.653   4.531   9.985 -0.2336 -3.7668 -3.6314
  950MOL0     H28193   8.604   4.768   9.966 -3.2182 -2.0603  0.7372
  950MOL0     H28194   8.683   4.783   9.806 -0.6201  0.1959 -0.9955
  950MOL0     H28195   8.508   4.647   9.693 -2.6877  0.4805 -0.9195
  950MOL0     H28196   8.444   4.612   9.859 -3.1917  3.4050  0.6123
  950MOL0     H28197   8.358   4.799   9.893  2.5783  2.1362  1.8415
  950MOL0     H28198   8.460   4.881   9.769  1.8362 -0.9581 -2.4906
  950MOL0     H28199   8.347   4.736   9.587 -1.9752  1.7711 -1.1707
  950MOL0     H28200   8.235   4.852   9.654  0.7060  0.5727 -0.4567
  950MOL0     H28201   8.167   4.688   9.940 -1.8574 -2.0136  0.9945
  950MOL0     H28202   7.819   4.583   9.871  1.5060 -0.3768 -1.7402
  950MOL0     H28203   7.906   4.462   9.963 -2.0292 -0.6636 -0.2170
  950MOL0     H28204   7.889   4.760  10.032 -2.2714 -0.4974  1.5843
  950MOL0     H28205   8.022   4.648  10.095  0.3910  0.0862 -3.3417
  950MOL0     H28206   7.858   4.498  10.205  0.0196  0.7176  1.4676
  950MOL0     H28207   7.735   4.586  10.098 -1.4580  5.7646  0.7365
  950MOL0     H28208   7.875   4.754  10.290 -0.6539  0.8358  1.2804
  950MOL0     H28209   7.785   4.628  10.373 -3.5393  1.6024  0.5988
  950MOL0     H28210   7.789   4.835  10.501  0.1141 -1.2633 -0.1495
  950MOL0     H28211   7.764   5.064  10.641  0.5666 -0.8467 -0.8035
  950MOL0     H28212   7.642   5.014  10.764  3.2293  4.3946  0.9254
  950MOL0     H28213   7.780   4.901  10.705 -0.4891 -0.4644 -0.3227
  950MOL0     H28214   7.182   4.898  10.849 -1.6561 -1.4814 -2.7221
  950MOL0     H28215   6.986   4.995  10.996 -1.7017 -0.2220 -1.0446
  950MOL0     H28216   6.922   5.430  10.993 -0.9861  0.3614 -2.2032
  950MOL0     H28217   6.794   5.386  10.891  3.0329  2.4786 -0.5745
  950MOL0     H28218   6.671   5.294  11.112 -0.1542 -1.0110 -2.9296
  950MOL0     H28219   6.810   5.351  11.196  0.4125 -3.6142 -1.8312
  950MOL0     H28220   6.605   5.519  11.050 -0.0074 -0.2098  0.1766
  950MOL0     H28221   6.774   5.570  11.109  1.5148 -1.8675  2.2437
  950MOL0     H28222   6.568   5.606  11.259  0.0888 -0.3617  1.0284
  950MOL0     H28223   6.572   5.430  11.293  0.1274 -1.0544 -2.0373
  950MOL0     H28224   6.843   5.562  11.314 -0.0141 -0.7659 -1.8927
  950MOL0     H28225   6.763   5.450  11.417  0.8729 -0.8620 -1.5219
  950MOL0     H28226   6.812   5.679  11.535  0.3197 -1.6644 -1.1243
  950MOL0     H28227   6.703   5.757  11.415  0.3593  0.1006 -2.6766
  950MOL0     H28228   6.657   5.530  11.623  0.7019  1.6000 -0.2977
  950MOL0     H28229   6.539   5.587  11.496 -1.9837  1.0350  0.1730
  950MOL0     H28230   6.473   5.724  11.692  1.0244  2.5300  2.9748
  950MOL0     H28231   6.585   5.819  11.594 -3.3472 -1.3488 -2.9418
  950MOL0     H28232   7.001   5.359  10.771  0.7139  0.1398 -1.0646
  950MOL0     H28233   7.143   5.241  10.607  2.6699 -2.3888 -0.4524
  950MOL0     H28234   7.308   4.844  10.477 -0.4709  5.4513 -0.2678
  950MOL0     H28235   7.433   4.774  10.267  0.8952 -2.9879 -0.6752
  950MOL0     H28236   8.536   4.490  10.200 -3.2714 -0.8092  2.0332
  950MOL0     H28237   8.405   4.514  10.417  1.3347  1.8409 -0.4280
  950MOL0     H28238   8.217   4.329  10.724  0.6690  1.0583 -2.3372
  950MOL0     H28239   8.055   4.326  10.901  1.1585 -0.2960 -2.9212
  950MOL0     H28240   8.100   4.609  11.255 -0.4386 -0.1764 -0.4141
  950MOL0     H28241   7.955   4.515  11.299  0.8238 -1.0259  4.6907
  950MOL0     H28242   8.250   4.471  11.338 -0.1521  0.3253 -0.6332
  950MOL0     H28243   8.149   4.327  11.356 -0.0554  0.2026 -4.4381
  950MOL0     H28244   8.048   4.362  11.524  0.0717 -0.9588 -3.1218
  950MOL0     H28245   8.005   4.535  11.492  0.5852  1.5457 -1.5325
  950MOL0     H28246   8.276   4.491  11.587  0.3636  2.0668 -0.1971
  950MOL0     H28247   8.146   4.507  11.706  2.2923  0.7262  0.8836
  950MOL0     H28248   8.206   4.898  11.568  1.0570 -0.8465 -1.1272
  950MOL0     H28249   8.255   4.631  11.129 -4.7208 -1.2250  1.6621
  950MOL0     H28250   8.446   4.621  10.965  0.2491 -0.8754  0.8140
  951MOL0     O28251   7.876   6.571   6.754 -0.2178  0.3216  0.4258
  951MOL0     C28252   7.861   6.497   6.652  0.0039 -0.9029  0.2640
  951MOL0     O28253   7.773   6.517   6.544 -0.8764  0.6835 -0.3574
  951MOL0     C28254   7.710   6.646   6.535  0.6529  0.0603 -0.5235
  951MOL0     C28255   7.575   6.651   6.477  0.0895  1.1582  0.1311
  951MOL0     C28256   7.504   6.764   6.467  0.4185 -0.2240  0.5714
  951MOL0     C28257   7.566   6.882   6.500 -0.8260 -0.0687  0.5472
  951MOL0     O28258   7.477   6.992   6.514 -0.2524  0.1831  0.6251
  951MOL0     C28259   7.452   7.059   6.631 -0.7985 -0.2618  0.3713
  951MOL0     C28260   7.424   7.200   6.584 -0.0100  0.8597 -0.8168
  951MOL0     C28261   7.542   7.287   6.520  0.5585  1.3437  0.5747
  951MOL0     C28262   7.504   7.430   6.520  0.6446  0.2396 -0.0355
  951MOL0     C28263   7.610   7.522   6.457 -0.4336  0.8648 -0.3127
  951MOL0     C28264   7.560   7.668   6.455  0.6738 -1.2227 -0.1378
  951MOL0     C28265   7.645   7.764   6.364 -0.1302  0.0277  0.1671
  951MOL0     C28266   7.567   7.902   6.379  0.0158 -0.0818 -0.4644
  951MOL0     N28267   7.634   8.016   6.311  0.6467 -0.1055  0.6552
  951MOL0     C28268   7.572   8.131   6.256  0.4438  0.9915 -0.3901
  951MOL0     C28269   7.671   8.211   6.217  0.8675 -0.1017 -0.1554
  951MOL0     C28270   7.653   8.344   6.141  0.9246  0.0984  0.0539
  951MOL0     C28271   7.519   8.414   6.171 -0.4839 -0.2819 -0.9616
  951MOL0     C28272   7.520   8.551   6.112  0.5711  0.7759 -0.3452
  951MOL0     C28273   7.536   8.554   5.954  0.5382  0.4154 -0.3643
  951MOL0     O28274   7.494   8.677   5.884  0.3176  0.0063  0.1409
  951MOL0     C28275   7.470   8.670   5.743  0.4341 -0.3666 -0.0509
  951MOL0     C28276   7.524   8.568   5.665 -0.3673 -1.0949  0.7372
  951MOL0     C28277   7.515   8.565   5.522  0.0199  0.7434  0.6085
  951MOL0     C28278   7.592   8.449   5.456 -0.1293  0.1339 -0.5665
  951MOL0     C28279   7.446   8.666   5.453 -0.7563 -0.3518  0.1440
  951MOL0     C28280   7.404   8.663   5.308  0.0067  0.7087  0.4554
  951MOL0     O28281   7.453   8.565   5.222  0.0047  0.0883  0.2432
  951MOL0     C28282   7.428   8.562   5.087  0.4653  0.3121 -0.4067
  951MOL0     C28283   7.539   8.536   5.002 -0.2215 -0.2944 -0.5144
  951MOL0     C28284   7.519   8.527   4.862  0.2741  0.0354  0.0842
  951MOL0     C28285   7.392   8.536   4.805 -0.2167  0.3539 -0.6909
  951MOL0     O28286   7.390   8.510   4.667 -0.1376 -0.2976 -0.3543
  951MOL0     C28287   7.277   8.443   4.618  0.6269 -0.2691 -0.9889
  951MOL0     C28288   7.267   8.438   4.462  0.5005 -0.1280 -0.6720
  951MOL0     C28289   7.248   8.570   4.373 -0.6709  0.6754 -0.2464
  951MOL0     C28290   7.145   8.665   4.424  0.6247  0.7882  0.4869
  951MOL0     C28291   7.162   8.806   4.367 -0.8368 -0.8822  0.7180
  951MOL0     C28292   7.141   8.807   4.207  0.6568  0.9374  0.5839
  951MOL0     C28293   7.119   8.950   4.150 -0.2870  0.9934 -0.7312
  951MOL0     C28294   7.092   8.960   3.995 -0.0680  0.5681  0.3579
  951MOL0    Cl28295   7.075   9.128   3.936  0.4258  0.2489  0.4055
  951MOL0     C28296   7.282   8.551   4.888 -0.0129  0.0888  0.0498
  951MOL0     C28297   7.304   8.557   5.029  0.2017 -0.1004  1.1803
  951MOL0     O28298   7.318   8.744   5.281 -1.0464  0.1875  0.4274
  951MOL0     C28299   7.392   8.779   5.530  0.3078 -0.0593 -1.3633
  951MOL0     C28300   7.402   8.771   5.674 -0.2142  0.9638 -0.2677
  951MOL0     N28301   7.794   8.153   6.260  0.7819 -0.0378  0.0214
  951MOL0     N28302   7.768   8.034   6.313 -0.9410  0.7405 -0.2443
  951MOL0     C28303   7.693   6.887   6.549  0.1387  0.3380  0.0660
  951MOL0     C28304   7.766   6.769   6.567  0.1065  0.1252  0.1366
  951MOL0     C28305   7.958   6.387   6.633  1.6103  0.4058  0.8283
  951MOL0     C28306   8.016   6.329   6.743 -0.1709 -0.0766  0.6926
  951MOL0     C28307   8.107   6.221   6.736 -0.3964  0.5739  0.6612
  951MOL0     C28308   8.127   6.161   6.610 -0.8391  1.0867  0.4324
  951MOL0     O28309   8.197   6.036   6.603 -0.4293 -0.3572 -0.4192
  951MOL0     C28310   8.332   6.041   6.549  0.7224  0.5851 -0.1767
  951MOL0     C28311   8.424   5.923   6.613 -0.1916 -0.3503  0.4799
  951MOL0     C28312   8.516   5.975   6.719  0.5077 -0.0290 -0.5065
  951MOL0     C28313   8.633   5.878   6.751 -0.4918 -0.0312 -0.2373
  951MOL0     C28314   8.603   5.736   6.759 -0.1928 -0.0851 -0.2020
  951MOL0     C28315   8.607   5.617   6.751 -0.3680  0.4570  0.8352
  951MOL0     C28316   8.070   6.219   6.498 -0.8164 -1.0814  0.3780
  951MOL0     C28317   7.994   6.328   6.507  0.6411 -0.8871 -0.3424
  951MOL0     H28318   7.537   6.552   6.452  3.4900 -0.8951  2.1894
  951MOL0     H28319   7.406   6.768   6.420  0.5170  0.0046  0.3846
  951MOL0     H28320   7.371   7.004   6.679  0.5275 -0.0544  3.0923
  951MOL0     H28321   7.527   7.054   6.712  0.0854  3.0243 -0.0977
  951MOL0     H28322   7.343   7.182   6.513 -1.0555 -0.3376  0.6223
  951MOL0     H28323   7.377   7.251   6.669 -0.4601  2.4800 -1.9856
  951MOL0     H28324   7.630   7.279   6.584  2.3474  3.5330 -1.4052
  951MOL0     H28325   7.555   7.251   6.417 -2.1217 -1.6752  1.1238
  951MOL0     H28326   7.402   7.443   6.481 -0.3730 -2.2358  1.5744
  951MOL0     H28327   7.494   7.467   6.623  2.8647 -0.0978  0.3342
  951MOL0     H28328   7.707   7.512   6.507  0.2688  2.6362 -1.2367
  951MOL0     H28329   7.636   7.481   6.359  1.3834  0.7890  0.1557
  951MOL0     H28330   7.465   7.667   6.401  1.5615 -1.2716 -1.7663
  951MOL0     H28331   7.544   7.718   6.551  1.0330  0.0084 -0.6965
  951MOL0     H28332   7.750   7.763   6.392  1.2990  0.2303 -4.4367
  951MOL0     H28333   7.637   7.729   6.261 -1.1365 -0.6540  0.4579
  951MOL0     H28334   7.550   7.937   6.482 -2.3347  0.9215 -1.1283
  951MOL0     H28335   7.462   7.890   6.351  0.3323  0.8467 -2.1716
  951MOL0     H28336   7.466   8.139   6.233  0.4866 -1.6841 -2.0164
  951MOL0     H28337   7.742   8.396   6.175  3.7959 -1.7438 -3.9452
  951MOL0     H28338   7.658   8.317   6.035  2.5982 -1.2382  0.4472
  951MOL0     H28339   7.502   8.424   6.278 -3.2878  2.4712 -1.5446
  951MOL0     H28340   7.441   8.350   6.128  0.3379 -1.9689 -0.0630
  951MOL0     H28341   7.601   8.604   6.164 -1.7354  1.0615  3.2960
  951MOL0     H28342   7.426   8.601   6.134 -1.4661 -1.8436 -2.3483
  951MOL0     H28343   7.483   8.469   5.910 -0.5378 -0.1831  1.9538
  951MOL0     H28344   7.638   8.529   5.924  0.2529  1.5045 -2.4419
  951MOL0     H28345   7.576   8.489   5.717 -0.1853 -0.2538  1.8711
  951MOL0     H28346   7.610   8.368   5.528  0.7099  0.5365 -0.3122
  951MOL0     H28347   7.534   8.399   5.378 -0.0119 -1.4154  0.2867
  951MOL0     H28348   7.689   8.479   5.416 -1.0752  1.2108 -2.1453
  951MOL0     H28349   7.636   8.508   5.041  0.1480 -0.1750 -1.3186
  951MOL0     H28350   7.600   8.494   4.798  2.6290  2.1705  1.7544
  951MOL0     H28351   7.264   8.343   4.659 -1.2874 -0.3222 -1.6137
  951MOL0     H28352   7.186   8.489   4.659 -0.5771 -1.4803 -2.1994
  951MOL0     H28353   7.353   8.383   4.422  1.7525  1.4773 -0.2985
  951MOL0     H28354   7.171   8.385   4.450  1.0289 -1.4076  0.4855
  951MOL0     H28355   7.224   8.540   4.271 -1.0480  0.0156  0.0267
  951MOL0     H28356   7.343   8.623   4.368 -0.4126  0.4472  1.4940
  951MOL0     H28357   7.047   8.620   4.406  1.3330 -1.8138  2.5728
  951MOL0     H28358   7.158   8.674   4.532 -4.5501  1.9553  1.2698
  951MOL0     H28359   7.257   8.858   4.381 -1.8406  1.0758  0.6964
  951MOL0     H28360   7.082   8.862   4.417 -1.7397 -1.1108 -0.4049
  951MOL0     H28361   7.234   8.773   4.160 -0.2013  1.3153 -1.5034
  951MOL0     H28362   7.061   8.736   4.185  1.2351 -0.2424  2.0726
  951MOL0     H28363   7.210   9.009   4.162  2.4708 -2.7647 -1.5783
  951MOL0     H28364   7.032   8.993   4.202 -0.6542  1.1189 -1.4361
  951MOL0     H28365   7.001   8.904   3.972  1.3966 -1.7095 -0.1536
  951MOL0     H28366   7.178   8.916   3.945  2.0551  3.1802  1.4671
  951MOL0     H28367   7.185   8.574   4.847  0.6031  4.0326  0.4481
  951MOL0     H28368   7.215   8.579   5.087 -1.6913  0.7525 -1.8351
  951MOL0     H28369   7.337   8.866   5.495  2.0214  1.9012  0.4780
  951MOL0     H28370   7.356   8.843   5.741 -2.2144  1.0655 -1.6450
  951MOL0     H28371   7.737   6.972   6.601 -2.8829  0.8894  2.0084
  951MOL0     H28372   7.868   6.756   6.603  0.3182 -0.6285 -0.7042
  951MOL0     H28373   7.983   6.370   6.838 -1.8821 -0.8772  0.4664
  951MOL0     H28374   8.143   6.174   6.827  1.5161  1.3593  0.3560
  951MOL0     H28375   8.324   6.007   6.445 -0.1308 -0.7559  0.3069
  951MOL0     H28376   8.378   6.139   6.565 -1.7685  2.1666 -1.9321
  951MOL0     H28377   8.484   5.868   6.540 -0.5900 -0.8578  0.5300
  951MOL0     H28378   8.349   5.857   6.657 -0.8458  0.9674  1.4134
  951MOL0     H28379   8.464   6.000   6.812  1.2170  2.3095 -0.6843
  951MOL0     H28380   8.556   6.073   6.693 -0.5651  1.5313  3.0249
  951MOL0     H28381   8.689   5.900   6.842 -2.0264  2.8636  0.1338
  951MOL0     H28382   8.701   5.903   6.670  0.3991 -0.1131  0.4689
  951MOL0     H28383   8.619   5.511   6.750 -3.3584  0.0315  0.9560
  951MOL0     H28384   8.096   6.167   6.406  3.2001 -1.6607  1.6222
  951MOL0     H28385   7.961   6.371   6.414  0.8729 -1.8902 -0.9009
  952MOL0     O28386   3.437   8.075  10.258 -0.0054 -0.3782 -0.1755
  952MOL0     C28387   3.502   8.045  10.159  0.2738 -0.3405  0.3976
  952MOL0     O28388   3.601   8.127  10.102  0.7817  0.6349 -0.0154
  952MOL0     C28389   3.642   8.252  10.153  1.1314 -0.4529  0.3343
  952MOL0     C28390   3.766   8.308  10.130 -0.6257 -0.8430 -0.3968
  952MOL0     C28391   3.816   8.433  10.181  0.0115 -0.3172 -0.3277
  952MOL0     C28392   3.717   8.515  10.241 -0.0066  0.2705 -0.3195
  952MOL0     O28393   3.756   8.630  10.306  0.0303 -0.2077  0.2098
  952MOL0     C28394   3.891   8.676  10.313  0.3045  0.2867 -0.2436
  952MOL0     C28395   3.985   8.582  10.390  0.1549 -0.2553 -0.6263
  952MOL0     C28396   4.130   8.605  10.343  0.6752 -0.8265 -0.0893
  952MOL0     C28397   4.223   8.499  10.420 -0.9131  0.1870 -0.0565
  952MOL0     C28398   4.356   8.464  10.348 -0.2143  0.5979  0.3107
  952MOL0     C28399   4.415   8.339  10.417  0.8217 -0.0379 -1.0783
  952MOL0     C28400   4.562   8.320  10.372 -0.2379  0.0473 -0.3116
  952MOL0     C28401   4.623   8.190  10.426  0.2838 -0.4720  0.3169
  952MOL0     N28402   4.637   8.177  10.562  1.2671 -0.1575 -0.7108
  952MOL0     C28403   4.737   8.227  10.648 -0.2623  0.2241 -0.4498
  952MOL0     C28404   4.704   8.171  10.768 -0.5550  0.1263 -1.1024
  952MOL0     C28405   4.771   8.202  10.906 -0.1884  0.0009 -0.6010
  952MOL0     C28406   4.706   8.139  11.028  0.3323  0.4843  0.1800
  952MOL0     C28407   4.719   7.984  11.041  0.8613  0.5242  0.1123
  952MOL0     C28408   4.866   7.944  11.040  0.0512  0.2449 -0.4823
  952MOL0     O28409   4.868   7.823  11.112  0.1205  0.7820 -0.7284
  952MOL0     C28410   4.936   7.707  11.063  0.2301 -0.2617  0.2112
  952MOL0     C28411   4.951   7.665  10.927  0.3088 -0.1837 -0.1125
  952MOL0     C28412   5.033   7.553  10.902 -0.6331 -0.5578  0.7124
  952MOL0     C28413   5.044   7.524  10.753  0.6829 -0.0541  0.5300
  952MOL0     C28414   5.098   7.475  11.001  0.3874 -0.0137 -0.0543
  952MOL0     C28415   5.181   7.363  10.980 -0.3314 -0.2796  0.9250
  952MOL0     O28416   5.285   7.350  11.070 -0.6421 -0.3323 -0.1907
  952MOL0     C28417   5.366   7.243  11.054  0.4564  0.3516  0.5493
  952MOL0     C28418   5.346   7.127  11.135 -0.2334  0.1950 -0.4388
  952MOL0     C28419   5.418   7.012  11.093 -0.6287  0.9211 -0.4839
  952MOL0     C28420   5.522   7.022  10.987  0.4209  0.8828  0.0265
  952MOL0     O28421   5.599   6.917  10.941 -0.5170  0.2711 -0.1615
  952MOL0     C28422   5.647   6.819  11.027 -0.1406 -0.3926 -0.0342
  952MOL0     C28423   5.763   6.745  10.950 -0.8311 -0.7709  0.5554
  952MOL0     C28424   5.859   6.863  10.918 -0.2772  0.3860 -0.6719
  952MOL0     C28425   5.990   6.811  10.857 -0.1101  0.3285 -0.2764
  952MOL0     C28426   6.081   6.927  10.819 -0.3751  0.1658 -0.2216
  952MOL0     C28427   6.198   6.867  10.743 -0.0352 -0.0078 -0.3429
  952MOL0     C28428   6.301   6.972  10.691 -0.8366 -0.6820 -0.2322
  952MOL0     C28429   6.413   6.915  10.612  0.3603  0.8560  0.1258
  952MOL0    Cl28430   6.494   7.039  10.510  0.2740 -0.1851  0.0450
  952MOL0     C28431   5.528   7.134  10.920 -0.5177 -0.2208  0.3859
  952MOL0     C28432   5.456   7.248  10.950 -0.2693 -0.1771  0.7913
  952MOL0     O28433   5.147   7.269  10.901  0.0707  0.3833  0.6069
  952MOL0     C28434   5.068   7.509  11.133  0.9787 -0.5885  0.7363
  952MOL0     C28435   4.998   7.628  11.157  0.3648  1.1412  0.7657
  952MOL0     N28436   4.604   8.088  10.754  0.1662  0.5887 -0.1415
  952MOL0     N28437   4.557   8.089  10.636 -0.3992 -0.5347 -0.1940
  952MOL0     C28438   3.582   8.472  10.251  0.1784 -0.0226 -0.5975
  952MOL0     C28439   3.548   8.343  10.206  0.0529 -1.5451  0.1699
  952MOL0     C28440   3.475   7.921  10.087  0.0601 -0.1419 -0.3659
  952MOL0     C28441   3.483   7.913   9.942 -0.8597 -0.1090  0.1795
  952MOL0     C28442   3.459   7.789   9.885 -0.5688  0.3808 -0.5286
  952MOL0     C28443   3.442   7.667   9.949  0.1988  0.0717  0.9514
  952MOL0     O28444   3.411   7.549   9.890 -0.3443 -0.9404  0.6759
  952MOL0     C28445   3.388   7.539   9.753 -0.0186  0.5207 -0.4981
  952MOL0     C28446   3.331   7.399   9.735  1.1762  0.5278 -0.1532
  952MOL0     C28447   3.431   7.286   9.707  0.2919  0.3684  0.5636
  952MOL0     C28448   3.368   7.145   9.727  0.4666  0.5545 -0.0222
  952MOL0     C28449   3.351   7.125   9.871 -0.2938  0.2693 -0.3265
  952MOL0     C28450   3.342   7.113   9.987 -0.2162  0.0095 -0.0955
  952MOL0     C28451   3.432   7.679  10.083 -1.4418  0.0656  0.4160
  952MOL0     C28452   3.455   7.797  10.152  0.0614 -0.1681 -0.4637
  952MOL0     H28453   3.835   8.250  10.070 -0.6058 -2.9014  1.5019
  952MOL0     H28454   3.914   8.465  10.148  0.1914 -1.8442 -1.3703
  952MOL0     H28455   3.930   8.701  10.214 -0.1839 -0.1984 -0.5659
  952MOL0     H28456   3.894   8.770  10.369 -0.8114 -0.7950  1.7303
  952MOL0     H28457   3.978   8.610  10.495  1.9542  2.2972 -1.0897
  952MOL0     H28458   3.962   8.476  10.376 -1.5374 -0.2816  1.6833
  952MOL0     H28459   4.126   8.586  10.235  2.5274  0.4918 -0.4493
  952MOL0     H28460   4.174   8.702  10.365  2.3192 -1.8907  1.7108
  952MOL0     H28461   4.231   8.534  10.524 -2.8789 -0.4054  0.3510
  952MOL0     H28462   4.166   8.405  10.425 -0.6131  0.0456  1.0663
  952MOL0     H28463   4.336   8.439  10.243 -0.1319  3.2741 -0.4069
  952MOL0     H28464   4.436   8.538  10.354  1.6977 -0.9716 -2.7984
  952MOL0     H28465   4.433   8.367  10.521  3.3162 -0.5637 -1.3059
  952MOL0     H28466   4.343   8.257  10.413  0.8927 -0.1282 -0.5098
  952MOL0     H28467   4.560   8.321  10.263 -1.9809 -0.7345 -0.3154
  952MOL0     H28468   4.625   8.403  10.406  1.0307  0.1097 -2.6546
  952MOL0     H28469   4.718   8.182  10.371 -0.2173 -2.5387 -0.3453
  952MOL0     H28470   4.558   8.104  10.408  1.4418 -2.0887  3.1205
  952MOL0     H28471   4.810   8.303  10.622  0.9049 -0.7731 -0.1457
  952MOL0     H28472   4.878   8.181  10.908  0.0361  1.0913  0.6469
  952MOL0     H28473   4.761   8.310  10.924  4.6888  0.8630 -1.5544
  952MOL0     H28474   4.600   8.166  11.025  1.2951  4.9942 -0.6652
  952MOL0     H28475   4.734   8.186  11.123 -1.1296  0.6884  0.5376
  952MOL0     H28476   4.682   7.924  10.957  1.4493  1.0176 -0.5123
  952MOL0     H28477   4.673   7.948  11.133  0.2204 -0.8505 -0.7130
  952MOL0     H28478   4.929   8.020  11.088 -0.5633 -0.9273  2.3643
  952MOL0     H28479   4.900   7.925  10.938 -1.1032  0.2208 -0.8770
  952MOL0     H28480   4.902   7.721  10.848 -0.1487 -0.7477 -0.2297
  952MOL0     H28481   4.992   7.435  10.715  3.2421 -0.3027 -2.8020
  952MOL0     H28482   4.985   7.601  10.701  2.0499  1.2923  0.8979
  952MOL0     H28483   5.146   7.531  10.714  0.4352 -1.4586 -0.4473
  952MOL0     H28484   5.273   7.128  11.216  1.6687 -2.9571  1.5372
  952MOL0     H28485   5.387   6.919  11.139 -1.2676  1.7748  0.8760
  952MOL0     H28486   5.676   6.877  11.116 -1.8467 -0.2240  0.4448
  952MOL0     H28487   5.578   6.740  11.057  0.7124 -0.8048  0.9373
  952MOL0     H28488   5.818   6.670  11.008  1.7783 -1.0268 -1.9994
  952MOL0     H28489   5.727   6.701  10.857  1.7692 -0.1583 -0.8158
  952MOL0     H28490   5.877   6.916  11.013  1.0489  0.0962 -0.7421
  952MOL0     H28491   5.809   6.928  10.846 -3.2570 -2.1098 -1.0395
  952MOL0     H28492   6.039   6.753  10.935  1.4824  0.7383 -0.9223
  952MOL0     H28493   5.965   6.753  10.768  0.2808 -0.3337  0.0428
  952MOL0     H28494   6.112   6.979  10.910  1.0510  0.5329 -0.8937
  952MOL0     H28495   6.030   6.988  10.744 -0.7468 -0.8291 -0.7923
  952MOL0     H28496   6.248   6.794  10.807 -0.5469  0.2557  0.3732
  952MOL0     H28497   6.162   6.819  10.652 -0.4351  2.1067 -1.3727
  952MOL0     H28498   6.350   7.031  10.769  0.7055  0.2849 -1.8495
  952MOL0     H28499   6.246   7.047  10.633 -0.8030 -0.5153 -0.0495
  952MOL0     H28500   6.375   6.843  10.539  1.5392 -0.4967  0.7918
  952MOL0     H28501   6.492   6.860  10.664 -2.8349 -1.7096  2.7250
  952MOL0     H28502   5.580   7.148  10.825 -1.5480  0.3603 -0.1059
  952MOL0     H28503   5.455   7.333  10.882 -1.0862 -1.3521 -0.7205
  952MOL0     H28504   5.112   7.454  11.215 -0.6639  0.1228  2.1592
  952MOL0     H28505   4.978   7.672  11.255 -0.2215  0.9145  0.7499
  952MOL0     H28506   3.512   8.542  10.296  0.5334  1.5976 -2.4294
  952MOL0     H28507   3.444   8.313  10.196 -0.3842 -0.2594  0.6703
  952MOL0     H28508   3.514   8.003   9.891 -0.0211  0.0417  0.9170
  952MOL0     H28509   3.456   7.784   9.777 -0.1446  2.4064 -0.6572
  952MOL0     H28510   3.312   7.611   9.721  0.2985 -0.3683 -3.5415
  952MOL0     H28511   3.474   7.546   9.686 -0.6692  0.6358 -1.3350
  952MOL0     H28512   3.268   7.400   9.646  1.4948 -0.3135 -0.3972
  952MOL0     H28513   3.278   7.371   9.827  0.4749 -1.5967 -1.1378
  952MOL0     H28514   3.508   7.297   9.784 -0.5973 -0.0598  1.5257
  952MOL0     H28515   3.478   7.284   9.608 -1.5618 -0.0758 -0.3498
  952MOL0     H28516   3.442   7.082   9.676  1.1029  1.2843 -0.0148
  952MOL0     H28517   3.271   7.139   9.677  0.4522 -1.1360  0.1534
  952MOL0     H28518   3.335   7.105  10.093  1.8360  1.0215  0.1558
  952MOL0     H28519   3.412   7.582  10.129 -0.0988 -0.7882 -0.6958
  952MOL0     H28520   3.461   7.805  10.261  1.2864  2.3036 -0.6317
  953MOL0     O28521   8.102   8.918   7.302  0.2590 -0.8382  0.3901
  953MOL0     C28522   8.118   8.926   7.424 -0.1225  0.7685  0.2465
  953MOL0     O28523   8.009   8.938   7.512  0.1196 -0.0930 -0.7289
  953MOL0     C28524   7.888   8.977   7.461 -0.8448  0.5621  0.4278
  953MOL0     C28525   7.779   8.907   7.500  0.4950 -1.4058  0.7060
  953MOL0     C28526   7.645   8.930   7.465  0.7067 -0.0939  0.5376
  953MOL0     C28527   7.620   9.039   7.380  0.5947  0.8620  0.2367
  953MOL0     O28528   7.493   9.026   7.339  0.0788  0.4888 -0.5822
  953MOL0     C28529   7.456   9.108   7.225  0.1842  0.1711  0.2401
  953MOL0     C28530   7.326   9.054   7.179  0.0375  0.2098  0.1176
  953MOL0     C28531   7.261   9.148   7.083  0.9461  0.3409 -0.5954
  953MOL0     C28532   7.105   9.127   7.094 -0.8006 -0.3283  0.8438
  953MOL0     C28533   7.046   9.244   7.014  0.9985 -0.1295 -0.1896
  953MOL0     C28534   6.892   9.244   7.016 -0.1798 -0.3680 -0.6334
  953MOL0     C28535   6.844   9.317   6.897 -0.1476 -0.4536 -0.1360
  953MOL0     C28536   6.869   9.467   6.887 -0.1007  0.4434 -0.5716
  953MOL0     N28537   6.793   9.534   6.784  0.3582  0.1877 -0.9027
  953MOL0     C28538   6.820   9.522   6.645  0.0105 -0.6946  0.4525
  953MOL0     C28539   6.719   9.588   6.580  0.0752 -1.1869  0.2314
  953MOL0     C28540   6.709   9.636   6.439 -0.5968 -0.3317 -1.1001
  953MOL0     C28541   6.571   9.609   6.375 -0.6972 -0.0039 -0.1803
  953MOL0     C28542   6.480   9.737   6.390  0.6633  0.0387  0.0711
  953MOL0     C28543   6.354   9.723   6.310  0.0213  1.0309  0.0826
  953MOL0     O28544   6.264   9.823   6.348  0.3476 -0.5045  0.1499
  953MOL0     C28545   6.141   9.788   6.388  0.1930  0.5083  0.2402
  953MOL0     C28546   6.058   9.691   6.330 -0.1009 -0.6098  0.6861
  953MOL0     C28547   5.934   9.649   6.378  0.1116  0.4349  0.1295
  953MOL0     C28548   5.855   9.539   6.305  0.1637 -0.5105  0.5396
  953MOL0     C28549   5.899   9.695   6.514  0.0994  0.2435  0.0145
  953MOL0     C28550   5.773   9.655   6.586 -0.2379  0.7738  0.2068
  953MOL0     O28551   5.784   9.665   6.721  0.9078 -0.2448 -0.1469
  953MOL0     C28552   5.673   9.640   6.800 -0.5170  0.3687 -0.4637
  953MOL0     C28553   5.604   9.522   6.771 -0.7021  0.0835 -0.3924
  953MOL0     C28554   5.476   9.504   6.837  0.6542 -0.3625 -0.6117
  953MOL0     C28555   5.419   9.590   6.934  0.2399 -0.3280  0.7013
  953MOL0     O28556   5.287   9.581   6.990  0.0248 -0.4730  0.2207
  953MOL0     C28557   5.267   9.591   7.129  0.4428 -0.0788 -0.4202
  953MOL0     C28558   5.152   9.682   7.168  0.2226  0.2269  0.0876
  953MOL0     C28559   5.019   9.634   7.118 -0.4032  0.3264 -0.3661
  953MOL0     C28560   4.976   9.489   7.155 -0.2390 -1.1667  0.2788
  953MOL0     C28561   4.840   9.445   7.109 -0.3425 -0.1335  0.3516
  953MOL0     C28562   4.733   9.526   7.177 -0.0756 -0.5527 -0.1031
  953MOL0     C28563   4.598   9.481   7.138  0.6210 -0.4213 -0.3947
  953MOL0     C28564   4.582   9.459   6.991  0.4528  0.1751  0.1704
  953MOL0    Cl28565   4.415   9.411   6.943 -0.3967  0.1883 -0.1786
  953MOL0     C28566   5.501   9.696   6.969 -0.7425 -0.5450  0.8019
  953MOL0     C28567   5.618   9.725   6.900 -0.4460  0.6008  0.0883
  953MOL0     O28568   5.675   9.628   6.527  0.2064  0.3255  0.1159
  953MOL0     C28569   5.984   9.790   6.570  0.0496  0.0520 -0.0539
  953MOL0     C28570   6.092   9.848   6.505 -0.8694 -0.1795 -0.0503
  953MOL0     N28571   6.637   9.643   6.673 -0.3594  0.8580 -0.6362
  953MOL0     N28572   6.689   9.618   6.796  0.3992  0.6651  0.5913
  953MOL0     C28573   7.729   9.108   7.340  0.4758 -0.4987 -0.6968
  953MOL0     C28574   7.864   9.082   7.377 -0.3543 -0.3220 -0.3586
  953MOL0     C28575   8.257   8.928   7.474  0.2930 -1.0570 -0.0128
  953MOL0     C28576   8.364   8.931   7.390  0.1832 -0.2756  0.5765
  953MOL0     C28577   8.493   8.921   7.449 -0.1459 -0.2782 -0.1627
  953MOL0     C28578   8.518   8.907   7.585 -0.2306 -0.6542  0.3633
  953MOL0     O28579   8.640   8.894   7.644  0.9694  0.4679 -0.3300
  953MOL0     C28580   8.747   8.840   7.557  0.5066  0.4638  0.4024
  953MOL0     C28581   8.873   8.809   7.631  0.7209  0.1765 -1.2633
  953MOL0     C28582   8.954   8.932   7.664 -0.3553  0.5132 -0.1388
  953MOL0     C28583   9.090   8.887   7.729 -0.9711  0.3209  0.0097
  953MOL0     C28584   9.140   8.988   7.814 -0.2825 -0.1475 -0.5555
  953MOL0     C28585   9.190   9.078   7.874  0.1987  0.5725 -0.8908
  953MOL0     C28586   8.402   8.915   7.668 -0.2532 -0.3807  0.6391
  953MOL0     C28587   8.274   8.929   7.617  0.3573  0.8700  0.4380
  953MOL0     H28588   7.811   8.821   7.558  1.1389 -2.8086 -1.6229
  953MOL0     H28589   7.563   8.862   7.483  2.3522 -2.7774 -1.2547
  953MOL0     H28590   7.456   9.216   7.246  0.6648  0.3267 -0.5167
  953MOL0     H28591   7.540   9.096   7.155  1.9803  0.5582  2.2201
  953MOL0     H28592   7.339   8.955   7.134 -2.0656 -0.7459  1.4538
  953MOL0     H28593   7.267   9.026   7.266  0.8439 -3.9626 -0.4936
  953MOL0     H28594   7.285   9.253   7.101 -1.7335  0.8008  0.8263
  953MOL0     H28595   7.283   9.123   6.979  1.4372 -3.1971  0.2298
  953MOL0     H28596   7.072   9.030   7.056 -2.2555  0.2798  0.4689
  953MOL0     H28597   7.083   9.136   7.201  1.3930  1.7603  1.2070
  953MOL0     H28598   7.076   9.343   7.051  0.2406  0.6109 -1.4660
  953MOL0     H28599   7.078   9.246   6.909 -0.6162 -0.4946 -0.7168
  953MOL0     H28600   6.847   9.145   7.010  0.2529 -0.4776 -3.8130
  953MOL0     H28601   6.862   9.288   7.112  0.4563  0.5735 -0.8529
  953MOL0     H28602   6.885   9.267   6.809 -0.2445 -1.5592  0.4292
  953MOL0     H28603   6.736   9.303   6.882  0.3862 -1.2472 -4.7437
  953MOL0     H28604   6.976   9.485   6.873  0.9216 -3.0023  1.4459
  953MOL0     H28605   6.832   9.516   6.978  2.7231  2.3839 -0.3569
  953MOL0     H28606   6.902   9.470   6.595  1.9204  2.5803 -0.1281
  953MOL0     H28607   6.738   9.742   6.438  1.6703 -0.8660  0.0868
  953MOL0     H28608   6.788   9.585   6.384  0.1249 -0.4624  0.0261
  953MOL0     H28609   6.521   9.521   6.418 -1.2150  0.6266  0.5331
  953MOL0     H28610   6.582   9.592   6.267 -0.2749 -2.6661  0.2022
  953MOL0     H28611   6.534   9.827   6.360 -2.9034  2.8471  1.3317
  953MOL0     H28612   6.443   9.741   6.493 -2.3992 -1.2862 -0.8755
  953MOL0     H28613   6.303   9.631   6.339  4.9549 -1.8419  0.8034
  953MOL0     H28614   6.380   9.743   6.206  1.1090 -0.1612  0.0997
  953MOL0     H28615   6.087   9.652   6.233 -0.5864  1.7078 -0.4622
  953MOL0     H28616   5.875   9.433   6.325 -1.5438 -1.4127 -1.9831
  953MOL0     H28617   5.747   9.556   6.310  0.1563 -0.8181  1.8487
  953MOL0     H28618   5.878   9.555   6.199 -1.0364 -0.3031  0.3056
  953MOL0     H28619   5.639   9.455   6.693  1.1143  2.6997 -1.9867
  953MOL0     H28620   5.422   9.412   6.815 -0.4879  0.1172  0.1122
  953MOL0     H28621   5.241   9.492   7.168 -0.3804 -0.4356 -1.7785
  953MOL0     H28622   5.358   9.616   7.185  0.4613 -2.2019  0.6011
  953MOL0     H28623   5.152   9.691   7.277  2.5698 -0.0044  0.1617
  953MOL0     H28624   5.179   9.784   7.139  1.4320  0.1326  0.8288
  953MOL0     H28625   5.015   9.632   7.008  0.8150 -1.4156 -0.4284
  953MOL0     H28626   4.948   9.706   7.157 -2.6190 -1.3579 -1.0788
  953MOL0     H28627   5.046   9.435   7.090  1.1659  1.0717 -0.1853
  953MOL0     H28628   4.989   9.473   7.262 -0.3842 -0.6088  0.3876
  953MOL0     H28629   4.815   9.345   7.148 -1.1434  0.1886  0.6866
  953MOL0     H28630   4.836   9.453   7.000  0.4672  0.7828  0.3798
  953MOL0     H28631   4.744   9.530   7.286  0.9930  0.8029 -0.2246
  953MOL0     H28632   4.745   9.631   7.146 -5.5574  0.0116 -1.2250
  953MOL0     H28633   4.532   9.558   7.180  0.0713 -0.0990 -1.8127
  953MOL0     H28634   4.572   9.388   7.190  1.4779 -0.1291  0.6056
  953MOL0     H28635   4.654   9.381   6.966  1.5912  1.4516 -0.6550
  953MOL0     H28636   4.602   9.551   6.935  0.0853  1.2886  1.7782
  953MOL0     H28637   5.449   9.762   7.037 -0.5609  0.1115  0.3167
  953MOL0     H28638   5.669   9.820   6.912 -0.0414  0.1359  2.3310
  953MOL0     H28639   5.962   9.844   6.661 -0.9842  0.5149 -0.5518
  953MOL0     H28640   6.149   9.922   6.560 -0.8533 -0.7949  0.7903
  953MOL0     H28641   7.711   9.188   7.268 -0.9210  1.0340  1.2391
  953MOL0     H28642   7.952   9.145   7.369 -0.4498 -0.1618 -0.1345
  953MOL0     H28643   8.353   8.942   7.282 -1.2726 -0.8647  0.6458
  953MOL0     H28644   8.569   8.909   7.373 -0.8293 -2.7806 -0.5495
  953MOL0     H28645   8.715   8.744   7.516  1.3042 -0.7424  2.4559
  953MOL0     H28646   8.762   8.908   7.473  0.5976 -1.5033 -1.2510
  953MOL0     H28647   8.931   8.755   7.555  2.2428  1.2420 -0.9173
  953MOL0     H28648   8.854   8.750   7.721  2.3890  1.1648 -0.2052
  953MOL0     H28649   8.897   8.997   7.731 -0.2308  0.3127  0.1643
  953MOL0     H28650   8.960   8.983   7.567  0.3160 -0.0636 -0.4087
  953MOL0     H28651   9.163   8.882   7.648  1.3555 -1.4660  2.0843
  953MOL0     H28652   9.097   8.791   7.781  0.4455 -0.1845 -1.0476
  953MOL0     H28653   9.236   9.161   7.924  1.2992 -0.7346  0.3521
  953MOL0     H28654   8.395   8.892   7.774 -2.9581 -1.5055  0.3223
  953MOL0     H28655   8.189   8.925   7.685 -1.8738  1.8434 -2.0909
  954MOL0     O28656   4.488   4.968   9.245  0.4215 -0.6676  0.8180
  954MOL0     C28657   4.568   4.949   9.335 -0.3664 -0.5334 -0.2382
  954MOL0     O28658   4.577   5.007   9.458 -1.1429  0.3095  0.4200
  954MOL0     C28659   4.494   5.110   9.491  0.1716  0.1132 -0.9101
  954MOL0     C28660   4.386   5.100   9.578  0.3896 -0.1627  0.5950
  954MOL0     C28661   4.313   5.209   9.620  0.1844 -0.7838  0.8540
  954MOL0     C28662   4.343   5.338   9.582 -0.4691  0.5876  0.6408
  954MOL0     O28663   4.256   5.442   9.606 -0.5290  0.7175 -0.8471
  954MOL0     C28664   4.299   5.564   9.651  0.7301  0.4020  0.5628
  954MOL0     C28665   4.166   5.642   9.681 -0.3847 -0.2738 -0.4164
  954MOL0     C28666   4.202   5.786   9.718 -0.6498  0.1682  0.2300
  954MOL0     C28667   4.085   5.876   9.724 -0.5857  0.3192  0.9898
  954MOL0     C28668   4.143   6.017   9.690  1.1091 -0.0498 -0.4564
  954MOL0     C28669   4.038   6.127   9.700 -0.1880 -0.2662 -0.8642
  954MOL0     C28670   4.070   6.220   9.813 -0.2402 -0.6594  0.8473
  954MOL0     C28671   3.961   6.321   9.849 -0.9174  1.0223  0.2299
  954MOL0     N28672   3.907   6.377   9.724  0.6259 -0.2728 -0.1859
  954MOL0     C28673   3.981   6.452   9.629  0.2434 -0.5952  0.3605
  954MOL0     C28674   3.872   6.494   9.546 -0.1760 -0.0668 -0.3445
  954MOL0     C28675   3.900   6.568   9.420  0.8919 -0.3861  0.6963
  954MOL0     C28676   3.867   6.719   9.430 -0.7371  0.1839  0.0301
  954MOL0     C28677   3.717   6.742   9.430 -0.0033 -0.2609 -0.0729
  954MOL0     C28678   3.689   6.894   9.449  0.5469 -0.6225  0.0099
  954MOL0     O28679   3.778   6.971   9.372 -0.8304  0.1088  1.0337
  954MOL0     C28680   3.809   7.104   9.408 -0.2508 -0.7768 -0.2699
  954MOL0     C28681   3.938   7.155   9.401  0.4424 -0.3318  0.2031
  954MOL0     C28682   3.965   7.294   9.425 -0.5706 -0.2743 -0.4472
  954MOL0     C28683   4.124   7.321   9.445 -0.2228  0.4595 -0.2011
  954MOL0     C28684   3.859   7.380   9.461 -0.2703  0.5763  1.4929
  954MOL0     C28685   3.880   7.522   9.489  0.5855  0.2876 -0.4320
  954MOL0     O28686   3.776   7.583   9.544 -0.4773  0.7846 -0.1636
  954MOL0     C28687   3.778   7.721   9.566 -0.1750  0.7908 -1.4945
  954MOL0     C28688   3.673   7.799   9.522 -0.8361  0.5982  0.8746
  954MOL0     C28689   3.658   7.930   9.555  0.3183 -0.5011 -1.6920
  954MOL0     C28690   3.742   7.987   9.651  1.3207 -0.5568 -0.7939
  954MOL0     O28691   3.731   8.121   9.667 -0.2210 -0.1273 -0.5784
  954MOL0     C28692   3.829   8.186   9.756  1.0102 -0.3908  0.0905
  954MOL0     C28693   3.801   8.340   9.749  0.2266 -0.6639 -0.4477
  954MOL0     C28694   3.657   8.385   9.795 -0.1345  0.4222 -0.4909
  954MOL0     C28695   3.651   8.544   9.803  0.0457 -0.6102 -0.1872
  954MOL0     C28696   3.694   8.606   9.664 -0.0300  0.5793  1.2899
  954MOL0     C28697   3.623   8.742   9.650  0.1127 -0.8927 -0.1219
  954MOL0     C28698   3.657   8.811   9.515 -1.9288  0.1761  0.0761
  954MOL0     C28699   3.606   8.743   9.389  0.5917 -0.2951 -0.4466
  954MOL0    Cl28700   3.746   8.705   9.273 -0.2173 -0.0226  0.3830
  954MOL0     C28701   3.851   7.906   9.708  0.9882  0.0237  0.5111
  954MOL0     C28702   3.866   7.773   9.671  0.1207  0.6910  0.3606
  954MOL0     O28703   3.987   7.576   9.449  0.5406 -1.1917  0.2724
  954MOL0     C28704   3.728   7.329   9.463 -0.2459 -0.4051  0.3356
  954MOL0     C28705   3.702   7.189   9.448 -1.5631 -0.6490  0.5766
  954MOL0     N28706   3.751   6.439   9.587  0.3414  0.0841 -1.0222
  954MOL0     N28707   3.772   6.377   9.702  0.5352 -0.3450 -0.2709
  954MOL0     C28708   4.464   5.356   9.506  0.5446 -0.9690 -0.7687
  954MOL0     C28709   4.527   5.245   9.451  0.3778  0.0415 -0.6680
  954MOL0     C28710   4.676   4.848   9.294 -0.0478 -0.5166 -0.6578
  954MOL0     C28711   4.778   4.821   9.390  0.5806 -0.3042 -0.1947
  954MOL0     C28712   4.879   4.727   9.369 -0.0152 -0.1230 -0.2970
  954MOL0     C28713   4.889   4.666   9.243 -0.6303  0.1863  0.0986
  954MOL0     O28714   4.998   4.582   9.234 -0.7437 -0.3168  0.0398
  954MOL0     C28715   5.018   4.513   9.106 -0.4638 -0.1290  0.3824
  954MOL0     C28716   5.157   4.448   9.083  0.4395  0.0994  0.3977
  954MOL0     C28717   5.281   4.536   9.100 -1.3364  0.2985 -0.0199
  954MOL0     C28718   5.324   4.633   8.984 -0.1342 -0.1187  0.9010
  954MOL0     C28719   5.469   4.674   9.005  0.1945 -0.4846 -0.4853
  954MOL0     C28720   5.579   4.717   9.039  0.9028  0.0401  1.0048
  954MOL0     C28721   4.803   4.707   9.143  0.1473 -0.0417  0.0551
  954MOL0     C28722   4.698   4.793   9.165 -0.5159  0.2165 -0.7182
  954MOL0     H28723   4.370   4.997   9.608  1.3683 -0.9334 -1.3338
  954MOL0     H28724   4.227   5.185   9.682 -2.1593 -0.3366 -2.0089
  954MOL0     H28725   4.363   5.551   9.739  0.1857 -2.3930  0.6384
  954MOL0     H28726   4.357   5.615   9.573 -0.6757  0.7024 -0.3318
  954MOL0     H28727   4.111   5.635   9.586  2.2785  1.0557 -2.2042
  954MOL0     H28728   4.104   5.601   9.761 -1.2149 -2.5014 -2.0960
  954MOL0     H28729   4.243   5.780   9.819 -3.8492 -2.3609  1.5467
  954MOL0     H28730   4.271   5.828   9.643  0.0619 -0.7451  0.3640
  954MOL0     H28731   4.000   5.850   9.660 -0.4235  0.2011  0.8210
  954MOL0     H28732   4.044   5.860   9.824  4.0215 -1.6709  2.8122
  954MOL0     H28733   4.222   6.044   9.760 -0.3692  0.4496  1.0976
  954MOL0     H28734   4.181   6.025   9.587  0.3606  1.7481 -0.6305
  954MOL0     H28735   4.049   6.189   9.610 -1.2226 -0.9377 -1.4790
  954MOL0     H28736   3.934   6.093   9.699  0.3223 -1.9371 -0.9499
  954MOL0     H28737   4.094   6.163   9.903 -1.6853 -3.7686 -0.5596
  954MOL0     H28738   4.148   6.284   9.773 -2.9478  0.1609 -3.9257
  954MOL0     H28739   3.998   6.398   9.918  2.4495 -2.3426  2.5906
  954MOL0     H28740   3.883   6.271   9.907  1.4650 -0.0329  2.7734
  954MOL0     H28741   4.087   6.475   9.616 -0.3276  3.7085  1.7329
  954MOL0     H28742   4.005   6.557   9.395  0.8880  1.3038 -0.2450
  954MOL0     H28743   3.842   6.526   9.337 -1.1856  0.8280  1.4323
  954MOL0     H28744   3.921   6.776   9.354  0.1918 -1.8123 -0.9001
  954MOL0     H28745   3.906   6.752   9.527 -0.7060  0.7231 -0.1652
  954MOL0     H28746   3.676   6.693   9.519  0.0718  1.5578  1.0306
  954MOL0     H28747   3.672   6.703   9.339  0.5451 -2.2626  0.4719
  954MOL0     H28748   3.700   6.925   9.554 -0.4736  1.2872 -0.3833
  954MOL0     H28749   3.591   6.914   9.404  1.0119  0.4351 -0.5584
  954MOL0     H28750   4.015   7.079   9.393  1.2816  0.4830  0.2652
  954MOL0     H28751   4.186   7.343   9.357  0.6906 -0.7102  0.1229
  954MOL0     H28752   4.157   7.407   9.503  3.4402 -0.8360 -0.1500
  954MOL0     H28753   4.167   7.235   9.496  1.6235 -1.5024 -4.5244
  954MOL0     H28754   3.602   7.743   9.462  0.6830 -2.3667  1.6379
  954MOL0     H28755   3.578   7.990   9.513 -1.1534 -0.8661  0.4370
  954MOL0     H28756   3.825   8.140   9.856 -1.1163 -2.0013 -0.6507
  954MOL0     H28757   3.930   8.179   9.717  1.7296  3.6997  0.7943
  954MOL0     H28758   3.870   8.380   9.823 -2.3029  1.0981  1.1063
  954MOL0     H28759   3.829   8.378   9.650  0.0011  2.1664  0.4906
  954MOL0     H28760   3.632   8.347   9.895  0.5570  1.2772  0.0198
  954MOL0     H28761   3.580   8.350   9.725  3.3236 -2.4833 -3.1889
  954MOL0     H28762   3.546   8.564   9.828 -0.2770 -0.4872 -1.5513
  954MOL0     H28763   3.726   8.571   9.877 -0.5544  1.1415 -0.1663
  954MOL0     H28764   3.669   8.536   9.584  0.6335 -0.0890  1.6539
  954MOL0     H28765   3.803   8.609   9.672 -0.0640  1.6119  1.4494
  954MOL0     H28766   3.515   8.732   9.665  0.0158 -3.5332 -1.8971
  954MOL0     H28767   3.669   8.803   9.728  3.3865 -4.3692  0.9732
  954MOL0     H28768   3.762   8.842   9.517 -1.5598 -0.9363  2.7641
  954MOL0     H28769   3.605   8.906   9.529  0.7345  1.6092  1.0835
  954MOL0     H28770   3.531   8.805   9.340  2.6083  2.8873  0.1762
  954MOL0     H28771   3.544   8.656   9.414  0.4143 -0.0725 -0.1183
  954MOL0     H28772   3.925   7.940   9.779  3.0396 -1.4681 -0.7885
  954MOL0     H28773   3.948   7.720   9.718 -1.5517 -0.5966  2.0022
  954MOL0     H28774   3.650   7.398   9.492 -0.3038 -0.8513  1.2748
  954MOL0     H28775   3.602   7.147   9.453 -1.8096 -0.7654 -2.8578
  954MOL0     H28776   4.503   5.454   9.478 -1.5042  1.1705  3.0517
  954MOL0     H28777   4.612   5.271   9.388 -0.6671  3.3579 -0.8807
  954MOL0     H28778   4.777   4.873   9.485  0.4102 -0.9360  0.1554
  954MOL0     H28779   4.950   4.711   9.449 -0.8410  0.0248  0.4851
  954MOL0     H28780   4.940   4.437   9.096  1.6277 -2.8684  2.9941
  954MOL0     H28781   5.012   4.588   9.027  3.9611  4.2687  3.6124
  954MOL0     H28782   5.170   4.398   8.986  2.5967  1.5464 -0.1333
  954MOL0     H28783   5.177   4.369   9.156  0.9327  0.1371  0.3050
  954MOL0     H28784   5.368   4.474   9.120  2.2268  4.4169 -1.1502
  954MOL0     H28785   5.262   4.588   9.194 -0.1145  0.0539  0.3713
  954MOL0     H28786   5.264   4.725   8.984 -1.2658 -0.8008 -0.5230
  954MOL0     H28787   5.310   4.580   8.889  0.1964 -1.1255  1.3919
  954MOL0     H28788   5.682   4.737   9.063  0.8180 -1.1174  2.4064
  954MOL0     H28789   4.803   4.658   9.046 -3.0911 -3.1441  1.4149
  954MOL0     H28790   4.629   4.813   9.084  1.0230  2.4712 -1.5547
  955MOL0     O28791  10.764   2.747   6.264 -0.8834 -0.1284 -0.0073
  955MOL0     C28792  10.866   2.819   6.256  0.2195  1.0822  0.1153
  955MOL0     O28793  10.979   2.773   6.202 -0.1428  0.7824 -0.7913
  955MOL0     C28794  10.976   2.650   6.142  0.1998 -0.1413 -0.5136
  955MOL0     C28795  10.991   2.550   6.233 -0.0470 -0.2118  0.4216
  955MOL0     C28796  10.990   2.412   6.196 -0.0624  1.0626  0.9133
  955MOL0     C28797  10.973   2.377   6.069  0.3801  0.4723 -0.5707
  955MOL0     O28798  10.969   2.243   6.030 -0.1324 -0.0069  0.3983
  955MOL0     C28799  11.044   2.147   6.108 -0.3315 -0.3248 -0.4746
  955MOL0     C28800  11.047   2.010   6.049 -0.8401  0.3013  0.5787
  955MOL0     C28801  10.927   1.925   6.102  0.7148  1.1990 -1.0770
  955MOL0     C28802  10.791   1.973   6.056 -0.3044  0.6913 -0.0531
  955MOL0     C28803  10.682   1.867   6.107  0.4744  0.5490  0.4404
  955MOL0     C28804  10.550   1.949   6.115  0.6798 -0.3031  0.0844
  955MOL0     C28805  10.434   1.859   6.158  0.3040  0.4199  0.0355
  955MOL0     C28806  10.312   1.920   6.221  0.5879 -0.0994 -0.3026
  955MOL0     N28807  10.206   1.965   6.129 -0.7512  0.0133 -0.1046
  955MOL0     C28808  10.220   2.084   6.047  0.1660  0.4780 -0.8648
  955MOL0     C28809  10.093   2.110   6.013  0.0329  0.9223 -0.2542
  955MOL0     C28810  10.057   2.229   5.930 -0.1103 -0.0015 -0.1417
  955MOL0     C28811  10.013   2.352   6.008  0.0404  0.5264  0.4110
  955MOL0     C28812  10.124   2.441   6.041  0.1901  0.0189 -0.2340
  955MOL0     C28813  10.083   2.539   6.147  0.0330 -0.7582 -0.4705
  955MOL0     O28814   9.971   2.620   6.108  0.3771  0.0968 -0.7095
  955MOL0     C28815   9.998   2.754   6.086 -0.3526 -0.0108 -0.2535
  955MOL0     C28816  10.049   2.796   5.957  0.1043  0.0238  0.1516
  955MOL0     C28817  10.041   2.933   5.925 -0.0621  0.4700  0.1417
  955MOL0     C28818  10.040   2.968   5.781 -0.0663  0.8563  0.0296
  955MOL0     C28819  10.008   3.029   6.023 -0.1771 -0.2313 -0.8348
  955MOL0     C28820  10.001   3.180   6.007 -0.6467 -0.1194  0.4281
  955MOL0     O28821   9.949   3.251   6.114  0.8472  0.3440  0.6274
  955MOL0     C28822   9.953   3.392   6.116 -0.0605 -0.0258  0.2682
  955MOL0     C28823   9.909   3.439   6.241  0.3905  0.1315  0.5920
  955MOL0     C28824   9.897   3.576   6.274 -0.3894  0.2634 -0.1114
  955MOL0     C28825   9.958   3.661   6.179 -0.3096  0.1212 -1.0270
  955MOL0     O28826   9.970   3.789   6.220 -0.1251  0.1908  0.1315
  955MOL0     C28827  10.017   3.887   6.129 -0.1371  1.5492 -0.0031
  955MOL0     C28828   9.996   4.029   6.181 -0.3120 -0.5179 -0.7938
  955MOL0     C28829   9.972   4.037   6.337  0.0984  0.2583  0.8864
  955MOL0     C28830  10.002   4.177   6.382  0.4192  0.6997  0.9104
  955MOL0     C28831   9.966   4.186   6.527 -0.2882 -0.4523 -0.4328
  955MOL0     C28832   9.978   4.333   6.574  0.2662  0.4560  0.6990
  955MOL0     C28833   9.937   4.352   6.727 -0.3450  0.2140  0.3810
  955MOL0     C28834   9.954   4.496   6.770 -0.7787 -0.1955  0.1399
  955MOL0    Cl28835  10.118   4.560   6.753 -0.3366 -0.4452 -0.0558
  955MOL0     C28836   9.998   3.623   6.054  0.4260 -0.3590 -0.7709
  955MOL0     C28837   9.994   3.488   6.022  0.2854 -1.0609  0.8954
  955MOL0     O28838  10.054   3.234   5.911  0.8766  0.3998  0.7537
  955MOL0     C28839   9.967   2.981   6.149 -0.5221 -0.4661  0.0458
  955MOL0     C28840   9.964   2.848   6.192  0.0203  0.3574 -0.3421
  955MOL0     N28841  10.008   2.008   6.051 -0.0491  0.2741  0.3341
  955MOL0     N28842  10.074   1.923   6.122  0.7162  0.0237 -0.3384
  955MOL0     C28843  10.972   2.480   5.971  0.4881 -0.6774  0.9821
  955MOL0     C28844  10.970   2.617   6.004 -0.3147  0.4047 -0.6908
  955MOL0     C28845  10.880   2.952   6.314  1.1369 -0.3954 -0.1677
  955MOL0     C28846  10.767   3.008   6.381 -0.4363 -1.2535  0.4282
  955MOL0     C28847  10.783   3.132   6.445 -0.0118 -0.6141  0.9011
  955MOL0     C28848  10.909   3.201   6.448 -0.4465  0.1352  0.1420
  955MOL0     O28849  10.918   3.325   6.507 -0.0161 -0.3199  0.0748
  955MOL0     C28850  10.804   3.396   6.557  0.8770 -0.1960  0.0408
  955MOL0     C28851  10.866   3.501   6.653  0.1655 -0.5703  0.4579
  955MOL0     C28852  10.749   3.568   6.741  0.3869  0.1864  0.1964
  955MOL0     C28853  10.790   3.697   6.812 -0.6402 -0.3373 -0.1414
  955MOL0     C28854  10.790   3.806   6.717  0.0943 -0.0363  0.1955
  955MOL0     C28855  10.796   3.893   6.635  0.1649  0.5735 -1.0108
  955MOL0     C28856  11.014   3.141   6.379 -0.4352  0.3170 -0.3591
  955MOL0     C28857  11.008   3.016   6.328  0.0513  0.4054  0.5031
  955MOL0     H28858  10.994   2.594   6.332  0.9759 -1.1261  0.8164
  955MOL0     H28859  10.994   2.347   6.283  2.0268  0.1133  0.1822
  955MOL0     H28860  11.145   2.187   6.101 -0.9326  1.3053 -0.3468
  955MOL0     H28861  11.018   2.146   6.214 -2.2003 -4.0841 -0.8289
  955MOL0     H28862  11.048   2.011   5.940  1.4416  1.4573  0.5675
  955MOL0     H28863  11.141   1.967   6.083 -0.4635 -1.4636 -2.3717
  955MOL0     H28864  10.944   1.824   6.063 -1.7628  0.5502 -0.6767
  955MOL0     H28865  10.932   1.921   6.211 -1.1431  0.9116 -0.9683
  955MOL0     H28866  10.759   2.072   6.088 -1.3914  0.6492 -0.9446
  955MOL0     H28867  10.791   1.984   5.947  1.4153  1.2360 -0.0180
  955MOL0     H28868  10.680   1.798   6.023 -1.7590  0.5396  0.4430
  955MOL0     H28869  10.702   1.818   6.202  0.7900 -1.8414 -0.7978
  955MOL0     H28870  10.562   2.027   6.190 -2.2423  1.0031 -0.6491
  955MOL0     H28871  10.524   1.989   6.016 -2.1048 -0.8624  0.5131
  955MOL0     H28872  10.392   1.809   6.070 -3.3010  1.2309  1.1124
  955MOL0     H28873  10.476   1.781   6.222  1.4770  1.5242  0.6469
  955MOL0     H28874  10.338   2.009   6.278  1.0034  0.5205 -1.4344
  955MOL0     H28875  10.263   1.847   6.287 -1.1463  0.2521 -1.1298
  955MOL0     H28876  10.308   2.144   6.027  1.6179 -0.1742  2.8028
  955MOL0     H28877  10.135   2.260   5.859  0.3630  0.4651  0.5763
  955MOL0     H28878   9.977   2.191   5.865 -0.1891 -2.7877  1.4095
  955MOL0     H28879   9.956   2.314   6.093  2.3709 -1.1020  1.3484
  955MOL0     H28880   9.953   2.406   5.934  1.5178  1.7797  0.0798
  955MOL0     H28881  10.143   2.501   5.952  2.5262  0.9238  0.7914
  955MOL0     H28882  10.212   2.385   6.072  0.0621 -0.3231 -0.4863
  955MOL0     H28883  10.158   2.617   6.159 -1.6223  0.7311  0.8081
  955MOL0     H28884  10.056   2.491   6.241 -2.4715  2.6555  0.7728
  955MOL0     H28885  10.075   2.727   5.878 -0.3890 -1.5154  1.2700
  955MOL0     H28886   9.941   3.013   5.768 -0.7914 -1.1069 -1.7965
  955MOL0     H28887  10.130   3.028   5.763  1.2144 -0.8958  0.3668
  955MOL0     H28888  10.052   2.885   5.710 -0.3325  2.1136 -1.5526
  955MOL0     H28889   9.878   3.364   6.312  2.6534 -3.3328 -1.7831
  955MOL0     H28890   9.864   3.606   6.373 -1.2751  0.8105 -0.5667
  955MOL0     H28891  10.123   3.863   6.114 -0.8223 -1.8969  0.0831
  955MOL0     H28892   9.970   3.872   6.032  0.6857 -0.9332 -0.0675
  955MOL0     H28893  10.072   4.099   6.147 -0.0841 -1.1712 -1.6615
  955MOL0     H28894   9.906   4.073   6.139 -1.3990  1.8907  3.4062
  955MOL0     H28895  10.045   3.968   6.380 -1.4760 -1.6644  0.6374
  955MOL0     H28896   9.877   3.991   6.365  1.0712 -2.4423  0.0264
  955MOL0     H28897  10.105   4.206   6.359 -0.3639  1.7294 -1.6709
  955MOL0     H28898   9.950   4.250   6.320  2.5364  0.1113 -1.7341
  955MOL0     H28899  10.031   4.124   6.590 -3.6401 -2.7267  1.1135
  955MOL0     H28900   9.867   4.143   6.546 -0.6082 -0.8819 -2.8289
  955MOL0     H28901  10.084   4.358   6.561  0.6575 -1.0456  0.8141
  955MOL0     H28902   9.915   4.391   6.506 -0.0229 -1.7110 -0.9987
  955MOL0     H28903  10.004   4.293   6.791 -0.2979 -0.8531 -0.6173
  955MOL0     H28904   9.833   4.319   6.733 -1.2841  2.5480 -1.4999
  955MOL0     H28905   9.928   4.503   6.876 -1.9883  2.1597 -0.2291
  955MOL0     H28906   9.890   4.557   6.705  1.5968  2.6637  0.2748
  955MOL0     H28907  10.028   3.696   5.979 -1.7101  1.5237  0.1025
  955MOL0     H28908  10.010   3.472   5.916  2.7240  1.9996  0.6497
  955MOL0     H28909   9.932   3.043   6.231 -3.1915 -0.7549 -0.8104
  955MOL0     H28910   9.907   2.819   6.279 -1.7134 -2.0036 -2.1163
  955MOL0     H28911  10.965   2.453   5.867  3.8616  2.6977 -0.3723
  955MOL0     H28912  10.968   2.692   5.926  3.6750  2.9231  1.2687
  955MOL0     H28913  10.671   2.958   6.372  1.3222 -4.7683 -0.7850
  955MOL0     H28914  10.695   3.170   6.496  1.3289  2.3940  1.2477
  955MOL0     H28915  10.749   3.446   6.477  1.9209 -0.9882 -1.2018
  955MOL0     H28916  10.742   3.337   6.625  2.5978 -0.5871  1.3387
  955MOL0     H28917  10.905   3.578   6.586  1.6023  0.7764  2.7469
  955MOL0     H28918  10.946   3.457   6.714 -0.4475 -0.6634  1.2131
  955MOL0     H28919  10.701   3.494   6.805 -0.3379 -1.4134 -2.0549
  955MOL0     H28920  10.679   3.602   6.664  0.2507  2.0772  1.0988
  955MOL0     H28921  10.886   3.700   6.864 -0.7191  1.3220 -0.0283
  955MOL0     H28922  10.709   3.717   6.882 -1.3592 -2.0941 -0.4241
  955MOL0     H28923  10.787   3.969   6.560 -3.4983  0.3274 -1.0354
  955MOL0     H28924  11.113   3.181   6.362  0.6746 -2.5145 -0.9368
  955MOL0     H28925  11.099   2.967   6.294  0.6159  1.6004  0.2635
  956MOL0     O28926   7.425   9.669   8.564 -0.2436 -0.5070  0.6129
  956MOL0     C28927   7.532   9.733   8.561  0.1461 -0.4307  0.0930
  956MOL0     O28928   7.554   9.859   8.543  1.0854  0.0434  0.1790
  956MOL0     C28929   7.453   9.944   8.521  0.1754  0.5106 -0.3007
  956MOL0     C28930   7.332   9.916   8.451  0.5176  0.1026  0.2821
  956MOL0     C28931   7.241  10.022   8.427 -0.3601 -0.5049 -1.2219
  956MOL0     C28932   7.268  10.147   8.477  0.1907 -0.4041 -0.7850
  956MOL0     O28933   7.167  10.245   8.467 -0.4788  0.5778  0.9147
  956MOL0     C28934   7.218  10.362   8.402  0.3878  0.1568 -0.0104
  956MOL0     C28935   7.104  10.413   8.305 -0.4633 -0.1784  0.7142
  956MOL0     C28936   7.069  10.308   8.198  0.5748  0.1216  0.5326
  956MOL0     C28937   7.168  10.280   8.090 -0.4170  0.8663 -0.5668
  956MOL0     C28938   7.221  10.397   8.010  0.1885  0.3632 -1.0560
  956MOL0     C28939   7.130  10.479   7.915 -0.2045 -0.0884 -0.0672
  956MOL0     C28940   7.206  10.590   7.832 -0.3029  0.0675  0.0915
  956MOL0     C28941   7.116  10.653   7.732 -0.4985 -0.3003 -0.6341
  956MOL0     N28942   7.181  10.770   7.666 -0.1096  0.2873  0.1245
  956MOL0     C28943   7.209  10.886   7.719 -0.6548 -0.4389 -0.0476
  956MOL0     C28944   7.276  10.958   7.622 -0.2869  0.3435  0.4012
  956MOL0     C28945   7.337  11.093   7.625  0.3987  0.7431  0.1286
  956MOL0     C28946   7.474  11.097   7.670 -0.0370 -0.6760 -0.5946
  956MOL0     C28947   7.498  11.010   7.790 -0.0650 -0.3620  0.0404
  956MOL0     C28948   7.644  11.016   7.838 -0.1397  0.4437 -0.1810
  956MOL0     O28949   7.713  11.140   7.794 -0.3570  0.4535 -0.2465
  956MOL0     C28950   7.841  11.164   7.850 -0.1296 -1.0276  0.1113
  956MOL0     C28951   7.923  11.077   7.918 -0.6901 -0.3458  0.6338
  956MOL0     C28952   8.049  11.116   7.971 -0.0197  0.0888 -0.0610
  956MOL0     C28953   8.128  11.005   8.029 -0.2388 -0.1048  0.0184
  956MOL0     C28954   8.091  11.254   7.967 -0.4219  0.5251 -0.1331
  956MOL0     C28955   8.219  11.305   8.026  0.3485 -0.3857 -0.4324
  956MOL0     O28956   8.239  11.440   8.014 -0.3203 -0.5147  0.0421
  956MOL0     C28957   8.325  11.511   8.097  0.2494  0.0444  0.6189
  956MOL0     C28958   8.381  11.631   8.053  0.0673 -0.9316 -0.4265
  956MOL0     C28959   8.460  11.716   8.128  0.7506 -0.2634  0.1132
  956MOL0     C28960   8.470  11.683   8.272  0.7841 -0.6640  0.5032
  956MOL0     O28961   8.541  11.756   8.361  1.1469  0.1889 -0.6886
  956MOL0     C28962   8.608  11.870   8.327 -0.1075  0.6952 -0.0431
  956MOL0     C28963   8.663  11.931   8.451 -0.4822 -0.6644 -0.7647
  956MOL0     C28964   8.786  12.005   8.413 -0.4451  0.0415  0.1842
  956MOL0     C28965   8.766  12.150   8.374  0.5377 -0.0730  1.0213
  956MOL0     C28966   8.869  12.214   8.278 -0.5811  0.2878  0.1675
  956MOL0     C28967   9.019  12.188   8.316  0.3758 -0.4492  0.9904
  956MOL0     C28968   9.111  12.297   8.259 -0.2844  0.4045  0.2919
  956MOL0     C28969   9.251  12.233   8.256 -0.5216 -1.2610 -0.7040
  956MOL0    Cl28970   9.309  12.190   8.425 -0.5133  0.3312  0.0807
  956MOL0     C28971   8.423  11.559   8.313  0.4607  0.4621  0.4710
  956MOL0     C28972   8.348  11.474   8.231 -0.0942 -0.4984 -0.3128
  956MOL0     O28973   8.279  11.228   8.095  0.2037 -0.6639  0.5951
  956MOL0     C28974   8.011  11.340   7.900 -0.6239 -0.5350 -0.2644
  956MOL0     C28975   7.885  11.300   7.837  0.2297  0.2149 -0.1023
  956MOL0     N28976   7.291  10.875   7.516  0.0067 -0.0118 -0.3360
  956MOL0     N28977   7.217  10.777   7.538 -0.2257  0.7207  0.2261
  956MOL0     C28978   7.379  10.166   8.555  0.7751 -0.1463 -0.5200
  956MOL0     C28979   7.470  10.067   8.578 -0.1456 -0.0028 -0.0559
  956MOL0     C28980   7.652   9.658   8.603 -0.5559  0.3529  0.7731
  956MOL0     C28981   7.633   9.578   8.707  0.9312  0.8473  0.1878
  956MOL0     C28982   7.733   9.491   8.742 -0.2009  0.1048  0.1411
  956MOL0     C28983   7.860   9.505   8.690  0.3014  0.6432 -0.2535
  956MOL0     O28984   7.952   9.426   8.760  0.1042  1.6300 -0.0255
  956MOL0     C28985   8.089   9.419   8.713  0.6637 -0.5864  0.3716
  956MOL0     C28986   8.172   9.502   8.809  0.0065 -0.2934  0.4463
  956MOL0     C28987   8.170   9.455   8.958 -0.7857 -0.5454  0.2887
  956MOL0     C28988   8.268   9.538   9.044  0.4119  0.3039  0.2535
  956MOL0     C28989   8.257   9.533   9.187  0.1074  0.2154  0.3415
  956MOL0     C28990   8.239   9.526   9.308  0.0591  0.2749 -0.1820
  956MOL0     C28991   7.886   9.587   8.587  1.3061  0.3214  0.3916
  956MOL0     C28992   7.781   9.669   8.545  0.1231  0.5910  0.2787
  956MOL0     H28993   7.315   9.826   8.392  1.2984 -0.3000  0.6506
  956MOL0     H28994   7.163   9.987   8.361  1.5441 -5.6269 -1.2101
  956MOL0     H28995   7.225  10.428   8.489  0.7222 -1.3036  1.1137
  956MOL0     H28996   7.317  10.356   8.356 -0.1860  0.7568 -1.3864
  956MOL0     H28997   7.021  10.443   8.368  1.3511 -0.0822  3.2215
  956MOL0     H28998   7.149  10.502   8.259  3.2754 -1.8721  0.7003
  956MOL0     H28999   7.045  10.212   8.245 -4.3877  0.7759 -0.1601
  956MOL0     H29000   6.979  10.341   8.145  0.9710  0.0974 -0.1642
  956MOL0     H29001   7.260  10.229   8.119 -1.1472  1.9635  4.8431
  956MOL0     H29002   7.123  10.210   8.019 -0.3986 -1.9981  2.0798
  956MOL0     H29003   7.268  10.467   8.080  0.4357  0.5379 -1.3951
  956MOL0     H29004   7.309  10.354   7.962  0.0914 -1.9712  0.6880
  956MOL0     H29005   7.083  10.412   7.844 -0.9476 -0.9112  1.1697
  956MOL0     H29006   7.054  10.529   7.976 -0.6479 -1.2249  0.3316
  956MOL0     H29007   7.240  10.672   7.895  1.5449 -0.3068 -0.3379
  956MOL0     H29008   7.298  10.561   7.781 -0.5997  1.5237 -1.3484
  956MOL0     H29009   7.020  10.680   7.777 -1.7352 -4.3400 -0.3992
  956MOL0     H29010   7.073  10.596   7.649  0.0032  2.6706 -3.1297
  956MOL0     H29011   7.191  10.923   7.820 -1.2460  2.1091 -1.0053
  956MOL0     H29012   7.323  11.139   7.526  1.3859 -3.0286 -1.9905
  956MOL0     H29013   7.293  11.163   7.696 -0.3190  3.5135 -2.8306
  956MOL0     H29014   7.489  11.202   7.697  0.3455 -1.0101  0.5535
  956MOL0     H29015   7.528  11.058   7.583 -1.7377 -3.6346 -0.4729
  956MOL0     H29016   7.472  10.905   7.773 -3.0434  0.1562  0.7510
  956MOL0     H29017   7.446  11.036   7.883  3.7193  3.4666  1.4111
  956MOL0     H29018   7.700  10.927   7.806 -0.8492  0.3102 -1.0869
  956MOL0     H29019   7.640  11.007   7.947 -2.0374 -0.7843 -0.2940
  956MOL0     H29020   7.917  10.969   7.907  0.3847 -0.5246  1.5828
  956MOL0     H29021   8.229  11.019   7.989 -0.2765 -0.1455 -0.0899
  956MOL0     H29022   8.128  11.031   8.135 -1.6898  2.0383 -0.4609
  956MOL0     H29023   8.085  10.905   8.015 -2.9963  0.8732  0.7911
  956MOL0     H29024   8.377  11.670   7.952  1.5416  0.1981 -0.0901
  956MOL0     H29025   8.521  11.791   8.079  2.2845 -0.9668  0.8476
  956MOL0     H29026   8.689  11.847   8.257  0.7884  1.5598  0.6864
  956MOL0     H29027   8.541  11.943   8.279  0.4369  2.6914  2.0751
  956MOL0     H29028   8.595  12.003   8.499  2.2478  1.1038  0.7180
  956MOL0     H29029   8.694  11.860   8.529  1.3876  1.9937  1.0825
  956MOL0     H29030   8.851  11.972   8.331  0.0530  1.8160 -0.1807
  956MOL0     H29031   8.854  11.999   8.498  2.2962 -1.5199 -1.9477
  956MOL0     H29032   8.661  12.154   8.342  1.1508  1.9367 -1.0049
  956MOL0     H29033   8.782  12.221   8.456  1.7278  1.1157 -0.2070
  956MOL0     H29034   8.849  12.320   8.292  1.0422  0.4113  1.9368
  956MOL0     H29035   8.852  12.181   8.174 -3.1158 -3.6384  1.5722
  956MOL0     H29036   9.032  12.194   8.425  0.8577 -2.0129  1.0397
  956MOL0     H29037   9.046  12.085   8.293  1.0943  0.2787 -1.7075
  956MOL0     H29038   9.103  12.385   8.323 -1.8476  1.1144 -0.8059
  956MOL0     H29039   9.086  12.333   8.159 -2.0491  1.9326  1.2333
  956MOL0     H29040   9.322  12.304   8.211  1.0231 -0.8968  2.0726
  956MOL0     H29041   9.242  12.148   8.188 -1.0580 -0.4812 -1.6389
  956MOL0     H29042   8.433  11.545   8.420 -0.6905  1.0242  0.6612
  956MOL0     H29043   8.320  11.375   8.266  2.1985 -1.0754 -0.0049
  956MOL0     H29044   8.022  11.448   7.900  1.6453 -0.6320  2.8081
  956MOL0     H29045   7.813  11.370   7.796 -2.1256 -3.0465 -2.0417
  956MOL0     H29046   7.381  10.261   8.607 -0.6629 -1.0224  1.2571
  956MOL0     H29047   7.554  10.094   8.641 -1.0622  0.6702  0.9042
  956MOL0     H29048   7.534   9.587   8.750  0.3945  5.7100 -1.5014
  956MOL0     H29049   7.717   9.421   8.823  0.6576  0.2477  0.4411
  956MOL0     H29050   8.130   9.318   8.704  1.5601 -0.2923  0.9713
  956MOL0     H29051   8.104   9.460   8.613 -2.1460 -1.9923 -0.7289
  956MOL0     H29052   8.151   9.609   8.811  1.9941  0.1185  1.8294
  956MOL0     H29053   8.273   9.483   8.773  0.2975  0.8795  0.6030
  956MOL0     H29054   8.208   9.352   8.960  2.3477  0.4553 -1.1500
  956MOL0     H29055   8.067   9.464   8.994  0.1144  1.8399  2.5615
  956MOL0     H29056   8.240   9.639   9.012  1.3245 -0.0192 -1.7582
  956MOL0     H29057   8.369   9.515   9.010 -0.0118  0.3086 -1.0696
  956MOL0     H29058   8.205   9.515   9.408 -2.4508 -0.5485 -1.0583
  956MOL0     H29059   7.984   9.603   8.542 -0.4101 -3.8851 -6.2307
  956MOL0     H29060   7.800   9.748   8.472  1.5642  1.4418  1.5253
  957MOL0     O29061   7.711   7.996   1.416 -0.6400  0.8111  0.3924
  957MOL0     C29062   7.755   7.941   1.318 -0.0224 -0.0192  0.6699
  957MOL0     O29063   7.871   7.964   1.268  0.7518  0.2571 -0.5381
  957MOL0     C29064   7.962   8.039   1.328  1.1081  0.7721 -0.3618
  957MOL0     C29065   8.048   8.111   1.246  0.0737  0.3253  0.1798
  957MOL0     C29066   8.156   8.184   1.302  0.6434  0.0387  0.2033
  957MOL0     C29067   8.173   8.192   1.441 -0.8315 -0.3250  1.5794
  957MOL0     O29068   8.269   8.269   1.502  0.1333 -0.0831 -0.1879
  957MOL0     C29069   8.393   8.296   1.435  0.1698 -0.2492 -0.4624
  957MOL0     C29070   8.510   8.327   1.526  0.5003 -0.0265 -0.8399
  957MOL0     C29071   8.620   8.343   1.432 -0.0017 -0.1056  0.0940
  957MOL0     C29072   8.712   8.226   1.397  0.4986  0.3221 -0.4600
  957MOL0     C29073   8.827   8.284   1.315  0.9898 -0.1307 -0.2463
  957MOL0     C29074   8.921   8.172   1.271 -0.2678  0.3875 -0.0650
  957MOL0     C29075   9.016   8.212   1.156 -0.0842  0.1578 -0.5767
  957MOL0     C29076   9.102   8.332   1.205 -0.0835  0.1718 -0.0682
  957MOL0     N29077   9.206   8.367   1.118  0.8954  0.1166 -0.1117
  957MOL0     C29078   9.194   8.485   1.047  0.6327  0.4640  0.4476
  957MOL0     C29079   9.300   8.467   0.955  0.1758 -1.5469  0.0613
  957MOL0     C29080   9.350   8.570   0.856  0.9509 -0.1449 -0.4465
  957MOL0     C29081   9.234   8.625   0.775  0.2880  0.0646 -0.3490
  957MOL0     C29082   9.289   8.741   0.684  0.3328 -0.4298 -0.4982
  957MOL0     C29083   9.182   8.768   0.581 -0.1437 -0.1865 -0.1347
  957MOL0     O29084   9.244   8.860   0.489  0.0732 -0.4547 -1.0727
  957MOL0     C29085   9.164   8.965   0.436 -0.4406  0.4278  0.4431
  957MOL0     C29086   9.031   8.957   0.393  0.6825 -0.1870  0.6357
  957MOL0     C29087   8.954   9.067   0.337  0.7135  0.4113 -0.3740
  957MOL0     C29088   8.811   9.035   0.303  0.6211  0.1523  0.2212
  957MOL0     C29089   9.026   9.187   0.328  0.2138  0.5659 -0.5501
  957MOL0     C29090   8.969   9.304   0.268  0.2720 -0.3898 -0.3494
  957MOL0     O29091   9.039   9.416   0.250  0.2423  0.3505 -0.0033
  957MOL0     C29092   8.977   9.535   0.220 -0.6375  1.1580  0.4493
  957MOL0     C29093   8.960   9.552   0.073  0.0742 -1.2072 -0.5984
  957MOL0     C29094   8.870   9.650   0.043  0.9245 -0.2569  0.3280
  957MOL0     C29095   8.826   9.755   0.121  0.2648 -0.4414 -0.6554
  957MOL0     O29096   8.742   9.858   0.085  0.0973  0.3371  0.2341
  957MOL0     C29097   8.713   9.886  -0.054  0.1466 -1.1789  0.0367
  957MOL0     C29098   8.578   9.971  -0.067  0.9243  0.6920  0.4641
  957MOL0     C29099   8.462   9.886  -0.014 -0.1941 -0.2879 -0.0197
  957MOL0     C29100   8.335   9.948  -0.052  0.9718 -0.8475  0.1570
  957MOL0     C29101   8.219   9.913   0.046  0.2010 -0.5642  0.0695
  957MOL0     C29102   8.084   9.973   0.007  0.3760  0.1490 -0.0167
  957MOL0     C29103   7.969   9.922   0.105  0.0188  0.1761  0.2863
  957MOL0     C29104   7.991   9.958   0.256  0.0058  0.9967  0.1732
  957MOL0    Cl29105   7.981  10.125   0.277  0.2188  0.1479 -0.4772
  957MOL0     C29106   8.855   9.739   0.258 -0.3378 -0.1252 -0.9841
  957MOL0     C29107   8.918   9.621   0.307  0.5157 -0.9860  0.2876
  957MOL0     O29108   8.849   9.303   0.250 -0.4053 -1.4567 -0.7252
  957MOL0     C29109   9.158   9.199   0.383  0.8280  0.6497  0.7450
  957MOL0     C29110   9.230   9.089   0.435 -0.3989 -0.0148  0.1425
  957MOL0     N29111   9.357   8.353   0.983 -0.0392  1.1175  0.7920
  957MOL0     N29112   9.298   8.285   1.073 -0.4325  0.6046  0.0448
  957MOL0     C29113   8.094   8.112   1.511  0.3544 -0.1726 -0.2913
  957MOL0     C29114   7.991   8.039   1.462 -0.2696  0.4063 -0.0055
  957MOL0     C29115   7.663   7.855   1.244 -0.8532  0.4057 -0.6099
  957MOL0     C29116   7.707   7.764   1.144  0.7523 -0.3093  0.3958
  957MOL0     C29117   7.612   7.700   1.070 -0.7613 -0.2420  0.3152
  957MOL0     C29118   7.474   7.708   1.097  0.2294  0.0968 -0.6911
  957MOL0     O29119   7.396   7.630   1.021  0.5538  0.8776 -0.0857
  957MOL0     C29120   7.255   7.621   1.042 -0.8458 -0.8434  0.7403
  957MOL0     C29121   7.186   7.533   0.932 -0.2109 -0.3079 -0.1715
  957MOL0     C29122   7.246   7.391   0.898 -0.1452 -0.5052 -0.7817
  957MOL0     C29123   7.227   7.295   1.023  0.0677 -0.0499  0.3232
  957MOL0     C29124   7.333   7.307   1.120  0.1127 -0.0588 -0.0976
  957MOL0     C29125   7.409   7.318   1.223  0.2921 -0.6582  0.2633
  957MOL0     C29126   7.438   7.783   1.212 -0.1495  1.6097  0.4669
  957MOL0     C29127   7.528   7.857   1.279 -0.8434  0.3700 -0.4522
  957MOL0     H29128   8.026   8.118   1.140  1.1035  0.4147 -0.0393
  957MOL0     H29129   8.202   8.259   1.237 -0.5929 -0.4812 -1.3368
  957MOL0     H29130   8.425   8.202   1.388 -1.1485 -0.8369 -0.2414
  957MOL0     H29131   8.383   8.379   1.364  0.0691  2.7624  2.8148
  957MOL0     H29132   8.480   8.421   1.574  1.0706  0.9554 -2.3215
  957MOL0     H29133   8.530   8.245   1.596 -3.1028 -2.1013 -1.9796
  957MOL0     H29134   8.590   8.382   1.335 -1.7856 -1.1868  0.1730
  957MOL0     H29135   8.693   8.420   1.459  4.3244 -3.7214  0.1024
  957MOL0     H29136   8.752   8.173   1.483 -0.4420 -0.0644 -0.2474
  957MOL0     H29137   8.656   8.150   1.341 -0.7758 -1.3929  2.8965
  957MOL0     H29138   8.784   8.332   1.227 -3.2991  1.5264  2.4376
  957MOL0     H29139   8.882   8.370   1.354  1.1982  0.5182 -1.8780
  957MOL0     H29140   8.987   8.147   1.354 -0.0597 -3.2532 -1.1541
  957MOL0     H29141   8.881   8.071   1.257  0.8651 -0.0548 -0.2127
  957MOL0     H29142   9.077   8.122   1.138 -0.3622  0.1646 -1.6101
  957MOL0     H29143   8.958   8.230   1.065 -2.5867 -0.4873  0.7883
  957MOL0     H29144   9.146   8.305   1.301  1.0167  1.1581 -0.2737
  957MOL0     H29145   9.034   8.417   1.220  0.7807  0.5712  1.8232
  957MOL0     H29146   9.122   8.566   1.055  1.9938  1.6322  1.3004
  957MOL0     H29147   9.404   8.645   0.914  1.5278 -2.1053  1.7547
  957MOL0     H29148   9.424   8.527   0.788  2.0541  0.8086  0.1089
  957MOL0     H29149   9.154   8.663   0.839 -1.0795 -0.1597 -1.8698
  957MOL0     H29150   9.201   8.536   0.720  0.9751  0.0719 -0.7887
  957MOL0     H29151   9.392   8.719   0.654  1.7215  0.6299  2.9497
  957MOL0     H29152   9.301   8.829   0.748 -2.5841 -0.9624  0.9424
  957MOL0     H29153   9.091   8.796   0.634 -0.3101  2.2217 -1.5922
  957MOL0     H29154   9.155   8.675   0.530 -0.3388  1.6463 -3.6559
  957MOL0     H29155   8.976   8.870   0.427 -1.1765  0.9405  0.6704
  957MOL0     H29156   8.787   9.047   0.197  1.6931 -1.2693 -0.2254
  957MOL0     H29157   8.790   8.931   0.332  3.5201  0.1553  2.9537
  957MOL0     H29158   8.760   9.112   0.361  3.0558  0.8545  1.5855
  957MOL0     H29159   9.001   9.476   0.007  3.1133  0.7170 -1.1108
  957MOL0     H29160   8.840   9.647  -0.061  0.5799 -0.1635  0.4242
  957MOL0     H29161   8.797   9.942  -0.095  0.1117  0.1841  1.7046
  957MOL0     H29162   8.696   9.797  -0.115  1.8512 -2.4095  1.2621
  957MOL0     H29163   8.577  10.070  -0.020 -1.4826  0.6709  0.5481
  957MOL0     H29164   8.557   9.993  -0.172 -0.0462 -2.5413 -0.1352
  957MOL0     H29165   8.473   9.888   0.095  1.7818  3.6539 -0.1215
  957MOL0     H29166   8.460   9.786  -0.058 -0.4597 -0.7635  1.0377
  957MOL0     H29167   8.344  10.054  -0.074 -1.6315 -0.6594 -0.4351
  957MOL0     H29168   8.289   9.908  -0.143 -1.0518  1.3144  0.1329
  957MOL0     H29169   8.242   9.969   0.137  0.3102 -0.7014  0.1262
  957MOL0     H29170   8.217   9.804   0.056  4.6019 -0.7537  0.8781
  957MOL0     H29171   8.086  10.082   0.005  1.5495  0.1307 -0.2058
  957MOL0     H29172   8.074   9.927  -0.092  0.5431  0.5697 -0.2296
  957MOL0     H29173   7.966   9.813   0.098  4.3684 -0.1521  0.9885
  957MOL0     H29174   7.884   9.969   0.054  1.6648  2.9132 -0.1500
  957MOL0     H29175   8.090   9.915   0.276 -0.7435 -1.1479 -0.3651
  957MOL0     H29176   7.921   9.919   0.330  1.4085 -2.1673  0.0005
  957MOL0     H29177   8.810   9.805   0.331 -1.0971  1.4567 -2.8058
  957MOL0     H29178   8.930   9.595   0.412  1.1370  0.5274  0.6232
  957MOL0     H29179   9.209   9.294   0.376  2.2513  0.0227  1.9571
  957MOL0     H29180   9.333   9.094   0.468 -0.6536  2.0973  0.7747
  957MOL0     H29181   8.118   8.107   1.617 -0.5986 -1.2360 -0.1045
  957MOL0     H29182   7.932   7.963   1.513 -0.2542 -2.0101 -3.3165
  957MOL0     H29183   7.813   7.758   1.123  1.0971  0.4948  1.7758
  957MOL0     H29184   7.655   7.643   0.988  0.4031  0.4116  0.4484
  957MOL0     H29185   7.231   7.562   1.131 -1.2729 -7.0206 -2.9317
  957MOL0     H29186   7.210   7.721   1.039  0.2713 -0.1949  3.0091
  957MOL0     H29187   7.190   7.592   0.840  0.4522 -0.6586 -0.3660
  957MOL0     H29188   7.084   7.508   0.964 -0.2436 -2.7870 -1.8998
  957MOL0     H29189   7.349   7.419   0.872 -0.9128  3.4619 -0.2360
  957MOL0     H29190   7.203   7.341   0.811  1.0550 -2.9059 -0.0644
  957MOL0     H29191   7.227   7.196   0.976 -1.4656 -0.5193  1.2371
  957MOL0     H29192   7.131   7.299   1.076  0.4998 -3.3600  1.5611
  957MOL0     H29193   7.486   7.332   1.296  1.5501  0.0135 -1.1309
  957MOL0     H29194   7.331   7.787   1.231 -1.1060 -0.8243 -3.3556
  957MOL0     H29195   7.494   7.925   1.356 -0.2810  0.9864 -0.7420
  958MOL0     O29196   4.856   6.357   6.591  0.7873 -0.2896  0.6515
  958MOL0     C29197   4.785   6.273   6.641  0.6049 -0.5390  0.8358
  958MOL0     O29198   4.744   6.271   6.774 -0.0318  0.0678 -1.0020
  958MOL0     C29199   4.804   6.367   6.854 -0.3660  0.3301  1.3686
  958MOL0     C29200   4.780   6.502   6.851  0.7542 -0.0004 -0.3054
  958MOL0     C29201   4.829   6.588   6.943 -0.6869  0.4097  0.0225
  958MOL0     C29202   4.922   6.549   7.046  0.3767 -0.2708 -0.3733
  958MOL0     O29203   4.996   6.628   7.140  0.4198 -1.1393  0.0395
  958MOL0     C29204   4.947   6.750   7.186  0.2553 -0.8907 -1.2663
  958MOL0     C29205   5.025   6.778   7.317  0.1287 -0.3865 -0.2555
  958MOL0     C29206   4.989   6.915   7.376 -0.7525  0.1402  0.2607
  958MOL0     C29207   5.056   6.926   7.514 -0.1027 -0.5755 -0.1099
  958MOL0     C29208   5.020   7.053   7.591  0.3672 -0.6909  0.7260
  958MOL0     C29209   5.046   7.030   7.744  0.6448  0.2637  0.4654
  958MOL0     C29210   4.967   7.123   7.834  0.3474 -0.1948  0.1378
  958MOL0     C29211   5.035   7.260   7.835  0.8941  0.2737  0.8788
  958MOL0     N29212   4.989   7.357   7.940  0.5497  0.2794 -0.2173
  958MOL0     C29213   5.063   7.463   7.996  0.1322  0.0640  0.5641
  958MOL0     C29214   4.964   7.534   8.072  0.0630  0.7058 -0.7882
  958MOL0     C29215   4.994   7.639   8.181 -0.1023  0.3473 -0.5626
  958MOL0     C29216   4.972   7.777   8.128  0.2301 -0.1355  0.4662
  958MOL0     C29217   4.986   7.879   8.243  0.0925 -0.0914  0.3024
  958MOL0     C29218   4.936   8.019   8.201 -0.6614  0.1951  0.3188
  958MOL0     O29219   4.905   8.093   8.319  0.1228 -0.1716  0.5828
  958MOL0     C29220   4.860   8.224   8.298 -0.3202 -0.2013 -0.0614
  958MOL0     C29221   4.779   8.266   8.403 -1.1070 -0.6876 -0.2072
  958MOL0     C29222   4.713   8.386   8.384  0.7791  0.0537 -0.4293
  958MOL0     C29223   4.625   8.433   8.495 -0.2285  0.3793 -0.4880
  958MOL0     C29224   4.742   8.470   8.272  0.0078 -0.1904  0.8151
  958MOL0     C29225   4.667   8.598   8.242 -0.5159 -1.2076 -0.3732
  958MOL0     O29226   4.702   8.692   8.131  0.8288 -0.6436 -0.3791
  958MOL0     C29227   4.614   8.793   8.092  0.2136  0.0602 -1.4161
  958MOL0     C29228   4.496   8.761   8.028  0.5556  0.2314  0.0821
  958MOL0     C29229   4.401   8.856   7.997  0.0585 -0.0729  0.9188
  958MOL0     C29230   4.418   8.989   8.043  0.2074 -0.6415  0.3533
  958MOL0     O29231   4.313   9.077   8.021  0.0607  1.1030 -0.4343
  958MOL0     C29232   4.334   9.209   8.070  0.2679 -0.2332  0.0189
  958MOL0     C29233   4.196   9.271   8.073  0.6255  1.1834 -0.5240
  958MOL0     C29234   4.129   9.278   7.925 -0.7811 -0.0502 -0.0649
  958MOL0     C29235   3.990   9.330   7.930 -0.3784  0.0866 -0.1390
  958MOL0     C29236   3.923   9.298   7.797  0.7404 -0.3168  0.0852
  958MOL0     C29237   3.777   9.357   7.779 -0.4078  0.5155 -0.9781
  958MOL0     C29238   3.728   9.358   7.641 -0.1009 -0.6125  0.5232
  958MOL0     C29239   3.583   9.409   7.621  0.5107 -0.1349 -0.1731
  958MOL0    Cl29240   3.465   9.268   7.653 -0.0798  0.0484 -0.2087
  958MOL0     C29241   4.541   9.021   8.108 -0.2432 -0.6437  0.0935
  958MOL0     C29242   4.642   8.924   8.130  0.3903 -0.0677  0.4398
  958MOL0     O29243   4.576   8.619   8.322 -0.8630 -0.6503  0.8621
  958MOL0     C29244   4.832   8.426   8.171  0.7938 -0.2999 -0.3977
  958MOL0     C29245   4.891   8.302   8.184  0.4282 -0.1073 -0.9242
  958MOL0     N29246   4.842   7.484   8.033  0.5819 -1.4505  0.2505
  958MOL0     N29247   4.856   7.378   7.960 -0.5818 -0.1802  0.4403
  958MOL0     C29248   4.953   6.415   7.051  0.2604  0.4148 -0.5715
  958MOL0     C29249   4.888   6.325   6.956 -0.2659 -0.3703  0.0163
  958MOL0     C29250   4.729   6.157   6.551  1.0805  0.9870 -0.1239
  958MOL0     C29251   4.764   6.155   6.409  0.1135 -0.0884  0.1382
  958MOL0     C29252   4.717   6.048   6.327  0.7503 -0.3363 -0.0971
  958MOL0     C29253   4.642   5.946   6.381  0.3676  0.3044  0.3633
  958MOL0     O29254   4.564   5.849   6.311 -0.2808 -0.5353 -0.7535
  958MOL0     C29255   4.566   5.835   6.166  0.6394 -0.4528  0.2210
  958MOL0     C29256   4.488   5.715   6.113  0.2843 -0.1995  0.3269
  958MOL0     C29257   4.568   5.593   6.147  0.5523  0.3432 -0.4424
  958MOL0     C29258   4.587   5.495   6.035 -0.3629  0.5635 -0.7213
  958MOL0     C29259   4.670   5.546   5.930  0.5610  0.4964 -0.1437
  958MOL0     C29260   4.728   5.589   5.834 -0.7638 -0.7340  0.2910
  958MOL0     C29261   4.620   5.950   6.522  0.5473  0.6355  0.7298
  958MOL0     C29262   4.668   6.046   6.609 -0.0140 -0.1376 -0.6012
  958MOL0     H29263   4.724   6.558   6.777  0.8651  1.1622  0.4639
  958MOL0     H29264   4.805   6.694   6.946 -1.9756  0.2650  5.6228
  958MOL0     H29265   4.973   6.822   7.108 -0.0004 -1.0469 -1.4984
  958MOL0     H29266   4.840   6.746   7.206  0.1626  0.7797 -1.2932
  958MOL0     H29267   5.016   6.704   7.398  1.6490  0.2861  0.5771
  958MOL0     H29268   5.129   6.765   7.285  0.6331 -2.6468  1.9584
  958MOL0     H29269   5.029   6.994   7.312 -1.3539 -0.5406 -0.9845
  958MOL0     H29270   4.881   6.931   7.379 -0.4917  1.9638  1.8891
  958MOL0     H29271   5.043   6.834   7.572  0.1955 -0.0958  0.7393
  958MOL0     H29272   5.163   6.940   7.498 -0.0219  0.9183  1.3842
  958MOL0     H29273   5.073   7.142   7.556 -1.0903  1.4529  3.4743
  958MOL0     H29274   4.913   7.066   7.570  0.5579  2.2506  1.0909
  958MOL0     H29275   5.008   6.931   7.773 -1.3516  0.8694  0.0608
  958MOL0     H29276   5.154   7.046   7.742  0.8764 -0.3475 -4.3514
  958MOL0     H29277   4.865   7.135   7.797  0.7629 -0.0686 -1.0037
  958MOL0     H29278   4.965   7.086   7.937  5.0978 -1.4872 -0.0176
  958MOL0     H29279   5.013   7.306   7.738 -1.7609 -2.1360  0.1891
  958MOL0     H29280   5.141   7.241   7.855  1.5573  3.4702  0.9584
  958MOL0     H29281   5.170   7.463   8.014  0.2690 -0.1191 -0.1938
  958MOL0     H29282   4.934   7.634   8.272 -1.5616 -0.7162 -1.5327
  958MOL0     H29283   5.098   7.626   8.212 -0.1476  0.3257 -0.4186
  958MOL0     H29284   4.873   7.783   8.081  1.0220  2.3941 -1.0702
  958MOL0     H29285   5.045   7.790   8.048  1.6276 -1.1503  1.5122
  958MOL0     H29286   5.091   7.877   8.272  0.1039 -0.0215  0.2673
  958MOL0     H29287   4.917   7.861   8.326  0.3604  1.3850  0.8690
  958MOL0     H29288   4.850   8.005   8.134  0.9335  2.2840 -2.3638
  958MOL0     H29289   5.003   8.072   8.133  0.1945 -0.5666  0.5540
  958MOL0     H29290   4.761   8.197   8.485 -1.2416 -0.3563  0.0461
  958MOL0     H29291   4.652   8.530   8.536 -1.1058  0.2259  0.4844
  958MOL0     H29292   4.522   8.440   8.459  0.4020  2.4187 -2.1115
  958MOL0     H29293   4.642   8.366   8.580  2.1991  0.6832 -0.6513
  958MOL0     H29294   4.466   8.663   7.992  0.7811 -0.4577  1.6767
  958MOL0     H29295   4.316   8.818   7.942 -0.5377 -1.4538  2.6936
  958MOL0     H29296   4.369   9.199   8.173 -0.0273  3.2313  0.5630
  958MOL0     H29297   4.400   9.264   8.001  0.2650 -1.1677 -0.7495
  958MOL0     H29298   4.121   9.215   8.127 -0.0436  3.9655  1.6495
  958MOL0     H29299   4.208   9.366   8.126  3.2217 -1.0995  3.4593
  958MOL0     H29300   4.128   9.174   7.890 -1.5981  0.2663 -1.0150
  958MOL0     H29301   4.187   9.333   7.850  2.6726 -1.2542  1.4758
  958MOL0     H29302   3.933   9.288   8.013 -2.2086  1.4722 -0.6222
  958MOL0     H29303   3.991   9.436   7.954 -0.0109 -0.2811  1.6130
  958MOL0     H29304   3.923   9.190   7.783 -0.7464 -0.3360  0.0634
  958MOL0     H29305   3.980   9.354   7.723  0.7519  0.3762  0.5997
  958MOL0     H29306   3.712   9.293   7.838 -2.9596  3.6990 -0.0063
  958MOL0     H29307   3.762   9.449   7.837 -4.1835 -0.1393 -0.6664
  958MOL0     H29308   3.714   9.257   7.600 -4.1612 -0.7707  1.8594
  958MOL0     H29309   3.793   9.417   7.576  1.2031 -0.9525  1.4997
  958MOL0     H29310   3.564   9.443   7.519 -0.4134  1.0821  0.3787
  958MOL0     H29311   3.558   9.501   7.674  1.6435  2.4947 -3.7502
  958MOL0     H29312   4.556   9.126   8.131 -3.8407 -0.4241  2.0395
  958MOL0     H29313   4.738   8.938   8.178 -0.1738  0.1700  1.5308
  958MOL0     H29314   4.851   8.483   8.081 -1.3509 -2.3020 -2.2648
  958MOL0     H29315   4.967   8.278   8.111  1.8867  2.1209 -0.2496
  958MOL0     H29316   5.031   6.370   7.112  1.0811 -0.2275 -2.0383
  958MOL0     H29317   4.906   6.219   6.971  1.0501  0.0807  2.1929
  958MOL0     H29318   4.822   6.228   6.353 -0.2545 -2.3939 -3.5757
  958MOL0     H29319   4.738   6.045   6.220 -1.9898 -1.6750 -0.6826
  958MOL0     H29320   4.517   5.925   6.128  0.0863  0.0356  2.0290
  958MOL0     H29321   4.665   5.841   6.118  0.3881  0.3585 -0.2285
  958MOL0     H29322   4.480   5.713   6.004  0.0185 -2.6259  0.3249
  958MOL0     H29323   4.386   5.717   6.153  0.3197 -5.1431  1.4086
  958MOL0     H29324   4.520   5.548   6.235  0.3598  0.2548 -0.5907
  958MOL0     H29325   4.666   5.623   6.186 -1.2293  2.3786  2.9216
  958MOL0     H29326   4.492   5.469   5.987 -0.5231 -1.4721  0.6226
  958MOL0     H29327   4.623   5.399   6.073  1.1040  1.7767  1.1527
  958MOL0     H29328   4.781   5.647   5.762 -0.3816  2.5834  2.9622
  958MOL0     H29329   4.569   5.868   6.571 -1.8583  1.3670 -0.4129
  958MOL0     H29330   4.640   6.040   6.713  1.1450  1.5906 -0.1445
  959MOL0     O29331   7.097   5.063   5.592  1.1896  0.2327  0.4154
  959MOL0     C29332   7.192   5.008   5.649 -0.4735 -0.0523  0.1925
  959MOL0     O29333   7.231   4.881   5.631  0.0750  0.4071 -0.2536
  959MOL0     C29334   7.137   4.791   5.584 -0.1801 -0.1982  0.0429
  959MOL0     C29335   7.013   4.798   5.636  1.2789  0.5786  0.6782
  959MOL0     C29336   6.913   4.718   5.579 -0.2120  0.4258 -0.2396
  959MOL0     C29337   6.928   4.645   5.465 -1.1423 -0.3064 -0.1461
  959MOL0     O29338   6.839   4.559   5.411 -0.2270  0.5700 -0.3124
  959MOL0     C29339   6.708   4.537   5.466 -0.5294 -0.2514 -1.0494
  959MOL0     C29340   6.622   4.665   5.445 -0.0935 -0.0516  0.3950
  959MOL0     C29341   6.615   4.695   5.292 -0.3907 -0.5688  0.2508
  959MOL0     C29342   6.511   4.807   5.265 -0.0989  0.1887 -0.2351
  959MOL0     C29343   6.523   4.873   5.125 -0.5455 -0.7191 -0.2894
  959MOL0     C29344   6.415   4.982   5.115  0.2805  0.6825  0.0081
  959MOL0     C29345   6.424   5.062   4.993  0.1099  0.3575 -0.2357
  959MOL0     C29346   6.307   5.160   4.979 -0.6086 -0.6122 -0.4216
  959MOL0     N29347   6.327   5.232   4.848  0.1657  0.2720 -0.1999
  959MOL0     C29348   6.312   5.177   4.719 -0.1811  0.1522 -0.8172
  959MOL0     C29349   6.289   5.286   4.642  0.0715 -0.2094  0.0406
  959MOL0     C29350   6.259   5.272   4.499 -0.3083 -0.9709  0.0304
  959MOL0     C29351   6.339   5.162   4.425 -0.3828 -0.1951  1.0467
  959MOL0     C29352   6.338   5.155   4.266  0.0384  0.1651 -0.7071
  959MOL0     C29353   6.200   5.151   4.219 -0.1396 -1.0098 -0.1598
  959MOL0     O29354   6.155   5.019   4.220 -0.7245  0.1766  0.3695
  959MOL0     C29355   6.023   4.988   4.227  0.3024  0.5436  0.5359
  959MOL0     C29356   5.920   5.079   4.234 -0.3799 -0.0406  0.1495
  959MOL0     C29357   5.786   5.054   4.211 -0.4388  0.2808 -0.2954
  959MOL0     C29358   5.680   5.168   4.226  0.8151 -0.1152  1.1843
  959MOL0     C29359   5.750   4.926   4.179 -0.3641  0.3042 -0.1493
  959MOL0     C29360   5.608   4.874   4.147 -0.0246 -0.3959  0.8013
  959MOL0     O29361   5.595   4.737   4.116  0.0263 -0.0747  0.0165
  959MOL0     C29362   5.475   4.666   4.080 -0.5172 -0.1000 -0.3772
  959MOL0     C29363   5.513   4.531   4.054  0.2498 -0.5409 -0.3812
  959MOL0     C29364   5.413   4.445   4.006 -0.3271  0.0294  0.1453
  959MOL0     C29365   5.285   4.493   3.981 -0.2570  0.2705 -0.2798
  959MOL0     O29366   5.175   4.426   3.932  0.3657 -0.5270  0.3827
  959MOL0     C29367   5.175   4.284   3.884  0.2459  0.7483 -0.6049
  959MOL0     C29368   5.261   4.260   3.757  0.2283 -0.6168 -0.9575
  959MOL0     C29369   5.247   4.127   3.676  0.0742  0.3618 -0.5422
  959MOL0     C29370   5.269   3.994   3.755 -0.6294 -0.2257  0.2526
  959MOL0     C29371   5.165   3.882   3.722  1.0874  0.1207  0.2809
  959MOL0     C29372   5.166   3.768   3.816 -0.0375  0.2052 -0.5078
  959MOL0     C29373   5.110   3.808   3.949  0.1707  0.1456 -0.7272
  959MOL0     C29374   5.110   3.686   4.047  0.3005  0.0976 -0.3571
  959MOL0    Cl29375   4.992   3.555   3.998  0.7376 -0.1199 -0.5154
  959MOL0     C29376   5.254   4.632   4.011 -0.5853  1.3174 -0.1631
  959MOL0     C29377   5.351   4.719   4.060 -0.3400 -0.7427 -0.1118
  959MOL0     O29378   5.516   4.954   4.148  0.0386  0.1567  0.0323
  959MOL0     C29379   5.856   4.828   4.183 -0.0917  0.3303  0.3595
  959MOL0     C29380   5.990   4.861   4.197 -0.1859 -0.2783 -0.3708
  959MOL0     N29381   6.264   5.400   4.717 -0.7612  0.5886  0.3524
  959MOL0     N29382   6.280   5.363   4.843 -1.0636 -0.5733  0.8604
  959MOL0     C29383   7.063   4.629   5.415  0.3140 -0.6524 -0.5938
  959MOL0     C29384   7.164   4.702   5.480  0.3069 -0.6770 -0.0570
  959MOL0     C29385   7.278   5.090   5.746  0.0659 -0.0943  0.4414
  959MOL0     C29386   7.390   5.032   5.813  0.1973  0.6520 -0.1720
  959MOL0     C29387   7.450   5.087   5.925 -1.0933  1.1318 -0.1725
  959MOL0     C29388   7.408   5.214   5.963 -0.0477 -0.2328 -0.5062
  959MOL0     O29389   7.453   5.288   6.071  0.3023  0.6588 -0.4690
  959MOL0     C29390   7.557   5.234   6.155  0.0515 -0.6007  0.1108
  959MOL0     C29391   7.693   5.261   6.088  0.7215  0.6271 -0.5105
  959MOL0     C29392   7.816   5.225   6.178  0.0570 -0.1182  0.5617
  959MOL0     C29393   7.941   5.295   6.136 -1.2078  0.5625  0.8953
  959MOL0     C29394   8.060   5.226   6.172  0.6114  0.4304  1.3456
  959MOL0     C29395   8.163   5.159   6.196  0.0074  0.0066  0.2317
  959MOL0     C29396   7.305   5.279   5.886 -0.4898 -0.5729  0.1659
  959MOL0     C29397   7.236   5.214   5.779 -0.0931  0.4696 -0.2073
  959MOL0     H29398   6.991   4.859   5.723  0.6336 -0.4053  1.2140
  959MOL0     H29399   6.822   4.715   5.638  0.4902 -0.7735  0.8374
  959MOL0     H29400   6.652   4.452   5.425  0.6217 -1.8882  0.6057
  959MOL0     H29401   6.720   4.519   5.574  0.6080 -3.0027 -1.5567
  959MOL0     H29402   6.522   4.642   5.483 -0.8747 -1.4047 -2.2278
  959MOL0     H29403   6.659   4.751   5.502  0.8515 -2.1072  3.1390
  959MOL0     H29404   6.710   4.731   5.250 -0.2733 -2.3629 -1.1394
  959MOL0     H29405   6.573   4.614   5.233  0.9351  0.4387 -2.2374
  959MOL0     H29406   6.410   4.765   5.271  0.3520 -1.0961 -1.0347
  959MOL0     H29407   6.524   4.879   5.346  1.5013  0.2195 -0.4750
  959MOL0     H29408   6.623   4.916   5.122 -1.1987  1.3909  3.0504
  959MOL0     H29409   6.518   4.801   5.043  0.0060  0.1293 -1.0938
  959MOL0     H29410   6.321   4.927   5.125  0.6453  0.3859  2.7035
  959MOL0     H29411   6.411   5.039   5.209  0.4136 -0.5080  0.7637
  959MOL0     H29412   6.517   5.119   4.980  0.1733 -0.1178 -2.1797
  959MOL0     H29413   6.416   4.992   4.909 -1.3282 -2.3222  1.9984
  959MOL0     H29414   6.307   5.223   5.069 -0.7918  0.6212 -1.2537
  959MOL0     H29415   6.208   5.113   4.977 -2.3526  2.7225 -0.8444
  959MOL0     H29416   6.312   5.072   4.691 -1.4930 -0.3404  0.8510
  959MOL0     H29417   6.152   5.247   4.501 -1.0677  1.8314 -0.9224
  959MOL0     H29418   6.258   5.366   4.444  0.4908 -1.2758 -0.5162
  959MOL0     H29419   6.308   5.066   4.466 -1.0283 -1.3972 -1.9600
  959MOL0     H29420   6.444   5.173   4.454 -0.1026  1.1188 -0.3243
  959MOL0     H29421   6.393   5.065   4.238  0.2829  0.1223 -0.1155
  959MOL0     H29422   6.395   5.232   4.213 -1.2823  2.8856  1.5454
  959MOL0     H29423   6.186   5.176   4.113 -0.8267  2.5623  0.6264
  959MOL0     H29424   6.145   5.228   4.275  1.4660  0.9631 -1.1465
  959MOL0     H29425   5.950   5.184   4.236 -0.0802  0.0831 -3.5872
  959MOL0     H29426   5.613   5.176   4.140  1.1532 -0.1395  0.9144
  959MOL0     H29427   5.630   5.157   4.322  0.4628  0.3972  1.0634
  959MOL0     H29428   5.718   5.269   4.241 -0.9013  0.5534  1.1956
  959MOL0     H29429   5.616   4.500   4.070  0.4506  0.0590 -0.4862
  959MOL0     H29430   5.447   4.345   3.979 -0.1257 -0.2467  1.3565
  959MOL0     H29431   5.216   4.214   3.957  1.5434  1.4788 -0.5966
  959MOL0     H29432   5.080   4.247   3.844  1.2937 -0.5802 -1.9900
  959MOL0     H29433   5.235   4.334   3.681  3.1818  0.1927 -1.3140
  959MOL0     H29434   5.366   4.283   3.780 -0.3865  0.1267  1.5089
  959MOL0     H29435   5.322   4.139   3.598 -0.1369 -0.0085 -0.8058
  959MOL0     H29436   5.151   4.108   3.627  0.6230 -1.0334 -1.1577
  959MOL0     H29437   5.366   3.954   3.725 -2.2730 -2.3765 -2.7244
  959MOL0     H29438   5.274   4.018   3.862  2.2635  1.3235 -0.1322
  959MOL0     H29439   5.190   3.840   3.624 -0.7586  3.5472 -1.8731
  959MOL0     H29440   5.065   3.928   3.718 -0.4050 -2.2598  4.0215
  959MOL0     H29441   5.112   3.680   3.780 -2.1456 -0.0011  2.7111
  959MOL0     H29442   5.264   3.721   3.826 -0.1639 -0.5905 -2.5200
  959MOL0     H29443   5.007   3.844   3.939 -0.5773 -0.6755  2.8782
  959MOL0     H29444   5.161   3.892   3.997 -2.8760  0.7489  1.7452
  959MOL0     H29445   5.086   3.721   4.147  1.1489 -0.3957  0.0299
  959MOL0     H29446   5.206   3.634   4.055  0.3997 -0.1465 -2.4732
  959MOL0     H29447   5.155   4.660   3.979 -0.9221 -1.9025 -2.4832
  959MOL0     H29448   5.315   4.816   4.092  0.3664 -0.7621  0.7849
  959MOL0     H29449   5.853   4.721   4.162  1.6766 -0.6461  4.2520
  959MOL0     H29450   6.064   4.787   4.170  2.4579 -0.0722  5.0075
  959MOL0     H29451   7.074   4.563   5.329 -1.4436  0.4252 -1.7040
  959MOL0     H29452   7.270   4.706   5.457  0.5199  0.9408  1.0199
  959MOL0     H29453   7.424   4.932   5.787 -0.9279  0.2742 -0.2568
  959MOL0     H29454   7.508   5.028   5.995 -2.5425  0.0308  0.1276
  959MOL0     H29455   7.559   5.281   6.254 -1.9001  2.1520 -1.0237
  959MOL0     H29456   7.539   5.128   6.176 -1.1388 -0.6148 -0.8756
  959MOL0     H29457   7.699   5.365   6.055  0.5377  0.1470 -2.1440
  959MOL0     H29458   7.685   5.210   5.991  0.4119  0.5233 -0.4339
  959MOL0     H29459   7.833   5.118   6.165 -0.3814 -0.1470  0.1872
  959MOL0     H29460   7.793   5.253   6.281  1.3271 -1.4505  1.2379
  959MOL0     H29461   7.943   5.392   6.185  1.8788  0.4032  1.2903
  959MOL0     H29462   7.939   5.307   6.027 -4.4890 -1.5220  0.5909
  959MOL0     H29463   8.253   5.104   6.210 -0.6977 -0.7651  1.9907
  959MOL0     H29464   7.279   5.381   5.908 -5.7038 -1.6230  0.1062
  959MOL0     H29465   7.151   5.255   5.726  0.5439  1.4769 -0.4781
  960MOL0     O29466   0.023   3.546   3.139  0.4671 -0.3543 -0.0395
  960MOL0     C29467  -0.001   3.633   3.223 -0.9465  0.5796 -0.2128
  960MOL0     O29468   0.027   3.618   3.356  0.3354  0.0322 -0.0120
  960MOL0     C29469   0.089   3.504   3.406 -0.0894 -0.2219  0.0439
  960MOL0     C29470   0.205   3.445   3.363 -0.2610 -0.0652  0.3282
  960MOL0     C29471   0.254   3.327   3.424 -0.3020  0.3560  1.0436
  960MOL0     C29472   0.192   3.268   3.535 -0.1928 -0.3110 -0.6470
  960MOL0     O29473   0.261   3.164   3.599  0.1157  0.4362 -0.2633
  960MOL0     C29474   0.249   3.130   3.743  0.7170 -0.7443 -0.2659
  960MOL0     C29475   0.329   3.235   3.825 -0.7492 -0.1970 -0.0755
  960MOL0     C29476   0.476   3.267   3.801 -0.0866 -0.7797 -0.4983
  960MOL0     C29477   0.565   3.166   3.860  0.5370  0.1086 -0.4685
  960MOL0     C29478   0.720   3.193   3.834 -0.1699 -0.4778 -1.0522
  960MOL0     C29479   0.760   3.286   3.952  0.3246 -0.1870  0.3703
  960MOL0     C29480   0.901   3.327   3.940 -1.1434  0.2027 -0.4190
  960MOL0     C29481   1.015   3.231   3.967 -0.1654 -0.1058  0.1802
  960MOL0     N29482   1.040   3.158   3.847 -0.5111 -0.1519  0.1704
  960MOL0     C29483   1.052   3.020   3.835 -1.1809  0.6607  0.5892
  960MOL0     C29484   1.133   3.007   3.727 -0.3558  1.3651 -0.0036
  960MOL0     C29485   1.150   2.867   3.671  0.0096 -0.2220  0.1306
  960MOL0     C29486   1.242   2.770   3.742 -0.3287  0.0315  0.9259
  960MOL0     C29487   1.386   2.811   3.718 -0.4474  0.0860  0.0526
  960MOL0     C29488   1.494   2.728   3.793  0.1468  0.0138  0.2728
  960MOL0     O29489   1.624   2.768   3.740  0.1543 -0.5391 -0.7218
  960MOL0     C29490   1.689   2.692   3.640 -0.0534  0.4638  0.2030
  960MOL0     C29491   1.793   2.746   3.573  0.6678 -0.0574  0.8601
  960MOL0     C29492   1.853   2.694   3.465  0.4525  0.3689 -0.6691
  960MOL0     C29493   1.965   2.771   3.403 -0.5984 -0.0765  0.2894
  960MOL0     C29494   1.812   2.563   3.417 -0.4494 -0.7908 -0.5501
  960MOL0     C29495   1.866   2.500   3.292 -0.6508 -0.0661  0.4453
  960MOL0     O29496   1.998   2.483   3.283  0.3555 -0.0049  0.6149
  960MOL0     C29497   2.033   2.379   3.192 -0.0209 -0.1613 -0.7176
  960MOL0     C29498   2.057   2.256   3.252  0.1365  0.2200  0.0333
  960MOL0     C29499   2.109   2.152   3.174  0.1582  0.4838 -0.7169
  960MOL0     C29500   2.127   2.167   3.032  0.5103  0.6117  0.4852
  960MOL0     O29501   2.178   2.076   2.943 -0.2585  0.3658  0.3891
  960MOL0     C29502   2.164   1.940   2.980 -0.1329 -0.1548  0.3958
  960MOL0     C29503   2.139   1.855   2.849 -0.9411  1.2165 -0.5327
  960MOL0     C29504   2.088   1.713   2.883 -0.1507  0.0980  0.1780
  960MOL0     C29505   2.038   1.642   2.757  0.3345 -0.7867  1.0298
  960MOL0     C29506   1.953   1.517   2.766 -0.2536  0.4710 -0.2650
  960MOL0     C29507   2.027   1.410   2.850 -0.3600 -0.0727  0.3586
  960MOL0     C29508   1.994   1.419   3.002 -0.3647  0.4966  0.6308
  960MOL0     C29509   2.045   1.280   3.049  0.1632  0.3606 -0.6422
  960MOL0    Cl29510   2.226   1.251   3.038 -0.3014 -0.3837  0.4797
  960MOL0     C29511   2.100   2.298   2.978  0.2757 -0.2266  0.5913
  960MOL0     C29512   2.052   2.405   3.055  1.9449 -0.0155 -1.3795
  960MOL0     O29513   1.774   2.460   3.213 -0.6011  0.0355 -0.3497
  960MOL0     C29514   1.712   2.500   3.488  0.2801  0.2156  0.1659
  960MOL0     C29515   1.653   2.561   3.596 -0.2175  0.3533 -0.2870
  960MOL0     N29516   1.177   3.129   3.672  0.2289 -0.0018 -0.2282
  960MOL0     N29517   1.105   3.214   3.742 -0.1881 -0.4477  0.0769
  960MOL0     C29518   0.080   3.333   3.587  0.3637  0.5562  1.2709
  960MOL0     C29519   0.029   3.450   3.515  0.3678 -0.7963 -0.2975
  960MOL0     C29520  -0.066   3.757   3.177  0.4678  0.4173 -0.1794
  960MOL0     C29521  -0.146   3.820   3.274 -0.0160 -0.2103 -0.3010
  960MOL0     C29522  -0.227   3.929   3.245  0.3294 -0.6627 -0.5687
  960MOL0     C29523  -0.210   4.000   3.132  0.5690  0.7265  0.1409
  960MOL0     O29524  -0.277   4.123   3.133 -0.1438  0.4056 -0.2323
  960MOL0     C29525  -0.353   4.137   3.017  1.0347 -0.9374 -0.9015
  960MOL0     C29526  -0.460   4.249   3.050 -0.2956  0.5139  0.0318
  960MOL0     C29527  -0.404   4.384   3.107  0.7668 -0.3346 -0.7817
  960MOL0     C29528  -0.530   4.472   3.117 -0.1387 -0.0126  0.4694
  960MOL0     C29529  -0.640   4.417   3.206 -0.3733 -0.4899  0.6589
  960MOL0     C29530  -0.730   4.364   3.274  0.2004  0.0032 -0.0960
  960MOL0     C29531  -0.133   3.945   3.034 -0.1465  0.2896 -0.6165
  960MOL0     C29532  -0.059   3.824   3.046 -0.2039 -0.1078  0.1928
  960MOL0     H29533   0.245   3.478   3.267 -2.9914  0.1615 -0.8167
  960MOL0     H29534   0.348   3.279   3.399  0.7237  1.5557  2.4522
  960MOL0     H29535   0.143   3.133   3.770  0.0622 -0.4876 -2.6079
  960MOL0     H29536   0.295   3.034   3.768 -0.1610 -1.2417 -0.5181
  960MOL0     H29537   0.290   3.337   3.816 -2.0897 -0.7152 -0.3570
  960MOL0     H29538   0.309   3.205   3.928  1.4735  1.7639  1.0038
  960MOL0     H29539   0.494   3.279   3.694  1.3683 -0.7163 -0.2665
  960MOL0     H29540   0.507   3.364   3.842  3.2228 -1.7494 -0.3798
  960MOL0     H29541   0.543   3.162   3.967  1.6022 -2.8402 -0.2570
  960MOL0     H29542   0.547   3.064   3.823 -1.1372  0.1556  0.1599
  960MOL0     H29543   0.780   3.103   3.850  1.3201  0.4891 -0.8992
  960MOL0     H29544   0.764   3.227   3.740  1.6502  0.2451 -0.0074
  960MOL0     H29545   0.707   3.382   3.949  2.7726  1.2459 -1.1712
  960MOL0     H29546   0.749   3.242   4.052  1.4923 -0.6976  0.2900
  960MOL0     H29547   0.920   3.371   3.842  0.4605 -1.9930 -1.1993
  960MOL0     H29548   0.913   3.404   4.016  1.2158 -2.5715  2.2815
  960MOL0     H29549   1.001   3.181   4.063  0.9000 -0.0014  0.4076
  960MOL0     H29550   1.095   3.303   3.984  0.1343  0.3708 -2.6983
  960MOL0     H29551   0.997   2.953   3.901  2.3522 -1.1940  1.9775
  960MOL0     H29552   1.051   2.823   3.664  0.8757 -2.2568  0.1371
  960MOL0     H29553   1.192   2.880   3.571  1.3827  0.3576  0.7423
  960MOL0     H29554   1.211   2.667   3.721 -1.9690  0.8141 -0.8807
  960MOL0     H29555   1.216   2.783   3.847  0.1323  1.9645  0.8335
  960MOL0     H29556   1.395   2.920   3.725  0.2478  0.2535 -2.5997
  960MOL0     H29557   1.405   2.779   3.615 -0.5443 -0.1492  0.1068
  960MOL0     H29558   1.465   2.623   3.796 -1.5468  0.4718  1.2661
  960MOL0     H29559   1.486   2.767   3.895 -2.7669  0.0413  0.1155
  960MOL0     H29560   1.820   2.848   3.601 -0.8645  0.9533 -1.1166
  960MOL0     H29561   1.987   2.869   3.446 -1.6815  0.1283  0.4147
  960MOL0     H29562   2.056   2.711   3.397 -0.4453  0.3058 -2.1486
  960MOL0     H29563   1.929   2.795   3.303 -0.4339  0.7518  0.4215
  960MOL0     H29564   2.043   2.244   3.359 -0.7868  1.8803  0.1174
  960MOL0     H29565   2.128   2.054   3.216 -0.1871 -0.1079 -1.9036
  960MOL0     H29566   2.247   1.897   3.037  0.8161  0.0313 -0.8010
  960MOL0     H29567   2.071   1.937   3.037  0.2455 -1.5915  0.9785
  960MOL0     H29568   2.072   1.903   2.778 -0.5521 -0.6613 -2.2568
  960MOL0     H29569   2.234   1.843   2.796  0.6277 -0.6329  2.4077
  960MOL0     H29570   1.998   1.720   2.945 -0.2734 -0.2446  0.0427
  960MOL0     H29571   2.155   1.659   2.951 -1.6339  1.8647  3.2307
  960MOL0     H29572   1.976   1.712   2.701 -1.8664 -2.3523  1.3610
  960MOL0     H29573   2.125   1.607   2.700 -2.8271 -3.5522 -2.6346
  960MOL0     H29574   1.937   1.471   2.668 -0.9131 -1.7563  0.8083
  960MOL0     H29575   1.853   1.531   2.807 -0.4923 -1.0919 -0.2302
  960MOL0     H29576   2.007   1.307   2.819  1.4155 -0.5547  0.7035
  960MOL0     H29577   2.136   1.412   2.838 -0.3411 -2.1913 -0.3746
  960MOL0     H29578   1.888   1.429   3.024 -0.1257  1.3755  1.4474
  960MOL0     H29579   2.039   1.503   3.056  1.7013  0.1071 -0.4015
  960MOL0     H29580   1.991   1.193   3.009 -1.7668  1.5475 -0.7754
  960MOL0     H29581   2.014   1.275   3.153 -2.3660 -1.4146 -1.3664
  960MOL0     H29582   2.110   2.312   2.871 -1.2079 -3.9078 -0.1887
  960MOL0     H29583   2.042   2.508   3.025  0.0335  1.3096  2.8840
  960MOL0     H29584   1.669   2.407   3.452 -0.8337  1.1571 -1.0606
  960MOL0     H29585   1.574   2.501   3.640 -3.0855  1.0281 -3.9206
  960MOL0     H29586   0.043   3.315   3.687  1.5202  0.3845  1.6764
  960MOL0     H29587  -0.051   3.503   3.566 -1.8534 -1.0175 -3.3091
  960MOL0     H29588  -0.171   3.764   3.364 -1.0638  3.7014  2.0495
  960MOL0     H29589  -0.303   3.970   3.311  1.7980  3.7706 -1.2900
  960MOL0     H29590  -0.287   4.164   2.934 -0.1393  1.5181 -1.1214
  960MOL0     H29591  -0.416   4.050   2.995  0.3329 -1.1026  1.4760
  960MOL0     H29592  -0.528   4.201   3.121  1.4245 -4.0645 -1.0140
  960MOL0     H29593  -0.525   4.263   2.963 -2.9330 -3.2748  1.1565
  960MOL0     H29594  -0.318   4.422   3.050 -0.1483  1.3746 -1.0982
  960MOL0     H29595  -0.369   4.371   3.209  3.3759  0.6702 -1.4788
  960MOL0     H29596  -0.555   4.483   3.011  0.3321 -0.1586  0.3426
  960MOL0     H29597  -0.499   4.571   3.153  6.1550 -1.1310 -0.7561
  960MOL0     H29598  -0.813   4.318   3.323 -0.7804  0.1794 -1.5133
  960MOL0     H29599  -0.124   4.006   2.945 -0.3641  1.8190  0.3670
  960MOL0     H29600  -0.002   3.787   2.961 -0.3984 -1.1270  0.4973
  961MOL0     O29601   3.241   3.712   5.147  0.6995  0.3455 -0.0291
  961MOL0     C29602   3.230   3.824   5.103  0.5132 -0.6777  0.4689
  961MOL0     O29603   3.126   3.869   5.035 -0.2801  0.0497 -0.1574
  961MOL0     C29604   3.026   3.772   5.024  0.2553  0.2378 -0.6370
  961MOL0     C29605   2.895   3.794   5.085  0.0849  0.4951  0.0801
  961MOL0     C29606   2.798   3.688   5.064 -0.0676  0.5541 -0.0002
  961MOL0     C29607   2.827   3.571   5.002  0.2507 -0.3689 -1.2694
  961MOL0     O29608   2.723   3.487   4.975  0.2703 -0.0808 -0.1311
  961MOL0     C29609   2.702   3.380   5.066  0.7238 -0.4892 -0.2343
  961MOL0     C29610   2.554   3.369   5.110 -0.0320  0.6235  0.1292
  961MOL0     C29611   2.522   3.231   5.173 -0.8222 -0.9379  0.7187
  961MOL0     C29612   2.491   3.131   5.061 -0.5521 -0.0369  0.4622
  961MOL0     C29613   2.382   3.026   5.081 -0.4191  0.5537 -0.7241
  961MOL0     C29614   2.411   2.928   5.200  0.6509  0.1335 -0.0075
  961MOL0     C29615   2.289   2.846   5.238  0.8586  0.1794 -0.4824
  961MOL0     C29616   2.330   2.744   5.342 -0.3169 -0.0231 -0.6207
  961MOL0     N29617   2.418   2.643   5.284 -0.2347  0.1576 -0.3728
  961MOL0     C29618   2.414   2.583   5.165 -0.4361  0.4204 -0.0276
  961MOL0     C29619   2.530   2.526   5.137 -0.5426  0.1151 -0.3343
  961MOL0     C29620   2.571   2.447   5.020 -0.6967 -0.0232  0.0459
  961MOL0     C29621   2.636   2.553   4.928  0.3940 -0.0410 -0.0183
  961MOL0     C29622   2.683   2.506   4.791  0.2716  0.0124 -0.3151
  961MOL0     C29623   2.831   2.530   4.775 -0.0526 -0.0721  0.6378
  961MOL0     O29624   2.862   2.512   4.636 -0.3244 -0.3649  0.3833
  961MOL0     C29625   2.957   2.407   4.610  0.8161 -0.1716  0.0945
  961MOL0     C29626   3.094   2.433   4.597 -0.0708 -0.0414  0.2930
  961MOL0     C29627   3.184   2.330   4.583  0.1840  0.3266 -1.4373
  961MOL0     C29628   3.327   2.368   4.555 -0.2552 -0.4494  0.1335
  961MOL0     C29629   3.141   2.195   4.580  0.3339  0.1652  0.4653
  961MOL0     C29630   3.230   2.073   4.572 -0.0992 -0.8910 -0.7415
  961MOL0     O29631   3.154   1.961   4.597 -0.4763 -0.1626 -0.2428
  961MOL0     C29632   3.194   1.836   4.586 -0.9595  0.8058  0.1039
  961MOL0     C29633   3.098   1.738   4.582 -0.5991  1.2094 -0.2124
  961MOL0     C29634   3.120   1.599   4.567 -0.4589  0.4443  0.0751
  961MOL0     C29635   3.253   1.571   4.568 -0.7336  0.5782 -0.9349
  961MOL0     O29636   3.295   1.447   4.524  1.2086  0.2962 -0.1950
  961MOL0     C29637   3.225   1.327   4.578 -1.1439 -0.0811  0.1261
  961MOL0     C29638   3.322   1.237   4.654 -0.0875  0.0915 -0.1015
  961MOL0     C29639   3.449   1.194   4.582  1.1926  0.5724  0.2822
  961MOL0     C29640   3.530   1.099   4.661 -0.0287  0.8302 -1.1930
  961MOL0     C29641   3.648   1.054   4.572  0.2517  0.5484  0.3803
  961MOL0     C29642   3.710   0.934   4.634 -0.6957  0.3801 -0.0233
  961MOL0     C29643   3.834   0.879   4.569  0.0703 -0.3615 -0.3840
  961MOL0     C29644   3.805   0.789   4.442 -0.4148 -0.4700  0.3309
  961MOL0    Cl29645   3.755   0.905   4.306 -0.3165  0.1424 -0.1628
  961MOL0     C29646   3.357   1.658   4.573 -0.3605 -0.5977 -0.8186
  961MOL0     C29647   3.326   1.796   4.593 -0.2955  0.9915 -1.1191
  961MOL0     O29648   3.352   2.082   4.544 -0.1844  0.1577 -1.0021
  961MOL0     C29649   3.001   2.174   4.579 -0.2863  0.1806 -0.3810
  961MOL0     C29650   2.911   2.281   4.603 -0.3607  0.4266 -0.0163
  961MOL0     N29651   2.608   2.535   5.258  0.2306 -0.2247  0.0832
  961MOL0     N29652   2.540   2.609   5.342 -0.2039 -0.6749 -0.1215
  961MOL0     C29653   2.954   3.545   4.948 -0.9802 -0.2950  0.2054
  961MOL0     C29654   3.047   3.652   4.954  0.2349 -1.1875 -0.1333
  961MOL0     C29655   3.340   3.927   5.116 -0.3353  1.1283  0.2034
  961MOL0     C29656   3.458   3.875   5.168 -0.1078  0.8548 -2.4007
  961MOL0     C29657   3.561   3.971   5.198 -0.0582  0.4200 -0.5193
  961MOL0     C29658   3.558   4.106   5.174  0.1499 -0.1778  1.1308
  961MOL0     O29659   3.666   4.183   5.213  0.2838  0.3980 -0.3054
  961MOL0     C29660   3.643   4.318   5.252  0.8315 -0.5421 -0.2881
  961MOL0     C29661   3.550   4.323   5.374  0.1970 -1.0637 -0.4945
  961MOL0     C29662   3.637   4.293   5.498  0.4445 -0.3215 -0.0800
  961MOL0     C29663   3.575   4.276   5.633  0.3589 -0.1407  0.7687
  961MOL0     C29664   3.489   4.159   5.636  0.6524  0.6245  0.6388
  961MOL0     C29665   3.414   4.065   5.620 -0.0776 -0.5923 -0.4452
  961MOL0     C29666   3.447   4.153   5.098  0.0482 -0.0362 -0.1238
  961MOL0     C29667   3.337   4.063   5.079 -0.3564 -0.0686  0.1503
  961MOL0     H29668   2.869   3.890   5.129  1.1846  1.2031 -0.7930
  961MOL0     H29669   2.698   3.708   5.101  1.7326  3.5022  4.0245
  961MOL0     H29670   2.729   3.284   5.020  0.7150 -1.4097  1.5963
  961MOL0     H29671   2.759   3.388   5.159  1.7561  2.1046 -1.0051
  961MOL0     H29672   2.540   3.445   5.188 -4.6644 -0.0906  0.3112
  961MOL0     H29673   2.496   3.393   5.021 -0.2209 -1.2246 -0.2948
  961MOL0     H29674   2.604   3.201   5.239 -1.1575 -2.5962  0.4187
  961MOL0     H29675   2.448   3.238   5.254 -2.2150 -0.7351 -0.5137
  961MOL0     H29676   2.462   3.177   4.965  2.5268 -1.4763 -1.2894
  961MOL0     H29677   2.587   3.082   5.048  0.6581  2.4846 -0.8131
  961MOL0     H29678   2.289   3.080   5.104 -1.5479 -1.2998 -0.6934
  961MOL0     H29679   2.364   2.974   4.986 -2.6739  1.4002 -0.8329
  961MOL0     H29680   2.495   2.867   5.166  1.3713  1.7984 -1.3383
  961MOL0     H29681   2.451   2.985   5.284 -3.4946  1.2891  1.4314
  961MOL0     H29682   2.211   2.910   5.280  0.5898  1.2331 -2.4947
  961MOL0     H29683   2.244   2.800   5.149 -0.5177  1.4770 -0.4990
  961MOL0     H29684   2.234   2.701   5.370 -0.6009  1.4121  0.7996
  961MOL0     H29685   2.378   2.777   5.435 -0.5550 -0.4385 -0.3518
  961MOL0     H29686   2.333   2.587   5.092 -1.6326  1.7293  1.3159
  961MOL0     H29687   2.647   2.373   5.048  0.1625  0.8640  0.1065
  961MOL0     H29688   2.491   2.389   4.974  0.3940 -4.1076  2.6906
  961MOL0     H29689   2.710   2.615   4.980 -0.7254  0.3691  1.1300
  961MOL0     H29690   2.550   2.618   4.906 -2.2284 -3.0584  0.5762
  961MOL0     H29691   2.626   2.569   4.721  0.6356  2.4659  1.4514
  961MOL0     H29692   2.656   2.403   4.769 -1.2016  1.0972 -4.6401
  961MOL0     H29693   2.879   2.461   4.845 -2.0383 -1.1897  1.0040
  961MOL0     H29694   2.860   2.631   4.804 -1.7327  0.0313  2.2165
  961MOL0     H29695   3.138   2.530   4.616  0.1034 -0.1711  0.5561
  961MOL0     H29696   3.393   2.325   4.630 -3.2343  0.8998  3.8572
  961MOL0     H29697   3.374   2.315   4.472 -0.4836 -0.4229 -0.0144
  961MOL0     H29698   3.343   2.477   4.561  0.8753 -0.5640 -0.5014
  961MOL0     H29699   2.994   1.769   4.573 -1.0178  0.0023  0.1490
  961MOL0     H29700   3.036   1.531   4.555 -1.7426  1.8654  0.7065
  961MOL0     H29701   3.152   1.349   4.656 -0.7391 -3.0652  1.4958
  961MOL0     H29702   3.185   1.270   4.493 -0.2681 -0.3245 -0.1423
  961MOL0     H29703   3.355   1.294   4.742 -2.7088 -1.6654  2.1835
  961MOL0     H29704   3.265   1.148   4.682 -0.5783 -0.7205 -3.2932
  961MOL0     H29705   3.501   1.284   4.547  1.3936  0.7129  0.9408
  961MOL0     H29706   3.409   1.161   4.486  0.4647  4.1572 -0.8206
  961MOL0     H29707   3.572   1.142   4.752  1.9795  1.6492 -2.4504
  961MOL0     H29708   3.465   1.012   4.679 -0.8641  1.9381  1.6063
  961MOL0     H29709   3.716   1.139   4.567 -2.8149  3.1649 -0.3238
  961MOL0     H29710   3.627   1.040   4.465  0.7344  1.2181  0.1938
  961MOL0     H29711   3.745   0.962   4.734 -0.0264 -0.9473  0.1437
  961MOL0     H29712   3.632   0.859   4.648 -1.5457  1.4924  1.5162
  961MOL0     H29713   3.871   0.802   4.637  0.1930  0.0235 -0.0096
  961MOL0     H29714   3.903   0.963   4.553 -0.8526  0.6255  0.6062
  961MOL0     H29715   3.714   0.729   4.453 -2.1066  2.4153  4.2614
  961MOL0     H29716   3.883   0.721   4.407  0.1106  0.7633 -1.0485
  961MOL0     H29717   3.462   1.630   4.576  0.0442  0.8825 -0.3177
  961MOL0     H29718   3.405   1.866   4.620  0.8330  0.5738 -3.0933
  961MOL0     H29719   2.958   2.076   4.560  1.1525 -0.2038 -1.8734
  961MOL0     H29720   2.808   2.257   4.624  0.6543 -1.4163  3.8142
  961MOL0     H29721   2.962   3.454   4.889 -1.0574 -1.7131  2.2882
  961MOL0     H29722   3.137   3.664   4.895 -0.1349  1.8223 -0.2289
  961MOL0     H29723   3.457   3.778   5.217 -0.9018  3.0375  2.5500
  961MOL0     H29724   3.652   3.928   5.240  1.7201  4.9828  0.9259
  961MOL0     H29725   3.738   4.371   5.263  0.9644 -1.2677  3.1171
  961MOL0     H29726   3.600   4.375   5.170  3.2108 -0.0466 -1.2676
  961MOL0     H29727   3.457   4.266   5.367 -1.2073  0.7340  1.8008
  961MOL0     H29728   3.512   4.426   5.370 -1.9093 -1.7694  0.1640
  961MOL0     H29729   3.707   4.378   5.504 -1.8852  1.8489 -1.6388
  961MOL0     H29730   3.687   4.196   5.490 -1.5502 -1.4137  0.0998
  961MOL0     H29731   3.514   4.363   5.660  2.5994  1.8818 -0.3089
  961MOL0     H29732   3.653   4.255   5.706  2.0142 -1.6791 -1.3281
  961MOL0     H29733   3.346   3.983   5.610 -2.7760  1.6780 -2.0561
  961MOL0     H29734   3.444   4.258   5.071  0.9873 -0.1533 -0.7279
  961MOL0     H29735   3.253   4.098   5.021  1.5690  1.6501 -1.8061
  962MOL0     O29736   8.283   3.184   6.559 -0.1275  0.8903 -1.0865
  962MOL0     C29737   8.211   3.233   6.645 -0.1981 -0.3749  0.6421
  962MOL0     O29738   8.076   3.202   6.664 -0.4268  0.1227 -0.4757
  962MOL0     C29739   8.015   3.082   6.618 -0.6198 -0.0853  1.2586
  962MOL0     C29740   8.078   2.963   6.567 -0.6624  0.4919 -0.4884
  962MOL0     C29741   8.003   2.858   6.518 -0.1691 -0.4165 -0.0675
  962MOL0     C29742   7.865   2.872   6.498  0.5070 -0.4986  0.0892
  962MOL0     O29743   7.782   2.788   6.424  0.0752 -0.2460 -0.8453
  962MOL0     C29744   7.845   2.736   6.305 -0.5422 -0.0017 -0.0970
  962MOL0     C29745   7.752   2.618   6.252 -0.6250 -0.7702  0.4527
  962MOL0     C29746   7.619   2.671   6.204 -0.3139  0.4173  1.0773
  962MOL0     C29747   7.528   2.559   6.153 -0.7624  1.2868  0.5803
  962MOL0     C29748   7.454   2.490   6.265  0.2667  0.1444  0.3540
  962MOL0     C29749   7.370   2.370   6.203  0.7294  0.6575  0.6819
  962MOL0     C29750   7.313   2.285   6.322  0.0639 -0.3005 -0.3918
  962MOL0     C29751   7.255   2.149   6.272  0.0083 -0.2841  0.3524
  962MOL0     N29752   7.355   2.070   6.205  0.2443  0.2720  0.2604
  962MOL0     C29753   7.469   2.027   6.258 -0.6300  0.4565 -0.3732
  962MOL0     C29754   7.499   1.916   6.181  0.2870 -0.0459  0.7872
  962MOL0     C29755   7.607   1.819   6.212 -1.8284  0.4478  0.1503
  962MOL0     C29756   7.717   1.829   6.094  0.0544 -0.0478 -0.5794
  962MOL0     C29757   7.801   1.960   6.108  0.2032 -0.3396  0.5588
  962MOL0     C29758   7.827   2.009   5.961 -0.3536  0.5527 -0.7701
  962MOL0     O29759   7.938   1.920   5.916  0.1583  0.1179 -0.6653
  962MOL0     C29760   8.050   1.919   5.990  0.0584  0.2631  0.2894
  962MOL0     C29761   8.110   2.032   6.043  0.3591  0.8972 -0.5354
  962MOL0     C29762   8.226   2.022   6.121 -0.1798 -0.1377  0.5263
  962MOL0     C29763   8.256   2.144   6.195  0.1635 -0.2194 -0.4714
  962MOL0     C29764   8.292   1.903   6.144  0.4101  0.8140  0.0528
  962MOL0     C29765   8.414   1.891   6.236 -0.8287  1.5755 -1.2284
  962MOL0     O29766   8.486   1.998   6.249 -0.5926 -0.0501 -0.3022
  962MOL0     C29767   8.580   2.013   6.347 -1.7720 -0.5860 -0.7402
  962MOL0     C29768   8.664   2.129   6.336  0.4930 -0.2451 -0.3362
  962MOL0     C29769   8.753   2.173   6.430  1.2065 -0.6184 -1.0337
  962MOL0     C29770   8.780   2.090   6.539  0.2085 -0.5444 -0.7325
  962MOL0     O29771   8.874   2.147   6.622 -0.0014  0.2548 -0.9300
  962MOL0     C29772   8.904   2.076   6.736  0.1704 -0.0527  1.1665
  962MOL0     C29773   9.023   2.145   6.799  0.6948 -0.1740  0.1255
  962MOL0     C29774   9.046   2.081   6.937 -1.1912  0.1595 -0.0206
  962MOL0     C29775   9.133   1.958   6.931 -0.8402 -0.7886 -0.9343
  962MOL0     C29776   9.162   1.892   7.076 -0.1084  0.2883 -0.0856
  962MOL0     C29777   9.046   1.804   7.101  0.8486  1.3990 -0.0012
  962MOL0     C29778   9.062   1.731   7.240  0.1859 -0.2022  0.1864
  962MOL0     C29779   8.930   1.643   7.256 -0.2176  0.6233 -0.5136
  962MOL0    Cl29780   8.921   1.528   7.400  0.1372 -0.0142  0.1022
  962MOL0     C29781   8.701   1.978   6.560 -1.6064 -0.9162  0.3505
  962MOL0     C29782   8.596   1.944   6.468 -0.1269  0.3618  0.9731
  962MOL0     O29783   8.454   1.776   6.281  1.0576 -0.4468  0.3924
  962MOL0     C29784   8.254   1.789   6.062 -0.1953 -0.0632 -0.2106
  962MOL0     C29785   8.129   1.796   5.986 -0.0256 -0.6915  0.0529
  962MOL0     N29786   7.412   1.913   6.067  0.7519 -0.5535 -0.9311
  962MOL0     N29787   7.321   1.998   6.092 -0.5477 -0.7314  0.1152
  962MOL0     C29788   7.808   2.983   6.557 -0.0504  0.4306 -0.4762
  962MOL0     C29789   7.880   3.088   6.615 -0.8373 -1.0744  0.0095
  962MOL0     C29790   8.268   3.336   6.733  0.5910 -0.2946 -0.3882
  962MOL0     C29791   8.371   3.422   6.693 -0.8460  0.0402 -0.3925
  962MOL0     C29792   8.440   3.507   6.783  0.1846  0.1448  0.7157
  962MOL0     C29793   8.402   3.501   6.920 -0.1170 -0.1090  0.1273
  962MOL0     O29794   8.463   3.568   7.026  0.7470  1.0528 -0.5377
  962MOL0     C29795   8.580   3.644   6.995  0.1758  0.4810  0.5745
  962MOL0     C29796   8.635   3.730   7.113  0.8538  0.5796  0.0786
  962MOL0     C29797   8.667   3.651   7.245  0.0326  0.2869  1.0848
  962MOL0     C29798   8.771   3.708   7.340  0.3025 -0.1441 -0.5615
  962MOL0     C29799   8.714   3.810   7.425  0.0420 -0.9843  0.1774
  962MOL0     C29800   8.674   3.910   7.486 -0.1979 -0.6888  0.5061
  962MOL0     C29801   8.288   3.422   6.955 -0.2523 -0.1316 -0.3898
  962MOL0     C29802   8.225   3.337   6.859 -0.3302 -0.4001  0.1929
  962MOL0     H29803   8.186   2.954   6.567 -0.5743  1.1718  1.3249
  962MOL0     H29804   8.072   2.777   6.498 -1.0864 -1.9401  2.6225
  962MOL0     H29805   7.879   2.812   6.234  2.8206 -2.9081 -1.9748
  962MOL0     H29806   7.943   2.693   6.328  1.1361  3.4206 -0.2674
  962MOL0     H29807   7.808   2.571   6.171  0.4626  0.4924  0.4163
  962MOL0     H29808   7.741   2.543   6.330  0.5323 -0.9090  0.5010
  962MOL0     H29809   7.578   2.721   6.292 -2.6421 -1.2075  1.0057
  962MOL0     H29810   7.645   2.738   6.121  2.7393 -1.1440  0.6377
  962MOL0     H29811   7.451   2.603   6.090  0.2949  1.2566 -0.7744
  962MOL0     H29812   7.586   2.483   6.100 -2.0843 -0.7299  1.8982
  962MOL0     H29813   7.519   2.457   6.347  2.1526  0.4880 -0.9317
  962MOL0     H29814   7.394   2.572   6.307  0.5600 -0.1850  1.4344
  962MOL0     H29815   7.295   2.420   6.142  1.1215  2.3987  1.5866
  962MOL0     H29816   7.426   2.310   6.130 -1.0761 -0.0513 -0.1905
  962MOL0     H29817   7.383   2.261   6.402  0.4179 -1.5470 -1.0586
  962MOL0     H29818   7.233   2.346   6.366 -0.0305 -0.9789  0.3982
  962MOL0     H29819   7.171   2.183   6.210  1.6583  3.8424  0.0669
  962MOL0     H29820   7.208   2.109   6.361 -2.6565  1.8056  0.0115
  962MOL0     H29821   7.512   2.053   6.354 -2.2482  0.0980  0.4941
  962MOL0     H29822   7.664   1.842   6.302  3.3553 -1.2784 -2.2696
  962MOL0     H29823   7.562   1.720   6.219  1.0657 -1.1062 -1.2168
  962MOL0     H29824   7.676   1.821   5.993  1.3919 -1.7673 -1.0343
  962MOL0     H29825   7.792   1.750   6.092  1.3686  1.1813 -2.3822
  962MOL0     H29826   7.892   1.945   6.167  0.7889  0.1706 -0.1923
  962MOL0     H29827   7.731   2.028   6.157 -3.7949 -3.1636 -0.7141
  962MOL0     H29828   7.865   2.110   5.977  0.8304  0.1786 -1.1043
  962MOL0     H29829   7.731   2.008   5.908 -1.6425 -0.1348  1.4545
  962MOL0     H29830   8.050   2.121   6.027 -1.9668 -0.6131 -0.7131
  962MOL0     H29831   8.330   2.199   6.138  0.0306  1.0681  0.5558
  962MOL0     H29832   8.174   2.213   6.217  1.9244  0.6944  4.3264
  962MOL0     H29833   8.291   2.109   6.293  3.4481  0.0218 -1.4617
  962MOL0     H29834   8.634   2.188   6.251 -0.6858  0.7731  0.7425
  962MOL0     H29835   8.807   2.265   6.413 -3.0934  2.0858 -1.6031
  962MOL0     H29836   8.812   2.067   6.795 -0.7217 -2.5197 -0.4676
  962MOL0     H29837   8.927   1.971   6.719 -1.3115 -0.0603 -1.3456
  962MOL0     H29838   9.117   2.145   6.744  1.0795  1.0913  0.7327
  962MOL0     H29839   8.997   2.251   6.814 -1.5710 -1.0111  3.2990
  962MOL0     H29840   8.954   2.057   6.991 -0.6606 -0.1660  0.7434
  962MOL0     H29841   9.097   2.143   7.011 -3.1943  1.4407  0.3796
  962MOL0     H29842   9.095   1.883   6.860 -0.6232 -1.8901  0.0807
  962MOL0     H29843   9.232   1.980   6.889 -0.0263 -2.6773 -0.1131
  962MOL0     H29844   9.170   1.974   7.148 -0.2200  0.8593 -0.7075
  962MOL0     H29845   9.257   1.838   7.086  0.0315 -0.1414 -2.8898
  962MOL0     H29846   8.947   1.851   7.097  0.9572  1.5362 -2.1188
  962MOL0     H29847   9.035   1.727   7.024 -0.8297  0.0320  1.5080
  962MOL0     H29848   9.065   1.806   7.320 -0.7925 -0.1999  0.2388
  962MOL0     H29849   9.153   1.672   7.246 -1.8665 -3.8670 -1.3917
  962MOL0     H29850   8.917   1.587   7.163  2.6530 -0.1088 -0.5675
  962MOL0     H29851   8.841   1.708   7.256  1.0867  2.5063 -0.9234
  962MOL0     H29852   8.704   1.922   6.653 -2.4829  0.8428  1.4882
  962MOL0     H29853   8.533   1.859   6.493 -0.0996 -0.7015 -2.1594
  962MOL0     H29854   8.327   1.708   6.060  0.8660  0.8259  1.0207
  962MOL0     H29855   8.097   1.716   5.920 -1.0163  2.1640 -3.2586
  962MOL0     H29856   7.700   2.993   6.545 -0.2570  1.9074  2.0142
  962MOL0     H29857   7.835   3.174   6.663 -0.6668 -0.6656 -0.5431
  962MOL0     H29858   8.423   3.418   6.597  2.7301  0.8635  1.3517
  962MOL0     H29859   8.524   3.565   6.748  0.5521  0.5681  2.2396
  962MOL0     H29860   8.651   3.564   6.972  1.5231  2.3426 -2.5096
  962MOL0     H29861   8.552   3.694   6.901 -1.4014 -1.3938 -0.0279
  962MOL0     H29862   8.553   3.797   7.140 -3.0060 -4.1924  1.7552
  962MOL0     H29863   8.715   3.793   7.073 -1.6262  2.2414 -2.7336
  962MOL0     H29864   8.709   3.559   7.203 -0.3358  0.0264  1.2822
  962MOL0     H29865   8.583   3.613   7.304  0.8550 -2.1635  0.8232
  962MOL0     H29866   8.861   3.738   7.285  0.5986  0.7422  0.3752
  962MOL0     H29867   8.803   3.625   7.404 -2.1229 -0.4714  0.3324
  962MOL0     H29868   8.650   3.997   7.544  3.1060  2.3151 -2.1899
  962MOL0     H29869   8.273   3.418   7.062  1.3514 -3.8559 -0.1294
  962MOL0     H29870   8.142   3.271   6.885  1.8713 -3.1918  0.6455
  963MOL0     O29871   3.468   3.821   4.442 -0.7319 -0.7615  0.2689
  963MOL0     C29872   3.349   3.793   4.449  0.0242 -0.0412  0.4603
  963MOL0     O29873   3.263   3.841   4.544 -0.6260 -0.6326  0.7276
  963MOL0     C29874   3.290   3.967   4.595  0.0769 -0.8361 -0.3321
  963MOL0     C29875   3.397   3.982   4.685  0.3647 -0.9981  0.1394
  963MOL0     C29876   3.416   4.106   4.752  0.1674  0.0671 -0.2978
  963MOL0     C29877   3.339   4.214   4.715 -0.0352 -0.4360  0.3935
  963MOL0     O29878   3.367   4.326   4.789  0.6241 -0.8627  0.9043
  963MOL0     C29879   3.266   4.411   4.835  0.6171  0.9401  0.0519
  963MOL0     C29880   3.307   4.509   4.945  0.8588 -0.2748 -0.4705
  963MOL0     C29881   3.357   4.644   4.880  0.0864 -0.3648  0.4958
  963MOL0     C29882   3.239   4.730   4.850 -1.0093 -1.1139 -0.3340
  963MOL0     C29883   3.288   4.860   4.789 -0.4177  0.2913 -0.1498
  963MOL0     C29884   3.174   4.962   4.750  0.3154  0.6573 -0.1779
  963MOL0     C29885   3.226   5.086   4.682  0.2951  0.2313  0.1236
  963MOL0     C29886   3.295   5.193   4.761  0.3669 -0.1977 -0.6316
  963MOL0     N29887   3.444   5.190   4.740  0.0524 -0.1626 -0.1988
  963MOL0     C29888   3.501   5.232   4.624  1.1277 -0.8633  0.2323
  963MOL0     C29889   3.632   5.227   4.648 -0.2965 -0.9594 -0.6766
  963MOL0     C29890   3.731   5.244   4.541 -0.2905  0.4694 -1.1896
  963MOL0     C29891   3.819   5.373   4.545 -0.5454 -0.6825 -0.2523
  963MOL0     C29892   3.735   5.495   4.486 -0.1457 -0.0277  0.9997
  963MOL0     C29893   3.804   5.633   4.484  0.0147 -0.8595  0.0054
  963MOL0     O29894   3.905   5.654   4.396 -0.3270  0.0642 -0.8461
  963MOL0     C29895   3.903   5.634   4.271 -0.1557 -0.5552  0.3130
  963MOL0     C29896   3.793   5.618   4.185 -0.7385  1.1534 -0.1346
  963MOL0     C29897   3.809   5.613   4.041  0.3023 -0.4833  0.0124
  963MOL0     C29898   3.672   5.605   3.972  0.1548 -0.6891 -0.2668
  963MOL0     C29899   3.933   5.647   3.977  0.2743  0.1796 -0.1762
  963MOL0     C29900   3.952   5.674   3.832  0.2640  0.1780  0.4863
  963MOL0     O29901   4.086   5.696   3.797  0.4770 -0.1712 -0.1425
  963MOL0     C29902   4.120   5.742   3.669  0.6925 -0.2217 -0.7237
  963MOL0     C29903   4.251   5.795   3.650  0.4123  0.2757 -0.2497
  963MOL0     C29904   4.294   5.836   3.526  0.2250 -1.0926 -0.7753
  963MOL0     C29905   4.226   5.802   3.412  0.3043 -0.1677 -0.9284
  963MOL0     O29906   4.296   5.829   3.295 -0.0089  0.1040 -1.0101
  963MOL0     C29907   4.263   5.773   3.173 -0.1520  0.4064 -0.6898
  963MOL0     C29908   4.321   5.867   3.064 -0.0103  0.1631  0.6738
  963MOL0     C29909   4.277   5.833   2.925  0.9821 -0.3242 -0.9373
  963MOL0     C29910   4.329   5.705   2.879  0.3526  0.0246  0.0548
  963MOL0     C29911   4.267   5.668   2.742  0.6390  0.0942 -0.3923
  963MOL0     C29912   4.341   5.539   2.690 -0.2068 -0.6955 -0.5745
  963MOL0     C29913   4.268   5.506   2.559 -0.1360  0.6233 -0.2602
  963MOL0     C29914   4.239   5.364   2.557 -0.6725  0.6074  0.6637
  963MOL0    Cl29915   4.090   5.339   2.653 -0.3805 -0.4142  0.3278
  963MOL0     C29916   4.098   5.747   3.421  0.8327 -0.3158 -1.0735
  963MOL0     C29917   4.043   5.732   3.549  0.3063 -0.3777 -0.4524
  963MOL0     O29918   3.856   5.662   3.757  0.4383  0.6629 -0.1541
  963MOL0     C29919   4.039   5.660   4.063  0.5223  1.1213 -0.3246
  963MOL0     C29920   4.026   5.666   4.203  0.3420 -0.1584 -0.4700
  963MOL0     N29921   3.651   5.201   4.779  0.0365  0.6258  0.0593
  963MOL0     N29922   3.533   5.177   4.836 -1.1535 -0.0739  0.2263
  963MOL0     C29923   3.235   4.203   4.614 -0.2125  0.0144  0.2508
  963MOL0     C29924   3.211   4.077   4.563  0.4582 -0.6563 -0.5932
  963MOL0     C29925   3.293   3.702   4.333  0.1890  0.2587  0.7834
  963MOL0     C29926   3.165   3.640   4.344 -0.1005  0.6436 -0.7149
  963MOL0     C29927   3.110   3.572   4.238  1.0607  0.0108  0.1923
  963MOL0     C29928   3.179   3.546   4.119 -0.3430  0.4536 -0.0166
  963MOL0     O29929   3.113   3.466   4.032 -0.0321 -0.1867  0.1167
  963MOL0     C29930   3.180   3.438   3.907 -0.2622  0.2651 -0.0262
  963MOL0     C29931   3.073   3.406   3.805 -0.1997 -0.2086 -0.3480
  963MOL0     C29932   3.131   3.337   3.685 -0.7708 -0.3145 -0.6076
  963MOL0     C29933   3.014   3.314   3.579  0.0939  0.7678  0.1989
  963MOL0     C29934   3.061   3.242   3.458  0.0569  0.9388 -0.4951
  963MOL0     C29935   3.087   3.170   3.360  0.0876  0.0284 -0.4528
  963MOL0     C29936   3.300   3.611   4.107 -0.0181 -0.4855  0.8161
  963MOL0     C29937   3.352   3.692   4.206  1.0638 -0.0201 -0.1229
  963MOL0     H29938   3.471   3.903   4.701  1.1342  0.0176  1.9810
  963MOL0     H29939   3.497   4.112   4.823  0.6310  1.1254 -0.8873
  963MOL0     H29940   3.228   4.451   4.741  0.0733 -0.6834 -0.4502
  963MOL0     H29941   3.195   4.339   4.876  2.9403 -1.9815 -0.6839
  963MOL0     H29942   3.235   4.538   5.022  2.2204 -0.5595  0.9538
  963MOL0     H29943   3.383   4.452   4.999  0.6753 -0.9655 -0.9400
  963MOL0     H29944   3.426   4.704   4.940  1.3980 -0.8930 -0.4240
  963MOL0     H29945   3.416   4.617   4.792  1.1929 -0.1046  1.1368
  963MOL0     H29946   3.173   4.687   4.775 -0.4826 -2.2254 -0.1718
  963MOL0     H29947   3.180   4.752   4.940 -0.3425 -0.6283 -0.0037
  963MOL0     H29948   3.349   4.913   4.863 -0.4782 -1.1437  0.9650
  963MOL0     H29949   3.348   4.844   4.700 -0.6449 -1.7675  0.0311
  963MOL0     H29950   3.104   4.918   4.678  0.5428  3.2419 -2.1170
  963MOL0     H29951   3.120   4.986   4.841  1.0013 -1.2728  0.8018
  963MOL0     H29952   3.276   5.060   4.588  1.8096  2.3812  0.2581
  963MOL0     H29953   3.134   5.139   4.654  0.9100  0.4300 -1.7002
  963MOL0     H29954   3.277   5.188   4.869 -2.0448 -0.0617 -0.9732
  963MOL0     H29955   3.256   5.291   4.733  1.7351  0.8997  1.0923
  963MOL0     H29956   3.446   5.256   4.533  2.7154 -0.5426 -0.6685
  963MOL0     H29957   3.804   5.165   4.559  1.8316  3.0314  3.7257
  963MOL0     H29958   3.688   5.228   4.442 -0.5981 -2.9641 -0.6187
  963MOL0     H29959   3.912   5.369   4.486  0.8412  1.0517  1.6597
  963MOL0     H29960   3.845   5.389   4.650 -0.1409 -3.2472  0.1055
  963MOL0     H29961   3.641   5.511   4.541 -1.2252  0.0177 -0.7704
  963MOL0     H29962   3.709   5.461   4.385  2.4586 -3.4752  1.3240
  963MOL0     H29963   3.843   5.653   4.585  0.3923 -0.0876 -0.2904
  963MOL0     H29964   3.720   5.698   4.458  0.2427 -1.0781 -1.3502
  963MOL0     H29965   3.694   5.616   4.228 -0.2636  0.5892  0.9839
  963MOL0     H29966   3.616   5.699   3.970 -0.5622 -0.9750  2.1496
  963MOL0     H29967   3.672   5.557   3.874 -0.0131 -2.3325  0.5034
  963MOL0     H29968   3.604   5.536   4.023  0.7425 -0.5535  0.7388
  963MOL0     H29969   4.318   5.817   3.733  1.0938  1.5768 -1.1090
  963MOL0     H29970   4.389   5.887   3.512 -0.1877 -0.3868 -1.1071
  963MOL0     H29971   4.301   5.670   3.178  2.8442  1.4666  0.6647
  963MOL0     H29972   4.154   5.775   3.164 -0.3490 -1.9175  0.3652
  963MOL0     H29973   4.289   5.971   3.072 -1.4926 -0.3610  2.2783
  963MOL0     H29974   4.429   5.851   3.057 -0.3426 -2.9256  1.0046
  963MOL0     H29975   4.299   5.906   2.846 -0.4690  0.0322 -1.0371
  963MOL0     H29976   4.168   5.838   2.919  0.9861  0.4825 -0.5711
  963MOL0     H29977   4.439   5.703   2.875  0.3173 -1.9368 -2.5136
  963MOL0     H29978   4.302   5.627   2.950  1.3135  0.0649  0.4869
  963MOL0     H29979   4.283   5.742   2.663  3.2663  0.0914  0.0606
  963MOL0     H29980   4.164   5.640   2.766  1.1587 -1.3515  0.2648
  963MOL0     H29981   4.443   5.563   2.658 -0.8608  0.3732 -1.9540
  963MOL0     H29982   4.335   5.464   2.769  1.6140  1.2037  1.5200
  963MOL0     H29983   4.333   5.528   2.473  1.2048  0.1052  0.5833
  963MOL0     H29984   4.182   5.571   2.542  0.0102  1.3274  1.4929
  963MOL0     H29985   4.323   5.305   2.593  1.0279  3.3288  1.4941
  963MOL0     H29986   4.211   5.341   2.453 -5.1855  0.1958  1.7566
  963MOL0     H29987   4.044   5.711   3.334 -0.3570 -2.0323  0.2936
  963MOL0     H29988   3.943   5.690   3.549  0.4336 -0.6962  0.2232
  963MOL0     H29989   4.141   5.674   4.027  0.7977  1.6025  0.6071
  963MOL0     H29990   4.109   5.696   4.266 -0.4782 -2.3335  1.8207
  963MOL0     H29991   3.174   4.292   4.599  3.3446  2.2644 -2.3811
  963MOL0     H29992   3.132   4.080   4.488  2.1643  5.3150 -2.6599
  963MOL0     H29993   3.113   3.659   4.438 -1.5188 -0.5425 -1.2066
  963MOL0     H29994   3.015   3.522   4.257  0.1188  2.0224  1.0291
  963MOL0     H29995   3.236   3.523   3.869  3.2050 -1.2875  1.1981
  963MOL0     H29996   3.245   3.352   3.928 -1.8438 -0.7578  0.8950
  963MOL0     H29997   3.025   3.500   3.773 -1.3770  0.4796  3.0456
  963MOL0     H29998   3.001   3.337   3.849  2.2893 -1.5820  1.8440
  963MOL0     H29999   3.167   3.242   3.726  0.0850 -0.1209 -0.9060
  963MOL0     H30000   3.214   3.402   3.658 -0.8944  2.1143  3.9093
  963MOL0     H30001   2.969   3.412   3.558 -2.6123 -0.0265  1.8239
  963MOL0     H30002   2.941   3.255   3.634  0.2989 -0.1793 -0.5233
  963MOL0     H30003   3.108   3.100   3.281  1.4073 -0.4340  0.2768
  963MOL0     H30004   3.355   3.615   4.013 -1.1388  2.8617  0.1482
  963MOL0     H30005   3.452   3.733   4.194 -0.6372  3.9649 -2.9041
  964MOL0     O30006   5.088   4.154   0.628 -0.7468 -0.0099 -0.2832
  964MOL0     C30007   5.037   4.058   0.568 -0.4172  0.4494 -0.3346
  964MOL0     O30008   5.024   3.935   0.617 -0.4548  0.4741 -0.2442
  964MOL0     C30009   5.062   3.921   0.750  0.2022 -0.0256  0.4705
  964MOL0     C30010   4.978   3.978   0.848  0.4044 -0.5650 -0.5598
  964MOL0     C30011   4.997   3.922   0.986 -0.3469 -0.1104  1.6602
  964MOL0     C30012   5.103   3.834   1.017  0.6777  0.2403  0.6237
  964MOL0     O30013   5.119   3.787   1.147 -0.2973 -0.2779 -0.3651
  964MOL0     C30014   5.119   3.888   1.254 -0.3070  0.1338  0.5610
  964MOL0     C30015   5.138   3.833   1.389 -0.2449 -0.9758  1.3642
  964MOL0     C30016   5.263   3.752   1.411  1.4410  0.1926 -0.7771
  964MOL0     C30017   5.394   3.830   1.414 -0.4201  0.2352 -0.4125
  964MOL0     C30018   5.518   3.752   1.363  0.4469  0.0089 -0.8761
  964MOL0     C30019   5.539   3.631   1.450 -0.1669 -0.0925 -0.1139
  964MOL0     C30020   5.674   3.552   1.437 -0.3381  0.0962  0.2108
  964MOL0     C30021   5.738   3.538   1.295 -0.7141  0.4885 -0.9565
  964MOL0     N30022   5.835   3.429   1.292  0.0260 -0.2059  0.0833
  964MOL0     C30023   5.959   3.449   1.331  0.1329 -0.0474  0.7732
  964MOL0     C30024   6.030   3.360   1.264 -0.2259 -0.4165 -0.6887
  964MOL0     C30025   6.171   3.340   1.287 -0.4598  1.1417 -0.5507
  964MOL0     C30026   6.254   3.345   1.152  1.4863 -0.1230 -0.6532
  964MOL0     C30027   6.386   3.268   1.155 -0.0781 -0.6007 -0.0020
  964MOL0     C30028   6.490   3.305   1.046 -0.1524 -0.6318 -0.9737
  964MOL0     O30029   6.541   3.433   1.079 -0.1511  0.2446 -0.6175
  964MOL0     C30030   6.577   3.510   0.976 -0.2500 -0.2471 -0.2591
  964MOL0     C30031   6.527   3.637   0.982  0.5717  0.4910  0.2061
  964MOL0     C30032   6.565   3.727   0.878  0.5308 -0.3086 -0.1553
  964MOL0     C30033   6.511   3.863   0.905  0.5732  0.0575  0.4001
  964MOL0     C30034   6.651   3.689   0.778 -0.4789 -0.5098  0.5338
  964MOL0     C30035   6.684   3.779   0.659  0.3001 -0.8141  0.1488
  964MOL0     O30036   6.592   3.885   0.638 -0.2079  0.0813  0.3464
  964MOL0     C30037   6.618   3.962   0.525  0.1961  0.4993  0.5160
  964MOL0     C30038   6.602   3.926   0.396 -0.6810 -0.3453  0.7449
  964MOL0     C30039   6.600   4.023   0.296 -0.5391  0.1744  0.6731
  964MOL0     C30040   6.632   4.154   0.324  0.2323 -0.0552  0.5467
  964MOL0     O30041   6.622   4.256   0.235  0.3761 -0.2374  0.3123
  964MOL0     C30042   6.706   4.247   0.113  0.1748 -0.9467  0.9042
  964MOL0     C30043   6.769   4.383   0.078 -0.4028 -0.5085  0.3016
  964MOL0     C30044   6.674   4.509   0.061 -1.0412 -0.2147  0.0027
  964MOL0     C30045   6.613   4.524  -0.078  0.2678 -0.4886  0.6489
  964MOL0     C30046   6.581   4.667  -0.127 -0.1084  0.7716  0.2585
  964MOL0     C30047   6.461   4.721  -0.059  0.5595  0.4952 -0.1102
  964MOL0     C30048   6.449   4.871  -0.083  0.1878 -0.4160 -0.0171
  964MOL0     C30049   6.324   4.931  -0.013  0.3091  0.6910 -0.3374
  964MOL0    Cl30050   6.249   5.077  -0.095  0.4589  0.0710 -0.3997
  964MOL0     C30051   6.659   4.193   0.455  0.3746  0.1574  0.5280
  964MOL0     C30052   6.630   4.101   0.554  0.0839 -0.4974  0.2789
  964MOL0     O30053   6.777   3.752   0.584  0.9139  0.8122 -0.5497
  964MOL0     C30054   6.709   3.561   0.779  0.9888  0.3531  0.5709
  964MOL0     C30055   6.672   3.474   0.878 -0.2900 -0.3025 -0.2119
  964MOL0     N30056   5.951   3.284   1.183  0.4320 -0.1040  0.2106
  964MOL0     N30057   5.830   3.329   1.199  0.4775  0.6752  0.9135
  964MOL0     C30058   5.185   3.790   0.913 -1.3367  1.2484  0.0755
  964MOL0     C30059   5.164   3.829   0.777 -0.4519 -0.6863  0.2761
  964MOL0     C30060   5.005   4.075   0.415 -0.4259 -1.0429 -0.5497
  964MOL0     C30061   4.945   3.974   0.344  0.5480 -0.4800 -0.2966
  964MOL0     C30062   4.905   3.993   0.207 -0.0769  0.3411  0.2462
  964MOL0     C30063   4.919   4.113   0.143 -0.1540 -0.2619  0.1941
  964MOL0     O30064   4.864   4.119   0.018  0.7059  0.3319 -0.1154
  964MOL0     C30065   4.911   4.229  -0.070 -0.5586 -0.5025  0.1884
  964MOL0     C30066   4.808   4.334  -0.086  0.3757  1.2670 -0.7017
  964MOL0     C30067   4.781   4.374  -0.228  0.6221  0.0825  0.5775
  964MOL0     C30068   4.689   4.501  -0.238  0.0508  0.0643  0.4636
  964MOL0     C30069   4.760   4.621  -0.202 -1.0144  0.6660  0.2155
  964MOL0     C30070   4.836   4.707  -0.181  0.1201  0.2280 -0.0882
  964MOL0     C30071   4.978   4.220   0.219  0.6859  0.3159 -0.3293
  964MOL0     C30072   5.026   4.202   0.350  0.0089  0.6993 -0.2562
  964MOL0     H30073   4.893   4.035   0.812 -0.2177 -0.7628  0.5533
  964MOL0     H30074   4.919   3.927   1.062 -0.1765 -0.2594  1.8496
  964MOL0     H30075   5.201   3.958   1.232 -1.8341  2.0633  0.7616
  964MOL0     H30076   5.035   3.958   1.254  1.3908  2.3129 -0.6293
  964MOL0     H30077   5.133   3.912   1.464 -0.9003  0.3389 -0.0125
  964MOL0     H30078   5.045   3.776   1.406 -2.4206  2.1338  0.7533
  964MOL0     H30079   5.243   3.703   1.506  1.5163 -3.1837 -2.3608
  964MOL0     H30080   5.263   3.669   1.340 -0.4284 -1.2593  0.8184
  964MOL0     H30081   5.387   3.913   1.343  1.7591 -1.5063 -2.8488
  964MOL0     H30082   5.414   3.875   1.511  1.6919  2.6778 -1.8567
  964MOL0     H30083   5.499   3.725   1.259  0.5451  1.7499 -1.3791
  964MOL0     H30084   5.597   3.827   1.369 -0.1212  0.6634 -1.3242
  964MOL0     H30085   5.516   3.669   1.550 -4.5994 -1.1526 -0.5426
  964MOL0     H30086   5.461   3.557   1.431 -2.0335  1.0101  2.6798
  964MOL0     H30087   5.753   3.599   1.497 -1.3370 -2.2293  3.6505
  964MOL0     H30088   5.643   3.457   1.482  0.3091 -0.1594  0.1274
  964MOL0     H30089   5.778   3.638   1.278 -0.1110  0.5149  0.4134
  964MOL0     H30090   5.659   3.504   1.228 -1.9609  1.2445  0.0955
  964MOL0     H30091   5.989   3.516   1.412 -0.3519  2.6407 -1.1357
  964MOL0     H30092   6.210   3.404   1.367 -0.6875  1.8350 -0.9880
  964MOL0     H30093   6.173   3.240   1.332 -2.0527  1.1866 -0.3249
  964MOL0     H30094   6.281   3.450   1.136  0.0485  0.8033  2.2218
  964MOL0     H30095   6.195   3.304   1.070 -1.7843  1.2394  0.8374
  964MOL0     H30096   6.366   3.161   1.144  1.2568 -0.7775 -0.9712
  964MOL0     H30097   6.434   3.286   1.252 -0.4821 -2.1073  0.4957
  964MOL0     H30098   6.445   3.315   0.947 -0.1610 -0.5366 -0.9610
  964MOL0     H30099   6.565   3.226   1.036 -1.8704 -2.5629  0.4685
  964MOL0     H30100   6.468   3.660   1.070 -1.4126 -1.5033 -0.5023
  964MOL0     H30101   6.561   3.946   0.855 -0.6967 -0.2899 -1.5534
  964MOL0     H30102   6.408   3.864   0.867  1.0467  2.5604 -1.0924
  964MOL0     H30103   6.514   3.880   1.013 -2.3051 -1.8829  0.9046
  964MOL0     H30104   6.562   3.835   0.354  0.7837 -0.4772 -0.4529
  964MOL0     H30105   6.588   3.991   0.193 -0.0088  0.2965  0.5670
  964MOL0     H30106   6.786   4.173   0.126  0.3552 -0.8017  0.6244
  964MOL0     H30107   6.637   4.225   0.031  1.9828 -2.3132 -0.3329
  964MOL0     H30108   6.842   4.405   0.156 -0.5107  0.6250  0.0954
  964MOL0     H30109   6.817   4.355  -0.016 -1.4274  0.6582 -0.6086
  964MOL0     H30110   6.744   4.589   0.089 -0.7756 -0.5553  0.3229
  964MOL0     H30111   6.600   4.511   0.141 -0.5872 -0.5198  0.4385
  964MOL0     H30112   6.678   4.474  -0.152  0.8865 -2.1892  2.2670
  964MOL0     H30113   6.524   4.461  -0.073 -0.3714  0.2445 -0.7203
  964MOL0     H30114   6.566   4.656  -0.235  1.0577 -2.9059  0.3297
  964MOL0     H30115   6.672   4.726  -0.112  0.7101 -0.5324  0.5149
  964MOL0     H30116   6.371   4.669  -0.094  1.4297 -0.5630 -0.8364
  964MOL0     H30117   6.491   4.708   0.046  5.0540  0.1745 -1.2101
  964MOL0     H30118   6.440   4.885  -0.191  0.4864 -3.2145 -0.4667
  964MOL0     H30119   6.533   4.929  -0.044  0.0554 -0.2304 -0.0040
  964MOL0     H30120   6.346   4.960   0.090 -2.9573  2.2277  0.0395
  964MOL0     H30121   6.249   4.851  -0.005  1.1769  0.0246  2.2422
  964MOL0     H30122   6.684   4.297   0.470  3.7512 -0.4258 -0.3823
  964MOL0     H30123   6.637   4.118   0.661  1.0684 -3.7362  0.8254
  964MOL0     H30124   6.767   3.518   0.698  0.7870  0.0943  0.5628
  964MOL0     H30125   6.713   3.375   0.896  0.3160 -0.3418 -1.7111
  964MOL0     H30126   5.268   3.725   0.937 -1.0543  1.3702 -0.5709
  964MOL0     H30127   5.220   3.780   0.698  0.1099 -1.9102  1.3912
  964MOL0     H30128   4.926   3.885   0.403 -1.4657  0.1583  0.0995
  964MOL0     H30129   4.869   3.910   0.147  0.2056  1.6208 -1.7827
  964MOL0     H30130   5.000   4.280  -0.034 -0.3200 -1.5117  1.0995
  964MOL0     H30131   4.928   4.184  -0.169  2.0311 -2.2864  1.3430
  964MOL0     H30132   4.834   4.415  -0.018  0.1499 -0.9435  2.2301
  964MOL0     H30133   4.710   4.302  -0.049 -1.1848  2.6154 -3.3875
  964MOL0     H30134   4.730   4.301  -0.291  1.7330  0.3876 -0.7144
  964MOL0     H30135   4.882   4.388  -0.266 -0.8036  0.1077 -3.7593
  964MOL0     H30136   4.599   4.486  -0.178 -0.2592 -0.8462 -0.2133
  964MOL0     H30137   4.648   4.524  -0.336  0.9578  1.1941  0.3264
  964MOL0     H30138   4.920   4.758  -0.137  0.5591 -1.2628  0.9019
  964MOL0     H30139   4.988   4.317   0.172 -0.0774  0.8725  0.6207
  964MOL0     H30140   5.071   4.296   0.381 -0.4949  2.2217 -3.6652
  965MOL0     O30141   1.360   0.123   1.187 -0.3802  0.5860  0.3428
  965MOL0     C30142   1.416   0.180   1.283  0.3640 -0.0977  0.5530
  965MOL0     O30143   1.363   0.196   1.411  0.4651 -0.7466 -0.2172
  965MOL0     C30144   1.226   0.211   1.435 -0.3031 -0.1393  0.5451
  965MOL0     C30145   1.191   0.253   1.559  0.8066  0.5766  0.0899
  965MOL0     C30146   1.060   0.289   1.589  0.8961 -0.9240  0.2884
  965MOL0     C30147   0.954   0.264   1.500 -0.4954  0.3341  0.5711
  965MOL0     O30148   0.818   0.303   1.521 -0.4925 -0.6387  0.8399
  965MOL0     C30149   0.770   0.301   1.655  0.1449 -0.0627 -0.4801
  965MOL0     C30150   0.619   0.301   1.666 -0.1383 -1.0836 -0.1574
  965MOL0     C30151   0.583   0.351   1.800 -0.4099  1.1743 -0.0552
  965MOL0     C30152   0.433   0.372   1.811  0.3563  0.2420  0.7077
  965MOL0     C30153   0.397   0.383   1.958 -0.6198  0.7247  0.2099
  965MOL0     C30154   0.465   0.496   2.043  0.4123 -0.7372  1.3176
  965MOL0     C30155   0.451   0.641   1.989  0.0375 -0.0041  0.7512
  965MOL0     C30156   0.433   0.740   2.100  0.3171 -0.3198  0.5529
  965MOL0     N30157   0.292   0.744   2.153 -0.0315 -0.4341 -0.2231
  965MOL0     C30158   0.189   0.824   2.094 -0.2303 -0.3709 -0.9033
  965MOL0     C30159   0.079   0.771   2.135  0.7223 -0.4227  0.0963
  965MOL0     C30160  -0.060   0.825   2.122  0.5384 -0.2070  0.3474
  965MOL0     C30161  -0.094   0.950   2.034 -0.1711 -0.0276  0.6028
  965MOL0     C30162  -0.043   1.073   2.111 -0.1707  0.3747  0.2787
  965MOL0     C30163  -0.121   1.105   2.239 -0.3372 -0.6752 -0.1813
  965MOL0     O30164  -0.125   1.241   2.285  0.2680  0.1768  0.9220
  965MOL0     C30165  -0.223   1.287   2.369  0.2783  0.2439 -0.2967
  965MOL0     C30166  -0.278   1.420   2.363  0.1193  0.5179  0.3399
  965MOL0     C30167  -0.387   1.461   2.462  0.0193 -0.2345 -0.1569
  965MOL0     C30168  -0.444   1.600   2.463  0.2895  0.1600 -0.6837
  965MOL0     C30169  -0.443   1.366   2.544 -0.0559 -0.1042  0.2454
  965MOL0     C30170  -0.556   1.380   2.645 -0.3379 -0.0917  0.5865
  965MOL0     O30171  -0.539   1.334   2.777 -0.9012  0.0774 -0.2308
  965MOL0     C30172  -0.629   1.340   2.880  0.2890  0.0364  0.2964
  965MOL0     C30173  -0.583   1.298   2.999 -0.5539  0.8140 -0.0533
  965MOL0     C30174  -0.664   1.287   3.116  0.2966 -0.0828 -0.0707
  965MOL0     C30175  -0.802   1.304   3.103 -0.2810  0.3634 -0.6684
  965MOL0     O30176  -0.880   1.273   3.213  0.6062 -0.3301 -0.8974
  965MOL0     C30177  -1.006   1.341   3.238 -0.4570 -0.2620 -0.1425
  965MOL0     C30178  -0.978   1.476   3.298  0.7844 -0.2265 -0.9968
  965MOL0     C30179  -1.107   1.567   3.274  0.1378  1.5259  0.4140
  965MOL0     C30180  -1.095   1.710   3.312 -0.8420 -0.1011 -0.4816
  965MOL0     C30181  -1.225   1.785   3.283 -1.2081  0.6483 -0.4173
  965MOL0     C30182  -1.205   1.934   3.301 -0.1159 -0.9734 -0.0387
  965MOL0     C30183  -1.183   1.994   3.156  0.1756  0.0153 -0.0388
  965MOL0     C30184  -1.192   2.141   3.151 -0.4432  0.6347  0.1579
  965MOL0    Cl30185  -1.364   2.200   3.159  0.0473 -0.0195 -0.4275
  965MOL0     C30186  -0.849   1.344   2.980 -0.3228  0.4773 -0.3267
  965MOL0     C30187  -0.764   1.370   2.876  1.2653  0.3151  0.4318
  965MOL0     O30188  -0.658   1.442   2.607  0.3637 -0.2422 -0.4195
  965MOL0     C30189  -0.382   1.239   2.532  0.5961  0.4343 -0.1334
  965MOL0     C30190  -0.276   1.202   2.457 -0.2204  0.6751  0.2742
  965MOL0     N30191   0.116   0.672   2.223 -0.6985  0.7400  0.1091
  965MOL0     N30192   0.248   0.649   2.230 -0.0848  0.7031 -0.2004
  965MOL0     C30193   0.987   0.202   1.385  0.7573 -0.4910  0.9269
  965MOL0     C30194   1.114   0.180   1.345 -0.0367 -0.3493 -0.2611
  965MOL0     C30195   1.541   0.244   1.233 -0.4096 -0.2481  0.5605
  965MOL0     C30196   1.570   0.265   1.091 -0.0106  0.2855 -0.4953
  965MOL0     C30197   1.695   0.321   1.063  0.1441  0.4305 -0.0013
  965MOL0     C30198   1.794   0.362   1.161  0.7007  0.1185  0.0829
  965MOL0     O30199   1.911   0.431   1.116  0.7454 -0.1111 -0.3589
  965MOL0     C30200   2.017   0.449   1.206  0.6256 -0.1813  0.8456
  965MOL0     C30201   2.128   0.516   1.135  0.6472 -0.9726 -0.3552
  965MOL0     C30202   2.257   0.527   1.219  1.4415 -0.2755  0.6692
  965MOL0     C30203   2.388   0.531   1.142 -0.2706 -0.3270 -0.1082
  965MOL0     C30204   2.448   0.389   1.130 -0.3850 -0.0711  0.5345
  965MOL0     C30205   2.487   0.275   1.121 -0.3074 -0.5729 -0.1384
  965MOL0     C30206   1.760   0.338   1.300 -0.1197  0.7165 -0.0589
  965MOL0     C30207   1.632   0.292   1.332  0.3984  0.3581  0.2283
  965MOL0     H30208   1.264   0.278   1.635  1.5430 -1.5072  0.1335
  965MOL0     H30209   1.046   0.358   1.672  0.3251 -1.7564  0.9116
  965MOL0     H30210   0.804   0.218   1.716 -2.8612 -1.6976 -0.8273
  965MOL0     H30211   0.809   0.394   1.697 -3.0496  1.4494 -0.5191
  965MOL0     H30212   0.590   0.359   1.578  0.0702  0.7467  0.9348
  965MOL0     H30213   0.567   0.205   1.664 -1.6808 -0.7421  5.4558
  965MOL0     H30214   0.597   0.267   1.869 -3.6795 -0.2624 -0.9369
  965MOL0     H30215   0.636   0.440   1.835  1.6235  0.2382 -0.6476
  965MOL0     H30216   0.395   0.458   1.756  0.8644 -0.2249 -0.4185
  965MOL0     H30217   0.378   0.290   1.762  3.2525 -1.4218 -0.0224
  965MOL0     H30218   0.288   0.386   1.965 -0.5678  1.6556  0.8696
  965MOL0     H30219   0.420   0.293   2.015 -0.3990  0.7989  0.2406
  965MOL0     H30220   0.429   0.478   2.145 -0.3109  2.1003  1.6428
  965MOL0     H30221   0.573   0.479   2.037  0.2127 -1.5229 -1.4758
  965MOL0     H30222   0.545   0.671   1.941  1.6634 -3.3701  1.5064
  965MOL0     H30223   0.364   0.648   1.923 -1.7917  0.2818  3.0656
  965MOL0     H30224   0.442   0.838   2.053 -0.4736  0.2754  1.5943
  965MOL0     H30225   0.501   0.724   2.184  1.1479  0.0756 -0.0330
  965MOL0     H30226   0.207   0.906   2.025 -1.0866  1.1082  0.5513
  965MOL0     H30227  -0.124   0.746   2.079  0.3636 -0.6537  1.3961
  965MOL0     H30228  -0.099   0.847   2.222  4.2085  0.1991  1.8104
  965MOL0     H30229  -0.203   0.959   2.024 -0.1550  1.6324  1.5133
  965MOL0     H30230  -0.069   0.938   1.928 -2.6803  2.0755 -0.3229
  965MOL0     H30231  -0.054   1.160   2.046  3.7426  1.3119  0.5833
  965MOL0     H30232   0.062   1.053   2.137 -0.3287 -0.3756  0.3437
  965MOL0     H30233  -0.077   1.046   2.320 -2.2348 -1.2981  0.4430
  965MOL0     H30234  -0.222   1.072   2.213 -0.3605 -0.5119 -0.3021
  965MOL0     H30235  -0.237   1.494   2.295 -0.3525  0.7700  0.3250
  965MOL0     H30236  -0.382   1.659   2.395 -0.8566  1.8621 -0.3092
  965MOL0     H30237  -0.546   1.596   2.423 -1.1194 -0.9725  2.6736
  965MOL0     H30238  -0.434   1.646   2.562 -0.0881 -0.4858 -0.3397
  965MOL0     H30239  -0.477   1.274   3.005 -0.7805 -0.1599  0.2487
  965MOL0     H30240  -0.613   1.267   3.209 -0.5066  2.8851  1.1365
  965MOL0     H30241  -1.077   1.347   3.155  0.8388 -3.1643 -1.6263
  965MOL0     H30242  -1.050   1.276   3.314  0.1193 -1.0706 -0.4874
  965MOL0     H30243  -0.953   1.472   3.404 -0.7205 -2.5427 -0.6549
  965MOL0     H30244  -0.897   1.517   3.236  1.5917 -1.2110 -0.6213
  965MOL0     H30245  -1.188   1.531   3.338  0.5830 -1.8363 -0.7118
  965MOL0     H30246  -1.131   1.551   3.169  3.0309 -0.6981 -0.0455
  965MOL0     H30247  -1.071   1.725   3.417 -2.5186  0.5761 -0.1643
  965MOL0     H30248  -1.013   1.741   3.246 -2.0422  0.2729 -1.8507
  965MOL0     H30249  -1.285   1.747   3.366  3.2483  0.2524  3.0229
  965MOL0     H30250  -1.275   1.765   3.188  0.2470  0.4271 -1.1652
  965MOL0     H30251  -1.299   1.972   3.343 -0.5923 -2.4544  0.2820
  965MOL0     H30252  -1.117   1.963   3.359 -1.2352  3.6206 -0.2519
  965MOL0     H30253  -1.257   1.947   3.090  3.4847 -2.5564 -2.3021
  965MOL0     H30254  -1.093   1.952   3.110 -0.4935 -0.2132 -1.1905
  965MOL0     H30255  -1.140   2.193   3.070 -2.5272  3.8206  0.7058
  965MOL0     H30256  -1.147   2.172   3.246  1.5775  2.3448 -1.2670
  965MOL0     H30257  -0.955   1.365   2.973 -0.6704 -0.9500  0.1866
  965MOL0     H30258  -0.810   1.385   2.779  0.6432  1.0148  0.8265
  965MOL0     H30259  -0.421   1.165   2.602  3.8561  1.2128  2.7685
  965MOL0     H30260  -0.246   1.098   2.467 -3.2382 -0.1784  1.3537
  965MOL0     H30261   0.901   0.195   1.320  1.1823 -0.9883  0.4039
  965MOL0     H30262   1.135   0.141   1.246 -2.8762  0.1029 -1.1278
  965MOL0     H30263   1.505   0.230   1.011  0.3673 -0.7152 -0.3815
  965MOL0     H30264   1.726   0.340   0.960 -1.2501  2.6606 -0.0726
  965MOL0     H30265   1.967   0.512   1.281  1.8848 -0.2771  1.7897
  965MOL0     H30266   2.047   0.348   1.235  1.0296 -1.3178 -2.9654
  965MOL0     H30267   2.095   0.616   1.105  1.8250 -0.3945  0.2048
  965MOL0     H30268   2.151   0.463   1.042  0.2682 -0.9242 -0.4757
  965MOL0     H30269   2.264   0.443   1.289 -1.0285 -1.0731  0.0414
  965MOL0     H30270   2.237   0.623   1.268 -0.5652  0.0577 -0.7062
  965MOL0     H30271   2.460   0.601   1.184  2.6947 -3.6011  0.7135
  965MOL0     H30272   2.367   0.574   1.044  1.2092 -1.8333 -1.1383
  965MOL0     H30273   2.512   0.175   1.093 -1.1466 -0.3885 -1.6999
  965MOL0     H30274   1.831   0.356   1.380 -1.0470 -0.6147  1.1069
  965MOL0     H30275   1.611   0.286   1.438  2.8869 -0.2588  0.7600
  966MOL0     O30276   3.779   6.324   1.374 -0.3323 -0.4508 -0.0618
  966MOL0     C30277   3.683   6.293   1.295  1.0136 -0.6283  0.2222
  966MOL0     O30278   3.695   6.213   1.192 -0.3441 -0.1931 -0.2084
  966MOL0     C30279   3.823   6.191   1.148  0.0515 -0.7805  0.0288
  966MOL0     C30280   3.900   6.293   1.095 -0.3317  1.3680 -0.4847
  966MOL0     C30281   4.028   6.254   1.054 -0.1359  0.1501  0.8035
  966MOL0     C30282   4.072   6.118   1.050  1.3595 -0.4664  1.2105
  966MOL0     O30283   4.187   6.077   0.989  0.4364 -0.3494 -0.2463
  966MOL0     C30284   4.284   6.166   0.939 -0.7896  0.1847  0.9070
  966MOL0     C30285   4.278   6.189   0.785  0.5645  0.5340 -0.4680
  966MOL0     C30286   4.240   6.063   0.708  0.4977  0.1086  0.2313
  966MOL0     C30287   4.341   5.959   0.724 -0.9767 -0.6600 -0.0844
  966MOL0     C30288   4.280   5.829   0.659 -0.2400 -0.8125 -0.6933
  966MOL0     C30289   4.348   5.706   0.697  0.1274  0.2859  0.1917
  966MOL0     C30290   4.271   5.585   0.641  0.3935  0.6193 -0.4569
  966MOL0     C30291   4.345   5.464   0.670 -0.2335 -0.9561 -0.1311
  966MOL0     N30292   4.252   5.354   0.675 -0.1583 -0.1431 -0.0273
  966MOL0     C30293   4.210   5.278   0.790  0.0348 -0.4825 -0.2874
  966MOL0     C30294   4.175   5.151   0.738 -0.8711 -0.2569  0.3870
  966MOL0     C30295   4.144   5.028   0.815  0.2117  0.6723  0.2897
  966MOL0     C30296   4.256   5.005   0.930 -0.3439  0.3665 -0.9101
  966MOL0     C30297   4.226   4.871   1.011 -0.3783  0.7101  1.0826
  966MOL0     C30298   4.349   4.783   1.056 -0.6287  0.3748  0.3008
  966MOL0     O30299   4.411   4.841   1.169 -0.2244  0.0107 -0.3016
  966MOL0     C30300   4.524   4.789   1.233  0.0837 -0.7328 -0.8596
  966MOL0     C30301   4.578   4.873   1.328  0.1907 -0.0985 -0.9353
  966MOL0     C30302   4.681   4.834   1.406  0.5087 -0.1038 -0.3901
  966MOL0     C30303   4.724   4.937   1.513 -0.3003  0.3757  0.4667
  966MOL0     C30304   4.739   4.705   1.387  0.2007  0.7351 -0.6449
  966MOL0     C30305   4.853   4.653   1.461  0.2349  0.2081  0.1808
  966MOL0     O30306   4.890   4.526   1.432 -0.3170  0.2275  0.2974
  966MOL0     C30307   4.976   4.451   1.514 -0.6676 -0.1182 -0.2277
  966MOL0     C30308   4.982   4.466   1.656  0.0849 -0.2468  0.1215
  966MOL0     C30309   5.088   4.394   1.724  0.6909  0.1967 -0.3460
  966MOL0     C30310   5.174   4.311   1.656 -0.6009  0.2506 -0.8846
  966MOL0     O30311   5.275   4.257   1.730 -1.2071  0.0221 -0.4838
  966MOL0     C30312   5.324   4.122   1.702 -0.3012 -1.6932  0.6764
  966MOL0     C30313   5.271   4.005   1.765  0.0419  0.3825 -0.7084
  966MOL0     C30314   5.302   3.984   1.915  0.0792  1.1097 -0.0788
  966MOL0     C30315   5.302   4.118   1.997 -0.1858  0.3197  0.7938
  966MOL0     C30316   5.335   4.098   2.141  0.7797 -0.2683 -0.2692
  966MOL0     C30317   5.328   4.241   2.204  0.0114  0.3992  1.3012
  966MOL0     C30318   5.196   4.315   2.176 -0.2647 -0.2674 -0.2346
  966MOL0     C30319   5.186   4.437   2.271 -0.1811  0.7313 -0.8653
  966MOL0    Cl30320   5.331   4.543   2.241  0.0408  0.2364 -0.1010
  966MOL0     C30321   5.155   4.292   1.516 -0.6904  0.3929 -0.9833
  966MOL0     C30322   5.059   4.361   1.448 -0.2677 -0.0170 -0.3881
  966MOL0     O30323   4.901   4.717   1.557  0.0403 -0.3784  0.6698
  966MOL0     C30324   4.692   4.627   1.274  0.3254  0.0536 -0.7775
  966MOL0     C30325   4.574   4.661   1.212 -0.2205  0.4783  0.5901
  966MOL0     N30326   4.187   5.172   0.600 -0.9161  0.2507 -0.8189
  966MOL0     N30327   4.232   5.287   0.562  1.0914 -0.2753 -0.0671
  966MOL0     C30328   3.993   6.027   1.111 -0.3704 -0.4197 -0.4144
  966MOL0     C30329   3.868   6.062   1.151  0.1670  0.1369  0.6513
  966MOL0     C30330   3.550   6.369   1.310 -0.5235 -0.0260  0.7649
  966MOL0     C30331   3.437   6.327   1.240  1.0606  0.5564  0.9481
  966MOL0     C30332   3.315   6.395   1.245 -0.0870  0.2169 -0.8796
  966MOL0     C30333   3.292   6.485   1.350 -0.2734 -0.1656 -1.0318
  966MOL0     O30334   3.162   6.534   1.367 -0.0710 -0.2676 -0.6316
  966MOL0     C30335   3.144   6.666   1.421 -0.5924 -0.3368 -0.2728
  966MOL0     C30336   3.011   6.707   1.363  0.8689  1.2200  0.3909
  966MOL0     C30337   2.979   6.851   1.414  0.0216 -1.4355 -0.0423
  966MOL0     C30338   2.846   6.902   1.358 -0.3449  0.2016  1.2476
  966MOL0     C30339   2.767   6.918   1.481 -0.2019  1.2387  0.0376
  966MOL0     C30340   2.713   6.955   1.585 -0.7753 -0.0445 -0.0731
  966MOL0     C30341   3.404   6.517   1.436  0.0623  0.1458 -0.4429
  966MOL0     C30342   3.526   6.462   1.413 -0.1811 -0.5980 -0.0205
  966MOL0     H30343   3.875   6.398   1.098  1.1266  1.7277  0.7451
  966MOL0     H30344   4.092   6.330   1.012 -0.4334 -0.2392 -0.3956
  966MOL0     H30345   4.276   6.261   0.994 -1.1279  1.5457 -1.3870
  966MOL0     H30346   4.380   6.123   0.968  1.1853  3.5980 -0.0149
  966MOL0     H30347   4.212   6.274   0.764  0.2470  0.2905 -0.4485
  966MOL0     H30348   4.378   6.223   0.755 -0.3564  1.0867 -3.1669
  966MOL0     H30349   4.142   6.031   0.744 -1.6393  2.5939 -2.8071
  966MOL0     H30350   4.226   6.082   0.602 -1.9617  1.6840  0.7535
  966MOL0     H30351   4.440   5.990   0.690 -0.9128 -1.2786 -0.4814
  966MOL0     H30352   4.360   5.937   0.830  2.4810  2.8528  0.2276
  966MOL0     H30353   4.181   5.817   0.705  0.6136  0.1315  1.4982
  966MOL0     H30354   4.281   5.841   0.550  0.8251 -0.3200 -0.6413
  966MOL0     H30355   4.453   5.718   0.669  0.0709 -2.3118 -1.5613
  966MOL0     H30356   4.351   5.695   0.805  0.3605 -1.6021  0.0275
  966MOL0     H30357   4.169   5.573   0.678 -0.6287 -3.4025 -3.7475
  966MOL0     H30358   4.262   5.597   0.533  1.2671  0.2514 -0.5761
  966MOL0     H30359   4.388   5.472   0.770 -1.9045  1.7847  0.4604
  966MOL0     H30360   4.426   5.449   0.598  0.4479  0.5045  0.2992
  966MOL0     H30361   4.233   5.303   0.893 -0.7313  0.5147 -0.3421
  966MOL0     H30362   4.043   5.027   0.857 -0.6012  1.1422 -1.5496
  966MOL0     H30363   4.149   4.942   0.747 -2.0686  0.5552  0.1937
  966MOL0     H30364   4.270   5.092   0.995 -1.3962 -1.6615  2.2423
  966MOL0     H30365   4.355   4.991   0.885  0.8861  0.4101  1.6095
  966MOL0     H30366   4.157   4.819   0.944  1.9479 -3.0753  1.3298
  966MOL0     H30367   4.160   4.900   1.093 -4.6147  0.2804 -1.8709
  966MOL0     H30368   4.418   4.773   0.972 -0.5797 -2.4454  0.5863
  966MOL0     H30369   4.322   4.678   1.070  3.1335 -0.9708 -1.3908
  966MOL0     H30370   4.535   4.970   1.350  1.6533  0.1712  0.9005
  966MOL0     H30371   4.680   5.034   1.488  0.6658  0.4308 -1.1610
  966MOL0     H30372   4.680   4.890   1.602 -2.7673 -1.4107 -1.5159
  966MOL0     H30373   4.832   4.949   1.516 -0.0780 -0.6868 -1.6119
  966MOL0     H30374   4.936   4.544   1.716  1.7974 -1.6112  3.4905
  966MOL0     H30375   5.098   4.398   1.832 -0.5549  0.2675 -0.2175
  966MOL0     H30376   5.339   4.118   1.593  0.8730 -1.6220  0.8224
  966MOL0     H30377   5.428   4.128   1.734 -0.1606 -0.7124  0.0823
  966MOL0     H30378   5.166   4.017   1.737  0.7972 -0.0340 -4.1393
  966MOL0     H30379   5.304   3.915   1.711 -3.0725 -1.6148  0.4033
  966MOL0     H30380   5.405   3.950   1.927 -1.0322 -2.5625  0.4452
  966MOL0     H30381   5.225   3.926   1.966 -0.3534  2.4921  0.8860
  966MOL0     H30382   5.390   4.176   1.969  0.4220 -1.1119 -0.4619
  966MOL0     H30383   5.202   4.160   1.982 -2.7439 -4.7756  1.2072
  966MOL0     H30384   5.437   4.065   2.162  0.9027 -1.6005 -2.6829
  966MOL0     H30385   5.266   4.030   2.192  0.1890  0.6611  0.2119
  966MOL0     H30386   5.327   4.222   2.311  0.1822  0.4126  1.3051
  966MOL0     H30387   5.417   4.296   2.175 -0.1971  0.6181  1.0657
  966MOL0     H30388   5.112   4.245   2.183  1.2171 -2.2454 -1.3393
  966MOL0     H30389   5.184   4.350   2.073  0.3774 -0.9242 -0.5396
  966MOL0     H30390   5.199   4.394   2.371  0.2679 -0.2836 -1.3552
  966MOL0     H30391   5.096   4.500   2.270  1.0523  2.5505 -1.5919
  966MOL0     H30392   5.217   4.228   1.454 -1.3563 -0.1695 -1.0781
  966MOL0     H30393   5.056   4.361   1.340 -1.1950  3.4327 -0.4904
  966MOL0     H30394   4.744   4.537   1.245 -1.0394 -0.7109 -0.9652
  966MOL0     H30395   4.542   4.594   1.133  2.6598  0.2278 -0.4741
  966MOL0     H30396   4.042   5.931   1.121  2.1551  0.5286 -2.5031
  966MOL0     H30397   3.800   5.996   1.205 -0.4856 -0.0524 -0.3864
  966MOL0     H30398   3.451   6.237   1.180  1.3025  3.2780 -3.5013
  966MOL0     H30399   3.228   6.380   1.183 -0.4282 -1.4432 -0.0618
  966MOL0     H30400   3.151   6.670   1.531 -1.9568 -0.1809 -0.1641
  966MOL0     H30401   3.221   6.732   1.381 -0.6924 -1.5251 -2.5649
  966MOL0     H30402   2.942   6.626   1.386  1.2439  0.0182 -2.3075
  966MOL0     H30403   3.014   6.707   1.254  1.4717 -1.7109  0.3414
  966MOL0     H30404   3.050   6.903   1.349 -2.4063 -2.6952 -4.0728
  966MOL0     H30405   2.992   6.877   1.519  0.7830  3.8151 -1.1622
  966MOL0     H30406   2.802   6.843   1.276 -0.2007  0.8734  0.6732
  966MOL0     H30407   2.862   6.999   1.310  1.7750 -1.8299 -2.6871
  966MOL0     H30408   2.661   7.001   1.666  1.5034  1.1979  0.7639
  966MOL0     H30409   3.384   6.586   1.517 -1.9005 -0.6121 -0.2249
  966MOL0     H30410   3.596   6.478   1.495 -0.1759  2.1712 -0.4695
  967MOL0     O30411   3.940   6.200   8.111  0.2466 -0.1605 -0.5007
  967MOL0     C30412   3.954   6.099   8.179  0.3208  0.3286 -0.9241
  967MOL0     O30413   3.968   6.096   8.315 -0.1402 -0.2437  0.4249
  967MOL0     C30414   3.979   6.213   8.385  0.1978  0.0830  0.0798
  967MOL0     C30415   3.909   6.336   8.358 -0.3479  0.2110 -0.6144
  967MOL0     C30416   3.914   6.436   8.451  0.4339 -0.3088  0.0575
  967MOL0     C30417   3.994   6.425   8.567  0.8923 -0.1188  0.1059
  967MOL0     O30418   4.024   6.517   8.661 -0.7217  1.1880  0.8696
  967MOL0     C30419   3.933   6.623   8.672  0.3276  0.4496  0.2800
  967MOL0     C30420   4.001   6.714   8.779 -0.5217 -0.1586  0.5009
  967MOL0     C30421   3.903   6.821   8.822  0.1501  0.8384  0.1647
  967MOL0     C30422   3.978   6.922   8.913  0.0219 -0.4550 -0.4244
  967MOL0     C30423   3.897   7.042   8.981  0.1892  0.1984  0.3762
  967MOL0     C30424   3.821   7.137   8.885  0.0402 -0.0599 -0.4624
  967MOL0     C30425   3.902   7.197   8.772  0.2077 -1.1427  1.2784
  967MOL0     C30426   3.814   7.282   8.674  0.5201 -0.2165 -0.2563
  967MOL0     N30427   3.754   7.404   8.740 -0.2462  0.0671  0.4489
  967MOL0     C30428   3.834   7.500   8.789  0.7375  0.3006 -0.6134
  967MOL0     C30429   3.752   7.586   8.860  0.0484  0.1069  0.0847
  967MOL0     C30430   3.798   7.709   8.935  0.3239  0.5413 -0.5604
  967MOL0     C30431   3.788   7.680   9.078 -0.0901 -0.3495  0.8225
  967MOL0     C30432   3.827   7.780   9.190 -0.4492 -0.0817 -0.2944
  967MOL0     C30433   3.736   7.905   9.202 -0.5564 -0.7045 -0.0621
  967MOL0     O30434   3.725   7.974   9.076 -0.6646  0.2928 -0.3401
  967MOL0     C30435   3.662   8.093   9.080 -0.7540 -0.4346 -0.9345
  967MOL0     C30436   3.620   8.166   9.194 -0.0650  0.3630 -0.3175
  967MOL0     C30437   3.555   8.293   9.184 -0.1291 -0.7138 -0.2604
  967MOL0     C30438   3.507   8.343   9.325  0.5400 -0.4501  0.0035
  967MOL0     C30439   3.515   8.347   9.070 -0.7090 -0.3934  0.7750
  967MOL0     C30440   3.454   8.481   9.048  0.5762 -0.8648  0.0450
  967MOL0     O30441   3.507   8.554   8.940  0.0945 -0.2173 -0.0679
  967MOL0     C30442   3.440   8.669   8.905  0.5765  0.0697 -0.3254
  967MOL0     C30443   3.316   8.650   8.855  0.8334  0.0167  0.7309
  967MOL0     C30444   3.244   8.758   8.797 -0.4011  0.0790 -0.4165
  967MOL0     C30445   3.304   8.884   8.792 -0.1989 -0.1115 -0.6557
  967MOL0     O30446   3.248   9.000   8.748 -0.2426 -0.9760  0.4965
  967MOL0     C30447   3.115   9.023   8.797 -0.6812  0.0371  0.1889
  967MOL0     C30448   3.095   9.165   8.851 -0.6753  0.5022 -1.2075
  967MOL0     C30449   3.196   9.191   8.967  0.4146  0.0815  0.4610
  967MOL0     C30450   3.135   9.139   9.095 -0.4486  0.6660 -1.0235
  967MOL0     C30451   3.241   9.149   9.215 -0.4079 -0.2790  0.5152
  967MOL0     C30452   3.301   9.280   9.246  0.4194  0.9274  0.1172
  967MOL0     C30453   3.440   9.260   9.307 -0.2700  0.8865 -0.7233
  967MOL0     C30454   3.499   9.386   9.371 -0.3223 -0.5949 -0.1587
  967MOL0    Cl30455   3.644   9.320   9.447  0.4790 -0.1716  0.3666
  967MOL0     C30456   3.437   8.904   8.852  0.3552  0.2298  0.3513
  967MOL0     C30457   3.502   8.800   8.921  0.0012 -0.0603 -0.6756
  967MOL0     O30458   3.361   8.515   9.120 -0.3555 -1.0319  0.4694
  967MOL0     C30459   3.571   8.283   8.957 -0.7525 -0.3060 -0.6744
  967MOL0     C30460   3.633   8.157   8.959 -0.1966  0.2775  0.6217
  967MOL0     N30461   3.628   7.548   8.844  0.6320  0.3769 -1.2043
  967MOL0     N30462   3.628   7.435   8.777  0.9778 -0.8270  0.1405
  967MOL0     C30463   4.050   6.296   8.596 -0.5563 -0.4528 -0.2161
  967MOL0     C30464   4.041   6.194   8.503  0.6443  0.5015 -0.6890
  967MOL0     C30465   3.928   5.972   8.116 -0.4044 -0.8310  0.2929
  967MOL0     C30466   3.860   5.866   8.173  0.1295 -0.1235 -0.0698
  967MOL0     C30467   3.856   5.744   8.102 -0.8494  0.7851 -0.0097
  967MOL0     C30468   3.904   5.730   7.975  0.2238  0.2655  0.8246
  967MOL0     O30469   3.872   5.608   7.915  0.7578  0.2226 -0.6033
  967MOL0     C30470   3.903   5.574   7.782  0.1350 -0.4328  0.0193
  967MOL0     C30471   3.834   5.445   7.731 -0.4489  0.2699  0.1722
  967MOL0     C30472   3.684   5.485   7.720 -0.1467  0.2279  0.6138
  967MOL0     C30473   3.618   5.442   7.595  0.5313 -0.0845  0.2828
  967MOL0     C30474   3.669   5.512   7.476  0.5447  0.0165  0.7031
  967MOL0     C30475   3.734   5.562   7.385  0.2149 -0.5614  0.9500
  967MOL0     C30476   3.957   5.843   7.913  0.1183 -0.6453 -0.2472
  967MOL0     C30477   3.967   5.964   7.978  0.3973 -0.0834  0.4040
  967MOL0     H30478   3.862   6.349   8.261  0.0201 -0.7363 -0.9325
  967MOL0     H30479   3.861   6.527   8.424 -2.4704 -1.6293  0.9049
  967MOL0     H30480   3.917   6.669   8.575 -0.3498  1.2741  0.7677
  967MOL0     H30481   3.836   6.588   8.709  0.1013  1.1637  0.3727
  967MOL0     H30482   4.008   6.646   8.864 -0.0968 -2.4849 -1.2932
  967MOL0     H30483   4.089   6.758   8.730 -0.8325  0.2073  0.2542
  967MOL0     H30484   3.863   6.880   8.739 -0.3057  0.6972  0.2836
  967MOL0     H30485   3.824   6.769   8.878  0.6317  0.1817  0.2489
  967MOL0     H30486   4.028   6.871   8.996 -1.9903 -0.3871  0.9043
  967MOL0     H30487   4.051   6.979   8.854 -0.4309  1.0732  0.4445
  967MOL0     H30488   3.820   7.005   9.050 -1.8813  0.0557 -1.8665
  967MOL0     H30489   3.963   7.105   9.041  1.6883 -3.1021  2.5408
  967MOL0     H30490   3.735   7.087   8.839  0.1066  0.6941 -1.4296
  967MOL0     H30491   3.784   7.211   8.956  1.0888 -3.3902  4.0284
  967MOL0     H30492   3.986   7.255   8.811 -0.5904  1.9122 -1.1083
  967MOL0     H30493   3.958   7.119   8.719  0.8354 -0.4395  0.8870
  967MOL0     H30494   3.739   7.214   8.631  2.0398 -1.4679 -1.0401
  967MOL0     H30495   3.875   7.320   8.592  0.2305 -0.0566 -0.3993
  967MOL0     H30496   3.941   7.504   8.801  0.6865 -0.7277  0.3706
  967MOL0     H30497   3.904   7.724   8.913  0.8220 -0.7967  0.7154
  967MOL0     H30498   3.742   7.796   8.901  1.8451  0.5099 -3.4710
  967MOL0     H30499   3.849   7.594   9.106  2.2215  0.2265 -1.9822
  967MOL0     H30500   3.681   7.657   9.087 -0.9238  1.8306 -1.9916
  967MOL0     H30501   3.925   7.826   9.176 -0.3893  1.1002  3.1069
  967MOL0     H30502   3.846   7.725   9.283  1.4422 -0.0033 -0.5835
  967MOL0     H30503   3.788   7.970   9.273  1.2017 -2.5924  0.4791
  967MOL0     H30504   3.642   7.878   9.251 -0.2537 -0.1204  0.8763
  967MOL0     H30505   3.635   8.128   9.294 -2.6137 -0.1198 -0.0459
  967MOL0     H30506   3.527   8.451   9.323 -0.2112 -0.3114 -1.1856
  967MOL0     H30507   3.399   8.331   9.329  0.4016  0.9717  1.2353
  967MOL0     H30508   3.564   8.302   9.409  3.0019  0.3482 -1.1631
  967MOL0     H30509   3.273   8.551   8.848  0.7127  0.1533 -0.6595
  967MOL0     H30510   3.141   8.749   8.763  0.1459  1.1390 -2.5441
  967MOL0     H30511   3.038   9.007   8.721 -1.4715  1.1701  0.7237
  967MOL0     H30512   3.093   8.949   8.874  1.9695 -0.1284  0.8931
  967MOL0     H30513   3.128   9.226   8.766 -0.3716  1.7452 -0.2268
  967MOL0     H30514   2.987   9.165   8.870 -0.4577 -3.3266  0.9488
  967MOL0     H30515   3.208   9.300   8.977 -1.5636  0.5056 -1.1019
  967MOL0     H30516   3.297   9.150   8.951  0.7514  1.0896 -0.1096
  967MOL0     H30517   3.041   9.191   9.119 -0.6053 -0.0922  0.1136
  967MOL0     H30518   3.111   9.033   9.085 -1.5396  0.8046 -0.0969
  967MOL0     H30519   3.326   9.089   9.184  0.0198 -0.7325  2.4191
  967MOL0     H30520   3.205   9.109   9.311 -0.5051 -0.3146  0.4635
  967MOL0     H30521   3.299   9.343   9.157  0.0987  0.1245 -0.4563
  967MOL0     H30522   3.233   9.319   9.323 -2.4609 -3.9667  0.5126
  967MOL0     H30523   3.513   9.217   9.237  0.8898  1.2622  0.2176
  967MOL0     H30524   3.448   9.183   9.384 -1.4088  0.9065 -0.5672
  967MOL0     H30525   3.436   9.432   9.448 -0.0581 -0.0798 -0.2482
  967MOL0     H30526   3.538   9.460   9.301 -1.6549 -0.1724 -0.4660
  967MOL0     H30527   3.491   8.998   8.854 -0.1276  0.4964  1.9334
  967MOL0     H30528   3.589   8.806   8.985 -0.6672  1.4152  0.1241
  967MOL0     H30529   3.560   8.343   8.867 -3.9602  1.3315  0.6391
  967MOL0     H30530   3.656   8.112   8.863 -2.3124 -4.5583  2.0702
  967MOL0     H30531   4.110   6.271   8.683  1.7822 -1.3635 -1.9766
  967MOL0     H30532   4.098   6.104   8.524  0.3633  0.3890 -0.3873
  967MOL0     H30533   3.814   5.873   8.271 -1.2161  0.1341 -0.6992
  967MOL0     H30534   3.805   5.664   8.154 -3.5113  1.8307 -0.8604
  967MOL0     H30535   3.875   5.664   7.727 -0.6474  0.9268  2.5021
  967MOL0     H30536   4.012   5.563   7.771 -0.0130 -0.3409 -1.8265
  967MOL0     H30537   3.852   5.358   7.794 -1.3753 -0.1941 -0.1743
  967MOL0     H30538   3.883   5.413   7.639 -2.5171 -3.1558  0.1006
  967MOL0     H30539   3.672   5.594   7.727 -2.0577 -0.0416  3.3351
  967MOL0     H30540   3.629   5.445   7.806 -2.2207 -2.8928 -1.9086
  967MOL0     H30541   3.510   5.454   7.599  0.3673 -1.4183  0.5073
  967MOL0     H30542   3.632   5.335   7.573  2.2933  0.3585 -0.9901
  967MOL0     H30543   3.770   5.622   7.304  1.8525 -1.8098  0.7074
  967MOL0     H30544   3.983   5.855   7.808  0.4273  0.7568 -0.0333
  967MOL0     H30545   4.001   6.053   7.924 -1.1929  1.4479  1.8015
  968MOL0     O30546   2.190   3.439   6.130  0.5048 -0.3703 -0.8043
  968MOL0     C30547   2.312   3.463   6.141  0.8148  0.7490 -0.0667
  968MOL0     O30548   2.373   3.557   6.224  0.4832 -0.1166  0.1611
  968MOL0     C30549   2.295   3.658   6.281 -0.0395  0.1101  0.4626
  968MOL0     C30550   2.184   3.718   6.226  0.2519  0.0161 -0.3986
  968MOL0     C30551   2.126   3.832   6.283  1.0766 -0.2190 -0.4057
  968MOL0     C30552   2.159   3.881   6.408  1.0111 -0.4193  0.2096
  968MOL0     O30553   2.092   3.977   6.476 -0.0514  0.7856  0.7345
  968MOL0     C30554   1.960   3.945   6.499  0.1589 -0.6090 -0.1786
  968MOL0     C30555   1.870   4.038   6.409 -0.1023 -1.0660  0.0784
  968MOL0     C30556   1.723   3.992   6.425  0.1957  0.0035  0.0721
  968MOL0     C30557   1.637   4.092   6.351  0.5985 -0.0926 -0.3521
  968MOL0     C30558   1.492   4.105   6.401 -0.4703  0.1312  0.1720
  968MOL0     C30559   1.428   4.220   6.335  0.5965  0.6422  0.1716
  968MOL0     C30560   1.469   4.358   6.393  0.1889  0.0495 -0.0369
  968MOL0     C30561   1.358   4.468   6.380  0.0488  0.1569  0.2236
  968MOL0     N30562   1.241   4.451   6.463 -0.2193  0.1944 -0.4615
  968MOL0     C30563   1.129   4.370   6.441 -1.7952 -0.1544 -0.6510
  968MOL0     C30564   1.054   4.389   6.555 -0.0899 -0.7703  0.0080
  968MOL0     C30565   0.948   4.282   6.589  0.4170 -0.0486  0.3935
  968MOL0     C30566   1.012   4.163   6.672  0.8801 -0.3916 -0.6759
  968MOL0     C30567   1.092   4.071   6.576 -0.1554  0.5171  0.1506
  968MOL0     C30568   1.109   3.929   6.644  0.5056 -0.3198  0.2095
  968MOL0     O30569   1.163   3.942   6.770  0.2969  0.4591 -1.2406
  968MOL0     C30570   1.302   3.934   6.785 -0.8817 -0.1145 -0.2424
  968MOL0     C30571   1.370   3.821   6.737 -1.4059  0.3359 -0.1335
  968MOL0     C30572   1.510   3.816   6.726 -0.0521 -1.0106  0.7713
  968MOL0     C30573   1.568   3.692   6.656 -0.1794 -0.1321  0.3745
  968MOL0     C30574   1.587   3.920   6.782 -0.0871  1.6498  0.0712
  968MOL0     C30575   1.733   3.908   6.802 -0.0390  0.3874 -0.1735
  968MOL0     O30576   1.801   4.025   6.843  0.0771 -0.2301 -0.6034
  968MOL0     C30577   1.940   4.021   6.868  0.2862  0.8300  0.0504
  968MOL0     C30578   2.015   4.115   6.799 -1.3162 -0.8164  0.3908
  968MOL0     C30579   2.158   4.117   6.822 -0.3399  0.6711 -0.0862
  968MOL0     C30580   2.221   4.026   6.917 -0.1952  0.3010 -0.0338
  968MOL0     O30581   2.356   4.033   6.940 -0.2984  0.6385 -1.0446
  968MOL0     C30582   2.416   4.164   6.955 -0.3303  0.9447 -0.0412
  968MOL0     C30583   2.462   4.177   7.103 -0.9430 -0.6357  0.8331
  968MOL0     C30584   2.352   4.131   7.201 -0.4368 -0.7429 -0.6363
  968MOL0     C30585   2.371   4.185   7.343  0.7134 -0.0453 -0.1951
  968MOL0     C30586   2.495   4.138   7.412  0.1697  0.3123 -0.7110
  968MOL0     C30587   2.489   4.164   7.559  0.2269 -0.5241  0.3700
  968MOL0     C30588   2.622   4.155   7.630 -0.7468 -0.4813 -0.4218
  968MOL0     C30589   2.609   4.160   7.788 -0.2875 -0.6007 -0.5432
  968MOL0    Cl30590   2.773   4.183   7.869  0.6505  0.2036  0.0101
  968MOL0     C30591   2.137   3.935   6.983 -0.4115 -0.7102 -0.0995
  968MOL0     C30592   2.001   3.931   6.948 -0.0716  0.9736 -1.0835
  968MOL0     O30593   1.785   3.797   6.785 -0.1981  0.9671 -0.6390
  968MOL0     C30594   1.523   4.037   6.837  0.6165  0.8530 -0.1326
  968MOL0     C30595   1.384   4.049   6.820  0.4078  1.0311 -0.0386
  968MOL0     N30596   1.116   4.477   6.640  0.0599  0.8176 -1.2552
  968MOL0     N30597   1.227   4.505   6.589  1.1915  0.2256  1.0804
  968MOL0     C30598   2.266   3.815   6.472 -0.0986 -0.1803 -0.2997
  968MOL0     C30599   2.336   3.710   6.410 -0.5174 -0.3658  0.7176
  968MOL0     C30600   2.405   3.361   6.077 -0.1910 -0.1891 -0.4288
  968MOL0     C30601   2.540   3.397   6.068  0.5404 -0.4005 -0.3379
  968MOL0     C30602   2.639   3.302   6.031  0.1591 -0.6607 -0.3894
  968MOL0     C30603   2.596   3.173   5.998 -0.9877 -0.3402 -0.0378
  968MOL0     O30604   2.688   3.080   5.971  0.3001  0.1577 -0.5249
  968MOL0     C30605   2.675   2.936   6.004 -0.6502 -0.6399  0.2214
  968MOL0     C30606   2.771   2.840   5.923 -0.2864 -0.2024  0.8672
  968MOL0     C30607   2.913   2.823   5.997 -0.5149  0.6042  1.5062
  968MOL0     C30608   2.988   2.704   5.935  0.7497  0.6310  0.2554
  968MOL0     C30609   3.000   2.593   6.023  0.0376  0.7022 -0.2572
  968MOL0     C30610   3.009   2.514   6.120 -0.1920 -0.4584 -0.4756
  968MOL0     C30611   2.466   3.141   5.996  1.1310  0.0589  0.4865
  968MOL0     C30612   2.372   3.236   6.027  0.2686  0.7768  0.2721
  968MOL0     H30613   2.136   3.685   6.134  0.4911  0.2675 -0.6124
  968MOL0     H30614   2.053   3.883   6.221  0.2451 -0.8389  0.0629
  968MOL0     H30615   1.929   3.842   6.475 -1.4829 -0.2230  0.1993
  968MOL0     H30616   1.950   3.952   6.607 -0.7048  1.2816 -0.3406
  968MOL0     H30617   1.883   4.141   6.442 -0.2061 -1.6164  1.9739
  968MOL0     H30618   1.895   4.031   6.302 -2.8564  1.4376 -0.8585
  968MOL0     H30619   1.713   3.895   6.376  1.6583  1.5053 -3.6257
  968MOL0     H30620   1.699   3.997   6.531  2.1176  2.0288  0.4937
  968MOL0     H30621   1.671   4.195   6.360 -1.8313  0.8662 -1.1892
  968MOL0     H30622   1.637   4.072   6.243  0.2839  1.4032 -0.6478
  968MOL0     H30623   1.430   4.017   6.380 -1.5399  0.7499  0.6563
  968MOL0     H30624   1.492   4.114   6.510  2.4572 -2.9072  0.5894
  968MOL0     H30625   1.427   4.213   6.226  0.2365  0.2224  0.1966
  968MOL0     H30626   1.322   4.209   6.359  0.5275 -1.4058 -0.8608
  968MOL0     H30627   1.500   4.346   6.497 -0.2535  1.7998  0.3263
  968MOL0     H30628   1.555   4.398   6.338  0.3771  0.0390  0.2525
  968MOL0     H30629   1.331   4.488   6.276  1.2587 -1.4203 -0.4402
  968MOL0     H30630   1.409   4.562   6.403  2.5158 -0.4210 -2.2542
  968MOL0     H30631   1.127   4.302   6.356 -3.0486  0.6695 -1.3054
  968MOL0     H30632   0.861   4.325   6.638 -0.1107 -1.8724  1.1300
  968MOL0     H30633   0.909   4.246   6.493  0.2428  1.3291 -0.0891
  968MOL0     H30634   0.930   4.107   6.719  1.8499  1.1371  3.1898
  968MOL0     H30635   1.082   4.208   6.743  0.8470  3.3441 -2.7493
  968MOL0     H30636   1.190   4.117   6.559 -0.2428  0.3344 -0.9729
  968MOL0     H30637   1.059   4.055   6.473  1.2976  0.3613 -0.3261
  968MOL0     H30638   1.182   3.874   6.584  1.9652  1.3334  0.3893
  968MOL0     H30639   1.015   3.873   6.635  2.5482 -3.8336 -1.0724
  968MOL0     H30640   1.317   3.745   6.681  1.3214 -2.4295  0.7557
  968MOL0     H30641   1.602   3.613   6.723  2.0797  2.0604  1.9670
  968MOL0     H30642   1.486   3.656   6.593 -1.0078  1.1973  0.6451
  968MOL0     H30643   1.659   3.719   6.601 -1.0118  3.0062  0.3641
  968MOL0     H30644   1.967   4.193   6.741  1.7190  3.2256  2.8142
  968MOL0     H30645   2.218   4.190   6.769 -0.4290  0.8750  0.0890
  968MOL0     H30646   2.508   4.160   6.896 -0.4507 -0.9471 -0.1537
  968MOL0     H30647   2.356   4.249   6.922 -0.6235  0.9789  0.5703
  968MOL0     H30648   2.554   4.119   7.115 -1.7511 -1.9255  0.9915
  968MOL0     H30649   2.491   4.282   7.111 -2.6419  0.0077 -0.7295
  968MOL0     H30650   2.370   4.024   7.208  1.1215 -0.4465  0.5698
  968MOL0     H30651   2.251   4.152   7.166 -0.7531  1.9837  1.5331
  968MOL0     H30652   2.349   4.292   7.342 -2.1047 -0.5458 -0.2686
  968MOL0     H30653   2.288   4.136   7.395  0.8417 -0.4886 -0.4058
  968MOL0     H30654   2.578   4.198   7.373  0.7536  0.1861  0.2932
  968MOL0     H30655   2.510   4.031   7.393 -5.1704 -0.3691 -2.5679
  968MOL0     H30656   2.453   4.265   7.584  1.9312 -0.7960  4.9607
  968MOL0     H30657   2.417   4.099   7.609  0.4627  1.0878  3.0008
  968MOL0     H30658   2.685   4.240   7.601 -2.6031  0.5082 -1.7376
  968MOL0     H30659   2.667   4.066   7.584 -1.6754 -0.3843 -1.5845
  968MOL0     H30660   2.559   4.072   7.830 -2.0966  0.3394 -0.6025
  968MOL0     H30661   2.551   4.249   7.816 -0.7901 -2.0653  3.8295
  968MOL0     H30662   2.182   3.868   7.056  2.4174  1.0262 -0.0592
  968MOL0     H30663   1.946   3.857   7.006  3.5275  0.5885  2.2491
  968MOL0     H30664   1.579   4.119   6.880 -3.1230  2.5179  2.0741
  968MOL0     H30665   1.353   4.149   6.851 -0.0192  0.2612  2.1938
  968MOL0     H30666   2.293   3.834   6.575  0.3593 -1.7134 -0.1061
  968MOL0     H30667   2.422   3.670   6.461 -0.8250 -0.8969  0.8366
  968MOL0     H30668   2.574   3.495   6.102 -2.0793 -0.0720  1.7005
  968MOL0     H30669   2.741   3.339   6.034  0.0071 -0.1705 -1.0206
  968MOL0     H30670   2.687   2.930   6.113 -1.2093  3.7919  0.7131
  968MOL0     H30671   2.573   2.905   5.982  0.6907 -3.4338 -2.8784
  968MOL0     H30672   2.777   2.892   5.828 -0.9428  0.9179  1.4200
  968MOL0     H30673   2.734   2.741   5.895 -0.5427  0.4906 -1.3602
  968MOL0     H30674   2.902   2.805   6.105  0.9802  1.6037  1.8563
  968MOL0     H30675   2.976   2.911   5.981 -0.8816  0.8300  1.3013
  968MOL0     H30676   3.088   2.743   5.917 -0.0503  2.6542 -0.0693
  968MOL0     H30677   2.947   2.668   5.840  2.1684  0.8554 -0.4652
  968MOL0     H30678   3.035   2.458   6.207  5.5899  3.6067  1.0083
  968MOL0     H30679   2.428   3.046   5.958  2.0317 -0.5732  1.1062
  968MOL0     H30680   2.269   3.204   6.015  1.2457 -2.7226  0.0407
  969MOL0     O30681   0.744   5.433  10.821  0.4291 -0.5636 -0.0088
  969MOL0     C30682   0.857   5.410  10.865  0.2637  0.3991 -0.8782
  969MOL0     O30683   0.890   5.298  10.939  0.2677 -0.0655 -0.8510
  969MOL0     C30684   0.780   5.216  10.974  0.5639 -0.4845  0.6157
  969MOL0     C30685   0.691   5.150  10.890  1.2447 -1.2821  0.0916
  969MOL0     C30686   0.587   5.072  10.938 -1.2671 -0.4117 -0.2707
  969MOL0     C30687   0.572   5.056  11.077 -0.2690  0.5305  0.2586
  969MOL0     O30688   0.477   4.962  11.122 -0.4346  0.2144 -0.6288
  969MOL0     C30689   0.522   4.884  11.233  0.6106 -0.7561  1.1649
  969MOL0     C30690   0.444   4.761  11.242  0.1682  0.9942  1.0075
  969MOL0     C30691   0.289   4.782  11.246 -0.4246 -0.5741  0.1532
  969MOL0     C30692   0.215   4.653  11.218  0.0562 -0.4343 -1.6308
  969MOL0     C30693   0.077   4.642  11.293  0.9338 -0.1750 -0.3087
  969MOL0     C30694   0.075   4.593  11.442  0.3343  0.3726  0.6570
  969MOL0     C30695  -0.053   4.600  11.517  0.0492  0.3909 -0.6288
  969MOL0     C30696  -0.173   4.552  11.427 -0.0743 -0.4570  0.5053
  969MOL0     N30697  -0.295   4.559  11.509  0.8185 -0.3443  0.2975
  969MOL0     C30698  -0.353   4.681  11.537 -0.7130 -0.2387  0.3356
  969MOL0     C30699  -0.435   4.661  11.645  0.4610  0.1977 -0.0602
  969MOL0     C30700  -0.517   4.771  11.717 -1.1325  0.6595  0.2386
  969MOL0     C30701  -0.663   4.723  11.733 -0.2632 -0.5895 -0.4355
  969MOL0     C30702  -0.719   4.779  11.866 -0.1105  0.6929  1.0974
  969MOL0     C30703  -0.860   4.734  11.913 -0.4960  1.3361  0.3922
  969MOL0     O30704  -0.924   4.856  11.959 -1.3702  0.5375  0.5951
  969MOL0     C30705  -0.978   4.950  11.875  0.0257 -0.3582 -0.0132
  969MOL0     C30706  -1.075   5.040  11.931 -0.7476  0.0573  1.2990
  969MOL0     C30707  -1.126   5.151  11.860  0.4746 -0.4929 -0.1647
  969MOL0     C30708  -1.212   5.246  11.940  0.4379  0.2194  0.3763
  969MOL0     C30709  -1.085   5.178  11.729 -0.1493 -0.0671 -0.4249
  969MOL0     C30710  -1.124   5.294  11.643  0.2726 -0.0453  0.3989
  969MOL0     O30711  -1.021   5.354  11.571 -0.0627 -0.7429  0.0865
  969MOL0     C30712  -1.040   5.467  11.492  1.0725 -1.1518 -0.5324
  969MOL0     C30713  -0.998   5.486  11.370  0.3867 -1.5003 -0.5097
  969MOL0     C30714  -1.036   5.603  11.296  0.9380  0.1094  0.1842
  969MOL0     C30715  -1.112   5.707  11.362 -1.1675  0.3480  0.0497
  969MOL0     O30716  -1.148   5.811  11.287  0.2642  0.2074 -0.6785
  969MOL0     C30717  -1.167   5.935  11.353  0.2650 -1.1311  0.2707
  969MOL0     C30718  -1.169   6.056  11.256 -0.2997  0.2197 -0.0564
  969MOL0     C30719  -1.041   6.077  11.177  0.4756 -0.8983 -0.2999
  969MOL0     C30720  -0.926   6.130  11.253  0.5353  0.4425 -0.0805
  969MOL0     C30721  -0.802   6.156  11.161 -0.3112  0.7157 -0.4573
  969MOL0     C30722  -0.790   6.291  11.109  0.4416 -0.2211 -0.0604
  969MOL0     C30723  -0.751   6.393  11.216 -0.3646  0.1251 -0.4390
  969MOL0     C30724  -0.674   6.521  11.170 -0.4150  0.4300 -0.0307
  969MOL0    Cl30725  -0.525   6.487  11.081  0.1727  0.2714  0.0911
  969MOL0     C30726  -1.136   5.692  11.497  0.8443  1.7777  0.7116
  969MOL0     C30727  -1.106   5.574  11.557  0.7014  0.2189  0.3327
  969MOL0     O30728  -1.246   5.314  11.622 -0.2458 -0.4638 -0.2173
  969MOL0     C30729  -1.010   5.078  11.664  0.7108  0.9657 -0.2388
  969MOL0     C30730  -0.949   4.967  11.733 -1.1597 -0.2505  0.5791
  969MOL0     N30731  -0.420   4.529  11.690  0.7807  0.0313  0.2030
  969MOL0     N30732  -0.337   4.478  11.610  0.5464 -0.1749  0.3596
  969MOL0     C30733   0.662   5.117  11.167  0.8206 -0.9077 -0.4800
  969MOL0     C30734   0.759   5.208  11.116  0.3494  0.3015 -0.7862
  969MOL0     C30735   0.969   5.502  10.827  0.1724  0.1879  0.6433
  969MOL0     C30736   0.955   5.571  10.706  0.9635  0.2949  0.8829
  969MOL0     C30737   1.055   5.654  10.659 -0.3604  0.1144 -0.9012
  969MOL0     C30738   1.176   5.655  10.739 -0.0002 -0.9674 -0.8486
  969MOL0     O30739   1.285   5.720  10.701  0.1948 -0.4580 -0.6281
  969MOL0     C30740   1.294   5.789  10.575 -0.1449 -0.1277  0.5644
  969MOL0     C30741   1.423   5.871  10.568 -0.4206 -0.0845 -0.9436
  969MOL0     C30742   1.557   5.795  10.588 -0.5525 -0.4689 -0.4197
  969MOL0     C30743   1.623   5.769  10.455  0.5047  0.1402 -0.7938
  969MOL0     C30744   1.737   5.675  10.469  0.0447 -0.2416 -0.0098
  969MOL0     C30745   1.844   5.612  10.462  1.2911 -0.1330  1.1457
  969MOL0     C30746   1.195   5.588  10.858 -0.0390  0.3663  0.4092
  969MOL0     C30747   1.087   5.511  10.906  1.3293  0.4576 -0.8029
  969MOL0     H30748   0.702   5.172  10.784 -3.7558 -0.7806 -0.5572
  969MOL0     H30749   0.535   5.018  10.859 -0.9188 -0.1270 -0.6994
  969MOL0     H30750   0.620   4.845  11.204 -0.3170 -0.5371 -2.8517
  969MOL0     H30751   0.519   4.943  11.325  0.6067  3.2606 -1.1577
  969MOL0     H30752   0.476   4.706  11.152 -1.6330 -2.6731  2.4296
  969MOL0     H30753   0.472   4.689  11.319  0.1832 -1.2523 -0.9922
  969MOL0     H30754   0.275   4.812  11.351 -3.4688  0.4651 -0.4355
  969MOL0     H30755   0.248   4.862  11.183  1.7864  0.5196  0.0028
  969MOL0     H30756   0.207   4.638  11.110 -3.2949 -3.4334 -1.1600
  969MOL0     H30757   0.277   4.568  11.248  0.8302  0.7818  0.4222
  969MOL0     H30758   0.029   4.741  11.286 -1.3606 -1.2090 -0.3269
  969MOL0     H30759   0.017   4.574  11.231  0.4310  0.6662 -0.7790
  969MOL0     H30760   0.143   4.507  11.441  5.2464  3.8650 -0.3093
  969MOL0     H30761   0.137   4.663  11.499  0.0024 -1.0208  2.8457
  969MOL0     H30762  -0.045   4.547  11.612  2.4623  2.5916  0.5384
  969MOL0     H30763  -0.061   4.705  11.547  0.9565 -0.0038  1.1783
  969MOL0     H30764  -0.148   4.449  11.399 -0.8801 -1.1407  2.1555
  969MOL0     H30765  -0.182   4.617  11.339  2.3780  0.9074  1.1572
  969MOL0     H30766  -0.328   4.770  11.480  3.2990 -1.4163 -0.0607
  969MOL0     H30767  -0.465   4.798  11.810 -1.6884  2.0910  0.1478
  969MOL0     H30768  -0.504   4.861  11.656  1.4739 -0.2767 -0.7571
  969MOL0     H30769  -0.663   4.614  11.731  1.9250 -0.6569  0.2176
  969MOL0     H30770  -0.708   4.753  11.639  0.9730 -1.8452 -1.4672
  969MOL0     H30771  -0.719   4.889  11.868 -1.6566  0.7282  0.3992
  969MOL0     H30772  -0.655   4.746  11.948 -2.8345 -0.7428  2.7936
  969MOL0     H30773  -0.836   4.663  11.992 -1.9690  1.3470  0.8744
  969MOL0     H30774  -0.920   4.690  11.833  0.3897 -0.6859  0.7864
  969MOL0     H30775  -1.098   5.044  12.037 -1.5246 -1.5130  1.2112
  969MOL0     H30776  -1.194   5.352  11.919 -0.0512  0.0108 -1.2802
  969MOL0     H30777  -1.319   5.233  11.923  0.2583 -1.5802  2.4685
  969MOL0     H30778  -1.195   5.224  12.045  2.2976  0.6722  0.2043
  969MOL0     H30779  -0.937   5.409  11.324  3.8219  0.1558  0.8844
  969MOL0     H30780  -1.010   5.624  11.192  0.6246  2.9084  0.5951
  969MOL0     H30781  -1.249   5.935  11.425  3.0683  1.6018  3.8523
  969MOL0     H30782  -1.087   5.957  11.423  1.4712 -0.4732 -1.2571
  969MOL0     H30783  -1.248   6.052  11.180 -1.7409  0.0712  1.4027
  969MOL0     H30784  -1.193   6.143  11.317 -1.6130  0.4018 -0.8054
  969MOL0     H30785  -1.069   6.131  11.086 -2.5861 -1.6159  0.1192
  969MOL0     H30786  -1.005   5.976  11.153  4.2732  0.1766  0.2232
  969MOL0     H30787  -0.968   6.211  11.313  1.1876 -0.0900  1.1189
  969MOL0     H30788  -0.891   6.068  11.336 -1.0470  1.5787  1.5270
  969MOL0     H30789  -0.809   6.088  11.076  0.0496  3.6768 -3.0551
  969MOL0     H30790  -0.708   6.123  11.204 -0.6645  0.2352 -0.0361
  969MOL0     H30791  -0.716   6.299  11.029  0.6407  2.7587  0.3229
  969MOL0     H30792  -0.884   6.318  11.060 -0.4314  1.2514  2.2355
  969MOL0     H30793  -0.688   6.331  11.280 -0.7680 -1.5292 -1.5751
  969MOL0     H30794  -0.842   6.424  11.268 -1.5856 -4.3524  0.4631
  969MOL0     H30795  -0.647   6.580  11.258 -1.9818  1.3910 -0.1718
  969MOL0     H30796  -0.734   6.584  11.104  1.9420  0.2887 -2.5081
  969MOL0     H30797  -1.185   5.772  11.551 -1.8775  2.7918 -2.8472
  969MOL0     H30798  -1.140   5.579  11.660 -2.1784 -0.7182 -0.4702
  969MOL0     H30799  -0.984   5.070  11.559  2.5141  0.5792  0.2074
  969MOL0     H30800  -0.881   4.905  11.676 -2.5488 -0.1404 -1.2873
  969MOL0     H30801   0.666   5.090  11.273 -0.1400 -1.2834 -0.5282
  969MOL0     H30802   0.836   5.256  11.176  0.3153 -0.6418  0.0142
  969MOL0     H30803   0.868   5.568  10.642  1.9635  2.6677 -0.7535
  969MOL0     H30804   1.050   5.708  10.565 -0.5206  2.1079  0.2028
  969MOL0     H30805   1.290   5.722  10.489 -0.4665  1.7309 -0.9459
  969MOL0     H30806   1.207   5.854  10.565 -1.0599 -1.5930 -1.8416
  969MOL0     H30807   1.416   5.952  10.641  1.7142 -1.7354  1.2727
  969MOL0     H30808   1.430   5.927  10.475 -2.3856  0.8981 -0.5667
  969MOL0     H30809   1.540   5.703  10.644 -0.8761 -1.6522 -2.3710
  969MOL0     H30810   1.617   5.860  10.653  0.7916 -0.9694 -1.1124
  969MOL0     H30811   1.640   5.868  10.412  0.0384  1.7610  2.4339
  969MOL0     H30812   1.560   5.707  10.391  1.8317 -3.6042  1.2073
  969MOL0     H30813   1.940   5.564  10.465  0.2363 -2.3725  1.2731
  969MOL0     H30814   1.281   5.600  10.923 -2.2820  0.9319  3.5141
  969MOL0     H30815   1.084   5.464  11.003  1.2830  1.0430 -0.5163
  970MOL0     O30816   9.175   4.868   3.495 -0.1455  0.4039  1.0081
  970MOL0     C30817   9.156   4.935   3.397 -0.2180 -0.2389 -0.0337
  970MOL0     O30818   9.229   5.043   3.367  0.5353  0.1009 -0.9922
  970MOL0     C30819   9.332   5.094   3.446 -0.1357 -0.5578 -0.1129
  970MOL0     C30820   9.329   5.100   3.587  0.7025 -0.0776  0.2943
  970MOL0     C30821   9.434   5.157   3.659  0.2372  0.7473 -0.7665
  970MOL0     C30822   9.543   5.206   3.589 -0.5969  0.4861  0.2118
  970MOL0     O30823   9.650   5.250   3.667  0.4483 -0.4658  0.9081
  970MOL0     C30824   9.774   5.289   3.616  0.2330 -0.0029  0.2338
  970MOL0     C30825   9.855   5.322   3.733  0.0580 -0.1681 -0.6243
  970MOL0     C30826   9.992   5.357   3.699  0.1385 -0.2814 -0.4021
  970MOL0     C30827  10.062   5.427   3.819  0.1074  0.7965 -0.5024
  970MOL0     C30828  10.212   5.379   3.799 -0.8915  0.6370 -0.1368
  970MOL0     C30829  10.316   5.464   3.879 -0.6168  0.0321 -0.1430
  970MOL0     C30830  10.466   5.420   3.861  0.4411 -0.3552 -0.0354
  970MOL0     C30831  10.510   5.290   3.933  0.0119 -0.4636  0.4892
  970MOL0     N30832  10.535   5.307   4.077  0.4997  0.3759 -0.7487
  970MOL0     C30833  10.640   5.388   4.126  0.2091  0.3618  0.4530
  970MOL0     C30834  10.645   5.374   4.263 -0.0022 -0.5317  0.4705
  970MOL0     C30835  10.729   5.442   4.371  0.5566 -0.4962 -0.3001
  970MOL0     C30836  10.824   5.344   4.441 -0.1189 -1.3884 -0.3925
  970MOL0     C30837  10.747   5.232   4.502 -0.0922  0.1709 -0.3439
  970MOL0     C30838  10.848   5.155   4.593  0.4982 -0.3028 -0.5635
  970MOL0     O30839  10.909   5.240   4.693 -0.1122 -0.5388  0.0461
  970MOL0     C30840  10.995   5.182   4.785 -0.5630  0.2550 -0.5319
  970MOL0     C30841  11.081   5.269   4.864  0.0133  0.0148  0.2644
  970MOL0     C30842  11.175   5.221   4.946 -0.2475  0.1287 -0.4380
  970MOL0     C30843  11.239   5.332   5.034 -0.5622 -0.2271 -0.7925
  970MOL0     C30844  11.203   5.079   4.957 -0.3721 -0.0853  0.7988
  970MOL0     C30845  11.310   5.025   5.040  0.3531 -0.8299  0.0657
  970MOL0     O30846  11.264   4.922   5.119 -0.5681  0.6974  0.0269
  970MOL0     C30847  11.339   4.878   5.221  0.4600  0.7153  0.5507
  970MOL0     C30848  11.464   4.823   5.193 -1.2642  0.0413 -0.8770
  970MOL0     C30849  11.546   4.779   5.303 -0.7541 -0.8790  0.3664
  970MOL0     C30850  11.499   4.797   5.438  0.5402 -0.2154 -0.1325
  970MOL0     O30851  11.581   4.743   5.536  0.5532  0.7808  0.0621
  970MOL0     C30852  11.523   4.700   5.658 -0.3972 -0.2009  0.1815
  970MOL0     C30853  11.642   4.631   5.742 -0.2808  1.0523 -0.3862
  970MOL0     C30854  11.694   4.512   5.663  1.5390  0.3445  1.2122
  970MOL0     C30855  11.845   4.511   5.674 -0.4906 -0.1418 -0.7749
  970MOL0     C30856  11.909   4.370   5.642  0.2192 -0.3641 -0.7389
  970MOL0     C30857  12.059   4.384   5.662 -0.5370  0.2858 -1.3920
  970MOL0     C30858  12.121   4.259   5.595  0.0727  0.4000 -0.1781
  970MOL0     C30859  12.239   4.211   5.679 -0.2375 -0.1616 -0.6247
  970MOL0    Cl30860  12.388   4.291   5.633 -0.6411 -0.0793 -0.6274
  970MOL0     C30861  11.372   4.854   5.460 -0.1088  0.3337 -1.1549
  970MOL0     C30862  11.292   4.886   5.351  0.2833 -0.4170  0.2152
  970MOL0     O30863  11.425   5.079   5.037 -0.2976 -0.3611  0.0343
  970MOL0     C30864  11.122   4.995   4.882  1.0143 -0.4796 -0.1870
  970MOL0     C30865  11.021   5.046   4.791 -0.6504  0.1254  0.5115
  970MOL0     N30866  10.540   5.292   4.292 -0.7946 -0.3078  0.0273
  970MOL0     N30867  10.472   5.250   4.192  0.8728 -0.4771  0.1742
  970MOL0     C30868   9.553   5.196   3.452  0.4120 -0.7973 -0.5551
  970MOL0     C30869   9.451   5.139   3.382  0.5392  0.7832 -0.0524
  970MOL0     C30870   9.038   4.913   3.319  0.9172 -0.4832 -0.7193
  970MOL0     C30871   9.007   4.999   3.218 -0.4383  0.4842  0.0430
  970MOL0     C30872   8.901   4.975   3.124  1.0231 -0.4727 -0.7646
  970MOL0     C30873   8.821   4.865   3.137 -0.5095  0.2559  0.1534
  970MOL0     O30874   8.719   4.842   3.045  0.1826 -0.4990 -0.3350
  970MOL0     C30875   8.687   4.924   2.927 -0.8788  1.1204 -1.2170
  970MOL0     C30876   8.558   4.993   2.949  0.4662  0.2516 -0.0849
  970MOL0     C30877   8.438   4.896   2.930 -0.2725  0.1491 -0.0975
  970MOL0     C30878   8.298   4.952   2.905  0.2220 -0.9511 -1.0762
  970MOL0     C30879   8.238   5.011   3.027  0.6301  0.4053  0.2111
  970MOL0     C30880   8.173   5.062   3.112  0.1656 -0.0891  0.9056
  970MOL0     C30881   8.851   4.775   3.237  0.2311 -0.9915 -0.2231
  970MOL0     C30882   8.962   4.796   3.323 -0.9567 -0.0544 -0.2739
  970MOL0     H30883   9.237   5.074   3.638 -0.3773 -1.7521 -2.3116
  970MOL0     H30884   9.425   5.184   3.763 -2.3002 -1.3022 -0.3569
  970MOL0     H30885   9.817   5.204   3.563  1.6648  0.8803 -0.0877
  970MOL0     H30886   9.757   5.377   3.552  1.6933  0.1481  0.0134
  970MOL0     H30887   9.812   5.397   3.800 -0.0525 -0.6006 -0.2131
  970MOL0     H30888   9.871   5.227   3.784  2.9849  1.8288  2.6112
  970MOL0     H30889  10.039   5.262   3.672  2.8463  1.4441 -2.2849
  970MOL0     H30890   9.990   5.405   3.601 -3.3564 -1.1550 -0.8943
  970MOL0     H30891  10.069   5.535   3.804  2.0730  1.1391  2.2018
  970MOL0     H30892  10.028   5.403   3.920  0.9582  1.6093 -0.0173
  970MOL0     H30893  10.219   5.274   3.829 -3.3405 -0.1009 -1.8072
  970MOL0     H30894  10.235   5.390   3.693 -1.7025 -1.9724 -0.6610
  970MOL0     H30895  10.303   5.569   3.850 -1.2282  0.7102  2.3268
  970MOL0     H30896  10.293   5.460   3.986  1.5256  0.7549  0.3954
  970MOL0     H30897  10.483   5.408   3.753  4.8799  0.1533  0.4306
  970MOL0     H30898  10.525   5.508   3.889 -0.9409  0.3214  0.8304
  970MOL0     H30899  10.603   5.254   3.888  0.2917 -0.0768  0.7569
  970MOL0     H30900  10.440   5.211   3.906 -1.2785  0.8712 -0.2117
  970MOL0     H30901  10.704   5.455   4.069 -0.6208 -0.2346 -1.2812
  970MOL0     H30902  10.798   5.519   4.333  2.3594 -1.0864  1.5901
  970MOL0     H30903  10.674   5.505   4.441  0.5207 -3.9183  3.0748
  970MOL0     H30904  10.898   5.392   4.506 -1.7882 -1.2008  1.4807
  970MOL0     H30905  10.886   5.313   4.357 -1.0957 -0.6242 -1.4225
  970MOL0     H30906  10.705   5.164   4.427 -2.9855  2.7904 -1.3231
  970MOL0     H30907  10.658   5.272   4.552 -1.8281 -2.0670 -1.4528
  970MOL0     H30908  10.927   5.111   4.531  3.2756  1.0559  1.7706
  970MOL0     H30909  10.801   5.076   4.651  1.5775  1.3637  2.8033
  970MOL0     H30910  11.048   5.373   4.860 -1.7250 -0.5224 -0.3649
  970MOL0     H30911  11.208   5.324   5.138  1.5703 -1.1799 -0.1900
  970MOL0     H30912  11.348   5.340   5.029 -0.3948 -0.8637  1.2206
  970MOL0     H30913  11.199   5.429   5.001 -0.3180  1.7923  4.1004
  970MOL0     H30914  11.492   4.809   5.089  0.0633  0.8902 -0.6543
  970MOL0     H30915  11.636   4.718   5.292  0.6003  1.1116 -0.0179
  970MOL0     H30916  11.492   4.784   5.721  1.5502  2.1051 -1.7326
  970MOL0     H30917  11.432   4.639   5.656  1.2229 -2.8704  1.5062
  970MOL0     H30918  11.719   4.704   5.769 -0.2540  0.5402  1.0628
  970MOL0     H30919  11.588   4.589   5.828 -1.9408 -0.9780 -2.3079
  970MOL0     H30920  11.680   4.520   5.555 -1.4813  2.0376  1.6276
  970MOL0     H30921  11.637   4.427   5.703 -0.3892  0.9609 -0.0736
  970MOL0     H30922  11.887   4.583   5.604 -0.5892 -0.6861 -1.4093
  970MOL0     H30923  11.874   4.529   5.778 -0.0294 -0.2805 -0.8745
  970MOL0     H30924  11.876   4.336   5.543  0.5079 -3.6528  0.1611
  970MOL0     H30925  11.868   4.295   5.711  2.8384 -3.5030 -2.3162
  970MOL0     H30926  12.096   4.479   5.622 -0.4210  0.4792 -0.8403
  970MOL0     H30927  12.070   4.400   5.770  1.8940  2.0676 -1.8355
  970MOL0     H30928  12.154   4.281   5.493 -0.7541  2.5584 -0.0314
  970MOL0     H30929  12.053   4.173   5.588  1.3308 -0.7843  1.2686
  970MOL0     H30930  12.256   4.105   5.660 -2.5891 -0.3915 -1.8134
  970MOL0     H30931  12.218   4.202   5.786  1.4143 -0.5855 -0.3137
  970MOL0     H30932  11.315   4.852   5.552 -0.1232  4.0959 -0.9269
  970MOL0     H30933  11.191   4.925   5.359  0.6135  1.2202 -2.4716
  970MOL0     H30934  11.127   4.887   4.895 -2.6563 -0.5240  2.3086
  970MOL0     H30935  10.951   4.992   4.729  2.1172  1.7508 -4.6185
  970MOL0     H30936   9.623   5.257   3.395 -0.8799  1.0806 -0.2041
  970MOL0     H30937   9.466   5.134   3.275  2.6250  0.4821  0.1964
  970MOL0     H30938   9.067   5.088   3.202  1.1627 -0.3069  1.3194
  970MOL0     H30939   8.887   5.051   3.048  3.4373 -0.4611 -1.2809
  970MOL0     H30940   8.765   4.996   2.902  1.1784 -0.9040 -0.9998
  970MOL0     H30941   8.679   4.852   2.845  0.6622 -2.3883  1.4542
  970MOL0     H30942   8.547   5.074   2.875 -1.1978  2.1669  2.1114
  970MOL0     H30943   8.561   5.037   3.049  1.2523  1.4881 -0.6262
  970MOL0     H30944   8.443   4.822   3.011  2.9271  1.1610  0.8078
  970MOL0     H30945   8.476   4.848   2.840 -1.5947 -0.0199 -0.5762
  970MOL0     H30946   8.245   4.869   2.858 -1.0030 -2.3187  2.4417
  970MOL0     H30947   8.309   5.035   2.834  0.1154 -0.6132 -0.7022
  970MOL0     H30948   8.130   5.115   3.195 -0.3068  3.1073 -1.2083
  970MOL0     H30949   8.785   4.690   3.239 -1.2010  0.0728 -0.6225
  970MOL0     H30950   8.981   4.719   3.397 -1.7269  0.0779  0.0596
  971MOL0     O30951   6.707   3.642   1.665  0.2595 -0.3250 -0.1790
  971MOL0     C30952   6.750   3.528   1.653 -0.1324 -0.1884  0.0441
  971MOL0     O30953   6.879   3.496   1.634 -0.0344 -0.3452 -0.1239
  971MOL0     C30954   6.989   3.572   1.680 -0.1717 -1.0769  0.8227
  971MOL0     C30955   6.999   3.714   1.715  0.5099  1.0219 -0.5205
  971MOL0     C30956   7.120   3.768   1.752  0.7380 -0.1346  0.9071
  971MOL0     C30957   7.236   3.698   1.752 -1.0431  0.4963 -0.7776
  971MOL0     O30958   7.347   3.774   1.785 -0.8909  0.2018  0.4225
  971MOL0     C30959   7.481   3.708   1.776 -0.4355 -0.1998 -0.3275
  971MOL0     C30960   7.601   3.804   1.805 -0.5580  0.0286 -0.3009
  971MOL0     C30961   7.654   3.877   1.686 -0.4321  0.1458  0.3773
  971MOL0     C30962   7.607   4.024   1.676  0.3019  0.4767 -0.5262
  971MOL0     C30963   7.460   4.033   1.623 -0.6939  0.4027 -0.2293
  971MOL0     C30964   7.421   4.184   1.599  0.3457  0.1388 -0.1023
  971MOL0     C30965   7.264   4.194   1.574 -0.1840 -0.1876  0.4918
  971MOL0     C30966   7.214   4.330   1.611  0.1458 -0.7212 -0.1599
  971MOL0     N30967   7.275   4.443   1.546 -0.1584 -0.2638  0.6381
  971MOL0     C30968   7.312   4.442   1.411 -0.1324 -0.7719 -0.0090
  971MOL0     C30969   7.387   4.555   1.394 -0.4539 -0.1127 -0.0090
  971MOL0     C30970   7.448   4.585   1.262  0.9197  0.0090  0.0732
  971MOL0     C30971   7.374   4.701   1.182 -0.6427 -0.3187  0.2298
  971MOL0     C30972   7.259   4.644   1.094  0.2216 -0.9486  0.3399
  971MOL0     C30973   7.156   4.755   1.093 -0.2580 -0.6099  0.5003
  971MOL0     O30974   7.020   4.715   1.065  0.1929 -0.6923  1.0314
  971MOL0     C30975   6.933   4.819   1.048 -0.0072  0.6536  1.0532
  971MOL0     C30976   6.973   4.955   1.026 -0.3577 -0.3850  0.5446
  971MOL0     C30977   6.879   5.054   1.003  0.8076 -1.0513  0.8517
  971MOL0     C30978   6.921   5.194   1.000  0.1076 -1.1376  0.0011
  971MOL0     C30979   6.741   5.013   0.988 -0.5595  0.5104  0.0381
  971MOL0     C30980   6.624   5.096   0.947 -0.8661 -0.3678  0.2095
  971MOL0     O30981   6.527   5.027   0.888  1.3817  0.6798 -0.5919
  971MOL0     C30982   6.432   5.098   0.823  0.0453  0.0166  0.6069
  971MOL0     C30983   6.361   5.208   0.882  0.5504  0.0413 -0.1953
  971MOL0     C30984   6.265   5.284   0.811  0.3325 -0.1887 -0.2954
  971MOL0     C30985   6.251   5.264   0.676 -0.1954 -0.0765  0.4154
  971MOL0     O30986   6.169   5.341   0.590 -0.6391  0.1166  0.6900
  971MOL0     C30987   6.050   5.268   0.568  0.1815  0.1592 -0.1342
  971MOL0     C30988   5.964   5.346   0.463 -0.1703 -0.2361  0.2887
  971MOL0     C30989   6.007   5.336   0.315 -0.2417  0.5214  0.1519
  971MOL0     C30990   5.903   5.402   0.225  0.4350  0.6246 -1.1809
  971MOL0     C30991   5.916   5.339   0.093 -0.4551  0.0206  0.5546
  971MOL0     C30992   5.878   5.433  -0.023  0.1248 -0.5483  1.3217
  971MOL0     C30993   5.895   5.354  -0.154  0.1869  0.9218 -0.2090
  971MOL0     C30994   5.839   5.425  -0.287 -0.1861  0.4208  0.8887
  971MOL0    Cl30995   5.907   5.335  -0.427  0.7133 -0.0724  0.1229
  971MOL0     C30996   6.317   5.151   0.619  0.4695 -0.0926 -0.8707
  971MOL0     C30997   6.414   5.071   0.688  0.8686  0.0907 -0.4134
  971MOL0     O30998   6.635   5.219   0.955 -0.5284 -0.0853  0.1024
  971MOL0     C30999   6.708   4.877   1.010 -1.3099 -0.3800 -0.1990
  971MOL0     C31000   6.798   4.779   1.034 -0.3598 -0.0607 -0.0313
  971MOL0     N31001   7.377   4.624   1.519  0.4615 -0.3017 -0.1632
  971MOL0     N31002   7.321   4.557   1.616  0.5328  0.3447 -0.4754
  971MOL0     C31003   7.241   3.564   1.708 -0.7453 -0.4055  0.6138
  971MOL0     C31004   7.117   3.510   1.674 -0.1862  0.4474  0.6236
  971MOL0     C31005   6.647   3.417   1.670  0.1287 -0.3040  0.0075
  971MOL0     C31006   6.517   3.444   1.624 -0.2037  0.0774  0.5519
  971MOL0     C31007   6.414   3.354   1.636  0.5155 -0.2413  0.1117
  971MOL0     C31008   6.440   3.229   1.702 -0.0708 -2.3461  0.0425
  971MOL0     O31009   6.340   3.147   1.733 -0.5807  0.0514 -0.0494
  971MOL0     C31010   6.372   3.018   1.672  0.0089  0.7195 -0.1186
  971MOL0     C31011   6.249   2.936   1.648  0.1468  0.0510  0.5096
  971MOL0     C31012   6.182   2.878   1.777 -0.2801  0.0322 -0.3178
  971MOL0     C31013   6.047   2.811   1.748 -0.3456 -0.3351  0.4445
  971MOL0     C31014   6.032   2.704   1.846 -0.0310  0.2210  1.1998
  971MOL0     C31015   6.001   2.624   1.935 -0.6699 -0.1389 -0.6961
  971MOL0     C31016   6.570   3.196   1.743  0.1512 -0.1048 -0.3240
  971MOL0     C31017   6.677   3.286   1.725 -0.3562  0.0243  0.3674
  971MOL0     H31018   6.903   3.765   1.719  0.1005  0.3461 -1.3157
  971MOL0     H31019   7.116   3.875   1.769  0.5899  0.0131 -0.0161
  971MOL0     H31020   7.475   3.639   1.861 -2.6424  0.4175  0.0907
  971MOL0     H31021   7.493   3.640   1.691 -5.1218 -1.1506 -0.5119
  971MOL0     H31022   7.569   3.885   1.872 -2.1815  2.2157 -3.4505
  971MOL0     H31023   7.684   3.746   1.845  1.2185  1.1779 -2.1610
  971MOL0     H31024   7.763   3.878   1.689 -0.3462 -0.2853 -1.5843
  971MOL0     H31025   7.625   3.835   1.589  0.5488 -2.1886  1.0461
  971MOL0     H31026   7.628   4.074   1.771  1.8933  0.1469 -0.6840
  971MOL0     H31027   7.656   4.089   1.602 -0.3167  0.1014 -1.2821
  971MOL0     H31028   7.449   3.971   1.533  0.6087 -0.2835  0.0587
  971MOL0     H31029   7.396   3.995   1.703  1.2732 -1.2398  0.6593
  971MOL0     H31030   7.460   4.238   1.686  0.6233  2.1296 -1.3966
  971MOL0     H31031   7.480   4.213   1.511  2.5442 -2.4373  0.3727
  971MOL0     H31032   7.239   4.174   1.470 -0.0274 -0.9509  0.5926
  971MOL0     H31033   7.219   4.116   1.637 -0.9364 -1.2360 -1.2772
  971MOL0     H31034   7.223   4.342   1.719 -3.8763  2.9782  0.0659
  971MOL0     H31035   7.108   4.314   1.589 -0.3760 -2.8266  3.1122
  971MOL0     H31036   7.301   4.364   1.336  3.7336  1.4804 -3.3647
  971MOL0     H31037   7.549   4.625   1.274  2.5535 -3.1442 -1.7408
  971MOL0     H31038   7.462   4.495   1.201  3.5982 -0.3618  1.0981
  971MOL0     H31039   7.448   4.744   1.114 -2.0394 -1.0331 -1.8430
  971MOL0     H31040   7.342   4.777   1.254 -0.0670 -0.8842  1.1082
  971MOL0     H31041   7.223   4.556   1.148  0.1030 -0.6289  0.7829
  971MOL0     H31042   7.280   4.617   0.990 -0.6643 -2.3906  0.5083
  971MOL0     H31043   7.202   4.813   1.012  1.8679 -1.0504  1.3395
  971MOL0     H31044   7.158   4.823   1.179 -2.3722 -1.2850  1.1432
  971MOL0     H31045   7.075   4.989   1.036  0.2561  0.1020 -4.6402
  971MOL0     H31046   6.898   5.243   1.095  0.6916  0.7264 -0.7615
  971MOL0     H31047   7.030   5.205   0.996 -0.1597  2.8256 -3.5344
  971MOL0     H31048   6.888   5.261   0.920  1.8104  0.3469  0.4641
  971MOL0     H31049   6.375   5.238   0.985 -0.8111  4.6109 -1.0810
  971MOL0     H31050   6.198   5.357   0.856  2.5992  2.1953 -0.5744
  971MOL0     H31051   6.078   5.169   0.530 -1.8194 -0.3405 -0.4015
  971MOL0     H31052   6.007   5.257   0.667 -1.6224  0.9698 -0.7858
  971MOL0     H31053   5.859   5.313   0.463  0.3657 -2.6189 -3.9984
  971MOL0     H31054   5.964   5.453   0.486  0.8536  0.4656 -2.5787
  971MOL0     H31055   6.028   5.230   0.297 -0.9975 -0.0197  2.2144
  971MOL0     H31056   6.108   5.377   0.305 -0.5829  1.3542  0.0955
  971MOL0     H31057   5.800   5.394   0.262 -0.0245 -2.1512 -2.7775
  971MOL0     H31058   5.921   5.510   0.217  2.2357  0.2035 -4.0522
  971MOL0     H31059   5.877   5.237   0.085  0.2847 -0.1265 -2.9777
  971MOL0     H31060   6.022   5.330   0.068 -0.3486  0.9828  0.6487
  971MOL0     H31061   5.772   5.457  -0.013  0.2418  2.1992 -2.0835
  971MOL0     H31062   5.941   5.522  -0.039  0.3706 -1.0616 -0.9877
  971MOL0     H31063   5.829   5.267  -0.149 -0.3119  1.3783  2.9860
  971MOL0     H31064   5.997   5.319  -0.170 -0.2675  0.4722 -2.5819
  971MOL0     H31065   5.860   5.532  -0.294 -0.1320  0.4368  1.2654
  971MOL0     H31066   5.730   5.412  -0.290 -0.0071 -1.5226  1.2173
  971MOL0     H31067   6.288   5.126   0.518  0.3718 -0.1829 -0.8212
  971MOL0     H31068   6.460   4.984   0.643  2.1289 -0.0670  1.0717
  971MOL0     H31069   6.604   4.847   1.001 -1.1001 -0.6640 -2.0901
  971MOL0     H31070   6.772   4.674   1.050 -0.3736  0.3076  3.1943
  971MOL0     H31071   7.332   3.508   1.688  0.5524  1.4215  1.1859
  971MOL0     H31072   7.117   3.417   1.619 -0.5062  1.1224 -0.5544
  971MOL0     H31073   6.492   3.538   1.576 -0.9789  0.3455  1.4539
  971MOL0     H31074   6.318   3.378   1.591 -1.8053 -2.2095  3.5750
  971MOL0     H31075   6.432   3.028   1.581 -0.8562 -0.6829 -0.8847
  971MOL0     H31076   6.427   2.961   1.747 -2.9955 -0.0657  1.6378
  971MOL0     H31077   6.281   2.860   1.576 -1.2619  1.7384 -2.0243
  971MOL0     H31078   6.175   2.997   1.596  1.8921  1.8361  0.0147
  971MOL0     H31079   6.161   2.960   1.846 -4.7661  0.4207 -1.8254
  971MOL0     H31080   6.251   2.801   1.811 -0.2794 -1.3172 -3.0983
  971MOL0     H31081   6.061   2.768   1.648  1.6974  0.5214  0.3272
  971MOL0     H31082   5.952   2.866   1.751 -0.4322 -0.4697  0.1637
  971MOL0     H31083   5.971   2.545   2.000  1.7410  1.3164  2.4218
  971MOL0     H31084   6.590   3.107   1.803 -2.2818  0.8013  2.0200
  971MOL0     H31085   6.771   3.258   1.771 -1.2004  0.2239  2.3054
  972MOL0     O31086   9.023   3.540   9.727  0.6422 -0.3269 -0.8931
  972MOL0     C31087   8.982   3.604   9.820  0.9159  0.0209 -1.1877
  972MOL0     O31088   9.059   3.646   9.929 -0.0932 -0.1723  0.1198
  972MOL0     C31089   9.200   3.647   9.919 -0.4143 -0.1247 -0.6215
  972MOL0     C31090   9.261   3.764   9.885 -0.0691 -0.8696 -0.2537
  972MOL0     C31091   9.403   3.769   9.889 -1.3773 -0.0277  0.0751
  972MOL0     C31092   9.480   3.669   9.960 -0.0203  0.4940 -0.6457
  972MOL0     O31093   9.612   3.694   9.975  0.1046  0.4446 -0.1600
  972MOL0     C31094   9.674   3.622  10.090  0.1086 -0.1503  0.3500
  972MOL0     C31095   9.602   3.634  10.223  0.3133  0.6212  0.1598
  972MOL0     C31096   9.690   3.597  10.334 -0.6777  0.2189 -0.0446
  972MOL0     C31097   9.632   3.603  10.475 -0.7726  0.4349  0.7441
  972MOL0     C31098   9.725   3.566  10.591  0.0012  0.0007  0.4657
  972MOL0     C31099   9.662   3.450  10.673  0.4216 -0.2602 -0.9185
  972MOL0     C31100   9.749   3.415  10.788 -0.1236 -0.4322  0.2070
  972MOL0     C31101   9.747   3.527  10.896  0.2116  1.3849  0.0679
  972MOL0     N31102   9.801   3.478  11.019  0.5461  0.1545 -0.4577
  972MOL0     C31103   9.917   3.523  11.073 -0.7531 -0.3440 -0.1334
  972MOL0     C31104   9.941   3.453  11.188 -0.4714  0.1843  0.1613
  972MOL0     C31105  10.067   3.444  11.279 -0.3009  0.3487  0.3907
  972MOL0     C31106  10.132   3.307  11.250 -0.8200  0.0391 -0.2888
  972MOL0     C31107  10.207   3.237  11.371 -0.0839  0.1592  0.0300
  972MOL0     C31108  10.285   3.121  11.330  0.8377  0.1212  0.0597
  972MOL0     O31109  10.412   3.155  11.266  0.3733 -0.7978  0.3771
  972MOL0     C31110  10.499   3.044  11.252  0.2964  0.3777 -0.4209
  972MOL0     C31111  10.460   2.913  11.239  0.1066  1.3614  0.6744
  972MOL0     C31112  10.550   2.810  11.218  0.8255 -0.3004 -0.2937
  972MOL0     C31113  10.496   2.667  11.224 -0.4792  0.0839 -0.1600
  972MOL0     C31114  10.684   2.839  11.201 -0.5971  0.2125 -0.6754
  972MOL0     C31115  10.789   2.745  11.165 -0.1239  0.1672 -0.2941
  972MOL0     O31116  10.920   2.775  11.203  0.1750 -0.2169  0.2702
  972MOL0     C31117  11.029   2.698  11.173 -0.3943 -0.0149  0.3291
  972MOL0     C31118  11.155   2.761  11.175 -0.7580  0.2724 -0.1386
  972MOL0     C31119  11.275   2.699  11.156  0.8284 -0.9411  0.1064
  972MOL0     C31120  11.275   2.569  11.116  0.9291  0.0707 -0.1883
  972MOL0     O31121  11.392   2.508  11.079  0.0197 -0.0052  0.4704
  972MOL0     C31122  11.472   2.459  11.185 -0.0209 -0.1931  0.0729
  972MOL0     C31123  11.418   2.345  11.280  0.0496  0.5557 -0.0941
  972MOL0     C31124  11.517   2.271  11.369  0.3487  0.0734 -0.2474
  972MOL0     C31125  11.445   2.146  11.429 -0.4263 -0.4546 -0.2619
  972MOL0     C31126  11.533   2.042  11.495 -0.4628  0.0417 -0.9484
  972MOL0     C31127  11.654   1.993  11.412 -0.0860 -0.3118 -0.2654
  972MOL0     C31128  11.722   1.874  11.460 -0.3275  0.7400  0.1267
  972MOL0     C31129  11.867   1.860  11.405  0.4274  0.4466  0.2588
  972MOL0    Cl31130  11.878   1.940  11.243  0.1973 -0.0338 -0.0341
  972MOL0     C31131  11.156   2.502  11.112 -0.8335  1.3017  0.6027
  972MOL0     C31132  11.029   2.559  11.145 -0.3330 -0.6866 -0.4553
  972MOL0     O31133  10.750   2.651  11.091 -0.3374  0.9386  0.6726
  972MOL0     C31134  10.725   2.977  11.210 -0.3242 -0.1294 -0.2625
  972MOL0     C31135  10.630   3.073  11.230 -0.3249  0.0742 -1.0313
  972MOL0     N31136   9.835   3.367  11.200  0.2914  1.2615  0.1129
  972MOL0     N31137   9.742   3.399  11.112  0.0418  0.5449  0.3040
  972MOL0     C31138   9.411   3.543   9.987  0.8624 -0.2978  0.0798
  972MOL0     C31139   9.269   3.536   9.968  0.4535 -0.1043  0.2753
  972MOL0     C31140   8.835   3.645   9.821 -0.7741 -0.1027 -0.1529
  972MOL0     C31141   8.754   3.590   9.712 -0.4793 -0.7387 -2.1157
  972MOL0     C31142   8.617   3.610   9.718  0.0049 -1.2166 -0.4099
  972MOL0     C31143   8.557   3.672   9.825  0.0990 -0.5367  0.4046
  972MOL0     O31144   8.417   3.703   9.826 -0.3226  0.1087  0.1363
  972MOL0     C31145   8.319   3.654   9.726 -0.3267  0.5300  0.4168
  972MOL0     C31146   8.199   3.756   9.719  0.2241  0.0182 -0.3537
  972MOL0     C31147   8.095   3.718   9.828  0.1676  0.2702 -1.3216
  972MOL0     C31148   7.988   3.815   9.833 -0.1472 -0.1329  1.0639
  972MOL0     C31149   7.902   3.775   9.714 -0.9193 -0.5567  0.5318
  972MOL0     C31150   7.826   3.744   9.635 -0.3095  0.4576  0.7558
  972MOL0     C31151   8.633   3.726   9.927 -0.4056 -0.4900  0.2228
  972MOL0     C31152   8.768   3.706   9.934 -0.3733  0.4833  0.4690
  972MOL0     H31153   9.201   3.852   9.868  2.4662  0.7559 -1.5117
  972MOL0     H31154   9.449   3.860   9.853  0.8054 -1.4082 -0.8108
  972MOL0     H31155   9.674   3.517  10.059  1.0119 -0.1665  0.3860
  972MOL0     H31156   9.778   3.653  10.103  1.2024 -3.3164  0.0919
  972MOL0     H31157   9.567   3.736  10.239 -4.0902 -0.3059 -2.1396
  972MOL0     H31158   9.517   3.565  10.222  0.5198  0.3637 -0.7415
  972MOL0     H31159   9.711   3.492  10.310  1.7823  0.6167  0.0370
  972MOL0     H31160   9.787   3.648  10.332 -1.1814  1.2094 -0.7102
  972MOL0     H31161   9.611   3.709  10.492  0.0804  0.7104  0.1565
  972MOL0     H31162   9.532   3.561  10.488 -1.1919  1.1376 -0.1495
  972MOL0     H31163   9.819   3.527  10.551  0.2731  0.3451  0.7612
  972MOL0     H31164   9.732   3.655  10.655  1.2442 -0.6003  1.1947
  972MOL0     H31165   9.560   3.459  10.711 -0.2496 -5.4440 -0.8248
  972MOL0     H31166   9.646   3.359  10.614  2.3680  0.4261 -2.6540
  972MOL0     H31167   9.719   3.316  10.823 -0.9475 -0.0830  0.5007
  972MOL0     H31168   9.854   3.401  10.761 -0.6198 -1.6155 -1.1959
  972MOL0     H31169   9.640   3.548  10.901 -0.3541 -1.4177  1.8006
  972MOL0     H31170   9.793   3.623  10.867  0.5032  2.2250  3.0272
  972MOL0     H31171   9.965   3.615  11.040 -2.5598  0.8971  0.5405
  972MOL0     H31172  10.132   3.528  11.253  1.9984 -2.3258 -3.4792
  972MOL0     H31173  10.038   3.453  11.385  0.0053  0.4843  0.4657
  972MOL0     H31174  10.207   3.322  11.172 -0.2565  1.5721  0.5067
  972MOL0     H31175  10.062   3.231  11.213 -1.7660 -1.7133  4.4065
  972MOL0     H31176  10.132   3.199  11.441 -1.3823 -2.3770 -2.5340
  972MOL0     H31177  10.276   3.309  11.417 -0.9190  0.3052  1.1027
  972MOL0     H31178  10.229   3.058  11.260  1.0256 -1.8971  1.6355
  972MOL0     H31179  10.316   3.070  11.422 -6.0755  0.5145  3.2531
  972MOL0     H31180  10.353   2.896  11.250  0.4484 -0.5124  1.4611
  972MOL0     H31181  10.405   2.656  11.284  1.6633 -2.0326  3.0851
  972MOL0     H31182  10.492   2.623  11.124 -2.0623  0.3891 -0.2568
  972MOL0     H31183  10.557   2.595  11.280 -0.0876  0.0860 -0.5778
  972MOL0     H31184  11.150   2.866  11.204 -1.1738  0.2753 -0.2075
  972MOL0     H31185  11.367   2.757  11.157  0.4482 -0.3025 -0.7568
  972MOL0     H31186  11.564   2.422  11.141  0.7693 -0.3778  1.7821
  972MOL0     H31187  11.499   2.546  11.245 -0.3825  0.9344 -1.3504
  972MOL0     H31188  11.349   2.388  11.353  0.4025 -0.4649  0.8667
  972MOL0     H31189  11.376   2.277  11.205  0.7596  1.0872 -1.0044
  972MOL0     H31190  11.553   2.330  11.453 -0.3207 -2.9541  2.3413
  972MOL0     H31191  11.604   2.229  11.316  0.7213 -3.9355  3.0565
  972MOL0     H31192  11.371   2.174  11.505  0.4649 -2.0159  1.2572
  972MOL0     H31193  11.390   2.100  11.347  0.6653 -1.4014 -0.4748
  972MOL0     H31194  11.465   1.956  11.501 -3.3730  2.1525 -1.4571
  972MOL0     H31195  11.555   2.067  11.599  1.1330 -1.7447 -0.8031
  972MOL0     H31196  11.611   1.982  11.312  0.0512  1.5867 -0.5529
  972MOL0     H31197  11.725   2.075  11.420  0.6425 -0.5173 -3.3881
  972MOL0     H31198  11.671   1.779  11.438  1.8495 -0.3655 -0.4656
  972MOL0     H31199  11.739   1.870  11.568  2.2732  2.2925 -0.1537
  972MOL0     H31200  11.880   1.752  11.390  1.7487  0.7185 -0.6727
  972MOL0     H31201  11.950   1.890  11.469  4.2331 -2.6380 -2.7497
  972MOL0     H31202  11.163   2.400  11.076 -2.2858  1.3080  0.2416
  972MOL0     H31203  10.936   2.504  11.135 -0.8689 -0.2141  1.4474
  972MOL0     H31204  10.829   3.005  11.197  0.2185 -0.3800  2.8071
  972MOL0     H31205  10.652   3.179  11.222  0.7316 -0.1605 -1.3630
  972MOL0     H31206   9.455   3.455  10.034 -1.2325 -1.1450  0.5993
  972MOL0     H31207   9.206   3.456  10.006  0.0874 -0.9846 -2.0121
  972MOL0     H31208   8.787   3.534   9.625 -1.3556 -3.1061 -1.0074
  972MOL0     H31209   8.551   3.571   9.640  0.3473  0.2962 -1.5036
  972MOL0     H31210   8.366   3.649   9.627  1.9100 -0.4885  1.4680
  972MOL0     H31211   8.284   3.555   9.757 -1.8866  0.1346 -2.2974
  972MOL0     H31212   8.141   3.757   9.626 -1.0042  1.4610  0.3889
  972MOL0     H31213   8.248   3.852   9.737  0.2445 -0.1157  0.3262
  972MOL0     H31214   8.155   3.717   9.919  2.6271  4.2370 -2.6411
  972MOL0     H31215   8.056   3.615   9.824 -1.0764  0.3325  3.3812
  972MOL0     H31216   8.026   3.918   9.829 -1.2960  0.3652 -4.0657
  972MOL0     H31217   7.925   3.802   9.922 -3.4141 -2.2542 -1.3251
  972MOL0     H31218   7.755   3.734   9.555  1.6380 -0.0809 -1.0084
  972MOL0     H31219   8.589   3.794   9.999 -2.4380  0.2293 -1.6018
  972MOL0     H31220   8.808   3.728  10.032  0.8889  1.8013 -0.2934
  973MOL0     O31221   1.049   0.109   3.610  0.1037  0.0136 -0.8460
  973MOL0     C31222   1.164   0.105   3.652  0.2407  0.5468 -0.7984
  973MOL0     O31223   1.229  -0.002   3.714  0.3981  0.7259 -0.2150
  973MOL0     C31224   1.174  -0.125   3.715  0.4027  1.4609 -0.0549
  973MOL0     C31225   1.151  -0.188   3.594 -0.0632 -0.0042  0.5482
  973MOL0     C31226   1.106  -0.319   3.598 -1.1709 -0.3775 -0.6377
  973MOL0     C31227   1.099  -0.404   3.709 -0.3490 -0.6566 -0.2285
  973MOL0     O31228   1.050  -0.525   3.726 -0.4131 -0.2644 -0.4729
  973MOL0     C31229   0.995  -0.586   3.616 -1.3680  0.8860  0.2365
  973MOL0     C31230   0.920  -0.716   3.662 -0.4457  0.7979  0.3615
  973MOL0     C31231   0.897  -0.807   3.540 -0.6329  0.1927 -0.0913
  973MOL0     C31232   0.829  -0.733   3.418  0.0778  0.2066  0.6349
  973MOL0     C31233   0.818  -0.830   3.304  0.6649 -0.0123  0.9444
  973MOL0     C31234   0.718  -0.945   3.328 -0.2028 -0.7725  0.3848
  973MOL0     C31235   0.704  -1.024   3.199 -0.1414  0.5872  0.8322
  973MOL0     C31236   0.596  -0.978   3.103  0.5478 -0.0888  0.0832
  973MOL0     N31237   0.546  -1.086   3.013 -0.9203 -0.4897 -0.1098
  973MOL0     C31238   0.487  -1.192   3.052 -1.0026 -0.0440 -0.4947
  973MOL0     C31239   0.474  -1.261   2.940  0.0210  0.2519 -0.2546
  973MOL0     C31240   0.426  -1.400   2.912  0.5445  0.1947 -0.5213
  973MOL0     C31241   0.269  -1.425   2.883  0.8424 -0.8946  0.0234
  973MOL0     C31242   0.247  -1.577   2.847  0.6515 -0.2973  0.4280
  973MOL0     C31243   0.326  -1.631   2.730  0.5372  0.1610 -0.6253
  973MOL0     O31244   0.361  -1.543   2.622  0.7052  0.5528 -0.1933
  973MOL0     C31245   0.258  -1.471   2.557 -0.7294 -0.2202 -0.1026
  973MOL0     C31246   0.152  -1.535   2.490  0.5336 -0.4578  0.6682
  973MOL0     C31247   0.077  -1.473   2.389  0.8978  0.5616  1.5553
  973MOL0     C31248  -0.009  -1.570   2.304  0.0069  1.1391  0.8016
  973MOL0     C31249   0.093  -1.328   2.374  0.1388  0.9033  0.2622
  973MOL0     C31250  -0.001  -1.246   2.297 -0.6238  0.6735 -0.3646
  973MOL0     O31251  -0.011  -1.114   2.325 -0.6323  0.9244 -0.0169
  973MOL0     C31252  -0.044  -1.024   2.228  0.0901  0.3078  0.5012
  973MOL0     C31253   0.025  -1.021   2.110  0.0797 -0.7273 -0.9275
  973MOL0     C31254   0.001  -0.936   2.003  0.1999 -0.0826 -0.8097
  973MOL0     C31255  -0.096  -0.833   2.031 -0.7038 -0.8304  0.0150
  973MOL0     O31256  -0.119  -0.743   1.928  0.0372 -0.2152 -0.1751
  973MOL0     C31257  -0.142  -0.608   1.962 -0.8929  0.5216 -0.5898
  973MOL0     C31258  -0.243  -0.547   1.881 -0.9604  0.6521  0.8116
  973MOL0     C31259  -0.213  -0.565   1.723  0.4194  0.3719  0.3111
  973MOL0     C31260  -0.339  -0.505   1.659  0.6675 -1.4147  0.3002
  973MOL0     C31261  -0.471  -0.582   1.685 -0.3033  0.5440 -0.3751
  973MOL0     C31262  -0.585  -0.560   1.585  0.2564  0.0959  0.9066
  973MOL0     C31263  -0.711  -0.628   1.625 -0.4651 -0.9692 -1.1563
  973MOL0     C31264  -0.819  -0.609   1.527 -0.2721 -0.1438  0.8186
  973MOL0    Cl31265  -0.963  -0.686   1.575 -0.7034 -0.4490  0.2056
  973MOL0     C31266  -0.180  -0.836   2.148 -0.9369 -0.3287 -0.4959
  973MOL0     C31267  -0.147  -0.930   2.240  0.7843 -1.3337  0.3850
  973MOL0     O31268  -0.061  -1.300   2.206 -0.6061  0.0177 -0.0933
  973MOL0     C31269   0.195  -1.269   2.457  0.6937 -0.1880 -1.0034
  973MOL0     C31270   0.284  -1.338   2.532  0.5991  0.2915  0.1696
  973MOL0     N31271   0.507  -1.183   2.830  0.0906 -0.2905  0.3715
  973MOL0     N31272   0.560  -1.081   2.880  0.1680 -0.0300 -0.3000
  973MOL0     C31273   1.128  -0.345   3.827 -0.7395 -0.2117  0.7135
  973MOL0     C31274   1.159  -0.207   3.833 -0.1392  0.7895 -0.6845
  973MOL0     C31275   1.252   0.227   3.640 -0.2581  0.4785 -0.4995
  973MOL0     C31276   1.374   0.225   3.708  0.0976  0.1878  0.3874
  973MOL0     C31277   1.463   0.327   3.681 -0.5168 -0.3964  1.0600
  973MOL0     C31278   1.422   0.449   3.615 -0.8429 -0.0765  0.2763
  973MOL0     O31279   1.508   0.556   3.608 -1.1807  0.3228 -0.3862
  973MOL0     C31280   1.502   0.657   3.503  0.2481  0.9918  0.9327
  973MOL0     C31281   1.638   0.725   3.498  0.0115 -0.6273  0.4175
  973MOL0     C31282   1.756   0.635   3.480  0.5324  0.3117 -0.2228
  973MOL0     C31283   1.768   0.589   3.340  0.0505 -0.2316  0.0637
  973MOL0     C31284   1.857   0.480   3.311 -0.4660  0.4229  0.3366
  973MOL0     C31285   1.928   0.381   3.285  0.8063  0.8615  0.2778
  973MOL0     C31286   1.296   0.451   3.551  0.4668 -0.2433  0.1465
  973MOL0     C31287   1.223   0.329   3.547  0.3894  0.9434 -0.1858
  973MOL0     H31288   1.165  -0.140   3.498  1.0620 -0.8616  0.2615
  973MOL0     H31289   1.083  -0.354   3.498  1.5958 -0.5925 -1.2905
  973MOL0     H31290   0.926  -0.521   3.561 -0.8405  1.0448 -0.2437
  973MOL0     H31291   1.084  -0.607   3.557 -0.6894  1.9076  0.8573
  973MOL0     H31292   0.980  -0.768   3.737 -3.9517 -2.2249  1.3878
  973MOL0     H31293   0.834  -0.686   3.722  0.9275 -0.8450  3.3610
  973MOL0     H31294   0.994  -0.840   3.500 -0.8951  1.0719 -1.5127
  973MOL0     H31295   0.855  -0.903   3.571 -0.3451 -0.0687 -0.5012
  973MOL0     H31296   0.728  -0.698   3.444 -1.2221 -0.6087 -2.7028
  973MOL0     H31297   0.889  -0.649   3.382 -1.2781  2.1885  2.6681
  973MOL0     H31298   0.796  -0.778   3.210  1.1136  0.4438  1.0851
  973MOL0     H31299   0.916  -0.873   3.281  1.3548  0.6806  2.4848
  973MOL0     H31300   0.737  -1.015   3.410  0.3228 -0.0512  0.8950
  973MOL0     H31301   0.623  -0.894   3.348 -1.1524 -1.2969 -2.3872
  973MOL0     H31302   0.798  -1.039   3.145 -2.0743 -0.2971 -2.5201
  973MOL0     H31303   0.695  -1.130   3.226  0.4811 -0.2221 -1.8246
  973MOL0     H31304   0.633  -0.891   3.049 -0.3296  2.1863  2.8474
  973MOL0     H31305   0.510  -0.952   3.166  0.6593  0.2246  0.1080
  973MOL0     H31306   0.469  -1.218   3.156  2.0196  0.6176  0.2826
  973MOL0     H31307   0.486  -1.438   2.828  0.1673 -0.5881 -0.4460
  973MOL0     H31308   0.454  -1.458   3.000  1.3263  1.2260 -0.0686
  973MOL0     H31309   0.239  -1.361   2.800  1.2719  3.3228  2.8412
  973MOL0     H31310   0.201  -1.397   2.963 -0.2983  1.3302 -1.6318
  973MOL0     H31311   0.142  -1.592   2.819  0.8562  1.2502 -1.3943
  973MOL0     H31312   0.256  -1.643   2.934  2.0419 -2.0816 -0.9896
  973MOL0     H31313   0.249  -1.687   2.677 -1.4925  3.7143 -1.8234
  973MOL0     H31314   0.409  -1.685   2.776 -1.3713  0.3321  3.4596
  973MOL0     H31315   0.140  -1.643   2.496 -1.8716 -0.3308 -0.5071
  973MOL0     H31316  -0.117  -1.562   2.319 -0.8470 -1.5890 -2.6249
  973MOL0     H31317   0.008  -1.552   2.197  1.2623  0.6668  0.8966
  973MOL0     H31318   0.005  -1.677   2.326 -2.3884  0.3956 -0.8953
  973MOL0     H31319   0.112  -1.085   2.107  0.8917 -0.0694  2.9700
  973MOL0     H31320   0.065  -0.943   1.916  3.2405  0.4088  1.2160
  973MOL0     H31321  -0.175  -0.609   2.066 -0.1411  3.0127 -0.2752
  973MOL0     H31322  -0.044  -0.560   1.963 -0.5150 -0.2260 -0.2384
  973MOL0     H31323  -0.340  -0.587   1.910 -1.3941  0.4213 -0.8380
  973MOL0     H31324  -0.241  -0.441   1.907 -0.3406  1.1982 -1.2491
  973MOL0     H31325  -0.202  -0.670   1.694  3.4935  0.4214  0.8976
  973MOL0     H31326  -0.122  -0.513   1.691 -1.2642  2.5311 -1.1892
  973MOL0     H31327  -0.341  -0.399   1.685  1.1609 -0.6468 -2.4429
  973MOL0     H31328  -0.317  -0.507   1.552 -0.6567  0.7504 -0.0737
  973MOL0     H31329  -0.502  -0.571   1.789  0.0623  1.2369 -0.3367
  973MOL0     H31330  -0.442  -0.688   1.690 -1.6472  0.2150  2.4063
  973MOL0     H31331  -0.598  -0.453   1.569  2.0870  0.1898 -0.2261
  973MOL0     H31332  -0.562  -0.601   1.486 -0.4361 -0.0182  0.7844
  973MOL0     H31333  -0.734  -0.587   1.724 -0.3511 -0.5555 -1.3020
  973MOL0     H31334  -0.699  -0.736   1.640  0.7103 -0.4160  4.3572
  973MOL0     H31335  -0.782  -0.641   1.429  0.0739  0.2025  0.8303
  973MOL0     H31336  -0.837  -0.502   1.509 -0.0020 -0.0680  0.9931
  973MOL0     H31337  -0.271  -0.776   2.150 -0.9807 -0.3929 -0.5943
  973MOL0     H31338  -0.202  -0.914   2.331 -0.6730 -0.7906 -0.5534
  973MOL0     H31339   0.222  -1.164   2.458 -0.8017  0.2219 -1.3809
  973MOL0     H31340   0.371  -1.286   2.569 -0.3465  1.6999  0.5049
  973MOL0     H31341   1.118  -0.403   3.919  0.5097 -1.9632 -0.1893
  973MOL0     H31342   1.176  -0.158   3.928 -1.2621  2.4720 -1.2886
  973MOL0     H31343   1.415   0.141   3.764  1.8136  1.1535  0.6372
  973MOL0     H31344   1.559   0.327   3.733 -0.1964 -2.4003  0.5571
  973MOL0     H31345   1.491   0.609   3.405 -0.4510  1.6033  0.7105
  973MOL0     H31346   1.417   0.723   3.516 -0.0717  0.5706  0.9937
  973MOL0     H31347   1.657   0.780   3.590  0.0554  0.5034 -0.2606
  973MOL0     H31348   1.630   0.799   3.417 -1.8719 -0.3755  0.7770
  973MOL0     H31349   1.754   0.549   3.548 -0.8357 -0.3585 -1.0833
  973MOL0     H31350   1.844   0.690   3.513 -0.5554  0.7613  2.0900
  973MOL0     H31351   1.801   0.673   3.279 -0.5019 -0.6800 -0.8746
  973MOL0     H31352   1.673   0.565   3.291  1.7118 -2.1629 -2.4644
  973MOL0     H31353   1.989   0.294   3.269  0.7442  1.2297 -2.3128
  973MOL0     H31354   1.263   0.537   3.494 -1.1811 -1.5167 -0.9371
  973MOL0     H31355   1.126   0.333   3.498 -1.0146  0.6802  2.4141
  974MOL0     O31356   2.082   6.780   6.794  0.5832 -0.4129 -0.3202
  974MOL0     C31357   2.179   6.718   6.741  1.3788 -0.6071  0.1453
  974MOL0     O31358   2.266   6.781   6.657  0.9249 -0.0990 -0.6985
  974MOL0     C31359   2.258   6.917   6.631  0.5061  0.5613 -0.3063
  974MOL0     C31360   2.337   7.006   6.704  0.2821  0.8372  0.0193
  974MOL0     C31361   2.343   7.135   6.672  0.1380  0.8578 -0.0435
  974MOL0     C31362   2.260   7.183   6.569 -0.3500  0.6554 -0.4007
  974MOL0     O31363   2.259   7.314   6.563 -0.1190  0.1033  0.5777
  974MOL0     C31364   2.140   7.374   6.510 -0.8523 -0.4822 -0.5491
  974MOL0     C31365   2.158   7.525   6.506 -0.0148 -0.2364 -0.2010
  974MOL0     C31366   2.291   7.562   6.433  0.3922 -0.5243  0.3923
  974MOL0     C31367   2.292   7.713   6.418 -0.0406 -1.3120 -0.4211
  974MOL0     C31368   2.373   7.760   6.296 -0.5485  0.0411  0.1233
  974MOL0     C31369   2.379   7.911   6.301  0.5455  0.4300 -0.1110
  974MOL0     C31370   2.458   7.961   6.427  0.4408  0.3589  0.3400
  974MOL0     C31371   2.615   7.931   6.423  0.5371  0.3305 -0.4613
  974MOL0     N31372   2.677   7.966   6.295  0.0515 -0.1932  0.4423
  974MOL0     C31373   2.672   8.093   6.240  0.0844 -0.2312  0.1663
  974MOL0     C31374   2.762   8.082   6.141  0.0547 -0.0251  0.0325
  974MOL0     C31375   2.802   8.212   6.075  0.3360  0.5887 -0.8839
  974MOL0     C31376   2.849   8.324   6.168 -0.1813  0.7213  0.3345
  974MOL0     C31377   2.881   8.452   6.110  0.0442 -0.6047 -0.2316
  974MOL0     C31378   2.976   8.444   5.997  0.0422 -0.0795  0.4063
  974MOL0     O31379   2.906   8.444   5.866  0.2682 -0.2092  0.1278
  974MOL0     C31380   2.900   8.558   5.790 -0.3360  0.5961  0.4881
  974MOL0     C31381   2.856   8.554   5.651 -0.5595 -0.3483  0.1419
  974MOL0     C31382   2.860   8.663   5.564 -0.6855 -0.3283  0.0806
  974MOL0     C31383   2.828   8.643   5.419  0.6442  0.5610  0.6590
  974MOL0     C31384   2.888   8.794   5.615 -0.1500 -0.1772  0.2301
  974MOL0     C31385   2.890   8.915   5.533  0.7200  0.1802 -0.3353
  974MOL0     O31386   2.968   9.013   5.572 -0.4468  0.5510  0.0633
  974MOL0     C31387   2.961   9.135   5.519 -0.4412 -0.5070  0.2950
  974MOL0     C31388   2.961   9.173   5.387 -0.4538  0.9138  0.6441
  974MOL0     C31389   2.954   9.303   5.338  0.3749 -0.2597  0.0548
  974MOL0     C31390   2.944   9.408   5.432  0.7469  0.0221 -0.2564
  974MOL0     O31391   2.924   9.542   5.404  0.0344  0.2342 -0.0578
  974MOL0     C31392   2.886   9.585   5.277  0.5787  0.5504 -0.0031
  974MOL0     C31393   2.727   9.552   5.270  0.1424 -0.0417  0.9092
  974MOL0     C31394   2.657   9.602   5.135  0.9003 -0.4072 -0.2010
  974MOL0     C31395   2.736   9.557   5.017  1.0246 -0.5108  0.0114
  974MOL0     C31396   2.648   9.561   4.888 -0.7217 -0.6802  0.2113
  974MOL0     C31397   2.721   9.502   4.777  0.0966  0.1321 -0.3618
  974MOL0     C31398   2.627   9.498   4.652  0.3691  0.4210 -0.1220
  974MOL0     C31399   2.710   9.425   4.550  0.0746  0.0962  0.5230
  974MOL0    Cl31400   2.606   9.414   4.394 -0.0517 -0.2476 -0.4028
  974MOL0     C31401   2.953   9.376   5.566 -0.5030  0.8854 -0.4468
  974MOL0     C31402   2.960   9.244   5.611  0.0226  0.0502  0.0740
  974MOL0     O31403   2.820   8.916   5.430  0.0519  0.4979  0.8865
  974MOL0     C31404   2.929   8.796   5.751  0.4364  0.5015  0.1638
  974MOL0     C31405   2.929   8.687   5.841  0.8929  0.1233 -0.4987
  974MOL0     N31406   2.818   7.958   6.140  0.6959  0.2477 -0.0754
  974MOL0     N31407   2.761   7.887   6.232 -0.1591  0.1555  0.4995
  974MOL0     C31408   2.200   7.091   6.474  0.6405 -1.3008  0.0354
  974MOL0     C31409   2.198   6.960   6.510  0.3343  0.7416 -0.0394
  974MOL0     C31410   2.196   6.572   6.768 -0.2737  0.0093  0.2678
  974MOL0     C31411   2.315   6.507   6.726 -0.8917  0.0425  1.1257
  974MOL0     C31412   2.339   6.367   6.755 -0.2462  0.6195  0.1986
  974MOL0     C31413   2.244   6.291   6.826 -0.5344  0.0204  0.8978
  974MOL0     O31414   2.266   6.150   6.857 -0.4049 -0.2193 -0.0787
  974MOL0     C31415   2.312   6.073   6.747 -0.8457 -0.7040 -0.6117
  974MOL0     C31416   2.252   5.936   6.774  0.1659  0.6636  0.2313
  974MOL0     C31417   2.098   5.944   6.760  0.5564 -0.1747  0.1074
  974MOL0     C31418   2.051   5.814   6.688  0.6193 -0.9847  0.2650
  974MOL0     C31419   1.934   5.850   6.610 -0.6217  0.6345  0.5201
  974MOL0     C31420   1.837   5.878   6.548 -0.0277  0.5651  0.2510
  974MOL0     C31421   2.117   6.346   6.849  0.3808 -0.4754  0.6813
  974MOL0     C31422   2.095   6.495   6.831  0.2089  0.9624 -0.2851
  974MOL0     H31423   2.403   6.965   6.780 -1.9498 -0.3521  1.4157
  974MOL0     H31424   2.390   7.199   6.747  1.5965  1.9076 -1.7607
  974MOL0     H31425   2.106   7.342   6.411 -0.4000  0.1145 -0.9073
  974MOL0     H31426   2.059   7.361   6.582 -1.1255  2.1951 -0.2367
  974MOL0     H31427   2.066   7.551   6.454 -1.1778 -0.9129  1.4527
  974MOL0     H31428   2.153   7.570   6.606  2.1796  1.5775 -0.8210
  974MOL0     H31429   2.387   7.528   6.472  1.8741  0.0990 -2.4507
  974MOL0     H31430   2.271   7.516   6.335 -0.3889  2.0835 -0.7751
  974MOL0     H31431   2.189   7.743   6.395  0.0838 -1.7367 -1.6114
  974MOL0     H31432   2.321   7.748   6.518  3.6230  0.1436 -1.8279
  974MOL0     H31433   2.472   7.719   6.315  0.6523 -0.8235 -5.9267
  974MOL0     H31434   2.343   7.725   6.196 -2.7241 -0.7234  0.9813
  974MOL0     H31435   2.416   7.967   6.215  0.4697  0.6067 -0.0303
  974MOL0     H31436   2.276   7.949   6.300  0.6729  1.0236 -4.2503
  974MOL0     H31437   2.446   8.070   6.437  0.8961  0.8268 -2.9857
  974MOL0     H31438   2.420   7.919   6.521 -0.5571 -1.6168 -0.9012
  974MOL0     H31439   2.629   7.827   6.453 -1.2296 -0.2152 -1.3689
  974MOL0     H31440   2.665   7.984   6.505  0.5319 -1.4855  0.7816
  974MOL0     H31441   2.616   8.182   6.267 -1.6846 -0.9181 -1.0765
  974MOL0     H31442   2.879   8.186   6.001  1.2077 -1.3496  0.6066
  974MOL0     H31443   2.711   8.245   6.025  1.3209  0.3027 -2.9994
  974MOL0     H31444   2.931   8.275   6.222 -0.6271 -0.9283 -0.4147
  974MOL0     H31445   2.774   8.344   6.245  0.7697  0.0136  1.4937
  974MOL0     H31446   2.908   8.526   6.187 -0.7764  1.4571 -1.8226
  974MOL0     H31447   2.786   8.489   6.070 -0.1076 -0.1199  0.5479
  974MOL0     H31448   3.035   8.352   6.000  2.4113  1.3367 -0.2443
  974MOL0     H31449   3.044   8.529   5.991 -0.6825  0.4303 -4.3575
  974MOL0     H31450   2.809   8.465   5.612 -2.4858  0.6660  0.0591
  974MOL0     H31451   2.903   8.674   5.347 -1.2715  1.7710 -0.9302
  974MOL0     H31452   2.790   8.541   5.402  0.8263  0.9718 -2.9980
  974MOL0     H31453   2.737   8.697   5.390 -0.3125 -1.9933 -1.6059
  974MOL0     H31454   2.970   9.091   5.317  0.7132 -0.4930  2.3424
  974MOL0     H31455   2.940   9.307   5.231 -1.0464  0.5519  0.2446
  974MOL0     H31456   2.891   9.694   5.268 -0.5706  0.6178 -0.0290
  974MOL0     H31457   2.941   9.536   5.196 -0.2460  1.7909 -1.3703
  974MOL0     H31458   2.716   9.444   5.280  0.1666  0.0648  2.3731
  974MOL0     H31459   2.683   9.596   5.360 -0.3026  2.9608 -0.6536
  974MOL0     H31460   2.645   9.710   5.126  0.7046 -0.3831  0.3652
  974MOL0     H31461   2.558   9.561   5.116  0.6876  0.8078 -2.0374
  974MOL0     H31462   2.832   9.608   5.009  2.2160 -2.3355  1.7503
  974MOL0     H31463   2.747   9.448   5.022 -1.8353 -0.8703  0.4990
  974MOL0     H31464   2.621   9.663   4.859 -0.3772  0.0223  2.2250
  974MOL0     H31465   2.561   9.497   4.909  0.0876 -2.5739 -1.8376
  974MOL0     H31466   2.812   9.559   4.759  0.9112 -1.5848 -1.9829
  974MOL0     H31467   2.762   9.405   4.807  3.7534  1.2960 -1.0642
  974MOL0     H31468   2.595   9.601   4.634  4.3713  1.7355 -0.7198
  974MOL0     H31469   2.540   9.439   4.683  0.1363  2.0658  2.6723
  974MOL0     H31470   2.730   9.325   4.589 -2.6924 -0.4314  0.7989
  974MOL0     H31471   2.795   9.490   4.528 -0.4827  0.4486 -0.6715
  974MOL0     H31472   2.951   9.457   5.639 -1.0562  1.5472 -1.1852
  974MOL0     H31473   2.962   9.219   5.717  0.4649 -3.5063 -0.6259
  974MOL0     H31474   2.967   8.895   5.775 -0.3442  0.6633  0.7631
  974MOL0     H31475   2.963   8.702   5.943 -2.3869  2.7661  0.4224
  974MOL0     H31476   2.161   7.123   6.378 -1.7868  1.8846  1.8699
  974MOL0     H31477   2.161   6.883   6.443  2.1174  0.6597 -1.0023
  974MOL0     H31478   2.403   6.558   6.686  0.6177 -4.0774 -1.5332
  974MOL0     H31479   2.426   6.318   6.713  0.3923  1.1556  0.8563
  974MOL0     H31480   2.277   6.114   6.653 -1.1754  3.3064  1.0668
  974MOL0     H31481   2.420   6.058   6.755 -1.0558 -2.0174  0.1720
  974MOL0     H31482   2.275   5.899   6.875  1.7360  1.2780  0.1366
  974MOL0     H31483   2.294   5.869   6.698 -1.3282 -0.8230  0.6685
  974MOL0     H31484   2.074   6.035   6.705  1.0104  0.2452  0.5908
  974MOL0     H31485   2.035   5.954   6.849  0.5419 -3.5954  0.5986
  974MOL0     H31486   2.045   5.730   6.757 -0.3764 -0.7937  0.4223
  974MOL0     H31487   2.131   5.788   6.618  1.6137  0.0501  0.9730
  974MOL0     H31488   1.748   5.890   6.489 -1.2490  0.7436  2.0733
  974MOL0     H31489   2.049   6.282   6.904 -1.2657  2.1974  1.9810
  974MOL0     H31490   1.997   6.532   6.858  1.1002  4.2730 -1.1594
  975MOL0     O31491   8.854   2.523   8.464  0.1468  0.0769 -0.2244
  975MOL0     C31492   8.839   2.637   8.507 -0.8899  0.0742  0.1096
  975MOL0     O31493   8.721   2.697   8.533 -0.5334 -0.0153 -0.4565
  975MOL0     C31494   8.612   2.619   8.529 -1.0154  0.5790  0.3986
  975MOL0     C31495   8.533   2.609   8.417 -0.3060 -0.4452 -0.9333
  975MOL0     C31496   8.410   2.542   8.426 -0.8379 -0.3529  0.2173
  975MOL0     C31497   8.374   2.476   8.539  0.8416  0.6279 -1.2995
  975MOL0     O31498   8.254   2.408   8.545  0.5978 -0.5841 -0.0359
  975MOL0     C31499   8.179   2.394   8.668 -0.2975  0.5978 -0.0173
  975MOL0     C31500   8.024   2.348   8.651 -1.1343  1.1110  1.3923
  975MOL0     C31501   7.926   2.467   8.643 -0.6645  0.6454  0.2897
  975MOL0     C31502   7.779   2.426   8.655 -0.0834  0.7389 -1.6073
  975MOL0     C31503   7.689   2.543   8.653 -0.7771  0.0900 -0.4406
  975MOL0     C31504   7.546   2.505   8.687 -0.3718 -0.8701  0.1246
  975MOL0     C31505   7.453   2.627   8.676  0.1087  0.3112 -1.1667
  975MOL0     C31506   7.499   2.733   8.779  0.0432  0.2696  0.9419
  975MOL0     N31507   7.395   2.838   8.803  0.0026  0.0469 -0.1092
  975MOL0     C31508   7.397   2.961   8.744 -0.3576 -0.6090 -0.1581
  975MOL0     C31509   7.292   3.021   8.793  0.2344  0.0430 -0.3489
  975MOL0     C31510   7.252   3.161   8.759 -0.7138 -0.3028  0.3258
  975MOL0     C31511   7.364   3.266   8.791  0.6462 -0.5380 -0.0135
  975MOL0     C31512   7.449   3.305   8.666  0.0598  0.1228 -0.0229
  975MOL0     C31513   7.580   3.382   8.704 -0.0469  0.8667  0.4879
  975MOL0     O31514   7.654   3.291   8.782  0.1931  0.0422 -0.4018
  975MOL0     C31515   7.782   3.333   8.805  0.4373  0.8789 -0.5595
  975MOL0     C31516   7.861   3.227   8.857 -0.7746  0.1173  1.2193
  975MOL0     C31517   7.997   3.255   8.892  0.5925 -0.1453 -0.5722
  975MOL0     C31518   8.069   3.131   8.943  0.7139  0.1795  0.1431
  975MOL0     C31519   8.050   3.385   8.877  0.2454 -0.0131 -0.7311
  975MOL0     C31520   8.187   3.423   8.895 -0.7749 -0.3103 -0.0501
  975MOL0     O31521   8.285   3.332   8.914 -0.3094  0.1754  0.2883
  975MOL0     C31522   8.405   3.380   8.965 -0.1569 -0.1138  0.4497
  975MOL0     C31523   8.417   3.398   9.097  0.5399 -0.0445 -0.5968
  975MOL0     C31524   8.537   3.427   9.164 -0.0308  0.2339  0.1463
  975MOL0     C31525   8.657   3.444   9.088  0.1927 -0.4064  0.4772
  975MOL0     O31526   8.780   3.478   9.142 -0.3977 -0.0449 -0.2401
  975MOL0     C31527   8.771   3.567   9.261 -0.3966 -0.0881  0.3920
  975MOL0     C31528   8.873   3.677   9.276  0.8345  0.4260 -0.1693
  975MOL0     C31529   8.834   3.801   9.186 -1.6168 -0.1418 -0.4495
  975MOL0     C31530   8.903   3.927   9.238 -0.8538  0.0044 -1.3816
  975MOL0     C31531   8.849   4.054   9.170 -0.5957  0.3339 -0.0055
  975MOL0     C31532   8.918   4.170   9.240 -0.8285 -0.8518 -0.1249
  975MOL0     C31533   8.933   4.288   9.133  0.5838  0.2446  0.8790
  975MOL0     C31534   8.956   4.417   9.208 -0.1007  0.5207 -0.1413
  975MOL0    Cl31535   9.039   4.531   9.110 -0.5857  0.1267 -0.1522
  975MOL0     C31536   8.644   3.424   8.950 -1.2289  0.7263 -0.6644
  975MOL0     C31537   8.520   3.389   8.887  0.4143 -0.3906 -0.1945
  975MOL0     O31538   8.206   3.547   8.890 -0.4418  0.3666 -0.2826
  975MOL0     C31539   7.958   3.494   8.843 -0.8936  0.2243 -0.5011
  975MOL0     C31540   7.830   3.465   8.809  0.0892 -0.1931 -0.0984
  975MOL0     N31541   7.225   2.945   8.885 -0.0933  0.2122 -0.7607
  975MOL0     N31542   7.294   2.839   8.894 -0.2528  0.2354  0.1760
  975MOL0     C31543   8.455   2.491   8.654  0.4892 -0.2846 -0.1333
  975MOL0     C31544   8.579   2.561   8.650 -0.2463  0.4447 -0.1011
  975MOL0     C31545   8.968   2.720   8.498  0.5367 -0.7495 -0.2208
  975MOL0     C31546   8.977   2.821   8.590 -0.2076 -1.2168  0.6976
  975MOL0     C31547   9.094   2.893   8.609 -0.8241  0.6863  0.2570
  975MOL0     C31548   9.196   2.887   8.512  0.1098 -0.2929 -0.0415
  975MOL0     O31549   9.292   2.980   8.497 -0.5178 -0.4281  0.2126
  975MOL0     C31550   9.369   3.038   8.598 -0.4667  1.1946 -0.5605
  975MOL0     C31551   9.514   3.019   8.571 -0.8601  0.4394  0.1331
  975MOL0     C31552   9.606   3.108   8.671  0.4811  0.3867  0.3847
  975MOL0     C31553   9.755   3.065   8.666  0.4864 -0.1127  0.4562
  975MOL0     C31554   9.791   2.933   8.721 -0.4390  0.3659  0.7068
  975MOL0     C31555   9.826   2.819   8.760 -0.9650  0.1592 -0.0346
  975MOL0     C31556   9.188   2.790   8.409 -0.3497 -0.4718 -0.1558
  975MOL0     C31557   9.076   2.707   8.412  0.1900  0.1810  1.1269
  975MOL0     H31558   8.550   2.661   8.324 -1.6518 -0.9517 -1.4857
  975MOL0     H31559   8.343   2.563   8.344 -0.8321 -0.6961  0.1223
  975MOL0     H31560   8.226   2.307   8.715 -0.0605  0.8965  0.2965
  975MOL0     H31561   8.172   2.475   8.741 -1.8004 -0.4097  1.0125
  975MOL0     H31562   8.008   2.280   8.567 -0.4329  0.0743  2.0797
  975MOL0     H31563   7.993   2.283   8.733  1.4633  0.8670  2.2712
  975MOL0     H31564   7.944   2.544   8.719  1.2617  1.5826 -1.0259
  975MOL0     H31565   7.942   2.528   8.553  0.4686  0.4827  0.3724
  975MOL0     H31566   7.743   2.353   8.582  0.8182 -0.2805 -1.0607
  975MOL0     H31567   7.769   2.366   8.745 -1.2858 -3.8359 -4.4328
  975MOL0     H31568   7.720   2.612   8.732  0.3347 -1.0712  0.1935
  975MOL0     H31569   7.717   2.603   8.566  1.2255  1.1976  0.8814
  975MOL0     H31570   7.510   2.425   8.622 -2.1698  1.1156 -1.4934
  975MOL0     H31571   7.545   2.474   8.792 -1.4418  0.2774  0.4806
  975MOL0     H31572   7.455   2.672   8.576  1.5855  1.5773 -0.6059
  975MOL0     H31573   7.353   2.584   8.687 -0.7543  1.5872 -3.3047
  975MOL0     H31574   7.589   2.783   8.743  0.5929 -1.7395 -0.6525
  975MOL0     H31575   7.517   2.668   8.866  3.5395  0.9196  0.8587
  975MOL0     H31576   7.463   3.000   8.667 -1.1550  2.1809  0.4649
  975MOL0     H31577   7.227   3.171   8.653 -2.4925  1.3807  0.8527
  975MOL0     H31578   7.171   3.193   8.825  1.1764 -0.7215  3.0266
  975MOL0     H31579   7.422   3.235   8.878 -0.8739 -1.0897  0.8238
  975MOL0     H31580   7.312   3.354   8.828 -1.6420 -2.1870  0.9027
  975MOL0     H31581   7.402   3.367   8.589 -0.8686 -0.7296 -0.1556
  975MOL0     H31582   7.480   3.216   8.611  2.4605  0.0349  1.3412
  975MOL0     H31583   7.559   3.473   8.761  1.3491  2.5230 -1.5044
  975MOL0     H31584   7.630   3.413   8.611 -1.7901  0.4763 -0.6160
  975MOL0     H31585   7.811   3.131   8.856 -0.0272 -0.2864 -0.4853
  975MOL0     H31586   8.126   3.092   8.858  2.3416  2.0712  0.2957
  975MOL0     H31587   8.124   3.156   9.035  2.2497 -1.0780 -0.3955
  975MOL0     H31588   8.001   3.059   8.989  1.6556 -1.0268 -0.3040
  975MOL0     H31589   8.337   3.397   9.169 -0.4369  2.6430 -1.5031
  975MOL0     H31590   8.535   3.440   9.271 -4.4486  1.4947  0.1274
  975MOL0     H31591   8.675   3.620   9.256 -0.2561  0.0117 -1.9961
  975MOL0     H31592   8.772   3.505   9.351 -0.4077 -0.5592  0.0690
  975MOL0     H31593   8.859   3.707   9.380 -3.6921  0.6301 -0.6517
  975MOL0     H31594   8.974   3.634   9.274  0.3176 -0.8486  0.2030
  975MOL0     H31595   8.725   3.809   9.197 -1.8013 -2.7433  0.2588
  975MOL0     H31596   8.857   3.788   9.080  2.4650  1.4893  0.0616
  975MOL0     H31597   8.882   3.923   9.345  2.6010  0.6517 -0.5598
  975MOL0     H31598   9.010   3.909   9.224 -0.8049 -2.9538  1.6386
  975MOL0     H31599   8.741   4.061   9.183 -0.7597 -2.2454  0.4294
  975MOL0     H31600   8.873   4.053   9.063  1.7486 -2.2565  0.4292
  975MOL0     H31601   8.858   4.202   9.326  2.2874  1.2606  1.4509
  975MOL0     H31602   9.017   4.140   9.274  1.2989  2.0390 -3.1018
  975MOL0     H31603   8.841   4.291   9.074  0.2823  0.9287  1.3742
  975MOL0     H31604   9.017   4.260   9.069  1.8084  0.4475  2.3305
  975MOL0     H31605   9.013   4.387   9.296 -0.2644  0.7156  0.0340
  975MOL0     H31606   8.869   4.467   9.250 -0.8754 -0.5460 -0.4274
  975MOL0     H31607   8.736   3.424   8.892 -1.9122 -0.1177 -1.7928
  975MOL0     H31608   8.512   3.373   8.780 -4.6743  1.7557 -0.4184
  975MOL0     H31609   8.002   3.588   8.814  1.2483 -0.5763 -0.0573
  975MOL0     H31610   7.763   3.547   8.788 -0.0929 -0.5019 -0.7506
  975MOL0     H31611   8.422   2.460   8.752  0.8628  0.1534  0.1355
  975MOL0     H31612   8.633   2.544   8.743 -0.5710  0.2107  0.0459
  975MOL0     H31613   8.894   2.836   8.658 -1.2024  2.3087 -1.0941
  975MOL0     H31614   9.102   2.958   8.696  0.6284  0.9170 -0.0126
  975MOL0     H31615   9.350   3.145   8.607  0.2294  1.1989  1.0596
  975MOL0     H31616   9.345   3.003   8.699  2.3338  3.3243  0.9761
  975MOL0     H31617   9.520   3.049   8.466 -1.3349  0.3790  0.0881
  975MOL0     H31618   9.530   2.911   8.582  0.8261  0.6538  0.1112
  975MOL0     H31619   9.579   3.087   8.775  2.1986  2.1184  1.2333
  975MOL0     H31620   9.592   3.215   8.655 -1.7757  0.3896  1.9558
  975MOL0     H31621   9.822   3.130   8.723  0.8944 -2.7556  3.2795
  975MOL0     H31622   9.793   3.062   8.564 -1.2867  0.0185 -0.2481
  975MOL0     H31623   9.861   2.720   8.779 -0.6053  0.1286 -0.8162
  975MOL0     H31624   9.258   2.797   8.326 -0.1021 -0.7966  0.0203
  975MOL0     H31625   9.072   2.635   8.330 -1.0964 -0.9569  2.1410
  976MOL0     O31626   8.315   0.031   9.221 -0.3539  0.0906  0.1275
  976MOL0     C31627   8.376  -0.069   9.247 -1.6557 -0.3307 -0.6539
  976MOL0     O31628   8.324  -0.197   9.248 -0.6611  0.0201 -0.2341
  976MOL0     C31629   8.194  -0.228   9.214 -0.4928  0.0667  0.6084
  976MOL0     C31630   8.086  -0.156   9.159  0.2730 -0.4436 -0.5464
  976MOL0     C31631   7.960  -0.210   9.132 -0.1400  0.0137 -0.2292
  976MOL0     C31632   7.936  -0.341   9.163  0.6386  0.0413 -0.0099
  976MOL0     O31633   7.805  -0.385   9.165 -0.1708 -0.1215  0.3331
  976MOL0     C31634   7.774  -0.515   9.117 -0.5857 -0.1373  1.2609
  976MOL0     C31635   7.635  -0.531   9.099  0.6086 -0.2721 -0.8623
  976MOL0     C31636   7.564  -0.565   9.231 -0.2716 -0.0048  0.0234
  976MOL0     C31637   7.413  -0.557   9.221  0.2334  0.2764 -0.0554
  976MOL0     C31638   7.351  -0.613   9.359  0.3336 -0.3266 -0.2053
  976MOL0     C31639   7.196  -0.604   9.379  0.2593  0.5122 -0.1660
  976MOL0     C31640   7.130  -0.684   9.266 -0.3696 -0.5592 -0.0086
  976MOL0     C31641   6.992  -0.734   9.307 -0.1463  0.5256  0.4256
  976MOL0     N31642   6.908  -0.744   9.197 -0.5257  0.2542  0.1096
  976MOL0     C31643   6.830  -0.645   9.142 -0.3377 -0.3955 -0.3236
  976MOL0     C31644   6.799  -0.685   9.021 -0.3265  0.4876 -0.5328
  976MOL0     C31645   6.715  -0.600   8.938 -0.0302 -0.8806  0.1442
  976MOL0     C31646   6.817  -0.540   8.836 -0.6550 -0.0666  0.2339
  976MOL0     C31647   6.765  -0.485   8.704 -0.0384 -0.0592 -0.5260
  976MOL0     C31648   6.666  -0.570   8.632  0.3989 -0.3618 -0.0771
  976MOL0     O31649   6.710  -0.707   8.633  0.1396  0.4732  0.3619
  976MOL0     C31650   6.756  -0.748   8.508 -0.2733  1.1219  0.3954
  976MOL0     C31651   6.886  -0.732   8.473  0.2917 -0.0398 -0.0735
  976MOL0     C31652   6.935  -0.744   8.339  0.3308 -0.5542 -0.0420
  976MOL0     C31653   7.081  -0.737   8.311  0.1159 -0.1233  0.2737
  976MOL0     C31654   6.833  -0.763   8.237  0.3984  0.6091 -0.5706
  976MOL0     C31655   6.854  -0.757   8.086  0.8589  0.6620  0.1894
  976MOL0     O31656   6.741  -0.771   8.005 -0.6627  0.3660 -0.0260
  976MOL0     C31657   6.755  -0.772   7.872 -0.4634  0.2012 -0.4585
  976MOL0     C31658   6.806  -0.663   7.791 -0.1850  0.4413 -0.4893
  976MOL0     C31659   6.823  -0.672   7.657  0.3987  0.6599 -0.2476
  976MOL0     C31660   6.797  -0.800   7.593  0.4438 -0.2962 -0.3132
  976MOL0     O31661   6.808  -0.819   7.456  0.2870  0.6237 -0.2157
  976MOL0     C31662   6.879  -0.723   7.377  0.5562  0.5795  0.5038
  976MOL0     C31663   6.941  -0.778   7.245  0.4187 -0.1729 -0.2885
  976MOL0     C31664   7.055  -0.682   7.198 -1.0456  0.5917  0.2424
  976MOL0     C31665   6.999  -0.549   7.151  0.3837  0.2532  0.0265
  976MOL0     C31666   7.112  -0.476   7.062 -0.6296  0.5686 -0.4479
  976MOL0     C31667   7.248  -0.436   7.140 -0.1120  0.2076 -0.9423
  976MOL0     C31668   7.335  -0.345   7.036 -0.6940 -0.0470 -0.3074
  976MOL0     C31669   7.487  -0.341   7.082 -0.3818  1.4907  0.2728
  976MOL0    Cl31670   7.519  -0.344   7.249 -0.6460 -0.0042 -0.5711
  976MOL0     C31671   6.757  -0.912   7.669 -0.5303  0.2968  0.0404
  976MOL0     C31672   6.742  -0.904   7.811 -0.2425  0.3074  0.1415
  976MOL0     O31673   6.955  -0.715   8.046 -1.2099  0.0024 -0.1602
  976MOL0     C31674   6.704  -0.802   8.284  0.2419 -0.3689  0.3631
  976MOL0     C31675   6.666  -0.796   8.419 -0.3461  1.1197 -0.8841
  976MOL0     N31676   6.843  -0.819   9.008  0.2031 -0.4817  0.1314
  976MOL0     N31677   6.910  -0.849   9.113  0.5075  0.3270  0.3523
  976MOL0     C31678   8.043  -0.412   9.226 -0.0427  0.7988  0.4046
  976MOL0     C31679   8.170  -0.361   9.247  0.9426  0.0204  0.2728
  976MOL0     C31680   8.525  -0.038   9.247  0.4011 -0.6579  0.3786
  976MOL0     C31681   8.577   0.094   9.236 -0.8049  1.0784 -0.9066
  976MOL0     C31682   8.713   0.118   9.221  0.0666 -0.2819  0.0270
  976MOL0     C31683   8.810   0.010   9.226 -0.1426 -0.4452 -0.9964
  976MOL0     O31684   8.933   0.045   9.185 -0.2836  0.4645  0.1002
  976MOL0     C31685   9.027  -0.067   9.180  0.6544  1.2643  0.5350
  976MOL0     C31686   9.125  -0.046   9.065 -0.0914 -0.1478  0.1041
  976MOL0     C31687   9.241   0.061   9.080  0.1679  0.5429 -0.1742
  976MOL0     C31688   9.256   0.096   9.229  0.6023  0.0518 -0.0544
  976MOL0     C31689   9.381   0.178   9.240  0.7664 -0.2174  0.7275
  976MOL0     C31690   9.480   0.245   9.251  0.1372 -0.3534 -0.0008
  976MOL0     C31691   8.758  -0.114   9.261 -0.4231 -0.1094  0.5743
  976MOL0     C31692   8.620  -0.140   9.268 -0.2040 -0.0059 -0.5797
  976MOL0     H31693   8.111  -0.052   9.144  0.4163 -0.4623 -0.4343
  976MOL0     H31694   7.867  -0.166   9.095 -0.7944 -0.9343  0.2558
  976MOL0     H31695   7.825  -0.519   9.020 -0.0095  1.6095  1.4472
  976MOL0     H31696   7.822  -0.590   9.180  1.6433 -2.5259 -2.8092
  976MOL0     H31697   7.599  -0.450   9.036 -0.7590  1.0558  1.4662
  976MOL0     H31698   7.617  -0.616   9.033  1.4904  0.6752 -2.3703
  976MOL0     H31699   7.590  -0.670   9.248 -4.9778 -2.0698 -3.5272
  976MOL0     H31700   7.600  -0.514   9.321  1.9977 -4.0518  1.6661
  976MOL0     H31701   7.371  -0.456   9.217 -1.4872 -0.4319 -1.3386
  976MOL0     H31702   7.378  -0.627   9.144 -2.8766  2.1913 -0.6014
  976MOL0     H31703   7.385  -0.716   9.369  1.4236  0.0392  0.0615
  976MOL0     H31704   7.405  -0.566   9.443  1.5265 -0.1800 -1.0211
  976MOL0     H31705   7.174  -0.645   9.478 -1.8302 -2.4056 -1.6939
  976MOL0     H31706   7.167  -0.498   9.374  0.3889  0.4991 -1.5254
  976MOL0     H31707   7.126  -0.606   9.188  1.8911 -0.1364  0.2345
  976MOL0     H31708   7.182  -0.776   9.237 -0.7272 -0.2955 -1.6302
  976MOL0     H31709   6.936  -0.672   9.378  1.8056  0.6522  1.9385
  976MOL0     H31710   7.004  -0.836   9.345  0.4604 -1.3863 -4.2661
  976MOL0     H31711   6.804  -0.551   9.190  0.7528 -0.8456  1.2619
  976MOL0     H31712   6.644  -0.665   8.885 -1.3953  3.6483 -4.3227
  976MOL0     H31713   6.651  -0.527   8.989 -3.4800 -2.7516 -1.1675
  976MOL0     H31714   6.885  -0.621   8.809 -0.5131 -0.5464  1.9082
  976MOL0     H31715   6.880  -0.458   8.869 -1.0368  0.9123 -1.3419
  976MOL0     H31716   6.842  -0.458   8.631 -3.9957  3.8435 -3.8011
  976MOL0     H31717   6.739  -0.380   8.718 -0.8665 -0.4233  0.9645
  976MOL0     H31718   6.634  -0.528   8.536  0.6369  3.4310  1.3569
  976MOL0     H31719   6.570  -0.568   8.683 -0.3441  0.0568 -1.4430
  976MOL0     H31720   6.961  -0.700   8.545  1.4424 -2.4153 -0.1241
  976MOL0     H31721   7.111  -0.779   8.215  0.3553  1.8197 -0.5517
  976MOL0     H31722   7.107  -0.631   8.308 -2.1897  0.5721  2.0771
  976MOL0     H31723   7.125  -0.789   8.396 -1.1950 -4.2898 -1.3452
  976MOL0     H31724   6.832  -0.563   7.825  0.8999  0.5246 -1.5125
  976MOL0     H31725   6.861  -0.588   7.601  1.7504 -1.2205 -2.3306
  976MOL0     H31726   6.810  -0.640   7.361  0.5848  0.8452  1.6928
  976MOL0     H31727   6.959  -0.672   7.431  1.0781  1.7088 -1.2448
  976MOL0     H31728   6.977  -0.879   7.266 -1.4025 -1.3046 -2.2331
  976MOL0     H31729   6.861  -0.793   7.172  1.8673 -0.0218 -1.9717
  976MOL0     H31730   7.112  -0.727   7.116 -0.4795  0.8335  0.4997
  976MOL0     H31731   7.129  -0.671   7.277 -1.1104 -3.0698  0.9953
  976MOL0     H31732   6.902  -0.552   7.100  0.9869  1.0359 -1.2025
  976MOL0     H31733   6.978  -0.493   7.243  0.3754  1.6381 -0.7889
  976MOL0     H31734   7.069  -0.381   7.028  4.4421  2.5952 -2.0252
  976MOL0     H31735   7.162  -0.533   6.983  1.1475  0.2167  0.8689
  976MOL0     H31736   7.230  -0.382   7.234 -0.5824 -1.5435  0.0109
  976MOL0     H31737   7.306  -0.525   7.167 -1.2378 -0.5791 -1.0510
  976MOL0     H31738   7.293  -0.244   7.036  2.2428  1.3382 -2.2668
  976MOL0     H31739   7.329  -0.378   6.931 -0.3816  3.4812 -1.5568
  976MOL0     H31740   7.528  -0.253   7.031 -1.5599  1.1144 -1.4135
  976MOL0     H31741   7.540  -0.429   7.045 -1.2432  0.1518  2.0531
  976MOL0     H31742   6.739  -1.003   7.613  1.2476 -1.5630  2.3342
  976MOL0     H31743   6.712  -0.992   7.867 -0.4248 -1.0220 -1.9540
  976MOL0     H31744   6.629  -0.833   8.213  0.2228  1.2128 -0.3491
  976MOL0     H31745   6.566  -0.805   8.460  0.0011  0.1910 -0.2096
  976MOL0     H31746   8.015  -0.509   9.264  0.5835  1.0614  1.5728
  976MOL0     H31747   8.240  -0.434   9.283 -0.3506 -0.3748  2.0991
  976MOL0     H31748   8.507   0.175   9.224 -1.0415  0.9722 -0.2843
  976MOL0     H31749   8.755   0.217   9.206  1.9996 -1.2613 -1.6286
  976MOL0     H31750   9.080  -0.082   9.274  0.4858 -0.4575  0.3854
  976MOL0     H31751   8.983  -0.162   9.148  1.3802  1.3221 -0.6825
  976MOL0     H31752   9.060  -0.024   8.979 -0.0090  2.3295  0.6241
  976MOL0     H31753   9.177  -0.141   9.049  2.4442  1.3971 -1.5304
  976MOL0     H31754   9.222   0.157   9.031  1.5375 -0.1220 -2.1111
  976MOL0     H31755   9.330   0.025   9.028 -1.2412 -1.9809 -1.0659
  976MOL0     H31756   9.260   0.007   9.291  0.4210 -1.9085 -2.6724
  976MOL0     H31757   9.173   0.149   9.277  0.5037  0.2455 -0.4294
  976MOL0     H31758   9.571   0.296   9.277  0.7273 -1.7134  0.7193
  976MOL0     H31759   8.821  -0.201   9.276 -2.5559 -1.8715 -0.1255
  976MOL0     H31760   8.585  -0.241   9.282 -2.4653  1.1540  3.9429
  977MOL0     O31761  10.676   4.560   9.863 -0.4019  0.1168  0.4271
  977MOL0     C31762  10.604   4.624   9.783 -0.0309  1.0738  0.0364
  977MOL0     O31763  10.637   4.652   9.651  0.2401  0.1636  0.1827
  977MOL0     C31764  10.750   4.603   9.594  0.3002 -1.2660  1.5621
  977MOL0     C31765  10.877   4.643   9.638  0.1042  0.5391 -0.3739
  977MOL0     C31766  10.998   4.595   9.570 -0.6676 -0.2913  0.6186
  977MOL0     C31767  10.985   4.528   9.452 -0.2507  0.0994 -0.2230
  977MOL0     O31768  11.101   4.480   9.397 -0.4904  0.3358 -1.0070
  977MOL0     C31769  11.100   4.412   9.270 -0.4955 -0.1384  0.2923
  977MOL0     C31770  11.238   4.400   9.216 -0.3427  0.4628  0.0967
  977MOL0     C31771  11.342   4.329   9.316 -0.3335 -0.5535 -0.1795
  977MOL0     C31772  11.475   4.259   9.262 -0.3811 -0.1805 -0.1371
  977MOL0     C31773  11.565   4.370   9.200 -0.0780 -0.1215  0.0506
  977MOL0     C31774  11.686   4.324   9.108  0.1784  0.3608  0.1034
  977MOL0     C31775  11.773   4.223   9.178  0.0122  0.1171 -0.5574
  977MOL0     C31776  11.915   4.201   9.119  0.0027  0.1636 -0.7081
  977MOL0     N31777  11.988   4.327   9.106 -0.7605 -0.0151 -0.4106
  977MOL0     C31778  12.071   4.357   9.000 -0.3603 -0.1331 -1.1828
  977MOL0     C31779  12.133   4.474   9.027 -0.3936 -0.3119  1.1161
  977MOL0     C31780  12.229   4.537   8.925  0.6205  0.3673 -0.4249
  977MOL0     C31781  12.348   4.619   8.986  0.3651 -0.0719 -0.1384
  977MOL0     C31782  12.406   4.715   8.876  0.9078  0.5097 -0.4594
  977MOL0     C31783  12.533   4.788   8.916 -0.2033  0.3265 -0.6482
  977MOL0     O31784  12.604   4.845   8.806  0.2809 -0.4840  0.9455
  977MOL0     C31785  12.704   4.934   8.826 -0.2364 -0.1374 -0.2646
  977MOL0     C31786  12.735   5.021   8.717 -0.2296 -0.6537 -0.2626
  977MOL0     C31787  12.839   5.117   8.733  0.2682  0.8590  0.3536
  977MOL0     C31788  12.848   5.207   8.614 -0.6329  0.5150  0.0499
  977MOL0     C31789  12.918   5.128   8.857  0.5565 -0.8235 -0.0042
  977MOL0     C31790  13.019   5.227   8.878 -0.6656  0.1185  0.1478
  977MOL0     O31791  13.062   5.310   8.775  0.3637  0.1218 -0.4820
  977MOL0     C31792  13.157   5.399   8.796  0.2163 -0.2651 -0.5925
  977MOL0     C31793  13.270   5.402   8.711 -0.9628 -0.4761  0.3981
  977MOL0     C31794  13.370   5.501   8.726  0.6572 -0.9539 -0.5418
  977MOL0     C31795  13.364   5.587   8.833 -0.5628 -0.3493  0.3009
  977MOL0     O31796  13.469   5.673   8.839 -0.0290 -0.1021  1.1540
  977MOL0     C31797  13.487   5.755   8.957  0.0469  0.2306  0.9962
  977MOL0     C31798  13.631   5.834   8.935 -0.8590  0.1665 -0.6567
  977MOL0     C31799  13.651   5.935   8.824  0.1898  0.0975 -0.0389
  977MOL0     C31800  13.794   5.976   8.790 -0.2683  0.4793 -0.5062
  977MOL0     C31801  13.800   6.081   8.675 -0.8733  0.2296  0.2094
  977MOL0     C31802  13.758   6.218   8.733 -0.6485 -0.4812  0.7762
  977MOL0     C31803  13.742   6.336   8.623 -0.3563  0.5325  0.1155
  977MOL0     C31804  13.721   6.472   8.697  0.6180  0.5647 -0.0415
  977MOL0    Cl31805  13.732   6.599   8.565  0.9363  0.0277 -0.3137
  977MOL0     C31806  13.254   5.589   8.923  0.3281 -0.0102 -0.0471
  977MOL0     C31807  13.147   5.496   8.896 -1.0304 -0.4163 -0.5975
  977MOL0     O31808  13.065   5.225   8.989  0.0273 -0.2963 -0.3818
  977MOL0     C31809  12.886   5.035   8.955  0.3867  0.0160 -0.3763
  977MOL0     C31810  12.789   4.936   8.935 -1.1099 -0.4276 -0.8359
  977MOL0     N31811  12.081   4.513   9.148  1.0560 -1.1155 -0.2662
  977MOL0     N31812  11.992   4.428   9.198 -0.4663  0.2443  0.9288
  977MOL0     C31813  10.858   4.500   9.397 -0.2243 -0.2492 -0.0573
  977MOL0     C31814  10.738   4.543   9.468  0.5394 -0.0859  0.5373
  977MOL0     C31815  10.476   4.673   9.828  0.1011 -0.4146  0.2927
  977MOL0     C31816  10.428   4.654   9.962 -0.3361  1.1022  0.3828
  977MOL0     C31817  10.303   4.705   9.999  0.8068  0.0948  0.1354
  977MOL0     C31818  10.227   4.782   9.913  0.1929 -0.6465  0.0824
  977MOL0     O31819  10.104   4.813   9.948  0.6699 -1.2067  0.1282
  977MOL0     C31820  10.075   4.948   9.992 -0.4306 -1.1083  0.2079
  977MOL0     C31821  10.108   4.981  10.140  0.3062  0.5447 -0.0055
  977MOL0     C31822  10.101   5.135  10.178  0.1645 -0.1097 -0.5348
  977MOL0     C31823  10.137   5.179  10.326 -0.1294  0.8633  0.2536
  977MOL0     C31824  10.278   5.137  10.341 -0.9986  0.0698  0.8975
  977MOL0     C31825  10.389   5.097  10.359 -0.0453 -0.0554 -1.2252
  977MOL0     C31826  10.275   4.809   9.784  0.1807 -0.2424 -0.6651
  977MOL0     C31827  10.393   4.748   9.734 -1.1660 -0.0139 -0.9670
  977MOL0     H31828  10.884   4.707   9.725 -0.0642 -1.6195  1.3053
  977MOL0     H31829  11.094   4.628   9.607 -1.7830  3.1030  0.8709
  977MOL0     H31830  11.054   4.313   9.285  0.1267 -0.3573  0.7645
  977MOL0     H31831  11.034   4.460   9.196 -1.2478 -0.9471  0.4154
  977MOL0     H31832  11.226   4.351   9.119 -4.0712  2.2360 -0.4935
  977MOL0     H31833  11.271   4.499   9.185  4.3174 -1.0868 -0.8520
  977MOL0     H31834  11.379   4.418   9.368 -2.8973 -0.0715  0.9555
  977MOL0     H31835  11.297   4.261   9.390 -0.3023  0.7345  1.0664
  977MOL0     H31836  11.531   4.218   9.347  1.4215  1.2701 -0.5559
  977MOL0     H31837  11.457   4.180   9.189 -1.2269 -0.5770  0.4906
  977MOL0     H31838  11.511   4.456   9.159 -1.0827 -0.6459  0.2519
  977MOL0     H31839  11.608   4.419   9.288 -2.3795  3.6199 -0.6718
  977MOL0     H31840  11.652   4.298   9.008  2.7173  3.0253 -1.5808
  977MOL0     H31841  11.750   4.412   9.106  1.3538 -0.3582  2.1429
  977MOL0     H31842  11.793   4.254   9.281 -1.5273  1.5095 -0.6346
  977MOL0     H31843  11.721   4.127   9.172 -1.6659  1.0636 -2.1169
  977MOL0     H31844  11.895   4.153   9.023  3.5581 -1.7193 -0.6634
  977MOL0     H31845  11.968   4.138   9.191  1.3656  0.4108 -1.4679
  977MOL0     H31846  12.095   4.296   8.914 -0.0164  0.8900 -1.8282
  977MOL0     H31847  12.280   4.464   8.862  0.3331  1.6283 -2.2036
  977MOL0     H31848  12.166   4.594   8.855 -0.5487 -1.8917 -1.3066
  977MOL0     H31849  12.419   4.545   9.024  1.3023  1.0101  0.2813
  977MOL0     H31850  12.309   4.677   9.070 -2.1668 -2.0682  0.1564
  977MOL0     H31851  12.330   4.787   8.842 -0.3030 -0.9053 -0.8693
  977MOL0     H31852  12.433   4.659   8.786 -2.8768 -0.6904 -1.0518
  977MOL0     H31853  12.611   4.729   8.964 -0.5900 -0.5995 -1.1294
  977MOL0     H31854  12.520   4.871   8.986 -0.7015  1.6207 -2.2219
  977MOL0     H31855  12.681   5.017   8.624 -1.9780  1.9447  0.5304
  977MOL0     H31856  12.789   5.183   8.526 -0.4209 -0.1784  0.0948
  977MOL0     H31857  12.831   5.307   8.655 -0.0757  1.0720 -1.0411
  977MOL0     H31858  12.950   5.205   8.574 -0.0072 -1.4178  1.5593
  977MOL0     H31859  13.266   5.339   8.622 -2.9616 -0.2524  0.2972
  977MOL0     H31860  13.445   5.510   8.648 -0.9085  2.2320 -1.8767
  977MOL0     H31861  13.411   5.833   8.963 -1.9990 -1.5868  0.1280
  977MOL0     H31862  13.495   5.693   9.047 -1.6354 -0.1682  0.8969
  977MOL0     H31863  13.662   5.887   9.026  0.8214 -1.7422 -0.0292
  977MOL0     H31864  13.707   5.756   8.919 -0.6247  0.5205 -1.3116
  977MOL0     H31865  13.591   6.020   8.860  1.9695  0.6363  1.7846
  977MOL0     H31866  13.594   5.905   8.735  0.1342  0.3269 -0.0818
  977MOL0     H31867  13.848   6.005   8.880  3.2457 -1.5236 -1.7943
  977MOL0     H31868  13.836   5.879   8.761 -2.6777 -0.5120 -1.0052
  977MOL0     H31869  13.734   6.039   8.600 -0.9672  3.3139 -1.6271
  977MOL0     H31870  13.899   6.090   8.629 -1.1122 -1.1792 -0.6042
  977MOL0     H31871  13.664   6.211   8.789  0.4704 -0.1116  2.7695
  977MOL0     H31872  13.838   6.259   8.796  0.2288  1.1743 -1.2620
  977MOL0     H31873  13.661   6.299   8.560 -1.0026 -1.5221  2.0268
  977MOL0     H31874  13.834   6.342   8.564 -0.4860  0.1408 -0.1377
  977MOL0     H31875  13.794   6.490   8.776  0.1882 -1.9830  1.0554
  977MOL0     H31876  13.627   6.463   8.751  1.7038 -2.2950  1.5752
  977MOL0     H31877  13.244   5.662   9.003 -0.4086  0.9984 -1.0269
  977MOL0     H31878  13.060   5.495   8.960  0.2171  0.3252  1.1834
  977MOL0     H31879  12.933   5.042   9.053  1.8579  1.0848 -1.1042
  977MOL0     H31880  12.777   4.879   9.027 -2.5987  1.0199 -0.0974
  977MOL0     H31881  10.850   4.435   9.310  0.0316 -2.2250  1.3411
  977MOL0     H31882  10.644   4.527   9.417  1.1642 -0.2362 -0.6063
  977MOL0     H31883  10.485   4.589  10.027 -1.1205 -1.0941 -1.0410
  977MOL0     H31884  10.280   4.677  10.102  5.4796 -2.1344  0.8694
  977MOL0     H31885  10.143   5.013   9.936 -1.3379  0.3376  0.7077
  977MOL0     H31886   9.969   4.969   9.976 -0.4278 -0.5636  0.8765
  977MOL0     H31887  10.203   4.936  10.170  0.5026  0.2921 -0.9659
  977MOL0     H31888  10.036   4.934  10.208 -1.6693  0.7617 -1.8481
  977MOL0     H31889   9.997   5.169  10.179  0.1728  0.1487  2.5167
  977MOL0     H31890  10.162   5.196  10.110 -0.0239  0.8464  0.1371
  977MOL0     H31891  10.076   5.131  10.403  1.5581  0.1644  1.2071
  977MOL0     H31892  10.129   5.288  10.326 -0.4716  0.8672  2.1858
  977MOL0     H31893  10.491   5.067  10.371 -0.1040 -0.8695 -2.5902
  977MOL0     H31894  10.211   4.862   9.715  0.3199  0.3046 -0.3794
  977MOL0     H31895  10.414   4.773   9.630 -2.0650  1.2691 -0.8536
  978MOL0     O31896   5.990   1.191   1.059 -0.1891  0.1422  0.4641
  978MOL0     C31897   5.867   1.191   1.090 -0.0155 -0.8607  1.0121
  978MOL0     O31898   5.806   1.277   1.170 -0.3486  0.1673 -0.0985
  978MOL0     C31899   5.881   1.367   1.237 -0.1894 -0.4709  0.5815
  978MOL0     C31900   5.865   1.380   1.367  0.3411  0.8287  0.0870
  978MOL0     C31901   5.926   1.475   1.447  0.4356  0.0123  1.0894
  978MOL0     C31902   6.017   1.570   1.401  0.2598 -0.2433 -0.0456
  978MOL0     O31903   6.066   1.663   1.481  0.1100 -0.7978 -0.5356
  978MOL0     C31904   6.193   1.712   1.431  0.1908  0.2691  0.7476
  978MOL0     C31905   6.283   1.792   1.541  0.7455  0.5269  0.9879
  978MOL0     C31906   6.315   1.698   1.659  0.5510  0.5744  0.7852
  978MOL0     C31907   6.421   1.775   1.751 -0.1217  0.7357 -0.1181
  978MOL0     C31908   6.420   1.698   1.885  0.0958  0.8683  1.2041
  978MOL0     C31909   6.457   1.785   2.009 -0.3696  0.0977  0.0711
  978MOL0     C31910   6.332   1.839   2.075 -0.3138  0.5537 -0.0265
  978MOL0     C31911   6.353   1.930   2.193 -0.4439 -0.4901 -0.2276
  978MOL0     N31912   6.406   1.856   2.316  0.0139 -0.0015 -0.1419
  978MOL0     C31913   6.335   1.823   2.425  0.3418 -0.3224 -0.3749
  978MOL0     C31914   6.420   1.768   2.514  1.4749 -0.7563 -0.5959
  978MOL0     C31915   6.379   1.721   2.642  0.0061 -0.0548 -0.7669
  978MOL0     C31916   6.299   1.599   2.635 -0.4526 -0.7885 -0.5945
  978MOL0     C31917   6.385   1.478   2.599  0.3641 -0.3074 -0.8402
  978MOL0     C31918   6.307   1.352   2.575  0.7838 -0.9004  0.2226
  978MOL0     O31919   6.214   1.342   2.686  0.2512  0.4942 -0.3331
  978MOL0     C31920   6.112   1.248   2.680 -0.7072 -0.5085 -0.5116
  978MOL0     C31921   6.100   1.152   2.579  0.3016  0.7438  0.2580
  978MOL0     C31922   5.990   1.061   2.582 -0.2901 -0.5706 -0.1595
  978MOL0     C31923   5.989   0.946   2.482  0.5657 -0.9075 -0.0164
  978MOL0     C31924   5.894   1.075   2.677  0.8195  0.6361 -0.0172
  978MOL0     C31925   5.763   1.003   2.665  0.0426  0.7746 -0.1298
  978MOL0     O31926   5.706   0.984   2.545 -0.2564 -0.3365  0.6532
  978MOL0     C31927   5.606   0.891   2.529 -0.7434  0.4334 -0.1147
  978MOL0     C31928   5.595   0.764   2.592  0.4112 -0.5143  0.0978
  978MOL0     C31929   5.494   0.679   2.549 -0.1383 -0.8112 -1.3091
  978MOL0     C31930   5.400   0.718   2.448 -0.0432 -0.0560  0.3922
  978MOL0     O31931   5.292   0.646   2.396  0.6141 -0.5650 -0.2036
  978MOL0     C31932   5.251   0.534   2.466 -0.3231  0.1782 -0.8013
  978MOL0     C31933   5.117   0.494   2.406 -0.6220  0.4666 -0.1634
  978MOL0     C31934   5.048   0.377   2.476 -0.0999 -0.0818 -0.0110
  978MOL0     C31935   4.950   0.420   2.584 -0.6669  0.4120  0.6146
  978MOL0     C31936   4.860   0.295   2.611 -0.5725 -0.0767  0.6862
  978MOL0     C31937   4.768   0.307   2.728  0.0224  0.8033 -1.5306
  978MOL0     C31938   4.685   0.440   2.734  0.3309  1.0654  0.5161
  978MOL0     C31939   4.607   0.453   2.865 -0.2428 -0.3051  1.2973
  978MOL0    Cl31940   4.484   0.586   2.846  0.0369  0.4326 -0.0740
  978MOL0     C31941   5.409   0.849   2.393 -0.0232 -0.6158  0.0837
  978MOL0     C31942   5.519   0.926   2.430 -0.2027  0.1117  0.3283
  978MOL0     O31943   5.720   0.963   2.774 -0.0250  0.1892 -0.1499
  978MOL0     C31944   5.907   1.165   2.786 -0.1419  0.0138  0.0316
  978MOL0     C31945   6.019   1.248   2.782  0.1556  0.1522  0.2355
  978MOL0     N31946   6.547   1.769   2.465  0.3553  0.1177  0.0892
  978MOL0     N31947   6.536   1.820   2.342 -0.1241 -0.0206 -1.0760
  978MOL0     C31948   6.032   1.558   1.260 -0.3239  0.1045  0.2690
  978MOL0     C31949   5.969   1.462   1.178 -0.1785  0.8588  0.4832
  978MOL0     C31950   5.790   1.076   1.029 -0.6261 -0.5663  0.5429
  978MOL0     C31951   5.650   1.069   1.031 -0.2170  0.6014  0.0002
  978MOL0     C31952   5.576   0.974   0.958 -0.4826  0.5330 -0.1112
  978MOL0     C31953   5.651   0.877   0.889 -0.5757 -0.4207 -0.4988
  978MOL0     O31954   5.600   0.770   0.826 -0.0483  0.6119 -0.3055
  978MOL0     C31955   5.469   0.772   0.765 -0.5883 -0.1780  0.4933
  978MOL0     C31956   5.478   0.731   0.622  0.4762 -0.8660  0.3634
  978MOL0     C31957   5.610   0.762   0.550  0.2353  0.3954 -0.9062
  978MOL0     C31958   5.587   0.759   0.403  1.0462  0.3685  0.4044
  978MOL0     C31959   5.500   0.871   0.360  0.2051 -0.3860 -0.5751
  978MOL0     C31960   5.423   0.967   0.349  0.3256 -0.1982  0.2451
  978MOL0     C31961   5.792   0.881   0.890  0.3301 -1.0105 -0.4633
  978MOL0     C31962   5.867   0.977   0.955  0.1827  0.2305  0.9469
  978MOL0     H31963   5.807   1.306   1.422  3.4654  1.6748  5.2244
  978MOL0     H31964   5.905   1.479   1.554  1.5572  1.9651  1.2957
  978MOL0     H31965   6.254   1.623   1.412  0.4841 -0.1285  3.2297
  978MOL0     H31966   6.181   1.787   1.352  1.5455 -1.5140 -1.2862
  978MOL0     H31967   6.379   1.829   1.503  0.1365  0.2156 -0.9449
  978MOL0     H31968   6.219   1.878   1.564 -0.7997  0.7001 -3.1537
  978MOL0     H31969   6.227   1.681   1.723  2.0145 -2.4879  2.1688
  978MOL0     H31970   6.354   1.608   1.611  0.6811  0.8973  0.2775
  978MOL0     H31971   6.516   1.774   1.697 -0.9488 -0.4664 -1.6319
  978MOL0     H31972   6.393   1.878   1.773  0.1806  1.0243 -1.0367
  978MOL0     H31973   6.340   1.627   1.907 -0.2721  0.8073 -0.2140
  978MOL0     H31974   6.498   1.622   1.872 -0.7585 -0.0405  1.3109
  978MOL0     H31975   6.516   1.728   2.082  0.2731 -0.4577 -0.8564
  978MOL0     H31976   6.520   1.867   1.972 -1.2882  0.8455  0.1297
  978MOL0     H31977   6.293   1.896   1.990  3.7017  1.2175 -1.6592
  978MOL0     H31978   6.264   1.758   2.102  0.4023 -0.2803 -0.6464
  978MOL0     H31979   6.262   1.984   2.220 -0.0271 -0.9415  2.2716
  978MOL0     H31980   6.432   2.002   2.169  0.2383 -1.7079 -1.8793
  978MOL0     H31981   6.226   1.826   2.431  0.4136  2.3028  4.5322
  978MOL0     H31982   6.453   1.708   2.722 -2.1091  1.4321  1.5771
  978MOL0     H31983   6.321   1.805   2.682 -0.3211  0.4764 -2.3087
  978MOL0     H31984   6.222   1.611   2.558 -1.9293  1.0445  1.0345
  978MOL0     H31985   6.266   1.583   2.738 -0.0432 -1.7397 -0.6041
  978MOL0     H31986   6.468   1.460   2.668  1.0492  2.1543 -0.9679
  978MOL0     H31987   6.434   1.504   2.505 -0.4129  0.3799 -1.0651
  978MOL0     H31988   6.369   1.263   2.558  0.6330 -1.0857  0.6162
  978MOL0     H31989   6.250   1.370   2.484  0.6869  1.9890  0.7572
  978MOL0     H31990   6.174   1.133   2.501 -0.3560 -1.3080  0.0708
  978MOL0     H31991   5.903   0.974   2.420  0.7104 -0.8843 -0.2063
  978MOL0     H31992   6.078   0.922   2.424  0.8265  0.4534 -0.2245
  978MOL0     H31993   5.983   0.857   2.546 -0.5019 -1.5300 -0.9437
  978MOL0     H31994   5.656   0.730   2.676  0.5415 -1.4878 -0.3733
  978MOL0     H31995   5.465   0.586   2.598 -0.0808 -0.2947 -0.2589
  978MOL0     H31996   5.328   0.456   2.473  1.6178  1.8212 -2.2177
  978MOL0     H31997   5.233   0.560   2.570  0.7797 -0.2562 -0.4836
  978MOL0     H31998   5.056   0.584   2.421 -1.0917  0.0929  0.1970
  978MOL0     H31999   5.123   0.462   2.301 -0.8588 -1.5371  0.4005
  978MOL0     H32000   5.116   0.300   2.512  0.9074  1.1219  0.7645
  978MOL0     H32001   4.987   0.329   2.400  0.3067 -5.1907  2.4734
  978MOL0     H32002   5.022   0.434   2.665  1.1427  0.4782 -0.9551
  978MOL0     H32003   4.884   0.505   2.562  0.3260  0.7089 -1.4242
  978MOL0     H32004   4.926   0.208   2.616 -0.7524 -0.6726 -3.7706
  978MOL0     H32005   4.805   0.265   2.522  1.8658  0.7183 -1.2151
  978MOL0     H32006   4.693   0.228   2.737  2.1350 -1.3944 -2.1646
  978MOL0     H32007   4.834   0.307   2.814 -1.8677  2.4111  0.0154
  978MOL0     H32008   4.618   0.444   2.648  0.8624 -2.1938 -0.1797
  978MOL0     H32009   4.757   0.522   2.739  1.3980  0.1116  3.8955
  978MOL0     H32010   4.684   0.474   2.940 -0.4732 -2.3801  2.1867
  978MOL0     H32011   4.553   0.359   2.875 -1.2519 -0.0257 -1.0232
  978MOL0     H32012   5.327   0.887   2.333  1.9640  0.0788 -2.3695
  978MOL0     H32013   5.541   1.020   2.380 -1.9460  1.7119  2.3358
  978MOL0     H32014   5.827   1.175   2.859 -0.4678 -0.6384 -0.2231
  978MOL0     H32015   6.036   1.322   2.860 -4.3453  1.3551  0.3431
  978MOL0     H32016   6.081   1.631   1.198 -0.2960  1.5796  1.9514
  978MOL0     H32017   5.968   1.469   1.069 -2.2473 -2.6669  0.1203
  978MOL0     H32018   5.596   1.142   1.090 -1.1352  0.9159 -1.1766
  978MOL0     H32019   5.468   0.976   0.958 -0.5971  0.4288  3.4213
  978MOL0     H32020   5.405   0.710   0.827 -1.3712  2.1239  2.1233
  978MOL0     H32021   5.421   0.870   0.756  1.5194  0.7219 -3.4557
  978MOL0     H32022   5.391   0.770   0.568  0.9574 -0.5267 -0.1699
  978MOL0     H32023   5.472   0.622   0.612  1.6822 -0.9938  0.9244
  978MOL0     H32024   5.686   0.687   0.575  1.8837  2.0640 -0.7257
  978MOL0     H32025   5.642   0.862   0.579  1.6900  0.3282 -2.1804
  978MOL0     H32026   5.520   0.675   0.382  0.8224  0.4175  0.9073
  978MOL0     H32027   5.677   0.752   0.341  0.6104 -2.9212 -0.0427
  978MOL0     H32028   5.344   1.039   0.337 -1.0116 -1.5261  0.8094
  978MOL0     H32029   5.856   0.819   0.828  1.2817  0.2786 -0.8305
  978MOL0     H32030   5.975   0.980   0.944  0.3579 -3.3751  0.3245
  979MOL0     O32031  10.458   8.431   0.785 -0.2114  0.0061 -0.4623
  979MOL0     C32032  10.390   8.530   0.809  0.5493  0.5733 -0.3085
  979MOL0     O32033  10.259   8.551   0.759 -0.8460  0.4803  0.3728
  979MOL0     C32034  10.233   8.470   0.648  0.3301  1.1119  0.6885
  979MOL0     C32035  10.116   8.391   0.664  0.3500 -0.1820  0.2479
  979MOL0     C32036  10.060   8.322   0.553 -0.4881 -0.7870 -0.6072
  979MOL0     C32037  10.142   8.309   0.437  0.4215  0.2350 -0.0523
  979MOL0     O32038  10.117   8.237   0.324 -0.1472 -0.2567 -0.0036
  979MOL0     C32039  10.016   8.134   0.326  0.6794 -0.8223  0.1513
  979MOL0     C32040  10.018   8.061   0.190  0.5337 -0.8667 -0.4539
  979MOL0     C32041  10.155   8.013   0.142 -0.1716  0.2665  0.1697
  979MOL0     C32042  10.214   7.888   0.224 -0.2312  0.0957 -0.0316
  979MOL0     C32043  10.359   7.863   0.187 -0.8946 -0.6558  0.1596
  979MOL0     C32044  10.455   7.968   0.249  0.1252 -0.2976 -1.3854
  979MOL0     C32045  10.605   7.927   0.261 -0.0748  0.1451 -0.2812
  979MOL0     C32046  10.684   7.917   0.133  0.5273 -0.1148  0.1891
  979MOL0     N32047  10.691   8.047   0.053  0.6440  0.6352 -0.7065
  979MOL0     C32048  10.693   8.174   0.098  0.2409  0.4501  0.1547
  979MOL0     C32049  10.708   8.261  -0.006 -0.6848  1.3707 -0.0566
  979MOL0     C32050  10.727   8.417  -0.006 -0.0065  1.4107  0.3798
  979MOL0     C32051  10.832   8.469  -0.109  0.6910 -0.0748  0.0470
  979MOL0     C32052  10.821   8.626  -0.108 -0.3979  0.2471 -0.2338
  979MOL0     C32053  10.905   8.681   0.007  0.2443 -0.7523  0.2168
  979MOL0     O32054  11.039   8.662  -0.023 -0.0280 -0.0234 -0.4226
  979MOL0     C32055  11.111   8.758  -0.095 -0.7202  0.1540  0.5951
  979MOL0     C32056  11.233   8.715  -0.158 -0.5072  0.0226 -1.2099
  979MOL0     C32057  11.329   8.808  -0.209 -0.0113  0.0654 -0.1474
  979MOL0     C32058  11.447   8.741  -0.265 -0.3299 -0.1839  0.0396
  979MOL0     C32059  11.294   8.942  -0.212  0.9639 -0.7363 -0.6972
  979MOL0     C32060  11.384   9.046  -0.266  0.1521 -0.7672 -0.6660
  979MOL0     O32061  11.337   9.175  -0.265  0.5175  0.7149  1.2056
  979MOL0     C32062  11.407   9.264  -0.345  0.5797 -0.0401  0.6021
  979MOL0     C32063  11.359   9.300  -0.471 -0.0247 -0.1338  0.4286
  979MOL0     C32064  11.416   9.403  -0.550  0.9029 -0.1530 -0.3169
  979MOL0     C32065  11.527   9.486  -0.490  0.0272  0.4939 -0.0131
  979MOL0     O32066  11.584   9.590  -0.558  0.4205 -0.5028  0.4799
  979MOL0     C32067  11.555   9.608  -0.700  0.2698  0.0878  0.2078
  979MOL0     C32068  11.642   9.711  -0.754 -1.1641  1.0363  0.2319
  979MOL0     C32069  11.575   9.752  -0.893  0.6479  0.1488 -0.4004
  979MOL0     C32070  11.618   9.887  -0.937 -0.7295  0.0463  0.7333
  979MOL0     C32071  11.565   9.944  -1.071 -0.2082  0.0077  1.1014
  979MOL0     C32072  11.664  10.061  -1.110  0.9449 -0.3159 -0.8301
  979MOL0     C32073  11.616  10.114  -1.257  0.3183  0.2172  0.0243
  979MOL0     C32074  11.675  10.242  -1.302 -0.8092  0.9307  0.3098
  979MOL0    Cl32075  11.614  10.393  -1.210 -0.2527 -0.0422 -0.1578
  979MOL0     C32076  11.575   9.450  -0.361  0.4180 -0.3349 -0.3827
  979MOL0     C32077  11.514   9.340  -0.287  0.0461  0.4336  0.4618
  979MOL0     O32078  11.500   9.021  -0.301 -0.1820 -0.2065 -0.8858
  979MOL0     C32079  11.166   8.986  -0.169  0.3167 -0.3813 -0.5591
  979MOL0     C32080  11.082   8.897  -0.104  0.1267  0.1556  1.3273
  979MOL0     N32081  10.696   8.182  -0.123 -0.6651 -0.0770 -1.2384
  979MOL0     N32082  10.691   8.054  -0.086 -0.1171  0.2804 -0.2115
  979MOL0     C32083  10.261   8.384   0.434 -0.5565  0.6897  0.3127
  979MOL0     C32084  10.298   8.472   0.533 -0.3482 -0.2253  0.5361
  979MOL0     C32085  10.442   8.635   0.899 -0.4643  0.3925  0.3416
  979MOL0     C32086  10.360   8.732   0.967  0.3526 -0.0362  0.9766
  979MOL0     C32087  10.403   8.831   1.047  0.6952 -0.9027  0.0248
  979MOL0     C32088  10.545   8.824   1.083  0.8236 -0.2205 -0.4291
  979MOL0     O32089  10.613   8.898   1.177  1.0251 -0.0778 -0.2826
  979MOL0     C32090  10.536   8.978   1.273  0.5218 -0.1034 -0.3284
  979MOL0     C32091  10.600   9.038   1.391  0.1666 -0.7048  0.4325
  979MOL0     C32092  10.671   8.936   1.481  1.2862 -0.2655 -0.4751
  979MOL0     C32093  10.570   8.835   1.542  0.0471 -0.1190 -0.6216
  979MOL0     C32094  10.485   8.901   1.644  0.0506  0.1717  0.5032
  979MOL0     C32095  10.405   8.959   1.716  0.5899 -0.4274 -0.1885
  979MOL0     C32096  10.629   8.732   1.026  0.0627 -0.1341  0.5664
  979MOL0     C32097  10.578   8.636   0.938  0.5187  0.4400  0.9792
  979MOL0     H32098  10.051   8.396   0.751  2.8667 -1.8094  2.3839
  979MOL0     H32099   9.963   8.273   0.555  0.0573 -1.8841  1.2137
  979MOL0     H32100  10.050   8.065   0.404 -3.1058 -1.9310  0.9818
  979MOL0     H32101   9.917   8.176   0.341  0.5976 -0.6187 -0.8884
  979MOL0     H32102   9.950   7.976   0.197  0.9007 -1.3661 -2.2749
  979MOL0     H32103   9.972   8.131   0.119  0.3615 -0.7923 -0.2697
  979MOL0     H32104  10.138   7.977   0.040 -2.8954  0.0235  0.6262
  979MOL0     H32105  10.222   8.099   0.138 -0.8008  0.7285 -0.6734
  979MOL0     H32106  10.218   7.904   0.332 -1.6340 -1.6407  0.3380
  979MOL0     H32107  10.146   7.802   0.217  1.5088 -1.4436  1.0038
  979MOL0     H32108  10.400   7.765   0.211  2.3343  0.5192 -0.0264
  979MOL0     H32109  10.377   7.867   0.079  0.0709 -0.6544  0.3145
  979MOL0     H32110  10.456   8.064   0.196  1.8936 -2.0104 -4.7982
  979MOL0     H32111  10.420   7.980   0.352  1.6348  2.8054 -1.1244
  979MOL0     H32112  10.654   8.000   0.327 -0.3916  0.8216 -0.7767
  979MOL0     H32113  10.598   7.829   0.308 -4.8119  0.0368 -0.7479
  979MOL0     H32114  10.627   7.846   0.072 -3.2573  1.6190  1.4654
  979MOL0     H32115  10.782   7.869   0.146  0.8426 -0.1148 -1.7561
  979MOL0     H32116  10.693   8.197   0.204  0.7324 -3.2270  1.0732
  979MOL0     H32117  10.631   8.464  -0.030 -0.0388  0.9907 -0.3499
  979MOL0     H32118  10.759   8.453   0.092  2.5073 -0.7879  0.4773
  979MOL0     H32119  10.797   8.436  -0.207  0.1383 -0.1175  0.2551
  979MOL0     H32120  10.933   8.428  -0.101  0.6482 -0.3785 -0.9413
  979MOL0     H32121  10.717   8.662  -0.109 -0.7038 -0.4758  1.4138
  979MOL0     H32122  10.865   8.653  -0.204 -3.0640 -0.2953 -1.7078
  979MOL0     H32123  10.876   8.632   0.100 -2.8885 -0.0332 -0.2557
  979MOL0     H32124  10.875   8.781   0.038 -0.5553 -1.2003  0.9253
  979MOL0     H32125  11.264   8.612  -0.144  1.2002  0.6633  0.1225
  979MOL0     H32126  11.431   8.634  -0.274  1.3517 -0.5108  0.6220
  979MOL0     H32127  11.467   8.781  -0.365  0.7172  0.6903  0.5643
  979MOL0     H32128  11.536   8.763  -0.205  0.3507 -1.7800 -0.3440
  979MOL0     H32129  11.268   9.247  -0.497  0.2054  0.0659 -0.8434
  979MOL0     H32130  11.381   9.438  -0.647 -2.4601  2.4806  1.6225
  979MOL0     H32131  11.573   9.514  -0.753  5.0266  0.7543  0.2878
  979MOL0     H32132  11.450   9.632  -0.719 -0.0356 -2.3579 -1.9010
  979MOL0     H32133  11.635   9.799  -0.689 -1.6920 -0.6869  2.5962
  979MOL0     H32134  11.746   9.683  -0.774 -1.9194 -1.8594  0.0574
  979MOL0     H32135  11.467   9.767  -0.886  0.7563  1.5720 -1.2553
  979MOL0     H32136  11.585   9.676  -0.971 -1.1278 -1.6165  0.9921
  979MOL0     H32137  11.592   9.955  -0.856  3.0752  0.9950  1.3355
  979MOL0     H32138  11.727   9.879  -0.941 -0.7414 -0.5524  1.2586
  979MOL0     H32139  11.460   9.975  -1.069 -0.9396 -1.9843 -1.2139
  979MOL0     H32140  11.583   9.874  -1.153  2.4390  2.1440 -0.3352
  979MOL0     H32141  11.667  10.139  -1.033 -0.0915  0.4006 -1.4914
  979MOL0     H32142  11.764  10.021  -1.124  0.4144 -1.3622 -1.8675
  979MOL0     H32143  11.510  10.139  -1.266 -0.2914 -2.4048 -0.7393
  979MOL0     H32144  11.638  10.039  -1.334 -2.5442 -0.0347 -0.6287
  979MOL0     H32145  11.623  10.253  -1.398 -0.7114 -2.2401 -0.1975
  979MOL0     H32146  11.781  10.224  -1.319 -1.2930 -3.9352  0.9976
  979MOL0     H32147  11.664   9.487  -0.311  0.3678 -1.7073  0.8023
  979MOL0     H32148  11.562   9.297  -0.200  1.1379 -2.0591 -1.2627
  979MOL0     H32149  11.134   9.090  -0.168 -0.6363 -0.4843 -4.3754
  979MOL0     H32150  10.992   8.945  -0.068  0.0890  0.1733  1.2082
  979MOL0     H32151  10.298   8.408   0.335 -2.2152 -1.1915 -0.8365
  979MOL0     H32152  10.393   8.525   0.529 -0.0495 -0.3048  3.8030
  979MOL0     H32153  10.252   8.729   0.955  0.5041 -2.6044 -0.2648
  979MOL0     H32154  10.333   8.900   1.093 -0.2622 -1.1190 -1.0774
  979MOL0     H32155  10.494   9.058   1.212 -0.6975  1.0852  1.9585
  979MOL0     H32156  10.454   8.914   1.306 -0.0320  1.9948  2.7926
  979MOL0     H32157  10.528   9.100   1.445  0.5051 -0.0087  0.1028
  979MOL0     H32158  10.677   9.107   1.354  2.3480 -2.5673  1.2661
  979MOL0     H32159  10.730   8.976   1.564  0.1163 -1.5020  1.0114
  979MOL0     H32160  10.731   8.861   1.429 -1.3703 -4.0264  1.3661
  979MOL0     H32161  10.629   8.765   1.602 -0.8288 -0.9838 -0.7539
  979MOL0     H32162  10.511   8.791   1.462 -1.3611  1.4324 -0.4860
  979MOL0     H32163  10.319   9.004   1.762  0.3932 -0.5877 -0.3952
  979MOL0     H32164  10.728   8.714   1.065  0.3452  0.4175  0.1181
  979MOL0     H32165  10.639   8.549   0.914  2.2433  0.8118  3.5964
  980MOL0     O32166   9.083   4.791   2.213 -0.1453 -0.3640 -0.3694
  980MOL0     C32167   8.981   4.750   2.162 -0.5946 -0.0332  0.1674
  980MOL0     O32168   8.972   4.641   2.074  0.3480 -0.1253  0.3492
  980MOL0     C32169   9.088   4.578   2.043 -0.7727  0.3696  0.0782
  980MOL0     C32170   9.086   4.441   2.035 -0.2193  0.1507  0.1389
  980MOL0     C32171   9.196   4.360   1.979 -1.1324  0.1969 -0.5512
  980MOL0     C32172   9.306   4.432   1.930  0.5338  1.2974  1.0398
  980MOL0     O32173   9.398   4.372   1.846  0.3800 -0.3952 -0.3943
  980MOL0     C32174   9.433   4.235   1.867  0.2467  0.1509  0.6638
  980MOL0     C32175   9.586   4.232   1.854 -0.0254 -0.9600  0.6866
  980MOL0     C32176   9.634   4.089   1.839 -0.1577 -0.8720  0.0426
  980MOL0     C32177   9.787   4.089   1.840  0.1865  0.9928 -0.2331
  980MOL0     C32178   9.831   4.094   1.695 -0.7558 -0.0180  1.0327
  980MOL0     C32179   9.979   4.105   1.684 -0.5843 -0.5057  0.8109
  980MOL0     C32180  10.038   4.237   1.743 -0.2503  0.1158 -0.4017
  980MOL0     C32181  10.189   4.269   1.730  0.3054 -0.0607  0.3616
  980MOL0     N32182  10.227   4.241   1.587  0.2564 -0.1316  0.0510
  980MOL0     C32183  10.173   4.297   1.475  0.1355 -0.7588 -1.2672
  980MOL0     C32184  10.222   4.246   1.366 -0.6405  0.7711 -0.2578
  980MOL0     C32185  10.207   4.296   1.215 -0.3527  0.2088  0.2928
  980MOL0     C32186  10.325   4.370   1.165  1.4548  0.4198 -0.3284
  980MOL0     C32187  10.360   4.513   1.206 -0.0821 -0.6704 -0.1576
  980MOL0     C32188  10.241   4.603   1.166  0.2695  1.6184  0.8163
  980MOL0     O32189  10.256   4.742   1.173 -0.6793  0.1186  0.5100
  980MOL0     C32190  10.152   4.811   1.123  0.1620 -0.1166  0.0374
  980MOL0     C32191  10.169   4.947   1.134 -0.1471 -0.4018 -0.1434
  980MOL0     C32192  10.066   5.036   1.096  0.5469 -0.8678  0.5995
  980MOL0     C32193  10.075   5.192   1.123 -0.8375 -0.4045  0.1659
  980MOL0     C32194   9.943   4.979   1.046  0.5368 -0.5264  0.1775
  980MOL0     C32195   9.820   5.053   1.009  0.0843  0.4343  0.1911
  980MOL0     O32196   9.718   4.976   0.959  0.2683  0.1534 -0.1987
  980MOL0     C32197   9.598   5.047   0.939  0.0646  0.6979 -0.7272
  980MOL0     C32198   9.551   5.161   1.011 -0.1602  0.2332  0.1126
  980MOL0     C32199   9.421   5.213   0.978  0.4467 -0.0632  0.1523
  980MOL0     C32200   9.353   5.167   0.867  0.6534 -0.0998 -0.4807
  980MOL0     O32201   9.226   5.203   0.836 -0.0899 -0.2505  0.5722
  980MOL0     C32202   9.160   5.326   0.882 -0.8989 -0.1096 -0.5745
  980MOL0     C32203   9.082   5.304   1.007 -0.6981 -0.8394  0.8811
  980MOL0     C32204   8.951   5.232   0.976 -0.5896  0.9042 -0.5508
  980MOL0     C32205   8.836   5.234   1.085 -0.1281  0.5285 -0.8341
  980MOL0     C32206   8.701   5.183   1.030  0.2459  0.2978  0.2967
  980MOL0     C32207   8.586   5.188   1.130 -0.9337 -0.1139  0.0628
  980MOL0     C32208   8.446   5.191   1.069 -0.1541 -0.2840 -0.7423
  980MOL0     C32209   8.337   5.230   1.180  0.0465  0.8433  0.5456
  980MOL0    Cl32210   8.170   5.219   1.099 -0.4229 -0.1226 -0.0191
  980MOL0     C32211   9.402   5.059   0.798 -0.1072  0.5784  0.5826
  980MOL0     C32212   9.522   5.005   0.829 -0.4587  0.0507  0.7895
  980MOL0     O32213   9.817   5.169   1.015  0.2475 -0.7827 -0.1124
  980MOL0     C32214   9.928   4.835   1.032 -1.2196  0.0492  0.0581
  980MOL0     C32215  10.033   4.756   1.079 -0.2883  0.6616  0.7075
  980MOL0     N32216  10.315   4.149   1.415 -0.1189 -0.0461  0.0124
  980MOL0     N32217  10.304   4.144   1.544  0.2049 -0.2693 -0.1365
  980MOL0     C32218   9.307   4.568   1.942 -0.0546  0.7313 -0.6392
  980MOL0     C32219   9.200   4.643   1.989 -0.6626 -0.5202 -0.0995
  980MOL0     C32220   8.863   4.823   2.213  0.2754  0.1347 -0.7184
  980MOL0     C32221   8.855   4.884   2.344  0.1276  0.9790  0.0124
  980MOL0     C32222   8.749   4.974   2.367 -0.4558 -0.4383 -0.3840
  980MOL0     C32223   8.645   4.995   2.278  0.4534 -0.1247 -0.4717
  980MOL0     O32224   8.546   5.077   2.323 -0.0688  0.5061 -0.8488
  980MOL0     C32225   8.487   5.168   2.226 -0.6257  0.5627 -0.7369
  980MOL0     C32226   8.367   5.117   2.147 -0.2638  0.1492 -0.5096
  980MOL0     C32227   8.293   5.027   2.250 -0.0782 -0.1827  0.3066
  980MOL0     C32228   8.147   4.991   2.202  0.2580  1.6550  0.8695
  980MOL0     C32229   8.072   5.116   2.184 -0.0626  0.5288  0.9495
  980MOL0     C32230   8.027   5.227   2.153  0.2469 -0.3033 -0.5385
  980MOL0     C32231   8.658   4.954   2.149 -0.6141  0.2636  0.2412
  980MOL0     C32232   8.759   4.858   2.120  0.4565 -0.0994  0.5850
  980MOL0     H32233   8.991   4.396   2.063 -0.9661  2.2013  1.0926
  980MOL0     H32234   9.177   4.255   1.962 -0.8056 -0.2638  1.6547
  980MOL0     H32235   9.404   4.200   1.967  1.7019 -0.6038  0.8482
  980MOL0     H32236   9.393   4.163   1.794  0.3126 -0.2377  1.0034
  980MOL0     H32237   9.616   4.296   1.771  3.7918  0.1724  2.6890
  980MOL0     H32238   9.634   4.280   1.940  1.8012  1.9260 -1.7496
  980MOL0     H32239   9.602   4.034   1.928  0.1066 -0.1900  0.5698
  980MOL0     H32240   9.590   4.037   1.754  1.6060 -2.0582 -0.1968
  980MOL0     H32241   9.823   4.171   1.902 -0.1447 -0.7298  2.4086
  980MOL0     H32242   9.827   3.996   1.883 -1.1200 -1.6375 -4.1434
  980MOL0     H32243   9.800   4.009   1.634  0.6104  0.0372  0.2154
  980MOL0     H32244   9.785   4.182   1.649  0.6414 -0.6466 -1.8623
  980MOL0     H32245  10.024   4.019   1.736  2.6924  0.3988 -0.2887
  980MOL0     H32246  10.008   4.097   1.579 -0.3864  1.9837  0.6168
  980MOL0     H32247   9.975   4.321   1.714 -0.5233  1.0629  2.5870
  980MOL0     H32248  10.021   4.247   1.850  0.0015 -0.6740 -0.2748
  980MOL0     H32249  10.242   4.206   1.802 -0.4105 -0.3628  0.6273
  980MOL0     H32250  10.200   4.372   1.766  2.5269 -0.9147  2.3618
  980MOL0     H32251  10.097   4.374   1.475  1.4781  0.6231 -0.4086
  980MOL0     H32252  10.203   4.202   1.158 -1.0345 -0.2149  1.0228
  980MOL0     H32253  10.113   4.350   1.207 -0.8842 -0.3928  2.0155
  980MOL0     H32254  10.318   4.364   1.056  0.7019 -3.1585 -0.1975
  980MOL0     H32255  10.416   4.320   1.199  0.6856 -0.3271  0.6736
  980MOL0     H32256  10.448   4.553   1.155 -0.5754  0.2754 -0.2921
  980MOL0     H32257  10.381   4.507   1.313  4.4165 -2.7487 -0.9168
  980MOL0     H32258  10.157   4.573   1.228  0.8169 -0.5400  0.6008
  980MOL0     H32259  10.227   4.565   1.064  2.8660 -1.6968  1.5016
  980MOL0     H32260  10.260   4.987   1.178  0.8034 -1.8763 -0.7122
  980MOL0     H32261  10.032   5.234   1.031  1.2999 -1.2799 -1.3080
  980MOL0     H32262  10.013   5.217   1.210  3.9583  1.1220  3.5195
  980MOL0     H32263  10.178   5.226   1.133 -0.8469 -0.8452  2.1063
  980MOL0     H32264   9.610   5.189   1.098  0.2342 -0.4377  0.0667
  980MOL0     H32265   9.387   5.292   1.044 -0.1997  1.5547 -2.0073
  980MOL0     H32266   9.236   5.400   0.910 -1.7475 -0.5605  3.6185
  980MOL0     H32267   9.105   5.365   0.796  1.4860  0.6879 -1.8394
  980MOL0     H32268   9.145   5.248   1.077  1.3597  1.8980  1.4088
  980MOL0     H32269   9.051   5.399   1.053 -2.2953 -1.1884  0.5793
  980MOL0     H32270   8.983   5.129   0.959 -2.3233  0.6421 -2.7031
  980MOL0     H32271   8.902   5.270   0.886 -1.9372  2.7567  0.8766
  980MOL0     H32272   8.863   5.167   1.167  2.3137 -1.8485 -3.3662
  980MOL0     H32273   8.819   5.336   1.122  3.6101  1.0821 -0.1892
  980MOL0     H32274   8.708   5.077   1.004 -0.5546  0.3788 -0.2907
  980MOL0     H32275   8.681   5.239   0.938  0.0870 -0.1557  0.0528
  980MOL0     H32276   8.596   5.101   1.196 -1.6273 -1.9197 -2.0774
  980MOL0     H32277   8.598   5.278   1.191 -0.7181  0.0375 -0.2039
  980MOL0     H32278   8.413   5.090   1.041  0.7144 -0.5940 -0.6647
  980MOL0     H32279   8.448   5.255   0.981  2.8359  1.7876  0.6722
  980MOL0     H32280   8.361   5.331   1.214 -1.7787  1.3308  0.5260
  980MOL0     H32281   8.344   5.161   1.265 -1.6279  1.9024  1.6016
  980MOL0     H32282   9.344   5.023   0.713  0.5290 -2.1566  1.2191
  980MOL0     H32283   9.574   4.926   0.776 -1.3636 -0.6838  0.9783
  980MOL0     H32284   9.843   4.778   0.997 -0.8430  0.9900 -2.6263
  980MOL0     H32285  10.018   4.649   1.069  1.1874  0.3636  1.3482
  980MOL0     H32286   9.390   4.632   1.914  0.4146  0.0389 -0.8568
  980MOL0     H32287   9.198   4.751   1.977 -2.0418 -0.6537 -1.3543
  980MOL0     H32288   8.915   4.844   2.426 -1.1804  0.8731  0.9426
  980MOL0     H32289   8.749   5.029   2.461  2.3725 -0.5746 -0.2076
  980MOL0     H32290   8.448   5.251   2.287  0.3858 -1.2286  2.5996
  980MOL0     H32291   8.570   5.211   2.169  0.1486  1.1143  0.7288
  980MOL0     H32292   8.402   5.058   2.062 -0.0041 -0.2658 -0.1157
  980MOL0     H32293   8.306   5.203   2.119 -1.7585 -1.2388 -1.7046
  980MOL0     H32294   8.289   5.072   2.350  1.5687 -3.3029  1.9583
  980MOL0     H32295   8.343   4.930   2.262  1.0019  0.0037 -2.1218
  980MOL0     H32296   8.091   4.929   2.272  0.7361  0.4667  0.2268
  980MOL0     H32297   8.152   4.937   2.107 -1.6015  1.8329  0.6307
  980MOL0     H32298   7.975   5.320   2.144 -1.2255 -1.2127 -2.4567
  980MOL0     H32299   8.580   4.971   2.076 -0.8813  1.1903  0.7277
  980MOL0     H32300   8.770   4.812   2.022  0.4489 -0.9554  0.9796
  981MOL0     O32301  10.069   0.083   4.937 -0.7592 -0.4011 -0.2247
  981MOL0     C32302   9.972   0.113   5.002  0.1557  0.3512 -0.7512
  981MOL0     O32303   9.909   0.237   5.008 -0.7041 -0.2784  0.3002
  981MOL0     C32304   9.964   0.348   4.949 -0.5184  0.1550 -0.6529
  981MOL0     C32305  10.015   0.352   4.813 -0.5388  0.9120  0.3144
  981MOL0     C32306  10.067   0.474   4.767 -0.0896  0.1118  0.3171
  981MOL0     C32307  10.081   0.586   4.852  0.4231 -0.4527 -0.0699
  981MOL0     O32308  10.148   0.702   4.804 -0.1752  0.0038 -0.3350
  981MOL0     C32309  10.159   0.727   4.664 -0.0416  0.4618  0.8685
  981MOL0     C32310  10.241   0.858   4.642 -0.7095 -0.0842  0.1369
  981MOL0     C32311  10.381   0.854   4.709 -0.0971 -0.1279 -0.4345
  981MOL0     C32312  10.462   0.974   4.682 -0.7789 -1.0490  0.4191
  981MOL0     C32313  10.578   0.973   4.785  0.1348 -0.6316  0.1083
  981MOL0     C32314  10.663   1.102   4.778 -0.1182  0.5038 -0.5748
  981MOL0     C32315  10.752   1.112   4.654 -0.9676  0.7796  0.5881
  981MOL0     C32316  10.874   1.012   4.639  0.0895 -0.1619  0.4895
  981MOL0     N32317  10.951   1.041   4.512 -0.3164 -0.5992 -0.1663
  981MOL0     C32318  10.903   1.050   4.379 -1.0298  0.1044  0.5415
  981MOL0     C32319  11.005   1.098   4.297 -0.4805 -0.0836 -1.2339
  981MOL0     C32320  10.986   1.116   4.154  0.0024  0.6347  0.2660
  981MOL0     C32321  11.083   1.215   4.090  0.3457 -0.0452 -1.0374
  981MOL0     C32322  11.087   1.358   4.164 -1.1202 -0.1321  0.5357
  981MOL0     C32323  10.939   1.407   4.195 -1.4482  0.5055 -0.7037
  981MOL0     O32324  10.946   1.542   4.166 -0.3798 -0.9840 -1.1030
  981MOL0     C32325  10.842   1.620   4.206  0.1376  0.4652  0.5036
  981MOL0     C32326  10.743   1.653   4.117  1.3141 -0.4560 -0.7066
  981MOL0     C32327  10.642   1.740   4.162  0.5589 -0.6805  0.0154
  981MOL0     C32328  10.543   1.773   4.054  0.1435 -0.0691 -1.1437
  981MOL0     C32329  10.639   1.793   4.288  0.6217 -0.1663 -0.3658
  981MOL0     C32330  10.536   1.883   4.346 -0.2194 -1.0241 -0.3086
  981MOL0     O32331  10.578   1.962   4.459  0.1628  0.3676 -1.0176
  981MOL0     C32332  10.484   2.048   4.519 -0.7744  0.8720  0.4419
  981MOL0     C32333  10.483   2.047   4.655  1.2235  0.2561 -0.8452
  981MOL0     C32334  10.411   2.150   4.720  0.0788  0.2491  0.0184
  981MOL0     C32335  10.353   2.262   4.657  0.5509  0.0287  0.2132
  981MOL0     O32336  10.299   2.355   4.735 -0.0126  0.8617 -0.7580
  981MOL0     C32337  10.202   2.444   4.684 -0.5498 -0.3714  0.5941
  981MOL0     C32338  10.160   2.529   4.805  0.2000 -0.0036  0.5719
  981MOL0     C32339  10.282   2.607   4.875  0.0751 -0.2594  0.0641
  981MOL0     C32340  10.340   2.705   4.766  0.0270  0.3901 -0.2015
  981MOL0     C32341  10.469   2.773   4.816  0.3919  0.2542 -0.6935
  981MOL0     C32342  10.521   2.899   4.735 -0.1449  1.0365 -0.6396
  981MOL0     C32343  10.569   2.850   4.592  0.1601  0.2192 -0.0358
  981MOL0     C32344  10.455   2.837   4.487  0.9171 -0.3484  0.0476
  981MOL0    Cl32345  10.509   2.834   4.317  0.3337 -0.1569 -0.2522
  981MOL0     C32346  10.347   2.259   4.509 -0.3479 -0.4495  0.1554
  981MOL0     C32347  10.415   2.148   4.448 -0.4429  0.4294  0.1730
  981MOL0     O32348  10.424   1.885   4.305 -0.2104  0.3525 -0.0454
  981MOL0     C32349  10.742   1.750   4.373 -0.2159 -0.5728  0.1651
  981MOL0     C32350  10.847   1.670   4.336 -0.0195 -0.4353 -0.1526
  981MOL0     N32351  11.117   1.124   4.386 -0.1405  0.9159  1.1911
  981MOL0     N32352  11.085   1.078   4.506 -0.6048 -0.1372 -0.3384
  981MOL0     C32353  10.037   0.582   4.982  0.1674  0.3617  1.0398
  981MOL0     C32354   9.972   0.471   5.028  0.2813 -0.2172  0.1324
  981MOL0     C32355   9.914  -0.004   5.072  0.1672 -1.1535 -0.2781
  981MOL0     C32356   9.782  -0.022   5.072  0.5882  1.2326 -0.5084
  981MOL0     C32357   9.724  -0.111   5.145  0.9630  0.3901 -0.6259
  981MOL0     C32358   9.795  -0.194   5.234  0.5096 -0.0040  0.1258
  981MOL0     O32359   9.730  -0.289   5.318 -0.3067  0.1495  0.7036
  981MOL0     C32360   9.610  -0.349   5.275  0.3589  0.0555  0.2989
  981MOL0     C32361   9.498  -0.277   5.345  0.2780  0.3972  1.0596
  981MOL0     C32362   9.400  -0.392   5.353 -0.4119 -0.2519 -0.5344
  981MOL0     C32363   9.258  -0.356   5.397  0.4573  0.7053  0.5201
  981MOL0     C32364   9.182  -0.464   5.446 -0.2558 -0.1534  0.1021
  981MOL0     C32365   9.103  -0.543   5.496  0.4201 -0.4841 -0.3890
  981MOL0     C32366   9.934  -0.180   5.244 -0.3893 -0.2223  0.2800
  981MOL0     C32367  10.000  -0.082   5.158  1.6899 -0.2581 -1.3295
  981MOL0     H32368  10.017   0.260   4.756  0.1595  1.4562 -0.5776
  981MOL0     H32369  10.113   0.470   4.668  2.4544  3.8455  1.1380
  981MOL0     H32370  10.199   0.641   4.610 -2.8275 -1.6970  2.0146
  981MOL0     H32371  10.058   0.746   4.626  0.5432  3.7511  0.6660
  981MOL0     H32372  10.260   0.869   4.534  2.2933 -1.0492  0.4936
  981MOL0     H32373  10.179   0.937   4.685  1.0267 -0.2035  3.0766
  981MOL0     H32374  10.375   0.854   4.818  3.2910 -1.5327 -0.1164
  981MOL0     H32375  10.438   0.762   4.691 -0.6718 -0.6742  0.4436
  981MOL0     H32376  10.503   0.976   4.580  3.3493  0.2558  1.9217
  981MOL0     H32377  10.398   1.061   4.699 -0.9692 -0.4150 -2.7990
  981MOL0     H32378  10.538   0.959   4.886 -2.7598 -0.2232 -0.8912
  981MOL0     H32379  10.645   0.890   4.761 -0.1707 -1.2299  1.2180
  981MOL0     H32380  10.603   1.192   4.783  2.6815  2.4615  0.4060
  981MOL0     H32381  10.733   1.099   4.863  1.8193 -0.1820 -2.1030
  981MOL0     H32382  10.696   1.112   4.560 -0.5866 -0.8681  0.3410
  981MOL0     H32383  10.796   1.211   4.671  2.0022 -0.7777  2.9366
  981MOL0     H32384  10.822   0.916   4.630 -1.0378  0.2413  2.3052
  981MOL0     H32385  10.947   1.010   4.720  2.0099 -0.3290 -1.1599
  981MOL0     H32386  10.798   1.038   4.351 -0.3815 -1.6295 -1.4559
  981MOL0     H32387  11.010   1.020   4.107  0.8581  0.2538  1.4376
  981MOL0     H32388  10.887   1.148   4.120 -0.0862 -0.5112 -0.6218
  981MOL0     H32389  11.062   1.245   3.987  0.3647  1.6698 -0.5778
  981MOL0     H32390  11.182   1.172   4.109  1.3250  2.9092  1.1937
  981MOL0     H32391  11.130   1.428   4.092  1.3516 -0.8480  1.2097
  981MOL0     H32392  11.146   1.368   4.256 -0.2819 -1.5935  0.1937
  981MOL0     H32393  10.910   1.389   4.298  2.0661  3.6632  1.0998
  981MOL0     H32394  10.870   1.377   4.115  1.0271  1.4596 -3.4070
  981MOL0     H32395  10.743   1.622   4.013  2.0634  0.3578 -0.9674
  981MOL0     H32396  10.558   1.725   3.956 -3.4277 -0.8302 -1.4311
  981MOL0     H32397  10.441   1.752   4.088  0.8153  1.1753  1.9972
  981MOL0     H32398  10.546   1.881   4.037 -1.2933  0.1300 -0.2618
  981MOL0     H32399  10.537   1.973   4.713 -3.5504 -1.5036  1.8572
  981MOL0     H32400  10.409   2.163   4.827 -4.1053  1.0453 -0.0164
  981MOL0     H32401  10.233   2.499   4.595 -3.9575  0.5246 -0.1926
  981MOL0     H32402  10.111   2.389   4.660  0.4898 -2.8522  2.0549
  981MOL0     H32403  10.070   2.588   4.789 -4.4462 -6.0946  0.9386
  981MOL0     H32404  10.128   2.453   4.876  2.0931 -0.0771  1.4074
  981MOL0     H32405  10.364   2.544   4.909  4.9902  2.1931 -5.4964
  981MOL0     H32406  10.241   2.656   4.963 -2.7827 -1.6263 -0.3681
  981MOL0     H32407  10.371   2.636   4.687  0.7817 -2.7946  2.5957
  981MOL0     H32408  10.271   2.781   4.728  0.2786  1.6710  1.7628
  981MOL0     H32409  10.548   2.698   4.812  0.2860  0.1879 -1.6977
  981MOL0     H32410  10.464   2.793   4.924  2.8674  1.9936 -0.8327
  981MOL0     H32411  10.439   2.971   4.743 -2.9186 -2.0260  2.5362
  981MOL0     H32412  10.608   2.939   4.788  1.5671  1.8874 -3.8389
  981MOL0     H32413  10.618   2.753   4.585 -0.5873 -0.0534 -3.5313
  981MOL0     H32414  10.621   2.937   4.550 -0.6830 -0.2044 -2.0567
  981MOL0     H32415  10.390   2.925   4.491 -0.0623 -1.0906  1.9342
  981MOL0     H32416  10.400   2.743   4.498  2.6137 -1.6264 -1.8010
  981MOL0     H32417  10.300   2.345   4.463 -1.2606 -0.8711  0.2696
  981MOL0     H32418  10.418   2.148   4.339  2.5197 -1.4761  0.1343
  981MOL0     H32419  10.756   1.807   4.464 -1.9484  1.0183 -0.4764
  981MOL0     H32420  10.944   1.673   4.385  0.0663 -2.0628 -0.1639
  981MOL0     H32421  10.066   0.664   5.047 -2.2300  0.4228  2.1619
  981MOL0     H32422   9.924   0.467   5.126  0.9810  2.0875  0.6427
  981MOL0     H32423   9.726   0.053   5.018  0.0308  1.6045  0.5562
  981MOL0     H32424   9.615  -0.111   5.147  0.9506  1.4344 -0.8888
  981MOL0     H32425   9.601  -0.332   5.168 -0.5924 -0.5171  0.2819
  981MOL0     H32426   9.620  -0.455   5.297  0.4398 -0.6727 -2.7863
  981MOL0     H32427   9.454  -0.211   5.270 -1.6448 -0.9063  0.9645
  981MOL0     H32428   9.519  -0.217   5.434  1.5361  0.6741  0.5922
  981MOL0     H32429   9.437  -0.462   5.429 -1.1529  1.3115  1.3366
  981MOL0     H32430   9.400  -0.437   5.253  2.3685  0.4604 -0.9305
  981MOL0     H32431   9.211  -0.312   5.309 -3.1760  2.1126  2.9193
  981MOL0     H32432   9.261  -0.272   5.466 -0.2034 -0.0819  1.5352
  981MOL0     H32433   9.037  -0.622   5.526  2.2897 -2.1131 -0.3154
  981MOL0     H32434  10.000  -0.244   5.302  1.7065 -0.5326 -2.2490
  981MOL0     H32435  10.106  -0.065   5.150  1.8345 -0.7459 -0.5855
  982MOL0     O32436   7.067   6.339  11.354 -0.4754 -0.2274 -0.1669
  982MOL0     C32437   7.124   6.445  11.328 -0.4804 -0.4447 -0.3591
  982MOL0     O32438   7.072   6.566  11.340  0.3443  0.3201 -0.2608
  982MOL0     C32439   6.948   6.580  11.393  0.0093 -0.0784 -0.6788
  982MOL0     C32440   6.861   6.669  11.336  1.1095  0.3610  0.0250
  982MOL0     C32441   6.732   6.708  11.395 -0.9722 -0.8950 -0.6618
  982MOL0     C32442   6.698   6.643  11.517 -0.2878 -0.0015  0.2091
  982MOL0     O32443   6.582   6.679  11.585  0.0821  1.1066  0.2661
  982MOL0     C32444   6.543   6.587  11.697 -0.3216 -0.3523  0.2400
  982MOL0     C32445   6.387   6.602  11.719 -0.1831 -0.2717  0.2705
  982MOL0     C32446   6.336   6.556  11.855 -0.4399 -0.1077  0.1814
  982MOL0     C32447   6.203   6.475  11.845 -0.8797 -0.5803 -0.1046
  982MOL0     C32448   6.088   6.554  11.763 -0.0292  0.6778  0.3639
  982MOL0     C32449   6.063   6.711  11.772  0.8865  0.0941 -0.4994
  982MOL0     C32450   5.942   6.735  11.682  0.3726  0.1229 -0.1440
  982MOL0     C32451   5.844   6.849  11.727  0.4404  0.4725 -0.7876
  982MOL0     N32452   5.724   6.858  11.642 -0.5123  0.5879 -0.2468
  982MOL0     C32453   5.599   6.881  11.694  0.7886 -0.0863 -0.4565
  982MOL0     C32454   5.523   6.871  11.583  1.1108 -0.4644 -0.1550
  982MOL0     C32455   5.370   6.897  11.555 -0.3439  0.3264 -0.1755
  982MOL0     C32456   5.274   6.820  11.645  1.0820  1.0491 -0.1023
  982MOL0     C32457   5.129   6.853  11.616 -0.3738  0.1808  0.4868
  982MOL0     C32458   5.082   6.983  11.674 -0.4256  0.1620  0.6384
  982MOL0     O32459   5.116   7.103  11.589 -0.6344  0.5360  0.4836
  982MOL0     C32460   5.122   7.227  11.651 -0.1884 -0.1543  0.4679
  982MOL0     C32461   5.169   7.340  11.581  0.0413  0.1750 -0.4059
  982MOL0     C32462   5.184   7.468  11.637 -0.1068  0.3640 -0.2488
  982MOL0     C32463   5.240   7.585  11.561  0.2821 -0.1344  1.4345
  982MOL0     C32464   5.133   7.485  11.766 -0.6001  0.0738  0.2007
  982MOL0     C32465   5.127   7.627  11.828  0.1316 -0.0116 -0.6267
  982MOL0     O32466   5.233   7.697  11.830 -0.7894  0.2861  0.2294
  982MOL0     C32467   5.245   7.817  11.894 -0.4549 -0.3664  0.9945
  982MOL0     C32468   5.325   7.914  11.830 -0.7884 -0.4645 -0.5759
  982MOL0     C32469   5.344   8.038  11.888  0.6726  0.9965 -0.7735
  982MOL0     C32470   5.286   8.065  12.012  0.1974  1.1447 -0.5117
  982MOL0     O32471   5.289   8.182  12.075  0.4772 -0.1847  0.3648
  982MOL0     C32472   5.345   8.299  12.027  0.2057  0.2198 -0.1556
  982MOL0     C32473   5.244   8.408  12.004 -0.1388 -0.3674  0.9167
  982MOL0     C32474   5.177   8.354  11.879  0.3142  1.1028  0.2053
  982MOL0     C32475   5.081   8.457  11.814  0.5421 -1.0785  0.1669
  982MOL0     C32476   5.048   8.415  11.660 -0.2994  0.7149  0.1429
  982MOL0     C32477   4.980   8.284  11.645  1.4038  0.6920  0.6375
  982MOL0     C32478   5.069   8.185  11.588 -0.0837  0.0704  0.1599
  982MOL0     C32479   5.028   8.040  11.585  0.3755  0.2672  0.6286
  982MOL0    Cl32480   4.903   8.048  11.442  0.3658  0.1887  0.0177
  982MOL0     C32481   5.202   7.971  12.076 -0.6281 -0.2635  0.8846
  982MOL0     C32482   5.183   7.852  12.012  0.0555  0.4944  0.2295
  982MOL0     O32483   5.026   7.638  11.899  0.0804 -0.5149 -0.4464
  982MOL0     C32484   5.082   7.374  11.835 -0.2302 -0.4275  0.1725
  982MOL0     C32485   5.071   7.246  11.781 -0.8617  0.0910  0.2995
  982MOL0     N32486   5.597   6.848  11.469 -0.2192 -0.2686 -0.3858
  982MOL0     N32487   5.723   6.849  11.504  0.4105 -0.3006 -0.0347
  982MOL0     C32488   6.793   6.547  11.575  0.7456 -0.5694 -0.6034
  982MOL0     C32489   6.912   6.522  11.513  0.6549  0.3470 -0.5998
  982MOL0     C32490   7.258   6.440  11.290  0.6743  1.0418  0.8610
  982MOL0     C32491   7.339   6.550  11.283  0.0554 -0.0220  0.2650
  982MOL0     C32492   7.477   6.552  11.240  0.1888  0.0412 -0.1302
  982MOL0     C32493   7.546   6.438  11.203 -0.5395 -0.0413  0.0785
  982MOL0     O32494   7.677   6.421  11.167  0.2661 -0.2375 -0.1531
  982MOL0     C32495   7.771   6.535  11.173  0.9608  1.1326  0.4891
  982MOL0     C32496   7.758   6.631  11.053  0.3740 -0.5272 -1.1437
  982MOL0     C32497   7.828   6.772  11.071 -0.0877 -0.8553  0.1125
  982MOL0     C32498   7.920   6.817  10.960  0.4950  0.1770 -0.0055
  982MOL0     C32499   7.850   6.814  10.830 -0.2172  1.7661  0.0239
  982MOL0     C32500   7.785   6.789  10.732  1.0374 -0.2989  0.0173
  982MOL0     C32501   7.459   6.320  11.215  0.1253 -0.0970 -0.6311
  982MOL0     C32502   7.319   6.316  11.255  0.0882 -0.3083  0.5081
  982MOL0     H32503   6.893   6.714  11.242 -3.4306  1.6645 -1.1522
  982MOL0     H32504   6.669   6.785  11.351  0.8207  0.4926 -0.8983
  982MOL0     H32505   6.566   6.485  11.665  2.1433  0.6265 -1.3878
  982MOL0     H32506   6.607   6.621  11.779  0.6323  1.3085 -1.1309
  982MOL0     H32507   6.357   6.706  11.705 -1.9486 -0.3689  2.8380
  982MOL0     H32508   6.345   6.546  11.634 -1.0209 -2.1524  1.8507
  982MOL0     H32509   6.409   6.499  11.912  0.8395  0.5122 -0.7811
  982MOL0     H32510   6.306   6.639  11.919 -1.8549 -1.3127  1.1391
  982MOL0     H32511   6.221   6.375  11.806 -3.1606  0.2273 -3.7307
  982MOL0     H32512   6.157   6.470  11.944 -2.8905  2.9873 -0.6733
  982MOL0     H32513   6.122   6.525  11.663 -1.1869  1.0276 -0.1446
  982MOL0     H32514   5.991   6.510  11.788  0.2432 -0.8412 -1.0825
  982MOL0     H32515   6.043   6.724  11.879  2.3558 -2.9759  0.2950
  982MOL0     H32516   6.152   6.774  11.761  0.9075  0.5981  2.0321
  982MOL0     H32517   5.983   6.759  11.583 -1.7677  0.5462 -0.9868
  982MOL0     H32518   5.879   6.645  11.682  0.3760  0.0679  2.3469
  982MOL0     H32519   5.903   6.941  11.731 -3.6361  3.2814  0.7065
  982MOL0     H32520   5.818   6.825  11.830 -0.4499  0.2037 -1.0680
  982MOL0     H32521   5.558   6.893  11.793 -0.1676  0.4677 -0.9073
  982MOL0     H32522   5.336   7.001  11.552 -0.1276  0.3774 -2.6193
  982MOL0     H32523   5.348   6.868  11.452 -3.6149  1.0002  0.2289
  982MOL0     H32524   5.294   6.842  11.751 -2.2901 -0.9828  1.1205
  982MOL0     H32525   5.288   6.713  11.628 -0.4916  0.8774 -0.3917
  982MOL0     H32526   5.072   6.763  11.640 -3.4617  1.7262 -0.4947
  982MOL0     H32527   5.098   6.849  11.511 -1.6680  2.4624  0.7027
  982MOL0     H32528   5.141   6.994  11.765 -1.2002  1.2132  1.0408
  982MOL0     H32529   4.976   6.974  11.701  0.4373 -1.5019  3.9739
  982MOL0     H32530   5.216   7.328  11.484 -1.6567  1.2235 -1.4115
  982MOL0     H32531   5.344   7.557  11.540  0.3562  0.1543  1.4064
  982MOL0     H32532   5.189   7.588  11.464  0.9975  0.7611  1.0652
  982MOL0     H32533   5.226   7.685  11.605  0.0571  0.3339  0.3230
  982MOL0     H32534   5.370   7.885  11.736 -1.8107 -0.1524 -1.1778
  982MOL0     H32535   5.408   8.108  11.835  2.0072 -1.1724 -2.2043
  982MOL0     H32536   5.412   8.334  12.106 -0.2652  0.7755  0.0065
  982MOL0     H32537   5.414   8.290  11.943  0.7048  3.5620 -0.2477
  982MOL0     H32538   5.164   8.412  12.079  0.8921  0.4266  2.0226
  982MOL0     H32539   5.298   8.502  11.991  0.4624 -0.7683  0.4587
  982MOL0     H32540   5.102   8.279  11.907 -0.1105  1.4619  0.0481
  982MOL0     H32541   5.239   8.312  11.799 -4.6240 -1.5844 -2.7798
  982MOL0     H32542   4.989   8.450  11.873  0.4652 -0.5996  0.1071
  982MOL0     H32543   5.118   8.560  11.818 -2.0234 -0.0164 -0.9459
  982MOL0     H32544   5.137   8.427  11.597 -0.9479 -0.3381 -1.0146
  982MOL0     H32545   4.983   8.497  11.627 -1.2805 -0.1137 -0.0297
  982MOL0     H32546   4.925   8.262  11.737  2.7263  0.5131  1.4103
  982MOL0     H32547   4.900   8.309  11.575  1.4373 -1.5089 -0.2665
  982MOL0     H32548   5.157   8.185  11.653  1.5537 -1.1110 -1.9175
  982MOL0     H32549   5.094   8.224  11.489  2.2439  5.1409  2.4113
  982MOL0     H32550   4.987   7.999  11.677 -3.8057  1.9563 -0.2382
  982MOL0     H32551   5.105   7.968  11.558  1.2628  0.9145  1.3619
  982MOL0     H32552   5.162   7.994  12.174  1.5410  2.5863  1.2387
  982MOL0     H32553   5.126   7.775  12.063 -1.3467  0.7302 -0.9057
  982MOL0     H32554   5.042   7.394  11.934  1.0895 -0.8400  0.8247
  982MOL0     H32555   5.015   7.167  11.830 -1.2544  0.6773  0.8233
  982MOL0     H32556   6.798   6.501  11.674 -2.0433 -3.2169 -1.5359
  982MOL0     H32557   6.988   6.469  11.568 -0.5609  0.0782  0.8800
  982MOL0     H32558   7.306   6.647  11.318  0.5614 -0.0171  0.7285
  982MOL0     H32559   7.542   6.639  11.246  1.9726 -1.3017  4.4251
  982MOL0     H32560   7.766   6.589  11.268  1.9076 -0.5650  1.5564
  982MOL0     H32561   7.874   6.498  11.165  0.7767  0.8881 -1.1902
  982MOL0     H32562   7.652   6.655  11.038  0.8702  2.3971 -0.4893
  982MOL0     H32563   7.783   6.588  10.956 -0.6444  1.0471 -2.1482
  982MOL0     H32564   7.894   6.769  11.158 -1.4519 -2.3194  1.1489
  982MOL0     H32565   7.759   6.855  11.092 -1.2674 -1.6921 -0.3573
  982MOL0     H32566   8.007   6.751  10.945 -0.9097 -1.3633 -1.7947
  982MOL0     H32567   7.949   6.918  10.992  1.9697 -1.1067  3.1228
  982MOL0     H32568   7.747   6.759  10.636  1.3147  1.6535 -0.7660
  982MOL0     H32569   7.518   6.232  11.189  5.3681  3.0548 -0.7983
  982MOL0     H32570   7.259   6.226  11.263 -0.1796 -0.4922 -2.4996
  983MOL0     O32571   9.650  10.475   7.280 -0.9256 -0.3713  0.0733
  983MOL0     C32572   9.569  10.528   7.211 -0.3655  0.6702  0.3045
  983MOL0     O32573   9.497  10.640   7.251  0.6533  0.4530 -0.2190
  983MOL0     C32574   9.494  10.691   7.377  0.2041 -0.5704  0.0497
  983MOL0     C32575   9.502  10.625   7.503 -0.1892 -0.8065  0.3093
  983MOL0     C32576   9.474  10.703   7.613  0.8453  0.7618 -0.8206
  983MOL0     C32577   9.447  10.837   7.622  0.6035  1.0006  0.3358
  983MOL0     O32578   9.430  10.910   7.737 -0.0334 -0.1115  0.8384
  983MOL0     C32579   9.392  10.842   7.859  0.3520  0.1567  0.5893
  983MOL0     C32580   9.377  10.947   7.979 -0.9005  0.4484  0.2155
  983MOL0     C32581   9.510  11.045   7.986  0.9549 -0.6623  0.2238
  983MOL0     C32582   9.478  11.163   8.083  0.1141  0.9970  0.1539
  983MOL0     C32583   9.571  11.276   8.085  0.5296 -0.3768 -1.0302
  983MOL0     C32584   9.690  11.240   8.171 -1.3770 -0.3935  0.0620
  983MOL0     C32585   9.785  11.360   8.141  0.5104  0.5389 -0.2979
  983MOL0     C32586   9.923  11.340   8.204  0.4260  0.0151 -1.1664
  983MOL0     N32587   9.991  11.208   8.190  0.0228 -0.1692 -0.0286
  983MOL0     C32588   9.985  11.112   8.285  0.6140  1.1663 -0.3317
  983MOL0     C32589  10.012  10.993   8.213  0.6920 -0.2381 -0.9340
  983MOL0     C32590  10.003  10.851   8.263  0.4947 -0.0647 -0.2945
  983MOL0     C32591  10.137  10.810   8.315 -0.0748 -0.4211  0.4391
  983MOL0     C32592  10.256  10.849   8.238 -0.3281  0.0171  0.7307
  983MOL0     C32593  10.254  10.768   8.107  0.4715  0.5567 -0.0169
  983MOL0     O32594  10.383  10.776   8.046 -0.2423 -0.4281  0.2025
  983MOL0     C32595  10.421  10.894   7.987  0.8327 -0.1371  0.7252
  983MOL0     C32596  10.347  10.935   7.872 -0.1182  0.2528 -0.5582
  983MOL0     C32597  10.371  11.064   7.809  0.7363  0.2574 -0.0343
  983MOL0     C32598  10.273  11.096   7.699  0.6988 -0.9798 -0.5384
  983MOL0     C32599  10.485  11.139   7.847 -0.4198  0.6711 -0.4196
  983MOL0     C32600  10.527  11.266   7.783 -0.4488 -1.1710  0.1906
  983MOL0     O32601  10.664  11.286   7.804 -0.4964 -0.3647 -0.5409
  983MOL0     C32602  10.731  11.383   7.739 -0.0222 -0.5943  0.6765
  983MOL0     C32603  10.678  11.509   7.731 -0.2012 -0.6062 -1.4076
  983MOL0     C32604  10.740  11.612   7.662 -0.4987  0.3112 -0.5957
  983MOL0     C32605  10.861  11.584   7.594 -0.0879 -0.5356 -0.8728
  983MOL0     O32606  10.932  11.684   7.536 -0.3228  0.3416  0.2779
  983MOL0     C32607  11.054  11.660   7.456 -0.3828 -0.7071  0.7971
  983MOL0     C32608  11.079  11.789   7.376 -0.1989  0.5838  0.8614
  983MOL0     C32609  10.962  11.833   7.288  0.5325 -0.2834 -0.1984
  983MOL0     C32610  11.003  11.968   7.222 -0.3474 -0.8461 -0.0869
  983MOL0     C32611  10.901  12.038   7.146 -0.1889 -1.1971 -0.1876
  983MOL0     C32612  10.780  12.077   7.222  1.1691  0.1977 -0.4435
  983MOL0     C32613  10.655  12.014   7.153 -0.0974 -0.2029  0.0648
  983MOL0     C32614  10.526  12.080   7.205 -0.1411  0.0969  0.4747
  983MOL0    Cl32615  10.521  12.259   7.202  0.0884  0.2390 -0.7857
  983MOL0     C32616  10.912  11.452   7.582 -0.1828  0.7438 -0.2728
  983MOL0     C32617  10.845  11.353   7.662  0.3340  0.3204 -0.8399
  983MOL0     O32618  10.470  11.318   7.691  0.2366 -0.2535 -0.2994
  983MOL0     C32619  10.564  11.087   7.955  0.2484 -0.1038  0.7734
  983MOL0     C32620  10.532  10.958   8.016 -0.4043  0.6350 -0.1332
  983MOL0     N32621  10.040  11.027   8.077 -0.2176 -0.1192  0.5120
  983MOL0     N32622  10.034  11.161   8.069 -0.2381  0.3727  0.4707
  983MOL0     C32623   9.434  10.894   7.494 -0.0039 -1.3069  0.2398
  983MOL0     C32624   9.459  10.830   7.368 -0.0419  0.6044 -0.7156
  983MOL0     C32625   9.555  10.476   7.075 -0.1065 -0.0870 -0.1394
  983MOL0     C32626   9.499  10.557   6.975 -0.7092  0.1983  0.2426
  983MOL0     C32627   9.473  10.511   6.843 -0.1517 -0.5427  0.3394
  983MOL0     C32628   9.520  10.385   6.803  0.0197  0.0641  0.3931
  983MOL0     O32629   9.496  10.338   6.674 -1.8626 -0.4198  0.0499
  983MOL0     C32630   9.452  10.198   6.671  0.9674 -0.5499  0.2766
  983MOL0     C32631   9.549  10.101   6.612  0.3903  1.0115  0.5895
  983MOL0     C32632   9.479   9.967   6.636  0.0864 -0.0464  0.4634
  983MOL0     C32633   9.549   9.849   6.554  0.6629  0.3630  0.3928
  983MOL0     C32634   9.694   9.848   6.568  0.6528  0.4729 -0.7162
  983MOL0     C32635   9.815   9.856   6.589 -0.4719  0.6112  0.7102
  983MOL0     C32636   9.587  10.305   6.895  0.6871  0.2645  0.3667
  983MOL0     C32637   9.606  10.352   7.030  0.0815 -0.7344  0.3902
  983MOL0     H32638   9.537  10.522   7.503 -1.0314 -1.1041  0.4961
  983MOL0     H32639   9.492  10.632   7.693 -1.1660 -1.7670 -2.4516
  983MOL0     H32640   9.293  10.797   7.845 -0.5534  1.5771  2.0726
  983MOL0     H32641   9.468  10.768   7.884  0.3241 -0.8730 -1.9931
  983MOL0     H32642   9.297  11.018   7.957  0.4143  1.8768 -0.1238
  983MOL0     H32643   9.353  10.895   8.073 -0.9073  2.8705  1.6430
  983MOL0     H32644   9.592  10.990   8.032 -0.2143 -1.8988  0.8950
  983MOL0     H32645   9.528  11.092   7.888 -2.0204  2.3215  0.9226
  983MOL0     H32646   9.382  11.199   8.045 -0.0588 -2.7027 -3.6439
  983MOL0     H32647   9.462  11.123   8.184  1.0981 -1.0110 -0.4536
  983MOL0     H32648   9.603  11.308   7.985  1.8183 -1.4646 -0.9955
  983MOL0     H32649   9.526  11.363   8.132  1.4814 -0.5732  0.2998
  983MOL0     H32650   9.675  11.237   8.280 -1.8926  5.2280  0.4171
  983MOL0     H32651   9.732  11.151   8.122 -2.3287  1.0562 -3.6889
  983MOL0     H32652   9.802  11.373   8.034  1.3105 -0.7783 -0.3492
  983MOL0     H32653   9.750  11.455   8.182  0.8183  0.9682 -1.0114
  983MOL0     H32654   9.917  11.363   8.311  1.2208  1.9325 -1.4776
  983MOL0     H32655   9.997  11.408   8.160  0.1117 -0.5106 -2.5373
  983MOL0     H32656   9.952  11.121   8.388 -0.7480 -2.6020 -0.2622
  983MOL0     H32657   9.940  10.836   8.351  3.4746 -5.5894  1.3780
  983MOL0     H32658   9.972  10.784   8.182  0.7776 -0.5601  0.0012
  983MOL0     H32659  10.129  10.701   8.330 -0.5668 -0.1905  2.1033
  983MOL0     H32660  10.139  10.863   8.411 -0.5475  1.7008 -0.6833
  983MOL0     H32661  10.346  10.813   8.288  0.6116 -1.2276 -1.6840
  983MOL0     H32662  10.268  10.954   8.209 -0.5173 -0.3806 -0.8873
  983MOL0     H32663  10.173  10.803   8.042  0.1762 -1.1719 -0.6376
  983MOL0     H32664  10.248  10.661   8.132  2.4113  0.6168  0.8991
  983MOL0     H32665  10.255  10.885   7.844 -0.0387  1.6093 -3.5507
  983MOL0     H32666  10.304  11.175   7.630  1.7077  2.2083  3.2402
  983MOL0     H32667  10.244  11.003   7.648  0.1368 -0.4974 -1.1218
  983MOL0     H32668  10.185  11.142   7.745  2.5074 -0.1699  2.3522
  983MOL0     H32669  10.589  11.530   7.789 -0.8837  0.8247 -2.9132
  983MOL0     H32670  10.703  11.711   7.686 -2.4261 -0.4710 -0.1521
  983MOL0     H32671  11.147  11.631   7.504  0.3195 -1.9163 -1.1719
  983MOL0     H32672  11.035  11.578   7.386 -1.7554 -0.1818  0.5140
  983MOL0     H32673  11.106  11.863   7.452  1.9656  0.6292  0.1190
  983MOL0     H32674  11.170  11.774   7.317  0.9806  0.0859  2.6992
  983MOL0     H32675  10.869  11.843   7.345  0.2878  0.5809 -0.7277
  983MOL0     H32676  10.955  11.763   7.204  0.3413  1.1656 -1.4321
  983MOL0     H32677  11.040  12.025   7.308 -2.4839 -2.7144  2.2274
  983MOL0     H32678  11.099  11.961   7.170  2.0681  1.0698  3.6801
  983MOL0     H32679  10.874  11.971   7.064 -0.7424 -1.2799  0.0593
  983MOL0     H32680  10.939  12.125   7.092 -2.4964 -1.3454 -2.1990
  983MOL0     H32681  10.783  12.040   7.326  0.3838 -2.4277 -1.2685
  983MOL0     H32682  10.782  12.186   7.223  3.0223  0.1900  0.3459
  983MOL0     H32683  10.656  11.905   7.161 -1.3339 -0.3771 -1.6362
  983MOL0     H32684  10.682  12.046   7.052 -0.7320 -0.0129 -0.0492
  983MOL0     H32685  10.494  12.029   7.296 -3.9561 -1.0807 -1.3489
  983MOL0     H32686  10.446  12.043   7.141  0.5570  0.0255 -0.3631
  983MOL0     H32687  10.999  11.424   7.524 -1.2998  1.7735 -2.5641
  983MOL0     H32688  10.881  11.250   7.661 -0.5103 -0.0577  1.6659
  983MOL0     H32689  10.648  11.137   8.002  0.7256 -1.9302  2.0032
  983MOL0     H32690  10.588  10.921   8.101 -0.9912 -0.2873 -0.1263
  983MOL0     H32691   9.406  10.999   7.494  1.2734 -0.9120  1.9481
  983MOL0     H32692   9.451  10.883   7.273  0.2967  2.0257  0.0217
  983MOL0     H32693   9.467  10.660   6.989 -1.7451  0.5400 -3.5026
  983MOL0     H32694   9.420  10.568   6.768  0.1383 -3.9845 -2.7215
  983MOL0     H32695   9.414  10.158   6.765 -3.0039 -2.6555 -1.9454
  983MOL0     H32696   9.366  10.190   6.603  0.7554 -0.3652  0.5199
  983MOL0     H32697   9.652  10.098   6.649  1.5303 -3.0552 -2.1507
  983MOL0     H32698   9.558  10.124   6.505  1.6547  3.9963  1.2306
  983MOL0     H32699   9.380   9.970   6.590  1.3154 -0.7513 -2.4188
  983MOL0     H32700   9.481   9.945   6.743 -0.8939 -0.7573  0.3474
  983MOL0     H32701   9.530   9.844   6.447 -0.1859 -3.7601  0.6012
  983MOL0     H32702   9.505   9.761   6.601  2.0535 -0.3417  0.4181
  983MOL0     H32703   9.920   9.857   6.613 -0.5633  0.2294  1.1459
  983MOL0     H32704   9.632  10.208   6.879  1.0161  0.5389 -0.4369
  983MOL0     H32705   9.665  10.291   7.098  0.3311  0.3335  1.1759
  984MOL0     O32706   9.894   4.356   3.862  0.9324  0.4076 -0.1336
  984MOL0     C32707   9.904   4.330   3.980  0.0515  0.6554  0.3811
  984MOL0     O32708  10.012   4.360   4.057  0.5474 -0.2366  0.3930
  984MOL0     C32709  10.129   4.427   4.014  1.7746  0.0791  0.7655
  984MOL0     C32710  10.225   4.468   4.108 -0.5216 -1.4465  0.1925
  984MOL0     C32711  10.356   4.514   4.065 -0.2240 -0.0155 -0.5617
  984MOL0     C32712  10.402   4.491   3.938 -0.0628  1.1249 -0.3312
  984MOL0     O32713  10.530   4.527   3.908 -0.2391 -0.3839 -1.3586
  984MOL0     C32714  10.589   4.532   3.778  0.0460 -1.0438  0.0692
  984MOL0     C32715  10.740   4.565   3.783  1.3026  0.1039  0.4593
  984MOL0     C32716  10.773   4.697   3.849 -0.1336 -0.6589 -0.3947
  984MOL0     C32717  10.919   4.741   3.845 -0.3783 -1.0742  0.2696
  984MOL0     C32718  10.953   4.862   3.936  0.2221 -0.4299 -0.2633
  984MOL0     C32719  11.095   4.901   3.967  0.3977 -0.1963 -0.0236
  984MOL0     C32720  11.182   4.897   3.833 -0.1289 -1.0277  0.1372
  984MOL0     C32721  11.159   5.022   3.740 -0.3362 -1.0157 -0.1751
  984MOL0     N32722  11.283   5.075   3.684 -0.6346  0.1683  0.0953
  984MOL0     C32723  11.385   5.132   3.759  0.1389  0.1956 -0.3383
  984MOL0     C32724  11.478   5.159   3.668  0.5979  0.1138  0.2839
  984MOL0     C32725  11.612   5.222   3.689 -0.0193  0.1851  0.0442
  984MOL0     C32726  11.615   5.367   3.748 -0.6302 -0.2032  0.0167
  984MOL0     C32727  11.614   5.373   3.899 -0.3258 -0.3273 -0.0989
  984MOL0     C32728  11.697   5.493   3.940 -0.0556 -0.6606 -0.0445
  984MOL0     O32729  11.694   5.510   4.081 -0.0328 -0.2275  0.1842
  984MOL0     C32730  11.712   5.631   4.148  0.0021  0.4356 -0.9024
  984MOL0     C32731  11.785   5.742   4.104  1.0667  0.1414 -0.5599
  984MOL0     C32732  11.804   5.857   4.183  0.5105  0.2494  0.1756
  984MOL0     C32733  11.875   5.968   4.105 -0.3473 -0.2563 -0.0310
  984MOL0     C32734  11.732   5.860   4.307 -1.0258 -1.3041 -1.7447
  984MOL0     C32735  11.737   5.987   4.389  0.0330 -0.2266 -0.5760
  984MOL0     O32736  11.698   6.095   4.317  0.1026 -0.0651  0.8095
  984MOL0     C32737  11.637   6.205   4.372 -0.4890 -0.2959  0.2256
  984MOL0     C32738  11.524   6.208   4.456  0.1836  0.5319 -1.0366
  984MOL0     C32739  11.463   6.323   4.491  0.2630  0.2082  0.8604
  984MOL0     C32740  11.507   6.444   4.423  0.6334 -0.0545  0.0700
  984MOL0     O32741  11.457   6.574   4.434  0.4400  0.1350  0.0563
  984MOL0     C32742  11.337   6.598   4.509  0.7442  1.0485 -1.3547
  984MOL0     C32743  11.290   6.742   4.497 -0.2491 -0.6991 -0.7003
  984MOL0     C32744  11.197   6.804   4.612 -0.1852  0.0087  0.0686
  984MOL0     C32745  11.172   6.723   4.738 -0.6929  0.7514 -0.0556
  984MOL0     C32746  11.112   6.805   4.848 -0.0128 -0.4398  0.8447
  984MOL0     C32747  11.036   6.726   4.956  0.1510 -0.1754 -0.2189
  984MOL0     C32748  10.932   6.806   5.041  0.8505 -0.0051  0.1255
  984MOL0     C32749  10.931   6.751   5.185 -0.4778  0.7479 -0.8555
  984MOL0    Cl32750  10.798   6.837   5.274 -0.0925 -0.1211  0.0408
  984MOL0     C32751  11.611   6.442   4.340  0.6917  0.5995  1.8978
  984MOL0     C32752  11.679   6.324   4.304 -0.6024  0.1811 -0.6552
  984MOL0     O32753  11.742   5.978   4.512 -0.0380 -0.2945 -0.5048
  984MOL0     C32754  11.646   5.759   4.354 -0.0768 -0.7789 -0.2476
  984MOL0     C32755  11.640   5.640   4.275 -0.4786  0.3936 -0.4571
  984MOL0     N32756  11.429   5.118   3.544 -0.6379  0.2921  1.2249
  984MOL0     N32757  11.313   5.072   3.553 -0.2740  0.8215 -0.2142
  984MOL0     C32758  10.305   4.442   3.844 -0.1365 -0.1906 -0.3700
  984MOL0     C32759  10.174   4.423   3.878  0.6050 -0.5958 -0.6054
  984MOL0     C32760   9.795   4.256   4.047 -0.3468  1.2848 -0.5720
  984MOL0     C32761   9.771   4.276   4.182  0.3352 -0.2637  0.6525
  984MOL0     C32762   9.668   4.207   4.249 -0.2054 -0.1757 -0.3382
  984MOL0     C32763   9.602   4.099   4.181  0.4119 -0.0416  0.5710
  984MOL0     O32764   9.503   4.034   4.237 -0.2071  0.4630  0.5098
  984MOL0     C32765   9.546   3.972   4.360  0.0660  0.5939 -0.8950
  984MOL0     C32766   9.490   3.831   4.364  0.2770  0.3431  0.0500
  984MOL0     C32767   9.572   3.738   4.272  0.8439 -0.2081 -0.0547
  984MOL0     C32768   9.528   3.595   4.262  0.0301 -0.5683 -0.4836
  984MOL0     C32769   9.537   3.539   4.404 -0.1418 -0.2451 -0.2140
  984MOL0     C32770   9.560   3.480   4.507  0.2628  0.7982 -0.0802
  984MOL0     C32771   9.633   4.072   4.047 -0.4546 -0.9325  0.3043
  984MOL0     C32772   9.727   4.152   3.982  0.8972  0.2555  0.0611
  984MOL0     H32773  10.181   4.486   4.205 -3.7419  2.2330 -1.6325
  984MOL0     H32774  10.416   4.556   4.144 -0.9403  1.1696 -0.6266
  984MOL0     H32775  10.581   4.431   3.736 -4.9365 -1.8581  2.2076
  984MOL0     H32776  10.536   4.593   3.703 -0.0605 -2.0021 -0.6530
  984MOL0     H32777  10.787   4.479   3.831  0.8960 -1.7569 -2.2358
  984MOL0     H32778  10.779   4.563   3.681 -0.4405 -0.7734 -0.2367
  984MOL0     H32779  10.707   4.777   3.814 -2.7605 -0.3815  4.3408
  984MOL0     H32780  10.746   4.678   3.954 -1.2877 -0.3680 -0.6237
  984MOL0     H32781  10.986   4.662   3.879  0.1583  0.1637  2.2797
  984MOL0     H32782  10.950   4.763   3.742  1.3683 -0.4954  0.8844
  984MOL0     H32783  10.894   4.943   3.894  0.6445  1.5520  2.6499
  984MOL0     H32784  10.904   4.829   4.029  0.8769  0.8715  0.5622
  984MOL0     H32785  11.102   4.989   4.031 -1.5490  0.5143 -0.7079
  984MOL0     H32786  11.149   4.824   4.022  0.1679  0.1210  0.6580
  984MOL0     H32787  11.286   4.897   3.866  0.2415 -2.5295 -0.9214
  984MOL0     H32788  11.181   4.802   3.779  1.3948  0.4182 -2.7179
  984MOL0     H32789  11.111   5.099   3.802 -2.4177 -3.3670  1.3428
  984MOL0     H32790  11.098   5.007   3.651  1.8516 -0.4474 -1.8892
  984MOL0     H32791  11.365   5.163   3.861 -2.4668 -1.6716 -0.1717
  984MOL0     H32792  11.661   5.146   3.750  0.6901 -0.6140 -1.4744
  984MOL0     H32793  11.667   5.240   3.596 -0.1334  1.3438  0.1858
  984MOL0     H32794  11.530   5.416   3.700 -1.2684 -0.8132  0.5139
  984MOL0     H32795  11.707   5.410   3.706 -0.4804 -1.1602 -0.6560
  984MOL0     H32796  11.652   5.289   3.957  0.5732  0.2296  0.1271
  984MOL0     H32797  11.515   5.384   3.945 -0.3782 -1.0787 -0.0217
  984MOL0     H32798  11.662   5.590   3.903 -0.4669 -0.8090 -0.0460
  984MOL0     H32799  11.797   5.477   3.898 -0.3421 -1.3366 -0.4852
  984MOL0     H32800  11.835   5.740   4.007  2.7281  0.5059  0.2578
  984MOL0     H32801  11.866   6.073   4.133  2.0041  0.1851 -0.6731
  984MOL0     H32802  11.980   5.959   4.133 -0.1329  0.7484 -0.4682
  984MOL0     H32803  11.870   5.953   3.996  2.5655 -4.0741  0.1397
  984MOL0     H32804  11.494   6.117   4.507  1.0952  0.4336 -0.6506
  984MOL0     H32805  11.387   6.316   4.568  0.7121  0.5945  1.3424
  984MOL0     H32806  11.264   6.516   4.499  0.3114  1.2974 -0.3909
  984MOL0     H32807  11.377   6.586   4.610  0.1380  2.7485 -0.8790
  984MOL0     H32808  11.382   6.799   4.511 -0.7416  0.0646 -0.5054
  984MOL0     H32809  11.245   6.759   4.399  0.7807 -1.3486 -1.3068
  984MOL0     H32810  11.100   6.822   4.566  0.1971 -0.1912 -0.8391
  984MOL0     H32811  11.240   6.902   4.635  2.0802 -0.8829 -0.0482
  984MOL0     H32812  11.108   6.640   4.707 -0.5522 -0.7428  3.2139
  984MOL0     H32813  11.262   6.670   4.771 -0.2591  1.5760  0.1014
  984MOL0     H32814  11.032   6.870   4.810 -1.5667 -0.3886  3.8667
  984MOL0     H32815  11.190   6.868   4.891  0.8208 -0.1337 -1.0436
  984MOL0     H32816  10.973   6.649   4.910 -2.3136  2.2925 -1.2746
  984MOL0     H32817  11.117   6.690   5.020 -1.8735  0.3209  2.8088
  984MOL0     H32818  10.833   6.788   4.998  1.1278 -1.5281  0.0836
  984MOL0     H32819  10.951   6.914   5.047  1.5542 -0.1239  0.0634
  984MOL0     H32820  11.031   6.750   5.230 -0.4797 -1.0856 -0.8201
  984MOL0     H32821  10.894   6.649   5.178  0.1197  0.2298  2.2343
  984MOL0     H32822  11.634   6.535   4.289 -1.6410  0.6412  0.7787
  984MOL0     H32823  11.763   6.316   4.236  0.0040  0.0373  0.0918
  984MOL0     H32824  11.580   5.769   4.439  0.9774  2.1554  0.3345
  984MOL0     H32825  11.571   5.560   4.297 -0.6568  0.5630 -0.4007
  984MOL0     H32826  10.322   4.428   3.738  2.1412  2.2129 -0.4268
  984MOL0     H32827  10.106   4.388   3.800 -2.0389  3.2397 -0.2881
  984MOL0     H32828   9.829   4.345   4.242  1.6251 -1.2792  0.6322
  984MOL0     H32829   9.648   4.225   4.354 -0.6147 -3.5194  0.2625
  984MOL0     H32830   9.654   3.964   4.375 -0.0082  0.9126 -0.1203
  984MOL0     H32831   9.496   4.029   4.439  2.7483  1.2965  0.4422
  984MOL0     H32832   9.387   3.834   4.327  0.5057 -0.1668 -0.6411
  984MOL0     H32833   9.492   3.788   4.465 -1.8287  0.0283  0.0048
  984MOL0     H32834   9.679   3.744   4.291  0.7641  0.9975  0.1293
  984MOL0     H32835   9.570   3.777   4.170  0.9170 -2.2509 -0.8771
  984MOL0     H32836   9.598   3.548   4.192  0.4350 -1.0621  0.2433
  984MOL0     H32837   9.428   3.594   4.217  0.2835 -1.1942 -1.0368
  984MOL0     H32838   9.599   3.427   4.592 -0.1455  1.0667  0.2791
  984MOL0     H32839   9.569   3.999   3.998 -1.4877 -0.0703  0.3144
  984MOL0     H32840   9.749   4.155   3.876 -0.3081  1.7198 -0.1890
  985MOL0     O32841   2.119   4.845  10.190 -0.2876  0.2041 -0.4783
  985MOL0     C32842   2.105   4.821  10.311 -0.0988 -0.2390 -0.1406
  985MOL0     O32843   2.010   4.748  10.365  0.2625 -0.4085 -0.5554
  985MOL0     C32844   1.887   4.710  10.314 -0.4385 -0.4564 -0.4676
  985MOL0     C32845   1.829   4.595  10.368 -0.1399  0.5618 -0.0918
  985MOL0     C32846   1.705   4.545  10.322  0.9161 -0.0031 -0.1212
  985MOL0     C32847   1.634   4.611  10.225 -0.2035 -0.0937  0.9902
  985MOL0     O32848   1.510   4.563  10.219 -0.2576  0.3363 -0.2707
  985MOL0     C32849   1.415   4.681  10.236 -0.8702 -0.3892  0.4386
  985MOL0     C32850   1.382   4.721  10.379 -0.4881 -0.7842 -0.6071
  985MOL0     C32851   1.488   4.802  10.441  0.0482 -0.5016 -0.8342
  985MOL0     C32852   1.538   4.746  10.575 -1.2276  0.1738  0.0404
  985MOL0     C32853   1.608   4.841  10.672  0.0205 -0.3443  0.0738
  985MOL0     C32854   1.744   4.888  10.619 -0.2298 -0.4124 -0.2316
  985MOL0     C32855   1.809   4.992  10.715 -0.0012 -0.3327 -0.7296
  985MOL0     C32856   1.953   5.022  10.690 -0.4187  0.1217  0.2088
  985MOL0     N32857   1.978   5.170  10.718  1.2065 -0.3798  0.0429
  985MOL0     C32858   1.916   5.243  10.826  0.0340 -0.1501  0.3323
  985MOL0     C32859   1.989   5.361  10.815  0.2859  0.7513 -1.1263
  985MOL0     C32860   1.972   5.472  10.912 -0.8159  0.2288  0.2452
  985MOL0     C32861   1.834   5.523  10.908 -0.1783 -0.4573 -0.5095
  985MOL0     C32862   1.815   5.663  10.976  0.0599  0.4687  0.4700
  985MOL0     C32863   1.687   5.671  11.052  0.6717 -0.3555 -0.1927
  985MOL0     O32864   1.689   5.575  11.155  0.0567  0.0321 -0.4530
  985MOL0     C32865   1.607   5.600  11.260  0.0025 -0.4499  0.4493
  985MOL0     C32866   1.476   5.555  11.266 -0.2186 -0.0492 -0.2431
  985MOL0     C32867   1.397   5.585  11.381  0.0626  1.9673  0.4366
  985MOL0     C32868   1.255   5.523  11.373  0.4352  0.2607  0.1996
  985MOL0     C32869   1.442   5.661  11.490 -0.3490  0.1481  1.5164
  985MOL0     C32870   1.349   5.722  11.590  1.1651 -0.3090 -0.0822
  985MOL0     O32871   1.222   5.763  11.563  0.8959  0.8430 -0.1592
  985MOL0     C32872   1.145   5.771  11.674  0.9634 -0.5149  1.1163
  985MOL0     C32873   1.126   5.661  11.768 -0.9250 -0.7283  0.6515
  985MOL0     C32874   1.034   5.675  11.866 -0.3195 -0.4842  0.4038
  985MOL0     C32875   0.960   5.789  11.883  0.4402  0.4921  0.1859
  985MOL0     O32876   0.895   5.799  12.003  0.0986  0.1628  0.1706
  985MOL0     C32877   0.779   5.890  12.005 -1.0375  0.2357  1.2562
  985MOL0     C32878   0.672   5.861  12.112 -0.4661 -0.5908  0.6682
  985MOL0     C32879   0.737   5.877  12.257 -0.2512 -0.5931 -0.0638
  985MOL0     C32880   0.640   5.833  12.365  0.7391  0.3904  0.0425
  985MOL0     C32881   0.698   5.833  12.504  0.4997  0.2514 -0.4466
  985MOL0     C32882   0.677   5.980  12.556  0.4674  0.6021 -0.4125
  985MOL0     C32883   0.742   5.996  12.692  0.8297 -0.5189  0.6579
  985MOL0     C32884   0.678   5.917  12.809  0.3141 -0.8776 -0.0755
  985MOL0    Cl32885   0.492   5.931  12.809 -0.2687  0.2814 -0.3091
  985MOL0     C32886   0.975   5.895  11.793 -0.9462 -0.4675  0.4022
  985MOL0     C32887   1.057   5.880  11.676  0.1570  0.3396  0.3225
  985MOL0     O32888   1.400   5.723  11.705 -0.7747  0.3293 -0.5321
  985MOL0     C32889   1.580   5.706  11.480 -0.2550  0.9299  0.5691
  985MOL0     C32890   1.655   5.677  11.368 -0.3968 -0.0250  1.6881
  985MOL0     N32891   2.097   5.347  10.733  0.6976  0.1890 -0.3765
  985MOL0     N32892   2.086   5.238  10.674 -0.1575 -0.4652  0.6745
  985MOL0     C32893   1.698   4.723  10.155 -0.3491  0.1831 -0.2042
  985MOL0     C32894   1.829   4.770  10.202 -0.3236 -0.4366  0.7438
  985MOL0     C32895   2.197   4.894  10.402  0.4746 -0.2957  0.1782
  985MOL0     C32896   2.246   5.026  10.376 -0.3877 -0.1176 -0.0860
  985MOL0     C32897   2.341   5.080  10.466 -0.3175  0.4541  0.3877
  985MOL0     C32898   2.383   5.011  10.574 -0.8049  0.0846  1.2844
  985MOL0     O32899   2.468   5.064  10.656  0.4362  1.0190  0.3663
  985MOL0     C32900   2.500   5.002  10.781 -0.1696  0.5586  0.7354
  985MOL0     C32901   2.388   5.002  10.889  0.9642  0.4258 -0.8332
  985MOL0     C32902   2.336   5.143  10.920  0.3558 -0.4890 -0.5646
  985MOL0     C32903   2.232   5.138  11.036 -0.6464  0.1998  0.4244
  985MOL0     C32904   2.298   5.093  11.161  0.6839  0.5153  0.3931
  985MOL0     C32905   2.323   5.052  11.273 -0.9256 -0.7261  0.2561
  985MOL0     C32906   2.342   4.884  10.595 -2.0177  0.3305 -0.1228
  985MOL0     C32907   2.252   4.824  10.511 -0.6206 -0.6409  0.7815
  985MOL0     H32908   1.873   4.553  10.458 -1.4483 -2.5051 -0.7595
  985MOL0     H32909   1.654   4.466  10.375 -2.3681  1.6687 -0.4955
  985MOL0     H32910   1.460   4.764  10.179  2.1065 -0.6137  2.2183
  985MOL0     H32911   1.323   4.654  10.184 -0.5220 -2.0354  0.6060
  985MOL0     H32912   1.297   4.787  10.361 -0.5226 -0.5617  0.2868
  985MOL0     H32913   1.358   4.629  10.434 -0.3284 -0.8733 -0.6859
  985MOL0     H32914   1.569   4.816  10.369  0.6885  0.5503  0.0676
  985MOL0     H32915   1.449   4.904  10.442 -0.4661 -0.6961 -0.1195
  985MOL0     H32916   1.462   4.695  10.635 -1.7164  1.4328  0.5298
  985MOL0     H32917   1.622   4.681  10.550  0.3431  1.7457  1.0608
  985MOL0     H32918   1.541   4.923  10.698  0.2138  0.1618 -0.9726
  985MOL0     H32919   1.615   4.796  10.771 -1.9199 -1.6318 -0.3016
  985MOL0     H32920   1.811   4.802  10.613 -0.6482 -0.6709 -1.7237
  985MOL0     H32921   1.735   4.928  10.517  1.5284 -2.7645 -1.4092
  985MOL0     H32922   1.747   5.082  10.720 -1.5963 -1.4294 -0.1706
  985MOL0     H32923   1.800   4.953  10.817 -0.9550 -1.9692 -1.3949
  985MOL0     H32924   1.965   5.002  10.583 -2.6544 -1.3003  0.1704
  985MOL0     H32925   2.013   4.961  10.758  0.3082  0.5980  0.0160
  985MOL0     H32926   1.833   5.219  10.891 -2.6450 -0.8054 -3.0151
  985MOL0     H32927   1.996   5.423  11.007  2.3726 -1.1215 -1.1218
  985MOL0     H32928   2.036   5.557  10.890 -2.9039  3.2008  4.1769
  985MOL0     H32929   1.771   5.450  10.959  0.7752  0.2884  1.8759
  985MOL0     H32930   1.799   5.539  10.806  2.2146  2.5778 -1.0101
  985MOL0     H32931   1.823   5.734  10.893  0.3250 -2.5254 -2.2662
  985MOL0     H32932   1.902   5.685  11.039  0.2711  2.8399 -0.5239
  985MOL0     H32933   1.602   5.665  10.984  1.3277 -0.6810 -0.9859
  985MOL0     H32934   1.682   5.770  11.099  0.7350  1.4754 -3.7266
  985MOL0     H32935   1.444   5.483  11.192  0.6267 -0.2382 -0.4401
  985MOL0     H32936   1.179   5.585  11.324  0.1919 -1.5319 -1.8319
  985MOL0     H32937   1.263   5.432  11.313  1.8860  0.3466  0.2109
  985MOL0     H32938   1.221   5.511  11.476 -0.5874  1.3711  0.0124
  985MOL0     H32939   1.190   5.573  11.765 -2.3064 -1.7546  0.4730
  985MOL0     H32940   1.036   5.594  11.939  1.3173 -1.4117 -0.6218
  985MOL0     H32941   0.832   5.984  12.020  2.4933 -0.6901 -3.2342
  985MOL0     H32942   0.725   5.890  11.910 -0.8251  1.2035  1.1248
  985MOL0     H32943   0.590   5.931  12.094  0.2386  0.1502  0.2488
  985MOL0     H32944   0.634   5.760  12.102 -1.9485 -0.0636  0.7783
  985MOL0     H32945   0.745   5.984  12.276  0.6848 -0.2574 -2.0821
  985MOL0     H32946   0.840   5.844  12.276 -0.0908  0.5598  1.3007
  985MOL0     H32947   0.555   5.898  12.343  0.6966 -0.8103 -4.2781
  985MOL0     H32948   0.592   5.737  12.342 -1.7530  1.1371  1.6457
  985MOL0     H32949   0.801   5.798  12.503  0.0236 -1.2188 -0.4977
  985MOL0     H32950   0.639   5.763  12.565  1.2291  2.1487  2.6679
  985MOL0     H32951   0.719   6.048  12.482 -1.0719  1.1039 -0.8577
  985MOL0     H32952   0.570   6.001  12.571  0.2996 -0.7964  0.5428
  985MOL0     H32953   0.733   6.099  12.727 -0.8652 -0.7937  1.1468
  985MOL0     H32954   0.847   5.970  12.680  0.6339 -1.2790  0.5517
  985MOL0     H32955   0.730   5.946  12.901  2.0376 -1.2016 -0.9024
  985MOL0     H32956   0.703   5.813  12.788 -2.6003 -1.8301  0.6827
  985MOL0     H32957   0.925   5.987  11.823 -1.6331 -1.4967  2.6022
  985MOL0     H32958   1.055   5.961  11.604 -0.3738  0.4777  0.4861
  985MOL0     H32959   1.617   5.782  11.549  0.6859  1.2395 -0.2387
  985MOL0     H32960   1.758   5.709  11.367 -0.5878  0.6003  0.7359
  985MOL0     H32961   1.647   4.780  10.078  0.2660 -0.1835 -0.8905
  985MOL0     H32962   1.865   4.860  10.152 -0.5714 -0.7616 -0.0277
  985MOL0     H32963   2.210   5.075  10.285 -0.1743 -1.0536 -0.6882
  985MOL0     H32964   2.391   5.173  10.439 -0.9794  0.6609 -0.1796
  985MOL0     H32965   2.529   4.897  10.767 -3.4415 -0.2305 -1.1539
  985MOL0     H32966   2.588   5.061  10.809  2.2705 -0.8179 -3.1465
  985MOL0     H32967   2.430   4.952  10.977 -0.7349 -2.6149 -1.6402
  985MOL0     H32968   2.299   4.941  10.876 -0.2060  0.8493  3.5556
  985MOL0     H32969   2.282   5.197  10.842 -0.1870  0.5789  0.5248
  985MOL0     H32970   2.419   5.210  10.945  0.7700 -1.2115  0.0393
  985MOL0     H32971   2.156   5.063  11.014 -1.2845  0.1733  2.4843
  985MOL0     H32972   2.185   5.235  11.053 -4.3578 -1.2906 -0.5311
  985MOL0     H32973   2.335   5.020  11.375 -4.0979  1.4872  1.4704
  985MOL0     H32974   2.374   4.817  10.675 -0.5774  1.1791  0.0440
  985MOL0     H32975   2.228   4.719  10.523 -2.4694 -0.3317  0.0391
  986MOL0     O32976  10.691   2.528  10.070 -0.3170  0.3044  0.6437
  986MOL0     C32977  10.651   2.520   9.955  0.9793 -0.6283  0.5535
  986MOL0     O32978  10.658   2.617   9.860 -0.0245  0.3997 -0.1958
  986MOL0     C32979  10.712   2.741   9.893 -0.2772 -0.2057  0.1153
  986MOL0     C32980  10.846   2.753   9.876 -0.7725  0.2463  0.6556
  986MOL0     C32981  10.915   2.870   9.916  0.6167  0.6371 -0.3322
  986MOL0     C32982  10.845   2.977   9.961 -0.8997 -0.6480 -1.6608
  986MOL0     O32983  10.899   3.102   9.987 -0.1653  0.3999 -0.0990
  986MOL0     C32984  10.995   3.105  10.094 -0.6342 -1.3687  0.0025
  986MOL0     C32985  11.046   3.248  10.101  0.6844 -0.0696 -0.5595
  986MOL0     C32986  11.154   3.279   9.996 -0.1331 -0.4944  0.4287
  986MOL0     C32987  11.116   3.254   9.849  0.4640 -0.2960 -0.3351
  986MOL0     C32988  11.174   3.128   9.786  0.3869  0.0379 -0.1028
  986MOL0     C32989  11.125   3.106   9.644 -0.2518  0.0085  0.3905
  986MOL0     C32990  10.987   3.038   9.628 -0.4611  0.3610  0.0384
  986MOL0     C32991  10.914   3.107   9.500 -0.7448  0.6402 -1.0624
  986MOL0     N32992  10.811   3.205   9.538 -0.0154 -0.1050 -0.3788
  986MOL0     C32993  10.687   3.187   9.594 -0.2360 -0.1958 -0.7382
  986MOL0     C32994  10.637   3.308   9.608  0.6755  0.7616 -1.0290
  986MOL0     C32995  10.496   3.344   9.653 -0.3493  0.4476  0.3916
  986MOL0     C32996  10.474   3.291   9.791  0.3750 -0.3237  0.2805
  986MOL0     C32997  10.379   3.387   9.869 -0.3636 -0.0544  0.6779
  986MOL0     C32998  10.378   3.358  10.026  0.3122  0.2385 -0.6769
  986MOL0     O32999  10.434   3.229  10.061  1.0453 -0.4778  0.1692
  986MOL0     C33000  10.396   3.173  10.186 -1.1302  0.6703  0.1459
  986MOL0     C33001  10.392   3.029  10.205  0.1157 -0.2259  1.1779
  986MOL0     C33002  10.354   2.968  10.321 -0.8359 -0.4952 -0.3985
  986MOL0     C33003  10.358   2.818  10.318  0.2554 -0.1133  0.0866
  986MOL0     C33004  10.308   3.048  10.436  0.4191 -0.5892  0.3777
  986MOL0     C33005  10.235   2.988  10.563  0.8900  0.1831  0.1456
  986MOL0     O33006  10.196   3.078  10.660 -0.2200 -0.0021  0.1018
  986MOL0     C33007  10.159   3.047  10.781  0.1002 -0.3736 -0.7849
  986MOL0     C33008  10.214   2.947  10.861 -0.1740  0.6238  0.4188
  986MOL0     C33009  10.174   2.918  10.989 -0.2562  0.1825 -1.7381
  986MOL0     C33010  10.054   2.975  11.040 -0.6761  0.0052  0.0338
  986MOL0     O33011  10.010   2.920  11.159  0.0317 -0.7717  0.0555
  986MOL0     C33012   9.887   2.984  11.202  0.1609  0.4094 -0.8945
  986MOL0     C33013   9.844   2.960  11.346 -0.6401 -0.0430  0.2276
  986MOL0     C33014   9.889   2.820  11.401 -0.7570 -0.6048 -0.8641
  986MOL0     C33015   9.834   2.700  11.318  0.0984 -0.3303  0.0170
  986MOL0     C33016   9.870   2.557  11.371 -0.3138  0.3943 -0.3423
  986MOL0     C33017  10.016   2.512  11.353 -0.1735  0.4286 -0.4447
  986MOL0     C33018  10.048   2.363  11.386  0.0707  0.7114 -0.7802
  986MOL0     C33019  10.195   2.322  11.355  0.0596  0.6637 -0.5070
  986MOL0    Cl33020  10.222   2.329  11.173 -0.2333  0.4017  0.3043
  986MOL0     C33021   9.999   3.078  10.968 -0.6423  0.8857  0.3238
  986MOL0     C33022  10.050   3.122  10.841 -0.1718 -0.1765 -0.4643
  986MOL0     O33023  10.220   2.867  10.568  0.4811 -0.4970  0.3494
  986MOL0     C33024  10.302   3.182  10.415 -0.0763 -0.3426  0.1295
  986MOL0     C33025  10.345   3.247  10.293  1.2326 -0.1648  0.3914
  986MOL0     N33026  10.731   3.405   9.562 -0.4485  0.3236  1.1574
  986MOL0     N33027  10.834   3.341   9.524  0.1000 -0.1088  0.4813
  986MOL0     C33028  10.711   2.964   9.986  0.3080  0.7466 -0.1605
  986MOL0     C33029  10.646   2.843   9.959 -0.4086  0.1860 -0.0437
  986MOL0     C33030  10.579   2.399   9.914  0.4299  0.0800 -0.5776
  986MOL0     C33031  10.597   2.276   9.969  0.0763 -0.8355  0.1464
  986MOL0     C33032  10.543   2.163   9.911 -0.4920 -0.1752  0.0282
  986MOL0     C33033  10.466   2.167   9.802 -0.2946 -0.1745  0.0185
  986MOL0     O33034  10.408   2.049   9.749  0.1047 -1.0880  0.2557
  986MOL0     C33035  10.338   2.049   9.624 -0.2467  0.0126  0.8553
  986MOL0     C33036  10.236   1.945   9.624 -0.0971 -0.3518  0.1856
  986MOL0     C33037  10.123   1.955   9.523 -0.7661 -0.7350 -0.4558
  986MOL0     C33038  10.055   1.823   9.518  0.7099 -0.6850 -0.1044
  986MOL0     C33039   9.975   1.831   9.398 -0.2023 -0.0608 -0.3266
  986MOL0     C33040   9.932   1.833   9.282  0.7735 -0.7569  0.2913
  986MOL0     C33041  10.429   2.288   9.755 -0.4584  0.3120  0.3852
  986MOL0     C33042  10.488   2.410   9.807  0.9579  0.8772 -0.5180
  986MOL0     H33043  10.893   2.664   9.834 -0.3515  0.8834 -0.2616
  986MOL0     H33044  11.021   2.889   9.904  0.7048  0.1491 -0.3417
  986MOL0     H33045  10.944   3.072  10.185  2.0321 -0.0553  2.1293
  986MOL0     H33046  11.076   3.032  10.088 -0.1152 -1.1502  2.9044
  986MOL0     H33047  10.962   3.318  10.108 -1.2990 -2.3887 -0.1275
  986MOL0     H33048  11.094   3.251  10.199  1.3683  0.5484 -0.8973
  986MOL0     H33049  11.175   3.385  10.005 -2.2699 -0.1197  1.7872
  986MOL0     H33050  11.241   3.217  10.019  1.8057  1.6173 -0.8711
  986MOL0     H33051  11.008   3.260   9.834  0.4752 -0.2555 -0.4068
  986MOL0     H33052  11.147   3.347   9.799 -2.6917  1.9167  1.5383
  986MOL0     H33053  11.283   3.139   9.784  0.3383  0.5051 -0.2085
  986MOL0     H33054  11.141   3.046   9.850 -0.8151 -0.9120 -1.8684
  986MOL0     H33055  11.122   3.203   9.595 -0.3676 -0.0244  0.3318
  986MOL0     H33056  11.188   3.048   9.576 -1.6552  1.9675 -2.8083
  986MOL0     H33057  10.998   2.930   9.626 -2.4539  0.0869  1.0689
  986MOL0     H33058  10.909   3.053   9.704  0.2982  0.3126  0.8462
  986MOL0     H33059  10.867   3.024   9.445 -0.0658  0.1581 -0.9301
  986MOL0     H33060  10.987   3.150   9.431  0.0686 -0.0636 -0.6666
  986MOL0     H33061  10.648   3.085   9.599  2.8537 -1.5483 -1.4463
  986MOL0     H33062  10.486   3.453   9.658  0.8516  0.7650 -2.2185
  986MOL0     H33063  10.423   3.299   9.584  1.3687  0.4009 -1.4908
  986MOL0     H33064  10.570   3.286   9.842  1.1295 -2.2081 -1.1977
  986MOL0     H33065  10.421   3.195   9.794  0.9471 -0.6545 -0.0118
  986MOL0     H33066  10.280   3.395   9.824  0.1351  0.6967 -0.3298
  986MOL0     H33067  10.418   3.489   9.867  1.2933 -0.6664 -1.0215
  986MOL0     H33068  10.281   3.381  10.071  2.1268 -0.5639  4.2928
  986MOL0     H33069  10.444   3.430  10.074  3.3321 -2.7649  0.0832
  986MOL0     H33070  10.427   2.971  10.121 -0.1917  0.0676  0.8443
  986MOL0     H33071  10.413   2.774  10.235 -2.2659  1.1968 -2.4885
  986MOL0     H33072  10.399   2.783  10.413 -0.2535 -1.1656 -0.0695
  986MOL0     H33073  10.257   2.776  10.311  0.4214 -0.5059  0.0191
  986MOL0     H33074  10.296   2.895  10.812 -2.0869 -2.4566  0.1642
  986MOL0     H33075  10.218   2.826  11.025 -3.1510 -1.7529 -2.8012
  986MOL0     H33076   9.900   3.093  11.194  0.1777  0.3915 -1.1130
  986MOL0     H33077   9.810   2.958  11.128 -2.2985  1.6374  1.0449
  986MOL0     H33078   9.881   3.036  11.415  1.2059  0.5771 -1.3569
  986MOL0     H33079   9.735   2.965  11.351 -0.6250 -0.9324  2.5536
  986MOL0     H33080   9.845   2.811  11.500  0.6800 -1.2423 -0.2569
  986MOL0     H33081   9.999   2.823  11.407 -0.5883 -4.7108  2.0802
  986MOL0     H33082   9.725   2.703  11.308  0.0095 -2.0367  0.2984
  986MOL0     H33083   9.873   2.710  11.216  0.9691  1.0301  0.4508
  986MOL0     H33084   9.814   2.480  11.316  1.4859 -0.4491 -1.0759
  986MOL0     H33085   9.847   2.549  11.477 -2.0097 -1.3243 -0.7711
  986MOL0     H33086  10.043   2.530  11.249 -0.4862  1.9302 -0.2956
  986MOL0     H33087  10.075   2.584  11.411 -1.3405  0.5529  0.6403
  986MOL0     H33088   9.976   2.307  11.324 -0.1514  0.8863 -0.6829
  986MOL0     H33089  10.036   2.358  11.494  4.6519  0.1466 -0.1067
  986MOL0     H33090  10.208   2.219  11.389  2.1122  0.3720 -1.9497
  986MOL0     H33091  10.262   2.396  11.401  0.6199 -0.3211  0.2853
  986MOL0     H33092   9.913   3.126  11.014 -0.7933 -0.0102  1.0175
  986MOL0     H33093  10.010   3.200  10.777  1.1209  1.3312  0.4772
  986MOL0     H33094  10.260   3.249  10.489 -0.5227 -0.5855  0.0965
  986MOL0     H33095  10.333   3.354  10.282  1.1275  0.4829  4.9174
  986MOL0     H33096  10.658   3.056  10.012  0.0723  0.6962 -0.4693
  986MOL0     H33097  10.539   2.831   9.973 -0.0771 -3.0409  0.2658
  986MOL0     H33098  10.658   2.276  10.059  0.8363  2.0662 -0.2694
  986MOL0     H33099  10.568   2.065   9.951 -0.5415  0.0724  0.6856
  986MOL0     H33100  10.293   2.147   9.604 -0.9803 -0.3884  0.5074
  986MOL0     H33101  10.413   2.045   9.544 -2.2854  0.9640 -1.2023
  986MOL0     H33102  10.180   1.957   9.717 -2.2672  0.2031 -1.1192
  986MOL0     H33103  10.274   1.842   9.621 -0.8850 -0.6209 -0.7621
  986MOL0     H33104  10.166   1.978   9.425 -0.9840  0.8717 -0.2077
  986MOL0     H33105  10.052   2.037   9.540  1.3827  1.8508 -2.8485
  986MOL0     H33106   9.971   1.803   9.585  1.6941 -1.9750  0.7924
  986MOL0     H33107  10.110   1.729   9.526 -0.8479 -1.7502 -1.2302
  986MOL0     H33108   9.875   1.843   9.192 -2.7451  0.5108  2.4383
  986MOL0     H33109  10.376   2.303   9.662  0.8699  1.7019 -0.1894
  986MOL0     H33110  10.463   2.510   9.774  0.9376  0.9746 -0.2105
  987MOL0     O33111   7.299   7.544   0.565 -0.2602 -0.5009  0.1086
  987MOL0     C33112   7.240   7.614   0.484 -0.0869 -0.1430 -0.2758
  987MOL0     O33113   7.248   7.748   0.462  0.5609 -0.2104  0.1568
  987MOL0     C33114   7.330   7.824   0.550 -0.0646  0.0352 -0.0436
  987MOL0     C33115   7.370   7.795   0.683 -0.1099  0.9159 -0.4589
  987MOL0     C33116   7.447   7.883   0.764  0.5068 -0.0991 -0.4162
  987MOL0     C33117   7.506   8.000   0.716  0.1591 -0.4069 -0.1198
  987MOL0     O33118   7.576   8.093   0.792 -0.3346 -0.1552 -0.1012
  987MOL0     C33119   7.577   8.080   0.936  0.0407  0.4252 -0.5315
  987MOL0     C33120   7.655   8.190   1.004  0.0267  0.0092  0.4232
  987MOL0     C33121   7.596   8.331   0.968  0.1623  0.4326 -0.1939
  987MOL0     C33122   7.707   8.442   0.992  0.2343  0.0227 -0.0631
  987MOL0     C33123   7.664   8.574   0.935 -0.2946  0.3110 -0.2565
  987MOL0     C33124   7.580   8.655   1.039  0.1740  0.2084  0.2101
  987MOL0     C33125   7.648   8.703   1.162 -0.0930 -0.0334 -0.1944
  987MOL0     C33126   7.539   8.759   1.256  0.1269  0.1840  0.1982
  987MOL0     N33127   7.483   8.887   1.217  0.3364 -0.3643  0.7103
  987MOL0     C33128   7.548   9.003   1.177  0.3024  0.4341  0.8286
  987MOL0     C33129   7.447   9.093   1.165  0.2797 -0.1336 -0.0576
  987MOL0     C33130   7.464   9.228   1.108 -0.1009  0.3868 -0.0666
  987MOL0     C33131   7.512   9.237   0.965  0.1352 -0.1273 -0.4816
  987MOL0     C33132   7.494   9.371   0.890 -0.2135  0.9062 -0.7882
  987MOL0     C33133   7.601   9.466   0.952  0.3100 -0.3464 -0.2035
  987MOL0     O33134   7.608   9.588   0.885  0.1587  0.3076  0.5057
  987MOL0     C33135   7.719   9.675   0.895 -0.1031 -0.7956 -0.2932
  987MOL0     C33136   7.706   9.792   0.817  0.4427 -0.2746 -0.1413
  987MOL0     C33137   7.810   9.882   0.799 -0.2660  0.3188  0.1783
  987MOL0     C33138   7.794  10.010   0.716  0.1964  0.2292 -0.4577
  987MOL0     C33139   7.928   9.868   0.879 -0.6106  0.0427  0.0926
  987MOL0     C33140   8.044   9.965   0.882 -0.3347  1.1334 -0.7686
  987MOL0     O33141   8.149   9.939   0.975  0.5964  0.1597  0.1628
  987MOL0     C33142   8.257  10.020   0.975  0.0320  0.4173 -0.0074
  987MOL0     C33143   8.294  10.093   1.093 -0.4703  0.5816 -0.1493
  987MOL0     C33144   8.410  10.173   1.095  0.2067 -0.5595  0.0202
  987MOL0     C33145   8.489  10.185   0.979  0.2347 -0.2143  0.7156
  987MOL0     O33146   8.604  10.264   0.991  0.5471  0.0919  0.1710
  987MOL0     C33147   8.721  10.228   0.906  0.7177  0.5618 -0.2620
  987MOL0     C33148   8.828  10.335   0.938  0.1639  1.2402 -0.7052
  987MOL0     C33149   8.904  10.314   1.074  0.0621  0.5316 -0.7833
  987MOL0     C33150   9.047  10.394   1.085 -0.1961 -0.9388 -0.1246
  987MOL0     C33151   9.118  10.380   1.222  0.5186 -0.7201 -0.4186
  987MOL0     C33152   9.267  10.405   1.224 -1.3756 -1.1413  0.2947
  987MOL0     C33153   9.301  10.436   1.363 -0.0519 -0.9445 -0.2983
  987MOL0     C33154   9.453  10.467   1.386  0.1926  0.0061  0.6406
  987MOL0    Cl33155   9.557  10.322   1.350  0.0639 -0.0444  0.2206
  987MOL0     C33156   8.460  10.102   0.868  0.2298 -0.0576  0.2522
  987MOL0     C33157   8.344  10.027   0.868 -0.0983 -0.1536  0.2901
  987MOL0     O33158   8.051  10.062   0.808 -0.0435  0.0436  0.2744
  987MOL0     C33159   7.937   9.760   0.972 -0.0378 -0.4430 -0.3389
  987MOL0     C33160   7.834   9.662   0.969 -0.0975 -0.2265 -0.4380
  987MOL0     N33161   7.326   9.029   1.175  0.6100  0.6898  0.1391
  987MOL0     N33162   7.350   8.908   1.213 -0.2594 -0.0370 -0.0918
  987MOL0     C33163   7.472   8.024   0.585 -0.2106  0.2480 -0.0841
  987MOL0     C33164   7.383   7.942   0.504 -0.2969 -0.2072  0.0880
  987MOL0     C33165   7.169   7.534   0.385  0.9495 -0.4245 -0.0226
  987MOL0     C33166   7.143   7.576   0.255  1.3776  0.1267  0.9327
  987MOL0     C33167   7.074   7.505   0.156  0.6676  0.4036 -0.2627
  987MOL0     C33168   7.033   7.371   0.190 -0.4349 -0.8407 -0.9565
  987MOL0     O33169   6.972   7.292   0.094 -0.0646  0.1846  0.4001
  987MOL0     C33170   7.000   7.153   0.085  0.1965  0.2089  0.7721
  987MOL0     C33171   7.031   7.105  -0.056 -0.3547 -0.2374  0.5073
  987MOL0     C33172   7.076   6.964  -0.040 -0.3455  0.3489  0.0385
  987MOL0     C33173   7.188   6.925  -0.139 -0.2017 -1.0059 -0.5455
  987MOL0     C33174   7.137   6.897  -0.277 -0.1877  0.6901  0.3039
  987MOL0     C33175   7.108   6.882  -0.397  0.5569  0.8022  0.0468
  987MOL0     C33176   7.046   7.330   0.326 -0.6115  0.5918 -0.0288
  987MOL0     C33177   7.105   7.411   0.421 -0.9289 -0.3195  0.0393
  987MOL0     H33178   7.328   7.711   0.738  1.7760  1.5102  2.0651
  987MOL0     H33179   7.470   7.846   0.863 -0.3616 -0.8551 -0.4819
  987MOL0     H33180   7.472   8.097   0.963  0.7031 -0.1872  2.9280
  987MOL0     H33181   7.607   7.980   0.967 -1.6183 -0.4092 -1.4789
  987MOL0     H33182   7.659   8.173   1.112  2.2350  1.9408  0.7415
  987MOL0     H33183   7.761   8.188   0.978  0.0758  2.0709  0.2730
  987MOL0     H33184   7.568   8.333   0.863 -1.3938  1.3617  0.2014
  987MOL0     H33185   7.511   8.356   1.033  1.5596  0.3265  1.7523
  987MOL0     H33186   7.720   8.437   1.100 -1.6497 -4.2452  0.1952
  987MOL0     H33187   7.801   8.422   0.939 -0.1183  2.0777 -1.5536
  987MOL0     H33188   7.762   8.619   0.917  0.5226 -1.7770 -1.4218
  987MOL0     H33189   7.632   8.556   0.832  4.2804 -1.0400 -1.6885
  987MOL0     H33190   7.547   8.741   0.981  0.0467 -1.3053 -2.0978
  987MOL0     H33191   7.495   8.593   1.066 -0.9808  2.3649  1.8870
  987MOL0     H33192   7.706   8.628   1.216  0.8868 -0.0062 -1.1925
  987MOL0     H33193   7.724   8.778   1.138  1.1680 -0.6523  1.6459
  987MOL0     H33194   7.573   8.773   1.359 -0.4490 -2.2071  0.7886
  987MOL0     H33195   7.452   8.693   1.253  0.4639 -0.2550 -0.2459
  987MOL0     H33196   7.652   9.025   1.155  0.6036  1.9027  3.3359
  987MOL0     H33197   7.364   9.270   1.099 -1.1760 -2.3878 -2.5336
  987MOL0     H33198   7.533   9.287   1.170 -1.2229 -0.6518  2.3163
  987MOL0     H33199   7.457   9.162   0.906  2.4613 -1.8353 -0.6153
  987MOL0     H33200   7.617   9.209   0.954  0.0050 -4.2723  4.6597
  987MOL0     H33201   7.391   9.404   0.906  0.0035  2.9645 -3.0564
  987MOL0     H33202   7.515   9.366   0.783 -1.6328  2.0638 -1.1508
  987MOL0     H33203   7.700   9.423   0.933  0.5141 -0.7977  1.6736
  987MOL0     H33204   7.581   9.486   1.058  0.0930 -1.3944 -0.0379
  987MOL0     H33205   7.614   9.791   0.760  0.0257 -0.6342  0.5166
  987MOL0     H33206   7.702  10.010   0.657  0.0637 -1.0015 -0.2929
  987MOL0     H33207   7.801  10.105   0.769  1.0268  0.3564 -0.7965
  987MOL0     H33208   7.874  10.007   0.642  2.6307  4.2593  1.6844
  987MOL0     H33209   8.225  10.083   1.176  1.8258 -0.9252  1.7104
  987MOL0     H33210   8.446  10.235   1.178 -0.0570 -1.0075  0.4742
  987MOL0     H33211   8.761  10.129   0.927  1.5943  0.7934 -0.7784
  987MOL0     H33212   8.701  10.233   0.799 -0.9391 -3.0267 -0.2608
  987MOL0     H33213   8.896  10.329   0.853  2.5084  0.3502  1.1158
  987MOL0     H33214   8.786  10.436   0.943  0.7272  1.5216 -1.4162
  987MOL0     H33215   8.935  10.209   1.077  1.1343  0.8426  0.9751
  987MOL0     H33216   8.835  10.338   1.156  0.8250  1.8030 -0.4781
  987MOL0     H33217   9.126  10.356   1.019  3.9798  3.9311  1.3404
  987MOL0     H33218   9.030  10.499   1.059  1.7730  0.7104  4.3109
  987MOL0     H33219   9.090  10.287   1.271 -0.2598 -0.2455  0.0700
  987MOL0     H33220   9.062  10.458   1.274 -0.2274 -1.3068 -0.3304
  987MOL0     H33221   9.308  10.309   1.192  0.4527 -0.2904 -0.0432
  987MOL0     H33222   9.299  10.486   1.157 -0.6850  0.0369  1.9695
  987MOL0     H33223   9.268  10.348   1.417 -4.6616  2.1975  2.7331
  987MOL0     H33224   9.242  10.522   1.397 -1.0472 -1.7794  0.1195
  987MOL0     H33225   9.469  10.483   1.492 -2.3775 -1.2641  1.3175
  987MOL0     H33226   9.482  10.557   1.331  0.4189 -0.3151  0.2247
  987MOL0     H33227   8.522  10.113   0.779 -2.2630 -1.4451 -1.7966
  987MOL0     H33228   8.308   9.966   0.786  0.5929 -0.1653 -0.0095
  987MOL0     H33229   8.031   9.729   1.016  0.1619 -4.3161 -3.0043
  987MOL0     H33230   7.835   9.584   1.044  0.9519  0.9274  0.8020
  987MOL0     H33231   7.497   8.122   0.545  0.6122  0.2426  0.3918
  987MOL0     H33232   7.352   7.969   0.404  0.4762 -1.4453 -0.5228
  987MOL0     H33233   7.191   7.667   0.220  0.0764  0.4125 -0.1613
  987MOL0     H33234   7.054   7.544   0.057 -0.3963 -2.1716 -1.1570
  987MOL0     H33235   7.081   7.120   0.151 -0.7139 -2.2683  0.7510
  987MOL0     H33236   6.914   7.103   0.129 -1.8616  4.1158  1.6379
  987MOL0     H33237   7.113   7.160  -0.103 -2.9443  4.0894  0.5347
  987MOL0     H33238   6.952   7.106  -0.132  0.3751 -2.3212 -0.3646
  987MOL0     H33239   6.992   6.897  -0.058 -0.1015 -0.1607  0.7693
  987MOL0     H33240   7.112   6.946   0.062  0.7299  1.0557 -0.1919
  987MOL0     H33241   7.230   6.835  -0.092  3.0245 -0.0356 -1.3314
  987MOL0     H33242   7.273   6.993  -0.148 -0.3879 -0.8384 -1.0325
  987MOL0     H33243   7.067   6.856  -0.492  0.2431  1.2938  0.0435
  987MOL0     H33244   7.002   7.233   0.347 -2.8437  1.2788 -1.1800
  987MOL0     H33245   7.125   7.375   0.521  0.6400  0.2147 -0.0662
  988MOL0     O33246   8.136   2.525   5.142 -0.6082 -0.0683  0.1661
  988MOL0     C33247   8.228   2.604   5.155  0.0933 -1.1595 -0.6609
  988MOL0     O33248   8.271   2.696   5.059  0.1741  0.1235  0.0867
  988MOL0     C33249   8.211   2.690   4.936 -0.2081  0.5399 -0.4136
  988MOL0     C33250   8.210   2.565   4.868  0.4006 -0.1316 -0.2518
  988MOL0     C33251   8.173   2.563   4.730 -1.0173 -0.4097 -0.4858
  988MOL0     C33252   8.145   2.686   4.665 -0.6740 -1.2429 -0.0910
  988MOL0     O33253   8.087   2.708   4.540  0.0162 -0.0276 -0.3025
  988MOL0     C33254   8.133   2.615   4.440  0.3142  0.2683  0.1493
  988MOL0     C33255   8.045   2.632   4.312  0.9235 -0.0536  1.3643
  988MOL0     C33256   8.069   2.776   4.250 -0.0815 -0.4891  0.3751
  988MOL0     C33257   7.943   2.817   4.171  0.1453  0.9737 -0.5197
  988MOL0     C33258   7.945   2.732   4.034  0.1424 -0.0548  0.1789
  988MOL0     C33259   7.819   2.741   3.947 -0.2672 -0.6381 -0.3589
  988MOL0     C33260   7.798   2.874   3.872 -0.2147  0.6291  0.3173
  988MOL0     C33261   7.678   2.857   3.775  0.4227  0.3194  0.4184
  988MOL0     N33262   7.711   2.797   3.642  0.6089 -0.2190 -0.4226
  988MOL0     C33263   7.628   2.785   3.536 -0.2885  0.2841 -0.4031
  988MOL0     C33264   7.714   2.741   3.443  0.0483 -0.6036  0.9444
  988MOL0     C33265   7.665   2.716   3.295  0.5517  0.7978  0.0359
  988MOL0     C33266   7.617   2.576   3.254  0.0981  0.6781  0.0893
  988MOL0     C33267   7.456   2.550   3.260 -0.4190 -0.2748 -0.6742
  988MOL0     C33268   7.418   2.403   3.238  0.0488 -0.6898 -0.4387
  988MOL0     O33269   7.456   2.360   3.103 -0.0494  0.3607  0.2961
  988MOL0     C33270   7.415   2.239   3.067  0.7084 -0.4487  0.4051
  988MOL0     C33271   7.352   2.148   3.150  0.2621  0.2595  0.0523
  988MOL0     C33272   7.317   2.021   3.093 -0.3095 -0.1426  0.3834
  988MOL0     C33273   7.244   1.922   3.186 -0.1305 -0.3405 -0.7496
  988MOL0     C33274   7.338   1.992   2.955 -0.8302 -0.0357 -0.5421
  988MOL0     C33275   7.305   1.868   2.889 -0.1654 -0.5148 -0.3824
  988MOL0     O33276   7.405   1.780   2.865 -0.2189  0.4737  0.2911
  988MOL0     C33277   7.371   1.661   2.818  0.7665  0.6400 -0.0594
  988MOL0     C33278   7.414   1.618   2.694 -0.8662  0.5680 -0.0077
  988MOL0     C33279   7.393   1.482   2.658 -0.5661  0.0479  1.0274
  988MOL0     C33280   7.307   1.402   2.733 -0.1340 -0.3686 -0.6418
  988MOL0     O33281   7.304   1.274   2.689  1.1589 -0.8726 -0.3328
  988MOL0     C33282   7.202   1.192   2.739  1.0390  0.1377 -0.0808
  988MOL0     C33283   7.206   1.067   2.650  1.4616 -0.5312  0.5224
  988MOL0     C33284   7.081   0.980   2.656  0.5990  0.1406 -0.4176
  988MOL0     C33285   7.094   0.884   2.776  0.9070  1.3344 -0.2858
  988MOL0     C33286   6.954   0.829   2.825 -1.4257 -0.3143  1.0808
  988MOL0     C33287   6.887   0.747   2.708 -1.4132 -0.1682 -0.6855
  988MOL0     C33288   6.766   0.681   2.758  0.5793  0.2995 -0.1849
  988MOL0     C33289   6.674   0.626   2.653  0.8049  0.2361 -1.0656
  988MOL0    Cl33290   6.770   0.514   2.552 -0.4931 -0.2588 -0.3974
  988MOL0     C33291   7.249   1.454   2.851 -0.0043  0.0274  0.3078
  988MOL0     C33292   7.291   1.577   2.896 -0.2046 -0.4181  0.3476
  988MOL0     O33293   7.184   1.848   2.874  0.5807 -0.0581 -0.0994
  988MOL0     C33294   7.392   2.086   2.872 -0.4955 -0.6316  0.1720
  988MOL0     C33295   7.431   2.207   2.932 -0.3294  0.3006 -0.0791
  988MOL0     N33296   7.846   2.746   3.483  1.3166  0.4880  0.3716
  988MOL0     N33297   7.845   2.772   3.610  0.2656 -1.1092 -0.3181
  988MOL0     C33298   8.153   2.808   4.732  0.6273 -0.5553  0.6163
  988MOL0     C33299   8.182   2.807   4.863 -0.5145  0.0988 -0.7194
  988MOL0     C33300   8.281   2.620   5.292  0.0612 -0.5798 -0.4287
  988MOL0     C33301   8.220   2.565   5.402  1.1923  0.0877  0.0622
  988MOL0     C33302   8.284   2.571   5.524  0.6071 -0.4918  0.2900
  988MOL0     C33303   8.397   2.645   5.551  0.0603 -0.1404  0.3135
  988MOL0     O33304   8.458   2.657   5.673 -0.2339 -0.7276 -0.0263
  988MOL0     C33305   8.388   2.608   5.787 -0.1221 -0.6270 -0.2956
  988MOL0     C33306   8.466   2.642   5.908  0.7377 -0.7735 -0.3503
  988MOL0     C33307   8.608   2.565   5.912  0.3520 -0.4177 -0.2438
  988MOL0     C33308   8.597   2.425   5.976  0.0814 -1.0319  0.1900
  988MOL0     C33309   8.710   2.333   5.949 -0.4922  0.0321 -0.7252
  988MOL0     C33310   8.809   2.263   5.945  0.0870 -0.1413  0.0419
  988MOL0     C33311   8.454   2.704   5.444  0.6782  0.5285  0.4762
  988MOL0     C33312   8.400   2.690   5.317  0.5357  0.5076 -0.2068
  988MOL0     H33313   8.232   2.468   4.911  0.8451  0.8028  1.7498
  988MOL0     H33314   8.170   2.464   4.683  1.9428 -2.9252  3.9190
  988MOL0     H33315   8.235   2.637   4.408  1.0699 -0.6805  1.7380
  988MOL0     H33316   8.139   2.509   4.465  2.5137 -0.4314 -2.8407
  988MOL0     H33317   8.063   2.557   4.235 -0.9283  0.5484  0.2651
  988MOL0     H33318   7.939   2.631   4.338  0.9034  3.0755  1.8533
  988MOL0     H33319   8.086   2.852   4.327  1.6949 -0.4261 -0.0187
  988MOL0     H33320   8.160   2.772   4.188 -0.4023 -3.5790 -0.0881
  988MOL0     H33321   7.856   2.797   4.234 -2.3865  2.3625 -3.3050
  988MOL0     H33322   7.941   2.926   4.158 -0.8116  0.7375 -2.9343
  988MOL0     H33323   8.031   2.753   3.970 -0.3074 -1.5152 -0.9493
  988MOL0     H33324   7.935   2.626   4.056 -2.4080 -1.2556 -5.2059
  988MOL0     H33325   7.818   2.661   3.873 -0.3099 -0.5100 -0.4974
  988MOL0     H33326   7.733   2.720   4.012 -1.5937  2.8127 -0.7723
  988MOL0     H33327   7.774   2.952   3.944  1.2706 -1.2356  3.0492
  988MOL0     H33328   7.890   2.898   3.819 -0.2292 -0.0621 -0.0282
  988MOL0     H33329   7.625   2.950   3.755 -1.0743 -0.2882  1.3829
  988MOL0     H33330   7.604   2.791   3.821 -0.3471  0.7876 -0.1356
  988MOL0     H33331   7.522   2.812   3.538 -0.7647 -1.4654 -0.1485
  988MOL0     H33332   7.574   2.772   3.272  0.0527 -0.3602 -0.9034
  988MOL0     H33333   7.736   2.748   3.218  2.7405  1.5385  2.2356
  988MOL0     H33334   7.667   2.502   3.317 -0.8001 -0.8264 -0.8864
  988MOL0     H33335   7.650   2.560   3.151 -1.4809 -0.3115 -0.3044
  988MOL0     H33336   7.410   2.614   3.185  1.3472 -1.2042 -2.6573
  988MOL0     H33337   7.421   2.582   3.359 -1.7838 -0.5394 -1.0644
  988MOL0     H33338   7.309   2.394   3.241  0.1296 -3.1921 -1.9055
  988MOL0     H33339   7.455   2.341   3.319 -0.1596  0.2416  0.3825
  988MOL0     H33340   7.345   2.170   3.256  1.9939  1.9756 -0.1326
  988MOL0     H33341   7.181   1.851   3.131  0.0049 -1.5104  0.5447
  988MOL0     H33342   7.309   1.874   3.260 -0.3935 -1.8806 -1.4672
  988MOL0     H33343   7.180   1.966   3.263  1.6105 -0.2160  0.7053
  988MOL0     H33344   7.472   1.690   2.637 -0.9188  3.4826  3.3380
  988MOL0     H33345   7.445   1.459   2.566 -1.3207  2.6786 -0.1372
  988MOL0     H33346   7.220   1.162   2.843 -1.7069 -1.3090  0.0939
  988MOL0     H33347   7.111   1.252   2.728  0.9225  0.0363  0.2933
  988MOL0     H33348   7.220   1.104   2.547 -0.5330  0.5624  0.5911
  988MOL0     H33349   7.299   1.011   2.660  1.6243 -0.1069  1.4551
  988MOL0     H33350   7.073   0.929   2.560 -1.4357 -0.3098 -0.0521
  988MOL0     H33351   6.982   1.025   2.667 -0.7293 -3.0008  1.8908
  988MOL0     H33352   7.164   0.802   2.761 -2.7992 -2.4352  1.0136
  988MOL0     H33353   7.127   0.945   2.860  1.6119 -2.8090  2.7382
  988MOL0     H33354   6.880   0.901   2.862 -4.2576 -1.2338 -2.2637
  988MOL0     H33355   6.992   0.764   2.904 -2.5831 -0.3176  1.6527
  988MOL0     H33356   6.856   0.830   2.644 -2.8936 -0.3416 -0.2356
  988MOL0     H33357   6.955   0.689   2.646  0.1011 -0.6525  1.3255
  988MOL0     H33358   6.714   0.754   2.821  3.6136  1.7506  0.8410
  988MOL0     H33359   6.796   0.599   2.825 -1.3849 -1.9816 -1.9385
  988MOL0     H33360   6.639   0.714   2.599  0.4368 -0.0183 -1.2480
  988MOL0     H33361   6.603   0.565   2.710  1.5343 -0.6708 -1.0868
  988MOL0     H33362   7.177   1.399   2.910  1.3103  0.5877  2.5971
  988MOL0     H33363   7.269   1.609   2.998 -1.1434 -1.1837  0.4022
  988MOL0     H33364   7.404   2.062   2.766 -0.6474 -1.4315  0.3323
  988MOL0     H33365   7.474   2.285   2.870  0.8236  0.9650  1.4948
  988MOL0     H33366   8.125   2.903   4.688  1.9680 -0.5766 -0.3173
  988MOL0     H33367   8.178   2.900   4.919 -1.0189 -0.7662  0.7600
  988MOL0     H33368   8.119   2.528   5.393  0.8391  0.9416  0.4654
  988MOL0     H33369   8.215   2.534   5.600  0.7389  0.0634  0.6926
  988MOL0     H33370   8.289   2.655   5.794  0.2395  0.1951 -0.6301
  988MOL0     H33371   8.374   2.502   5.766  2.1813 -0.6493 -2.0707
  988MOL0     H33372   8.416   2.624   6.003  0.8512  2.9057  0.5907
  988MOL0     H33373   8.470   2.752   5.905 -1.3628 -0.6867 -1.6563
  988MOL0     H33374   8.685   2.625   5.962 -1.7584  1.2382  1.1532
  988MOL0     H33375   8.646   2.554   5.810 -0.1978 -0.5128 -0.4433
  988MOL0     H33376   8.510   2.378   5.929 -1.1409  1.8165 -0.6678
  988MOL0     H33377   8.567   2.430   6.081 -3.5022  1.4058 -0.7407
  988MOL0     H33378   8.901   2.210   5.937  0.4745  0.7021 -1.7521
  988MOL0     H33379   8.548   2.758   5.451 -0.7922  3.1529  1.8909
  988MOL0     H33380   8.462   2.731   5.238  2.1925 -2.7453 -0.7943
  989MOL0     O33381   7.965   8.376   7.010  0.1289  0.6043 -0.3222
  989MOL0     C33382   7.981   8.359   7.134  0.7533 -0.7884  0.5529
  989MOL0     O33383   8.093   8.374   7.209  0.0137  0.4308  0.2341
  989MOL0     C33384   8.205   8.437   7.146 -0.0944 -0.4587 -0.8246
  989MOL0     C33385   8.231   8.570   7.177 -0.4570 -0.3042  0.3457
  989MOL0     C33386   8.350   8.636   7.131 -0.6335  0.3127  0.2551
  989MOL0     C33387   8.429   8.575   7.044 -1.4667  0.0266  0.0932
  989MOL0     O33388   8.529   8.653   6.982  0.6005  0.2470 -0.4881
  989MOL0     C33389   8.619   8.587   6.886 -0.0294 -0.2896  0.3512
  989MOL0     C33390   8.715   8.695   6.830  0.5748  0.0635  0.9432
  989MOL0     C33391   8.628   8.783   6.734 -0.8429  0.6042 -1.6578
  989MOL0     C33392   8.701   8.895   6.664 -1.0615  0.0257  1.0437
  989MOL0     C33393   8.597   8.987   6.588  0.7584  0.1580  0.6858
  989MOL0     C33394   8.624   9.129   6.624  1.4008 -0.8264 -0.9030
  989MOL0     C33395   8.517   9.207   6.550 -0.5623 -0.1809  0.2378
  989MOL0     C33396   8.535   9.358   6.587 -1.2443 -0.0713  0.1781
  989MOL0     N33397   8.650   9.417   6.502 -0.3009  0.1177 -1.0530
  989MOL0     C33398   8.667   9.552   6.474 -0.1351  0.1711  0.4290
  989MOL0     C33399   8.795   9.561   6.415 -1.2851 -0.4880 -0.5821
  989MOL0     C33400   8.866   9.685   6.386  0.2697 -0.0233 -0.2993
  989MOL0     C33401   8.931   9.678   6.246  0.5765 -0.7216  0.3322
  989MOL0     C33402   8.831   9.652   6.132 -0.3416  0.6523 -0.0865
  989MOL0     C33403   8.901   9.670   5.996 -0.1498 -0.1226 -0.0609
  989MOL0     O33404   8.939   9.809   5.983 -0.9227 -0.6585 -0.2905
  989MOL0     C33405   8.999   9.843   5.869 -0.3962 -0.2662  0.0693
  989MOL0     C33406   9.038   9.757   5.767 -0.6668  0.0561  0.1237
  989MOL0     C33407   9.090   9.795   5.645 -0.9283  0.0027 -0.6495
  989MOL0     C33408   9.100   9.686   5.541  0.4111  0.4392  0.1619
  989MOL0     C33409   9.094   9.932   5.615 -0.7586 -0.7275  0.2412
  989MOL0     C33410   9.116   9.991   5.481  0.3160  0.1510  0.2484
  989MOL0     O33411   9.120   9.913   5.375 -0.1576 -0.5810  0.1622
  989MOL0     C33412   9.116   9.982   5.262 -0.9437 -0.1808 -0.6693
  989MOL0     C33413   9.240  10.012   5.199  0.2819 -0.8352 -0.0192
  989MOL0     C33414   9.232  10.081   5.078  0.0206  0.1174  1.1610
  989MOL0     C33415   9.108  10.121   5.023  0.0225  1.3798  0.3055
  989MOL0     O33416   9.104  10.173   4.899 -0.5542  0.2302  0.2956
  989MOL0     C33417   9.088  10.080   4.799 -0.0009 -0.0660 -0.4137
  989MOL0     C33418   8.953  10.014   4.791 -0.2213  0.4846  0.6223
  989MOL0     C33419   8.942   9.925   4.665  0.3785 -0.1397  0.4137
  989MOL0     C33420   8.797   9.861   4.654 -0.5335  1.0958 -0.4778
  989MOL0     C33421   8.787   9.734   4.733 -0.2240 -0.4530  0.7438
  989MOL0     C33422   8.640   9.681   4.734 -0.3394 -0.0386  1.1399
  989MOL0     C33423   8.593   9.650   4.596  0.5175  0.2331  0.1443
  989MOL0     C33424   8.457   9.588   4.610  0.1081  0.7563  0.0762
  989MOL0    Cl33425   8.334   9.691   4.695 -0.4325 -0.9697  0.1937
  989MOL0     C33426   8.988  10.093   5.086 -0.1059  1.1229  0.3921
  989MOL0     C33427   8.994  10.025   5.211 -0.2410 -0.0746  0.3603
  989MOL0     O33428   9.138  10.110   5.481 -0.1138 -0.0678  0.0763
  989MOL0     C33429   9.070  10.024   5.729  0.6289  0.1182 -1.3786
  989MOL0     C33430   9.024   9.978   5.853 -0.4009  0.0535 -1.0403
  989MOL0     N33431   8.844   9.432   6.402 -0.5201  0.3819 -0.4040
  989MOL0     N33432   8.765   9.351   6.460 -0.2636 -0.5058  0.5845
  989MOL0     C33433   8.418   8.439   7.013  0.0064 -0.1359  0.8880
  989MOL0     C33434   8.308   8.375   7.072  0.7383  0.7342 -0.2610
  989MOL0     C33435   7.865   8.308   7.202  0.0068  0.3043 -0.6912
  989MOL0     C33436   7.752   8.257   7.139 -0.5561 -0.2360  0.1368
  989MOL0     C33437   7.653   8.184   7.199 -0.5808  0.4187  0.4995
  989MOL0     C33438   7.657   8.169   7.342  0.6001 -0.2319 -0.3453
  989MOL0     O33439   7.545   8.110   7.408 -0.3238 -0.1991  0.2648
  989MOL0     C33440   7.537   8.130   7.551  0.3871  0.4201 -0.5959
  989MOL0     C33441   7.405   8.092   7.613 -0.7502  0.3109 -0.1774
  989MOL0     C33442   7.387   8.086   7.769  0.0222 -0.7236 -0.8245
  989MOL0     C33443   7.483   7.987   7.836 -0.5640  0.0049  0.1303
  989MOL0     C33444   7.466   8.001   7.988 -0.4973  0.1915  0.2539
  989MOL0     C33445   7.448   8.017   8.106  0.9189 -0.2726 -1.6858
  989MOL0     C33446   7.767   8.230   7.412 -0.7899 -0.4262  0.9134
  989MOL0     C33447   7.856   8.304   7.341 -0.8846  0.5000 -0.4947
  989MOL0     H33448   8.166   8.632   7.237  2.3860 -0.6422  4.0707
  989MOL0     H33449   8.370   8.735   7.169  1.2172  0.5944 -1.2792
  989MOL0     H33450   8.672   8.514   6.948 -3.9083 -2.5847  1.2773
  989MOL0     H33451   8.570   8.532   6.805 -0.9129  2.1904 -0.9035
  989MOL0     H33452   8.755   8.761   6.907 -2.2067  2.2493  0.7022
  989MOL0     H33453   8.795   8.648   6.772  1.7141  3.1359 -0.2207
  989MOL0     H33454   8.585   8.712   6.663 -1.9670 -1.3790  0.8504
  989MOL0     H33455   8.543   8.821   6.790 -1.3199 -4.0083  1.3278
  989MOL0     H33456   8.759   8.961   6.730 -0.9890  2.3476 -1.1683
  989MOL0     H33457   8.779   8.856   6.598  1.3571  1.5053  2.8481
  989MOL0     H33458   8.623   8.959   6.486  3.8981 -3.6751  2.2415
  989MOL0     H33459   8.500   8.949   6.621  0.8428 -3.3831 -2.4329
  989MOL0     H33460   8.603   9.135   6.731  1.7640 -1.7934 -0.7641
  989MOL0     H33461   8.729   9.157   6.608  1.6442 -0.4396  1.1336
  989MOL0     H33462   8.520   9.200   6.440 -0.0829  3.6908 -0.1168
  989MOL0     H33463   8.414   9.192   6.583 -0.2900  1.0635  1.7645
  989MOL0     H33464   8.574   9.357   6.690  2.6111 -2.0150 -1.0800
  989MOL0     H33465   8.453   9.430   6.579  0.4503  1.9085 -0.2818
  989MOL0     H33466   8.604   9.636   6.500  0.5378  0.6080  0.6900
  989MOL0     H33467   8.800   9.771   6.398  0.6746  0.2731 -0.1473
  989MOL0     H33468   8.942   9.695   6.465  0.9625  3.0685 -1.2305
  989MOL0     H33469   9.018   9.611   6.245  0.4818 -1.0331  3.4032
  989MOL0     H33470   8.981   9.774   6.230 -1.4019  0.2685 -0.2429
  989MOL0     H33471   8.744   9.717   6.136  0.3825  2.2427 -4.5556
  989MOL0     H33472   8.793   9.550   6.145  1.2811 -0.1725 -1.4004
  989MOL0     H33473   8.829   9.650   5.915 -0.3860 -0.7998  0.3010
  989MOL0     H33474   8.986   9.604   5.977  2.7246  2.0795  3.7505
  989MOL0     H33475   9.023   9.649   5.774 -0.7228 -0.3397 -3.8064
  989MOL0     H33476   9.196   9.693   5.489  0.9797  2.0591  1.3418
  989MOL0     H33477   9.094   9.593   5.597  1.1944  0.8845  1.0086
  989MOL0     H33478   9.025   9.685   5.462  1.3794 -0.6534 -0.7702
  989MOL0     H33479   9.337   9.977   5.232  2.0458  2.1042 -1.5732
  989MOL0     H33480   9.329  10.105   5.034 -1.4868  1.8854 -1.4885
  989MOL0     H33481   9.109  10.131   4.705 -3.2495  0.3523 -1.0399
  989MOL0     H33482   9.178  10.018   4.799  1.4280  1.8790  0.9206
  989MOL0     H33483   8.935   9.948   4.876 -0.9874  2.1912  1.8436
  989MOL0     H33484   8.874  10.089   4.783 -1.3062 -0.7860 -1.7524
  989MOL0     H33485   9.032   9.862   4.658  2.0372  2.2404 -1.5829
  989MOL0     H33486   8.952   9.997   4.583  2.5170  1.0398  1.6190
  989MOL0     H33487   8.722   9.933   4.689 -0.6421  1.4547 -1.4139
  989MOL0     H33488   8.775   9.829   4.552 -2.0171 -0.7148  0.3613
  989MOL0     H33489   8.834   9.734   4.832  1.1114 -0.4861  0.1314
  989MOL0     H33490   8.845   9.650   4.693  0.9695 -0.5515  2.5357
  989MOL0     H33491   8.642   9.585   4.787  0.8626 -1.3628 -1.1697
  989MOL0     H33492   8.573   9.753   4.782 -0.5726 -1.1322  2.5126
  989MOL0     H33493   8.662   9.579   4.550 -2.0391 -2.2434 -0.1902
  989MOL0     H33494   8.584   9.746   4.544 -0.9407 -0.1864 -0.4410
  989MOL0     H33495   8.459   9.485   4.648  2.1231  0.2285 -1.3504
  989MOL0     H33496   8.430   9.570   4.506 -3.9033  1.4649  0.8268
  989MOL0     H33497   8.894  10.131   5.047 -0.8475  1.2867  2.2001
  989MOL0     H33498   8.898   9.986   5.245  0.8824 -2.6719  0.7420
  989MOL0     H33499   9.066  10.132   5.723 -2.5592  0.4373  2.6657
  989MOL0     H33500   9.012  10.050   5.934  4.0539  1.4805 -1.3538
  989MOL0     H33501   8.486   8.384   6.948 -2.1963 -1.0547 -0.7934
  989MOL0     H33502   8.295   8.270   7.050  0.1091  0.7791 -0.1185
  989MOL0     H33503   7.750   8.262   7.031  2.7701 -2.3358 -0.1308
  989MOL0     H33504   7.586   8.136   7.128 -1.3802 -0.5200  1.8323
  989MOL0     H33505   7.620   8.077   7.598 -0.4413 -0.7976 -0.4572
  989MOL0     H33506   7.547   8.235   7.578  1.6533 -0.3189  2.2081
  989MOL0     H33507   7.375   7.998   7.567 -1.7781  0.9447 -0.8454
  989MOL0     H33508   7.341   8.168   7.566  0.2125 -0.0219 -2.1209
  989MOL0     H33509   7.283   8.059   7.790  0.1241 -0.9781 -0.6420
  989MOL0     H33510   7.403   8.189   7.803 -1.4048 -0.0178 -2.1836
  989MOL0     H33511   7.587   8.005   7.806 -0.5299 -0.8838 -0.3027
  989MOL0     H33512   7.447   7.889   7.804  3.0130 -0.7432 -2.1694
  989MOL0     H33513   7.456   8.029   8.212  3.7676 -1.7001 -1.6413
  989MOL0     H33514   7.771   8.214   7.519  0.9046 -0.0198  0.9330
  989MOL0     H33515   7.923   8.362   7.404 -0.9424 -1.6459  1.7006
  990MOL0     O33516  10.663   1.945   1.774  0.3227 -0.0204 -0.2407
  990MOL0     C33517  10.780   1.991   1.753 -1.0982 -0.6491  0.5776
  990MOL0     O33518  10.828   2.117   1.775  1.6045 -1.0164 -0.0550
  990MOL0     C33519  10.728   2.199   1.816  0.0261 -0.9619 -0.5370
  990MOL0     C33520  10.618   2.238   1.732 -0.2542  0.0887  0.5087
  990MOL0     C33521  10.506   2.306   1.790  0.3845  0.4646  0.0004
  990MOL0     C33522  10.521   2.358   1.917 -0.3591 -0.5163 -0.2888
  990MOL0     O33523  10.433   2.447   1.969 -0.2334  0.3850 -0.1837
  990MOL0     C33524  10.393   2.560   1.897 -0.2427 -0.1344  0.1559
  990MOL0     C33525  10.305   2.660   1.979 -0.1130 -0.1027 -0.5768
  990MOL0     C33526  10.289   2.792   1.900 -1.1976  0.6003 -0.7949
  990MOL0     C33527  10.409   2.885   1.929 -1.0049 -0.3505  1.3952
  990MOL0     C33528  10.358   3.035   1.903  0.7387  0.0545 -0.0617
  990MOL0     C33529  10.468   3.116   1.963 -0.8395  0.0840 -0.7232
  990MOL0     C33530  10.457   3.257   1.917 -0.4650 -0.6177  0.3253
  990MOL0     C33531  10.538   3.367   1.990  0.1262  0.6678  0.0381
  990MOL0     N33532  10.664   3.402   1.925 -0.4668  0.2469  0.2578
  990MOL0     C33533  10.694   3.512   1.849  0.0191 -0.1893 -0.7751
  990MOL0     C33534  10.826   3.502   1.823  0.0884  0.7422  0.2296
  990MOL0     C33535  10.893   3.598   1.735  0.1550 -0.2666 -0.6248
  990MOL0     C33536  10.857   3.550   1.594 -0.2698 -0.4660 -0.3185
  990MOL0     C33537  10.944   3.637   1.500  0.3424  0.3245  1.1381
  990MOL0     C33538  10.902   3.602   1.351 -0.0968 -0.4881  0.2746
  990MOL0     O33539  10.976   3.678   1.255  0.5734  1.3086  0.2712
  990MOL0     C33540  10.916   3.765   1.170 -0.0952  0.2390  0.5802
  990MOL0     C33541  11.003   3.843   1.101 -0.0263 -0.9174 -0.4311
  990MOL0     C33542  10.965   3.949   1.021  1.5187  0.3671  1.0032
  990MOL0     C33543  11.077   4.025   0.951  0.7324  0.8001 -0.3527
  990MOL0     C33544  10.821   3.973   1.007  0.8248 -0.1035  0.4151
  990MOL0     C33545  10.770   4.086   0.926  0.1992  1.5386  0.4934
  990MOL0     O33546  10.648   4.058   0.865  0.3465  0.1655 -1.0714
  990MOL0     C33547  10.598   4.107   0.753  0.0631  0.3506  0.9094
  990MOL0     C33548  10.461   4.106   0.737 -0.5470  0.5874  0.5410
  990MOL0     C33549  10.397   4.140   0.620  0.5136  0.2308 -0.8819
  990MOL0     C33550  10.469   4.189   0.519 -0.3976 -0.1256  0.4869
  990MOL0     O33551  10.384   4.238   0.416 -0.0921  0.1344 -0.1469
  990MOL0     C33552  10.439   4.223   0.279 -0.6137  0.1080  0.1889
  990MOL0     C33553  10.338   4.289   0.185  0.4527 -0.6619  0.1548
  990MOL0     C33554  10.338   4.438   0.235 -0.6783  0.3008  0.4414
  990MOL0     C33555  10.300   4.526   0.111 -0.3170  0.0533 -0.3048
  990MOL0     C33556  10.317   4.676   0.140 -0.0377 -0.6764 -0.3813
  990MOL0     C33557  10.227   4.739   0.253  0.0379  0.3113 -0.0802
  990MOL0     C33558  10.083   4.760   0.195 -0.2327 -0.2011  0.3007
  990MOL0     C33559  10.003   4.835   0.290 -0.6117 -0.3193  0.2740
  990MOL0    Cl33560   9.835   4.805   0.240  0.2288 -0.3207 -0.2324
  990MOL0     C33561  10.609   4.210   0.528 -0.2609 -0.3440  0.1991
  990MOL0     C33562  10.672   4.168   0.646 -0.3607 -0.3688 -1.1689
  990MOL0     O33563  10.823   4.194   0.912  0.2709 -0.2593  0.5674
  990MOL0     C33564  10.726   3.894   1.085  0.0846 -0.2698  0.0176
  990MOL0     C33565  10.784   3.791   1.166 -0.7689  0.4404  0.2123
  990MOL0     N33566  10.869   3.376   1.877 -0.6487 -0.5283 -0.5386
  990MOL0     N33567  10.767   3.322   1.935  0.2238  0.6423  0.5466
  990MOL0     C33568  10.618   2.318   2.002 -0.3689  1.0550 -0.3719
  990MOL0     C33569  10.721   2.233   1.955 -0.2537  0.2541  0.1394
  990MOL0     C33570  10.885   1.902   1.701 -0.3126 -0.3320  0.1208
  990MOL0     C33571  11.026   1.939   1.687  0.5265  0.1836 -0.0858
  990MOL0     C33572  11.124   1.855   1.636  0.0532 -0.2631 -0.5355
  990MOL0     C33573  11.083   1.724   1.608 -0.4484 -1.1858  0.4676
  990MOL0     O33574  11.184   1.653   1.532  0.5531 -0.2397 -0.4778
  990MOL0     C33575  11.141   1.566   1.431 -0.8879 -0.0858 -0.2236
  990MOL0     C33576  11.143   1.423   1.492  0.2559 -0.6316  0.0227
  990MOL0     C33577  11.109   1.310   1.396  0.4156 -0.1279  0.1448
  990MOL0     C33578  10.962   1.304   1.359  0.1686 -0.4729  0.2692
  990MOL0     C33579  10.938   1.246   1.225  1.0536 -0.8450 -0.3745
  990MOL0     C33580  10.923   1.205   1.114  0.3611  0.0395 -0.3787
  990MOL0     C33581  10.957   1.679   1.635 -0.4117  0.1081 -0.1324
  990MOL0     C33582  10.853   1.768   1.688  0.5335  0.2607  0.0970
  990MOL0     H33583  10.599   2.199   1.632 -1.8547  1.2332  0.3247
  990MOL0     H33584  10.420   2.342   1.735 -0.6759 -0.0167  1.2832
  990MOL0     H33585  10.481   2.606   1.851  2.8160 -3.8604  1.7287
  990MOL0     H33586  10.326   2.536   1.814  0.7017 -0.8573 -0.4146
  990MOL0     H33587  10.209   2.608   1.991  1.8286 -4.8548 -3.0080
  990MOL0     H33588  10.346   2.681   2.078 -0.4395  0.8283 -0.6298
  990MOL0     H33589  10.285   2.780   1.792  1.2341  1.3461 -1.0368
  990MOL0     H33590  10.194   2.831   1.936 -2.3142 -2.2746 -0.3834
  990MOL0     H33591  10.426   2.885   2.037 -3.4030  2.3447  1.8960
  990MOL0     H33592  10.500   2.866   1.872 -1.0370  0.6677  0.9898
  990MOL0     H33593  10.345   3.058   1.797 -2.8685 -0.2130  0.2027
  990MOL0     H33594  10.261   3.065   1.945 -0.6389 -2.8085 -0.9482
  990MOL0     H33595  10.487   3.116   2.071  0.5162  1.5138 -0.9327
  990MOL0     H33596  10.565   3.090   1.920 -1.8042 -1.0891 -2.3070
  990MOL0     H33597  10.481   3.245   1.811 -1.7213 -2.1037  0.1752
  990MOL0     H33598  10.350   3.278   1.919  0.2323  4.1203 -0.4621
  990MOL0     H33599  10.553   3.344   2.096  0.2466  2.0027  0.3225
  990MOL0     H33600  10.476   3.457   1.988 -0.2431  0.4426  1.0027
  990MOL0     H33601  10.623   3.578   1.801 -0.1383  2.3749  2.6531
  990MOL0     H33602  10.856   3.701   1.747 -0.3025 -0.3812 -0.9904
  990MOL0     H33603  11.001   3.602   1.749 -0.1220  3.5394  1.8569
  990MOL0     H33604  10.749   3.551   1.579 -0.5620 -2.5044  1.1628
  990MOL0     H33605  10.893   3.447   1.585 -0.1661 -0.4781  0.2282
  990MOL0     H33606  11.051   3.619   1.504  0.8658  1.3149 -3.0355
  990MOL0     H33607  10.937   3.742   1.528  2.2358  0.8224 -0.1070
  990MOL0     H33608  10.794   3.600   1.334  0.0024 -1.1077 -0.3331
  990MOL0     H33609  10.927   3.497   1.334 -2.8964 -1.3709  0.9530
  990MOL0     H33610  11.105   3.811   1.117  0.7555  0.5364 -2.2125
  990MOL0     H33611  11.035   4.041   0.851  1.1930 -0.6800 -0.7985
  990MOL0     H33612  11.082   4.120   1.005 -0.9212  0.6191  0.1827
  990MOL0     H33613  11.167   3.963   0.948  1.9426  2.2007  2.6524
  990MOL0     H33614  10.389   4.067   0.809 -1.4085 -0.5397 -0.8823
  990MOL0     H33615  10.292   4.110   0.621  0.0902  0.9790  4.0443
  990MOL0     H33616  10.533   4.277   0.273 -0.1196 -0.7365  0.1760
  990MOL0     H33617  10.453   4.119   0.247 -1.3083 -0.6393  2.1474
  990MOL0     H33618  10.354   4.281   0.078  0.7365  2.3097 -0.1092
  990MOL0     H33619  10.239   4.251   0.213  0.1147 -2.0767 -2.7029
  990MOL0     H33620  10.435   4.465   0.279 -1.0643  3.1235 -0.2268
  990MOL0     H33621  10.270   4.458   0.318 -1.5482  3.2451 -0.8499
  990MOL0     H33622  10.369   4.507   0.028 -1.2782  1.2458 -1.4331
  990MOL0     H33623  10.202   4.493   0.078 -0.4313 -0.5070  0.5736
  990MOL0     H33624  10.317   4.742   0.053 -1.6853 -0.9115 -0.5977
  990MOL0     H33625  10.421   4.693   0.170  0.7301 -3.7077 -1.0742
  990MOL0     H33626  10.230   4.655   0.324  0.5508  0.3738 -0.0242
  990MOL0     H33627  10.271   4.828   0.298  0.8432  0.8646 -1.8775
  990MOL0     H33628  10.038   4.661   0.179  1.8838 -1.9018  3.6963
  990MOL0     H33629  10.091   4.824   0.107 -1.6998  0.4097  0.5918
  990MOL0     H33630  10.029   4.942   0.291 -0.0176 -0.4422  2.2420
  990MOL0     H33631  10.028   4.790   0.387  1.1103  2.8133  1.4387
  990MOL0     H33632  10.677   4.247   0.452  0.9269  0.8777  1.7687
  990MOL0     H33633  10.780   4.175   0.646 -0.2284 -1.9808 -0.6430
  990MOL0     H33634  10.620   3.915   1.080 -0.0720 -0.4840  1.7208
  990MOL0     H33635  10.710   3.738   1.225 -0.1026  0.6493  1.2641
  990MOL0     H33636  10.622   2.335   2.110  1.3782  1.5590 -0.4763
  990MOL0     H33637  10.788   2.203   2.034  1.8507  1.1770 -1.2103
  990MOL0     H33638  11.055   2.030   1.738  0.8347 -0.8610  1.7241
  990MOL0     H33639  11.227   1.884   1.618 -0.1211  0.2413 -0.7211
  990MOL0     H33640  11.042   1.583   1.387 -0.7906 -0.6176 -0.6633
  990MOL0     H33641  11.210   1.572   1.346  0.1844  1.5748  0.7094
  990MOL0     H33642  11.073   1.420   1.576  0.0154  2.6561  0.1067
  990MOL0     H33643  11.247   1.419   1.526  0.7758  0.2561 -1.3318
  990MOL0     H33644  11.149   1.215   1.432  1.8227  0.4406  0.1518
  990MOL0     H33645  11.153   1.333   1.298 -2.5039  3.9077 -0.4506
  990MOL0     H33646  10.908   1.399   1.354 -1.3650 -1.1943  2.0053
  990MOL0     H33647  10.916   1.232   1.427  1.1068 -1.1656  0.1926
  990MOL0     H33648  10.900   1.160   1.020  0.4360 -2.6667  0.8092
  990MOL0     H33649  10.929   1.577   1.613 -3.9818  0.8523  0.2891
  990MOL0     H33650  10.750   1.736   1.698  0.4890  0.6630  0.9761
  991MOL0     O33651   7.118   8.058   6.690 -0.8669 -0.3525  0.5114
  991MOL0     C33652   7.187   7.963   6.656  0.0268 -0.3752  0.3521
  991MOL0     O33653   7.253   7.954   6.538 -0.8171 -0.0404  0.0281
  991MOL0     C33654   7.245   8.064   6.456  1.2531 -0.3588  0.1670
  991MOL0     C33655   7.191   8.044   6.328  0.3572  0.4792  0.4861
  991MOL0     C33656   7.179   8.151   6.233  0.8994  0.0460 -0.8231
  991MOL0     C33657   7.210   8.283   6.277 -0.0363  0.3355  0.1381
  991MOL0     O33658   7.188   8.395   6.206 -0.0975 -0.4116  0.1611
  991MOL0     C33659   7.076   8.402   6.124  0.5652  0.3044  0.3959
  991MOL0     C33660   7.118   8.465   5.987 -0.2094  0.6792 -0.9617
  991MOL0     C33661   7.015   8.456   5.873 -0.5686  0.3808 -0.8152
  991MOL0     C33662   7.056   8.551   5.761  0.2839 -0.7236 -0.1059
  991MOL0     C33663   6.958   8.564   5.652  0.0237  0.2670 -0.2040
  991MOL0     C33664   7.026   8.632   5.531  0.0697 -0.9236 -0.3069
  991MOL0     C33665   6.935   8.641   5.413 -0.2786 -0.2317  1.1728
  991MOL0     C33666   6.998   8.696   5.284 -0.8293 -0.6962 -0.1778
  991MOL0     N33667   6.908   8.713   5.174  0.2698  0.6111 -0.4804
  991MOL0     C33668   6.791   8.789   5.157  0.3144 -0.2135  0.3002
  991MOL0     C33669   6.755   8.756   5.029  0.4628 -0.6147  0.1672
  991MOL0     C33670   6.640   8.823   4.962 -0.2300  0.0991 -0.4769
  991MOL0     C33671   6.689   8.954   4.908  0.1581  0.4427  0.2148
  991MOL0     C33672   6.583   9.020   4.814  0.1111  0.1464  0.3374
  991MOL0     C33673   6.624   9.148   4.742  0.6257 -0.1818 -0.2343
  991MOL0     O33674   6.510   9.199   4.669 -0.0431  0.1893  0.1009
  991MOL0     C33675   6.519   9.327   4.626  0.5882  0.4851 -0.5250
  991MOL0     C33676   6.631   9.380   4.551  0.5451 -0.6325  0.0778
  991MOL0     C33677   6.620   9.505   4.510  0.5395 -0.3479  0.6043
  991MOL0     C33678   6.747   9.553   4.432 -0.6502 -0.2721 -0.3933
  991MOL0     C33679   6.501   9.589   4.520  1.7791 -0.5562  1.1218
  991MOL0     C33680   6.501   9.722   4.451  0.9538  1.1573  1.6802
  991MOL0     O33681   6.615   9.798   4.433  0.4042 -0.5718 -0.7546
  991MOL0     C33682   6.618   9.921   4.373 -0.1207 -0.0109  0.5232
  991MOL0     C33683   6.512   9.979   4.290  0.2581  0.0394  0.0920
  991MOL0     C33684   6.517  10.110   4.244 -0.2076  0.4599  0.9496
  991MOL0     C33685   6.630  10.184   4.283  0.1117  0.9586  0.4381
  991MOL0     O33686   6.619  10.319   4.243 -0.2837 -0.3188  0.3063
  991MOL0     C33687   6.726  10.409   4.245  0.4811  0.1420 -0.0611
  991MOL0     C33688   6.823  10.401   4.128 -0.1092  0.3878  0.3814
  991MOL0     C33689   6.749  10.439   4.007 -0.1351  0.3616 -0.4273
  991MOL0     C33690   6.830  10.416   3.868 -0.3696 -0.4257 -0.2118
  991MOL0     C33691   6.942  10.520   3.856  0.1932 -0.2054 -0.4227
  991MOL0     C33692   7.035  10.471   3.740  0.0245 -0.1677  0.3942
  991MOL0     C33693   7.176  10.529   3.756 -0.0614  0.2400  0.2065
  991MOL0     C33694   7.248  10.493   3.886  0.9732 -0.7336 -0.8841
  991MOL0    Cl33695   7.417  10.540   3.869  0.1200  0.3966 -0.5585
  991MOL0     C33696   6.739  10.124   4.349  0.8511 -0.4173  0.4977
  991MOL0     C33697   6.733   9.991   4.390  0.4474  0.0708  0.9478
  991MOL0     O33698   6.386   9.762   4.441  0.2122  0.1571  0.1940
  991MOL0     C33699   6.388   9.532   4.580 -0.8748 -0.1116 -0.0031
  991MOL0     C33700   6.398   9.403   4.637 -0.3063  1.0432  0.6143
  991MOL0     N33701   6.845   8.671   4.979  1.5928 -0.2280  0.5723
  991MOL0     N33702   6.934   8.648   5.062 -0.4211  0.2229  0.3402
  991MOL0     C33703   7.268   8.303   6.403  1.1358  0.4478  0.3148
  991MOL0     C33704   7.287   8.194   6.489 -0.6839 -1.2165 -0.8108
  991MOL0     C33705   7.180   7.850   6.742 -0.1491 -0.2420  0.5356
  991MOL0     C33706   7.093   7.851   6.860  0.3177  0.2102  0.1585
  991MOL0     C33707   7.082   7.735   6.937  0.8715  0.4630  0.1709
  991MOL0     C33708   7.153   7.617   6.905  0.4793 -0.0462  0.2319
  991MOL0     O33709   7.133   7.508   6.979  0.2241  0.3218 -0.8999
  991MOL0     C33710   7.000   7.456   7.011  0.3851 -0.1760  0.5357
  991MOL0     C33711   6.939   7.382   6.892 -0.5159  0.0173 -0.2371
  991MOL0     C33712   7.007   7.249   6.853  0.1846 -0.5491 -0.5017
  991MOL0     C33713   6.997   7.142   6.963 -0.1037 -0.3226 -0.2073
  991MOL0     C33714   6.874   7.155   7.043 -0.4602 -1.1533  0.8805
  991MOL0     C33715   6.769   7.133   7.097 -0.0588 -0.6216  0.6459
  991MOL0     C33716   7.242   7.624   6.798 -0.1334  0.1367 -0.5115
  991MOL0     C33717   7.249   7.734   6.710  0.1132 -0.2652 -1.1426
  991MOL0     H33718   7.163   7.939   6.322 -2.3652  1.1851 -0.6747
  991MOL0     H33719   7.146   8.135   6.130 -1.6882  0.3568 -0.1229
  991MOL0     H33720   7.038   8.301   6.107  1.5342 -0.0372  0.1973
  991MOL0     H33721   6.997   8.468   6.160 -0.5012  0.1630 -1.5686
  991MOL0     H33722   7.137   8.571   6.005  2.9248  0.6052 -3.0344
  991MOL0     H33723   7.217   8.424   5.968  0.4335  0.4225  2.3680
  991MOL0     H33724   7.030   8.354   5.836  0.8467  0.3591 -0.2559
  991MOL0     H33725   6.914   8.462   5.914  0.4582 -3.9464  3.2078
  991MOL0     H33726   7.073   8.648   5.808  2.5881  0.1894 -2.5792
  991MOL0     H33727   7.150   8.518   5.716  1.0798  1.2783 -0.0320
  991MOL0     H33728   6.934   8.464   5.615  0.3451 -0.3670  1.2443
  991MOL0     H33729   6.861   8.610   5.673 -0.7189 -0.6310 -1.5025
  991MOL0     H33730   7.069   8.730   5.554 -0.5939 -0.4728 -0.9626
  991MOL0     H33731   7.101   8.557   5.502 -0.5252 -2.3318  1.6240
  991MOL0     H33732   6.908   8.536   5.400 -0.1662  0.0819 -2.6856
  991MOL0     H33733   6.850   8.704   5.443  0.7623  1.4701  0.7071
  991MOL0     H33734   7.082   8.639   5.245  1.0072  1.3467  0.5880
  991MOL0     H33735   7.023   8.796   5.320 -3.5180 -0.0882  0.2235
  991MOL0     H33736   6.755   8.858   5.233  2.2513  1.1338  0.0765
  991MOL0     H33737   6.594   8.764   4.882 -0.6833  1.0695 -0.9423
  991MOL0     H33738   6.562   8.821   5.039  0.6041  1.4416  0.4381
  991MOL0     H33739   6.776   8.925   4.849  1.1558 -1.6695  2.5484
  991MOL0     H33740   6.712   9.020   4.992  0.6190  2.5009 -1.4502
  991MOL0     H33741   6.495   9.044   4.874  0.5049  2.2265  0.1332
  991MOL0     H33742   6.553   8.945   4.740  1.3214 -0.9026  0.8491
  991MOL0     H33743   6.715   9.140   4.682  2.5705 -0.4257  2.5621
  991MOL0     H33744   6.666   9.215   4.817  3.0858  0.5076 -2.0858
  991MOL0     H33745   6.712   9.320   4.510  1.1946  0.3702 -0.1495
  991MOL0     H33746   6.831   9.485   4.449 -0.6975 -0.6858 -1.7131
  991MOL0     H33747   6.722   9.551   4.325  1.7538 -0.8861 -1.0065
  991MOL0     H33748   6.791   9.648   4.465  1.2833 -1.0797 -0.4743
  991MOL0     H33749   6.416   9.934   4.267  0.7948 -0.7276 -0.7106
  991MOL0     H33750   6.426  10.158   4.209 -0.2527  0.7683  1.4795
  991MOL0     H33751   6.690  10.512   4.253  3.8179  1.5229 -1.2074
  991MOL0     H33752   6.778  10.393   4.340 -1.0699  0.7097  0.9342
  991MOL0     H33753   6.894  10.481   4.150  2.3615 -0.8284 -2.5334
  991MOL0     H33754   6.881  10.308   4.131  2.3934  1.8647  3.3664
  991MOL0     H33755   6.733  10.546   4.023  0.3804  0.3527  0.1646
  991MOL0     H33756   6.651  10.390   4.013 -1.8528  3.6204  1.6753
  991MOL0     H33757   6.870  10.315   3.866  1.4983  0.2836 -1.4050
  991MOL0     H33758   6.757  10.435   3.789  0.9947  1.6722 -1.0466
  991MOL0     H33759   6.994  10.530   3.951 -0.4095  1.2759 -0.2181
  991MOL0     H33760   6.903  10.619   3.829 -0.0990 -0.2686 -0.2292
  991MOL0     H33761   7.049  10.364   3.758  2.6226  0.1556  0.7384
  991MOL0     H33762   6.987  10.505   3.647 -3.5236  0.2377  2.1998
  991MOL0     H33763   7.185  10.637   3.742  0.3052  0.0559 -1.1175
  991MOL0     H33764   7.237  10.484   3.678  1.7114  2.5810  0.1173
  991MOL0     H33765   7.234  10.386   3.900 -1.6328 -0.2767  0.6435
  991MOL0     H33766   7.199  10.536   3.974  1.6858 -1.4477 -0.1296
  991MOL0     H33767   6.828  10.177   4.383 -0.1001 -0.1056  2.5913
  991MOL0     H33768   6.818   9.950   4.445  0.0523 -2.1262  0.0436
  991MOL0     H33769   6.295   9.587   4.571 -1.1004 -0.6404 -1.1397
  991MOL0     H33770   6.304   9.375   4.684 -0.3851  1.5019  0.7360
  991MOL0     H33771   7.286   8.407   6.428  0.7332  0.1052  2.1569
  991MOL0     H33772   7.332   8.219   6.585  0.7647 -3.0656 -0.9292
  991MOL0     H33773   7.024   7.935   6.869  1.4562  1.4289 -1.7166
  991MOL0     H33774   6.998   7.732   7.006 -0.4798 -0.6071 -1.4447
  991MOL0     H33775   7.008   7.394   7.101  2.1362  2.0113  1.9871
  991MOL0     H33776   6.928   7.537   7.026  2.0466  0.9832  2.9254
  991MOL0     H33777   6.949   7.440   6.799  0.9541  0.2651  0.0447
  991MOL0     H33778   6.832   7.367   6.909 -0.7114 -3.8986 -3.5123
  991MOL0     H33779   7.114   7.263   6.834  0.6655 -1.7803  1.0225
  991MOL0     H33780   6.960   7.206   6.764  1.7365  0.4509 -1.8745
  991MOL0     H33781   7.090   7.138   7.019 -0.0489  0.4230 -0.2334
  991MOL0     H33782   6.991   7.046   6.911  1.1099 -1.5528  1.8153
  991MOL0     H33783   6.694   7.080   7.152 -2.4580  2.3421  0.4815
  991MOL0     H33784   7.306   7.538   6.779  1.3186  1.0847 -0.1053
  991MOL0     H33785   7.303   7.735   6.616 -0.7789  6.4002 -2.0729
  992MOL0     O33786   2.282   3.485   3.056 -0.3412 -0.4019  0.0885
  992MOL0     C33787   2.162   3.476   3.051 -0.1563 -0.9566 -0.1785
  992MOL0     O33788   2.081   3.532   3.130  0.1700  0.4298  1.3259
  992MOL0     C33789   2.104   3.618   3.239 -0.8818 -0.5737 -0.3272
  992MOL0     C33790   2.018   3.731   3.255 -1.5653  0.5294 -0.0108
  992MOL0     C33791   2.035   3.814   3.368 -0.0367 -0.1996  0.8461
  992MOL0     C33792   2.136   3.796   3.465 -0.1965  0.1349  0.1112
  992MOL0     O33793   2.138   3.891   3.567 -0.2805 -0.2753  0.3900
  992MOL0     C33794   2.199   3.867   3.691 -0.8225  0.5426  0.8125
  992MOL0     C33795   2.182   3.975   3.790  0.1565 -0.2816  0.0898
  992MOL0     C33796   2.033   3.988   3.836 -0.1392  0.3295  1.0431
  992MOL0     C33797   1.949   4.077   3.742 -0.2886 -0.0891 -0.1973
  992MOL0     C33798   1.801   4.094   3.777 -0.2251 -0.1614  0.5632
  992MOL0     C33799   1.731   4.190   3.674 -0.4770 -0.0145 -0.0509
  992MOL0     C33800   1.588   4.232   3.715 -0.3966  0.3726  0.7026
  992MOL0     C33801   1.509   4.283   3.595 -0.0905 -1.0157 -0.1699
  992MOL0     N33802   1.533   4.424   3.549 -0.1076  0.0873 -0.1608
  992MOL0     C33803   1.490   4.474   3.428 -1.3889 -0.0071 -0.6417
  992MOL0     C33804   1.543   4.603   3.423  0.0272  0.1505  0.5295
  992MOL0     C33805   1.514   4.712   3.326 -0.0975  0.5760 -0.1736
  992MOL0     C33806   1.638   4.795   3.302 -0.1241  0.1419 -0.0902
  992MOL0     C33807   1.720   4.738   3.189 -0.4455  0.4654  0.2562
  992MOL0     C33808   1.852   4.808   3.183  0.2678  0.1386 -0.3288
  992MOL0     O33809   1.827   4.951   3.154 -0.1180 -0.3771  0.2385
  992MOL0     C33810   1.798   4.994   3.027  0.0852 -0.3431  0.3674
  992MOL0     C33811   1.752   5.125   3.014  0.0121  0.0936  0.0544
  992MOL0     C33812   1.710   5.188   2.898 -0.0016  0.6652 -0.6115
  992MOL0     C33813   1.656   5.326   2.914  0.4818 -0.0936  0.1905
  992MOL0     C33814   1.734   5.115   2.776  0.5967  0.1760  0.4602
  992MOL0     C33815   1.704   5.178   2.645 -0.4489 -0.0085 -0.6187
  992MOL0     O33816   1.659   5.105   2.538 -0.3748 -0.4570  0.6327
  992MOL0     C33817   1.595   5.162   2.435 -0.4239  0.1082  0.1860
  992MOL0     C33818   1.454   5.188   2.432 -0.0504  0.3657  1.9824
  992MOL0     C33819   1.407   5.241   2.308  0.7882  0.4782  0.1065
  992MOL0     C33820   1.477   5.262   2.189 -0.3553 -0.2096 -0.9432
  992MOL0     O33821   1.400   5.314   2.092  0.5195  0.0808  0.3543
  992MOL0     C33822   1.456   5.347   1.965 -0.8781  0.2684 -0.7024
  992MOL0     C33823   1.370   5.455   1.909 -0.2678  0.1188 -0.3733
  992MOL0     C33824   1.392   5.499   1.764  0.1132 -0.4622 -0.4567
  992MOL0     C33825   1.536   5.538   1.752  0.5856  0.3657 -0.5794
  992MOL0     C33826   1.560   5.660   1.655 -0.2788  0.0994 -0.0368
  992MOL0     C33827   1.546   5.625   1.504  1.0730 -0.0469  0.7092
  992MOL0     C33828   1.658   5.544   1.432  0.8193 -0.4641  0.7724
  992MOL0     C33829   1.612   5.482   1.299 -0.3137 -0.4560 -0.6742
  992MOL0    Cl33830   1.719   5.344   1.273 -0.1706 -0.1357 -0.3108
  992MOL0     C33831   1.617   5.223   2.191 -0.0484  0.2041  0.4230
  992MOL0     C33832   1.674   5.186   2.315 -0.1021  0.1729 -0.7742
  992MOL0     O33833   1.743   5.294   2.640  0.2288 -0.2478 -0.4755
  992MOL0     C33834   1.785   4.982   2.786 -1.0672 -0.1304  0.9503
  992MOL0     C33835   1.819   4.925   2.908 -0.8681  0.1966 -0.0762
  992MOL0     N33836   1.617   4.619   3.535 -0.3943 -0.7285 -0.7398
  992MOL0     N33837   1.599   4.524   3.622  0.1023  0.0799  0.0159
  992MOL0     C33838   2.213   3.683   3.449 -0.7537 -0.0719 -0.2787
  992MOL0     C33839   2.202   3.601   3.336  0.2775 -0.6133  0.9218
  992MOL0     C33840   2.098   3.404   2.935 -0.3393 -0.1429 -0.0856
  992MOL0     C33841   2.173   3.318   2.849 -0.0876  0.4101 -0.4861
  992MOL0     C33842   2.112   3.270   2.725  0.3959 -0.1246 -1.4095
  992MOL0     C33843   1.982   3.305   2.704  0.3192  1.6749  0.4431
  992MOL0     O33844   1.930   3.254   2.588  0.0071  0.2774  0.3010
  992MOL0     C33845   1.912   3.363   2.498  1.1009 -0.8749  0.1584
  992MOL0     C33846   1.836   3.320   2.370  0.3232  0.7802  0.6444
  992MOL0     C33847   1.917   3.229   2.279 -0.1379  0.2828  0.1592
  992MOL0     C33848   1.890   3.256   2.128 -0.3115 -0.0063  0.1412
  992MOL0     C33849   1.815   3.152   2.051 -0.0686  0.3083 -0.0877
  992MOL0     C33850   1.774   3.052   1.993 -0.8034 -0.4299  0.7095
  992MOL0     C33851   1.912   3.387   2.787  0.4942 -0.8997 -0.1385
  992MOL0     C33852   1.961   3.431   2.907 -0.3079  0.6382 -0.0493
  992MOL0     H33853   1.934   3.741   3.187 -0.6494  1.9944 -0.9892
  992MOL0     H33854   1.959   3.891   3.373 -2.4230 -1.5848 -5.3610
  992MOL0     H33855   2.149   3.774   3.723 -3.2670  1.0308 -1.2200
  992MOL0     H33856   2.304   3.844   3.675 -0.9379  1.3333 -1.3871
  992MOL0     H33857   2.240   3.956   3.880  0.7108 -1.5440 -0.5136
  992MOL0     H33858   2.229   4.064   3.747  0.6420 -0.7583 -0.3690
  992MOL0     H33859   1.982   3.893   3.854  0.5267 -0.3168 -0.3189
  992MOL0     H33860   2.043   4.043   3.930  1.6021  0.2523  0.9437
  992MOL0     H33861   1.980   4.181   3.724 -1.3951  0.7520  2.3163
  992MOL0     H33862   1.948   4.028   3.644 -1.7201 -2.1666  0.7971
  992MOL0     H33863   1.754   3.996   3.765  0.8353 -0.6681  0.4149
  992MOL0     H33864   1.792   4.104   3.885 -1.0028 -1.3837  0.6296
  992MOL0     H33865   1.788   4.281   3.657  0.1818 -0.4655 -0.2962
  992MOL0     H33866   1.730   4.155   3.571  3.9369 -2.0562  0.4064
  992MOL0     H33867   1.538   4.143   3.754 -0.5863  0.2145  0.1046
  992MOL0     H33868   1.583   4.300   3.800 -1.3224  1.9520 -0.5680
  992MOL0     H33869   1.408   4.289   3.638 -0.1056  2.9623 -0.3799
  992MOL0     H33870   1.506   4.215   3.509  0.7047 -0.1278 -0.9117
  992MOL0     H33871   1.427   4.425   3.353 -0.6853  1.5033 -2.2926
  992MOL0     H33872   1.471   4.674   3.233  0.4546  0.9754 -0.5973
  992MOL0     H33873   1.438   4.769   3.380 -0.9172 -0.2244 -0.4500
  992MOL0     H33874   1.692   4.791   3.397 -3.2710 -1.5023  1.7945
  992MOL0     H33875   1.606   4.892   3.264  1.3414 -0.1566 -2.2840
  992MOL0     H33876   1.674   4.747   3.090 -1.3643 -1.0450  0.5219
  992MOL0     H33877   1.733   4.633   3.216  0.8981  0.7605  0.8651
  992MOL0     H33878   1.932   4.780   3.114  0.6655 -0.1885  0.2566
  992MOL0     H33879   1.898   4.823   3.282  0.3257  0.2262 -0.3686
  992MOL0     H33880   1.742   5.172   3.112  0.9680  1.9231 -0.6845
  992MOL0     H33881   1.740   5.390   2.887 -0.2320  1.4194  1.3524
  992MOL0     H33882   1.573   5.358   2.849  1.5364  2.3154 -0.0983
  992MOL0     H33883   1.640   5.365   3.015  3.1211  3.1670 -0.4633
  992MOL0     H33884   1.383   5.170   2.512 -1.1589  2.4097  1.5098
  992MOL0     H33885   1.302   5.268   2.300  0.8397  0.5401 -0.4190
  992MOL0     H33886   1.557   5.388   1.971 -1.4087  1.3761  1.7836
  992MOL0     H33887   1.460   5.256   1.904 -1.1938 -0.7800  0.7846
  992MOL0     H33888   1.265   5.432   1.929 -1.7400  4.1002 -2.3654
  992MOL0     H33889   1.380   5.540   1.977  1.8062 -1.0206  0.8654
  992MOL0     H33890   1.329   5.585   1.739  0.1165 -0.2453  0.2524
  992MOL0     H33891   1.351   5.420   1.700  0.0471 -1.4654  0.7762
  992MOL0     H33892   1.569   5.562   1.854 -0.8473  2.4053 -0.5340
  992MOL0     H33893   1.591   5.447   1.726 -0.3510 -0.4007  0.0493
  992MOL0     H33894   1.663   5.687   1.678  0.1343 -0.3764 -1.2948
  992MOL0     H33895   1.493   5.743   1.680 -0.7645 -0.9183  2.3658
  992MOL0     H33896   1.453   5.569   1.493  2.3005 -1.6142 -3.2549
  992MOL0     H33897   1.535   5.711   1.438  4.1006 -0.2413 -0.2125
  992MOL0     H33898   1.674   5.462   1.503  0.8189 -0.7926  0.3945
  992MOL0     H33899   1.743   5.610   1.417  0.1472  1.4632  4.3679
  992MOL0     H33900   1.618   5.553   1.215 -1.1130 -0.0214 -0.3765
  992MOL0     H33901   1.509   5.445   1.304  0.0187 -1.3078  0.1343
  992MOL0     H33902   1.682   5.241   2.106 -0.7378 -2.7335 -0.8318
  992MOL0     H33903   1.778   5.164   2.332  0.0878  0.7232 -1.1806
  992MOL0     H33904   1.807   4.927   2.695  0.5313  1.0739  0.5719
  992MOL0     H33905   1.859   4.824   2.908  1.8718  1.2114 -0.7295
  992MOL0     H33906   2.279   3.643   3.525 -1.0160  0.1939  0.0880
  992MOL0     H33907   2.262   3.511   3.323 -0.2750 -1.1392  1.9005
  992MOL0     H33908   2.274   3.288   2.875 -0.6557 -1.6953 -0.5510
  992MOL0     H33909   2.162   3.204   2.655  0.1370 -0.4944 -1.2436
  992MOL0     H33910   1.853   3.443   2.543  4.9076  2.8083 -0.7780
  992MOL0     H33911   2.009   3.403   2.470  1.4223 -0.5239  1.6837
  992MOL0     H33912   1.821   3.415   2.317 -0.5548 -0.8263 -2.2633
  992MOL0     H33913   1.743   3.271   2.399  1.6085 -1.7626  0.7549
  992MOL0     H33914   1.881   3.131   2.310  1.8946 -0.4643  0.3276
  992MOL0     H33915   2.024   3.236   2.298 -0.0798  1.5644 -0.5318
  992MOL0     H33916   1.989   3.255   2.082  0.2620 -4.5688  0.9522
  992MOL0     H33917   1.838   3.352   2.122 -0.4085  0.2260  3.0827
  992MOL0     H33918   1.721   2.971   1.947 -0.0427 -1.4710  1.6110
  992MOL0     H33919   1.810   3.418   2.766  1.0459  2.0857  1.0550
  992MOL0     H33920   1.898   3.505   2.955 -2.3321  0.1416 -1.7667
  993MOL0     O33921   3.850   6.887   3.758 -0.8265 -0.0155  0.2688
  993MOL0     C33922   3.766   6.978   3.747  0.1776 -0.5332  0.2578
  993MOL0     O33923   3.685   7.024   3.850 -0.6700  0.3786  0.1674
  993MOL0     C33924   3.713   7.013   3.983  0.6154 -0.9480  0.5275
  993MOL0     C33925   3.749   6.889   4.045 -0.1464 -0.1110  0.2925
  993MOL0     C33926   3.730   6.875   4.187  0.1953  0.8540  1.3367
  993MOL0     C33927   3.706   6.987   4.266  0.0128 -0.0282 -0.6274
  993MOL0     O33928   3.698   6.982   4.411  0.2430  0.0238 -0.1044
  993MOL0     C33929   3.761   6.875   4.469  0.4205  0.1492  0.0338
  993MOL0     C33930   3.751   6.875   4.617 -0.3289 -0.3273  0.2851
  993MOL0     C33931   3.809   6.745   4.676  0.0554  0.2663  0.0404
  993MOL0     C33932   3.889   6.773   4.805 -0.3859  0.2152  0.3894
  993MOL0     C33933   4.037   6.814   4.799  0.2934  1.1516  0.5761
  993MOL0     C33934   4.098   6.849   4.939 -0.6807  0.3158 -0.5803
  993MOL0     C33935   4.247   6.898   4.923  1.4950 -0.0217  0.8829
  993MOL0     C33936   4.258   7.047   4.894  0.4203  0.4110  0.8168
  993MOL0     N33937   4.388   7.090   4.846 -1.1056 -1.2992 -0.2618
  993MOL0     C33938   4.507   7.053   4.901 -0.2035 -0.6480  0.1747
  993MOL0     C33939   4.597   7.116   4.829 -0.5456 -0.1666  0.2064
  993MOL0     C33940   4.748   7.093   4.853  0.4859  0.6934 -1.0745
  993MOL0     C33941   4.789   7.077   5.003  0.4146 -0.7209 -0.4829
  993MOL0     C33942   4.943   7.060   5.009 -0.4450 -0.0447 -0.2509
  993MOL0     C33943   4.993   7.008   5.153 -0.8873  0.2438 -1.2044
  993MOL0     O33944   4.946   7.092   5.258 -0.6647 -0.1580 -0.6339
  993MOL0     C33945   4.982   7.225   5.253  0.8998  1.0907  0.3492
  993MOL0     C33946   5.114   7.265   5.227  0.3655  0.1257 -0.4251
  993MOL0     C33947   5.141   7.403   5.226 -0.4424 -0.7548  0.1468
  993MOL0     C33948   5.286   7.436   5.178  0.1825  0.3932  0.1235
  993MOL0     C33949   5.059   7.507   5.279  0.3876 -0.4041  0.4530
  993MOL0     C33950   5.090   7.649   5.291 -0.0073  0.0880 -0.6851
  993MOL0     O33951   4.997   7.734   5.310  0.5789 -0.1541 -0.3249
  993MOL0     C33952   5.029   7.867   5.347  0.6043  0.1646  0.1584
  993MOL0     C33953   5.034   7.967   5.245 -0.7211  0.4163  0.6455
  993MOL0     C33954   5.050   8.104   5.280  0.2393  0.3563  0.8066
  993MOL0     C33955   5.062   8.140   5.412  0.8079 -0.4808  0.6891
  993MOL0     O33956   5.051   8.276   5.452  0.0799  0.4919  0.0230
  993MOL0     C33957   5.160   8.313   5.543 -0.1534  0.5705 -0.7427
  993MOL0     C33958   5.162   8.470   5.531 -0.2382 -0.0755  0.3587
  993MOL0     C33959   5.035   8.533   5.590  0.0388 -0.7695  0.2285
  993MOL0     C33960   5.022   8.684   5.566 -0.4246 -0.1875  0.1517
  993MOL0     C33961   4.932   8.767   5.657 -0.3798  0.2177 -0.5750
  993MOL0     C33962   4.942   8.923   5.652 -0.4273  0.6890 -0.2247
  993MOL0     C33963   4.859   8.980   5.768 -0.5993  0.5895 -0.7582
  993MOL0     C33964   4.742   9.063   5.712 -0.0990 -0.3085 -0.0443
  993MOL0    Cl33965   4.650   9.123   5.853 -0.1661  0.2355 -0.0860
  993MOL0     C33966   5.067   8.033   5.510 -0.5618 -0.3361 -0.5740
  993MOL0     C33967   5.054   7.901   5.479  0.7167 -1.0859 -0.8244
  993MOL0     O33968   5.214   7.677   5.296 -0.2576  0.0285  0.4313
  993MOL0     C33969   4.924   7.451   5.294 -0.6133 -0.2870 -0.7370
  993MOL0     C33970   4.888   7.322   5.275 -0.3851 -0.0942  0.6628
  993MOL0     N33971   4.538   7.179   4.721 -0.3124 -0.1415 -1.0787
  993MOL0     N33972   4.412   7.161   4.732 -0.8131 -0.5144 -0.5596
  993MOL0     C33973   3.654   7.098   4.205 -0.0917  0.1855  0.5303
  993MOL0     C33974   3.659   7.113   4.071 -0.5182 -0.1886  0.3190
  993MOL0     C33975   3.730   7.049   3.616 -0.5086  0.5166  0.0483
  993MOL0     C33976   3.639   7.147   3.611 -0.4151 -0.0441  0.7390
  993MOL0     C33977   3.603   7.212   3.487  0.2838 -0.4949  0.5539
  993MOL0     C33978   3.674   7.183   3.370 -0.4109  0.3951 -0.3366
  993MOL0     O33979   3.639   7.244   3.261  0.3863  0.1065  1.0711
  993MOL0     C33980   3.665   7.180   3.131  0.5824 -0.2262  0.0220
  993MOL0     C33981   3.717   7.287   3.029  0.0599 -0.5156 -0.7485
  993MOL0     C33982   3.776   7.230   2.895 -0.1561  0.5045  0.1802
  993MOL0     C33983   3.694   7.131   2.818  1.5870  0.0810  0.6487
  993MOL0     C33984   3.759   7.064   2.707 -0.7867  0.3062  0.7209
  993MOL0     C33985   3.804   7.003   2.612 -0.5260  0.1584 -0.1304
  993MOL0     C33986   3.770   7.085   3.378  0.6422  1.0813  0.9662
  993MOL0     C33987   3.799   7.018   3.503 -0.0604 -0.2131  0.3470
  993MOL0     H33988   3.783   6.807   3.982 -2.6091  0.8312 -2.5434
  993MOL0     H33989   3.750   6.772   4.214 -0.2396  0.9661  2.1173
  993MOL0     H33990   3.722   6.776   4.447  2.0440 -0.3701 -0.6634
  993MOL0     H33991   3.868   6.882   4.450  0.4096  2.9085  0.4927
  993MOL0     H33992   3.794   6.965   4.663 -2.5431  1.6167 -1.1748
  993MOL0     H33993   3.644   6.885   4.634 -0.2449  2.5772 -0.3425
  993MOL0     H33994   3.742   6.663   4.701 -1.5038  1.1067 -1.2161
  993MOL0     H33995   3.878   6.692   4.609  0.8958 -1.8617  2.4367
  993MOL0     H33996   3.845   6.850   4.868 -0.4558 -1.1402  2.0533
  993MOL0     H33997   3.889   6.680   4.861 -4.4818 -0.3414 -0.2321
  993MOL0     H33998   4.100   6.731   4.768  0.6508  1.7364 -0.3200
  993MOL0     H33999   4.042   6.897   4.728 -1.8803  1.4621  0.7243
  993MOL0     H34000   4.033   6.922   4.989 -3.2354 -0.7670 -2.1334
  993MOL0     H34001   4.103   6.763   5.006 -1.0896 -0.7831 -1.9382
  993MOL0     H34002   4.289   6.873   5.021 -0.5313 -2.8481  1.1510
  993MOL0     H34003   4.294   6.842   4.842  0.3797 -1.4903  1.2040
  993MOL0     H34004   4.226   7.113   4.975  0.6698  0.8270  0.5833
  993MOL0     H34005   4.190   7.059   4.809 -1.6817  1.2184  2.5033
  993MOL0     H34006   4.512   6.987   4.988 -4.5128 -1.0764  0.2942
  993MOL0     H34007   4.776   7.009   4.788  2.3025  1.0618 -0.8112
  993MOL0     H34008   4.799   7.180   4.810 -1.0961  2.7408  0.9360
  993MOL0     H34009   4.735   6.998   5.057 -2.1358  1.3784  0.2390
  993MOL0     H34010   4.763   7.167   5.060  0.6272 -0.5009 -0.7302
  993MOL0     H34011   4.984   7.160   4.991  0.2529 -0.3974 -0.6799
  993MOL0     H34012   4.994   7.000   4.933  3.6568  2.0613  0.5487
  993MOL0     H34013   5.102   6.994   5.155 -1.0602 -2.0004 -2.8602
  993MOL0     H34014   4.946   6.909   5.161 -0.3957 -0.2346 -3.4581
  993MOL0     H34015   5.192   7.195   5.198  0.4765  0.1168 -0.1041
  993MOL0     H34016   5.345   7.488   5.253  1.9977  1.2617 -1.7903
  993MOL0     H34017   5.351   7.354   5.143  2.1007  1.7592  0.3292
  993MOL0     H34018   5.282   7.494   5.085  0.5978  0.8399  0.3781
  993MOL0     H34019   5.015   7.925   5.146  3.6392  0.6816 -0.5586
  993MOL0     H34020   5.033   8.189   5.215 -1.1363  1.1306  2.1107
  993MOL0     H34021   5.150   8.286   5.649  1.4481 -2.1955 -1.2041
  993MOL0     H34022   5.261   8.278   5.520  0.6345  3.3879 -1.9925
  993MOL0     H34023   5.253   8.514   5.574 -2.1249  0.5939  4.0779
  993MOL0     H34024   5.159   8.487   5.423  2.3222 -2.0037 -0.1275
  993MOL0     H34025   5.033   8.514   5.698 -1.8476 -0.5705  0.2472
  993MOL0     H34026   4.941   8.495   5.550 -1.7550 -0.2508  3.5632
  993MOL0     H34027   5.117   8.732   5.591 -0.6277  0.0035  0.5555
  993MOL0     H34028   4.999   8.712   5.463 -0.5477  2.5210  0.8581
  993MOL0     H34029   4.956   8.742   5.761 -3.5529  0.0498  0.2239
  993MOL0     H34030   4.825   8.747   5.645 -0.4438  1.3704 -2.2657
  993MOL0     H34031   5.045   8.959   5.649 -0.0568 -0.3729 -2.6249
  993MOL0     H34032   4.903   8.951   5.554 -1.8665  0.1105  0.1547
  993MOL0     H34033   4.915   9.043   5.836 -2.1431  2.9192 -1.5223
  993MOL0     H34034   4.819   8.905   5.837  1.5067  1.6706  1.7786
  993MOL0     H34035   4.674   9.003   5.650  1.1542 -1.2745 -0.5290
  993MOL0     H34036   4.763   9.148   5.647  1.1720 -1.8559 -1.7532
  993MOL0     H34037   5.067   8.053   5.617 -3.7735  0.2468 -0.5914
  993MOL0     H34038   5.054   7.816   5.546 -0.9268 -0.8980 -0.5291
  993MOL0     H34039   4.850   7.510   5.347  0.3075  0.2505 -0.0279
  993MOL0     H34040   4.787   7.289   5.296 -1.0795  2.3591  1.4852
  993MOL0     H34041   3.616   7.172   4.274  1.7921 -1.6214  3.7029
  993MOL0     H34042   3.624   7.205   4.026 -2.0166 -0.1527  1.4901
  993MOL0     H34043   3.595   7.174   3.707  0.8943 -1.0463  1.6373
  993MOL0     H34044   3.535   7.296   3.488  1.3241  0.3761  2.1557
  993MOL0     H34045   3.729   7.092   3.132  2.5442  1.0993  2.4540
  993MOL0     H34046   3.580   7.137   3.077  1.8902  0.2124 -2.5478
  993MOL0     H34047   3.788   7.355   3.076 -0.3286 -0.0065 -0.8931
  993MOL0     H34048   3.631   7.350   3.004  0.9210  1.5409  1.2168
  993MOL0     H34049   3.870   7.180   2.922  0.4584  1.7802  0.4825
  993MOL0     H34050   3.810   7.320   2.844  1.4846  0.6485  1.4478
  993MOL0     H34051   3.605   7.181   2.778  2.1183 -0.1594 -0.9316
  993MOL0     H34052   3.654   7.056   2.886  2.5518  0.8679  2.1469
  993MOL0     H34053   3.855   6.960   2.528 -4.8071 -1.0511 -2.4314
  993MOL0     H34054   3.839   7.061   3.298  1.7233 -0.7482  2.3891
  993MOL0     H34055   3.872   6.937   3.508 -1.1806 -1.2283  0.8914
  994MOL0     O34056   0.834   8.888   3.070 -0.2520 -0.2287 -0.3909
  994MOL0     C34057   0.931   8.811   3.040  0.4004  0.0111  0.3692
  994MOL0     O34058   1.022   8.840   2.942  0.0745 -0.1486 -0.4646
  994MOL0     C34059   1.029   8.959   2.880  0.3251  0.5495  0.3883
  994MOL0     C34060   1.076   9.074   2.931  0.7070 -0.7159 -0.4781
  994MOL0     C34061   1.059   9.192   2.849 -0.3536 -0.4342  0.4783
  994MOL0     C34062   1.008   9.188   2.725  1.3658 -0.3242  0.3784
  994MOL0     O34063   0.998   9.306   2.654 -0.7127 -0.4485  0.5903
  994MOL0     C34064   1.009   9.295   2.513  0.3357 -0.7149 -0.1796
  994MOL0     C34065   1.055   9.436   2.463  0.0380 -0.5682 -1.4669
  994MOL0     C34066   0.946   9.533   2.409  1.2503  0.7914  0.3627
  994MOL0     C34067   1.009   9.666   2.377 -0.4823  1.0292  0.0477
  994MOL0     C34068   1.117   9.659   2.254 -0.6388  0.4650  0.6399
  994MOL0     C34069   1.165   9.810   2.222  0.1685  0.2494 -0.6076
  994MOL0     C34070   1.232   9.811   2.085  0.7031 -0.0020  0.1716
  994MOL0     C34071   1.339   9.705   2.042 -0.0003 -0.1705 -0.6957
  994MOL0     N34072   1.385   9.744   1.910 -0.4514 -0.2220  0.0759
  994MOL0     C34073   1.443   9.864   1.875  0.2387  0.0887  0.1351
  994MOL0     C34074   1.496   9.849   1.749  0.6715  0.2895  0.4442
  994MOL0     C34075   1.574   9.939   1.649 -0.4535 -1.1825  0.4666
  994MOL0     C34076   1.686  10.014   1.719 -0.1047 -0.3596  0.0390
  994MOL0     C34077   1.706  10.156   1.672  0.3565 -0.3622  0.4915
  994MOL0     C34078   1.746  10.160   1.515 -0.7098  0.2158 -0.5910
  994MOL0     O34079   1.644  10.113   1.436 -0.4965  0.8767 -0.3442
  994MOL0     C34080   1.555  10.199   1.386  0.2692 -0.4967  0.5729
  994MOL0     C34081   1.472  10.151   1.284 -0.2477  0.3788 -0.5741
  994MOL0     C34082   1.376  10.237   1.229  0.5462  0.5010 -0.5089
  994MOL0     C34083   1.280  10.179   1.130 -1.1038  0.4886  1.0763
  994MOL0     C34084   1.377  10.374   1.263 -0.3499 -0.3866 -0.2131
  994MOL0     C34085   1.285  10.481   1.208 -0.2657  0.0800 -0.5614
  994MOL0     O34086   1.341  10.596   1.164  0.6075 -0.1310 -0.8293
  994MOL0     C34087   1.261  10.690   1.115  0.3055 -0.1487 -0.2981
  994MOL0     C34088   1.206  10.781   1.210  0.6234 -0.0968  0.2456
  994MOL0     C34089   1.122  10.888   1.177  0.4971 -0.4866  0.0433
  994MOL0     C34090   1.091  10.904   1.043 -0.5103  0.3634  0.2609
  994MOL0     O34091   1.022  11.010   1.003 -0.3697  0.0360  0.0995
  994MOL0     C34092   0.926  11.083   1.082 -0.3608  0.1857  0.5044
  994MOL0     C34093   0.909  11.216   1.007 -0.9606  0.0745 -0.2778
  994MOL0     C34094   0.804  11.227   0.900 -0.3848  0.3193 -0.8182
  994MOL0     C34095   0.849  11.212   0.757  0.0008  0.8466  0.5322
  994MOL0     C34096   0.727  11.174   0.663  0.6699  0.6313 -0.2112
  994MOL0     C34097   0.617  11.277   0.651 -0.2202  0.0121  0.1279
  994MOL0     C34098   0.480  11.236   0.586  0.2263  1.6251  0.1688
  994MOL0     C34099   0.464  11.242   0.432  0.0280 -0.1562 -0.3245
  994MOL0    Cl34100   0.601  11.165   0.353  0.1188 -0.4129 -0.1958
  994MOL0     C34101   1.156  10.816   0.948 -0.1555  0.4850  0.3765
  994MOL0     C34102   1.231  10.705   0.979  0.1690  0.0234 -0.9233
  994MOL0     O34103   1.165  10.463   1.224  0.1425  0.4923  0.2508
  994MOL0     C34104   1.455  10.424   1.372 -0.4786  0.3121 -0.1508
  994MOL0     C34105   1.538  10.329   1.434 -0.6833 -0.5568  0.5308
  994MOL0     N34106   1.486   9.716   1.723  0.9103 -0.3899  0.0155
  994MOL0     N34107   1.411   9.653   1.810 -0.5691 -0.3095  0.1812
  994MOL0     C34108   0.958   9.074   2.668 -0.5472 -0.6491  0.0266
  994MOL0     C34109   0.970   8.958   2.751 -0.0775  0.2304 -0.3620
  994MOL0     C34110   0.949   8.686   3.112 -1.1285 -0.5694 -0.8431
  994MOL0     C34111   0.850   8.626   3.194  0.0135  0.3824  0.5129
  994MOL0     C34112   0.870   8.498   3.258  0.5811 -0.3628  0.3768
  994MOL0     C34113   0.989   8.429   3.240 -0.5155 -0.2132 -0.6849
  994MOL0     O34114   1.008   8.304   3.288  0.3247 -0.9454  0.1113
  994MOL0     C34115   1.103   8.211   3.242 -0.5342  0.1513 -0.1617
  994MOL0     C34116   1.039   8.066   3.251 -0.6539 -0.1864 -1.0972
  994MOL0     C34117   0.982   8.025   3.390 -0.5430 -0.3682 -0.4193
  994MOL0     C34118   1.095   8.020   3.487 -0.5550  0.1285  1.1889
  994MOL0     C34119   1.096   7.893   3.556  0.6817  0.4349 -0.6231
  994MOL0     C34120   1.066   7.784   3.610  0.8039  0.4369 -0.0754
  994MOL0     C34121   1.097   8.498   3.173 -0.1544 -0.1000  0.0800
  994MOL0     C34122   1.073   8.613   3.102  1.0814 -0.5529  0.1372
  994MOL0     H34123   1.136   9.064   3.021 -1.1638  1.2241  1.1417
  994MOL0     H34124   1.120   9.281   2.864  0.2084 -0.4189 -1.6093
  994MOL0     H34125   1.093   9.228   2.496  0.9802 -0.1778  0.7926
  994MOL0     H34126   0.918   9.255   2.468 -0.7947  0.1301  1.2483
  994MOL0     H34127   1.104   9.483   2.548 -1.2242 -2.2537  0.2573
  994MOL0     H34128   1.130   9.419   2.385  0.0555  0.6932 -1.7496
  994MOL0     H34129   0.891   9.497   2.322  0.0478  0.5687  1.2061
  994MOL0     H34130   0.864   9.552   2.478 -2.4267 -0.7065 -3.2345
  994MOL0     H34131   0.929   9.739   2.359  0.3057  1.3978 -2.2072
  994MOL0     H34132   1.057   9.695   2.471 -2.7429  2.7156  0.7786
  994MOL0     H34133   1.204   9.608   2.298  0.4850  1.0408 -0.8588
  994MOL0     H34134   1.068   9.610   2.170 -4.4796 -0.2411  3.0048
  994MOL0     H34135   1.089   9.888   2.234  1.3945  1.6458 -1.6329
  994MOL0     H34136   1.239   9.857   2.287 -0.2271  1.4224 -0.9763
  994MOL0     H34137   1.160   9.798   2.004  1.4803  1.7849 -0.8757
  994MOL0     H34138   1.275   9.912   2.079 -0.4065  0.7486  2.9710
  994MOL0     H34139   1.290   9.608   2.031 -3.6047  1.2261  1.1894
  994MOL0     H34140   1.410   9.707   2.125  0.7582 -0.5112 -1.3340
  994MOL0     H34141   1.442   9.952   1.939  1.6951  0.9300 -0.9360
  994MOL0     H34142   1.610   9.873   1.570 -1.6494 -0.7746 -0.4529
  994MOL0     H34143   1.494   9.997   1.602  0.5613 -0.0761  0.0623
  994MOL0     H34144   1.777   9.953   1.709 -0.4880 -1.8289  3.7216
  994MOL0     H34145   1.674  10.010   1.828 -2.5340  0.3457 -0.1426
  994MOL0     H34146   1.786  10.195   1.735  0.6017 -2.8113  1.7944
  994MOL0     H34147   1.613  10.212   1.688 -0.4891 -1.8879  1.1103
  994MOL0     H34148   1.830  10.090   1.502 -1.6794 -1.4040  1.2709
  994MOL0     H34149   1.771  10.264   1.492 -3.2089  0.9953 -0.0493
  994MOL0     H34150   1.479  10.047   1.255  3.6189 -0.0625  1.3453
  994MOL0     H34151   1.321  10.176   1.029 -0.7802  0.0477  1.2185
  994MOL0     H34152   1.250  10.078   1.159 -1.9291  0.7257  1.0736
  994MOL0     H34153   1.188  10.238   1.131  0.0003  2.2868  2.3085
  994MOL0     H34154   1.238  10.766   1.313  3.9679 -0.4487 -0.7287
  994MOL0     H34155   1.074  10.948   1.254  0.0421  0.0700 -0.6600
  994MOL0     H34156   0.831  11.030   1.081  0.6457 -1.7398  1.8873
  994MOL0     H34157   0.967  11.097   1.183  1.2018  0.0953 -0.0920
  994MOL0     H34158   0.874  11.284   1.086  1.8376 -2.9278  4.0035
  994MOL0     H34159   1.009  11.244   0.973  0.9216 -4.2596  0.9912
  994MOL0     H34160   0.753  11.324   0.909 -1.7486 -0.4379  0.0262
  994MOL0     H34161   0.728  11.157   0.936 -2.4739  3.5189  1.6096
  994MOL0     H34162   0.879  11.311   0.720 -3.7069  1.3080 -1.8051
  994MOL0     H34163   0.927  11.137   0.745 -1.2680 -0.4208 -0.0089
  994MOL0     H34164   0.680  11.090   0.715  1.1394 -0.2660 -1.2200
  994MOL0     H34165   0.770  11.144   0.568 -2.7874  1.6634 -2.2945
  994MOL0     H34166   0.595  11.334   0.741 -2.4274  0.7839 -0.8357
  994MOL0     H34167   0.654  11.349   0.577 -3.2496  2.0171  0.3891
  994MOL0     H34168   0.408  11.303   0.635 -0.2458  1.2504 -0.0086
  994MOL0     H34169   0.471  11.130   0.609 -0.3988  1.6492  0.0428
  994MOL0     H34170   0.445  11.340   0.386 -1.0414 -0.8267 -1.3412
  994MOL0     H34171   0.379  11.182   0.400 -0.0562  0.5724 -1.5107
  994MOL0     H34172   1.152  10.837   0.841 -0.1101 -0.2499  0.2236
  994MOL0     H34173   1.263  10.637   0.900  2.0137  1.1045 -1.1550
  994MOL0     H34174   1.454  10.531   1.390 -1.9481  1.2296 -4.5875
  994MOL0     H34175   1.594  10.361   1.522  0.5434 -1.0292 -0.0551
  994MOL0     H34176   0.915   9.061   2.569  2.2101  2.3701 -1.7381
  994MOL0     H34177   0.939   8.858   2.723  3.3218 -1.4218  1.1255
  994MOL0     H34178   0.753   8.674   3.192 -0.8057 -1.2366 -1.3353
  994MOL0     H34179   0.789   8.448   3.311  0.5147  0.9000  1.5423
  994MOL0     H34180   1.126   8.221   3.136  0.8419 -1.3807 -0.0421
  994MOL0     H34181   1.197   8.213   3.298 -2.0852  0.1832  2.6071
  994MOL0     H34182   1.107   7.988   3.216  0.5031  0.4340 -0.2647
  994MOL0     H34183   0.956   8.064   3.179 -0.4378 -1.6224 -1.3305
  994MOL0     H34184   0.939   7.925   3.387  2.1024 -1.5818 -0.0674
  994MOL0     H34185   0.916   8.108   3.418  0.0278 -0.5896  1.7693
  994MOL0     H34186   1.071   8.091   3.566  2.8569 -0.4970  3.0059
  994MOL0     H34187   1.197   8.040   3.453 -0.1576  1.1510  2.8697
  994MOL0     H34188   1.044   7.699   3.671  1.2622 -2.2398 -3.3563
  994MOL0     H34189   1.188   8.440   3.173 -0.4443 -0.5592 -0.0182
  994MOL0     H34190   1.152   8.658   3.042  2.4051  1.5290  3.1838
  995MOL0     O34191   6.446   0.126  11.341  0.5521  0.5873 -0.3934
  995MOL0     C34192   6.472   0.231  11.398  0.2042  0.0964 -0.3042
  995MOL0     O34193   6.394   0.346  11.398 -0.5100 -0.8039 -0.0565
  995MOL0     C34194   6.268   0.357  11.357 -0.5673 -0.0732 -0.5580
  995MOL0     C34195   6.178   0.246  11.340 -1.3533 -0.0328  0.1916
  995MOL0     C34196   6.054   0.260  11.281  1.1528 -0.0720  0.0826
  995MOL0     C34197   6.010   0.380  11.235 -1.4041  0.4395  0.7936
  995MOL0     O34198   5.886   0.379  11.175 -0.0533 -0.0495  0.5147
  995MOL0     C34199   5.868   0.490  11.087 -0.1522  0.1964 -0.2414
  995MOL0     C34200   5.727   0.475  11.040 -0.6937 -0.1201  0.7095
  995MOL0     C34201   5.626   0.504  11.157  0.1680 -0.0956  0.6291
  995MOL0     C34202   5.489   0.449  11.113  0.6217 -0.2017  0.0526
  995MOL0     C34203   5.388   0.447  11.227  0.4794  0.6246  0.3432
  995MOL0     C34204   5.244   0.431  11.177  0.1293  0.7044 -0.3544
  995MOL0     C34205   5.182   0.567  11.144  0.0966  0.9059  0.0229
  995MOL0     C34206   5.042   0.544  11.079 -0.5896  0.0412  0.7649
  995MOL0     N34207   4.962   0.672  11.073  0.3008 -0.0545 -0.4190
  995MOL0     C34208   4.986   0.772  10.989 -0.6594  0.8869  0.4234
  995MOL0     C34209   4.926   0.882  11.040  0.2400  0.2433  0.4073
  995MOL0     C34210   4.933   1.015  10.970 -0.0404 -0.0035  0.7622
  995MOL0     C34211   5.074   1.057  10.926 -1.3168 -0.8054 -0.5452
  995MOL0     C34212   5.168   1.099  11.041 -0.4337  0.3503  0.3512
  995MOL0     C34213   5.213   0.987  11.138  0.0371  0.4918 -0.2323
  995MOL0     O34214   5.290   1.048  11.245 -0.3161  0.2002  0.5636
  995MOL0     C34215   5.374   0.963  11.311 -0.0509 -1.0914 -0.4499
  995MOL0     C34216   5.508   0.974  11.262  0.5574 -0.4699 -1.0361
  995MOL0     C34217   5.598   0.889  11.325  0.6077  0.0934 -0.0046
  995MOL0     C34218   5.739   0.899  11.266  0.2377  0.9342 -0.0898
  995MOL0     C34219   5.577   0.803  11.439 -0.8587  0.2394 -0.2772
  995MOL0     C34220   5.677   0.727  11.512  0.2843  0.5590  0.3981
  995MOL0     O34221   5.810   0.753  11.501 -0.2681  0.6728  0.2997
  995MOL0     C34222   5.895   0.656  11.556  0.4751 -0.1177 -0.0682
  995MOL0     C34223   5.911   0.522  11.519  0.4204  0.3450 -0.1162
  995MOL0     C34224   6.002   0.439  11.586 -0.6251 -0.1314  1.3164
  995MOL0     C34225   6.092   0.487  11.681 -0.1440  1.0784 -0.9644
  995MOL0     O34226   6.173   0.409  11.766  0.1039 -0.6039  0.0366
  995MOL0     C34227   6.311   0.415  11.742  0.6233 -0.0763 -0.0743
  995MOL0     C34228   6.385   0.293  11.800  0.4112  0.2953  0.0041
  995MOL0     C34229   6.302   0.167  11.782 -0.5092  0.4727  0.0420
  995MOL0     C34230   6.351   0.036  11.857 -0.0084 -0.0521  0.6070
  995MOL0     C34231   6.478  -0.007  11.797  0.3370 -0.6151 -0.2434
  995MOL0     C34232   6.495  -0.162  11.804 -0.5816 -0.3680 -0.0188
  995MOL0     C34233   6.647  -0.194  11.802 -1.4609 -0.7562 -0.0118
  995MOL0     C34234   6.723  -0.156  11.669  0.1862  0.8542 -0.5320
  995MOL0    Cl34235   6.897  -0.176  11.662  0.3593 -0.4094 -0.0297
  995MOL0     C34236   6.081   0.623  11.718 -0.1269 -0.6869  0.4489
  995MOL0     C34237   5.984   0.702  11.654  0.2983  0.0515  0.6353
  995MOL0     O34238   5.638   0.655  11.600  0.1301  0.3862 -0.6203
  995MOL0     C34239   5.440   0.812  11.481  0.3331 -0.1942  0.7636
  995MOL0     C34240   5.340   0.886  11.427  0.0799 -0.2440  0.5273
  995MOL0     N34241   4.883   0.844  11.170  0.2667  0.3388 -0.2003
  995MOL0     N34242   4.900   0.717  11.190  0.4883  0.1315 -0.7851
  995MOL0     C34243   6.105   0.493  11.242  0.4615 -0.2121 -0.4896
  995MOL0     C34244   6.232   0.477  11.309 -0.3145 -0.6119 -0.9387
  995MOL0     C34245   6.607   0.245  11.458 -0.0242  0.4873 -1.2961
  995MOL0     C34246   6.652   0.359  11.520  0.1718  0.1523 -0.6641
  995MOL0     C34247   6.784   0.368  11.573  0.0465  0.5194 -0.7066
  995MOL0     C34248   6.872   0.261  11.560 -1.0910  0.7421 -0.0344
  995MOL0     O34249   6.994   0.263  11.626 -0.5076 -0.1300 -0.3015
  995MOL0     C34250   7.095   0.185  11.554 -0.3389  0.8298 -0.2405
  995MOL0     C34251   7.225   0.202  11.626 -0.3248  0.1323 -0.3742
  995MOL0     C34252   7.271   0.350  11.652 -0.3678 -0.1124  0.1337
  995MOL0     C34253   7.419   0.353  11.685 -0.2324 -0.5349 -0.4007
  995MOL0     C34254   7.477   0.497  11.706 -0.3106  1.0699  1.1086
  995MOL0     C34255   7.537   0.604  11.705 -0.2915  0.6452 -0.3588
  995MOL0     C34256   6.830   0.146  11.486 -0.0375  0.2155 -0.2744
  995MOL0     C34257   6.701   0.137  11.438 -0.9388 -0.3032  0.5982
  995MOL0     H34258   6.221   0.151  11.370  1.3676  1.2418  0.6890
  995MOL0     H34259   5.984   0.178  11.267  1.5340 -0.2575 -0.7519
  995MOL0     H34260   5.889   0.593  11.116  0.1671  0.3915 -1.1247
  995MOL0     H34261   5.932   0.461  11.003  0.9933 -3.9310  1.7636
  995MOL0     H34262   5.705   0.551  10.965  0.6627 -0.0464  0.3636
  995MOL0     H34263   5.709   0.371  11.009 -0.8694 -0.7113  2.6447
  995MOL0     H34264   5.667   0.458  11.247  2.2198  0.8779  0.2534
  995MOL0     H34265   5.610   0.611  11.169 -1.0815 -0.4609  2.6316
  995MOL0     H34266   5.445   0.504  11.029  3.1213 -0.1128 -1.3227
  995MOL0     H34267   5.497   0.349  11.069  2.5056 -0.4579  0.8813
  995MOL0     H34268   5.422   0.362  11.287  0.5569  1.2723  1.2144
  995MOL0     H34269   5.400   0.538  11.286 -1.6955  1.9431 -1.0845
  995MOL0     H34270   5.217   0.360  11.098  0.3681  1.4418 -1.1156
  995MOL0     H34271   5.188   0.395  11.264 -3.5140 -0.0833 -2.8067
  995MOL0     H34272   5.166   0.633  11.230  1.1853  4.4229 -2.2370
  995MOL0     H34273   5.248   0.626  11.079 -0.7842 -0.1249 -1.8920
  995MOL0     H34274   4.983   0.473  11.137 -1.0462  0.3037  0.6273
  995MOL0     H34275   5.056   0.485  10.988 -0.4330 -2.8443  2.5634
  995MOL0     H34276   5.047   0.752  10.902 -0.7471  1.8192  0.1411
  995MOL0     H34277   4.871   1.003  10.881 -2.6602 -0.3425  2.5384
  995MOL0     H34278   4.882   1.091  11.030 -0.0739  1.3615 -0.9133
  995MOL0     H34279   5.059   1.150  10.870 -0.3198 -0.9673 -1.1175
  995MOL0     H34280   5.128   1.000  10.850  0.2252 -0.6705  0.4112
  995MOL0     H34281   5.124   1.182  11.098  1.7528  2.5446 -0.9478
  995MOL0     H34282   5.264   1.138  11.005 -0.0355 -2.4176 -1.9088
  995MOL0     H34283   5.279   0.915  11.087  1.7589  0.4123  1.9434
  995MOL0     H34284   5.126   0.937  11.182  2.0250 -1.8653  1.2691
  995MOL0     H34285   5.542   1.042  11.185  1.6633  0.1906  0.0033
  995MOL0     H34286   5.774   0.800  11.236  3.3386  0.7546  3.3935
  995MOL0     H34287   5.744   0.984  11.197 -1.4466  3.9114  3.1436
  995MOL0     H34288   5.814   0.930  11.340  0.4642 -0.5558  0.3372
  995MOL0     H34289   5.856   0.475  11.438  2.3324 -2.2897  0.0014
  995MOL0     H34290   6.029   0.338  11.557 -1.1355  0.3500 -1.0500
  995MOL0     H34291   6.338   0.403  11.637  0.6244  3.4405 -0.6055
  995MOL0     H34292   6.357   0.508  11.777 -0.7345  0.2983  0.8229
  995MOL0     H34293   6.483   0.274  11.756  0.1987 -2.1109  0.4356
  995MOL0     H34294   6.392   0.313  11.907  2.2501 -1.9193  0.3567
  995MOL0     H34295   6.313   0.146  11.676 -1.2282 -1.1868  0.2595
  995MOL0     H34296   6.197   0.172  11.811  0.0136 -0.1091  2.2422
  995MOL0     H34297   6.368   0.064  11.962  1.7142  0.4769  0.2117
  995MOL0     H34298   6.277  -0.042  11.839 -0.1371  0.2796 -0.3213
  995MOL0     H34299   6.559   0.041  11.852  0.4525 -0.7642 -0.2845
  995MOL0     H34300   6.491   0.029  11.695  1.0388 -1.7054 -0.5542
  995MOL0     H34301   6.446  -0.201  11.894  0.3594  0.9039  1.0919
  995MOL0     H34302   6.439  -0.196  11.717 -2.2222  3.3820 -0.5979
  995MOL0     H34303   6.655  -0.300  11.827 -1.2152 -0.6961  0.1670
  995MOL0     H34304   6.691  -0.134  11.882 -2.7145 -0.6727  0.6304
  995MOL0     H34305   6.689  -0.053  11.658  1.4399  2.0100  4.2853
  995MOL0     H34306   6.681  -0.187  11.573  4.7069 -0.0728 -2.4822
  995MOL0     H34307   6.143   0.663  11.798 -2.8862 -1.4561  3.1786
  995MOL0     H34308   5.982   0.809  11.672  1.2767 -0.3062  3.3856
  995MOL0     H34309   5.419   0.741  11.561 -0.7602 -0.4745  0.2515
  995MOL0     H34310   5.239   0.881  11.465 -0.3086 -1.7845 -0.5897
  995MOL0     H34311   6.086   0.595  11.208  0.3993  1.0586  3.0035
  995MOL0     H34312   6.311   0.551  11.311 -1.1011  0.2227 -0.4582
  995MOL0     H34313   6.593   0.449  11.537 -0.5608 -0.6195  1.1482
  995MOL0     H34314   6.818   0.452  11.634  0.5849 -1.3188  1.7043
  995MOL0     H34315   7.110   0.077  11.549 -0.1310  0.8043  0.7926
  995MOL0     H34316   7.109   0.239  11.460  0.9930  1.8563  0.5118
  995MOL0     H34317   7.306   0.145  11.580  0.8964 -0.1942  2.0462
  995MOL0     H34318   7.227   0.147  11.721 -1.5378 -0.6585 -0.7723
  995MOL0     H34319   7.213   0.396  11.732 -1.1362  0.1813 -0.5700
  995MOL0     H34320   7.248   0.412  11.564 -1.4470 -0.9644 -0.2035
  995MOL0     H34321   7.471   0.305  11.602 -0.5007 -2.9013  0.7324
  995MOL0     H34322   7.430   0.292  11.775 -0.3681  3.4102  2.5849
  995MOL0     H34323   7.580   0.702  11.714  1.8547 -0.3236  0.7454
  995MOL0     H34324   6.889   0.057  11.471  2.0188  1.8628 -2.6339
  995MOL0     H34325   6.675   0.045  11.386 -3.7054  1.4861 -1.4516
  996MOL0     O34326   4.938   9.707   9.868 -1.1147  0.0370  0.0194
  996MOL0     C34327   5.049   9.746   9.919 -0.9273 -0.2993 -0.2778
  996MOL0     O34328   5.091   9.877   9.922  0.0429  0.2612  0.5461
  996MOL0     C34329   5.010   9.975   9.883 -0.0442 -0.2744  0.4419
  996MOL0     C34330   4.936   9.964   9.762  0.1077 -0.1948 -0.9229
  996MOL0     C34331   4.888  10.075   9.686 -0.9782  0.4739 -0.6517
  996MOL0     C34332   4.913  10.199   9.734  0.9507  0.3052  0.4016
  996MOL0     O34333   4.867  10.309   9.668  0.2109  0.1558 -0.6041
  996MOL0     C34334   4.830  10.320   9.529  0.0405  0.2359 -0.2317
  996MOL0     C34335   4.749  10.455   9.536 -0.6229  0.4090  0.5475
  996MOL0     C34336   4.665  10.471   9.402  0.4151 -0.0717 -0.7057
  996MOL0     C34337   4.588  10.614   9.407  0.5066  0.5216 -0.5102
  996MOL0     C34338   4.473  10.617   9.507  0.8411 -0.2762  1.3823
  996MOL0     C34339   4.420  10.769   9.539  0.3617 -0.2072 -0.1692
  996MOL0     C34340   4.324  10.770   9.654  1.7218  0.7961 -0.5536
  996MOL0     C34341   4.188  10.719   9.613  0.2391 -0.1769  1.1738
  996MOL0     N34342   4.095  10.720   9.728  0.3995  0.6175 -0.3511
  996MOL0     C34343   4.067  10.819   9.825 -0.0917 -0.2609  0.5872
  996MOL0     C34344   3.958  10.761   9.888 -0.6633  1.0266 -0.2507
  996MOL0     C34345   3.886  10.833   9.998 -0.0437  0.3665  0.0428
  996MOL0     C34346   3.755  10.896   9.949 -0.0144 -0.3967 -0.1514
  996MOL0     C34347   3.642  10.808  10.004 -0.2837  0.7698 -0.3302
  996MOL0     C34348   3.492  10.861   9.966 -0.4466  0.5967  0.4974
  996MOL0     O34349   3.462  10.985  10.030  0.3586 -0.3759 -0.3569
  996MOL0     C34350   3.409  10.991  10.156 -1.3371 -0.5698 -0.6186
  996MOL0     C34351   3.387  10.873  10.232 -0.3468  0.0251  0.0120
  996MOL0     C34352   3.315  10.874  10.355 -0.5980  0.8822 -0.1644
  996MOL0     C34353   3.260  10.752  10.414  0.5450  0.4372  0.0700
  996MOL0     C34354   3.272  11.001  10.402  0.2972 -1.5334 -0.1682
  996MOL0     C34355   3.189  11.023  10.529  0.1471  0.4912  0.0834
  996MOL0     O34356   3.128  11.148  10.540 -0.3615 -0.0628  0.3371
  996MOL0     C34357   3.006  11.151  10.612 -1.0155  0.2648  0.3841
  996MOL0     C34358   2.918  11.046  10.608  0.6411  0.3412  0.6390
  996MOL0     C34359   2.792  11.055  10.680 -0.1117  0.8982 -0.2413
  996MOL0     C34360   2.759  11.170  10.752 -1.1022  0.8231  0.7240
  996MOL0     O34361   2.640  11.172  10.815  0.0585 -1.0114 -0.3932
  996MOL0     C34362   2.599  11.279  10.899 -0.5125 -0.4192 -0.1330
  996MOL0     C34363   2.696  11.331  11.016  0.2827  0.9181 -0.6428
  996MOL0     C34364   2.642  11.311  11.158  1.0094 -0.3381 -0.0166
  996MOL0     C34365   2.527  11.396  11.204 -0.9050 -0.0112  0.5479
  996MOL0     C34366   2.430  11.317  11.287  0.3689  0.4425 -0.1040
  996MOL0     C34367   2.309  11.403  11.323  0.6184 -1.4092  0.5607
  996MOL0     C34368   2.215  11.331  11.410  0.0666  0.1683  0.1951
  996MOL0     C34369   2.081  11.408  11.432  0.3117 -0.2142  0.6038
  996MOL0    Cl34370   1.964  11.297  11.508  0.1156 -0.3209 -0.1537
  996MOL0     C34371   2.843  11.284  10.730 -0.1497  0.0819 -0.0101
  996MOL0     C34372   2.963  11.263  10.666 -0.5719 -0.0665  0.4639
  996MOL0     O34373   3.191  10.934  10.613 -0.4576 -0.6965 -0.5227
  996MOL0     C34374   3.301  11.121  10.329  0.7403  0.3832  0.7005
  996MOL0     C34375   3.373  11.113  10.207 -0.5039 -0.3236 -0.8526
  996MOL0     N34376   3.931  10.631   9.841  0.3368 -0.3727 -0.3036
  996MOL0     N34377   4.016  10.606   9.752 -0.9018 -0.8803 -0.8717
  996MOL0     C34378   4.962  10.207   9.864  0.3604 -0.7239  0.0910
  996MOL0     C34379   5.007  10.099   9.936 -0.3102 -0.1021 -0.1493
  996MOL0     C34380   5.140   9.640   9.979 -1.5146  0.7442  0.5753
  996MOL0     C34381   5.261   9.655  10.047 -0.1147 -0.3024 -0.8181
  996MOL0     C34382   5.317   9.557  10.133 -0.2076 -0.5839  0.0228
  996MOL0     C34383   5.274   9.425  10.129 -0.0321 -0.1615 -0.4342
  996MOL0     O34384   5.333   9.322  10.179 -0.2871  0.4997 -0.2847
  996MOL0     C34385   5.448   9.336  10.258  0.2663 -0.0760 -0.6488
  996MOL0     C34386   5.486   9.200  10.312 -0.2556  0.0802 -0.1796
  996MOL0     C34387   5.567   9.201  10.439 -0.8392  0.3196 -0.2445
  996MOL0     C34388   5.707   9.267  10.447  0.5009 -0.0439  0.1301
  996MOL0     C34389   5.781   9.213  10.341  0.5348 -0.5784 -0.1364
  996MOL0     C34390   5.849   9.157  10.258 -0.1225 -0.9280  0.3656
  996MOL0     C34391   5.156   9.408  10.060  0.0197 -0.5332 -0.2064
  996MOL0     C34392   5.089   9.512   9.989  0.1015  0.5168 -0.4526
  996MOL0     H34393   4.939   9.874   9.701  0.2973  1.5558 -3.6475
  996MOL0     H34394   4.854  10.062   9.584  0.6864  2.3099 -1.4969
  996MOL0     H34395   4.915  10.326   9.462 -0.8347 -2.0878 -1.6556
  996MOL0     H34396   4.756  10.249   9.492 -0.9502  0.9527  0.3124
  996MOL0     H34397   4.680  10.445   9.620  1.2327 -1.8412  1.9457
  996MOL0     H34398   4.817  10.540   9.540 -0.7504  0.8114 -2.7468
  996MOL0     H34399   4.729  10.469   9.313 -1.0962  0.9860 -1.8799
  996MOL0     H34400   4.597  10.385   9.397 -3.1770  2.4036  0.8642
  996MOL0     H34401   4.671  10.682   9.428  1.3180  1.4682 -5.5342
  996MOL0     H34402   4.536  10.633   9.313 -1.0640 -0.0458  0.2110
  996MOL0     H34403   4.383  10.566   9.471  0.8524  1.1044 -0.8179
  996MOL0     H34404   4.496  10.585   9.609  2.4592 -0.1686  1.0829
  996MOL0     H34405   4.509  10.830   9.560 -0.9221  1.8404 -0.4498
  996MOL0     H34406   4.378  10.815   9.449  0.5608 -0.6147 -0.4784
  996MOL0     H34407   4.361  10.697   9.727  1.5519  1.8910  0.6527
  996MOL0     H34408   4.314  10.862   9.712  3.2081  2.2332 -2.4367
  996MOL0     H34409   4.195  10.615   9.578  3.0359 -0.2134  1.6133
  996MOL0     H34410   4.158  10.767   9.520  3.4973  1.9764  1.0873
  996MOL0     H34411   4.123  10.911   9.836  2.2050 -1.7189  1.9406
  996MOL0     H34412   3.873  10.769  10.086  2.3333 -0.3143 -0.0279
  996MOL0     H34413   3.947  10.916  10.034 -2.2189  2.5533 -1.0435
  996MOL0     H34414   3.746  10.904   9.841 -1.1403 -1.4339 -0.1642
  996MOL0     H34415   3.747  10.994   9.996  0.8299 -1.3843  2.1902
  996MOL0     H34416   3.644  10.814  10.113 -0.2373  4.3873 -0.4312
  996MOL0     H34417   3.653  10.704   9.969 -0.5174  0.4768  0.4432
  996MOL0     H34418   3.421  10.778   9.974 -0.2589 -0.1513 -3.6661
  996MOL0     H34419   3.487  10.861   9.857  1.2824 -1.8862  0.3259
  996MOL0     H34420   3.405  10.778  10.182  0.4191  0.8354 -1.3279
  996MOL0     H34421   3.303  10.741  10.514  4.4968  1.4294 -1.3328
  996MOL0     H34422   3.152  10.768  10.419  0.9276  3.0469  1.4039
  996MOL0     H34423   3.272  10.655  10.364 -0.6554 -0.5592  1.6051
  996MOL0     H34424   2.938  10.950  10.560 -2.4288 -0.3715  0.5843
  996MOL0     H34425   2.726  10.971  10.665  0.6208  0.6026 -2.1998
  996MOL0     H34426   2.552  11.359  10.842 -0.5485 -1.5038 -1.6791
  996MOL0     H34427   2.509  11.234  10.944 -1.0485 -0.0664 -0.8229
  996MOL0     H34428   2.792  11.279  11.009  0.0430  0.3032  0.3919
  996MOL0     H34429   2.721  11.433  10.989 -0.4342  1.6560  1.2825
  996MOL0     H34430   2.725  11.325  11.228  0.5753 -1.3143  0.7230
  996MOL0     H34431   2.617  11.204  11.151  0.2172 -0.1716  0.2706
  996MOL0     H34432   2.557  11.484  11.262 -0.8076  0.8611 -0.7825
  996MOL0     H34433   2.474  11.436  11.117  3.0321 -0.0102 -2.1446
  996MOL0     H34434   2.477  11.292  11.382 -3.1582  1.1399  1.9777
  996MOL0     H34435   2.405  11.227  11.230  0.5768  1.1632 -1.3723
  996MOL0     H34436   2.338  11.488  11.384 -0.7415 -0.0765 -0.5672
  996MOL0     H34437   2.260  11.443  11.234 -0.0436  0.7535  1.8280
  996MOL0     H34438   2.249  11.316  11.513  0.3441  2.7869  0.5557
  996MOL0     H34439   2.194  11.236  11.360 -1.2613  0.2766  0.4905
  996MOL0     H34440   2.029  11.446  11.343  1.6713  0.8516  0.2328
  996MOL0     H34441   2.100  11.494  11.497 -2.2281  1.8467 -1.1574
  996MOL0     H34442   2.823  11.378  10.780  2.1379 -0.5602  2.3154
  996MOL0     H34443   3.036  11.342  10.672  1.3844 -1.8711  1.7352
  996MOL0     H34444   3.274  11.221  10.363  0.0344 -0.3391  2.3693
  996MOL0     H34445   3.389  11.205  10.152  1.4861 -0.6228 -0.8631
  996MOL0     H34446   4.970  10.308   9.903  2.4021 -1.4367  1.6953
  996MOL0     H34447   5.058  10.121  10.029  1.8514  0.8025 -1.4824
  996MOL0     H34448   5.278   9.759  10.070 -3.6944  0.1681  0.1820
  996MOL0     H34449   5.416   9.574  10.174 -0.8314  1.7192  0.6846
  996MOL0     H34450   5.532   9.381  10.205  0.2353  1.9923  0.9468
  996MOL0     H34451   5.431   9.395  10.348  3.2272 -4.1582  3.0252
  996MOL0     H34452   5.530   9.141  10.230 -0.3946  0.7444 -0.7454
  996MOL0     H34453   5.403   9.136  10.343  0.0304 -0.3197 -0.2286
  996MOL0     H34454   5.583   9.101  10.480  1.3283  1.0954  0.9787
  996MOL0     H34455   5.505   9.258  10.509 -1.1732  0.6688 -0.8269
  996MOL0     H34456   5.759   9.242  10.539  0.7128 -1.8231 -0.4379
  996MOL0     H34457   5.700   9.376  10.438  2.1388  0.2142  1.6216
  996MOL0     H34458   5.906   9.106  10.182 -0.4457  1.2602 -1.4608
  996MOL0     H34459   5.108   9.311  10.051  1.4105 -1.2693 -0.0227
  996MOL0     H34460   4.989   9.491   9.953  0.0941  1.1467 -0.8121
  997MOL0     O34461   1.586   3.824   1.331  0.4033 -0.0047 -0.1506
  997MOL0     C34462   1.511   3.750   1.400 -0.2411  0.4359 -0.2908
  997MOL0     O34463   1.549   3.673   1.499  1.1187  0.3468 -0.3844
  997MOL0     C34464   1.682   3.676   1.529 -0.3165 -0.7165 -0.9956
  997MOL0     C34465   1.749   3.791   1.577 -0.3051  0.0095 -0.6909
  997MOL0     C34466   1.881   3.779   1.609 -0.7576  0.6197 -0.3865
  997MOL0     C34467   1.952   3.657   1.594 -0.1920 -0.4561 -0.0883
  997MOL0     O34468   2.091   3.646   1.585  0.6896  0.7104  0.1437
  997MOL0     C34469   2.189   3.741   1.631 -0.9127  0.2386 -0.7143
  997MOL0     C34470   2.243   3.817   1.504  0.3067 -0.0352  0.5093
  997MOL0     C34471   2.345   3.926   1.542  1.1440  0.2260  0.0063
  997MOL0     C34472   2.454   3.957   1.442 -0.5110 -0.3697  0.3494
  997MOL0     C34473   2.540   4.073   1.485  0.0743  0.4439 -0.2917
  997MOL0     C34474   2.640   4.116   1.375  1.0735  1.1125  0.0209
  997MOL0     C34475   2.731   4.233   1.426  0.4494 -0.1832 -0.0240
  997MOL0     C34476   2.820   4.200   1.538  0.2316  0.2151  0.6940
  997MOL0     N34477   2.925   4.301   1.553 -0.9772 -0.8690 -0.1491
  997MOL0     C34478   2.897   4.426   1.599 -0.1494  0.0810  1.2075
  997MOL0     C34479   3.022   4.484   1.605 -0.3527 -1.0689 -0.0269
  997MOL0     C34480   3.069   4.615   1.651 -0.1751 -0.8340  0.0755
  997MOL0     C34481   3.036   4.720   1.546  1.3996 -0.9241  0.3658
  997MOL0     C34482   3.103   4.850   1.585  0.3845  0.3447  0.8451
  997MOL0     C34483   3.104   4.953   1.475  0.3466 -0.7876 -0.2574
  997MOL0     O34484   3.224   5.037   1.470  0.2612  0.8612  0.0517
  997MOL0     C34485   3.211   5.168   1.511 -0.1759 -0.2825  0.3143
  997MOL0     C34486   3.331   5.248   1.502  0.5669 -0.0026 -0.3221
  997MOL0     C34487   3.338   5.378   1.551 -0.6544  0.4795 -0.0009
  997MOL0     C34488   3.472   5.444   1.545 -0.2611  0.7201  0.4282
  997MOL0     C34489   3.227   5.437   1.613 -0.0882 -0.5634  0.0949
  997MOL0     C34490   3.225   5.576   1.665  0.2297  0.3310 -0.1788
  997MOL0     O34491   3.299   5.598   1.779 -0.3219  0.6607  0.3863
  997MOL0     C34492   3.256   5.696   1.856 -0.2030  0.2536 -0.9237
  997MOL0     C34493   3.206   5.665   1.991 -0.2844 -0.2729 -0.0020
  997MOL0     C34494   3.185   5.774   2.081 -0.4562  0.0633  0.1093
  997MOL0     C34495   3.222   5.908   2.046  0.6029  0.5245 -0.6104
  997MOL0     O34496   3.213   6.009   2.139  0.6219  0.6433  0.1812
  997MOL0     C34497   3.161   6.133   2.093  0.7163 -0.2931 -0.4293
  997MOL0     C34498   3.087   6.183   2.213  0.4696 -0.0964  0.8039
  997MOL0     C34499   3.178   6.208   2.336  0.0897  0.1432  0.4248
  997MOL0     C34500   3.127   6.329   2.412  0.5822 -0.1346 -0.0400
  997MOL0     C34501   3.218   6.391   2.513  0.6343  1.0827 -0.0836
  997MOL0     C34502   3.183   6.544   2.530 -0.3327  1.0029 -0.0670
  997MOL0     C34503   3.276   6.624   2.624 -0.0350  0.4440  0.5207
  997MOL0     C34504   3.212   6.744   2.681 -0.7212  0.2306  0.0198
  997MOL0    Cl34505   3.173   6.872   2.569 -0.3959 -0.0863  0.3215
  997MOL0     C34506   3.265   5.931   1.916  0.1857 -0.4911 -0.2763
  997MOL0     C34507   3.279   5.831   1.827 -1.4623 -0.0816 -0.4582
  997MOL0     O34508   3.128   5.649   1.623 -0.1015  0.1448 -0.8076
  997MOL0     C34509   3.117   5.361   1.632 -1.1306 -0.6885 -0.0142
  997MOL0     C34510   3.106   5.237   1.582  0.0403  0.1033  0.6269
  997MOL0     N34511   3.121   4.390   1.558 -0.6088 -0.8698 -0.5981
  997MOL0     N34512   3.063   4.284   1.529  0.0959  0.6095  0.5362
  997MOL0     C34513   1.874   3.538   1.579 -0.1262  0.2078  0.2659
  997MOL0     C34514   1.741   3.551   1.544  0.0857 -0.1336  0.4267
  997MOL0     C34515   1.357   3.743   1.372 -0.1007 -0.2978  0.1124
  997MOL0     C34516   1.272   3.732   1.487 -0.2311  0.3928  0.1120
  997MOL0     C34517   1.137   3.744   1.470 -0.6607 -0.0736 -0.6304
  997MOL0     C34518   1.079   3.766   1.351 -0.4763  0.0579  0.6220
  997MOL0     O34519   0.939   3.778   1.341  0.1798  0.6164  0.8165
  997MOL0     C34520   0.870   3.866   1.422  0.3679 -0.0473 -0.3773
  997MOL0     C34521   0.789   3.952   1.319  0.0734 -0.0249 -0.5446
  997MOL0     C34522   0.880   4.036   1.223  0.0502  0.3703 -0.8622
  997MOL0     C34523   0.836   4.014   1.082  0.5675 -0.3457 -0.7427
  997MOL0     C34524   0.850   3.874   1.040  0.4180  0.3880  0.4488
  997MOL0     C34525   0.879   3.762   0.998  0.5042  0.4445  0.3989
  997MOL0     C34526   1.158   3.765   1.236 -0.0853  1.1247  1.1017
  997MOL0     C34527   1.296   3.757   1.242 -0.0541 -0.1713 -0.3016
  997MOL0     H34528   1.690   3.881   1.581 -2.0015 -0.9497 -2.5144
  997MOL0     H34529   1.939   3.871   1.611  2.1968 -1.1037  0.6202
  997MOL0     H34530   2.147   3.818   1.696 -0.8736 -0.2070 -0.1497
  997MOL0     H34531   2.272   3.696   1.688  1.6469  4.9121 -0.2700
  997MOL0     H34532   2.280   3.742   1.433  0.2432 -0.2542  0.7037
  997MOL0     H34533   2.162   3.858   1.443  1.1759 -0.4641 -0.9924
  997MOL0     H34534   2.288   4.016   1.566 -0.5519 -0.1053 -2.4388
  997MOL0     H34535   2.392   3.902   1.638 -2.6680  2.1836  2.6273
  997MOL0     H34536   2.520   3.871   1.426 -1.0893 -1.2161  2.1793
  997MOL0     H34537   2.408   3.971   1.344  0.0779 -1.7966 -0.1531
  997MOL0     H34538   2.477   4.156   1.518  4.8774  3.3720  2.6464
  997MOL0     H34539   2.600   4.041   1.570 -1.9097 -0.7108  0.7557
  997MOL0     H34540   2.688   4.026   1.335 -1.4342  0.0092 -0.7404
  997MOL0     H34541   2.592   4.158   1.286  1.4260 -2.8398 -2.2901
  997MOL0     H34542   2.790   4.272   1.342 -0.0476 -0.8201 -0.6882
  997MOL0     H34543   2.664   4.313   1.460 -2.5641 -3.1196  1.5350
  997MOL0     H34544   2.879   4.112   1.512  1.9366  0.8975  1.9998
  997MOL0     H34545   2.772   4.189   1.636 -1.5675 -0.6477 -0.2419
  997MOL0     H34546   2.816   4.488   1.636  0.4011  2.4454 -1.2729
  997MOL0     H34547   3.014   4.633   1.744 -3.2961  0.7532 -1.8835
  997MOL0     H34548   3.175   4.621   1.675 -0.1514 -1.4378  0.1480
  997MOL0     H34549   2.929   4.724   1.525  1.8757  1.5561 -2.2191
  997MOL0     H34550   3.073   4.679   1.451  4.0509  1.3984  0.2469
  997MOL0     H34551   3.210   4.833   1.601  0.1513 -2.0248  0.2661
  997MOL0     H34552   3.059   4.894   1.675 -2.4133  3.4543 -1.7888
  997MOL0     H34553   3.015   5.015   1.488 -0.0310 -1.6375  1.3890
  997MOL0     H34554   3.092   4.896   1.382 -1.3424 -3.4275  1.4788
  997MOL0     H34555   3.414   5.203   1.449  0.4794  0.7712 -1.1325
  997MOL0     H34556   3.542   5.383   1.488 -0.1433  2.1075 -0.9826
  997MOL0     H34557   3.464   5.532   1.481 -0.4838  1.7929  1.8742
  997MOL0     H34558   3.519   5.483   1.636  0.1267  0.6355  0.2665
  997MOL0     H34559   3.181   5.562   2.011 -0.4219 -0.5215 -1.3958
  997MOL0     H34560   3.149   5.751   2.180  2.3076 -0.6989  1.0283
  997MOL0     H34561   3.239   6.198   2.052  2.1922 -1.3786  0.5370
  997MOL0     H34562   3.082   6.118   2.018 -1.1600  2.6497  0.8021
  997MOL0     H34563   3.039   6.273   2.171  1.7494 -0.4411 -1.5246
  997MOL0     H34564   3.013   6.108   2.241 -1.5497  2.2335  2.1686
  997MOL0     H34565   3.286   6.221   2.323  0.2835 -1.4581  0.2127
  997MOL0     H34566   3.157   6.121   2.399 -0.9337  0.3320  0.3592
  997MOL0     H34567   3.110   6.407   2.337  2.7403 -0.3358 -0.8187
  997MOL0     H34568   3.031   6.295   2.451 -0.6510  0.9963 -1.9160
  997MOL0     H34569   3.318   6.384   2.469  0.0637  1.6025 -1.5359
  997MOL0     H34570   3.196   6.342   2.608 -1.6175  1.1055 -0.5427
  997MOL0     H34571   3.201   6.601   2.439  0.4512  4.6842  2.1652
  997MOL0     H34572   3.078   6.561   2.559 -0.6581 -0.6794 -0.1751
  997MOL0     H34573   3.372   6.637   2.573 -0.6273 -2.7087 -1.7304
  997MOL0     H34574   3.294   6.551   2.704  2.3050 -1.0330 -1.2147
  997MOL0     H34575   3.259   6.791   2.768  0.3857  0.0177 -0.4521
  997MOL0     H34576   3.117   6.706   2.721  0.3294 -2.3280  0.2751
  997MOL0     H34577   3.294   6.034   1.894  0.8408 -0.0909  2.1137
  997MOL0     H34578   3.318   5.850   1.727 -1.4350  2.0041 -0.0968
  997MOL0     H34579   3.028   5.392   1.687 -2.6178 -0.8602 -2.2037
  997MOL0     H34580   3.010   5.186   1.592  0.3815 -0.3789  1.5065
  997MOL0     H34581   1.909   3.436   1.573 -0.5809 -0.1461  2.6389
  997MOL0     H34582   1.689   3.459   1.518 -0.6766  0.1723  0.8339
  997MOL0     H34583   1.310   3.722   1.589 -1.8694  1.7391  0.8997
  997MOL0     H34584   1.084   3.734   1.565  2.5564  1.6148  1.4969
  997MOL0     H34585   0.807   3.807   1.489  1.1892 -0.9834 -0.4158
  997MOL0     H34586   0.933   3.934   1.482  0.0491 -0.3533  0.3148
  997MOL0     H34587   0.734   4.029   1.373 -0.2405  1.7222 -3.1708
  997MOL0     H34588   0.715   3.887   1.273  1.1303 -1.7057  0.0311
  997MOL0     H34589   0.985   4.006   1.228  0.1343  0.2505 -2.6539
  997MOL0     H34590   0.870   4.143   1.239 -2.0085  0.0601  0.3272
  997MOL0     H34591   0.898   4.074   1.015  1.6323  0.2053  0.6685
  997MOL0     H34592   0.732   4.046   1.077  1.6256  3.8054 -0.2472
  997MOL0     H34593   0.910   3.669   0.955 -2.5844 -0.7003  0.3439
  997MOL0     H34594   1.112   3.779   1.139 -1.3750 -1.8079  1.1656
  997MOL0     H34595   1.345   3.762   1.145  2.6609 -0.0129  0.9964
  998MOL0     O34596   4.905   1.451   1.258 -0.1658  0.1070  1.0674
  998MOL0     C34597   4.982   1.352   1.260 -0.4128 -0.3788  0.3634
  998MOL0     O34598   4.942   1.223   1.284 -0.1991  0.3876 -0.5788
  998MOL0     C34599   4.810   1.189   1.309  0.0376  0.6746 -0.6247
  998MOL0     C34600   4.768   1.062   1.263  0.7338  0.0954  0.0899
  998MOL0     C34601   4.640   1.022   1.279  0.3298 -0.1878  0.4782
  998MOL0     C34602   4.550   1.110   1.342 -0.8428  0.3755  0.5698
  998MOL0     O34603   4.424   1.054   1.345 -0.1136  0.2822 -0.3029
  998MOL0     C34604   4.341   1.075   1.458  0.0243 -0.2033 -0.4330
  998MOL0     C34605   4.224   0.977   1.434  0.2757  0.0899  0.7258
  998MOL0     C34606   4.201   0.934   1.279  0.1964  0.2830 -0.4644
  998MOL0     C34607   4.058   0.894   1.237 -0.1106 -0.1355  0.5973
  998MOL0     C34608   4.044   0.875   1.084 -0.6830  0.0871 -0.3407
  998MOL0     C34609   3.910   0.823   1.061 -0.6649 -0.7225 -0.0537
  998MOL0     C34610   3.896   0.724   0.933 -0.8514 -0.3694  0.7657
  998MOL0     C34611   3.750   0.683   0.910  0.6747  0.2813 -0.8784
  998MOL0     N34612   3.665   0.796   0.865  0.6388  0.4947 -0.5683
  998MOL0     C34613   3.676   0.862   0.745  0.9838 -0.6823  0.3313
  998MOL0     C34614   3.571   0.948   0.731  0.0354 -0.1606 -0.0445
  998MOL0     C34615   3.537   1.033   0.615  0.0750  0.4052  1.1572
  998MOL0     C34616   3.413   0.980   0.538  0.6684 -0.3893 -0.9223
  998MOL0     C34617   3.405   1.033   0.396  0.3985 -0.5130  0.5698
  998MOL0     C34618   3.263   1.090   0.363  0.0657 -0.4098  0.5166
  998MOL0     O34619   3.174   0.984   0.382  0.9223 -0.3013 -0.0225
  998MOL0     C34620   3.044   0.993   0.335 -0.6811  0.0414  0.7012
  998MOL0     C34621   2.973   1.109   0.284  0.3064  0.4354 -0.1390
  998MOL0     C34622   2.850   1.102   0.220  0.1401  1.2176  0.2492
  998MOL0     C34623   2.778   1.223   0.187 -0.1647 -0.5591  0.5478
  998MOL0     C34624   2.792   0.974   0.199  0.1996 -0.7649 -0.0661
  998MOL0     C34625   2.666   0.943   0.133 -1.1006  0.3756 -0.2975
  998MOL0     O34626   2.574   0.893   0.223 -0.2362  0.3894  0.0601
  998MOL0     C34627   2.449   0.866   0.170  0.5036 -0.1484 -0.2723
  998MOL0     C34628   2.336   0.949   0.192 -0.5351 -0.5905 -0.5706
  998MOL0     C34629   2.221   0.927   0.128  0.4426 -0.0626 -0.0551
  998MOL0     C34630   2.210   0.823   0.042  0.1360  1.4880 -0.2228
  998MOL0     O34631   2.088   0.788  -0.014  0.2667  0.2113 -0.0266
  998MOL0     C34632   1.977   0.888  -0.011  0.0162  1.4360 -0.5938
  998MOL0     C34633   1.859   0.819  -0.089 -0.1661 -0.0190  0.3231
  998MOL0     C34634   1.739   0.918  -0.103 -0.1053 -0.3146  0.0326
  998MOL0     C34635   1.618   0.855  -0.185  0.3862 -0.4280 -0.2140
  998MOL0     C34636   1.503   0.955  -0.196 -0.4718 -0.7253 -0.0262
  998MOL0     C34637   1.381   0.916  -0.279 -0.3179 -0.0369  0.3061
  998MOL0     C34638   1.325   0.773  -0.267 -0.8748 -0.2381 -0.1076
  998MOL0     C34639   1.198   0.759  -0.345 -0.8794  0.0741 -0.4697
  998MOL0    Cl34640   1.047   0.845  -0.280 -0.7495 -0.2538 -0.1606
  998MOL0     C34641   2.306   0.726   0.035 -1.4775  0.3413  0.3188
  998MOL0     C34642   2.428   0.752   0.092  0.2641  0.0662 -0.3071
  998MOL0     O34643   2.656   0.955   0.008  0.6853  0.2372 -0.3289
  998MOL0     C34644   2.870   0.868   0.237  0.0199  1.1321  0.6020
  998MOL0     C34645   2.985   0.872   0.298 -1.2944 -0.1922  0.2046
  998MOL0     N34646   3.489   0.927   0.842 -0.7501 -0.4340  0.3828
  998MOL0     N34647   3.553   0.848   0.926  1.1858 -0.7858 -0.8288
  998MOL0     C34648   4.587   1.233   1.381 -0.5811 -0.3648  0.3291
  998MOL0     C34649   4.719   1.275   1.367  0.3751 -0.5708  0.3467
  998MOL0     C34650   5.115   1.362   1.190 -0.7582  0.5553  0.0857
  998MOL0     C34651   5.156   1.476   1.129 -0.8224 -0.1034 -1.0691
  998MOL0     C34652   5.265   1.481   1.052  0.6222  0.1047  0.6126
  998MOL0     C34653   5.344   1.371   1.035  1.4285  0.6070 -0.5847
  998MOL0     O34654   5.447   1.355   0.946 -0.6648 -0.2521  0.1188
  998MOL0     C34655   5.482   1.469   0.868  0.2343  0.2126  1.4468
  998MOL0     C34656   5.631   1.436   0.821  0.0913 -0.3342  0.7425
  998MOL0     C34657   5.620   1.332   0.715 -0.0944 -0.2179  0.6748
  998MOL0     C34658   5.758   1.280   0.672 -0.6282 -0.0555 -0.1094
  998MOL0     C34659   5.837   1.398   0.632 -1.1377 -0.1423  0.0522
  998MOL0     C34660   5.903   1.496   0.615 -1.2140  0.0354 -0.7463
  998MOL0     C34661   5.321   1.256   1.108 -0.0321 -0.0453  0.0117
  998MOL0     C34662   5.195   1.244   1.172 -0.7822  0.0994 -0.7550
  998MOL0     H34663   4.839   0.996   1.213  1.8545 -0.2113  2.0056
  998MOL0     H34664   4.611   0.931   1.228  0.3688  1.2432 -2.2992
  998MOL0     H34665   4.393   1.048   1.550 -1.1064  1.1970  0.6715
  998MOL0     H34666   4.304   1.178   1.455 -1.4568 -0.7306 -1.7216
  998MOL0     H34667   4.257   0.881   1.477  2.5954 -1.1154 -3.2068
  998MOL0     H34668   4.132   1.026   1.468 -2.4012 -4.7018  1.3056
  998MOL0     H34669   4.226   1.021   1.216  0.0295 -0.1773 -1.1767
  998MOL0     H34670   4.262   0.847   1.255 -0.6655 -0.8163  1.2093
  998MOL0     H34671   4.036   0.796   1.281 -4.0178  0.6635  0.7400
  998MOL0     H34672   3.991   0.964   1.286  0.4944 -0.1786  1.5173
  998MOL0     H34673   4.050   0.975   1.039 -2.3557  0.4462  0.1576
  998MOL0     H34674   4.125   0.808   1.056 -0.1042 -0.3250  2.0582
  998MOL0     H34675   3.869   0.763   1.143 -0.1357 -2.1376 -0.7733
  998MOL0     H34676   3.842   0.907   1.045  2.0623  2.0837  1.8779
  998MOL0     H34677   3.931   0.768   0.839 -2.2374 -1.9526 -0.5646
  998MOL0     H34678   3.960   0.636   0.937 -0.0844 -0.0500 -2.1479
  998MOL0     H34679   3.716   0.648   1.007  1.2388  1.7899 -0.1066
  998MOL0     H34680   3.747   0.598   0.841  2.7533 -0.6670  0.0965
  998MOL0     H34681   3.751   0.855   0.667  3.9437  2.9636  2.5229
  998MOL0     H34682   3.528   1.140   0.639 -0.9449  1.0137 -1.6028
  998MOL0     H34683   3.629   1.033   0.556  1.2381  0.8349  2.8730
  998MOL0     H34684   3.333   1.019   0.602  3.0498  0.8371  1.5592
  998MOL0     H34685   3.413   0.872   0.526 -2.1556 -0.3546 -2.0697
  998MOL0     H34686   3.434   0.949   0.332 -0.2283 -1.0340  0.9610
  998MOL0     H34687   3.471   1.115   0.368 -3.0189  2.4580  0.5667
  998MOL0     H34688   3.256   1.120   0.258  2.6493 -0.6147  0.2135
  998MOL0     H34689   3.248   1.181   0.423  1.8871  3.7238 -4.5050
  998MOL0     H34690   3.006   1.211   0.298 -0.9307  0.5659  2.3325
  998MOL0     H34691   2.681   1.213   0.238  1.1694 -3.0820  2.8348
  998MOL0     H34692   2.827   1.313   0.226 -1.2786  1.2874 -2.0583
  998MOL0     H34693   2.770   1.225   0.078  1.6253 -0.9226  0.3861
  998MOL0     H34694   2.360   1.035   0.254 -0.1465  0.5666 -2.2603
  998MOL0     H34695   2.151   1.008   0.143 -0.5075 -0.5506 -1.6709
  998MOL0     H34696   1.945   0.909   0.092  1.5966  0.8834  0.0420
  998MOL0     H34697   2.005   0.982  -0.058  0.9613  0.8843 -1.1692
  998MOL0     H34698   1.897   0.792  -0.188  1.8175 -1.5139  1.4154
  998MOL0     H34699   1.833   0.727  -0.035 -0.6436 -0.1424 -0.1107
  998MOL0     H34700   1.775   1.009  -0.151  1.0885 -1.5047 -1.4183
  998MOL0     H34701   1.693   0.943  -0.007  1.3753 -0.2772  0.7573
  998MOL0     H34702   1.644   0.832  -0.288 -2.7465 -1.8807 -0.7856
  998MOL0     H34703   1.584   0.768  -0.128 -1.1705 -0.4822 -1.1714
  998MOL0     H34704   1.544   1.048  -0.238 -0.7058  0.0002  1.3049
  998MOL0     H34705   1.462   0.980  -0.098 -2.0152 -1.6555 -0.4077
  998MOL0     H34706   1.304   0.983  -0.240 -3.2667 -1.6195 -2.2432
  998MOL0     H34707   1.387   0.948  -0.384 -0.5748 -0.6275  0.1056
  998MOL0     H34708   1.311   0.756  -0.160 -1.2808  0.4377 -0.0487
  998MOL0     H34709   1.395   0.698  -0.307 -1.2153  0.3469 -1.8664
  998MOL0     H34710   1.192   0.654  -0.373  1.8342 -0.2327 -0.2043
  998MOL0     H34711   1.218   0.798  -0.446  0.7499 -0.1547 -0.2645
  998MOL0     H34712   2.297   0.631  -0.016  2.7912 -0.2056  0.2180
  998MOL0     H34713   2.514   0.686   0.081  0.1060 -0.0644 -0.7596
  998MOL0     H34714   2.826   0.769   0.227  1.8407  0.1964  1.4460
  998MOL0     H34715   3.041   0.783   0.323  1.5734  1.2089 -0.7546
  998MOL0     H34716   4.519   1.311   1.415 -1.5436 -1.0301 -0.0168
  998MOL0     H34717   4.744   1.378   1.389 -2.0767  0.0271  0.6439
  998MOL0     H34718   5.102   1.568   1.149 -0.8908 -0.9084  3.6177
  998MOL0     H34719   5.289   1.576   1.005  1.4012 -1.0826 -1.5076
  998MOL0     H34720   5.425   1.465   0.775  4.4765  0.8852 -1.4501
  998MOL0     H34721   5.483   1.563   0.924  2.0488 -0.1847  2.1592
  998MOL0     H34722   5.684   1.390   0.906 -0.3868 -0.2050  1.1157
  998MOL0     H34723   5.691   1.520   0.785  1.5843 -2.4913 -2.1833
  998MOL0     H34724   5.562   1.375   0.633 -0.9156 -1.0225  0.8089
  998MOL0     H34725   5.571   1.241   0.752  2.7782 -1.8096  0.8062
  998MOL0     H34726   5.756   1.209   0.589 -1.6225  0.6736 -0.7429
  998MOL0     H34727   5.808   1.226   0.753  1.3129  2.4915  0.5038
  998MOL0     H34728   5.975   1.575   0.605 -0.9120 -0.1100  0.1260
  998MOL0     H34729   5.394   1.180   1.085  3.8169  3.5807 -1.0861
  998MOL0     H34730   5.166   1.149   1.215 -2.0192  2.4144  4.2588
  999MOL0     O34731   4.330  11.408   4.642 -0.0651 -0.3873 -0.6152
  999MOL0     C34732   4.324  11.308   4.716  0.5209 -0.2503  0.5502
  999MOL0     O34733   4.291  11.309   4.845  0.4012  0.3819 -0.8869
  999MOL0     C34734   4.244  11.424   4.903  0.5346 -0.3546 -0.2247
  999MOL0     C34735   4.331  11.493   4.985 -0.6580 -1.0200  0.3014
  999MOL0     C34736   4.294  11.620   5.032 -0.2249 -0.5208 -1.5234
  999MOL0     C34737   4.162  11.663   5.009 -1.3504  0.4333 -0.1383
  999MOL0     O34738   4.114  11.778   5.046 -0.8775 -1.3113  0.3407
  999MOL0     C34739   4.199  11.898   5.044  0.4582 -0.0750  0.3872
  999MOL0     C34740   4.168  11.975   5.174 -0.1959  0.4408  1.1763
  999MOL0     C34741   4.246  12.103   5.166  0.4379  0.0789  0.8585
  999MOL0     C34742   4.182  12.224   5.257  0.7097  0.4605  0.1502
  999MOL0     C34743   4.282  12.338   5.261 -0.6524  0.9466  0.5144
  999MOL0     C34744   4.210  12.454   5.334 -0.6438  0.6639 -0.7653
  999MOL0     C34745   4.297  12.581   5.339 -0.4516  0.2158  0.2783
  999MOL0     C34746   4.304  12.651   5.204 -0.0520  0.2362 -1.0985
  999MOL0     N34747   4.396  12.765   5.191  0.0379 -0.1811  0.3444
  999MOL0     C34748   4.532  12.763   5.208  0.0685 -0.0472  0.0553
  999MOL0     C34749   4.570  12.894   5.179  0.7535  0.0682  0.1076
  999MOL0     C34750   4.697  12.951   5.231 -0.1260 -0.0702  0.7874
  999MOL0     C34751   4.820  12.872   5.187 -0.2064 -0.2224  0.5369
  999MOL0     C34752   4.833  12.882   5.038  0.4924  0.1254  0.5172
  999MOL0     C34753   4.953  12.802   4.989 -0.3192  0.0161  0.1811
  999MOL0     O34754   5.066  12.851   5.057 -0.1173 -0.2858 -0.1490
  999MOL0     C34755   5.191  12.792   5.030 -0.9251 -0.6002 -0.4281
  999MOL0     C34756   5.223  12.690   4.938  0.4736  0.1010 -0.1826
  999MOL0     C34757   5.356  12.642   4.917  0.3408 -0.9425 -0.0143
  999MOL0     C34758   5.397  12.555   4.799 -0.8951  0.5447 -0.6554
  999MOL0     C34759   5.464  12.694   5.004  0.8811 -0.5120  0.1402
  999MOL0     C34760   5.611  12.662   4.998 -0.4087 -0.6229  0.5198
  999MOL0     O34761   5.673  12.647   4.876  0.9224 -0.0963 -0.6769
  999MOL0     C34762   5.809  12.623   4.845  0.3329  0.4580  0.2900
  999MOL0     C34763   5.824  12.582   4.719  0.8189  0.1637  1.4674
  999MOL0     C34764   5.940  12.531   4.675  0.3562 -0.6437 -0.2642
  999MOL0     C34765   6.057  12.535   4.757  0.7534 -0.3201  0.5936
  999MOL0     O34766   6.187  12.503   4.721  0.0145  0.5508 -0.1617
  999MOL0     C34767   6.220  12.528   4.589 -1.2106 -0.1960 -0.1233
  999MOL0     C34768   6.375  12.549   4.576  0.8585  0.6373 -0.9426
  999MOL0     C34769   6.457  12.422   4.621  0.3797 -0.7373 -1.6059
  999MOL0     C34770   6.613  12.454   4.621 -0.3788 -0.0752 -0.4783
  999MOL0     C34771   6.686  12.326   4.683  0.6434 -0.6852  0.3802
  999MOL0     C34772   6.695  12.322   4.832 -0.0792  0.0359  0.9166
  999MOL0     C34773   6.766  12.194   4.884 -0.1353 -0.6161  0.3415
  999MOL0     C34774   6.691  12.065   4.858  0.6967  0.0565  0.2763
  999MOL0    Cl34775   6.528  12.068   4.933 -0.2455  0.2067  0.8888
  999MOL0     C34776   6.040  12.575   4.888 -0.2718 -0.5483 -0.2796
  999MOL0     C34777   5.918  12.627   4.932 -0.0944  0.2793  0.6770
  999MOL0     O34778   5.670  12.653   5.105 -0.2368  0.1486  0.4164
  999MOL0     C34779   5.426  12.775   5.112  0.3487 -0.1813  0.2197
  999MOL0     C34780   5.290  12.823   5.127 -0.0222 -0.2739  0.3674
  999MOL0     N34781   4.461  12.966   5.149 -0.4460 -0.1757 -0.2134
  999MOL0     N34782   4.356  12.887   5.154  0.2462  0.5380  0.2425
  999MOL0     C34783   4.064  11.584   4.949  0.0425 -0.3904  0.1690
  999MOL0     C34784   4.107  11.466   4.888 -1.4082  0.0245  0.3755
  999MOL0     C34785   4.371  11.185   4.646  0.0300 -0.9513  0.9419
  999MOL0     C34786   4.380  11.181   4.512  0.7283  0.6207  0.5376
  999MOL0     C34787   4.432  11.061   4.447 -0.0944 -1.1619  0.6109
  999MOL0     C34788   4.482  10.958   4.526 -0.8713 -1.7779  0.2905
  999MOL0     O34789   4.541  10.851   4.458  0.1249 -0.0361  0.1139
  999MOL0     C34790   4.612  10.748   4.527 -0.3392 -0.7813 -0.1538
  999MOL0     C34791   4.649  10.645   4.428 -0.1578 -0.5005 -0.4212
  999MOL0     C34792   4.535  10.591   4.341 -0.1642  0.3608  0.0010
  999MOL0     C34793   4.555  10.453   4.259 -0.3018  0.3325 -0.2410
  999MOL0     C34794   4.585  10.343   4.353  0.0208  0.0237 -0.7184
  999MOL0     C34795   4.614  10.262   4.441 -0.2826 -1.1515 -0.3264
  999MOL0     C34796   4.492  10.968   4.668  0.2772  0.1884 -0.1692
  999MOL0     C34797   4.427  11.084   4.720 -0.8011  0.0137 -0.6099
  999MOL0     H34798   4.424  11.441   5.006 -0.0863 -0.4420 -0.7444
  999MOL0     H34799   4.369  11.678   5.085 -1.1903 -1.4027  0.9579
  999MOL0     H34800   4.306  11.875   5.052  0.8743  1.6451  0.1571
  999MOL0     H34801   4.196  11.958   4.953  1.8622  0.1606  0.4614
  999MOL0     H34802   4.062  12.004   5.179  0.0100  1.0325  2.3649
  999MOL0     H34803   4.209  11.929   5.263 -0.5257 -0.6302  0.7898
  999MOL0     H34804   4.351  12.077   5.185  1.0019 -0.1114 -2.0874
  999MOL0     H34805   4.247  12.136   5.062  4.0236  2.0662  1.3615
  999MOL0     H34806   4.096  12.258   5.197  0.4872  0.2338  0.3383
  999MOL0     H34807   4.143  12.187   5.352 -0.9033  1.0896 -0.2286
  999MOL0     H34808   4.373  12.295   5.305 -0.3606 -0.9325 -1.7025
  999MOL0     H34809   4.314  12.366   5.160 -1.4823 -1.3927 -0.4615
  999MOL0     H34810   4.113  12.476   5.288 -1.3363 -0.5515  0.0364
  999MOL0     H34811   4.184  12.413   5.432  1.2674  1.5292  0.1504
  999MOL0     H34812   4.244  12.645   5.410 -3.6564 -1.3943 -0.4758
  999MOL0     H34813   4.399  12.559   5.374 -1.0791  1.0469  2.8101
  999MOL0     H34814   4.204  12.683   5.174 -1.1750 -1.6078  0.4084
  999MOL0     H34815   4.324  12.582   5.121  1.2173  1.7080 -2.0650
  999MOL0     H34816   4.591  12.683   5.250  0.0069  2.1167  4.9970
  999MOL0     H34817   4.710  13.056   5.202 -0.8954 -0.2602 -0.2919
  999MOL0     H34818   4.682  12.945   5.340 -1.0314  0.2451  0.6843
  999MOL0     H34819   4.809  12.766   5.209 -2.5097 -0.6544 -2.0997
  999MOL0     H34820   4.913  12.906   5.233 -0.6916  4.2724 -1.3096
  999MOL0     H34821   4.851  12.984   5.003 -0.6738  0.4647  0.8792
  999MOL0     H34822   4.736  12.851   4.998 -0.1001  1.0308  1.2294
  999MOL0     H34823   4.973  12.787   4.883 -0.8984 -0.4040  0.1240
  999MOL0     H34824   4.925  12.701   5.020 -0.7420  0.3273  0.8450
  999MOL0     H34825   5.142  12.663   4.870  0.8954 -1.4729 -0.1068
  999MOL0     H34826   5.308  12.505   4.761 -2.5856  1.8477  1.3483
  999MOL0     H34827   5.461  12.620   4.738  0.2850 -1.3032 -1.4839
  999MOL0     H34828   5.465  12.476   4.833  0.0232  0.9462 -1.5094
  999MOL0     H34829   5.744  12.594   4.647  1.1389 -1.2791  0.8340
  999MOL0     H34830   5.959  12.494   4.575 -2.9324  0.7656 -1.5358
  999MOL0     H34831   6.199  12.437   4.531 -0.7776 -1.9341  2.2646
  999MOL0     H34832   6.171  12.615   4.545  1.2247  1.7903  0.8219
  999MOL0     H34833   6.399  12.582   4.475  0.7528  1.5235 -0.6893
  999MOL0     H34834   6.396  12.632   4.645 -2.9282  3.2039 -2.5100
  999MOL0     H34835   6.430  12.348   4.546 -3.4488 -1.3116  0.1278
  999MOL0     H34836   6.420  12.388   4.718 -2.3245  0.2516 -2.1981
  999MOL0     H34837   6.652  12.483   4.524  1.5979 -1.1427 -0.0446
  999MOL0     H34838   6.627  12.535   4.693 -0.0298  0.6458 -1.3395
  999MOL0     H34839   6.789  12.319   4.646  0.3245  0.8393 -0.9123
  999MOL0     H34840   6.635  12.237   4.646  3.9097 -2.4086 -0.3352
  999MOL0     H34841   6.757  12.408   4.863  1.0611  0.3133 -1.8341
  999MOL0     H34842   6.598  12.316   4.882 -0.9879 -0.5180 -0.8509
  999MOL0     H34843   6.776  12.208   4.992 -0.1484 -0.5847  0.3386
  999MOL0     H34844   6.863  12.180   4.837 -1.0777 -1.7502 -1.3565
  999MOL0     H34845   6.751  11.980   4.891  2.1358  1.9120  2.7889
  999MOL0     H34846   6.677  12.056   4.750  7.6681  2.2048 -1.3566
  999MOL0     H34847   6.118  12.555   4.961  2.1364 -3.5864 -3.3973
  999MOL0     H34848   5.917  12.646   5.039  0.8529 -2.4846  1.2564
  999MOL0     H34849   5.498  12.806   5.187  2.6449 -0.7059 -1.6412
  999MOL0     H34850   5.266  12.891   5.209  2.5598 -0.1786  1.1237
  999MOL0     H34851   3.959  11.611   4.951 -0.4535 -2.2450  1.1561
  999MOL0     H34852   4.051  11.401   4.821 -1.3793  0.6552 -0.2797
  999MOL0     H34853   4.365  11.262   4.442 -0.6898 -0.4254 -0.4514
  999MOL0     H34854   4.425  11.069   4.339 -1.0364  0.0119  0.7404
  999MOL0     H34855   4.697  10.782   4.587 -0.1334 -0.5456 -0.5825
  999MOL0     H34856   4.545  10.701   4.600  0.7897 -2.1346  0.0723
  999MOL0     H34857   4.683  10.560   4.487 -0.3252 -1.1350 -1.2309
  999MOL0     H34858   4.731  10.673   4.361  0.5056 -2.9336 -0.7278
  999MOL0     H34859   4.508  10.670   4.270 -0.3208 -0.1552 -0.5279
  999MOL0     H34860   4.450  10.576   4.408 -1.5485 -0.6269 -1.8713
  999MOL0     H34861   4.623  10.461   4.174 -2.9142  2.1542 -2.3007
  999MOL0     H34862   4.460  10.428   4.210 -1.1111  3.4027 -0.4213
  999MOL0     H34863   4.659  10.198   4.514  0.0897  0.3995  0.8572
  999MOL0     H34864   4.537  10.892   4.732 -1.5462 -2.6091 -1.9663
  999MOL0     H34865   4.427  11.104   4.826 -0.5311 -2.8843  0.0022
 1000MOL0     O34866   7.168   3.594   4.084  0.3745  0.2714 -0.5065
 1000MOL0     C34867   7.276   3.605   4.019  0.5020  0.7705  0.8581
 1000MOL0     O34868   7.371   3.690   4.045 -0.4948 -0.1777 -0.0965
 1000MOL0     C34869   7.376   3.763   4.168  0.9035  0.7230  0.3577
 1000MOL0     C34870   7.319   3.887   4.175  0.1886 -0.3300 -0.3436
 1000MOL0     C34871   7.308   3.956   4.302  0.5345  0.6791 -0.2148
 1000MOL0     C34872   7.339   3.889   4.422  0.4438  0.8561 -0.3278
 1000MOL0     O34873   7.314   3.954   4.538 -0.3252 -0.3804  0.4287
 1000MOL0     C34874   7.366   3.895   4.656  0.3611  0.4091 -0.5737
 1000MOL0     C34875   7.310   3.978   4.777 -0.5871 -0.3520 -0.0640
 1000MOL0     C34876   7.383   4.109   4.807 -0.5446 -0.4406 -0.4382
 1000MOL0     C34877   7.504   4.095   4.903  0.1483  0.1567  0.4086
 1000MOL0     C34878   7.613   4.192   4.881 -0.5428  0.4157  0.1807
 1000MOL0     C34879   7.721   4.170   4.991  1.0324 -0.5018 -0.5308
 1000MOL0     C34880   7.819   4.282   4.992 -0.1508 -1.2160  0.7504
 1000MOL0     C34881   7.948   4.264   5.069 -1.3806 -0.1542 -0.3554
 1000MOL0     N34882   8.039   4.154   5.017 -0.4889 -1.0890  0.3684
 1000MOL0     C34883   8.051   4.025   5.074  0.5120  0.0021 -0.5581
 1000MOL0     C34884   8.152   3.968   5.001 -0.7534 -0.4902  0.1090
 1000MOL0     C34885   8.202   3.829   5.021 -0.1949  0.6425  0.1084
 1000MOL0     C34886   8.356   3.814   5.039 -0.5818 -0.5379 -0.2198
 1000MOL0     C34887   8.412   3.707   4.947  0.4758  1.0672 -0.4388
 1000MOL0     C34888   8.550   3.676   5.002 -0.5594 -0.4112  0.4486
 1000MOL0     O34889   8.633   3.599   4.912  0.6879  0.0288 -0.1358
 1000MOL0     C34890   8.711   3.651   4.809  0.2816 -1.3155 -0.2183
 1000MOL0     C34891   8.810   3.570   4.749  0.1937  0.6136 -0.0030
 1000MOL0     C34892   8.898   3.625   4.653  0.3004 -0.6672  0.6125
 1000MOL0     C34893   9.002   3.527   4.590 -0.3622 -0.4735 -0.1495
 1000MOL0     C34894   8.887   3.758   4.608 -0.4789  0.6637  0.4628
 1000MOL0     C34895   8.976   3.821   4.502  0.1589  0.3132  0.5616
 1000MOL0     O34896   8.925   3.925   4.434  0.3334  0.3999 -0.2982
 1000MOL0     C34897   9.001   3.992   4.330 -0.1256  0.7099 -1.6504
 1000MOL0     C34898   9.066   3.923   4.230 -0.9142  0.4748  0.0598
 1000MOL0     C34899   9.158   3.986   4.140 -0.4210  0.5832  0.5182
 1000MOL0     C34900   9.164   4.124   4.144 -1.0988  0.0015  0.1249
 1000MOL0     O34901   9.241   4.203   4.062 -0.1116 -0.7561 -0.5366
 1000MOL0     C34902   9.301   4.145   3.948 -0.4753  0.0819 -0.0268
 1000MOL0     C34903   9.382   4.255   3.877  0.0367 -0.4233  0.0433
 1000MOL0     C34904   9.299   4.388   3.869 -0.4862  0.2956  0.2865
 1000MOL0     C34905   9.371   4.489   3.777 -0.3412  1.3854  0.2453
 1000MOL0     C34906   9.289   4.617   3.756  0.6794 -0.4146 -0.3377
 1000MOL0     C34907   9.334   4.720   3.863 -0.4539 -0.0994 -0.3369
 1000MOL0     C34908   9.268   4.865   3.833 -0.3188 -0.5195  0.3829
 1000MOL0     C34909   9.125   4.890   3.890  0.0791  0.4137  0.8990
 1000MOL0    Cl34910   9.133   4.937   4.065 -0.1075  0.5951  0.5038
 1000MOL0     C34911   9.088   4.195   4.241 -0.6165  0.0060 -0.0757
 1000MOL0     C34912   9.006   4.133   4.334  0.8785 -0.4433  0.6673
 1000MOL0     O34913   9.084   3.775   4.486 -0.4819 -0.2549 -0.8227
 1000MOL0     C34914   8.790   3.835   4.660  1.0725  0.6985  0.4089
 1000MOL0     C34915   8.701   3.790   4.759 -0.1089 -0.0064  0.1901
 1000MOL0     N34916   8.215   4.061   4.913  0.2996 -0.0383 -0.5462
 1000MOL0     N34917   8.142   4.168   4.922 -0.3250 -0.7794 -0.3421
 1000MOL0     C34918   7.393   3.757   4.406  0.5637 -0.2931 -0.0119
 1000MOL0     C34919   7.418   3.704   4.278 -0.6564  0.0257 -0.1316
 1000MOL0     C34920   7.282   3.520   3.906 -0.3562 -0.0700  0.2343
 1000MOL0     C34921   7.408   3.510   3.828 -0.7311 -0.1179  0.2776
 1000MOL0     C34922   7.430   3.419   3.722  0.6522 -1.0055 -0.0081
 1000MOL0     C34923   7.331   3.334   3.682  0.2457  1.1979  0.2494
 1000MOL0     O34924   7.350   3.246   3.577  0.0967 -0.0223 -0.1046
 1000MOL0     C34925   7.430   3.292   3.469  1.2787 -0.8209  0.9295
 1000MOL0     C34926   7.396   3.208   3.347 -0.2473 -0.2084  0.3878
 1000MOL0     C34927   7.420   3.282   3.211  0.1658 -0.8366 -1.2328
 1000MOL0     C34928   7.366   3.209   3.096 -0.2068  0.3143 -0.6335
 1000MOL0     C34929   7.380   3.291   2.976  0.3964  0.6110 -0.5759
 1000MOL0     C34930   7.391   3.348   2.881 -0.2766  0.0678  0.8545
 1000MOL0     C34931   7.210   3.330   3.762 -0.0904  0.0282 -0.0874
 1000MOL0     C34932   7.190   3.420   3.874  1.0164 -0.4924 -0.4930
 1000MOL0     H34933   7.284   3.937   4.086  0.8831  1.7870  0.4914
 1000MOL0     H34934   7.271   4.058   4.295  0.4513  0.9147  2.4908
 1000MOL0     H34935   7.334   3.791   4.664  3.6067 -0.6678 -0.1992
 1000MOL0     H34936   7.475   3.891   4.656  0.4025  1.3033 -1.4396
 1000MOL0     H34937   7.207   4.003   4.752 -1.6568 -3.4344  0.8569
 1000MOL0     H34938   7.314   3.923   4.872 -1.4609  1.5011  1.1102
 1000MOL0     H34939   7.423   4.155   4.716 -1.4458  0.7689 -0.2504
 1000MOL0     H34940   7.316   4.183   4.851  0.3479  0.3526 -0.3722
 1000MOL0     H34941   7.461   4.103   5.003 -1.1114 -1.1581  0.0051
 1000MOL0     H34942   7.555   4.000   4.889  1.8224  0.8550  1.4511
 1000MOL0     H34943   7.658   4.167   4.784  0.6919 -1.1722  1.1064
 1000MOL0     H34944   7.576   4.295   4.883 -1.6214  0.0448  0.3897
 1000MOL0     H34945   7.683   4.179   5.094  0.4913  1.8577 -0.8754
 1000MOL0     H34946   7.768   4.073   4.977 -1.6144 -2.1447  0.9559
 1000MOL0     H34947   7.829   4.315   4.889  1.6890 -1.4056  0.8269
 1000MOL0     H34948   7.762   4.365   5.033 -1.8952 -0.2098 -3.2055
 1000MOL0     H34949   7.945   4.263   5.178  2.4431  1.6236 -0.0835
 1000MOL0     H34950   7.997   4.361   5.057 -1.0692 -0.6034 -3.6493
 1000MOL0     H34951   7.994   3.976   5.152 -0.7071  0.8838 -0.8627
 1000MOL0     H34952   8.151   3.788   5.108  0.9592 -1.0659  0.0435
 1000MOL0     H34953   8.169   3.779   4.929 -0.0323 -0.3362  0.5672
 1000MOL0     H34954   8.370   3.789   5.145 -1.0802 -0.7071 -0.1934
 1000MOL0     H34955   8.405   3.908   5.012 -0.4167 -0.7729 -0.7453
 1000MOL0     H34956   8.412   3.742   4.844 -1.6932 -0.3069 -0.9792
 1000MOL0     H34957   8.346   3.620   4.956 -0.1808  1.6060  0.0982
 1000MOL0     H34958   8.547   3.624   5.098  4.0226 -1.8737  0.0640
 1000MOL0     H34959   8.599   3.771   5.026  1.5077 -1.7019  1.6253
 1000MOL0     H34960   8.807   3.465   4.775 -2.5196  0.9948  1.6282
 1000MOL0     H34961   8.993   3.509   4.482  1.7956 -2.6801 -0.0655
 1000MOL0     H34962   9.108   3.551   4.602 -0.0248 -0.3228 -2.7067
 1000MOL0     H34963   8.994   3.427   4.633 -3.3043  0.0568  0.7149
 1000MOL0     H34964   9.045   3.816   4.227 -0.5196  0.4205 -1.3176
 1000MOL0     H34965   9.209   3.933   4.061 -2.3404 -0.3300 -0.1860
 1000MOL0     H34966   9.366   4.059   3.972  0.9320  0.5463 -1.9355
 1000MOL0     H34967   9.222   4.096   3.889 -0.3189  1.4447 -1.4278
 1000MOL0     H34968   9.468   4.280   3.939 -0.1551 -1.3748  0.7132
 1000MOL0     H34969   9.425   4.233   3.779  1.0642 -0.3211  0.4591
 1000MOL0     H34970   9.277   4.427   3.968 -5.0531 -2.3517  0.5802
 1000MOL0     H34971   9.200   4.362   3.829 -1.2894  3.6807 -0.2492
 1000MOL0     H34972   9.462   4.502   3.836 -1.1809 -1.1843  2.2954
 1000MOL0     H34973   9.404   4.439   3.686  3.1040  1.3523  1.3755
 1000MOL0     H34974   9.180   4.608   3.756  0.7747 -1.9697  0.3799
 1000MOL0     H34975   9.300   4.666   3.659 -1.8847 -0.2000 -0.5815
 1000MOL0     H34976   9.292   4.686   3.959 -1.7479  0.1345 -0.8083
 1000MOL0     H34977   9.442   4.726   3.878 -0.3787  1.9362 -1.3969
 1000MOL0     H34978   9.262   4.882   3.725  0.8368 -1.8717  0.0704
 1000MOL0     H34979   9.329   4.942   3.882  1.3972 -0.9359 -0.9879
 1000MOL0     H34980   9.052   4.809   3.876  0.5485 -0.1302  1.5199
 1000MOL0     H34981   9.076   4.975   3.842 -2.0407 -1.2035  0.0746
 1000MOL0     H34982   9.080   4.302   4.231 -1.4203 -0.1197 -0.9500
 1000MOL0     H34983   8.960   4.206   4.400  0.2522  0.6122 -0.8671
 1000MOL0     H34984   8.765   3.938   4.638 -1.8665  0.0810  0.4788
 1000MOL0     H34985   8.638   3.856   4.818  1.4704 -0.9502  3.1059
 1000MOL0     H34986   7.418   3.686   4.485  1.0672  3.2369  3.2604
 1000MOL0     H34987   7.473   3.612   4.260  0.1568  0.6371 -0.8987
 1000MOL0     H34988   7.503   3.556   3.854 -0.2623 -0.9318  0.0260
 1000MOL0     H34989   7.535   3.415   3.693  1.0975 -2.2437  1.6323
 1000MOL0     H34990   7.404   3.396   3.447 -0.0158 -1.6697 -2.2083
 1000MOL0     H34991   7.537   3.295   3.489  2.3110 -0.9724 -3.5574
 1000MOL0     H34992   7.290   3.182   3.354  0.5299 -3.4050  1.6866
 1000MOL0     H34993   7.462   3.121   3.356 -0.4114 -0.5004 -0.9795
 1000MOL0     H34994   7.528   3.291   3.200 -0.1847  3.8731 -2.6228
 1000MOL0     H34995   7.359   3.371   3.224 -0.1891 -1.2667  0.2898
 1000MOL0     H34996   7.260   3.186   3.113  0.6796 -1.6023  3.5013
 1000MOL0     H34997   7.426   3.118   3.090 -3.9006 -2.8220  3.5392
 1000MOL0     H34998   7.385   3.405   2.790 -1.7349 -2.0249 -0.4639
 1000MOL0     H34999   7.131   3.261   3.737  1.5534 -0.8653 -3.4476
 1000MOL0     H35000   7.095   3.409   3.925  0.2809 -5.4231 -2.4244
 1001MOL0     O35001   5.451   9.662   2.805  0.1081 -1.2608  0.2509
 1001MOL0     C35002   5.466   9.605   2.912 -0.2120  0.0792  0.7243
 1001MOL0     O35003   5.429   9.651   3.026  0.0946  0.0730 -0.4686
 1001MOL0     C35004   5.348   9.759   3.020  0.7786 -1.0423 -0.2403
 1001MOL0     C35005   5.398   9.888   3.045  0.3437 -0.6508  0.4875
 1001MOL0     C35006   5.302   9.986   3.081 -1.2908  0.2299  0.3883
 1001MOL0     C35007   5.164   9.970   3.076  0.2840  0.2167  0.0003
 1001MOL0     O35008   5.077  10.062   3.119 -0.8611  0.3761  0.1316
 1001MOL0     C35009   5.087  10.109   3.253  0.3168 -0.0942 -0.3541
 1001MOL0     C35010   5.033  10.252   3.247  0.3018  0.0459 -1.1944
 1001MOL0     C35011   5.048  10.327   3.387  0.1832  0.7068 -0.0722
 1001MOL0     C35012   4.969  10.458   3.371  0.0066 -0.1480  0.6206
 1001MOL0     C35013   4.923  10.512   3.501 -0.1673  0.5291  0.2318
 1001MOL0     C35014   5.040  10.560   3.585 -0.9711  0.4861  0.0573
 1001MOL0     C35015   5.084  10.702   3.535 -1.6789  0.6276 -0.3111
 1001MOL0     C35016   5.216  10.769   3.587 -0.2680  0.5165 -0.1689
 1001MOL0     N35017   5.346  10.713   3.535 -0.2789  0.7152  0.0830
 1001MOL0     C35018   5.399  10.581   3.555 -0.4047 -0.2480  0.2698
 1001MOL0     C35019   5.535  10.588   3.536 -0.1628 -0.2354  0.0785
 1001MOL0     C35020   5.642  10.502   3.592  0.1485 -0.0242 -0.6524
 1001MOL0     C35021   5.745  10.464   3.484  0.3081  0.2250  0.0572
 1001MOL0     C35022   5.881  10.414   3.550 -0.5120 -0.2560  0.0404
 1001MOL0     C35023   5.850  10.312   3.650 -0.1001  0.5980 -1.3937
 1001MOL0     O35024   5.771  10.212   3.586  0.7239 -0.3992 -0.5494
 1001MOL0     C35025   5.776  10.097   3.658  0.0756  1.0011  0.2957
 1001MOL0     C35026   5.881  10.005   3.643 -0.2917  0.5631 -0.5246
 1001MOL0     C35027   5.871   9.871   3.699  0.8413 -0.0188  0.1863
 1001MOL0     C35028   5.995   9.790   3.683 -0.5451  1.3900 -0.9892
 1001MOL0     C35029   5.749   9.835   3.764 -1.2450 -0.3388  0.0742
 1001MOL0     C35030   5.726   9.696   3.808  0.1687 -0.3067  0.1578
 1001MOL0     O35031   5.802   9.598   3.754 -0.7416 -0.5417 -0.1352
 1001MOL0     C35032   5.825   9.477   3.822 -0.5781 -0.0099  0.0947
 1001MOL0     C35033   5.822   9.365   3.749  0.4352  1.3446 -0.3470
 1001MOL0     C35034   5.839   9.240   3.810  0.2019  0.9465 -0.4903
 1001MOL0     C35035   5.864   9.221   3.943 -0.3957 -0.6330 -0.3357
 1001MOL0     O35036   5.874   9.098   3.989  0.0214  0.6476 -0.6460
 1001MOL0     C35037   5.866   9.082   4.132 -0.1858  0.1220 -0.2831
 1001MOL0     C35038   5.870   8.943   4.193 -0.3337 -0.5872  1.2497
 1001MOL0     C35039   5.819   8.933   4.336  0.7543 -0.2428  0.4761
 1001MOL0     C35040   5.855   8.802   4.401 -0.5366  0.2031 -0.1625
 1001MOL0     C35041   5.857   8.814   4.550  0.0302 -0.2787 -0.4291
 1001MOL0     C35042   5.730   8.855   4.628  0.8125  0.1861  1.2195
 1001MOL0     C35043   5.749   8.881   4.776  0.9391  0.0077 -0.4995
 1001MOL0     C35044   5.616   8.895   4.836  0.4600  0.0409  1.3508
 1001MOL0    Cl35045   5.625   8.940   5.006 -0.6019 -0.0056  0.1847
 1001MOL0     C35046   5.867   9.347   4.018 -1.0470  0.9180  0.2553
 1001MOL0     C35047   5.851   9.468   3.950 -0.7456  0.0398 -0.3786
 1001MOL0     O35048   5.624   9.679   3.863  0.1252  0.3441  0.3635
 1001MOL0     C35049   5.657   9.938   3.795  0.2174 -0.2291 -0.3045
 1001MOL0     C35050   5.662  10.066   3.735 -0.0922  0.4658  0.0991
 1001MOL0     N35051   5.559  10.720   3.494  0.1475 -1.3327  0.4278
 1001MOL0     N35052   5.450  10.790   3.500 -0.4782  0.3154  0.2863
 1001MOL0     C35053   5.111   9.846   3.038 -0.2425 -0.1781  0.2461
 1001MOL0     C35054   5.205   9.737   3.020  0.3844 -0.8545  0.9981
 1001MOL0     C35055   5.544   9.474   2.903 -0.5577  0.0686  0.3872
 1001MOL0     C35056   5.558   9.390   3.020  0.4806 -0.0114  0.6516
 1001MOL0     C35057   5.617   9.258   3.021  0.0619 -0.2252 -0.3131
 1001MOL0     C35058   5.664   9.218   2.894  0.2045 -0.7606 -0.2878
 1001MOL0     O35059   5.749   9.110   2.887  0.3977 -0.4113 -0.1668
 1001MOL0     C35060   5.691   8.983   2.846 -0.9197  0.3682  1.1633
 1001MOL0     C35061   5.757   8.864   2.915 -0.0511  0.1754  0.6432
 1001MOL0     C35062   5.786   8.895   3.070  0.2557  0.1801  0.3093
 1001MOL0     C35063   5.877   8.797   3.138  1.3949  0.6334  0.4285
 1001MOL0     C35064   5.806   8.662   3.143  0.2671 -0.0377 -0.4606
 1001MOL0     C35065   5.731   8.570   3.146  0.3397  0.9346  0.1608
 1001MOL0     C35066   5.653   9.293   2.781  0.4791 -0.9544  0.4563
 1001MOL0     C35067   5.600   9.422   2.781  0.3931  0.6724  0.2049
 1001MOL0     H35068   5.506   9.900   3.051  0.1072  1.8139  6.1896
 1001MOL0     H35069   5.344  10.079   3.118 -0.8369  0.4567 -0.6613
 1001MOL0     H35070   5.021  10.035   3.300 -0.3459  1.9943  2.2816
 1001MOL0     H35071   5.179  10.109   3.311 -0.9609  2.6867  1.9395
 1001MOL0     H35072   5.108  10.296   3.182  2.5331 -3.1723 -1.0654
 1001MOL0     H35073   4.930  10.249   3.210 -0.6636 -2.8899  1.2735
 1001MOL0     H35074   4.993  10.268   3.461 -1.1986  1.2873 -0.5929
 1001MOL0     H35075   5.155  10.339   3.402  0.8684 -0.1892 -3.4549
 1001MOL0     H35076   5.032  10.529   3.316 -1.1739  2.4244  2.3666
 1001MOL0     H35077   4.883  10.456   3.304  0.5439  4.3516 -0.5471
 1001MOL0     H35078   4.848  10.590   3.489  0.0704  0.7985  0.4892
 1001MOL0     H35079   4.874  10.433   3.559 -0.9570 -0.2704 -1.4412
 1001MOL0     H35080   5.010  10.563   3.690 -3.7509  2.6135 -0.6905
 1001MOL0     H35081   5.119  10.484   3.574 -1.7344 -1.3394  4.6433
 1001MOL0     H35082   5.095  10.693   3.427  1.3538 -0.0721 -0.0348
 1001MOL0     H35083   4.995  10.766   3.542 -1.6504  0.6974 -0.5804
 1001MOL0     H35084   5.212  10.765   3.697  0.1355  0.6226 -0.1477
 1001MOL0     H35085   5.209  10.874   3.558  0.1476  0.0399 -2.0841
 1001MOL0     H35086   5.338  10.496   3.587 -0.5965 -1.1423 -2.2608
 1001MOL0     H35087   5.690  10.554   3.675 -2.0002 -0.7868  1.1754
 1001MOL0     H35088   5.597  10.413   3.638 -1.1302  1.1053  0.3898
 1001MOL0     H35089   5.771  10.556   3.430  2.7626 -0.5249 -0.1748
 1001MOL0     H35090   5.712  10.389   3.412  0.4118  1.3101 -1.1652
 1001MOL0     H35091   5.930  10.502   3.592 -1.1561  0.8508 -1.4140
 1001MOL0     H35092   5.935  10.363   3.470 -1.2812 -2.7035  1.0137
 1001MOL0     H35093   5.798  10.343   3.741 -0.6721  1.7526 -2.0929
 1001MOL0     H35094   5.942  10.258   3.677 -1.0159 -0.2891  0.0745
 1001MOL0     H35095   5.967  10.036   3.585  0.7771 -1.7583 -0.3286
 1001MOL0     H35096   6.011   9.742   3.586  3.0668  1.9981 -0.8382
 1001MOL0     H35097   6.084   9.854   3.687  1.7430 -1.5247 -1.7015
 1001MOL0     H35098   6.006   9.716   3.763  0.3201  1.5004 -0.9984
 1001MOL0     H35099   5.793   9.376   3.646 -2.9898 -0.3507  0.2912
 1001MOL0     H35100   5.824   9.146   3.758 -1.8476  0.4270  0.9038
 1001MOL0     H35101   5.946   9.138   4.181  1.8495 -1.1893 -1.9451
 1001MOL0     H35102   5.774   9.132   4.165  0.5982 -0.3599  3.0012
 1001MOL0     H35103   5.816   8.875   4.126 -1.8523  0.8831  0.9085
 1001MOL0     H35104   5.973   8.910   4.181  0.2186 -0.5624  4.8535
 1001MOL0     H35105   5.710   8.937   4.325  0.3888 -4.4106  0.9224
 1001MOL0     H35106   5.865   9.006   4.403  2.4112 -1.5983  0.8724
 1001MOL0     H35107   5.784   8.724   4.373  0.6522  0.0661 -3.1635
 1001MOL0     H35108   5.952   8.768   4.364 -1.4177 -0.5505 -1.8735
 1001MOL0     H35109   5.939   8.880   4.579 -0.3599  1.1072 -2.3269
 1001MOL0     H35110   5.883   8.710   4.572 -0.0598 -0.7761 -2.4641
 1001MOL0     H35111   5.704   8.952   4.585  1.6122 -0.0135  0.2554
 1001MOL0     H35112   5.641   8.798   4.599  2.4642 -1.0969 -1.7518
 1001MOL0     H35113   5.803   8.973   4.802 -1.4398  1.3318  0.0572
 1001MOL0     H35114   5.811   8.805   4.826  0.8369  0.3519  0.1689
 1001MOL0     H35115   5.559   8.803   4.819  0.8237 -0.0218  0.3777
 1001MOL0     H35116   5.567   8.986   4.803  3.9699  1.7239  0.2670
 1001MOL0     H35117   5.896   9.350   4.122  0.7255 -1.3022 -0.0842
 1001MOL0     H35118   5.868   9.555   4.013  0.8869 -1.1194  0.8866
 1001MOL0     H35119   5.566   9.913   3.849  0.1142 -0.6684 -0.6686
 1001MOL0     H35120   5.578  10.134   3.746 -2.1620 -2.3195  3.0963
 1001MOL0     H35121   5.005   9.825   3.029 -0.2671  0.7140 -3.4571
 1001MOL0     H35122   5.168   9.641   2.985 -0.8828  0.3825 -1.3512
 1001MOL0     H35123   5.503   9.418   3.109 -0.5881  0.8320 -0.2312
 1001MOL0     H35124   5.630   9.195   3.109 -4.1202  1.2246  1.5690
 1001MOL0     H35125   5.583   8.992   2.863 -1.3490  2.7142 -1.8965
 1001MOL0     H35126   5.694   8.976   2.737  0.0643  1.2828  1.1195
 1001MOL0     H35127   5.854   8.841   2.871 -0.1905  0.9864 -0.1173
 1001MOL0     H35128   5.688   8.779   2.917  0.9881 -0.7687 -1.2334
 1001MOL0     H35129   5.688   8.894   3.119  0.3603 -3.1847  0.6330
 1001MOL0     H35130   5.840   8.989   3.084  0.8360  0.0710 -1.0757
 1001MOL0     H35131   5.897   8.828   3.241  3.1778 -2.9164  1.3367
 1001MOL0     H35132   5.971   8.775   3.087  0.5720 -4.1203  0.4422
 1001MOL0     H35133   5.656   8.496   3.166  2.0998 -0.8095  0.5184
 1001MOL0     H35134   5.692   9.254   2.687 -0.8893 -0.3155 -0.4187
 1001MOL0     H35135   5.590   9.477   2.688  2.5344 -0.9640 -1.0703
 1002MOL0     O35136   8.364   6.869   2.947 -0.2453 -0.3908 -0.0288
 1002MOL0     C35137   8.399   6.779   3.023  0.4952 -0.2999  0.0211
 1002MOL0     O35138   8.522   6.710   3.017  0.0749  0.7680 -0.1522
 1002MOL0     C35139   8.603   6.725   2.910 -0.7615 -0.1816 -0.1214
 1002MOL0     C35140   8.622   6.643   2.796  0.1094 -0.6408  0.0007
 1002MOL0     C35141   8.717   6.662   2.700 -0.4983 -0.3751  0.2818
 1002MOL0     C35142   8.804   6.764   2.690 -1.0642 -0.1332 -0.7059
 1002MOL0     O35143   8.901   6.775   2.593  0.0028 -0.3357 -0.6431
 1002MOL0     C35144   8.930   6.913   2.559 -0.5580  0.2244  0.2946
 1002MOL0     C35145   9.040   6.917   2.454  0.7790  0.1438 -0.4576
 1002MOL0     C35146   9.047   7.063   2.418 -0.2893  0.4308 -0.1993
 1002MOL0     C35147   9.184   7.110   2.365 -0.6870  0.1014  0.4209
 1002MOL0     C35148   9.213   7.052   2.231 -0.9473  0.2595  0.2493
 1002MOL0     C35149   9.347   7.102   2.153 -0.1464 -0.1969 -0.4309
 1002MOL0     C35150   9.360   7.079   1.993  0.6049  0.3796 -0.0711
 1002MOL0     C35151   9.287   6.951   1.949  0.1564  0.7347 -0.0425
 1002MOL0     N35152   9.143   6.968   1.932 -0.1422  0.7145 -0.1385
 1002MOL0     C35153   9.058   6.879   1.989 -0.2928  0.0232  0.4630
 1002MOL0     C35154   8.937   6.942   1.990  0.3973 -0.4129  1.2827
 1002MOL0     C35155   8.812   6.881   2.051 -0.3667  0.3878  0.5619
 1002MOL0     C35156   8.694   6.903   1.952 -0.5489  0.4637 -0.4880
 1002MOL0     C35157   8.715   6.846   1.808  0.9427 -0.0318 -0.1760
 1002MOL0     C35158   8.596   6.835   1.725  0.7859  0.6505  0.5761
 1002MOL0     O35159   8.519   6.716   1.749  0.3153 -0.5391  0.2928
 1002MOL0     C35160   8.411   6.714   1.826  1.1322  0.0549  0.5545
 1002MOL0     C35161   8.360   6.822   1.905  0.7765 -0.2726 -0.4315
 1002MOL0     C35162   8.244   6.810   1.988  0.1980 -0.2774 -0.4396
 1002MOL0     C35163   8.225   6.941   2.071  0.5394  0.0183  0.0074
 1002MOL0     C35164   8.183   6.684   1.998  0.3777 -0.3325 -0.3991
 1002MOL0     C35165   8.067   6.659   2.090 -0.1439  0.5912 -0.2930
 1002MOL0     O35166   8.038   6.525   2.108 -0.6462 -0.0472  0.8033
 1002MOL0     C35167   7.912   6.494   2.153  0.4888 -0.5713 -0.3599
 1002MOL0     C35168   7.808   6.528   2.077  0.9501  0.4547  0.3006
 1002MOL0     C35169   7.677   6.506   2.124  0.3409 -0.1530 -0.0080
 1002MOL0     C35170   7.652   6.467   2.262 -0.1330  0.7323  1.0356
 1002MOL0     O35171   7.530   6.451   2.317  0.6551  0.1417  0.4007
 1002MOL0     C35172   7.411   6.495   2.245 -0.4210  0.1002 -0.3259
 1002MOL0     C35173   7.288   6.480   2.329 -0.1201  0.2503 -0.1730
 1002MOL0     C35174   7.149   6.462   2.253  0.3029 -0.1378 -0.4614
 1002MOL0     C35175   7.029   6.466   2.341 -0.3294 -0.5505 -0.0389
 1002MOL0     C35176   6.912   6.523   2.267  0.8574 -0.4230 -0.4800
 1002MOL0     C35177   6.876   6.429   2.148 -0.0174 -0.7647  1.1554
 1002MOL0     C35178   6.738   6.445   2.103  0.1628  0.2717  0.2171
 1002MOL0     C35179   6.695   6.578   2.046  0.2724  1.0405 -0.5197
 1002MOL0    Cl35180   6.742   6.611   1.870 -0.1462 -0.1500 -0.3134
 1002MOL0     C35181   7.768   6.438   2.338  0.3629 -0.1012 -0.5954
 1002MOL0     C35182   7.895   6.452   2.286  0.2148 -0.1476  0.6228
 1002MOL0     O35183   8.012   6.751   2.143  0.0167  1.0352  0.3989
 1002MOL0     C35184   8.224   6.583   1.908  0.1917 -0.7952  0.5259
 1002MOL0     C35185   8.336   6.600   1.826  0.9740  0.4136  0.3761
 1002MOL0     N35186   8.948   7.057   1.913 -0.6255 -0.0094 -0.1607
 1002MOL0     N35187   9.076   7.074   1.888  0.3779 -0.0827 -0.3325
 1002MOL0     C35188   8.787   6.861   2.802 -0.1389  0.7829  0.1202
 1002MOL0     C35189   8.694   6.837   2.912 -0.0566  0.2971  0.0920
 1002MOL0     C35190   8.304   6.741   3.132 -0.3787 -0.2527  1.3625
 1002MOL0     C35191   8.172   6.774   3.133  0.5068 -0.2408 -0.9938
 1002MOL0     C35192   8.086   6.722   3.230  0.5075 -0.3549 -1.0172
 1002MOL0     C35193   8.134   6.631   3.326 -0.0870 -0.6477 -0.0313
 1002MOL0     O35194   8.036   6.586   3.417 -0.1612 -0.7715  0.6261
 1002MOL0     C35195   8.038   6.455   3.460  0.1255  0.3628 -0.5761
 1002MOL0     C35196   7.892   6.407   3.460 -0.8053 -0.4838  0.7597
 1002MOL0     C35197   7.845   6.382   3.606  0.4005  0.4400 -0.6072
 1002MOL0     C35198   7.727   6.284   3.616  0.1926 -0.1336 -0.2403
 1002MOL0     C35199   7.595   6.342   3.618 -0.2959 -0.1443 -0.3139
 1002MOL0     C35200   7.487   6.392   3.613  0.4792 -0.1160 -0.9036
 1002MOL0     C35201   8.262   6.592   3.323  0.3214 -0.7799  0.0719
 1002MOL0     C35202   8.348   6.647   3.224 -0.2129 -0.2878 -0.3723
 1002MOL0     H35203   8.563   6.558   2.762 -0.0992  0.0587 -1.4777
 1002MOL0     H35204   8.722   6.592   2.617 -4.4867 -0.7504  0.1781
 1002MOL0     H35205   8.840   6.951   2.509 -0.7090 -1.2172 -0.5897
 1002MOL0     H35206   8.970   6.963   2.647  2.9813 -3.7601  1.2479
 1002MOL0     H35207   9.136   6.885   2.496 -1.5911 -2.3553  3.6684
 1002MOL0     H35208   9.013   6.863   2.363  2.8567 -3.2075  0.7364
 1002MOL0     H35209   8.972   7.094   2.346 -0.4835 -0.4925 -0.4028
 1002MOL0     H35210   9.023   7.124   2.506 -2.7869 -1.1403  0.2954
 1002MOL0     H35211   9.191   7.219   2.369 -1.7672  0.1566  1.2024
 1002MOL0     H35212   9.262   7.078   2.434 -0.8157 -3.7262 -0.9490
 1002MOL0     H35213   9.219   6.943   2.239  0.5444  0.2594 -0.3925
 1002MOL0     H35214   9.122   7.077   2.175 -1.3714 -0.6220  0.5266
 1002MOL0     H35215   9.349   7.210   2.167  0.5784 -0.2640  0.0183
 1002MOL0     H35216   9.436   7.065   2.205 -0.1249 -3.1829 -2.3204
 1002MOL0     H35217   9.330   7.157   1.923 -0.0768  0.0200 -0.1906
 1002MOL0     H35218   9.465   7.055   1.970 -0.2323 -3.2967 -0.6632
 1002MOL0     H35219   9.311   6.875   2.025  1.6895  1.7243  0.5030
 1002MOL0     H35220   9.335   6.906   1.862  1.7784 -0.4564  1.3764
 1002MOL0     H35221   9.085   6.786   2.037 -1.4187 -1.2925 -1.3147
 1002MOL0     H35222   8.828   6.773   2.060 -0.1861  0.0590 -2.6304
 1002MOL0     H35223   8.788   6.929   2.146 -3.5145 -0.2689  0.1799
 1002MOL0     H35224   8.660   7.006   1.941  4.1010  2.0714 -3.2199
 1002MOL0     H35225   8.618   6.850   2.009 -0.0094 -1.3922 -1.4055
 1002MOL0     H35226   8.765   6.749   1.797 -0.4317 -0.7186 -0.4668
 1002MOL0     H35227   8.787   6.918   1.769  0.3284  1.1603  0.8305
 1002MOL0     H35228   8.619   6.822   1.619  0.9002 -3.2547  0.9304
 1002MOL0     H35229   8.536   6.926   1.731 -0.4316 -0.1249  0.6424
 1002MOL0     H35230   8.403   6.921   1.892  1.1083 -0.4523 -0.7434
 1002MOL0     H35231   8.318   6.998   2.073 -0.6658  2.2582 -2.0000
 1002MOL0     H35232   8.139   7.004   2.043 -1.3740 -1.8487  1.3133
 1002MOL0     H35233   8.200   6.906   2.171  0.9314  1.0571  0.4751
 1002MOL0     H35234   7.823   6.568   1.977  1.2814  3.3905  1.4481
 1002MOL0     H35235   7.595   6.509   2.053 -1.0678  2.6452  1.5401
 1002MOL0     H35236   7.424   6.599   2.213  1.4497 -0.5173 -1.7650
 1002MOL0     H35237   7.398   6.440   2.152 -0.2624 -1.0477  0.3153
 1002MOL0     H35238   7.292   6.396   2.399 -2.6998 -1.2926 -1.7277
 1002MOL0     H35239   7.269   6.569   2.390 -1.8956 -0.8276  0.9404
 1002MOL0     H35240   7.160   6.371   2.194 -0.5205 -0.1818 -0.5630
 1002MOL0     H35241   7.140   6.548   2.187 -0.8434  0.7702  0.8047
 1002MOL0     H35242   7.005   6.365   2.375 -4.1816  0.6414  1.2586
 1002MOL0     H35243   7.042   6.526   2.431  1.1458 -1.5463  0.4573
 1002MOL0     H35244   6.944   6.617   2.221  0.3552 -0.5965 -1.1940
 1002MOL0     H35245   6.829   6.533   2.337 -0.1308 -1.3906 -1.4756
 1002MOL0     H35246   6.933   6.445   2.056 -1.6876  0.8866  0.3606
 1002MOL0     H35247   6.905   6.326   2.172  0.3685 -1.0826 -0.5394
 1002MOL0     H35248   6.679   6.414   2.190  2.0520  0.6712  1.6968
 1002MOL0     H35249   6.731   6.374   2.020  0.7673 -0.7321  1.0060
 1002MOL0     H35250   6.744   6.657   2.104  3.7840  0.2318 -2.1635
 1002MOL0     H35251   6.586   6.578   2.061  0.4559  2.9160  1.3024
 1002MOL0     H35252   7.749   6.406   2.440 -0.7912 -1.6690 -1.2698
 1002MOL0     H35253   7.989   6.432   2.336  2.3419 -1.3757 -3.4301
 1002MOL0     H35254   8.174   6.487   1.895  0.5922 -0.7706 -1.5495
 1002MOL0     H35255   8.373   6.519   1.764 -1.8234  0.6890 -1.8619
 1002MOL0     H35256   8.843   6.954   2.807  1.0262  0.1717 -0.8751
 1002MOL0     H35257   8.692   6.918   2.985  1.0335 -0.2473  0.7591
 1002MOL0     H35258   8.131   6.837   3.055  0.1599 -0.8343 -1.2971
 1002MOL0     H35259   7.988   6.767   3.240  1.5187  1.9750 -1.1142
 1002MOL0     H35260   8.102   6.388   3.401 -0.0609 -0.1993 -0.1441
 1002MOL0     H35261   8.070   6.454   3.564 -1.3395  3.2122  0.0115
 1002MOL0     H35262   7.882   6.318   3.398  2.8269  0.6113 -1.7561
 1002MOL0     H35263   7.829   6.489   3.425  0.8451  1.9881  3.1849
 1002MOL0     H35264   7.812   6.478   3.649 -1.3319 -1.0875  1.6991
 1002MOL0     H35265   7.922   6.330   3.664 -2.1304 -1.1535  1.5040
 1002MOL0     H35266   7.735   6.236   3.714 -0.3821 -1.3429 -0.7686
 1002MOL0     H35267   7.742   6.204   3.543 -0.5595  0.0827 -0.6458
 1002MOL0     H35268   7.391   6.439   3.609  0.8228  1.3245  2.8261
 1002MOL0     H35269   8.296   6.520   3.397 -3.8383  0.3060  3.4158
 1002MOL0     H35270   8.448   6.604   3.221 -0.5661 -1.1659  0.1680
 1003MOL0     O35271   9.357   9.265   0.067  0.5770  0.1923  0.6021
 1003MOL0     C35272   9.334   9.139   0.072 -0.3464 -0.8279  0.4277
 1003MOL0     O35273   9.250   9.067  -0.008 -0.1984 -0.5129 -0.6820
 1003MOL0     C35274   9.175   9.126  -0.095  0.8424 -0.6693  0.2062
 1003MOL0     C35275   9.070   9.197  -0.046  0.3417 -0.6858  0.1234
 1003MOL0     C35276   8.975   9.251  -0.136 -1.0001  0.2903 -0.3537
 1003MOL0     C35277   8.998   9.248  -0.272  0.1245  0.0959 -0.6782
 1003MOL0     O35278   8.901   9.315  -0.346 -0.1575  0.4273  0.7264
 1003MOL0     C35279   8.918   9.332  -0.495 -0.0362  0.3743 -0.0540
 1003MOL0     C35280   8.832   9.424  -0.580 -0.0208 -0.8216  0.2529
 1003MOL0     C35281   8.834   9.565  -0.528  0.3804 -0.4934 -0.1352
 1003MOL0     C35282   8.753   9.661  -0.611 -0.3588  0.2050 -0.5081
 1003MOL0     C35283   8.737   9.797  -0.531 -0.6888 -0.1920 -0.5442
 1003MOL0     C35284   8.652   9.787  -0.406  0.1111 -0.1577  0.3612
 1003MOL0     C35285   8.525   9.691  -0.400 -0.6562 -0.8981 -0.5301
 1003MOL0     C35286   8.417   9.739  -0.487 -0.1047  0.8482  0.7816
 1003MOL0     N35287   8.359   9.874  -0.455 -0.1615  0.3454 -0.5644
 1003MOL0     C35288   8.225   9.885  -0.416  0.4604  0.1130 -0.0776
 1003MOL0     C35289   8.187  10.015  -0.446 -0.4452 -0.0113  0.4976
 1003MOL0     C35290   8.058  10.092  -0.435  0.4815  0.4794 -0.6468
 1003MOL0     C35291   8.052  10.201  -0.320 -0.2568 -0.0599 -0.1623
 1003MOL0     C35292   8.142  10.326  -0.351 -0.1209  0.8763  0.6923
 1003MOL0     C35293   8.104  10.433  -0.248 -0.6833  0.5662 -0.5262
 1003MOL0     O35294   8.132  10.555  -0.309 -0.0624 -0.0491 -1.1608
 1003MOL0     C35295   8.182  10.655  -0.229 -1.0280  0.8613 -0.4463
 1003MOL0     C35296   8.119  10.684  -0.106  0.3129 -0.4284 -1.2696
 1003MOL0     C35297   8.171  10.787  -0.023  0.1438 -0.8186 -0.3362
 1003MOL0     C35298   8.110  10.811   0.111  0.2507 -0.6705  0.5269
 1003MOL0     C35299   8.280  10.866  -0.066  0.0899 -0.1086 -0.6657
 1003MOL0     C35300   8.322  10.987  -0.010 -0.3925 -0.2444 -1.5156
 1003MOL0     O35301   8.417  11.069  -0.069  0.6414  0.0155  0.3289
 1003MOL0     C35302   8.457  11.189  -0.013 -0.1114  0.0246  0.7787
 1003MOL0     C35303   8.430  11.304  -0.083 -0.7747 -0.0835 -0.4382
 1003MOL0     C35304   8.487  11.433  -0.046  1.0580  0.3439  0.0462
 1003MOL0     C35305   8.562  11.443   0.067 -1.1016 -0.1419 -0.8642
 1003MOL0     O35306   8.613  11.563   0.116  0.0637 -0.2079 -0.1310
 1003MOL0     C35307   8.620  11.681   0.031  0.0604 -0.0987 -0.0998
 1003MOL0     C35308   8.759  11.750   0.046  0.1328 -0.1479 -0.4579
 1003MOL0     C35309   8.768  11.792   0.191  0.2174 -0.0447 -0.9348
 1003MOL0     C35310   8.904  11.852   0.213  0.1642 -0.2129  0.3101
 1003MOL0     C35311   8.911  11.990   0.144 -0.2833  1.0134 -0.4495
 1003MOL0     C35312   9.030  12.076   0.196 -0.0006 -0.7628 -0.4019
 1003MOL0     C35313   9.052  12.202   0.098  0.4841 -0.1437 -0.3156
 1003MOL0     C35314   9.139  12.309   0.168  0.6256  0.0167 -0.0564
 1003MOL0    Cl35315   9.297  12.239   0.227 -0.2756  0.2592  0.7722
 1003MOL0     C35316   8.583  11.328   0.142 -0.1519  0.1902  0.5637
 1003MOL0     C35317   8.519  11.205   0.111 -0.1404 -0.5322 -0.7263
 1003MOL0     O35318   8.271  11.027   0.096 -0.3301 -0.1377 -0.1946
 1003MOL0     C35319   8.342  10.829  -0.183  0.3965  0.1244  0.7078
 1003MOL0     C35320   8.291  10.728  -0.266  0.7469  0.1349 -0.7698
 1003MOL0     N35321   8.300  10.075  -0.495 -0.4971 -0.5561 -0.4762
 1003MOL0     N35322   8.402  10.001  -0.487 -0.0749 -0.1354  0.4325
 1003MOL0     C35323   9.109   9.177  -0.326 -0.5829 -0.8915  0.0306
 1003MOL0     C35324   9.204   9.119  -0.241  0.6884  0.9533 -0.1070
 1003MOL0     C35325   9.425   9.055   0.172 -0.5106 -0.4149  0.6526
 1003MOL0     C35326   9.411   8.916   0.176  0.2608  0.0899 -0.9173
 1003MOL0     C35327   9.509   8.834   0.233  0.2616  0.3729  0.1800
 1003MOL0     C35328   9.616   8.893   0.304  0.6110 -0.5569 -0.2211
 1003MOL0     O35329   9.717   8.819   0.363 -0.0699  0.0410  0.4631
 1003MOL0     C35330   9.717   8.673   0.347  0.6234 -0.2952  0.6084
 1003MOL0     C35331   9.831   8.607   0.431 -0.1794  0.5110  0.5640
 1003MOL0     C35332   9.953   8.698   0.449  0.4237 -0.7418 -0.1493
 1003MOL0     C35333  10.039   8.711   0.319 -0.2654  0.8672 -0.0232
 1003MOL0     C35334  10.149   8.802   0.351  0.0176  0.5929  0.1642
 1003MOL0     C35335  10.239   8.868   0.370 -1.1171 -0.1483  0.0987
 1003MOL0     C35336   9.630   9.030   0.303 -0.0226 -0.3138  0.3084
 1003MOL0     C35337   9.532   9.115   0.240  0.1244  0.1834  0.9281
 1003MOL0     H35338   9.069   9.203   0.063 -0.8227 -1.3125  0.1580
 1003MOL0     H35339   8.893   9.307  -0.091 -1.1588 -1.5228  1.7891
 1003MOL0     H35340   9.023   9.357  -0.509  0.9369 -3.1182  0.0528
 1003MOL0     H35341   8.916   9.234  -0.543  0.7312 -0.1451  0.9373
 1003MOL0     H35342   8.871   9.415  -0.682 -0.4667  0.3422 -0.0313
 1003MOL0     H35343   8.731   9.385  -0.569 -0.8170  1.6239  2.8905
 1003MOL0     H35344   8.794   9.562  -0.426  0.0031 -0.2599 -0.2713
 1003MOL0     H35345   8.935   9.608  -0.536  0.0905 -0.1610 -4.6383
 1003MOL0     H35346   8.804   9.696  -0.702 -0.9387  1.7974 -0.2511
 1003MOL0     H35347   8.654   9.618  -0.628  0.6168 -2.6176  0.4327
 1003MOL0     H35348   8.833   9.839  -0.498 -0.4366 -1.4347  0.3986
 1003MOL0     H35349   8.693   9.875  -0.594  1.4893 -0.8532 -3.0557
 1003MOL0     H35350   8.722   9.755  -0.328 -0.9442  2.8460  2.7504
 1003MOL0     H35351   8.617   9.885  -0.370  0.3149 -0.0814  0.3556
 1003MOL0     H35352   8.549   9.591  -0.436 -0.3275 -1.1543  0.3683
 1003MOL0     H35353   8.499   9.693  -0.294  0.0523  1.8431 -0.3393
 1003MOL0     H35354   8.341   9.662  -0.472  3.2590 -3.0561 -0.1561
 1003MOL0     H35355   8.452   9.748  -0.591  1.9798 -0.4507  1.3044
 1003MOL0     H35356   8.155   9.808  -0.386  0.5900 -0.0562 -0.2080
 1003MOL0     H35357   8.032  10.138  -0.531  0.8751 -2.2507 -2.1614
 1003MOL0     H35358   7.980  10.022  -0.405  0.6295  0.6944  0.2665
 1003MOL0     H35359   8.065  10.163  -0.218  1.9704  0.1130 -0.3304
 1003MOL0     H35360   7.947  10.228  -0.306  0.5036  1.6946  3.4744
 1003MOL0     H35361   8.127  10.350  -0.456 -4.5006  0.0011  0.9518
 1003MOL0     H35362   8.246  10.302  -0.325 -0.1773 -0.4881 -0.2391
 1003MOL0     H35363   8.163  10.421  -0.157  1.9113  1.0420 -2.0415
 1003MOL0     H35364   7.995  10.431  -0.236 -0.6266 -0.0803 -0.0644
 1003MOL0     H35365   8.024  10.635  -0.088  0.7677 -2.2394 -3.4918
 1003MOL0     H35366   8.046  10.733   0.152 -0.1660 -0.1152  0.9524
 1003MOL0     H35367   8.195  10.814   0.180 -1.0319  1.7208  2.1844
 1003MOL0     H35368   8.053  10.904   0.117 -0.7823 -1.3509  4.8191
 1003MOL0     H35369   8.382  11.290  -0.179 -2.0901  0.4925  0.1158
 1003MOL0     H35370   8.459  11.525  -0.095  1.5204  0.0607 -0.7700
 1003MOL0     H35371   8.614  11.657  -0.075 -0.3726 -1.0611  0.1312
 1003MOL0     H35372   8.540  11.749   0.064 -0.5086 -1.1960  0.8332
 1003MOL0     H35373   8.840  11.685   0.013  0.4196  0.8453 -1.8255
 1003MOL0     H35374   8.771  11.848  -0.001 -2.7904  1.4051  1.7148
 1003MOL0     H35375   8.758  11.706   0.257 -2.4872 -1.0306 -2.4628
 1003MOL0     H35376   8.692  11.867   0.217 -0.5645 -0.7453 -1.1458
 1003MOL0     H35377   8.926  11.865   0.320  1.0488 -1.7359  0.3373
 1003MOL0     H35378   8.974  11.780   0.170 -2.4130 -0.6397 -3.6480
 1003MOL0     H35379   8.822  12.047   0.174 -0.9560 -0.9841  1.6805
 1003MOL0     H35380   8.923  11.974   0.037  0.0505 -0.6212 -0.1956
 1003MOL0     H35381   9.005  12.112   0.296  1.1094 -1.4246  0.1348
 1003MOL0     H35382   9.119  12.014   0.207  0.4405 -0.1295 -0.3437
 1003MOL0     H35383   8.960  12.252   0.065  1.1977  0.7997 -0.8880
 1003MOL0     H35384   9.096  12.173   0.002  0.9042 -1.4284  0.2414
 1003MOL0     H35385   9.093  12.347   0.260  1.5164  1.9505 -0.3481
 1003MOL0     H35386   9.156  12.383   0.089 -0.1036 -0.4976 -0.7187
 1003MOL0     H35387   8.636  11.341   0.236 -1.1162  3.0027  0.8036
 1003MOL0     H35388   8.538  11.117   0.172  1.4617  1.2158  1.4731
 1003MOL0     H35389   8.435  10.867  -0.225  0.6772 -0.2611  0.9841
 1003MOL0     H35390   8.350  10.706  -0.355  1.6765 -3.2627  0.5549
 1003MOL0     H35391   9.117   9.165  -0.434  0.9688  2.3776 -0.3571
 1003MOL0     H35392   9.272   9.042  -0.277 -0.2982  0.1936 -0.3955
 1003MOL0     H35393   9.319   8.868   0.146 -1.1569  0.4129  2.4560
 1003MOL0     H35394   9.495   8.726   0.237  2.6455  0.0424  1.0359
 1003MOL0     H35395   9.622   8.627   0.377  0.2752 -1.9007 -2.5930
 1003MOL0     H35396   9.736   8.655   0.241  3.4889  0.7898  0.8407
 1003MOL0     H35397   9.850   8.517   0.372 -1.3798  1.2033 -0.9446
 1003MOL0     H35398   9.813   8.571   0.533  0.2755  1.8980  1.1613
 1003MOL0     H35399  10.012   8.655   0.529  4.1127  3.5893 -0.1523
 1003MOL0     H35400   9.917   8.793   0.489  4.4500 -0.2587  2.8382
 1003MOL0     H35401   9.980   8.748   0.234  0.2330 -0.0511 -0.7905
 1003MOL0     H35402  10.073   8.611   0.292 -2.1480  0.7896 -2.4438
 1003MOL0     H35403  10.330   8.922   0.389 -0.0208 -2.6760  2.9548
 1003MOL0     H35404   9.705   9.080   0.364  0.2588 -0.5457  0.1544
 1003MOL0     H35405   9.550   9.222   0.232  0.2100  0.0631 -0.8759
 1004MOL0     O35406   7.194   7.510   5.711 -0.9895 -0.1424  0.2589
 1004MOL0     C35407   7.109   7.588   5.744 -0.1784  0.4538  0.0210
 1004MOL0     O35408   7.113   7.718   5.718  0.3018  0.0252 -0.1901
 1004MOL0     C35409   7.204   7.772   5.634  0.0339 -0.2379 -0.0046
 1004MOL0     C35410   7.150   7.834   5.521  0.1684 -0.5921  0.8969
 1004MOL0     C35411   7.224   7.892   5.419 -0.1688 -0.5009 -0.3878
 1004MOL0     C35412   7.364   7.907   5.441 -0.3946 -0.3572 -0.4787
 1004MOL0     O35413   7.439   7.975   5.342 -0.1379  0.4203 -0.6824
 1004MOL0     C35414   7.393   7.966   5.208 -0.5697  0.7490  0.0734
 1004MOL0     C35415   7.505   8.015   5.113 -0.0144  0.0739 -0.4396
 1004MOL0     C35416   7.478   7.976   4.969  0.6747  0.4210  0.1917
 1004MOL0     C35417   7.575   8.066   4.879  0.0252  0.2644  0.5524
 1004MOL0     C35418   7.561   8.042   4.735 -0.0772  0.6391  0.5373
 1004MOL0     C35419   7.602   8.166   4.655  0.4274 -0.2622 -0.2103
 1004MOL0     C35420   7.754   8.207   4.641 -0.2497 -0.2205 -0.2460
 1004MOL0     C35421   7.783   8.327   4.535  0.1172  0.1687 -1.4859
 1004MOL0     N35422   7.930   8.368   4.527  0.2055 -0.0505 -0.2772
 1004MOL0     C35423   8.015   8.372   4.630 -0.1906  0.0485  0.8977
 1004MOL0     C35424   8.121   8.453   4.595 -0.0827 -0.6645  0.1376
 1004MOL0     C35425   8.245   8.492   4.678 -0.2202 -0.1119 -0.5277
 1004MOL0     C35426   8.277   8.645   4.703 -0.4192  1.1515  0.4150
 1004MOL0     C35427   8.202   8.720   4.805  0.0238 -0.2579  0.0666
 1004MOL0     C35428   8.236   8.669   4.940  0.4478  0.7841 -0.2913
 1004MOL0     O35429   8.378   8.636   4.962  0.1995  0.3609 -0.0914
 1004MOL0     C35430   8.476   8.732   4.941  0.6195  0.8550 -0.6494
 1004MOL0     C35431   8.605   8.678   4.920  0.0919 -0.8664 -0.0079
 1004MOL0     C35432   8.716   8.769   4.909 -0.0886  0.2200  0.4163
 1004MOL0     C35433   8.845   8.700   4.889  0.3980 -0.2148 -0.6616
 1004MOL0     C35434   8.699   8.910   4.905  0.3802  0.2168  1.2560
 1004MOL0     C35435   8.819   9.001   4.881 -0.4472  0.2527 -0.0911
 1004MOL0     O35436   8.899   8.979   4.772  0.2825 -0.0359  0.5048
 1004MOL0     C35437   8.989   9.075   4.720  0.6666 -0.6656  0.0570
 1004MOL0     C35438   9.100   9.030   4.645  0.3107 -0.2616  0.1309
 1004MOL0     C35439   9.189   9.109   4.578 -0.4717  0.1755  0.4780
 1004MOL0     C35440   9.150   9.247   4.560 -0.5915  0.7456 -0.2181
 1004MOL0     O35441   9.214   9.335   4.472  0.2899  0.4183 -1.1906
 1004MOL0     C35442   9.315   9.285   4.380  0.4993  0.4430  0.2506
 1004MOL0     C35443   9.442   9.272   4.457  0.7164  0.8310 -0.2578
 1004MOL0     C35444   9.563   9.349   4.408  0.4539 -0.6126  0.3463
 1004MOL0     C35445   9.538   9.504   4.419 -0.3163 -0.2944 -0.1084
 1004MOL0     C35446   9.659   9.586   4.371  0.4124  0.8191  0.7956
 1004MOL0     C35447   9.794   9.545   4.432 -0.0284 -1.0315 -0.2686
 1004MOL0     C35448   9.796   9.564   4.583  1.2009  0.3178  0.1589
 1004MOL0     C35449   9.935   9.570   4.636  0.2291 -0.2503 -0.2226
 1004MOL0    Cl35450   9.937   9.617   4.805  0.3500  0.1645 -0.4797
 1004MOL0     C35451   9.039   9.299   4.627 -0.1282 -0.2255  1.4802
 1004MOL0     C35452   8.955   9.212   4.701 -0.4039  0.2616  0.2668
 1004MOL0     O35453   8.836   9.089   4.962  0.2528 -0.9930 -0.5571
 1004MOL0     C35454   8.566   8.957   4.933 -0.1791  0.4423  0.3957
 1004MOL0     C35455   8.453   8.868   4.953  0.4289 -0.3036 -0.8099
 1004MOL0     N35456   8.090   8.499   4.472 -0.7411 -0.2052  0.2796
 1004MOL0     N35457   7.983   8.447   4.429 -0.7704 -0.6417 -0.0111
 1004MOL0     C35458   7.414   7.840   5.550  0.0898  1.0856 -0.0103
 1004MOL0     C35459   7.343   7.781   5.651  0.6706  0.5106 -0.2577
 1004MOL0     C35460   6.996   7.533   5.830  0.5010 -0.1580 -0.9337
 1004MOL0     C35461   6.882   7.608   5.861 -0.6791  0.0864  0.0943
 1004MOL0     C35462   6.793   7.568   5.962 -0.5318  0.2102 -0.6357
 1004MOL0     C35463   6.822   7.457   6.038 -0.1523  0.1399  0.4375
 1004MOL0     O35464   6.758   7.420   6.149  0.1694 -1.1239 -0.3734
 1004MOL0     C35465   6.619   7.473   6.164  0.3176 -0.1200 -0.7109
 1004MOL0     C35466   6.614   7.583   6.271  0.7096  0.2398  0.2016
 1004MOL0     C35467   6.655   7.521   6.413  0.5643  0.4736  0.4588
 1004MOL0     C35468   6.671   7.622   6.517 -0.0470 -0.1410 -0.3629
 1004MOL0     C35469   6.778   7.709   6.487  0.4214 -0.9241 -0.4067
 1004MOL0     C35470   6.871   7.793   6.477  0.5184 -0.7003  0.1979
 1004MOL0     C35471   6.927   7.375   6.010 -0.2533 -0.9383  0.7763
 1004MOL0     C35472   7.017   7.417   5.905 -0.1496 -0.1711 -0.0889
 1004MOL0     H35473   7.042   7.828   5.517  0.1083 -0.1478 -4.1374
 1004MOL0     H35474   7.178   7.927   5.327 -0.3867  0.7338  0.1731
 1004MOL0     H35475   7.363   7.862   5.196 -1.6919  1.1224 -0.4917
 1004MOL0     H35476   7.308   8.034   5.197  1.2245  3.1300 -0.0327
 1004MOL0     H35477   7.506   8.123   5.124 -1.3345 -0.0719  1.6595
 1004MOL0     H35478   7.605   7.980   5.142  0.4750  1.7156 -0.0830
 1004MOL0     H35479   7.488   7.867   4.958 -0.1619  0.5153 -1.8777
 1004MOL0     H35480   7.378   7.992   4.928  1.3365  0.8001 -1.3437
 1004MOL0     H35481   7.544   8.166   4.909 -0.7988 -1.0943  4.8844
 1004MOL0     H35482   7.676   8.050   4.916  0.5700  0.0532 -0.9626
 1004MOL0     H35483   7.619   7.960   4.689  2.1837  2.2801  0.2671
 1004MOL0     H35484   7.459   8.022   4.702  0.2257  2.1051 -1.5662
 1004MOL0     H35485   7.577   8.155   4.549  0.3838  0.2198 -0.2527
 1004MOL0     H35486   7.551   8.252   4.699  3.3657  0.2655  2.5092
 1004MOL0     H35487   7.777   8.242   4.742 -1.5495 -0.3520  0.1121
 1004MOL0     H35488   7.818   8.123   4.613  0.4362  0.7724 -1.8269
 1004MOL0     H35489   7.732   8.419   4.567  1.5170 -0.3307  2.9567
 1004MOL0     H35490   7.745   8.305   4.435 -1.1097  0.6689 -1.1515
 1004MOL0     H35491   8.013   8.317   4.723  0.2709 -0.3434  0.6803
 1004MOL0     H35492   8.233   8.464   4.783  2.1421  2.3917  0.5329
 1004MOL0     H35493   8.335   8.448   4.634 -0.7938 -0.6221 -1.2081
 1004MOL0     H35494   8.267   8.699   4.608  0.6395  0.7038  0.0301
 1004MOL0     H35495   8.385   8.650   4.716 -0.0989 -0.5477 -1.1235
 1004MOL0     H35496   8.097   8.697   4.787 -0.0096 -0.7057  0.7839
 1004MOL0     H35497   8.213   8.829   4.804 -0.2243 -0.2178 -1.5321
 1004MOL0     H35498   8.170   8.587   4.968 -2.9177  2.7629 -1.7273
 1004MOL0     H35499   8.219   8.747   5.014  0.3345 -0.9192  1.5455
 1004MOL0     H35500   8.631   8.573   4.909  1.0443 -0.3190 -4.9271
 1004MOL0     H35501   8.837   8.594   4.914 -0.7947 -0.6301 -2.6202
 1004MOL0     H35502   8.879   8.715   4.786 -0.8618  2.3059 -0.7746
 1004MOL0     H35503   8.920   8.746   4.954  1.1833 -2.2361 -0.0576
 1004MOL0     H35504   9.118   8.924   4.654 -1.1157 -0.6812 -1.5380
 1004MOL0     H35505   9.280   9.061   4.546 -2.2462 -2.0889 -1.5798
 1004MOL0     H35506   9.281   9.191   4.336  2.8712 -1.8153  2.8469
 1004MOL0     H35507   9.332   9.351   4.295 -1.7052  1.2549  0.3960
 1004MOL0     H35508   9.433   9.302   4.561 -0.1728 -3.1443  0.9879
 1004MOL0     H35509   9.460   9.166   4.476  2.1021  1.6385  4.0041
 1004MOL0     H35510   9.565   9.328   4.301 -2.1482  3.1050 -0.6209
 1004MOL0     H35511   9.653   9.315   4.460 -0.2634 -0.5440  1.6869
 1004MOL0     H35512   9.460   9.521   4.345  1.3321 -4.5301 -3.2009
 1004MOL0     H35513   9.499   9.539   4.515  1.6118 -0.0891  0.6560
 1004MOL0     H35514   9.639   9.691   4.396 -0.1838  0.6146  1.2029
 1004MOL0     H35515   9.661   9.570   4.263  0.6046 -0.9446  1.0371
 1004MOL0     H35516   9.826   9.443   4.407 -0.9566 -0.9929 -1.7503
 1004MOL0     H35517   9.868   9.614   4.390 -0.1389  0.5559  1.9485
 1004MOL0     H35518   9.743   9.479   4.628 -0.8266 -0.0986 -2.7122
 1004MOL0     H35519   9.744   9.654   4.618  1.8936  0.5628  0.5732
 1004MOL0     H35520   9.997   9.645   4.586 -1.5481  1.0158 -0.6146
 1004MOL0     H35521   9.990   9.477   4.618 -1.7813 -1.6662  0.6047
 1004MOL0     H35522   9.009   9.395   4.585 -2.6839 -2.3135 -2.0389
 1004MOL0     H35523   8.865   9.258   4.740  0.1156  0.7871  0.8666
 1004MOL0     H35524   8.566   9.064   4.950  3.9903  0.4387  1.3966
 1004MOL0     H35525   8.355   8.910   4.974  0.9224  1.0578 -1.1192
 1004MOL0     H35526   7.521   7.856   5.563 -0.2392  1.6381  2.4083
 1004MOL0     H35527   7.392   7.755   5.744  1.3230  3.7055  0.3902
 1004MOL0     H35528   6.872   7.704   5.810  0.0194  0.1399  0.0444
 1004MOL0     H35529   6.721   7.647   5.978 -1.6431  0.3332 -5.0853
 1004MOL0     H35530   6.573   7.536   6.087 -0.2882  1.2815  0.7399
 1004MOL0     H35531   6.554   7.386   6.179  1.9926 -0.8872  3.8395
 1004MOL0     H35532   6.511   7.619   6.277  0.2083 -0.7789 -1.4641
 1004MOL0     H35533   6.685   7.665   6.255 -0.2284  1.1310  0.5111
 1004MOL0     H35534   6.754   7.476   6.400  0.4448  0.8954 -2.6272
 1004MOL0     H35535   6.589   7.437   6.438 -3.4247  3.2598  0.0853
 1004MOL0     H35536   6.686   7.566   6.610 -0.9487 -0.1259 -0.1956
 1004MOL0     H35537   6.577   7.678   6.526  0.9078  1.1269  4.7635
 1004MOL0     H35538   6.940   7.867   6.441 -1.6477  0.3610 -2.0570
 1004MOL0     H35539   6.944   7.281   6.062 -0.9355 -2.2220 -1.2159
 1004MOL0     H35540   7.094   7.341   5.895  0.0691  0.1055 -0.5359
 1005MOL0     O35541   8.503   0.947   4.274 -0.1729 -0.0198  0.2170
 1005MOL0     C35542   8.433   0.987   4.184 -0.3942 -1.2026  0.0709
 1005MOL0     O35543   8.303   0.956   4.159  0.0867  0.6144  0.5147
 1005MOL0     C35544   8.233   0.880   4.255 -1.1161 -0.3195  0.3648
 1005MOL0     C35545   8.106   0.925   4.279  0.6332 -0.4076  0.6347
 1005MOL0     C35546   8.026   0.853   4.367 -0.5450  0.2040  0.1094
 1005MOL0     C35547   8.069   0.745   4.437 -0.3355 -0.8185  0.4015
 1005MOL0     O35548   7.979   0.697   4.542 -0.3814 -0.0299 -0.3182
 1005MOL0     C35549   8.012   0.566   4.575 -0.1336 -0.9252 -0.1507
 1005MOL0     C35550   7.908   0.501   4.665 -0.0174 -0.9158  0.0228
 1005MOL0     C35551   7.771   0.484   4.589 -0.0848 -0.9716 -1.0398
 1005MOL0     C35552   7.659   0.459   4.690 -0.2650  0.0305 -0.9029
 1005MOL0     C35553   7.513   0.482   4.634  1.1221  0.5636  0.4256
 1005MOL0     C35554   7.410   0.395   4.710 -0.4631 -0.8463  0.0457
 1005MOL0     C35555   7.266   0.442   4.681  0.4748 -0.3418  0.5053
 1005MOL0     C35556   7.170   0.346   4.759 -0.5022  0.0903  0.6848
 1005MOL0     N35557   7.040   0.354   4.686 -0.0915 -0.4399 -0.0306
 1005MOL0     C35558   6.970   0.243   4.651  0.8349 -0.0637 -0.4591
 1005MOL0     C35559   6.859   0.293   4.595 -1.0672  0.1193 -0.2646
 1005MOL0     C35560   6.748   0.206   4.527  0.1624  0.4427  0.5877
 1005MOL0     C35561   6.610   0.277   4.510  0.2525 -0.6401 -0.5560
 1005MOL0     C35562   6.551   0.275   4.652 -0.0137 -0.6671 -0.0908
 1005MOL0     C35563   6.419   0.360   4.657  0.6946  0.7998  0.1514
 1005MOL0     O35564   6.453   0.501   4.630 -0.1686 -0.7629 -0.2664
 1005MOL0     C35565   6.346   0.566   4.572  0.2751 -0.2704 -0.2491
 1005MOL0     C35566   6.247   0.616   4.651  0.0038  0.1629 -0.6168
 1005MOL0     C35567   6.120   0.661   4.600  0.2656 -0.0441  1.3299
 1005MOL0     C35568   6.002   0.679   4.697 -0.3769  1.1712 -0.0641
 1005MOL0     C35569   6.112   0.671   4.457  0.6252 -0.9070  0.9232
 1005MOL0     C35570   5.991   0.717   4.382  0.2046  0.7975  0.3007
 1005MOL0     O35571   5.898   0.773   4.455  0.8096  1.0579  0.3571
 1005MOL0     C35572   5.766   0.777   4.418 -0.7158 -0.8876 -0.4229
 1005MOL0     C35573   5.696   0.752   4.295  0.1860 -0.5971 -0.3762
 1005MOL0     C35574   5.556   0.767   4.287 -0.3186 -0.6761 -0.5717
 1005MOL0     C35575   5.475   0.796   4.397  0.0153  0.1544 -0.4626
 1005MOL0     O35576   5.337   0.798   4.381  0.1390  0.9542  0.6367
 1005MOL0     C35577   5.247   0.783   4.490  0.3709 -0.6916  1.4529
 1005MOL0     C35578   5.109   0.758   4.443 -0.6607 -0.6779 -0.2083
 1005MOL0     C35579   5.037   0.888   4.428 -0.0203  0.5297  0.4179
 1005MOL0     C35580   4.966   0.933   4.560  0.1190 -0.5380 -0.3503
 1005MOL0     C35581   4.915   1.070   4.581  0.6340  0.9556  0.6390
 1005MOL0     C35582   4.791   1.088   4.484  0.0078 -0.6187  0.2287
 1005MOL0     C35583   4.719   1.221   4.520  0.2015 -1.6878  0.1450
 1005MOL0     C35584   4.685   1.306   4.404 -0.2274 -0.0129 -0.3030
 1005MOL0    Cl35585   4.823   1.323   4.285  0.1634 -0.2187  0.1996
 1005MOL0     C35586   5.542   0.817   4.519  1.2494  0.0864  0.6566
 1005MOL0     C35587   5.681   0.819   4.532  0.2109 -0.3848  0.2620
 1005MOL0     O35588   5.998   0.713   4.257  0.3219  0.4761 -0.5809
 1005MOL0     C35589   6.226   0.631   4.379  0.4694 -0.1306  0.3280
 1005MOL0     C35590   6.333   0.566   4.438  0.2553 -0.3745 -0.2882
 1005MOL0     N35591   6.858   0.431   4.595  0.5038  0.2842 -0.1922
 1005MOL0     N35592   6.965   0.467   4.649 -0.3529  0.4407  0.9723
 1005MOL0     C35593   8.200   0.706   4.418  0.4203  0.2520  0.2583
 1005MOL0     C35594   8.277   0.767   4.318 -0.2699 -0.1374  0.5802
 1005MOL0     C35595   8.491   1.093   4.100 -0.1456  0.4297  0.0869
 1005MOL0     C35596   8.414   1.156   4.005  0.6678  0.3672  0.5850
 1005MOL0     C35597   8.476   1.249   3.921  0.2483  0.7398 -0.5396
 1005MOL0     C35598   8.597   1.308   3.946  0.0890  0.0162  0.3020
 1005MOL0     O35599   8.636   1.416   3.878  0.5027 -1.0720 -0.0434
 1005MOL0     C35600   8.770   1.466   3.889 -0.0849 -0.7760  1.3411
 1005MOL0     C35601   8.805   1.553   4.017 -0.0907  0.5744 -0.5803
 1005MOL0     C35602   8.748   1.694   4.023  0.0749  0.1949  0.7493
 1005MOL0     C35603   8.791   1.766   4.154  1.4093  0.9368  0.0706
 1005MOL0     C35604   8.930   1.760   4.171 -0.2137 -0.0777  1.1278
 1005MOL0     C35605   9.050   1.755   4.194  0.4813 -0.6312 -0.2470
 1005MOL0     C35606   8.671   1.251   4.053  0.7427 -0.5493 -0.1466
 1005MOL0     C35607   8.621   1.143   4.127  1.2788  0.3258  1.1771
 1005MOL0     H35608   8.051   1.004   4.229 -0.6376 -1.5120  0.2088
 1005MOL0     H35609   7.923   0.883   4.382 -0.5547 -0.6195  1.9697
 1005MOL0     H35610   8.006   0.504   4.485 -2.3797 -1.5340  0.3570
 1005MOL0     H35611   8.107   0.566   4.630 -1.2718 -3.8169  2.0879
 1005MOL0     H35612   7.956   0.403   4.678  0.6443 -0.2654  3.5165
 1005MOL0     H35613   7.914   0.555   4.759 -0.5251  1.1664 -1.0874
 1005MOL0     H35614   7.745   0.583   4.549 -1.0430 -1.3259 -1.3250
 1005MOL0     H35615   7.772   0.405   4.514 -1.2178 -0.3167 -1.7814
 1005MOL0     H35616   7.668   0.356   4.726  2.4291 -0.0948 -1.7401
 1005MOL0     H35617   7.672   0.538   4.765  0.6771 -0.5003 -0.4887
 1005MOL0     H35618   7.493   0.590   4.637  3.2484  1.0033  0.6230
 1005MOL0     H35619   7.509   0.437   4.534 -3.6815 -1.3702  1.2131
 1005MOL0     H35620   7.423   0.286   4.702 -0.1051 -0.7809 -0.3273
 1005MOL0     H35621   7.431   0.419   4.814 -0.5991  0.3017 -0.1849
 1005MOL0     H35622   7.245   0.548   4.702  1.6025  0.4702 -2.0975
 1005MOL0     H35623   7.257   0.445   4.573 -1.2049  0.3849  0.6365
 1005MOL0     H35624   7.154   0.379   4.862 -3.4961 -2.3842  1.1527
 1005MOL0     H35625   7.214   0.246   4.764  0.3714  0.3511 -1.1081
 1005MOL0     H35626   6.999   0.140   4.671  1.1351 -0.0673 -0.8899
 1005MOL0     H35627   6.783   0.188   4.425 -3.2150  1.2774 -0.8572
 1005MOL0     H35628   6.739   0.106   4.571  0.4400 -1.1128 -2.6263
 1005MOL0     H35629   6.542   0.221   4.446  0.7187  0.3911 -1.9883
 1005MOL0     H35630   6.606   0.381   4.478 -1.2690 -0.8001 -0.9265
 1005MOL0     H35631   6.619   0.327   4.719 -0.8150  3.7334 -2.2883
 1005MOL0     H35632   6.535   0.173   4.688  1.3752  0.1678  3.2462
 1005MOL0     H35633   6.362   0.340   4.748  1.1101  0.4590  0.3388
 1005MOL0     H35634   6.352   0.327   4.577  2.4170  0.3924 -1.1728
 1005MOL0     H35635   6.258   0.613   4.759 -1.8664  0.3638 -0.3740
 1005MOL0     H35636   5.999   0.788   4.709  0.7108  1.1077  0.9428
 1005MOL0     H35637   5.911   0.625   4.668 -0.1079 -0.5192  2.0000
 1005MOL0     H35638   6.026   0.642   4.797  3.7219  4.4284  0.4290
 1005MOL0     H35639   5.751   0.721   4.207  0.8002  0.0121 -0.2128
 1005MOL0     H35640   5.500   0.749   4.196 -0.3998  1.4254 -0.9937
 1005MOL0     H35641   5.263   0.690   4.545 -0.1627 -3.0351 -2.0437
 1005MOL0     H35642   5.261   0.869   4.556  1.5131 -1.2735  1.9957
 1005MOL0     H35643   5.103   0.693   4.355  2.4820  0.4507 -1.4076
 1005MOL0     H35644   5.060   0.703   4.523  1.6481  0.8801  2.4400
 1005MOL0     H35645   4.956   0.882   4.356 -0.1234  2.3330  0.3383
 1005MOL0     H35646   5.107   0.967   4.397 -2.4186  2.0666 -1.4203
 1005MOL0     H35647   4.889   0.857   4.577  0.4292 -1.2904 -2.1609
 1005MOL0     H35648   5.033   0.918   4.646 -0.6933  0.5208  0.5094
 1005MOL0     H35649   4.983   1.146   4.542 -0.4834  0.9000 -1.5966
 1005MOL0     H35650   4.883   1.090   4.683 -3.6075  0.0580 -0.3257
 1005MOL0     H35651   4.841   1.090   4.386  1.2750 -1.6193  0.8260
 1005MOL0     H35652   4.708   1.016   4.486 -0.9024  0.4046  2.9886
 1005MOL0     H35653   4.793   1.284   4.571 -0.6831 -0.1976 -0.3696
 1005MOL0     H35654   4.636   1.223   4.591  0.0172  2.9598  0.1366
 1005MOL0     H35655   4.660   1.406   4.440 -2.0839 -0.2096 -0.9233
 1005MOL0     H35656   4.598   1.264   4.353 -2.3352  4.6711 -1.0697
 1005MOL0     H35657   5.488   0.833   4.612 -1.7401 -3.3610 -0.2301
 1005MOL0     H35658   5.714   0.852   4.630 -1.5295  1.4542  0.2813
 1005MOL0     H35659   6.208   0.634   4.272 -0.6471 -0.8105  0.4764
 1005MOL0     H35660   6.397   0.511   4.370  0.2977 -0.2752 -0.3281
 1005MOL0     H35661   8.258   0.646   4.487  0.4035 -0.4522 -0.3212
 1005MOL0     H35662   8.377   0.727   4.310 -0.8730 -1.7401  0.6694
 1005MOL0     H35663   8.310   1.128   3.988  0.4382  2.0640 -1.0955
 1005MOL0     H35664   8.407   1.298   3.852 -2.2062  0.6210  1.6418
 1005MOL0     H35665   8.835   1.378   3.896  0.3677 -0.5765 -0.0340
 1005MOL0     H35666   8.789   1.514   3.792  0.7195 -1.0280  1.3675
 1005MOL0     H35667   8.915   1.552   4.019 -0.1071  0.0520  0.9289
 1005MOL0     H35668   8.769   1.502   4.106 -0.9613  0.1561 -1.1623
 1005MOL0     H35669   8.640   1.699   4.012  0.1645  2.3074  0.4243
 1005MOL0     H35670   8.780   1.753   3.936 -3.5009  1.3711  0.0585
 1005MOL0     H35671   8.744   1.724   4.243  0.3399 -2.3597 -1.9034
 1005MOL0     H35672   8.757   1.869   4.136 -1.1939 -0.3383 -3.1418
 1005MOL0     H35673   9.157   1.752   4.201  0.4103 -0.8035  1.0068
 1005MOL0     H35674   8.765   1.283   4.096  0.3103 -1.9318  1.9837
 1005MOL0     H35675   8.672   1.093   4.209 -0.5087 -0.5241  1.8243
 1006MOL0     O35676   7.258   6.788   0.397  0.4968 -0.1813  0.1026
 1006MOL0     C35677   7.172   6.785   0.311 -0.5049 -0.8602  0.9249
 1006MOL0     O35678   7.185   6.722   0.186  1.0662  0.6146  0.3720
 1006MOL0     C35679   7.309   6.673   0.153  0.0697  0.4005  0.4113
 1006MOL0     C35680   7.432   6.750   0.164  0.8307  0.1600 -0.2782
 1006MOL0     C35681   7.556   6.703   0.137 -0.2825  0.4244 -0.7900
 1006MOL0     C35682   7.572   6.566   0.104 -0.5131  0.0272 -0.0476
 1006MOL0     O35683   7.697   6.520   0.072  0.1458 -0.3170 -1.0266
 1006MOL0     C35684   7.734   6.406   0.143 -0.1236  0.5412 -0.9445
 1006MOL0     C35685   7.767   6.298   0.036  0.8410  0.3913 -1.2015
 1006MOL0     C35686   7.759   6.151   0.074 -0.2606  0.0988 -0.2703
 1006MOL0     C35687   7.805   6.054  -0.036  0.5937 -0.4648 -0.3829
 1006MOL0     C35688   7.794   5.905   0.002 -0.1168 -0.3564 -0.0026
 1006MOL0     C35689   7.833   5.815  -0.121  0.0484  0.1968  0.8178
 1006MOL0     C35690   7.977   5.810  -0.170  0.9585 -1.1338  0.5567
 1006MOL0     C35691   8.065   5.714  -0.089 -0.6579  0.4758 -0.5713
 1006MOL0     N35692   8.203   5.701  -0.143  0.3250  0.2523 -0.0517
 1006MOL0     C35693   8.254   5.602  -0.222  0.6508 -0.8047  0.6339
 1006MOL0     C35694   8.387   5.618  -0.227  0.4902  0.2602 -0.3429
 1006MOL0     C35695   8.495   5.519  -0.276  1.0679  0.4643  0.5014
 1006MOL0     C35696   8.606   5.496  -0.172 -0.1000 -0.6705 -0.6035
 1006MOL0     C35697   8.729   5.433  -0.236 -0.3414  0.1077  0.2311
 1006MOL0     C35698   8.837   5.409  -0.128  0.7450  0.5378 -0.1175
 1006MOL0     O35699   8.959   5.378  -0.194 -0.5651  0.0968 -0.2117
 1006MOL0     C35700   9.081   5.431  -0.170  0.2482 -0.0873 -0.4993
 1006MOL0     C35701   9.181   5.383  -0.240 -0.1439  0.1553  0.4562
 1006MOL0     C35702   9.312   5.438  -0.227 -0.2101 -0.1195 -0.1853
 1006MOL0     C35703   9.421   5.364  -0.304  0.7886  0.1458  0.5116
 1006MOL0     C35704   9.340   5.533  -0.133  0.2680  0.1788  0.3307
 1006MOL0     C35705   9.466   5.586  -0.102 -0.4321  0.1791 -0.3257
 1006MOL0     O35706   9.476   5.630   0.025  0.3263 -0.0137 -0.0861
 1006MOL0     C35707   9.602   5.661   0.075 -0.6185  0.1553 -0.6955
 1006MOL0     C35708   9.730   5.603   0.044 -0.6445 -0.6844 -0.6036
 1006MOL0     C35709   9.849   5.653   0.091 -0.5677 -1.0863 -0.3634
 1006MOL0     C35710   9.853   5.748   0.195  0.7026  0.3018  0.6261
 1006MOL0     O35711   9.971   5.799   0.245  0.4686 -0.9024 -0.2592
 1006MOL0     C35712  10.029   5.704   0.330  0.2816 -0.5739  0.2421
 1006MOL0     C35713  10.166   5.755   0.380 -0.7553  0.2919 -0.0778
 1006MOL0     C35714  10.211   5.706   0.513  0.1494  0.4138  1.0062
 1006MOL0     C35715  10.345   5.768   0.565  0.9387  0.6057  0.5150
 1006MOL0     C35716  10.380   5.740   0.709 -0.1833  0.8448 -0.9838
 1006MOL0     C35717  10.291   5.811   0.804 -0.6062 -0.1055  0.9093
 1006MOL0     C35718  10.365   5.829   0.935  0.4413 -0.0468  0.0256
 1006MOL0     C35719  10.276   5.896   1.033 -0.1172  0.4084  0.1264
 1006MOL0    Cl35720  10.356   5.942   1.192  0.2357  0.1722  0.3757
 1006MOL0     C35721   9.730   5.799   0.238 -0.4197 -0.3988 -0.0368
 1006MOL0     C35722   9.613   5.764   0.171  1.2714  0.4206  0.6010
 1006MOL0     O35723   9.553   5.589  -0.193  0.5577 -0.2671 -0.4711
 1006MOL0     C35724   9.226   5.594  -0.072  0.5166 -1.0614  0.3002
 1006MOL0     C35725   9.098   5.540  -0.082 -0.0851 -0.3112 -0.2294
 1006MOL0     N35726   8.415   5.728  -0.136  0.3914  0.6758 -0.4531
 1006MOL0     N35727   8.304   5.777  -0.099  0.1017 -0.5432 -1.1193
 1006MOL0     C35728   7.460   6.483   0.100  0.0671 -0.4019 -0.9976
 1006MOL0     C35729   7.336   6.532   0.131  0.3269 -0.7208  0.0078
 1006MOL0     C35730   7.046   6.843   0.343  0.6617  0.2298  0.1725
 1006MOL0     C35731   7.021   6.924   0.455  0.4758 -0.7023  0.6578
 1006MOL0     C35732   6.900   6.983   0.496 -0.5292 -0.5417 -0.5120
 1006MOL0     C35733   6.792   6.965   0.413 -0.0870 -0.2082  0.6361
 1006MOL0     O35734   6.673   7.029   0.441 -0.0616 -0.6049 -0.0943
 1006MOL0     C35735   6.556   6.971   0.386  0.2240 -0.9352 -0.3323
 1006MOL0     C35736   6.439   7.049   0.450 -0.5339 -0.2586 -0.4037
 1006MOL0     C35737   6.301   7.014   0.404 -0.6731 -0.5529  0.6860
 1006MOL0     C35738   6.196   7.044   0.509  0.5489 -0.4576  0.4217
 1006MOL0     C35739   6.186   7.190   0.526  0.8613  0.3709 -1.1542
 1006MOL0     C35740   6.149   7.298   0.541 -0.1342  0.0382 -0.5881
 1006MOL0     C35741   6.811   6.880   0.296 -0.9294 -0.0639 -0.3234
 1006MOL0     C35742   6.934   6.824   0.261 -0.3971 -0.1196 -0.5153
 1006MOL0     H35743   7.425   6.851   0.203 -0.7894 -1.1449  3.2244
 1006MOL0     H35744   7.647   6.761   0.127 -0.5645  1.0708  0.2528
 1006MOL0     H35745   7.821   6.427   0.205  0.6871 -3.1543 -0.6187
 1006MOL0     H35746   7.672   6.362   0.222  1.9825 -0.7026  0.0935
 1006MOL0     H35747   7.693   6.306  -0.044  2.4199 -0.8149 -2.8739
 1006MOL0     H35748   7.864   6.319  -0.009  2.0136  0.0541  1.0668
 1006MOL0     H35749   7.814   6.133   0.167  2.0394  2.1742 -1.1182
 1006MOL0     H35750   7.654   6.130   0.098 -1.3198  4.3086 -0.5412
 1006MOL0     H35751   7.758   6.068  -0.134 -2.7893  0.5744  1.2656
 1006MOL0     H35752   7.906   6.079  -0.071  0.4235  1.9281  0.6177
 1006MOL0     H35753   7.843   5.891   0.098 -2.0661  0.5416  1.1848
 1006MOL0     H35754   7.692   5.886   0.037  0.7091  1.0304  3.6096
 1006MOL0     H35755   7.820   5.709  -0.099 -1.2564 -0.3179 -1.9956
 1006MOL0     H35756   7.767   5.847  -0.203 -2.9830 -0.1953  2.9253
 1006MOL0     H35757   7.980   5.781  -0.276 -0.2670  3.2257 -0.9077
 1006MOL0     H35758   8.020   5.911  -0.170 -0.3524 -0.3134 -4.3753
 1006MOL0     H35759   8.018   5.615  -0.081  1.4067 -0.5690 -0.5491
 1006MOL0     H35760   8.079   5.748   0.014  2.0572  0.4537 -0.8506
 1006MOL0     H35761   8.198   5.522  -0.269 -0.1277  0.9402 -1.5869
 1006MOL0     H35762   8.437   5.434  -0.313  0.1572  2.2471 -2.4154
 1006MOL0     H35763   8.531   5.566  -0.368 -0.1952 -1.9521 -1.3395
 1006MOL0     H35764   8.563   5.438  -0.089 -1.8817  2.4560  0.8232
 1006MOL0     H35765   8.623   5.594  -0.126 -2.0925 -0.7288  0.3620
 1006MOL0     H35766   8.777   5.497  -0.310  0.2818 -3.8332 -3.1529
 1006MOL0     H35767   8.701   5.341  -0.287 -0.5679  0.5451 -0.4337
 1006MOL0     H35768   8.822   5.322  -0.063  0.1342 -1.4451 -2.7219
 1006MOL0     H35769   8.836   5.487  -0.051  0.0214  1.1977 -0.7786
 1006MOL0     H35770   9.168   5.308  -0.318 -1.8828  0.2254  0.6473
 1006MOL0     H35771   9.389   5.296  -0.382  0.0502  0.4450  0.5503
 1006MOL0     H35772   9.479   5.432  -0.367 -1.5042 -0.3307 -2.2849
 1006MOL0     H35773   9.485   5.316  -0.229 -0.5135 -0.1001  1.5026
 1006MOL0     H35774   9.731   5.525  -0.031 -2.8933  0.9593 -2.5183
 1006MOL0     H35775   9.935   5.594   0.063 -1.3353 -1.2957 -2.4064
 1006MOL0     H35776   9.957   5.698   0.412 -0.2248 -0.5494 -0.2023
 1006MOL0     H35777  10.035   5.604   0.286 -2.4517 -0.7567  0.1621
 1006MOL0     H35778  10.242   5.720   0.310 -0.1869 -0.9982  1.1220
 1006MOL0     H35779  10.172   5.864   0.378 -2.4405  0.4045 -0.4962
 1006MOL0     H35780  10.216   5.598   0.494 -1.7507  0.6614 -1.3374
 1006MOL0     H35781  10.131   5.728   0.584  0.0984  1.4068  0.6517
 1006MOL0     H35782  10.416   5.719   0.498 -0.0040 -0.3289  0.1627
 1006MOL0     H35783  10.355   5.875   0.544 -0.5595  0.6283 -0.2946
 1006MOL0     H35784  10.482   5.772   0.733 -0.7975  0.6792  2.4042
 1006MOL0     H35785  10.380   5.632   0.729  1.1197  0.9807 -0.1179
 1006MOL0     H35786  10.273   5.915   0.775  1.2850 -0.5118 -2.2249
 1006MOL0     H35787  10.196   5.756   0.809 -0.8375  0.3718  2.1196
 1006MOL0     H35788  10.455   5.887   0.913  2.1692 -3.1771 -1.9959
 1006MOL0     H35789  10.395   5.733   0.978  1.5981  1.3779  2.5737
 1006MOL0     H35790  10.196   5.824   1.052 -0.5656  0.4718 -1.3733
 1006MOL0     H35791  10.225   5.986   0.997  1.2277  0.6212 -1.4159
 1006MOL0     H35792   9.726   5.882   0.308  1.3384 -1.6687  1.6465
 1006MOL0     H35793   9.521   5.820   0.183  2.1586  2.3240 -0.8664
 1006MOL0     H35794   9.230   5.665   0.010 -4.2327 -2.6679  2.2766
 1006MOL0     H35795   9.017   5.584  -0.024  1.5160  0.7362  1.3155
 1006MOL0     H35796   7.465   6.377   0.080  1.8987 -0.2361 -1.5801
 1006MOL0     H35797   7.249   6.468   0.135  0.0090 -0.4202 -1.5240
 1006MOL0     H35798   7.108   6.954   0.514 -0.4384  1.6588  0.9074
 1006MOL0     H35799   6.884   7.055   0.575  3.1369 -2.5945  2.4139
 1006MOL0     H35800   6.545   6.982   0.278  1.1939 -1.6494 -0.5101
 1006MOL0     H35801   6.550   6.866   0.416  3.0502  0.0799  4.9942
 1006MOL0     H35802   6.451   7.157   0.442  0.8927 -0.4549 -1.1678
 1006MOL0     H35803   6.445   7.027   0.557 -0.4187 -2.2666 -0.7852
 1006MOL0     H35804   6.309   6.906   0.390  3.4834 -0.0273 -3.2236
 1006MOL0     H35805   6.297   7.057   0.303  0.3215  0.8219  1.2032
 1006MOL0     H35806   6.219   6.999   0.607  0.8603 -2.0837 -0.3608
 1006MOL0     H35807   6.106   6.986   0.489  1.4928 -2.4328  1.5959
 1006MOL0     H35808   6.113   7.397   0.562 -1.5467 -1.0886  3.1670
 1006MOL0     H35809   6.732   6.864   0.223 -4.0632 -0.3655  2.8562
 1006MOL0     H35810   6.944   6.753   0.179 -0.1537  0.5790 -1.0986
 1007MOL0     O35811   8.146   3.349   5.637 -0.8408 -0.4600 -0.0029
 1007MOL0     C35812   8.066   3.433   5.586 -0.3611  0.3703  0.2492
 1007MOL0     O35813   7.930   3.422   5.585  0.0190 -0.0391 -0.0214
 1007MOL0     C35814   7.873   3.329   5.674 -0.4573 -1.2732  0.4240
 1007MOL0     C35815   7.834   3.201   5.630  0.2394 -0.0384  0.8319
 1007MOL0     C35816   7.780   3.111   5.719 -0.3667 -0.0384 -0.0425
 1007MOL0     C35817   7.762   3.145   5.854 -0.4683  1.2554  0.2589
 1007MOL0     O35818   7.716   3.057   5.952 -0.9515  0.0450 -0.6137
 1007MOL0     C35819   7.593   3.008   5.908  0.8143 -0.9282 -0.0329
 1007MOL0     C35820   7.499   3.046   6.028 -0.2159  0.5278  0.6813
 1007MOL0     C35821   7.388   2.935   6.022 -0.0295 -0.3926 -0.3664
 1007MOL0     C35822   7.292   2.947   5.897 -1.1705 -0.5237 -0.3807
 1007MOL0     C35823   7.176   2.846   5.882  0.9342  0.2548  0.3177
 1007MOL0     C35824   7.097   2.890   5.751 -0.5474  0.0902 -0.5049
 1007MOL0     C35825   6.974   2.816   5.740 -0.2449  0.1080  0.4243
 1007MOL0     C35826   6.991   2.669   5.694 -0.0877 -0.3480  0.1968
 1007MOL0     N35827   6.867   2.612   5.656  0.3033  0.0713 -0.1768
 1007MOL0     C35828   6.789   2.508   5.715 -0.7825  0.3572  0.3464
 1007MOL0     C35829   6.696   2.474   5.637  0.5284 -0.5535  0.6260
 1007MOL0     C35830   6.598   2.362   5.662  0.4337 -0.4887  0.6280
 1007MOL0     C35831   6.446   2.386   5.660 -0.2762 -0.4713  0.2903
 1007MOL0     C35832   6.394   2.384   5.508  0.2252  0.8592  0.3219
 1007MOL0     C35833   6.258   2.459   5.494  0.8397 -0.2529  0.6881
 1007MOL0     O35834   6.247   2.508   5.359  0.8765  0.2883 -0.1558
 1007MOL0     C35835   6.293   2.629   5.312 -0.6056  0.2385 -0.8001
 1007MOL0     C35836   6.248   2.676   5.196  0.5327  0.3981 -0.1467
 1007MOL0     C35837   6.280   2.813   5.148  0.5928  1.7448 -0.7084
 1007MOL0     C35838   6.223   2.844   5.017 -0.5546 -0.3608  0.1781
 1007MOL0     C35839   6.372   2.894   5.211  0.0344  0.7438  0.0126
 1007MOL0     C35840   6.420   3.029   5.162 -0.6427  0.9240 -0.4153
 1007MOL0     O35841   6.523   3.078   5.246  0.9738 -0.1213  0.6277
 1007MOL0     C35842   6.577   3.192   5.205  0.3298  0.2531  0.7557
 1007MOL0     C35843   6.542   3.314   5.264  0.6965 -0.2730  0.4304
 1007MOL0     C35844   6.603   3.432   5.207  0.3579  0.2731 -0.5242
 1007MOL0     C35845   6.682   3.427   5.096  0.1485  0.0799 -0.2189
 1007MOL0     O35846   6.729   3.546   5.045 -0.5223 -0.2953 -0.6762
 1007MOL0     C35847   6.797   3.557   4.919 -0.3635 -0.4932 -0.4733
 1007MOL0     C35848   6.838   3.701   4.888 -0.8713 -0.6648 -0.0439
 1007MOL0     C35849   6.718   3.794   4.879 -0.4631 -0.6091  0.0239
 1007MOL0     C35850   6.773   3.933   4.846  0.1903 -0.1239  0.0314
 1007MOL0     C35851   6.671   4.048   4.853  0.5457  0.6654  0.1132
 1007MOL0     C35852   6.587   4.051   4.714 -1.1417 -0.0030  0.8596
 1007MOL0     C35853   6.662   4.114   4.597  0.4083 -0.7248  0.6823
 1007MOL0     C35854   6.567   4.118   4.472  0.0784  0.4381  0.0978
 1007MOL0    Cl35855   6.554   3.947   4.411  0.4283  0.4273  0.1611
 1007MOL0     C35856   6.710   3.307   5.029  0.2448  0.4806  1.0226
 1007MOL0     C35857   6.666   3.189   5.089 -0.6511 -0.1449 -0.6609
 1007MOL0     O35858   6.384   3.074   5.060 -0.0939  0.2227  0.3013
 1007MOL0     C35859   6.420   2.837   5.338  0.4652  0.2905 -0.1422
 1007MOL0     C35860   6.386   2.710   5.381 -0.0526 -0.1298  0.0900
 1007MOL0     N35861   6.717   2.547   5.515  0.5019 -0.9296  0.0958
 1007MOL0     N35862   6.816   2.629   5.531 -0.5656  0.2541  0.5800
 1007MOL0     C35863   7.792   3.270   5.906 -0.4953 -0.0510  0.6431
 1007MOL0     C35864   7.849   3.362   5.815  0.5960 -0.3903 -0.3714
 1007MOL0     C35865   8.129   3.543   5.519 -0.7173  0.3848  0.9127
 1007MOL0     C35866   8.046   3.639   5.451 -0.0824 -0.3398  0.5735
 1007MOL0     C35867   8.103   3.755   5.400  0.3257 -0.1346  0.1667
 1007MOL0     C35868   8.236   3.778   5.412  0.9033 -0.0318 -0.2977
 1007MOL0     O35869   8.303   3.896   5.367  0.5278 -0.1148 -0.2409
 1007MOL0     C35870   8.233   4.025   5.367 -0.3487  0.3187  0.5212
 1007MOL0     C35871   8.192   4.056   5.514  0.5622  0.3132  0.9659
 1007MOL0     C35872   8.136   4.206   5.503 -0.3421  0.2756  0.1502
 1007MOL0     C35873   8.243   4.313   5.532 -0.0768  0.6301 -0.8448
 1007MOL0     C35874   8.245   4.347   5.675 -0.2728 -0.4945  0.1412
 1007MOL0     C35875   8.235   4.387   5.794 -0.0145  0.3522 -0.3072
 1007MOL0     C35876   8.313   3.671   5.451  0.3015  0.0545 -0.3870
 1007MOL0     C35877   8.271   3.562   5.516  0.9429 -1.3381 -0.0387
 1007MOL0     H35878   7.840   3.174   5.525 -1.8109  1.3352  0.2985
 1007MOL0     H35879   7.761   3.007   5.695 -2.8662 -0.3194  2.6415
 1007MOL0     H35880   7.553   3.041   5.812  0.8405 -0.2445  0.1779
 1007MOL0     H35881   7.597   2.901   5.887 -1.7196 -1.3639  1.2967
 1007MOL0     H35882   7.557   3.045   6.120  1.1553  5.2572  0.1292
 1007MOL0     H35883   7.438   3.136   6.020 -1.9502 -0.6838 -0.4774
 1007MOL0     H35884   7.431   2.835   6.007 -0.7120 -0.6453 -0.7204
 1007MOL0     H35885   7.343   2.931   6.122  1.7400 -2.1986  0.4324
 1007MOL0     H35886   7.244   3.046   5.901 -1.7421 -0.7063 -2.1157
 1007MOL0     H35887   7.357   2.940   5.809 -0.5345  1.6714 -0.1467
 1007MOL0     H35888   7.203   2.740   5.876 -6.3543 -2.0616 -2.2353
 1007MOL0     H35889   7.118   2.869   5.972 -0.8799  0.2278 -0.8079
 1007MOL0     H35890   7.073   2.995   5.768 -0.4198  0.3301 -1.7292
 1007MOL0     H35891   7.155   2.882   5.659 -1.4608  0.6395 -1.1450
 1007MOL0     H35892   6.922   2.815   5.836  1.9933 -2.0796  1.7302
 1007MOL0     H35893   6.914   2.868   5.665 -2.1599 -2.2872  0.1808
 1007MOL0     H35894   7.041   2.610   5.771  1.6385  1.6168  0.6578
 1007MOL0     H35895   7.047   2.683   5.602 -0.9409  0.8236 -0.1700
 1007MOL0     H35896   6.809   2.467   5.814  0.3011  0.7871  0.3156
 1007MOL0     H35897   6.628   2.271   5.608 -1.7876 -0.2974 -1.0594
 1007MOL0     H35898   6.613   2.338   5.768 -0.4647  0.2854  0.9459
 1007MOL0     H35899   6.426   2.481   5.710  0.7432  2.1371 -3.7153
 1007MOL0     H35900   6.380   2.315   5.710 -2.1446 -0.4200 -1.9444
 1007MOL0     H35901   6.376   2.285   5.466 -3.2429  2.0495 -1.3533
 1007MOL0     H35902   6.469   2.432   5.445 -0.3535 -1.7939 -2.6350
 1007MOL0     H35903   6.249   2.541   5.566 -1.0474 -1.4549  1.9126
 1007MOL0     H35904   6.178   2.394   5.529 -0.1100  1.5392  1.9907
 1007MOL0     H35905   6.190   2.614   5.128 -0.5050  1.8190 -0.6080
 1007MOL0     H35906   6.171   2.768   4.957 -0.8356  0.8923 -1.2118
 1007MOL0     H35907   6.171   2.939   5.030 -2.0413 -1.1113 -0.0129
 1007MOL0     H35908   6.313   2.866   4.958 -0.1186 -1.2002  0.5067
 1007MOL0     H35909   6.483   3.325   5.355 -1.1247 -3.1402 -0.2640
 1007MOL0     H35910   6.586   3.535   5.238 -0.7324 -0.7551  2.6465
 1007MOL0     H35911   6.887   3.494   4.916 -0.0406 -0.0205 -0.8202
 1007MOL0     H35912   6.727   3.523   4.842 -1.8785  1.1051  0.1312
 1007MOL0     H35913   6.916   3.732   4.959  0.5566  1.0769 -2.2035
 1007MOL0     H35914   6.891   3.703   4.792 -0.0869 -1.8776  0.3394
 1007MOL0     H35915   6.680   3.813   4.980 -2.3437 -0.9738 -0.5948
 1007MOL0     H35916   6.643   3.759   4.808  0.2112 -1.4664 -0.2880
 1007MOL0     H35917   6.853   3.958   4.916 -0.9967 -0.0416  1.4100
 1007MOL0     H35918   6.821   3.933   4.748 -2.8593 -0.8451 -1.5768
 1007MOL0     H35919   6.721   4.145   4.857  1.2134  0.3008  0.6925
 1007MOL0     H35920   6.607   4.033   4.940  0.2000 -2.8151 -0.5605
 1007MOL0     H35921   6.558   3.946   4.701 -2.7366  0.4371  0.6852
 1007MOL0     H35922   6.497   4.113   4.718 -1.3558 -0.3509  2.2355
 1007MOL0     H35923   6.750   4.060   4.560 -0.3256 -1.2629 -0.3544
 1007MOL0     H35924   6.683   4.219   4.617  2.7586 -1.4551  2.4920
 1007MOL0     H35925   6.597   4.179   4.386 -1.8133  0.5644 -0.5195
 1007MOL0     H35926   6.471   4.161   4.503  1.7916  2.8150  2.5259
 1007MOL0     H35927   6.764   3.305   4.935  0.7049 -0.2164  1.2880
 1007MOL0     H35928   6.684   3.092   5.042  3.7871  0.8841 -1.5788
 1007MOL0     H35929   6.499   2.882   5.398 -2.2891  3.8576  1.2161
 1007MOL0     H35930   6.426   2.684   5.479  0.3986 -0.5168 -0.1898
 1007MOL0     H35931   7.778   3.289   6.012 -1.0895  1.4733  0.3106
 1007MOL0     H35932   7.867   3.465   5.843 -1.5875  0.4218 -1.6842
 1007MOL0     H35933   7.941   3.622   5.431 -0.7617 -0.2466  3.6408
 1007MOL0     H35934   8.033   3.826   5.357  0.3651  2.1010  3.4715
 1007MOL0     H35935   8.297   4.104   5.327 -1.2083  3.0931  4.1674
 1007MOL0     H35936   8.146   4.025   5.300  0.4134  1.9107 -0.5269
 1007MOL0     H35937   8.278   4.048   5.581  3.4276 -3.4860 -2.6111
 1007MOL0     H35938   8.120   3.982   5.549  1.9382 -2.3903 -1.4791
 1007MOL0     H35939   8.049   4.206   5.569  1.2605 -0.5474  2.4260
 1007MOL0     H35940   8.106   4.225   5.400 -1.2402 -0.2623  0.3042
 1007MOL0     H35941   8.226   4.409   5.483  1.4067  0.9203 -0.8184
 1007MOL0     H35942   8.341   4.272   5.509 -0.0135 -1.0712  2.0068
 1007MOL0     H35943   8.224   4.413   5.897  1.0099  0.1775 -0.1433
 1007MOL0     H35944   8.419   3.689   5.439  0.5049 -0.0447  1.1642
 1007MOL0     H35945   8.342   3.504   5.575  0.6474 -1.2112  0.4440
 1008MOL0     O35946   1.787   4.451   1.483 -0.2814 -0.2707  0.2158
 1008MOL0     C35947   1.740   4.335   1.469 -0.9081  0.0625  1.2927
 1008MOL0     O35948   1.800   4.221   1.433  0.0773  0.0751  0.5496
 1008MOL0     C35949   1.928   4.219   1.382 -0.1811  0.3615 -0.0135
 1008MOL0     C35950   2.014   4.322   1.344 -1.2099 -0.6788  0.3657
 1008MOL0     C35951   2.139   4.294   1.290  0.2025  0.7526 -0.6835
 1008MOL0     C35952   2.169   4.164   1.250 -0.0595  0.0464 -0.2166
 1008MOL0     O35953   2.285   4.148   1.181  0.0421  0.5449 -0.5546
 1008MOL0     C35954   2.263   4.160   1.042 -0.1434 -0.6583  0.8677
 1008MOL0     C35955   2.404   4.174   0.960  0.1330  0.8360 -0.1667
 1008MOL0     C35956   2.500   4.279   1.031 -0.2040 -0.1151  0.1704
 1008MOL0     C35957   2.651   4.263   1.001  0.7544 -1.3233  0.9760
 1008MOL0     C35958   2.722   4.400   1.018  0.3418  0.7339 -0.0143
 1008MOL0     C35959   2.870   4.380   1.032 -0.6420  0.5023 -0.7663
 1008MOL0     C35960   2.935   4.525   1.024  0.0811  0.3221 -0.8040
 1008MOL0     C35961   2.949   4.592   1.160 -0.0460 -0.6482  0.9823
 1008MOL0     N35962   2.835   4.679   1.191  0.0023  0.1582 -0.3135
 1008MOL0     C35963   2.727   4.657   1.271  0.3219 -0.2171 -0.2785
 1008MOL0     C35964   2.656   4.765   1.277 -0.9143  0.6694  0.3606
 1008MOL0     C35965   2.522   4.776   1.354  0.7352 -0.1212  0.0784
 1008MOL0     C35966   2.400   4.728   1.266 -0.5070 -1.0087 -0.4108
 1008MOL0     C35967   2.380   4.830   1.142  0.1108  0.3566  0.0583
 1008MOL0     C35968   2.231   4.815   1.095 -0.2459 -0.0671 -1.1181
 1008MOL0     O35969   2.224   4.687   1.045 -0.3275  0.6800  0.5920
 1008MOL0     C35970   2.108   4.623   1.030  0.8835  0.4334 -0.3848
 1008MOL0     C35971   2.073   4.539   0.921  0.1902  0.2969 -0.2464
 1008MOL0     C35972   1.959   4.453   0.921 -0.0999  0.9458  0.1244
 1008MOL0     C35973   1.938   4.374   0.786  0.0627  0.3603 -0.9028
 1008MOL0     C35974   1.873   4.455   1.038  0.6518 -0.0099  0.8859
 1008MOL0     C35975   1.768   4.345   1.043  0.1580 -0.1052 -0.7193
 1008MOL0     O35976   1.766   4.242   0.965 -0.0744  0.1366  0.0881
 1008MOL0     C35977   1.661   4.155   0.956  0.1491 -0.1923 -0.8668
 1008MOL0     C35978   1.612   4.113   0.834 -0.6332  0.0276 -0.0557
 1008MOL0     C35979   1.497   4.034   0.826  0.3647 -0.3879 -0.6675
 1008MOL0     C35980   1.432   3.984   0.938  0.0974 -0.0815  0.0882
 1008MOL0     O35981   1.320   3.911   0.937  0.1571  0.3588  0.1780
 1008MOL0     C35982   1.221   3.914   0.830 -0.1277  0.7323 -0.1042
 1008MOL0     C35983   1.229   3.780   0.751 -0.3517 -0.3323  0.3399
 1008MOL0     C35984   1.109   3.766   0.649  0.2318 -0.1861 -0.6996
 1008MOL0     C35985   1.144   3.694   0.524  0.4329 -0.6274  0.3983
 1008MOL0     C35986   1.195   3.780   0.401 -0.0296  0.3690 -0.5995
 1008MOL0     C35987   1.336   3.844   0.424 -0.4597 -0.0310 -0.2113
 1008MOL0     C35988   1.447   3.746   0.408 -0.1909 -0.2015  0.0355
 1008MOL0     C35989   1.583   3.808   0.412 -1.0699  0.7590 -0.2601
 1008MOL0    Cl35990   1.623   3.886   0.571  0.6025 -0.2502  0.5011
 1008MOL0     C35991   1.498   4.006   1.060  0.4274 -0.6517  0.1599
 1008MOL0     C35992   1.602   4.101   1.073  0.9894  0.7389  0.4404
 1008MOL0     O35993   1.691   4.364   1.135 -0.2654  0.3633  0.5585
 1008MOL0     C35994   1.902   4.537   1.149  0.5291 -0.4291  0.0590
 1008MOL0     C35995   2.017   4.612   1.143 -0.3146 -0.2236 -0.2964
 1008MOL0     N35996   2.712   4.859   1.193 -0.0068  0.6706  0.0432
 1008MOL0     N35997   2.820   4.811   1.148  0.9358 -0.2137  0.3582
 1008MOL0     C35998   2.080   4.065   1.271  0.9160  0.2737 -0.0299
 1008MOL0     C35999   1.961   4.091   1.344  0.5200 -0.4650 -0.4326
 1008MOL0     C36000   1.600   4.309   1.512  0.1291 -0.2381  0.2324
 1008MOL0     C36001   1.502   4.402   1.562 -0.6995  0.6349 -0.2714
 1008MOL0     C36002   1.378   4.363   1.605 -0.0335  0.1190 -0.2145
 1008MOL0     C36003   1.337   4.227   1.597  0.1003 -0.4308  0.1231
 1008MOL0     O36004   1.212   4.192   1.651 -0.2666 -0.3457  0.1579
 1008MOL0     C36005   1.164   4.054   1.654  0.4283  0.0408  0.1576
 1008MOL0     C36006   1.027   4.066   1.724 -0.5980 -0.0272 -0.5699
 1008MOL0     C36007   0.969   3.944   1.781 -0.0623 -0.2369  0.7037
 1008MOL0     C36008   0.825   3.966   1.844 -0.6434 -0.5774  0.1577
 1008MOL0     C36009   0.772   3.849   1.914  0.3643 -0.8162 -0.3450
 1008MOL0     C36010   0.742   3.759   1.994 -0.1188 -1.1091  0.0192
 1008MOL0     C36011   1.425   4.135   1.539 -0.1629 -0.3839  0.5459
 1008MOL0     C36012   1.552   4.178   1.507 -0.0755  0.2826  0.2612
 1008MOL0     H36013   1.975   4.423   1.357 -0.0240 -0.1926  0.3103
 1008MOL0     H36014   2.218   4.366   1.273  0.5570 -0.0206 -2.5052
 1008MOL0     H36015   2.216   4.068   1.006  1.5398 -1.2603  0.1021
 1008MOL0     H36016   2.200   4.244   1.011  1.4102 -0.1379 -1.0797
 1008MOL0     H36017   2.456   4.077   0.964 -1.6814 -0.1696  0.2786
 1008MOL0     H36018   2.379   4.191   0.855  0.7576 -0.7797 -0.6158
 1008MOL0     H36019   2.452   4.369   0.992 -0.7119 -0.1806  0.6358
 1008MOL0     H36020   2.482   4.295   1.138 -1.2114  1.9662 -0.2595
 1008MOL0     H36021   2.693   4.184   1.064 -1.8823 -3.4921  0.2049
 1008MOL0     H36022   2.663   4.238   0.895 -2.2618 -2.8351  0.9059
 1008MOL0     H36023   2.705   4.473   0.939 -0.0487  0.6372 -0.0230
 1008MOL0     H36024   2.682   4.434   1.114 -1.9630  1.9178 -1.2938
 1008MOL0     H36025   2.903   4.333   1.126  0.7143  2.1124 -0.3981
 1008MOL0     H36026   2.905   4.306   0.960 -0.2303 -2.6434  2.3412
 1008MOL0     H36027   3.036   4.510   0.985  0.7645  0.7438  0.6980
 1008MOL0     H36028   2.884   4.586   0.949 -1.4113  0.2008  0.0789
 1008MOL0     H36029   3.041   4.648   1.175 -0.9917  1.1425  0.4128
 1008MOL0     H36030   2.954   4.515   1.237  2.7933 -0.2372  1.3007
 1008MOL0     H36031   2.713   4.567   1.330  1.7189  0.9798  2.0228
 1008MOL0     H36032   2.538   4.715   1.444  1.3957 -1.6647 -1.0485
 1008MOL0     H36033   2.496   4.876   1.389 -2.3340 -1.3104  1.6700
 1008MOL0     H36034   2.318   4.723   1.338  1.6553 -1.3265  2.1821
 1008MOL0     H36035   2.428   4.635   1.216 -0.3024  0.5569 -3.4745
 1008MOL0     H36036   2.452   4.795   1.067 -0.2650  1.1935 -0.7096
 1008MOL0     H36037   2.411   4.930   1.173  0.7552  0.7403 -1.6833
 1008MOL0     H36038   2.204   4.893   1.023 -3.5684 -0.2525 -0.2459
 1008MOL0     H36039   2.165   4.821   1.182 -0.1723  1.4081 -1.1456
 1008MOL0     H36040   2.137   4.529   0.834 -0.0208 -0.4045 -0.3187
 1008MOL0     H36041   1.977   4.431   0.702 -1.6854  0.0829 -1.9588
 1008MOL0     H36042   1.993   4.279   0.780 -0.5634 -0.1227  0.5380
 1008MOL0     H36043   1.833   4.359   0.757 -0.0001 -1.9119  0.2690
 1008MOL0     H36044   1.650   4.131   0.733 -0.7964 -1.5579 -0.4370
 1008MOL0     H36045   1.451   4.013   0.730  3.1843 -0.8733 -2.0346
 1008MOL0     H36046   1.128   3.911   0.888  0.3767 -0.6043  0.6869
 1008MOL0     H36047   1.219   4.003   0.767 -0.4864 -0.1985 -1.4448
 1008MOL0     H36048   1.331   3.778   0.709 -0.1403 -1.5448  0.8607
 1008MOL0     H36049   1.225   3.710   0.835  2.2434 -1.4491 -0.3378
 1008MOL0     H36050   1.068   3.864   0.627 -1.8358 -0.2659  2.2465
 1008MOL0     H36051   1.023   3.715   0.692 -1.1069  0.0646 -2.9061
 1008MOL0     H36052   1.225   3.623   0.543  2.2090  1.3279  0.4421
 1008MOL0     H36053   1.053   3.642   0.491 -0.1718  0.7644 -0.1769
 1008MOL0     H36054   1.116   3.852   0.381 -2.0941 -2.0776 -1.8226
 1008MOL0     H36055   1.192   3.717   0.312 -2.8561 -0.9152  0.2686
 1008MOL0     H36056   1.348   3.915   0.342 -2.1963 -0.5770 -0.9892
 1008MOL0     H36057   1.339   3.886   0.525  0.6657 -1.5173  0.4137
 1008MOL0     H36058   1.444   3.704   0.307  1.8584  1.8487 -0.9772
 1008MOL0     H36059   1.431   3.669   0.484 -2.2619 -0.1570 -0.2912
 1008MOL0     H36060   1.579   3.883   0.332  0.8194  0.7269 -0.4193
 1008MOL0     H36061   1.658   3.730   0.393  0.3535  2.1261 -0.4442
 1008MOL0     H36062   1.449   3.968   1.149 -0.2088 -1.1091 -0.3672
 1008MOL0     H36063   1.642   4.133   1.168  2.5064  2.0256 -0.5816
 1008MOL0     H36064   1.844   4.555   1.239 -1.6537  0.7545 -1.4989
 1008MOL0     H36065   2.056   4.649   1.237  1.5139  1.3333 -1.5920
 1008MOL0     H36066   2.101   3.964   1.237 -0.1073  0.6890 -2.1059
 1008MOL0     H36067   1.897   4.008   1.369 -0.9292  1.0918  1.3510
 1008MOL0     H36068   1.523   4.508   1.568  1.0505  0.6252 -3.8708
 1008MOL0     H36069   1.314   4.437   1.651 -1.4905 -1.2962  0.1460
 1008MOL0     H36070   1.146   4.003   1.558 -3.5101 -1.2329  1.3877
 1008MOL0     H36071   1.236   3.994   1.710  1.0361  0.6085  0.0071
 1008MOL0     H36072   0.972   4.120   1.646  0.1385 -0.0998 -1.1509
 1008MOL0     H36073   1.042   4.127   1.814 -0.2821 -1.6617  0.5225
 1008MOL0     H36074   1.036   3.915   1.863  0.3868  2.2220  1.2982
 1008MOL0     H36075   0.959   3.861   1.711 -0.1697 -0.7710  1.3423
 1008MOL0     H36076   0.770   3.985   1.751 -0.8136 -1.1250  0.1416
 1008MOL0     H36077   0.843   4.054   1.906  1.8869 -0.1586 -1.0431
 1008MOL0     H36078   0.721   3.679   2.063 -0.7131 -1.8407 -0.9792
 1008MOL0     H36079   1.409   4.029   1.523 -0.3388 -0.2031 -0.5764
 1008MOL0     H36080   1.598   4.095   1.455 -2.2693 -0.5618 -0.4658
 1009MOL0     O36081   2.509   0.089  10.310 -0.4128 -0.5969 -0.7755
 1009MOL0     C36082   2.576   0.029  10.393 -0.6944  1.5067 -0.2466
 1009MOL0     O36083   2.529  -0.053  10.496 -0.1202 -0.7775 -0.9008
 1009MOL0     C36084   2.404  -0.078  10.492  0.2638  0.7231 -0.8198
 1009MOL0     C36085   2.306   0.011  10.541 -0.5582  0.6742 -0.6425
 1009MOL0     C36086   2.172  -0.025  10.558  0.1143  0.1926 -0.0912
 1009MOL0     C36087   2.129  -0.149  10.521  0.0120 -0.4741  0.1378
 1009MOL0     O36088   2.004  -0.197  10.521  0.3673 -0.1293  0.9983
 1009MOL0     C36089   1.892  -0.112  10.508  0.0634 -0.4138  0.7350
 1009MOL0     C36090   1.765  -0.208  10.496  0.2224  0.9241 -0.7656
 1009MOL0     C36091   1.633  -0.137  10.500  0.4659 -1.0305  0.4385
 1009MOL0     C36092   1.513  -0.233  10.491 -0.3287  0.7079  0.1848
 1009MOL0     C36093   1.468  -0.260  10.349  0.2035  0.3989  0.1409
 1009MOL0     C36094   1.341  -0.351  10.355 -0.3998  0.6655  0.3095
 1009MOL0     C36095   1.273  -0.374  10.224  0.6192  0.1905  0.2631
 1009MOL0     C36096   1.354  -0.455  10.138  0.2230  0.3953  0.3153
 1009MOL0     N36097   1.296  -0.432  10.005 -0.4514  0.4617 -0.4593
 1009MOL0     C36098   1.206  -0.515   9.950 -0.7535  0.0073 -0.3904
 1009MOL0     C36099   1.197  -0.480   9.829 -0.3007 -0.4742  0.4967
 1009MOL0     C36100   1.100  -0.530   9.723  0.2164  0.1822  0.8919
 1009MOL0     C36101   1.150  -0.640   9.635  0.0137  0.7543 -0.9719
 1009MOL0     C36102   1.297  -0.633   9.596  0.7643  0.6907  0.5704
 1009MOL0     C36103   1.328  -0.712   9.461  0.3746 -0.4577 -0.1841
 1009MOL0     O36104   1.247  -0.652   9.366  0.5374 -0.6676 -0.3809
 1009MOL0     C36105   1.239  -0.702   9.237  0.3013 -0.1155 -0.6024
 1009MOL0     C36106   1.296  -0.831   9.198  0.4693 -0.0122 -0.6805
 1009MOL0     C36107   1.283  -0.880   9.074 -0.3776 -0.1266  0.8239
 1009MOL0     C36108   1.374  -0.999   9.035  0.6608 -0.5558 -0.3625
 1009MOL0     C36109   1.212  -0.804   8.977  0.5982  0.4257  0.3988
 1009MOL0     C36110   1.198  -0.867   8.846 -0.5678 -0.5581 -0.2009
 1009MOL0     O36111   1.100  -0.958   8.829 -0.5060 -0.1970  0.0860
 1009MOL0     C36112   1.081  -1.011   8.700  0.5639 -0.3452  0.4313
 1009MOL0     C36113   1.169  -1.115   8.655  0.2391 -0.6953  0.5851
 1009MOL0     C36114   1.151  -1.181   8.530  0.3955 -0.2147  0.0488
 1009MOL0     C36115   1.067  -1.131   8.439 -0.3987 -0.0997 -0.2686
 1009MOL0     O36116   1.076  -1.185   8.310  0.2139  0.1050 -0.0020
 1009MOL0     C36117   1.149  -1.119   8.207 -0.2353  0.8118 -0.6607
 1009MOL0     C36118   1.169  -1.217   8.096 -0.1633  0.4191 -0.3291
 1009MOL0     C36119   1.234  -1.166   7.961  0.5270  0.1317 -0.1912
 1009MOL0     C36120   1.338  -1.272   7.908  0.1361 -0.4018 -0.1526
 1009MOL0     C36121   1.397  -1.248   7.771 -0.3309  0.4042  0.3769
 1009MOL0     C36122   1.498  -1.130   7.769 -0.4950  0.7345  0.7920
 1009MOL0     C36123   1.580  -1.111   7.635  0.1639 -0.4255 -1.2171
 1009MOL0     C36124   1.688  -1.002   7.630  0.7490  0.0076 -0.6381
 1009MOL0    Cl36125   1.730  -0.962   7.455  0.6604 -0.1077 -0.4387
 1009MOL0     C36126   0.975  -1.024   8.479 -0.6170 -1.4726 -0.9639
 1009MOL0     C36127   0.983  -0.970   8.612  0.4149 -0.0481  0.3401
 1009MOL0     O36128   1.267  -0.822   8.753  0.2458 -0.0011  0.0044
 1009MOL0     C36129   1.150  -0.689   9.018  0.6281  0.2312  0.1627
 1009MOL0     C36130   1.161  -0.636   9.146  0.0740 -0.1777 -0.3746
 1009MOL0     N36131   1.268  -0.366   9.809 -0.1158  0.6013 -0.5042
 1009MOL0     N36132   1.344  -0.348   9.914  0.4644  0.7986  0.6937
 1009MOL0     C36133   2.228  -0.242  10.467 -0.1373  0.2737 -0.1393
 1009MOL0     C36134   2.369  -0.207  10.448 -0.4524 -0.8953 -0.1445
 1009MOL0     C36135   2.727   0.022  10.356 -0.3385  0.4429  0.0288
 1009MOL0     C36136   2.789   0.130  10.285  0.3281  0.0121  0.5499
 1009MOL0     C36137   2.927   0.131  10.259 -0.0609  0.7301 -0.2001
 1009MOL0     C36138   3.006   0.028  10.295 -1.2451 -0.5275  0.7311
 1009MOL0     O36139   3.142   0.019  10.271 -0.0800 -0.5577  0.0518
 1009MOL0     C36140   3.194   0.070  10.141  0.2994 -0.4237 -0.4249
 1009MOL0     C36141   3.320   0.007  10.094 -0.5309  0.4982  1.0623
 1009MOL0     C36142   3.379   0.080   9.973  0.0162  0.3571 -0.5356
 1009MOL0     C36143   3.530   0.101   9.979  0.2560  0.2107  0.0064
 1009MOL0     C36144   3.606  -0.017   9.983 -0.3066  0.9369 -0.0387
 1009MOL0     C36145   3.664  -0.121   9.986  0.3514  0.3644 -0.3868
 1009MOL0     C36146   2.951  -0.068  10.375  0.7801  0.1814  0.3884
 1009MOL0     C36147   2.811  -0.081  10.401  0.6104 -0.7076 -0.3249
 1009MOL0     H36148   2.334   0.107  10.583 -1.3318  0.3912  0.5876
 1009MOL0     H36149   2.094   0.037  10.600 -2.6100 -2.8566 -0.2845
 1009MOL0     H36150   1.889  -0.049  10.597 -0.7109 -2.2901  2.0879
 1009MOL0     H36151   1.899  -0.060  10.411 -2.6933 -0.4319  0.4387
 1009MOL0     H36152   1.777  -0.255  10.398  1.2445 -3.0676  1.0718
 1009MOL0     H36153   1.761  -0.287  10.572 -1.5635 -0.4583 -2.1698
 1009MOL0     H36154   1.628  -0.069  10.586 -0.6011  0.4823 -0.7596
 1009MOL0     H36155   1.629  -0.069  10.415 -0.4513  1.3647  2.2669
 1009MOL0     H36156   1.528  -0.326  10.547  1.0802  0.7702 -0.0541
 1009MOL0     H36157   1.428  -0.195  10.548 -1.8846 -1.3322 -0.6524
 1009MOL0     H36158   1.439  -0.169  10.295 -1.8872 -1.8783 -2.9098
 1009MOL0     H36159   1.547  -0.310  10.292 -0.8191 -1.1584  0.0391
 1009MOL0     H36160   1.370  -0.446  10.399  0.4295 -0.6104 -2.7112
 1009MOL0     H36161   1.270  -0.305  10.424 -0.8843 -0.5776  0.6661
 1009MOL0     H36162   1.180  -0.429  10.244 -1.6728  3.5779 -0.1359
 1009MOL0     H36163   1.243  -0.276  10.185  0.6568  1.0405  2.2581
 1009MOL0     H36164   1.359  -0.561  10.162  0.3101  0.7364  1.9800
 1009MOL0     H36165   1.453  -0.412  10.123 -0.4497  1.2034 -2.3088
 1009MOL0     H36166   1.161  -0.600  10.001 -1.8238 -0.8712 -2.6750
 1009MOL0     H36167   1.013  -0.563   9.780 -1.2276  1.5084 -0.4533
 1009MOL0     H36168   1.046  -0.451   9.670 -4.3430 -1.1804  2.9583
 1009MOL0     H36169   1.085  -0.644   9.547 -0.1309  4.4684 -1.1883
 1009MOL0     H36170   1.140  -0.728   9.700  0.7802  1.5237  0.2128
 1009MOL0     H36171   1.361  -0.674   9.675  1.9979  1.2224 -0.1327
 1009MOL0     H36172   1.321  -0.528   9.577  0.3407  0.2631 -3.0299
 1009MOL0     H36173   1.322  -0.821   9.464 -0.5181 -0.4740 -1.5340
 1009MOL0     H36174   1.435  -0.706   9.438  0.4873 -0.8675  0.2273
 1009MOL0     H36175   1.354  -0.890   9.268 -3.1729 -2.9581  0.1804
 1009MOL0     H36176   1.469  -0.962   8.995  2.4505 -1.3244  2.7862
 1009MOL0     H36177   1.409  -1.043   9.129  0.7613  0.3114  0.0173
 1009MOL0     H36178   1.327  -1.072   8.969  1.7805  0.1242 -1.9750
 1009MOL0     H36179   1.253  -1.156   8.711 -0.4979 -2.0816  0.7175
 1009MOL0     H36180   1.222  -1.254   8.493 -1.3446 -0.8744 -2.2336
 1009MOL0     H36181   1.090  -1.039   8.163  0.1777  1.4564 -0.0784
 1009MOL0     H36182   1.242  -1.078   8.249 -0.0998 -1.4386  1.4878
 1009MOL0     H36183   1.232  -1.295   8.139  2.0860  1.4035 -1.6546
 1009MOL0     H36184   1.067  -1.251   8.076 -0.5256  1.1915  0.1646
 1009MOL0     H36185   1.295  -1.076   7.978  0.8878 -0.3377  1.1021
 1009MOL0     H36186   1.157  -1.166   7.883 -0.4262  1.5387  0.7138
 1009MOL0     H36187   1.428  -1.278   7.970 -0.6727 -2.4421  0.9379
 1009MOL0     H36188   1.296  -1.373   7.905  1.1229 -0.8297 -0.0430
 1009MOL0     H36189   1.316  -1.232   7.699 -1.4307  1.3116  1.7795
 1009MOL0     H36190   1.454  -1.337   7.744  1.4135  1.6009 -0.0369
 1009MOL0     H36191   1.439  -1.039   7.783 -0.0345  1.1451  0.0892
 1009MOL0     H36192   1.572  -1.141   7.849 -3.3888  1.9822  3.9183
 1009MOL0     H36193   1.517  -1.084   7.549 -4.4406  0.9304  2.1515
 1009MOL0     H36194   1.635  -1.205   7.633  0.7324 -0.2231  1.5707
 1009MOL0     H36195   1.773  -1.034   7.691 -0.6746  0.4488  1.7104
 1009MOL0     H36196   1.650  -0.912   7.678  0.3864 -1.2338  1.5064
 1009MOL0     H36197   0.904  -0.986   8.406 -0.4777 -0.0107 -0.3775
 1009MOL0     H36198   0.909  -0.894   8.632  0.3511 -0.3312  1.2312
 1009MOL0     H36199   1.096  -0.638   8.939 -0.5266 -0.2155  0.6496
 1009MOL0     H36200   1.120  -0.543   9.184  1.4065  0.5495 -0.6557
 1009MOL0     H36201   2.192  -0.342  10.448 -1.3612  0.7373 -0.3320
 1009MOL0     H36202   2.442  -0.265  10.393 -0.4009 -0.2095 -0.8064
 1009MOL0     H36203   2.729   0.218  10.267 -2.0676 -1.5575  0.4390
 1009MOL0     H36204   2.968   0.223  10.219 -0.3422  1.0347  0.1998
 1009MOL0     H36205   3.129   0.047  10.056 -0.5788 -0.0775  0.1291
 1009MOL0     H36206   3.189   0.178  10.154 -2.8634 -0.4308 -0.7699
 1009MOL0     H36207   3.301  -0.098  10.072  3.2401  0.2645 -2.5507
 1009MOL0     H36208   3.394   0.007  10.175  0.1121  2.4781  0.5478
 1009MOL0     H36209   3.329   0.171   9.939 -1.0689 -1.6023 -5.0045
 1009MOL0     H36210   3.349   0.018   9.887 -0.9088 -0.3501  0.2769
 1009MOL0     H36211   3.537   0.167  10.066 -0.8233  1.2501 -0.6738
 1009MOL0     H36212   3.565   0.161   9.895  0.5237 -1.4880 -1.1373
 1009MOL0     H36213   3.731  -0.203  10.001  1.3817  1.2682  0.1285
 1009MOL0     H36214   3.021  -0.144  10.410  1.7461  0.6647 -0.4398
 1009MOL0     H36215   2.773  -0.167  10.456  2.0102 -0.0412  1.8125
 1010MOL0     O36216  11.041   9.345   9.049 -0.6588  0.1852 -0.2364
 1010MOL0     C36217  11.125   9.385   8.973  0.2775  0.0638 -0.0456
 1010MOL0     O36218  11.242   9.444   8.996  0.6825  0.6774  0.7584
 1010MOL0     C36219  11.273   9.448   9.125 -0.5475 -0.2014 -0.7557
 1010MOL0     C36220  11.403   9.403   9.170  0.6689  0.2524 -0.3616
 1010MOL0     C36221  11.449   9.419   9.305  0.8647 -0.8518  0.4142
 1010MOL0     C36222  11.353   9.491   9.387 -0.0559 -0.5235  0.3236
 1010MOL0     O36223  11.407   9.515   9.516  0.2289 -0.2215 -0.2775
 1010MOL0     C36224  11.346   9.605   9.612 -0.3325 -0.9407  0.8984
 1010MOL0     C36225  11.240   9.524   9.692  0.9757 -0.3743  0.3225
 1010MOL0     C36226  11.163   9.592   9.812 -0.2342  1.3102  0.4594
 1010MOL0     C36227  11.056   9.518   9.887  0.3856  0.3986 -0.0308
 1010MOL0     C36228  10.968   9.594   9.983  0.2942 -0.7150 -0.2549
 1010MOL0     C36229  10.823   9.531  10.004 -0.5917 -0.0538  0.0038
 1010MOL0     C36230  10.743   9.611  10.089  0.6775  0.0114  0.1672
 1010MOL0     C36231  10.782   9.610  10.241  0.7929 -0.1143 -0.0777
 1010MOL0     N36232  10.703   9.509  10.323 -0.5727  0.3695  0.2793
 1010MOL0     C36233  10.577   9.529  10.369 -1.2157 -0.3055 -0.7729
 1010MOL0     C36234  10.533   9.412  10.427 -0.4978 -0.0492 -1.2112
 1010MOL0     C36235  10.403   9.384  10.496  1.2498  0.0481  0.3888
 1010MOL0     C36236  10.411   9.459  10.629  1.3067  0.5419 -0.0169
 1010MOL0     C36237  10.287   9.413  10.725 -0.7422  0.5387  0.2287
 1010MOL0     C36238  10.307   9.481  10.857  0.0149  0.0258 -0.6670
 1010MOL0     O36239  10.201   9.447  10.952  1.1325 -0.2449  0.2448
 1010MOL0     C36240  10.203   9.497  11.084  0.2786  0.4143 -0.0383
 1010MOL0     C36241  10.308   9.576  11.138 -0.0413 -1.6571  0.8057
 1010MOL0     C36242  10.313   9.630  11.261  0.0233 -0.5747  0.1898
 1010MOL0     C36243  10.421   9.737  11.295 -0.0381  1.9010 -0.3220
 1010MOL0     C36244  10.210   9.585  11.349  1.0616 -0.5210 -0.5802
 1010MOL0     C36245  10.189   9.631  11.486 -0.7278  1.1141 -0.8241
 1010MOL0     O36246  10.088   9.568  11.551  0.8956 -0.7285 -0.3557
 1010MOL0     C36247  10.084   9.585  11.689  1.7215 -0.6628 -0.2818
 1010MOL0     C36248  10.011   9.694  11.752 -0.1018  1.0117  0.1741
 1010MOL0     C36249   9.997   9.685  11.889 -0.0485 -0.6443 -0.2124
 1010MOL0     C36250  10.056   9.580  11.958  0.0179 -0.6982 -1.4635
 1010MOL0     O36251  10.049   9.600  12.097 -1.6588 -0.3019 -0.0875
 1010MOL0     C36252  10.090   9.492  12.188  0.6363 -0.2590  0.1499
 1010MOL0     C36253  10.055   9.509  12.331  0.4976 -0.4029 -0.1001
 1010MOL0     C36254  10.128   9.421  12.422  0.2713  0.7221 -0.4887
 1010MOL0     C36255  10.059   9.395  12.559  1.0692  0.7169  0.4487
 1010MOL0     C36256  10.130   9.300  12.653 -0.8216 -0.0530  0.0080
 1010MOL0     C36257  10.063   9.161  12.623 -0.3047  0.4749  0.2181
 1010MOL0     C36258  10.135   9.051  12.689 -0.0891 -0.0083 -0.8859
 1010MOL0     C36259  10.080   9.005  12.827  0.8345 -0.7274 -0.2303
 1010MOL0    Cl36260  10.191   8.911  12.928 -0.0885  0.3301  0.5092
 1010MOL0     C36261  10.129   9.482  11.897  0.1896 -0.2668  0.1323
 1010MOL0     C36262  10.145   9.484  11.763 -0.3915 -0.7461 -0.1747
 1010MOL0     O36263  10.266   9.713  11.534 -0.0420 -0.2399 -0.1103
 1010MOL0     C36264  10.107   9.505  11.298 -0.3042 -0.0513 -0.3344
 1010MOL0     C36265  10.092   9.466  11.171 -0.2117  0.0844 -0.1597
 1010MOL0     N36266  10.641   9.326  10.419  0.0575  0.5601  0.3988
 1010MOL0     N36267  10.737   9.381  10.354  0.4713 -1.0057  0.3819
 1010MOL0     C36268  11.227   9.537   9.340 -0.0615 -0.2806  0.5354
 1010MOL0     C36269  11.190   9.518   9.210 -0.1804  1.1119 -0.0639
 1010MOL0     C36270  11.110   9.345   8.830 -0.0824  0.8188  0.5989
 1010MOL0     C36271  11.018   9.249   8.786  0.4424  0.0937 -0.1760
 1010MOL0     C36272  11.016   9.218   8.645 -0.1332 -0.6887 -0.4467
 1010MOL0     C36273  11.090   9.289   8.552 -0.6003  0.0753 -0.0349
 1010MOL0     O36274  11.077   9.258   8.419 -0.7199  0.6975  0.2380
 1010MOL0     C36275  11.153   9.316   8.311  0.3983  0.0084  1.1701
 1010MOL0     C36276  11.062   9.328   8.183  0.4536 -0.2879 -0.0252
 1010MOL0     C36277  11.100   9.217   8.082 -1.1059 -0.0192  0.3405
 1010MOL0     C36278  10.979   9.212   7.986  0.3793 -0.7878 -0.4356
 1010MOL0     C36279  10.998   9.173   7.853 -1.0293  0.5655  0.3205
 1010MOL0     C36280  11.000   9.151   7.728  0.0713 -1.0723 -0.0086
 1010MOL0     C36281  11.190   9.373   8.599 -0.0472 -0.8197  0.3350
 1010MOL0     C36282  11.203   9.394   8.734  0.0146 -0.1494  0.4066
 1010MOL0     H36283  11.458   9.344   9.097  0.4066 -1.0860  0.4896
 1010MOL0     H36284  11.547   9.391   9.343 -0.0078  1.1246  4.6596
 1010MOL0     H36285  11.420   9.644   9.681  0.3786  2.3402 -1.4617
 1010MOL0     H36286  11.296   9.690   9.565  0.0045 -0.8724  0.6589
 1010MOL0     H36287  11.162   9.489   9.624 -0.5404 -1.2700  2.4242
 1010MOL0     H36288  11.299   9.437   9.721  0.3092 -1.1733 -0.6718
 1010MOL0     H36289  11.239   9.613   9.888 -0.9925  2.6067  0.8862
 1010MOL0     H36290  11.118   9.681   9.765 -0.2229  1.4417  0.6941
 1010MOL0     H36291  10.987   9.462   9.824  3.9763 -3.9649 -0.5698
 1010MOL0     H36292  11.110   9.443   9.946 -1.9584 -0.7526  0.7552
 1010MOL0     H36293  11.016   9.615  10.079  0.2939 -1.6288 -0.0476
 1010MOL0     H36294  10.946   9.689   9.933 -1.2291 -0.1323  1.4236
 1010MOL0     H36295  10.772   9.520   9.908  0.6375 -0.1211 -0.6655
 1010MOL0     H36296  10.833   9.434  10.055  0.0176  0.4104  0.7874
 1010MOL0     H36297  10.745   9.710  10.043 -4.7072  0.2532 -0.2121
 1010MOL0     H36298  10.641   9.574  10.075  1.7800 -2.4512 -2.0195
 1010MOL0     H36299  10.766   9.707  10.290 -2.9300 -1.4537  1.7285
 1010MOL0     H36300  10.884   9.577  10.263  1.8096  2.1174 -1.0442
 1010MOL0     H36301  10.521   9.622  10.361  0.9860  1.1801  0.2582
 1010MOL0     H36302  10.316   9.402  10.434  1.3886 -3.5008 -1.0588
 1010MOL0     H36303  10.413   9.278  10.521  1.4505  0.2902  1.3731
 1010MOL0     H36304  10.400   9.568  10.621  1.5557  0.6556  0.9899
 1010MOL0     H36305  10.507   9.434  10.674  1.0367 -0.0036  0.2706
 1010MOL0     H36306  10.292   9.304  10.729  1.7825  0.6487  1.8600
 1010MOL0     H36307  10.192   9.438  10.676 -0.6616 -3.0672 -2.1558
 1010MOL0     H36308  10.310   9.590  10.846 -0.3071  0.1623  0.4603
 1010MOL0     H36309  10.404   9.448  10.896  0.0484  0.3835 -0.4421
 1010MOL0     H36310  10.392   9.592  11.073  1.1099 -0.8534  2.4095
 1010MOL0     H36311  10.369   9.828  11.328 -1.7549  0.1607  2.1387
 1010MOL0     H36312  10.500   9.704  11.363 -2.2861  0.9396  2.0231
 1010MOL0     H36313  10.462   9.759  11.197 -4.4394 -0.8894 -3.1449
 1010MOL0     H36314   9.965   9.761  11.680 -1.9147 -1.2941 -0.9352
 1010MOL0     H36315   9.963   9.773  11.943  0.1122 -0.1649 -0.8774
 1010MOL0     H36316  10.054   9.393  12.160  0.8553  0.1181 -1.5211
 1010MOL0     H36317  10.198   9.476  12.196  0.4182 -0.8442  3.4401
 1010MOL0     H36318  10.064   9.611  12.372  0.7761 -0.1972 -0.6631
 1010MOL0     H36319   9.949   9.483  12.338 -0.1257  1.1561 -2.5010
 1010MOL0     H36320  10.232   9.450  12.437  1.0663 -2.8287  2.5697
 1010MOL0     H36321  10.144   9.321  12.382 -0.5224  1.1768 -2.0316
 1010MOL0     H36322  10.053   9.486  12.620 -2.9467  0.3804  0.7772
 1010MOL0     H36323   9.958   9.361  12.534  0.7222  2.4761 -0.7223
 1010MOL0     H36324  10.115   9.330  12.757 -0.1117 -1.7416  0.6405
 1010MOL0     H36325  10.237   9.309  12.631 -0.7486  0.1036  0.4299
 1010MOL0     H36326   9.962   9.146  12.662  0.4187 -2.2404  1.2291
 1010MOL0     H36327  10.069   9.135  12.517 -0.0416 -2.2160  0.8352
 1010MOL0     H36328  10.240   9.078  12.697  0.3549 -1.5335 -1.1748
 1010MOL0     H36329  10.137   8.961  12.626  0.0256 -1.9498  1.7076
 1010MOL0     H36330   9.984   8.954  12.811 -0.1128  1.3131 -1.5066
 1010MOL0     H36331  10.063   9.100  12.880 -0.8129 -0.8117 -0.5354
 1010MOL0     H36332  10.178   9.417  11.969  0.7184  0.3059  0.3089
 1010MOL0     H36333  10.191   9.405  11.705 -0.1627  0.5220 -1.7932
 1010MOL0     H36334  10.029   9.460  11.359  0.4831  1.9735  2.3322
 1010MOL0     H36335  10.004   9.412  11.137 -0.0209  0.1895 -0.8460
 1010MOL0     H36336  11.169   9.599   9.408 -0.9696 -0.3963 -0.1252
 1010MOL0     H36337  11.097   9.564   9.178 -0.0020  0.6509 -1.3092
 1010MOL0     H36338  10.959   9.184   8.850  4.6829 -1.3260  2.7765
 1010MOL0     H36339  10.953   9.139   8.608 -2.6335  1.6620 -1.5327
 1010MOL0     H36340  11.177   9.419   8.338 -3.1749  0.9287  1.3432
 1010MOL0     H36341  11.245   9.263   8.284  0.9358  2.3551 -2.2722
 1010MOL0     H36342  11.084   9.427   8.144  2.5390 -0.6748  0.0325
 1010MOL0     H36343  10.960   9.314   8.220  0.1250  0.1850 -0.7337
 1010MOL0     H36344  11.125   9.122   8.130  3.1008  0.9963  0.5084
 1010MOL0     H36345  11.194   9.240   8.031  0.0037 -3.1171  0.7091
 1010MOL0     H36346  10.939   9.314   7.983  1.9006 -0.0782  1.1301
 1010MOL0     H36347  10.903   9.150   8.035 -2.2378 -1.4171 -4.7624
 1010MOL0     H36348  11.004   9.121   7.625  1.5699  0.5287 -0.4569
 1010MOL0     H36349  11.270   9.414   8.538  0.5356  1.6463  2.5759
 1010MOL0     H36350  11.291   9.451   8.761  1.3561 -1.4737 -0.9541
 1011MOL0     O36351   1.209  10.276  11.354  0.0903  0.5180 -0.2194
 1011MOL0     C36352   1.185  10.158  11.367  0.0947 -0.0199 -0.4588
 1011MOL0     O36353   1.194  10.096  11.481  0.1993  0.4953 -0.6609
 1011MOL0     C36354   1.228  10.159  11.607 -0.6266 -0.1524  0.9716
 1011MOL0     C36355   1.220  10.296  11.635  1.0078  0.4964 -0.0892
 1011MOL0     C36356   1.255  10.333  11.763 -0.3773  0.0219  0.0260
 1011MOL0     C36357   1.301  10.241  11.861 -0.1386  0.2745  0.4707
 1011MOL0     O36358   1.336  10.282  11.990  0.0076 -0.2968  0.3299
 1011MOL0     C36359   1.388  10.423  12.011 -1.6496 -0.5248 -0.7037
 1011MOL0     C36360   1.531  10.396  12.067 -0.8218 -0.0623 -0.0121
 1011MOL0     C36361   1.549  10.395  12.215  0.4475  0.6554 -0.6740
 1011MOL0     C36362   1.529  10.528  12.279 -0.0503  0.3421  0.2699
 1011MOL0     C36363   1.584  10.533  12.420 -0.6549 -0.6046  0.1180
 1011MOL0     C36364   1.742  10.526  12.427  0.0457  0.7346 -0.8598
 1011MOL0     C36365   1.811  10.550  12.570 -0.0025  1.0255 -0.6051
 1011MOL0     C36366   1.946  10.486  12.580 -0.3480 -1.0324 -0.3544
 1011MOL0     N36367   1.985  10.462  12.725  0.4263 -0.0724  1.6115
 1011MOL0     C36368   2.102  10.524  12.770  0.4323  0.5057 -0.6704
 1011MOL0     C36369   2.117  10.476  12.894 -0.4935 -0.2472  0.5645
 1011MOL0     C36370   2.227  10.529  12.989  0.3606 -0.3987  0.0516
 1011MOL0     C36371   2.225  10.473  13.134 -0.4123 -0.6960 -0.2040
 1011MOL0     C36372   2.258  10.320  13.137 -0.3713 -0.1414  0.2718
 1011MOL0     C36373   2.275  10.265  13.273 -0.0126  0.8163 -0.9038
 1011MOL0     O36374   2.162  10.291  13.360 -0.0837  1.2910 -0.7263
 1011MOL0     C36375   2.180  10.288  13.494  0.4260 -0.4861  0.4982
 1011MOL0     C36376   2.196  10.172  13.570 -0.3278 -0.3428 -0.4266
 1011MOL0     C36377   2.198  10.176  13.713  0.6841  0.1873 -0.5868
 1011MOL0     C36378   2.196  10.043  13.781 -0.5159 -0.4687 -0.2274
 1011MOL0     C36379   2.189  10.302  13.783 -0.2991 -0.1260  0.0107
 1011MOL0     C36380   2.161  10.322  13.925  0.4726  1.0897 -0.3311
 1011MOL0     O36381   2.268  10.318  14.007  0.7281  0.1758  0.1139
 1011MOL0     C36382   2.254  10.350  14.137 -0.7805 -0.2290 -0.2387
 1011MOL0     C36383   2.159  10.293  14.230 -1.0405 -0.3164  0.3296
 1011MOL0     C36384   2.153  10.331  14.360 -0.2218  0.4213 -0.0528
 1011MOL0     C36385   2.235  10.431  14.410  0.5618 -0.8071  0.2353
 1011MOL0     O36386   2.250  10.465  14.544  0.4804  0.0837  0.2713
 1011MOL0     C36387   2.152  10.429  14.640  0.4953  0.1790 -0.2693
 1011MOL0     C36388   2.013  10.496  14.605  0.1697 -0.6573 -0.7044
 1011MOL0     C36389   2.024  10.642  14.647  0.8317  0.6225 -0.0493
 1011MOL0     C36390   1.973  10.653  14.795 -0.3866  0.4755 -0.2816
 1011MOL0     C36391   1.993  10.786  14.859  0.5298 -0.1800  0.6001
 1011MOL0     C36392   1.909  10.804  14.985  0.1515 -0.5823 -1.3274
 1011MOL0     C36393   1.935  10.934  15.069  0.7712  0.3489  0.2671
 1011MOL0     C36394   2.020  10.910  15.194  0.2726  0.0336 -0.6877
 1011MOL0    Cl36395   2.046  11.066  15.282  0.0341  0.1583  0.0156
 1011MOL0     C36396   2.309  10.505  14.317 -0.4979  1.2608 -0.7109
 1011MOL0     C36397   2.325  10.463  14.180  0.8227  0.2687  0.0095
 1011MOL0     O36398   2.046  10.357  13.956 -0.7361  0.2086  0.0376
 1011MOL0     C36399   2.190  10.414  13.699 -0.5562  0.1193 -0.3527
 1011MOL0     C36400   2.173  10.403  13.566  0.0471  0.2996  0.6521
 1011MOL0     N36401   2.013  10.392  12.923  0.3877 -0.0177  0.6483
 1011MOL0     N36402   1.936  10.377  12.818 -0.1494 -0.0311 -0.4117
 1011MOL0     C36403   1.308  10.101  11.836  0.4928  0.0714  1.6479
 1011MOL0     C36404   1.273  10.064  11.700 -0.2733 -0.0770 -0.1971
 1011MOL0     C36405   1.143  10.077  11.247 -1.0957 -0.3222  0.8686
 1011MOL0     C36406   1.159   9.943  11.261 -0.0789 -0.2235  0.4141
 1011MOL0     C36407   1.145   9.860  11.149 -0.1396  0.3640  0.1441
 1011MOL0     C36408   1.104   9.906  11.022 -0.1309 -0.0585 -0.3653
 1011MOL0     O36409   1.073   9.816  10.921  0.3607  0.3361 -0.5439
 1011MOL0     C36410   1.049   9.863  10.786  0.5459  0.8313 -0.0886
 1011MOL0     C36411   1.061   9.746  10.682 -0.7250  0.4041  0.0674
 1011MOL0     C36412   1.203   9.694  10.635  0.7036  0.1639  0.0886
 1011MOL0     C36413   1.206   9.574  10.548  0.8936 -0.3659 -0.7262
 1011MOL0     C36414   1.138   9.605  10.415 -0.1396 -0.1016 -0.8708
 1011MOL0     C36415   1.090   9.631  10.309  0.4759  0.3941  0.2670
 1011MOL0     C36416   1.103  10.058  11.004 -0.1848  1.7244 -0.2733
 1011MOL0     C36417   1.125  10.136  11.121  0.0674 -0.1858  0.3843
 1011MOL0     H36418   1.186  10.365  11.559  0.1241 -1.0026 -1.1057
 1011MOL0     H36419   1.248  10.437  11.795  1.9941 -0.4826  2.5131
 1011MOL0     H36420   1.390  10.471  11.913 -1.7484  1.9525  0.4332
 1011MOL0     H36421   1.334  10.487  12.081  1.2643 -0.1291  1.3845
 1011MOL0     H36422   1.570  10.303  12.026 -1.0844 -0.2060  0.0621
 1011MOL0     H36423   1.603  10.471  12.031 -1.2830  1.7663  2.5309
 1011MOL0     H36424   1.479  10.325  12.262  0.4935 -0.9901 -2.8348
 1011MOL0     H36425   1.650  10.351  12.218  1.0338  2.0013  0.0253
 1011MOL0     H36426   1.581  10.599  12.214  0.5640 -1.7257 -1.6108
 1011MOL0     H36427   1.422  10.551  12.275 -0.1053  0.0531  0.0196
 1011MOL0     H36428   1.562  10.632  12.460  2.0813  1.2720 -2.6001
 1011MOL0     H36429   1.533  10.458  12.482  0.0336 -1.7470 -0.6661
 1011MOL0     H36430   1.762  10.422  12.400  0.4128  0.6366 -0.2569
 1011MOL0     H36431   1.785  10.597  12.356 -0.5761  0.2415 -1.7435
 1011MOL0     H36432   1.819  10.657  12.588 -1.7179  1.3753 -1.6499
 1011MOL0     H36433   1.735  10.515  12.641 -0.9816 -0.0437 -2.1031
 1011MOL0     H36434   2.006  10.559  12.525  0.1756 -1.0425  0.1841
 1011MOL0     H36435   1.959  10.389  12.533  0.0202 -0.5237 -1.3185
 1011MOL0     H36436   2.169  10.589  12.714  0.4017  1.0362 -0.1092
 1011MOL0     H36437   2.323  10.501  12.945  0.0766 -2.3732  0.5817
 1011MOL0     H36438   2.214  10.637  12.977  1.7972 -0.4126 -2.2355
 1011MOL0     H36439   2.134  10.497  13.191  0.9490 -2.1217  2.7916
 1011MOL0     H36440   2.311  10.520  13.184  0.4420 -1.4622 -0.9276
 1011MOL0     H36441   2.342  10.300  13.069  3.3524  2.2994  3.6966
 1011MOL0     H36442   2.172  10.268  13.093  1.6289 -1.0867 -2.8201
 1011MOL0     H36443   2.368  10.308  13.312 -0.9907  2.5490 -0.3715
 1011MOL0     H36444   2.282  10.157  13.282 -4.6512  0.2229 -1.8888
 1011MOL0     H36445   2.189  10.076  13.520 -3.9266  1.1413 -3.2746
 1011MOL0     H36446   2.147   9.969  13.717 -2.1003  0.8109 -0.5532
 1011MOL0     H36447   2.300  10.010  13.794  0.3694  2.4662  0.9749
 1011MOL0     H36448   2.144  10.045  13.877 -0.9034 -0.0554 -0.4411
 1011MOL0     H36449   2.103  10.203  14.205  0.8860 -2.2032  2.3199
 1011MOL0     H36450   2.096  10.282  14.438  0.5832 -0.3563  0.0600
 1011MOL0     H36451   2.132  10.321  14.642 -1.5941  0.5322  1.7008
 1011MOL0     H36452   2.183  10.462  14.739  0.8938 -0.0674 -0.3062
 1011MOL0     H36453   1.991  10.497  14.498  0.4725  0.7261 -0.7746
 1011MOL0     H36454   1.929  10.449  14.657 -0.9626  3.4652  1.6948
 1011MOL0     H36455   1.970  10.707  14.577 -0.3092 -0.1973  0.0251
 1011MOL0     H36456   2.130  10.669  14.641  0.7659  1.2904  1.5678
 1011MOL0     H36457   1.868  10.625  14.789 -0.0640 -0.6267 -1.2760
 1011MOL0     H36458   2.018  10.571  14.853 -0.7230  0.0375 -0.6338
 1011MOL0     H36459   1.986  10.863  14.781  0.4239 -2.3118 -1.6099
 1011MOL0     H36460   2.099  10.784  14.887  0.6488  0.4588  0.2118
 1011MOL0     H36461   1.805  10.814  14.952 -0.9088  0.4294  1.9247
 1011MOL0     H36462   1.915  10.719  15.054  0.2316  0.7388  0.3697
 1011MOL0     H36463   1.839  10.959  15.114  0.2944  1.5273 -1.3200
 1011MOL0     H36464   1.987  11.007  15.006 -0.2824  1.7260  0.9475
 1011MOL0     H36465   2.120  10.882  15.159  0.9802  1.6294 -0.0766
 1011MOL0     H36466   1.978  10.825  15.248  0.1117  1.7216  2.0313
 1011MOL0     H36467   2.385  10.578  14.346  2.8140 -0.0040 -5.1390
 1011MOL0     H36468   2.404  10.516  14.127  0.7591  0.3252 -0.0299
 1011MOL0     H36469   2.175  10.514  13.737  3.5094  0.9593 -0.5045
 1011MOL0     H36470   2.187  10.492  13.505  2.4095 -0.9033 -0.6995
 1011MOL0     H36471   1.328  10.026  11.912  1.8662 -1.3470 -0.0450
 1011MOL0     H36472   1.271   9.961  11.663 -1.2285 -0.5424  1.0699
 1011MOL0     H36473   1.186   9.905  11.359  2.7408  0.8227  0.1243
 1011MOL0     H36474   1.160   9.756  11.176 -2.8453  0.5112  2.8654
 1011MOL0     H36475   0.943   9.889  10.780  0.5026  0.3617 -2.2360
 1011MOL0     H36476   1.113   9.947  10.761  2.6322  0.0622  2.2492
 1011MOL0     H36477   1.009   9.779  10.592  0.3282 -2.0860 -1.5761
 1011MOL0     H36478   1.002   9.667  10.731 -1.2829  1.0235  0.4151
 1011MOL0     H36479   1.282   9.699  10.711  0.1124  1.0701  0.6644
 1011MOL0     H36480   1.233   9.777  10.571 -0.9575  1.5951  1.0710
 1011MOL0     H36481   1.151   9.501  10.608 -1.0910  0.7470 -1.1338
 1011MOL0     H36482   1.311   9.546  10.533  0.6102 -1.6090 -0.5246
 1011MOL0     H36483   1.061   9.674  10.215  3.5130  5.7763  1.4199
 1011MOL0     H36484   1.078  10.104  10.908 -2.0957 -1.4364 -1.4576
 1011MOL0     H36485   1.097  10.240  11.121  0.5915  0.1029 -3.5050
 1012MOL0     O36486   6.146  10.681   2.857 -0.5955 -0.4378  0.1061
 1012MOL0     C36487   6.060  10.589   2.864 -0.1289 -0.2801 -0.6322
 1012MOL0     O36488   5.947  10.589   2.945  0.4590 -0.5738  0.1188
 1012MOL0     C36489   5.906  10.704   3.006  0.5138  0.1272  0.0314
 1012MOL0     C36490   5.913  10.830   2.935  0.7168 -0.3794  0.1483
 1012MOL0     C36491   5.844  10.944   2.999 -0.1130 -0.3121  0.0446
 1012MOL0     C36492   5.779  10.935   3.122  0.0984 -0.2320 -0.3747
 1012MOL0     O36493   5.723  11.056   3.155 -0.3143 -0.1635  0.4515
 1012MOL0     C36494   5.607  11.069   3.240 -0.4245 -0.4112  0.0109
 1012MOL0     C36495   5.576  11.217   3.260  0.2828 -0.3521 -0.4023
 1012MOL0     C36496   5.677  11.282   3.359 -0.4655 -1.0077 -0.3201
 1012MOL0     C36497   5.608  11.397   3.446  0.3824 -0.5989 -0.3908
 1012MOL0     C36498   5.713  11.463   3.541  0.0490 -0.0538 -1.0694
 1012MOL0     C36499   5.699  11.401   3.675  0.3669 -0.0007 -0.1895
 1012MOL0     C36500   5.822  11.426   3.762  0.4857  0.5106  0.0203
 1012MOL0     C36501   5.830  11.356   3.885 -0.4205 -0.0445 -0.0797
 1012MOL0     N36502   5.908  11.442   3.984 -0.4135  0.4512  0.9953
 1012MOL0     C36503   6.036  11.418   4.014  0.2112 -0.8182  0.6344
 1012MOL0     C36504   6.060  11.509   4.109 -0.1669 -0.1221  0.1844
 1012MOL0     C36505   6.191  11.556   4.171  0.5743  0.2158  0.3831
 1012MOL0     C36506   6.317  11.566   4.069  0.5969 -0.1819 -0.2226
 1012MOL0     C36507   6.435  11.599   4.162 -0.4663 -0.4086 -0.5551
 1012MOL0     C36508   6.575  11.572   4.101  0.2460  0.0601  0.1377
 1012MOL0     O36509   6.592  11.672   3.991 -1.6170  0.1590  0.4352
 1012MOL0     C36510   6.673  11.786   4.004 -0.7467 -0.2452 -1.2029
 1012MOL0     C36511   6.701  11.855   4.122  0.2061  0.2111 -0.7004
 1012MOL0     C36512   6.788  11.966   4.138 -0.4311 -0.4646  0.8472
 1012MOL0     C36513   6.803  12.035   4.277  0.6389  0.0968  0.0958
 1012MOL0     C36514   6.848  12.002   4.022  0.2358  0.5254 -0.3511
 1012MOL0     C36515   6.945  12.120   4.010  0.1387  0.2362  0.3176
 1012MOL0     O36516   6.920  12.202   3.905  0.1182 -0.8544 -0.0306
 1012MOL0     C36517   7.004  12.305   3.872  1.0536 -0.8076 -0.1836
 1012MOL0     C36518   6.946  12.432   3.863  0.7965  0.4325  0.4906
 1012MOL0     C36519   7.024  12.544   3.826 -0.9358 -0.1640  0.2455
 1012MOL0     C36520   7.158  12.536   3.785 -0.9504  0.8714  0.0412
 1012MOL0     O36521   7.228  12.642   3.737  0.2866 -0.0303 -0.1034
 1012MOL0     C36522   7.154  12.761   3.701  0.3813 -0.4102 -0.2322
 1012MOL0     C36523   7.221  12.855   3.604 -0.3803 -0.0172  0.0292
 1012MOL0     C36524   7.321  12.960   3.655  1.6376 -0.4073  0.1628
 1012MOL0     C36525   7.434  12.914   3.738  0.3634  0.1921 -0.3664
 1012MOL0     C36526   7.493  13.031   3.816 -0.8225  0.4919 -0.5149
 1012MOL0     C36527   7.561  13.137   3.726 -0.1720  0.0052 -0.1743
 1012MOL0     C36528   7.704  13.092   3.691 -0.2179  0.0669 -0.1156
 1012MOL0     C36529   7.785  13.218   3.650  0.5534 -0.2455  0.5731
 1012MOL0    Cl36530   7.799  13.334   3.781 -0.2736  0.1348 -0.0173
 1012MOL0     C36531   7.216  12.408   3.808 -0.7628  0.4656 -0.0370
 1012MOL0     C36532   7.143  12.295   3.858 -0.3969 -0.3166  0.5740
 1012MOL0     O36533   7.041  12.124   4.086  0.1223 -0.5157 -0.6248
 1012MOL0     C36534   6.838  11.931   3.903  0.4880 -0.3672  0.6507
 1012MOL0     C36535   6.748  11.828   3.892 -0.4835  0.2290 -0.4871
 1012MOL0     N36536   5.946  11.563   4.152 -0.1728  0.6832 -0.9360
 1012MOL0     N36537   5.856  11.532   4.062  0.8876 -0.4426 -0.0030
 1012MOL0     C36538   5.768  10.808   3.179  0.2976 -0.7539 -0.2663
 1012MOL0     C36539   5.837  10.693   3.124 -0.7998 -0.0823  0.2961
 1012MOL0     C36540   6.083  10.456   2.808  0.3170 -0.5075  0.9107
 1012MOL0     C36541   6.036  10.342   2.874  0.3599 -0.3692  0.2841
 1012MOL0     C36542   6.063  10.214   2.824 -0.0108 -0.0200 -0.6652
 1012MOL0     C36543   6.115  10.194   2.704  0.4919 -0.6226  0.4151
 1012MOL0     O36544   6.139  10.074   2.639 -0.0014  0.0186 -0.0315
 1012MOL0     C36545   6.053   9.963   2.675 -0.1807  0.0236  0.3003
 1012MOL0     C36546   6.093   9.845   2.577  0.3901 -0.7772  0.2269
 1012MOL0     C36547   6.008   9.723   2.576 -0.2644  0.8533 -0.9237
 1012MOL0     C36548   6.028   9.641   2.707  0.6726  0.9201 -0.4904
 1012MOL0     C36549   6.148   9.557   2.689  0.4046 -0.0037 -0.4411
 1012MOL0     C36550   6.255   9.495   2.664 -0.0393  0.9848 -0.0865
 1012MOL0     C36551   6.177  10.309   2.637  0.1979  0.4561 -0.6273
 1012MOL0     C36552   6.157  10.437   2.695  0.4574 -0.1134  0.1386
 1012MOL0     H36553   5.954  10.837   2.834  0.2072  0.1348 -0.0258
 1012MOL0     H36554   5.843  11.042   2.952 -2.0958  0.4711  1.5702
 1012MOL0     H36555   5.515  11.034   3.192 -0.9408  1.4138 -0.4237
 1012MOL0     H36556   5.623  11.004   3.326  2.5714 -0.9856 -0.8264
 1012MOL0     H36557   5.573  11.269   3.164  0.0709  1.8557  0.7400
 1012MOL0     H36558   5.480  11.231   3.311  0.8641  2.3729  0.1175
 1012MOL0     H36559   5.715  11.198   3.418 -1.6256 -1.8356 -0.7092
 1012MOL0     H36560   5.766  11.318   3.307  0.0858  1.6165  2.2151
 1012MOL0     H36561   5.573  11.480   3.384  0.9909  0.6938  0.9494
 1012MOL0     H36562   5.524  11.359   3.504  0.5665 -2.0340 -1.0096
 1012MOL0     H36563   5.818  11.466   3.511  0.7581  0.1739  1.2361
 1012MOL0     H36564   5.677  11.566   3.547 -4.8589 -1.4832 -1.6857
 1012MOL0     H36565   5.608  11.442   3.721 -0.3742 -1.4957 -0.2447
 1012MOL0     H36566   5.691  11.292   3.663 -1.1928  0.0973 -0.2351
 1012MOL0     H36567   5.908  11.394   3.702  0.6567 -0.3112  0.6891
 1012MOL0     H36568   5.828  11.534   3.781  1.2897  0.6855 -1.1281
 1012MOL0     H36569   5.882  11.260   3.882 -0.3785  0.0005 -1.0574
 1012MOL0     H36570   5.734  11.329   3.931  0.6204 -2.6399  0.8120
 1012MOL0     H36571   6.116  11.362   3.967 -1.8004 -4.6871  1.4012
 1012MOL0     H36572   6.165  11.652   4.217  1.3569  1.2518 -1.2094
 1012MOL0     H36573   6.222  11.487   4.250 -0.3536  1.4317  1.8622
 1012MOL0     H36574   6.298  11.648   3.999  1.6128 -0.5084 -0.8988
 1012MOL0     H36575   6.327  11.471   4.017 -2.7336 -0.3818 -0.7201
 1012MOL0     H36576   6.425  11.526   4.243  4.9271  0.4351  1.2660
 1012MOL0     H36577   6.434  11.701   4.201  2.1940 -0.8638  0.9459
 1012MOL0     H36578   6.568  11.474   4.053 -3.4310  1.4694 -2.6644
 1012MOL0     H36579   6.653  11.578   4.177  1.0195 -0.4126 -0.6036
 1012MOL0     H36580   6.650  11.815   4.209  1.9710  0.9160  0.7245
 1012MOL0     H36581   6.831  12.141   4.275  0.3721  0.1691  0.1277
 1012MOL0     H36582   6.704  12.033   4.323  0.7138 -0.4891  0.2345
 1012MOL0     H36583   6.875  11.979   4.338  1.2438  1.1770  0.3996
 1012MOL0     H36584   6.843  12.439   3.893  0.8585 -0.3227  0.9132
 1012MOL0     H36585   6.973  12.639   3.837 -0.6905  0.0150 -0.1294
 1012MOL0     H36586   7.067  12.724   3.646 -1.9238  1.4305  1.9411
 1012MOL0     H36587   7.121  12.816   3.789  2.7098 -2.0244  1.7711
 1012MOL0     H36588   7.277  12.799   3.529 -2.4174  2.5495 -3.7463
 1012MOL0     H36589   7.147  12.905   3.540  1.4649  3.5167  0.4172
 1012MOL0     H36590   7.260  13.036   3.705 -0.0930 -0.6354 -1.4581
 1012MOL0     H36591   7.367  13.006   3.567  1.3032 -0.5859 -0.1093
 1012MOL0     H36592   7.397  12.838   3.807  0.1408 -0.9148 -1.6639
 1012MOL0     H36593   7.502  12.865   3.667  0.3453 -1.9449  1.0051
 1012MOL0     H36594   7.551  12.993   3.901 -1.2344  2.5208  0.7476
 1012MOL0     H36595   7.406  13.076   3.864 -1.5743 -2.9598  1.7732
 1012MOL0     H36596   7.510  13.173   3.636  1.5644  2.5344 -0.2150
 1012MOL0     H36597   7.555  13.219   3.798 -0.6234  1.4241 -1.7729
 1012MOL0     H36598   7.690  13.024   3.607  0.9883  0.3798 -0.5999
 1012MOL0     H36599   7.748  13.041   3.777 -2.1416 -2.1521 -0.3461
 1012MOL0     H36600   7.736  13.269   3.567  2.3589  2.5763  1.1227
 1012MOL0     H36601   7.884  13.195   3.608  0.5532  1.3390 -0.3818
 1012MOL0     H36602   7.320  12.386   3.791 -0.9932 -2.4908  1.5891
 1012MOL0     H36603   7.197  12.205   3.884  3.3350  1.0224 -1.6575
 1012MOL0     H36604   6.918  11.951   3.832 -1.5073 -0.9301 -1.8574
 1012MOL0     H36605   6.745  11.761   3.807  1.8049 -3.8682  2.3544
 1012MOL0     H36606   5.722  10.790   3.276 -1.2707  2.0796 -0.3552
 1012MOL0     H36607   5.835  10.593   3.167  2.0562 -0.7191 -0.8062
 1012MOL0     H36608   5.975  10.339   2.964  2.1673 -0.6148  1.5645
 1012MOL0     H36609   6.027  10.132   2.886  2.3160  1.1942  2.5673
 1012MOL0     H36610   6.069   9.937   2.780  1.4195 -0.8352 -0.1386
 1012MOL0     H36611   5.948   9.994   2.674 -0.1373  0.2380  1.2575
 1012MOL0     H36612   6.198   9.820   2.593 -0.0243 -1.7425  1.6200
 1012MOL0     H36613   6.085   9.884   2.475 -1.3892 -0.3634  0.4875
 1012MOL0     H36614   6.042   9.666   2.489 -0.8534  0.4051 -0.8633
 1012MOL0     H36615   5.906   9.758   2.560 -1.1500 -1.7151 -1.3858
 1012MOL0     H36616   5.942   9.575   2.723  2.4520 -0.9552  1.8554
 1012MOL0     H36617   6.047   9.703   2.795 -2.3222  4.4282 -1.9912
 1012MOL0     H36618   6.333   9.425   2.641 -0.5219  1.1733 -2.5320
 1012MOL0     H36619   6.245  10.287   2.555  1.1664 -1.7600  0.6865
 1012MOL0     H36620   6.187  10.528   2.644 -4.9300  1.9635  0.0480
 1013MOL0     O36621  11.075   8.137   3.513 -0.5214 -0.0278  0.0172
 1013MOL0     C36622  10.960   8.095   3.515 -0.4969  0.7695 -0.1411
 1013MOL0     O36623  10.853   8.142   3.585 -0.6820 -0.0795 -0.0699
 1013MOL0     C36624  10.842   8.284   3.599 -0.7726 -0.3963  0.5529
 1013MOL0     C36625  10.777   8.338   3.710 -0.3363 -0.2347 -0.2312
 1013MOL0     C36626  10.786   8.475   3.739  0.6101 -0.0833  0.4218
 1013MOL0     C36627  10.844   8.561   3.640  0.2022  0.3610 -0.5902
 1013MOL0     O36628  10.816   8.696   3.662 -1.5857 -0.7601 -0.2038
 1013MOL0     C36629  10.846   8.795   3.562 -0.6190  0.5950 -0.2762
 1013MOL0     C36630  10.969   8.878   3.592 -0.7437 -0.2730  0.0821
 1013MOL0     C36631  10.943   8.947   3.728 -0.5512  0.4231 -0.6586
 1013MOL0     C36632  11.065   9.046   3.755  0.4986  0.1720  1.0230
 1013MOL0     C36633  11.044   9.143   3.878  0.7466 -0.0731  0.2889
 1013MOL0     C36634  10.977   9.274   3.846  0.3597 -0.4315  0.1762
 1013MOL0     C36635  11.069   9.372   3.768 -0.5434  0.2659 -0.1773
 1013MOL0     C36636  11.025   9.513   3.785  0.9820 -0.1435  0.4221
 1013MOL0     N36637  10.927   9.548   3.692 -0.2050  0.3559 -0.0963
 1013MOL0     C36638  10.946   9.581   3.562  0.7084  0.6656  0.0134
 1013MOL0     C36639  10.834   9.644   3.521  0.7098  0.2822 -0.1355
 1013MOL0     C36640  10.791   9.690   3.381  0.0540 -0.2410 -0.4249
 1013MOL0     C36641  10.661   9.770   3.368  0.3936 -0.0952  1.0185
 1013MOL0     C36642  10.653   9.901   3.443  0.1813 -0.2801  0.1794
 1013MOL0     C36643  10.729  10.017   3.388 -0.3335 -0.3895 -0.5079
 1013MOL0     O36644  10.695  10.131   3.469 -0.7222 -0.0955  0.0054
 1013MOL0     C36645  10.800  10.196   3.527  0.4350 -0.3012 -0.0762
 1013MOL0     C36646  10.805  10.227   3.661  0.7310  0.1647 -0.8879
 1013MOL0     C36647  10.908  10.289   3.725  0.0845 -0.6883 -0.2387
 1013MOL0     C36648  10.902  10.286   3.878  0.6159 -0.1084  0.8363
 1013MOL0     C36649  11.023  10.336   3.640 -0.5291  0.5626  0.2304
 1013MOL0     C36650  11.140  10.400   3.688  0.4103  0.7372 -0.2744
 1013MOL0     O36651  11.193  10.350   3.812 -0.1574 -0.0475  0.0422
 1013MOL0     C36652  11.317  10.354   3.864 -0.1570  0.1674 -0.3359
 1013MOL0     C36653  11.434  10.419   3.808  0.2175  0.6496 -0.4468
 1013MOL0     C36654  11.556  10.403   3.872  0.6353  0.7418 -0.1173
 1013MOL0     C36655  11.573  10.348   4.000  0.7031 -0.1297  0.5493
 1013MOL0     O36656  11.706  10.333   4.051  0.0581 -0.0864  0.4802
 1013MOL0     C36657  11.733  10.288   4.180  0.3799 -0.1550 -0.3276
 1013MOL0     C36658  11.744  10.138   4.189  0.5829 -1.0549 -1.6232
 1013MOL0     C36659  11.830  10.091   4.306  0.7902  0.8763  0.6712
 1013MOL0     C36660  11.822   9.927   4.338 -0.4831 -1.0841  0.1470
 1013MOL0     C36661  11.887   9.885   4.468  0.7915  0.1808  1.1690
 1013MOL0     C36662  11.943   9.743   4.451 -1.6895 -0.2574 -0.9975
 1013MOL0     C36663  12.028   9.690   4.574  0.5106 -0.7016 -0.0982
 1013MOL0     C36664  11.952   9.694   4.707  0.1161 -0.3302 -0.0369
 1013MOL0    Cl36665  12.037   9.597   4.829  0.5181  0.2152  0.0829
 1013MOL0     C36666  11.457  10.286   4.057 -0.4834  0.6205  0.0268
 1013MOL0     C36667  11.332  10.297   3.991 -0.0760  0.6426 -0.7074
 1013MOL0     O36668  11.176  10.498   3.624 -0.4499 -0.7956 -0.0506
 1013MOL0     C36669  11.020  10.308   3.502  0.1129  0.4043  0.5089
 1013MOL0     C36670  10.913  10.243   3.448 -0.5029  1.3152  0.4352
 1013MOL0     N36671  10.749   9.649   3.632 -0.2967 -0.3560  0.5237
 1013MOL0     N36672  10.800   9.585   3.732  0.9620  0.1116 -0.0263
 1013MOL0     C36673  10.909   8.509   3.535 -0.7785  0.1480 -1.4506
 1013MOL0     C36674  10.906   8.374   3.506 -0.2076 -0.6319  0.3195
 1013MOL0     C36675  10.941   7.971   3.445  0.1390 -0.1317  0.0180
 1013MOL0     C36676  10.849   7.874   3.500  0.0132 -1.5030  0.7592
 1013MOL0     C36677  10.823   7.762   3.430  0.0861 -0.3163  0.5236
 1013MOL0     C36678  10.896   7.720   3.322  0.7085 -0.2040  0.4107
 1013MOL0     O36679  10.852   7.602   3.264  0.9268  0.4736 -1.2241
 1013MOL0     C36680  10.933   7.486   3.272  0.1552  0.3129  0.5149
 1013MOL0     C36681  10.857   7.361   3.215  0.3591 -0.7019 -0.0902
 1013MOL0     C36682  10.929   7.229   3.261  0.4398 -1.3110  0.0720
 1013MOL0     C36683  10.855   7.122   3.179 -0.2616  0.1898 -0.2105
 1013MOL0     C36684  10.909   6.988   3.190  1.2162 -0.3302  0.1231
 1013MOL0     C36685  10.969   6.881   3.206 -0.7830 -0.5387  0.4993
 1013MOL0     C36686  10.999   7.801   3.275  0.5080 -0.9522  0.0386
 1013MOL0     C36687  11.018   7.931   3.335  0.1064 -0.1809 -0.0559
 1013MOL0     H36688  10.741   8.269   3.785  1.3895  0.0143  0.8674
 1013MOL0     H36689  10.744   8.521   3.828 -2.0053  1.6550 -1.5888
 1013MOL0     H36690  10.865   8.752   3.463 -0.8892  0.7333 -0.3891
 1013MOL0     H36691  10.756   8.855   3.549 -0.1562  1.0084 -1.7649
 1013MOL0     H36692  11.059   8.816   3.600  0.0826  0.5243 -2.0859
 1013MOL0     H36693  10.998   8.960   3.525 -0.9354  1.0964  1.6023
 1013MOL0     H36694  10.846   8.995   3.740 -1.4728 -1.0348 -1.9276
 1013MOL0     H36695  10.961   8.881   3.813 -0.5862  0.2829 -0.7579
 1013MOL0     H36696  11.155   8.984   3.752 -0.3402 -1.0516  0.2720
 1013MOL0     H36697  11.070   9.110   3.667 -1.2894 -0.6752  0.2481
 1013MOL0     H36698  10.996   9.081   3.955  0.4964 -1.4689 -0.9525
 1013MOL0     H36699  11.140   9.177   3.917  1.9094 -1.0119 -1.5937
 1013MOL0     H36700  10.873   9.266   3.813  1.0328  1.2627 -2.7909
 1013MOL0     H36701  10.964   9.310   3.949  0.7216  1.5556 -0.4180
 1013MOL0     H36702  11.171   9.357   3.805 -1.8964 -1.4658  3.2597
 1013MOL0     H36703  11.072   9.340   3.663 -2.3353 -0.0200 -0.1720
 1013MOL0     H36704  11.109   9.582   3.796  0.7965  0.2823 -0.6387
 1013MOL0     H36705  10.974   9.519   3.881  1.0914  2.3638  0.3998
 1013MOL0     H36706  11.037   9.580   3.503  1.7728  1.2595  1.5944
 1013MOL0     H36707  10.870   9.745   3.328 -1.6459  4.2791  1.2173
 1013MOL0     H36708  10.775   9.592   3.335 -1.9146 -0.7211  1.1477
 1013MOL0     H36709  10.577   9.702   3.384  2.0809 -2.1069  1.8398
 1013MOL0     H36710  10.649   9.799   3.263  3.4550 -0.5832  0.4425
 1013MOL0     H36711  10.680   9.881   3.548 -2.3783  0.7651  1.1174
 1013MOL0     H36712  10.548   9.930   3.448  0.3618  0.2068  3.8673
 1013MOL0     H36713  10.692  10.046   3.289  0.8015  0.1612 -0.7859
 1013MOL0     H36714  10.836   9.996   3.394 -0.3679 -0.3152  0.5528
 1013MOL0     H36715  10.729  10.191   3.730 -1.3109  1.7341 -2.2019
 1013MOL0     H36716  10.891  10.388   3.917 -1.1446  0.1735 -0.2887
 1013MOL0     H36717  10.819  10.223   3.911 -0.0013  1.2474  1.9629
 1013MOL0     H36718  10.992  10.238   3.917 -0.1118 -0.9873  1.4709
 1013MOL0     H36719  11.433  10.479   3.717 -3.0360 -0.6959 -1.4465
 1013MOL0     H36720  11.647  10.444   3.829  2.4150 -1.2586  1.4821
 1013MOL0     H36721  11.827  10.330   4.217 -0.3937  0.7913  0.6338
 1013MOL0     H36722  11.663  10.332   4.251 -0.0373 -0.3013 -0.6475
 1013MOL0     H36723  11.641  10.101   4.189 -0.2839  1.1616 -1.6621
 1013MOL0     H36724  11.783  10.105   4.093 -0.7615 -1.1286 -2.1686
 1013MOL0     H36725  11.802  10.148   4.395  1.2004  4.4742 -1.3194
 1013MOL0     H36726  11.933  10.126   4.294  0.9475 -0.0919 -1.0292
 1013MOL0     H36727  11.718   9.894   4.337  0.0515 -3.0595  2.2026
 1013MOL0     H36728  11.881   9.884   4.256 -2.3221  1.1553 -2.5454
 1013MOL0     H36729  11.817   9.882   4.551 -1.6026 -4.1852 -0.6509
 1013MOL0     H36730  11.976   9.945   4.491  1.2670  0.5506 -1.3082
 1013MOL0     H36731  11.868   9.671   4.419 -1.4892 -0.5434 -0.8266
 1013MOL0     H36732  12.014   9.743   4.368  2.2192 -0.1748  2.0441
 1013MOL0     H36733  12.124   9.744   4.571  0.4161 -0.4573  0.7785
 1013MOL0     H36734  12.047   9.584   4.557 -0.1820 -0.5397 -2.1137
 1013MOL0     H36735  11.851   9.653   4.694 -0.3168  0.5936  0.2775
 1013MOL0     H36736  11.929   9.798   4.734 -0.5045 -0.6505  0.6956
 1013MOL0     H36737  11.460  10.247   4.158 -0.0272  0.5492 -0.0089
 1013MOL0     H36738  11.247  10.253   4.042  1.0785  0.9312  1.5707
 1013MOL0     H36739  11.107  10.340   3.445  1.6837  1.4595  3.2909
 1013MOL0     H36740  10.917  10.224   3.341  0.2119  0.3332  0.6319
 1013MOL0     H36741  10.954   8.571   3.458 -1.3592 -0.4714 -2.3136
 1013MOL0     H36742  10.974   8.351   3.424  0.1517 -2.5260  1.0829
 1013MOL0     H36743  10.797   7.892   3.593  2.3693 -0.0835  1.8981
 1013MOL0     H36744  10.737   7.708   3.468  1.8339 -2.3767  1.7879
 1013MOL0     H36745  11.024   7.495   3.212  1.1166 -2.6264  1.3652
 1013MOL0     H36746  10.962   7.461   3.375 -2.6981 -2.7885  0.7118
 1013MOL0     H36747  10.858   7.354   3.106  0.5965 -1.6391 -0.0360
 1013MOL0     H36748  10.754   7.351   3.251  0.5456 -2.1136  0.1011
 1013MOL0     H36749  10.901   7.211   3.365 -1.9815  0.6293 -0.1409
 1013MOL0     H36750  11.038   7.227   3.248  0.4577  0.1843 -0.1136
 1013MOL0     H36751  10.865   7.150   3.073  1.5749  0.5779  0.0304
 1013MOL0     H36752  10.749   7.112   3.205 -0.7695  3.4905 -0.4884
 1013MOL0     H36753  11.018   6.786   3.208 -1.4472 -0.8918  0.2396
 1013MOL0     H36754  11.041   7.779   3.177 -1.3831 -4.5749 -0.1254
 1013MOL0     H36755  11.100   7.995   3.305  1.1616 -0.7554  1.4554
 1014MOL0     O36756   5.901   1.558   8.054  0.3740  0.2785 -0.0638
 1014MOL0     C36757   5.982   1.521   7.966 -0.1984 -0.1717 -0.2779
 1014MOL0     O36758   5.997   1.388   7.913  0.2436 -0.1824 -0.7367
 1014MOL0     C36759   5.898   1.298   7.919 -1.0032 -0.3379  1.7496
 1014MOL0     C36760   5.921   1.164   7.880 -0.1162 -0.9369 -0.4120
 1014MOL0     C36761   5.825   1.065   7.908 -0.4908  0.4319  0.0412
 1014MOL0     C36762   5.700   1.097   7.969  0.1782 -0.2221  0.0420
 1014MOL0     O36763   5.613   0.999   8.009 -0.4567  0.3649  0.5212
 1014MOL0     C36764   5.606   0.980   8.156  0.2700  0.2401  0.4069
 1014MOL0     C36765   5.510   0.864   8.189 -0.8681 -0.7022 -0.1341
 1014MOL0     C36766   5.359   0.892   8.141  0.1278  0.2153  0.1653
 1014MOL0     C36767   5.332   0.812   8.008 -0.0448  1.1510  1.6474
 1014MOL0     C36768   5.216   0.875   7.922  0.4042  0.4763 -0.5299
 1014MOL0     C36769   5.164   0.775   7.814  0.1360  0.7219 -0.4296
 1014MOL0     C36770   5.015   0.770   7.806 -0.2558 -0.5855  0.0673
 1014MOL0     C36771   4.969   0.901   7.741 -0.2290 -0.1012  0.0424
 1014MOL0     N36772   4.826   0.899   7.723  0.4096  0.3314  0.3472
 1014MOL0     C36773   4.750   0.825   7.634  0.0150  0.0534  1.0308
 1014MOL0     C36774   4.620   0.859   7.664 -0.1418  0.3136  0.3318
 1014MOL0     C36775   4.506   0.835   7.577 -0.3041  0.1320 -0.0735
 1014MOL0     C36776   4.503   0.899   7.444  0.9701 -0.6025  0.3181
 1014MOL0     C36777   4.360   0.886   7.389  0.2924 -0.6172  0.0907
 1014MOL0     C36778   4.305   0.748   7.366 -0.9094  0.2651  0.5730
 1014MOL0     O36779   4.361   0.681   7.239 -0.1044  0.4976 -0.0662
 1014MOL0     C36780   4.258   0.636   7.163  0.3832 -0.2678  0.9007
 1014MOL0     C36781   4.199   0.516   7.187 -0.7786  0.5462 -0.2722
 1014MOL0     C36782   4.083   0.461   7.117 -0.1210 -0.5203 -0.4033
 1014MOL0     C36783   4.039   0.332   7.167  0.5428  0.3773  0.2061
 1014MOL0     C36784   4.015   0.539   7.020  0.0739 -0.3152 -0.3585
 1014MOL0     C36785   3.893   0.502   6.944 -0.6617 -0.3411  0.1723
 1014MOL0     O36786   3.847   0.612   6.867  0.3219 -0.0467 -0.1530
 1014MOL0     C36787   3.735   0.622   6.784 -0.1946 -0.6093  0.4925
 1014MOL0     C36788   3.725   0.739   6.710 -0.2726 -0.3950  0.5628
 1014MOL0     C36789   3.616   0.757   6.622  1.1183 -0.5175  0.4492
 1014MOL0     C36790   3.514   0.668   6.608  0.3910 -0.1931  0.0083
 1014MOL0     O36791   3.417   0.709   6.523 -0.4794 -0.6461 -0.7407
 1014MOL0     C36792   3.349   0.612   6.446  0.4010 -0.0821  0.0645
 1014MOL0     C36793   3.226   0.561   6.521  0.3899  0.3791  0.3980
 1014MOL0     C36794   3.141   0.464   6.445 -0.5484  0.2672  0.0584
 1014MOL0     C36795   3.109   0.514   6.300  0.7482 -0.0076 -0.9812
 1014MOL0     C36796   2.974   0.463   6.248 -0.3859  0.9028  0.3742
 1014MOL0     C36797   2.964   0.306   6.230  0.0405 -0.8068  1.0531
 1014MOL0     C36798   3.029   0.276   6.089  0.5405  0.0659  0.1103
 1014MOL0     C36799   2.978   0.134   6.047 -0.0971  0.2069 -0.0026
 1014MOL0    Cl36800   3.030   0.099   5.886 -0.4881 -0.0658  0.3301
 1014MOL0     C36801   3.519   0.551   6.679  0.0970 -0.0606  0.2956
 1014MOL0     C36802   3.630   0.525   6.771 -0.1208  1.1820 -0.2435
 1014MOL0     O36803   3.839   0.393   6.946 -0.8132 -0.0867 -0.7976
 1014MOL0     C36804   4.072   0.674   6.995 -0.9040  0.0626 -0.2479
 1014MOL0     C36805   4.190   0.716   7.073  0.0443 -0.7059  0.2650
 1014MOL0     N36806   4.626   0.951   7.772 -0.1824 -0.1131  0.4728
 1014MOL0     N36807   4.746   0.982   7.801  0.2691 -0.0738 -0.0261
 1014MOL0     C36808   5.666   1.229   7.980 -0.1837  0.4639 -0.3226
 1014MOL0     C36809   5.765   1.329   7.959  0.4242 -0.2414  1.8565
 1014MOL0     C36810   6.071   1.623   7.907  0.7024  0.6389 -0.3268
 1014MOL0     C36811   6.197   1.598   7.852  0.0727  0.6876 -0.1100
 1014MOL0     C36812   6.283   1.694   7.810 -0.1303 -0.2897 -0.1717
 1014MOL0     C36813   6.237   1.828   7.816  0.2316  0.3069  0.5604
 1014MOL0     O36814   6.307   1.939   7.767  0.0475 -0.0223 -0.6610
 1014MOL0     C36815   6.434   1.931   7.698 -0.8343 -0.3084  0.1412
 1014MOL0     C36816   6.502   2.072   7.694 -0.0877  0.7976  0.0648
 1014MOL0     C36817   6.535   2.131   7.831  0.2289  0.9273  0.5951
 1014MOL0     C36818   6.663   2.058   7.865 -0.3139  0.1439 -0.2976
 1014MOL0     C36819   6.713   2.084   8.003  0.6127 -0.5614  0.2555
 1014MOL0     C36820   6.745   2.114   8.121  1.0945 -0.1730  0.2503
 1014MOL0     C36821   6.113   1.857   7.871  0.2292  0.6494  0.9565
 1014MOL0     C36822   6.036   1.757   7.910  0.2090  0.1482 -0.4550
 1014MOL0     H36823   6.019   1.139   7.841  0.0207  0.0484 -0.7441
 1014MOL0     H36824   5.846   0.961   7.887 -0.8187 -0.3610  3.1690
 1014MOL0     H36825   5.708   0.954   8.189  0.1058  1.8932  2.4198
 1014MOL0     H36826   5.573   1.077   8.193 -0.7082  0.4413 -0.9530
 1014MOL0     H36827   5.549   0.768   8.153 -1.5161 -0.7169 -0.8151
 1014MOL0     H36828   5.507   0.863   8.299 -3.1401 -2.0945 -0.1474
 1014MOL0     H36829   5.284   0.864   8.215  1.9482 -2.8750  1.0503
 1014MOL0     H36830   5.345   0.999   8.127  1.1813  0.3085 -0.2874
 1014MOL0     H36831   5.421   0.830   7.947 -0.0681  1.0542  1.5859
 1014MOL0     H36832   5.313   0.707   8.029  0.2918  0.4884 -0.9448
 1014MOL0     H36833   5.139   0.885   7.999  1.8826 -1.9138  1.4187
 1014MOL0     H36834   5.254   0.968   7.879  0.4755  1.1051  0.8348
 1014MOL0     H36835   5.222   0.793   7.723  2.4943  0.3075  0.9115
 1014MOL0     H36836   5.199   0.674   7.837  0.4893  0.0919 -3.3045
 1014MOL0     H36837   4.971   0.686   7.751 -1.2665  0.2106 -0.3829
 1014MOL0     H36838   4.983   0.764   7.910  0.6666  0.2319  0.4080
 1014MOL0     H36839   5.019   0.914   7.645  1.4586  2.1096  1.1312
 1014MOL0     H36840   4.991   0.982   7.811  1.7326 -2.6948  2.7162
 1014MOL0     H36841   4.776   0.789   7.536  2.7014  2.0748  0.8693
 1014MOL0     H36842   4.494   0.728   7.558 -1.3815  0.5322 -1.8240
 1014MOL0     H36843   4.414   0.857   7.632 -0.6090  1.9489 -1.2323
 1014MOL0     H36844   4.580   0.856   7.379  1.4090  0.2579  0.2450
 1014MOL0     H36845   4.523   1.007   7.451 -0.7839 -0.3077  1.2974
 1014MOL0     H36846   4.361   0.934   7.290  1.9202  0.2931  0.5047
 1014MOL0     H36847   4.300   0.934   7.467  1.1363 -0.6507  0.7775
 1014MOL0     H36848   4.196   0.748   7.369 -1.0094 -1.3815 -0.9864
 1014MOL0     H36849   4.331   0.683   7.450  2.2329  1.1227  0.3951
 1014MOL0     H36850   4.252   0.473   7.271 -3.2760 -0.0987  1.0938
 1014MOL0     H36851   4.088   0.245   7.123 -0.1652 -1.0214  2.0393
 1014MOL0     H36852   4.068   0.328   7.272 -1.6620 -0.0599  0.8482
 1014MOL0     H36853   3.930   0.336   7.155  0.6992  1.3679 -1.1251
 1014MOL0     H36854   3.805   0.810   6.725  0.8646 -1.5366  0.0102
 1014MOL0     H36855   3.618   0.853   6.572  0.1291 -1.2036 -1.0119
 1014MOL0     H36856   3.306   0.656   6.356 -0.0803 -2.3121 -0.8606
 1014MOL0     H36857   3.410   0.523   6.425  0.3904  0.0835 -0.6902
 1014MOL0     H36858   3.258   0.507   6.611 -1.1740  1.3833  1.6134
 1014MOL0     H36859   3.163   0.642   6.560  1.7886  1.3466  0.7213
 1014MOL0     H36860   3.050   0.450   6.504 -1.7390  2.4603 -1.1375
 1014MOL0     H36861   3.185   0.364   6.437 -1.0426 -0.0786  1.3349
 1014MOL0     H36862   3.104   0.623   6.291 -0.7328  0.2237  1.5723
 1014MOL0     H36863   3.193   0.471   6.245  0.4638 -1.9332 -0.0297
 1014MOL0     H36864   2.959   0.499   6.146  2.6685  0.1556 -0.4376
 1014MOL0     H36865   2.897   0.512   6.309  1.6649  2.3014  1.9754
 1014MOL0     H36866   3.010   0.250   6.312  1.7060  0.2456  0.9003
 1014MOL0     H36867   2.861   0.269   6.233  0.8513 -3.2025  2.6593
 1014MOL0     H36868   3.138   0.283   6.078  0.5278 -1.1670 -1.0293
 1014MOL0     H36869   2.986   0.347   6.018 -0.0836  1.0409  1.4016
 1014MOL0     H36870   2.869   0.126   6.059 -0.1346  1.0943  0.3324
 1014MOL0     H36871   3.002   0.051   6.114  0.3806 -0.9526 -1.5793
 1014MOL0     H36872   3.447   0.470   6.681  1.7320 -1.6199 -0.1552
 1014MOL0     H36873   3.630   0.425   6.813 -2.9615  1.5391  0.7813
 1014MOL0     H36874   4.020   0.735   6.923 -1.5271  0.7889  0.7876
 1014MOL0     H36875   4.222   0.819   7.060  2.7907 -1.1671  2.5846
 1014MOL0     H36876   5.573   1.251   8.031  0.6604 -0.4192  1.6930
 1014MOL0     H36877   5.730   1.424   7.998  1.6250  0.2157  1.8680
 1014MOL0     H36878   6.224   1.493   7.848 -2.2262  0.0702 -1.7215
 1014MOL0     H36879   6.380   1.688   7.762 -1.0764 -0.1817 -2.2006
 1014MOL0     H36880   6.501   1.860   7.746 -0.9946 -1.0894 -0.7694
 1014MOL0     H36881   6.418   1.892   7.597 -0.1271  0.1802 -0.1631
 1014MOL0     H36882   6.420   2.130   7.651  2.3870  2.4284 -2.8155
 1014MOL0     H36883   6.582   2.074   7.620  0.1089 -1.4227  0.1655
 1014MOL0     H36884   6.471   2.093   7.912  2.1972 -2.1578  0.8475
 1014MOL0     H36885   6.551   2.239   7.827  1.2201  0.7877  0.6193
 1014MOL0     H36886   6.739   2.084   7.791  0.6766 -0.6620  0.3932
 1014MOL0     H36887   6.653   1.949   7.859  0.3684 -0.0792  1.6823
 1014MOL0     H36888   6.797   2.158   8.204  2.0733  0.2182 -0.5584
 1014MOL0     H36889   6.071   1.957   7.875 -1.0189  0.2066 -0.2201
 1014MOL0     H36890   5.933   1.770   7.942  0.1294 -2.7342  0.8317
 1015MOL0     O36891   4.667  11.289   7.956 -0.1612 -0.0961  0.2189
 1015MOL0     C36892   4.566  11.362   7.984  0.3657  0.2776  0.1993
 1015MOL0     O36893   4.575  11.492   8.025 -0.0049 -0.1140  0.5477
 1015MOL0     C36894   4.700  11.542   8.055  1.1222  0.7206 -0.5406
 1015MOL0     C36895   4.771  11.623   7.964  0.9483  0.3855  1.1282
 1015MOL0     C36896   4.910  11.661   7.977 -0.3429 -0.1408 -0.0969
 1015MOL0     C36897   4.960  11.654   8.108  0.6020 -0.6812 -0.2781
 1015MOL0     O36898   5.083  11.709   8.140 -1.2352 -0.1936  0.3080
 1015MOL0     C36899   5.174  11.761   8.044 -0.3733 -0.6397  0.4848
 1015MOL0     C36900   5.302  11.790   8.122  0.2298 -0.3218  0.2746
 1015MOL0     C36901   5.283  11.909   8.226 -0.5117  0.7978  0.2510
 1015MOL0     C36902   5.421  11.950   8.286 -0.8423 -0.6334 -0.7036
 1015MOL0     C36903   5.416  12.067   8.384 -0.1532  0.4810  0.4299
 1015MOL0     C36904   5.561  12.099   8.438  0.2338  0.9703  0.0319
 1015MOL0     C36905   5.610  11.988   8.528 -0.3812  0.1421 -0.1030
 1015MOL0     C36906   5.745  12.032   8.584  0.2092  0.7043  0.7513
 1015MOL0     N36907   5.855  12.039   8.492  0.7587  0.4532  0.0681
 1015MOL0     C36908   5.958  11.951   8.515  0.1016  1.0342 -0.0512
 1015MOL0     C36909   6.055  12.015   8.449 -0.2228  0.4136  0.1830
 1015MOL0     C36910   6.198  11.992   8.446 -0.0344  0.3729 -0.2565
 1015MOL0     C36911   6.240  11.874   8.377 -0.2100  0.7298 -0.0717
 1015MOL0     C36912   6.247  11.887   8.229  0.2246  0.0442  0.4953
 1015MOL0     C36913   6.276  11.758   8.168 -0.0562  0.0116 -0.5106
 1015MOL0     O36914   6.349  11.780   8.046  0.1506 -0.6730 -0.4426
 1015MOL0     C36915   6.282  11.785   7.928  0.1135  0.8487  0.0148
 1015MOL0     C36916   6.313  11.679   7.845  0.1661 -0.4405  0.7209
 1015MOL0     C36917   6.255  11.663   7.719 -0.1586  0.9411 -0.2584
 1015MOL0     C36918   6.297  11.561   7.626  0.8542  0.4710  0.2312
 1015MOL0     C36919   6.161  11.756   7.681  0.2892 -0.3499 -1.0473
 1015MOL0     C36920   6.087  11.760   7.556  1.3247 -0.1326 -0.8005
 1015MOL0     O36921   5.954  11.775   7.569 -0.3815  0.9458 -0.1424
 1015MOL0     C36922   5.873  11.824   7.467  0.8302 -0.4025  0.1739
 1015MOL0     C36923   5.741  11.776   7.483  0.1075 -0.8751  0.8557
 1015MOL0     C36924   5.637  11.811   7.393  0.0621 -0.2533 -0.1069
 1015MOL0     C36925   5.670  11.899   7.286  0.3136 -0.2217  0.3144
 1015MOL0     O36926   5.582  11.925   7.178 -0.5197  0.4005  0.3432
 1015MOL0     C36927   5.459  11.855   7.170  0.5480  0.2797 -0.1602
 1015MOL0     C36928   5.405  11.860   7.034  0.7253 -1.1802 -0.1043
 1015MOL0     C36929   5.289  11.764   7.011  0.6032  0.4597  0.1766
 1015MOL0     C36930   5.235  11.788   6.872  0.0820  0.1571 -0.8247
 1015MOL0     C36931   5.110  11.709   6.856 -0.6257  0.3370 -0.1689
 1015MOL0     C36932   5.061  11.711   6.715  1.2779 -0.4023 -0.1484
 1015MOL0     C36933   4.949  11.607   6.721  0.5789 -0.5097 -0.3665
 1015MOL0     C36934   4.861  11.605   6.599 -0.1254 -0.1849 -0.8790
 1015MOL0    Cl36935   4.762  11.460   6.602  0.0444  0.1466  0.4567
 1015MOL0     C36936   5.798  11.964   7.283 -1.5358  0.4370  0.9209
 1015MOL0     C36937   5.902  11.927   7.370  0.2669  0.9843  0.1829
 1015MOL0     O36938   6.145  11.739   7.452  0.3200  0.8975  0.0795
 1015MOL0     C36939   6.125  11.863   7.765 -0.0570 -0.6094 -0.6026
 1015MOL0     C36940   6.181  11.878   7.891 -0.9511 -0.1107 -0.5639
 1015MOL0     N36941   6.006  12.129   8.384  0.6719  0.1169  0.1392
 1015MOL0     N36942   5.883  12.147   8.414  0.4711  0.1568  0.2109
 1015MOL0     C36943   4.883  11.592   8.205  0.4555  0.7755  0.5520
 1015MOL0     C36944   4.758  11.533   8.183 -0.8777 -0.5774  0.1131
 1015MOL0     C36945   4.436  11.296   7.955 -0.3029 -0.0408  0.3743
 1015MOL0     C36946   4.433  11.168   7.891 -0.3004 -0.7535 -0.3144
 1015MOL0     C36947   4.310  11.120   7.845 -0.3213 -0.3158 -0.7030
 1015MOL0     C36948   4.187  11.184   7.877 -0.6467  0.0778 -1.2920
 1015MOL0     O36949   4.073  11.136   7.820  0.1333  0.1524  0.3594
 1015MOL0     C36950   4.055  11.050   7.709 -0.8508  0.4959  0.3366
 1015MOL0     C36951   3.921  11.058   7.639  0.2448  0.3703  1.3079
 1015MOL0     C36952   3.884  11.189   7.576  0.5449  0.0282  0.9848
 1015MOL0     C36953   3.734  11.198   7.541 -0.1855 -0.9990  0.5440
 1015MOL0     C36954   3.705  11.085   7.449  0.0613  0.3976  0.2985
 1015MOL0     C36955   3.687  11.005   7.360 -0.0985 -0.2276 -0.9663
 1015MOL0     C36956   4.187  11.294   7.964  0.4248  1.0767 -0.0793
 1015MOL0     C36957   4.311  11.353   8.001 -0.5782  0.7551 -0.4340
 1015MOL0     H36958   4.717  11.633   7.870  1.9856  0.4915  0.5210
 1015MOL0     H36959   4.957  11.693   7.885 -1.0013  2.1392  0.2999
 1015MOL0     H36960   5.184  11.678   7.974  0.3039 -1.7280  1.8173
 1015MOL0     H36961   5.137  11.852   7.996 -2.8128 -2.2092 -0.7905
 1015MOL0     H36962   5.331  11.695   8.168 -0.0092  1.6679  5.1952
 1015MOL0     H36963   5.380  11.817   8.050  1.3567 -0.4314  1.4213
 1015MOL0     H36964   5.236  11.989   8.168 -1.8805 -0.3064 -0.1994
 1015MOL0     H36965   5.212  11.873   8.301 -1.5782 -2.7511 -2.2447
 1015MOL0     H36966   5.465  11.864   8.337  0.6841  0.8823  0.6687
 1015MOL0     H36967   5.488  11.980   8.205  1.7273 -3.3149  0.2455
 1015MOL0     H36968   5.373  12.160   8.345  1.1897  0.1483 -2.0353
 1015MOL0     H36969   5.352  12.030   8.465  0.1015 -1.7410 -0.3111
 1015MOL0     H36970   5.626  12.112   8.351  1.3747 -1.0794  0.5206
 1015MOL0     H36971   5.559  12.195   8.491  0.5245  2.6558 -2.7970
 1015MOL0     H36972   5.540  11.971   8.610  2.3893 -1.9721  2.0586
 1015MOL0     H36973   5.625  11.890   8.482  0.7882 -0.1340  0.7965
 1015MOL0     H36974   5.781  11.964   8.662  3.3540 -1.7311 -2.5109
 1015MOL0     H36975   5.721  12.135   8.614 -3.2544  0.3819 -0.5038
 1015MOL0     H36976   5.976  11.876   8.591  2.2271 -0.2077 -1.6434
 1015MOL0     H36977   6.252  12.080   8.411 -0.5457  0.0204 -2.0351
 1015MOL0     H36978   6.220  11.988   8.553  2.9731  0.5466 -0.7586
 1015MOL0     H36979   6.163  11.806   8.413 -1.3291  3.4013  2.9921
 1015MOL0     H36980   6.334  11.827   8.407  1.7476  1.6443 -4.0050
 1015MOL0     H36981   6.322  11.966   8.211  2.2063 -1.5165  1.4597
 1015MOL0     H36982   6.159  11.941   8.193  1.2685  2.2566  1.0891
 1015MOL0     H36983   6.188  11.699   8.140 -1.0342  1.5654 -0.8281
 1015MOL0     H36984   6.342  11.696   8.230 -0.9465  1.1495  1.6742
 1015MOL0     H36985   6.390  11.613   7.883  0.6522  0.6298  1.6706
 1015MOL0     H36986   6.375  11.495   7.665  0.8115  1.1601  1.5648
 1015MOL0     H36987   6.201  11.512   7.610 -0.2387  2.0861  1.4627
 1015MOL0     H36988   6.334  11.599   7.531  3.0222  0.0981  0.8640
 1015MOL0     H36989   5.733  11.703   7.563 -0.7900  0.6847  2.2725
 1015MOL0     H36990   5.536  11.772   7.405 -1.7023  2.7922 -3.0873
 1015MOL0     H36991   5.465  11.748   7.190 -1.4842 -0.6581 -3.6734
 1015MOL0     H36992   5.384  11.894   7.240  1.9512  2.0512  0.4508
 1015MOL0     H36993   5.369  11.964   7.031 -1.9651 -2.0500 -1.2470
 1015MOL0     H36994   5.479  11.852   6.954  0.9448  2.2401 -0.3873
 1015MOL0     H36995   5.211  11.785   7.085 -0.1834 -1.8172  0.0709
 1015MOL0     H36996   5.334  11.665   7.025 -1.7631 -1.0062 -1.8404
 1015MOL0     H36997   5.214  11.895   6.862 -1.3826  0.0060  0.2871
 1015MOL0     H36998   5.299  11.749   6.793 -1.5426 -1.2515 -1.4878
 1015MOL0     H36999   5.036  11.729   6.934 -0.5564  0.7890 -0.2116
 1015MOL0     H37000   5.137  11.606   6.877 -3.0797 -0.3359 -0.0250
 1015MOL0     H37001   5.015  11.802   6.675 -0.4488 -0.7982  0.8281
 1015MOL0     H37002   5.137  11.686   6.642  1.9617 -1.9008  1.0291
 1015MOL0     H37003   4.887  11.619   6.810  1.1031 -1.7611  0.2054
 1015MOL0     H37004   4.995  11.507   6.720 -0.2831 -0.9807 -3.4028
 1015MOL0     H37005   4.914  11.613   6.503 -0.3813  2.2169 -0.8791
 1015MOL0     H37006   4.792  11.689   6.613  0.2667  0.4401 -2.4498
 1015MOL0     H37007   5.813  12.051   7.219  0.8767  0.8341  1.8943
 1015MOL0     H37008   5.999  11.967   7.345  0.7087  0.7414  1.4365
 1015MOL0     H37009   6.049  11.935   7.737  0.4766  0.3323  0.3023
 1015MOL0     H37010   6.159  11.969   7.947 -1.8488 -1.0312  0.6263
 1015MOL0     H37011   4.917  11.583   8.307 -0.0327  1.6066  0.7924
 1015MOL0     H37012   4.703  11.476   8.258 -0.9268  0.1416  0.6337
 1015MOL0     H37013   4.528  11.119   7.872 -0.3475 -0.4340 -1.4767
 1015MOL0     H37014   4.297  11.023   7.798  1.0794 -0.8670 -0.0094
 1015MOL0     H37015   4.137  11.053   7.636 -0.3025 -1.7930  0.7818
 1015MOL0     H37016   4.052  10.955   7.764  0.0925 -0.4029 -1.0707
 1015MOL0     H37017   3.847  11.009   7.703  0.3982 -0.9494  0.5240
 1015MOL0     H37018   3.926  10.990   7.553  1.2758  1.1458  0.7296
 1015MOL0     H37019   3.942  11.202   7.484  2.1080 -0.4585  1.8635
 1015MOL0     H37020   3.904  11.272   7.643  1.5790 -0.1825  0.9569
 1015MOL0     H37021   3.709  11.294   7.497  0.2112  0.1674  2.7289
 1015MOL0     H37022   3.677  11.193   7.634 -2.8771 -1.1832 -1.0040
 1015MOL0     H37023   3.644  10.930   7.298 -0.6718 -0.8777  0.1788
 1015MOL0     H37024   4.094  11.342   7.994  0.0767  0.0073  0.5900
 1015MOL0     H37025   4.315  11.446   8.056 -0.3193  1.1755 -1.1457
 1016MOL0     O37026   1.362   1.229   6.392  0.3977  0.5294  0.9950
 1016MOL0     C37027   1.467   1.278   6.444  0.4702 -0.1208 -0.4550
 1016MOL0     O37028   1.603   1.257   6.404 -0.3938  0.1584 -0.1130
 1016MOL0     C37029   1.618   1.196   6.288  0.5159 -0.3211  0.5094
 1016MOL0     C37030   1.670   1.066   6.281 -0.6532 -0.4218  0.3065
 1016MOL0     C37031   1.709   1.013   6.155 -0.7235 -0.6059  0.6350
 1016MOL0     C37032   1.698   1.099   6.031 -0.0160  0.1158  0.5290
 1016MOL0     O37033   1.758   1.071   5.903 -0.0609  0.9527 -0.9779
 1016MOL0     C37034   1.733   0.933   5.865 -0.1722 -0.0678 -0.4483
 1016MOL0     C37035   1.741   0.944   5.717 -0.0763 -0.0909  0.2975
 1016MOL0     C37036   1.663   0.840   5.633  0.5909  0.1444 -0.3325
 1016MOL0     C37037   1.690   0.697   5.664 -0.5016  0.0678 -0.8754
 1016MOL0     C37038   1.634   0.605   5.547  0.4918 -0.3050 -0.9675
 1016MOL0     C37039   1.645   0.452   5.558 -1.2512  0.3992  0.5394
 1016MOL0     C37040   1.794   0.422   5.521  0.6700 -1.1713 -0.4571
 1016MOL0     C37041   1.819   0.275   5.527 -0.7042 -0.2687 -0.7228
 1016MOL0     N37042   1.801   0.207   5.395  0.8141 -0.4589  0.7098
 1016MOL0     C37043   1.689   0.181   5.322 -0.2747  0.8688 -0.0327
 1016MOL0     C37044   1.721   0.101   5.221  0.8181 -0.5841  0.0619
 1016MOL0     C37045   1.616   0.040   5.117  0.0298 -0.2986  0.3143
 1016MOL0     C37046   1.561   0.153   5.030  0.3481  0.1126 -0.6780
 1016MOL0     C37047   1.528   0.104   4.894 -0.0604  0.4805  0.1637
 1016MOL0     C37048   1.411   0.189   4.840 -0.4828 -0.5590 -0.7281
 1016MOL0     O37049   1.408   0.196   4.704 -1.0285  0.1737  0.8729
 1016MOL0     C37050   1.502   0.284   4.636 -0.2152 -0.2535  0.8181
 1016MOL0     C37051   1.596   0.384   4.674  0.7461  0.1231 -0.4959
 1016MOL0     C37052   1.688   0.461   4.591  0.3576  1.0298 -0.8205
 1016MOL0     C37053   1.756   0.580   4.661  0.2149 -0.5989 -0.2783
 1016MOL0     C37054   1.677   0.427   4.456 -0.2203  0.0205  0.8224
 1016MOL0     C37055   1.781   0.479   4.360 -0.2888  0.8735 -0.4660
 1016MOL0     O37056   1.903   0.508   4.412  0.1679  0.0710  0.5204
 1016MOL0     C37057   1.987   0.596   4.341 -0.0633  0.4337  0.0597
 1016MOL0     C37058   1.968   0.731   4.345 -0.4916 -0.8539 -0.0748
 1016MOL0     C37059   2.057   0.816   4.282 -0.4197 -0.6253  0.1869
 1016MOL0     C37060   2.168   0.758   4.224 -0.0507 -1.0238  0.4992
 1016MOL0     O37061   2.258   0.849   4.176  0.1241  0.2788  0.9501
 1016MOL0     C37062   2.316   0.808   4.050  0.3369  0.2904  1.1746
 1016MOL0     C37063   2.309   0.915   3.952 -0.4914  0.4436 -0.2548
 1016MOL0     C37064   2.378   1.051   3.987  0.0349  0.4108  0.8632
 1016MOL0     C37065   2.536   1.051   3.998 -0.7980  0.5611  0.1676
 1016MOL0     C37066   2.589   1.180   4.058 -0.2451  0.4712  1.1894
 1016MOL0     C37067   2.552   1.308   3.982  0.0201  0.1531 -0.6147
 1016MOL0     C37068   2.592   1.294   3.830  0.4626 -1.3518 -0.1001
 1016MOL0     C37069   2.607   1.433   3.785  0.0881  0.5389  0.6918
 1016MOL0    Cl37070   2.605   1.450   3.598  0.0921  0.3139 -0.6406
 1016MOL0     C37071   2.192   0.622   4.226 -0.7280 -0.1839 -0.2771
 1016MOL0     C37072   2.096   0.538   4.288  0.5919 -0.6915  0.2659
 1016MOL0     O37073   1.757   0.488   4.240 -0.0053 -0.0211  0.3555
 1016MOL0     C37074   1.591   0.320   4.411  0.7392  0.1380 -0.1393
 1016MOL0     C37075   1.514   0.245   4.498 -0.6346  0.6652  0.2089
 1016MOL0     N37076   1.861   0.079   5.227 -0.3767  0.0555  0.3279
 1016MOL0     N37077   1.903   0.155   5.321  0.4111 -0.2229  0.6619
 1016MOL0     C37078   1.627   1.221   6.043  0.8875  0.0582 -1.2228
 1016MOL0     C37079   1.590   1.271   6.175  0.7648 -0.4904  0.2059
 1016MOL0     C37080   1.443   1.359   6.562  0.2430 -0.5040 -0.6268
 1016MOL0     C37081   1.324   1.360   6.644  0.1450 -1.0049 -0.4173
 1016MOL0     C37082   1.299   1.452   6.753 -0.0297 -0.1657 -0.6476
 1016MOL0     C37083   1.389   1.554   6.779 -0.5020 -0.7732 -0.3032
 1016MOL0     O37084   1.368   1.638   6.884 -0.2845  0.7067 -0.2256
 1016MOL0     C37085   1.467   1.634   6.985  0.3935 -0.8088  0.0524
 1016MOL0     C37086   1.403   1.659   7.117 -0.4424  0.9061 -0.5422
 1016MOL0     C37087   1.353   1.807   7.118 -0.3073 -0.7444 -0.6846
 1016MOL0     C37088   1.249   1.831   7.232  0.1103 -0.6955  0.1266
 1016MOL0     C37089   1.306   1.811   7.367 -0.6562  0.4052  0.4010
 1016MOL0     C37090   1.347   1.807   7.483  0.5590  0.0684  0.5690
 1016MOL0     C37091   1.513   1.555   6.707  0.3919  0.0695  1.2423
 1016MOL0     C37092   1.538   1.464   6.598  0.1333  0.5278  0.3817
 1016MOL0     H37093   1.689   1.013   6.374  0.4084  1.0312  0.9657
 1016MOL0     H37094   1.765   0.921   6.137 -1.3240 -1.1561  1.4835
 1016MOL0     H37095   1.803   0.856   5.899  1.6038  0.6529 -2.2892
 1016MOL0     H37096   1.635   0.896   5.899  1.0149 -1.5954  1.5558
 1016MOL0     H37097   1.715   1.045   5.686  0.2138  0.1229  0.7446
 1016MOL0     H37098   1.845   0.936   5.685  0.2880  1.0976  1.1381
 1016MOL0     H37099   1.557   0.850   5.660  0.2036  0.2481 -1.8034
 1016MOL0     H37100   1.671   0.857   5.525 -0.5442 -1.2363 -0.6541
 1016MOL0     H37101   1.798   0.685   5.675 -0.5536 -0.7376 -1.1540
 1016MOL0     H37102   1.649   0.667   5.760  1.5530 -0.8496 -0.2232
 1016MOL0     H37103   1.528   0.633   5.548  0.6455  0.4990  2.2467
 1016MOL0     H37104   1.678   0.630   5.450 -2.6910  1.3865 -2.1513
 1016MOL0     H37105   1.626   0.419   5.661  2.7843 -1.6693  0.8167
 1016MOL0     H37106   1.577   0.393   5.495 -0.3159 -0.0752 -0.0443
 1016MOL0     H37107   1.827   0.458   5.423  2.6047  1.4286  1.0386
 1016MOL0     H37108   1.850   0.467   5.603  0.3443  0.9864 -1.3566
 1016MOL0     H37109   1.753   0.238   5.607  0.8816  0.8089  1.1864
 1016MOL0     H37110   1.923   0.261   5.556 -0.8168  1.2192  0.6008
 1016MOL0     H37111   1.589   0.211   5.351 -1.4450 -1.8962 -0.8907
 1016MOL0     H37112   1.665  -0.017   5.037 -1.0372 -0.2132 -0.4257
 1016MOL0     H37113   1.536  -0.013   5.169  1.0820  2.6812  5.6619
 1016MOL0     H37114   1.640   0.228   5.022  1.7205 -1.4339 -2.3537
 1016MOL0     H37115   1.472   0.192   5.081 -0.4603 -1.4110 -0.8816
 1016MOL0     H37116   1.519  -0.005   4.890  1.1161  0.2556  1.9966
 1016MOL0     H37117   1.611   0.131   4.829  3.0664  2.6473  4.5347
 1016MOL0     H37118   1.414   0.290   4.882  2.1306 -0.2041 -1.5785
 1016MOL0     H37119   1.316   0.146   4.872 -1.5930  0.0897 -2.9620
 1016MOL0     H37120   1.586   0.417   4.777  4.4201  0.4973 -0.1377
 1016MOL0     H37121   1.779   0.656   4.586 -1.1540 -0.2609 -0.3861
 1016MOL0     H37122   1.707   0.623   4.748  1.7923 -1.4597  1.0888
 1016MOL0     H37123   1.858   0.556   4.691 -0.0247 -2.3808 -0.7560
 1016MOL0     H37124   1.869   0.765   4.374 -0.7043 -1.2765 -0.3078
 1016MOL0     H37125   2.042   0.923   4.284  0.5047 -0.4886  1.1665
 1016MOL0     H37126   2.423   0.797   4.068  1.4174  3.0667 -2.2044
 1016MOL0     H37127   2.284   0.710   4.013 -1.4739  1.1340  0.3727
 1016MOL0     H37128   2.357   0.873   3.863  1.0052  1.3294  0.1091
 1016MOL0     H37129   2.203   0.928   3.925 -0.9040 -3.9996 -1.5040
 1016MOL0     H37130   2.333   1.091   4.079 -4.8457  3.1647 -2.2708
 1016MOL0     H37131   2.341   1.100   3.897  0.7606 -3.0941 -1.5665
 1016MOL0     H37132   2.562   0.960   4.053 -1.0356 -0.9067 -2.0023
 1016MOL0     H37133   2.573   1.040   3.895  2.0092  1.7893  0.9614
 1016MOL0     H37134   2.697   1.164   4.065 -0.3036 -0.7808 -0.3075
 1016MOL0     H37135   2.553   1.182   4.161  1.7167 -1.4086  2.0063
 1016MOL0     H37136   2.450   1.344   3.994 -0.0207  1.2606 -3.4334
 1016MOL0     H37137   2.614   1.392   4.016 -2.4663  2.4124 -1.3015
 1016MOL0     H37138   2.521   1.235   3.771  1.0315 -2.5878  0.4206
 1016MOL0     H37139   2.690   1.247   3.814  0.9019 -0.6189  0.3843
 1016MOL0     H37140   2.705   1.464   3.822 -0.3135  0.3979  1.9225
 1016MOL0     H37141   2.530   1.504   3.816  0.2206  0.5581  0.9744
 1016MOL0     H37142   2.287   0.578   4.195 -0.8286  0.0127 -0.8706
 1016MOL0     H37143   2.111   0.431   4.282 -0.9235 -0.9817  1.2928
 1016MOL0     H37144   1.598   0.284   4.309  1.2302 -1.8568  0.5622
 1016MOL0     H37145   1.458   0.161   4.459 -1.7008  2.6503 -2.9103
 1016MOL0     H37146   1.620   1.289   5.959  0.9402  3.8230  1.5732
 1016MOL0     H37147   1.550   1.371   6.170  1.9338  0.1260  2.0064
 1016MOL0     H37148   1.244   1.292   6.615 -1.1905  1.6753 -3.6699
 1016MOL0     H37149   1.210   1.444   6.814 -0.6092 -0.4413 -1.5173
 1016MOL0     H37150   1.515   1.536   6.993 -1.2101 -1.6130  0.1652
 1016MOL0     H37151   1.534   1.715   6.957 -0.9693  0.8353  1.3498
 1016MOL0     H37152   1.477   1.636   7.194 -2.2189 -1.6083  0.5521
 1016MOL0     H37153   1.313   1.596   7.119 -0.0682  0.0314 -4.3791
 1016MOL0     H37154   1.304   1.837   7.025 -0.0096  2.4660  0.0922
 1016MOL0     H37155   1.427   1.886   7.135 -3.5489  2.8939 -1.9737
 1016MOL0     H37156   1.163   1.769   7.208  1.6505 -1.3290 -5.0108
 1016MOL0     H37157   1.215   1.935   7.223 -1.1808 -1.1209  0.0089
 1016MOL0     H37158   1.380   1.807   7.585  0.8452  0.5349  0.4827
 1016MOL0     H37159   1.584   1.634   6.729 -1.1123  1.4437  1.3108
 1016MOL0     H37160   1.631   1.464   6.544 -1.1219 -1.1193 -1.9537
 1017MOL0     O37161   5.386   5.957  10.016  0.1922 -0.1278 -0.3430
 1017MOL0     C37162   5.395   5.901  10.126  0.2036 -0.0489 -0.1883
 1017MOL0     O37163   5.295   5.902  10.224 -0.0222  0.0478 -0.4752
 1017MOL0     C37164   5.187   5.986  10.223 -0.1061 -0.5577  0.6424
 1017MOL0     C37165   5.174   6.110  10.155 -0.3413 -0.2818 -0.2534
 1017MOL0     C37166   5.047   6.171  10.161  0.0841  0.0757  0.5267
 1017MOL0     C37167   4.944   6.117  10.225  1.2803 -0.2039  0.6196
 1017MOL0     O37168   4.820   6.186  10.216 -0.2593 -0.3385 -0.3417
 1017MOL0     C37169   4.728   6.181  10.330 -0.2789 -1.1127 -0.2653
 1017MOL0     C37170   4.759   6.279  10.444  0.1771 -0.7479 -1.0473
 1017MOL0     C37171   4.809   6.418  10.401  0.5609 -0.3303 -0.6341
 1017MOL0     C37172   4.701   6.508  10.351  0.1628 -0.7970  1.3676
 1017MOL0     C37173   4.741   6.549  10.204  0.2082 -0.0036  0.0104
 1017MOL0     C37174   4.613   6.604  10.131 -1.3285  0.3294 -0.8304
 1017MOL0     C37175   4.649   6.655   9.991 -0.0168  0.2745  0.5348
 1017MOL0     C37176   4.523   6.698   9.929 -0.0271 -0.0122  0.1549
 1017MOL0     N37177   4.559   6.735   9.789 -0.5300  0.5035  1.2580
 1017MOL0     C37178   4.594   6.648   9.687  0.9706  0.4686 -0.3131
 1017MOL0     C37179   4.592   6.725   9.567  0.2367 -0.0706 -0.2271
 1017MOL0     C37180   4.619   6.656   9.439  0.1494  0.5435  0.3424
 1017MOL0     C37181   4.745   6.691   9.378 -0.7031 -0.3879 -0.0668
 1017MOL0     C37182   4.790   6.605   9.253 -1.0630  0.3378 -0.5844
 1017MOL0     C37183   4.844   6.463   9.284  0.4038 -0.2590  0.2992
 1017MOL0     O37184   4.719   6.380   9.284 -0.9402 -0.6045  0.4110
 1017MOL0     C37185   4.686   6.331   9.159  0.5441  0.5378  0.3377
 1017MOL0     C37186   4.611   6.208   9.168  0.6696  1.0000 -0.8169
 1017MOL0     C37187   4.540   6.148   9.055  0.5380  1.0654  0.2675
 1017MOL0     C37188   4.470   6.019   9.094  0.2899  0.2955  0.9825
 1017MOL0     C37189   4.568   6.197   8.922 -0.5576 -0.4997  0.9172
 1017MOL0     C37190   4.527   6.143   8.792  0.5295  0.4598 -0.5507
 1017MOL0     O37191   4.599   6.174   8.685  0.2883  0.3655  0.5589
 1017MOL0     C37192   4.550   6.174   8.556 -0.3458 -1.2662  0.3664
 1017MOL0     C37193   4.417   6.157   8.510  0.6040  0.3103  0.5450
 1017MOL0     C37194   4.390   6.169   8.373  0.5227 -0.5210 -0.1033
 1017MOL0     C37195   4.482   6.201   8.279 -0.0122 -0.7993 -0.5809
 1017MOL0     O37196   4.450   6.243   8.152  0.0565  0.3437  0.2038
 1017MOL0     C37197   4.325   6.313   8.125  0.9293  0.4547 -0.7343
 1017MOL0     C37198   4.322   6.448   8.200  0.0671 -0.9036  0.2114
 1017MOL0     C37199   4.194   6.534   8.169 -0.3784 -0.3956 -0.1522
 1017MOL0     C37200   4.166   6.642   8.273  0.8055 -0.0335  0.0924
 1017MOL0     C37201   4.271   6.757   8.265 -0.7314  0.7308  0.0878
 1017MOL0     C37202   4.242   6.887   8.348 -0.2183 -0.4421  0.0010
 1017MOL0     C37203   4.138   6.983   8.285  0.1597 -0.2162  0.5947
 1017MOL0     C37204   4.113   7.092   8.395  0.3919  0.0708  0.3544
 1017MOL0    Cl37205   3.937   7.111   8.389  0.0623  0.0655 -0.6000
 1017MOL0     C37206   4.611   6.215   8.319 -0.6774  0.1624 -0.1313
 1017MOL0     C37207   4.641   6.205   8.459  0.2358 -0.2551 -0.0765
 1017MOL0     O37208   4.413   6.085   8.787  0.0845 -0.5211 -0.5237
 1017MOL0     C37209   4.653   6.307   8.913  0.3944 -0.1060 -0.1066
 1017MOL0     C37210   4.715   6.363   9.030  0.6778  0.0697  0.9884
 1017MOL0     N37211   4.559   6.848   9.606  0.7105 -0.1718  0.8193
 1017MOL0     N37212   4.532   6.860   9.736  0.0121  0.1142  0.7099
 1017MOL0     C37213   4.963   5.998  10.302  0.1461  0.0980 -0.5311
 1017MOL0     C37214   5.082   5.933  10.290  0.7407 -0.0379  0.2562
 1017MOL0     C37215   5.517   5.825  10.162 -0.1247  0.0686 -0.0897
 1017MOL0     C37216   5.634   5.829  10.080 -0.0461 -0.4923  0.1963
 1017MOL0     C37217   5.748   5.780  10.135  1.0428  0.3687 -0.5672
 1017MOL0     C37218   5.756   5.705  10.248 -0.2254 -0.4623  0.6291
 1017MOL0     O37219   5.864   5.623  10.267  0.0726  0.3579 -0.0938
 1017MOL0     C37220   5.973   5.689  10.339  0.4408  0.9263 -0.2848
 1017MOL0     C37221   5.950   5.690  10.490  0.7053 -0.1656 -0.4360
 1017MOL0     C37222   6.057   5.780  10.558  0.5481  0.0998  0.2615
 1017MOL0     C37223   5.996   5.847  10.681 -0.5848  0.0641 -0.3371
 1017MOL0     C37224   5.955   5.744  10.775  0.7506 -0.3896  0.9554
 1017MOL0     C37225   5.948   5.649  10.840  0.5499  0.5163 -1.3829
 1017MOL0     C37226   5.638   5.670  10.307 -0.0580 -1.0779 -0.2277
 1017MOL0     C37227   5.526   5.742  10.273  0.0877 -0.1398 -1.1400
 1017MOL0     H37228   5.257   6.155  10.101  0.8362  1.6641  2.9176
 1017MOL0     H37229   5.046   6.264  10.105  0.4723 -0.6000 -0.6525
 1017MOL0     H37230   4.636   6.220  10.287 -0.5303 -0.5158  0.7903
 1017MOL0     H37231   4.719   6.080  10.370 -0.5570 -0.6058  1.0017
 1017MOL0     H37232   4.668   6.300  10.500  0.0205  0.8919 -1.8636
 1017MOL0     H37233   4.831   6.239  10.517  2.3817  0.7828 -2.2339
 1017MOL0     H37234   4.838   6.471  10.492  2.6582  0.7238 -1.8344
 1017MOL0     H37235   4.897   6.417  10.336 -0.1486  1.7677 -1.7045
 1017MOL0     H37236   4.608   6.451  10.360 -1.6607  1.7932  0.2286
 1017MOL0     H37237   4.688   6.596  10.414  1.4964 -0.7825  1.6367
 1017MOL0     H37238   4.820   6.624  10.199  0.1184  0.1518  0.7888
 1017MOL0     H37239   4.763   6.462  10.142 -2.2782 -1.1165  0.5486
 1017MOL0     H37240   4.545   6.520  10.118 -0.1252 -1.1899  1.9825
 1017MOL0     H37241   4.562   6.689  10.178  0.1979  1.3917 -1.0395
 1017MOL0     H37242   4.725   6.732   9.983  0.7302 -0.4045  0.9462
 1017MOL0     H37243   4.690   6.571   9.934  3.5410  1.0093  1.7915
 1017MOL0     H37244   4.474   6.771   9.993  2.7068  0.4274  1.9191
 1017MOL0     H37245   4.455   6.612   9.922  0.1700 -0.0510 -2.9640
 1017MOL0     H37246   4.611   6.541   9.696  1.9029  0.5752 -0.7106
 1017MOL0     H37247   4.617   6.547   9.450  1.1102  0.4393 -0.3405
 1017MOL0     H37248   4.543   6.688   9.368 -0.2856 -0.0454  0.5329
 1017MOL0     H37249   4.823   6.698   9.456 -2.1067 -0.8330  1.4359
 1017MOL0     H37250   4.726   6.794   9.347 -1.9593 -0.3590  0.7551
 1017MOL0     H37251   4.874   6.660   9.209 -0.2911  1.2100  1.8303
 1017MOL0     H37252   4.704   6.596   9.186 -1.2741 -1.5354 -0.1175
 1017MOL0     H37253   4.894   6.459   9.381 -0.7680  0.0216  0.9326
 1017MOL0     H37254   4.917   6.439   9.206  1.3575  1.0753  0.7587
 1017MOL0     H37255   4.587   6.170   9.267  1.6855 -2.3685 -1.7573
 1017MOL0     H37256   4.539   5.943   9.057 -0.4851 -0.2893  0.7197
 1017MOL0     H37257   4.457   6.014   9.202  2.8278 -0.5588  1.3186
 1017MOL0     H37258   4.375   6.003   9.042  1.4519 -0.3333 -1.0525
 1017MOL0     H37259   4.338   6.127   8.577 -1.3293  3.9232  0.1352
 1017MOL0     H37260   4.293   6.142   8.332  1.5750 -0.5713 -2.7469
 1017MOL0     H37261   4.313   6.319   8.017  2.2001  1.4859 -0.8449
 1017MOL0     H37262   4.238   6.250   8.146  1.6760 -0.9777 -1.7858
 1017MOL0     H37263   4.326   6.425   8.307 -0.3731  2.6308  1.1134
 1017MOL0     H37264   4.417   6.497   8.177 -0.2832 -0.2122  0.2423
 1017MOL0     H37265   4.104   6.473   8.161  0.4367 -1.5007 -1.5190
 1017MOL0     H37266   4.203   6.589   8.074  1.6470 -1.2211 -0.4993
 1017MOL0     H37267   4.067   6.682   8.248  1.1771  0.7391 -0.1823
 1017MOL0     H37268   4.157   6.610   8.377 -1.3984  2.2155  0.6980
 1017MOL0     H37269   4.270   6.783   8.158  0.3630 -0.1643 -0.1571
 1017MOL0     H37270   4.371   6.719   8.287 -0.4741  0.5263 -1.2934
 1017MOL0     H37271   4.219   6.853   8.449 -3.4914 -0.8558 -0.7779
 1017MOL0     H37272   4.337   6.941   8.356 -0.7027  0.4010  0.2187
 1017MOL0     H37273   4.049   6.927   8.255  0.3647  0.2879 -1.0644
 1017MOL0     H37274   4.173   7.023   8.190  1.1970 -0.5667  0.8185
 1017MOL0     H37275   4.157   7.187   8.361  1.0665 -0.3458  0.0424
 1017MOL0     H37276   4.152   7.068   8.494  1.2512 -0.3782 -0.0888
 1017MOL0     H37277   4.695   6.235   8.253 -1.7712  4.3320 -0.5846
 1017MOL0     H37278   4.740   6.210   8.503  0.4582 -0.0236 -0.6028
 1017MOL0     H37279   4.692   6.360   8.827  5.2795 -0.8165  1.4031
 1017MOL0     H37280   4.785   6.442   9.005 -0.0796  0.1085 -1.2682
 1017MOL0     H37281   4.872   5.950  10.339 -2.5564  3.5074 -2.1686
 1017MOL0     H37282   5.083   5.834  10.335  1.8576  0.1246  0.6135
 1017MOL0     H37283   5.631   5.887   9.988 -1.8216  1.4330  1.3769
 1017MOL0     H37284   5.845   5.791  10.088  1.0535 -2.2447 -1.2721
 1017MOL0     H37285   6.071   5.645  10.320 -0.2460 -0.8760  0.1749
 1017MOL0     H37286   5.964   5.791  10.300 -2.5086 -0.1528 -2.8982
 1017MOL0     H37287   5.946   5.589  10.530 -3.0250  1.3838  4.0190
 1017MOL0     H37288   5.853   5.735  10.513  0.8015  0.4928 -1.2869
 1017MOL0     H37289   6.096   5.858  10.492  1.4649 -0.0488  0.6129
 1017MOL0     H37290   6.145   5.720  10.582  2.0567  1.1373 -2.2902
 1017MOL0     H37291   5.922   5.921  10.648 -0.4171 -0.0267 -0.9431
 1017MOL0     H37292   6.066   5.907  10.740 -2.2023  1.2723  0.4524
 1017MOL0     H37293   5.943   5.567  10.909 -3.0678  0.6575 -1.3028
 1017MOL0     H37294   5.621   5.600  10.387  0.6811  0.5863  1.4713
 1017MOL0     H37295   5.440   5.724  10.337  1.4663  0.9475  1.1380
 1018MOL0     O37296   5.179   0.623   5.454  0.1960  0.4891 -0.6972
 1018MOL0     C37297   5.250   0.658   5.357 -0.0178  0.8063  0.8769
 1018MOL0     O37298   5.225   0.632   5.229  0.9410 -0.3759  0.1479
 1018MOL0     C37299   5.107   0.559   5.197 -0.6178  0.6887  0.2028
 1018MOL0     C37300   5.111   0.443   5.125 -0.8862  0.2102  0.5417
 1018MOL0     C37301   4.994   0.377   5.088  0.1232  0.5753 -0.4376
 1018MOL0     C37302   4.867   0.426   5.138 -0.2524  0.0494 -0.1009
 1018MOL0     O37303   4.746   0.375   5.108 -0.3174 -0.5286  0.3527
 1018MOL0     C37304   4.730   0.283   5.000 -0.6804  0.0569  0.2557
 1018MOL0     C37305   4.745   0.138   5.044  0.4747  0.1357  1.1412
 1018MOL0     C37306   4.696   0.039   4.933  0.0370 -1.0583 -0.4059
 1018MOL0     C37307   4.780   0.042   4.809  0.2166  0.2595  0.3713
 1018MOL0     C37308   4.719  -0.030   4.690  0.5365  0.1851 -0.8880
 1018MOL0     C37309   4.731  -0.187   4.715 -0.1274 -0.0024 -0.4723
 1018MOL0     C37310   4.716  -0.268   4.588  0.1233  0.1124  0.9339
 1018MOL0     C37311   4.835  -0.253   4.487 -0.1643 -0.4711  0.7890
 1018MOL0     N37312   4.945  -0.331   4.546 -0.2958  0.1352 -0.1436
 1018MOL0     C37313   5.060  -0.280   4.607  0.2708  0.6779  0.3048
 1018MOL0     C37314   5.135  -0.387   4.633  0.0740  0.0554 -0.2671
 1018MOL0     C37315   5.266  -0.377   4.705 -0.2229 -1.7800 -0.5019
 1018MOL0     C37316   5.339  -0.498   4.720  0.6849 -0.4103  0.6001
 1018MOL0     C37317   5.381  -0.592   4.608 -0.3661  0.2510 -0.0704
 1018MOL0     C37318   5.483  -0.531   4.510  0.6692 -0.0687 -0.2305
 1018MOL0     O37319   5.493  -0.609   4.384 -0.9159 -0.1654 -0.2901
 1018MOL0     C37320   5.385  -0.626   4.302  0.7808  0.4626  0.9117
 1018MOL0     C37321   5.403  -0.708   4.186  0.8343  0.5944 -0.7733
 1018MOL0     C37322   5.302  -0.720   4.091  0.1591 -0.4729 -0.2623
 1018MOL0     C37323   5.333  -0.823   3.986  0.0075  0.2311  0.9035
 1018MOL0     C37324   5.172  -0.649   4.116  0.4932  0.0317 -0.0181
 1018MOL0     C37325   5.051  -0.665   4.024 -0.3591 -0.2689  0.3844
 1018MOL0     O37326   4.924  -0.623   4.069 -0.0283  0.0343  0.0178
 1018MOL0     C37327   4.807  -0.631   3.993  0.0995  1.3973  0.1010
 1018MOL0     C37328   4.792  -0.671   3.857  0.1485 -0.1051  0.8459
 1018MOL0     C37329   4.665  -0.675   3.803  0.1784 -1.0856  0.2594
 1018MOL0     C37330   4.550  -0.641   3.877  0.3757 -0.6638 -0.9737
 1018MOL0     O37331   4.423  -0.637   3.829  0.0060  0.5759 -0.0024
 1018MOL0     C37332   4.397  -0.672   3.690 -0.5464  0.3119  0.2404
 1018MOL0     C37333   4.413  -0.824   3.688  0.7529  0.2900  0.8019
 1018MOL0     C37334   4.363  -0.898   3.555 -0.0627  0.4775  0.1271
 1018MOL0     C37335   4.387  -1.051   3.546 -0.1040 -0.2985 -0.5842
 1018MOL0     C37336   4.337  -1.099   3.418 -0.2429  0.2193  0.2874
 1018MOL0     C37337   4.186  -1.134   3.424 -0.0861 -1.0352 -0.0611
 1018MOL0     C37338   4.151  -1.257   3.509 -0.7066 -1.5364  0.2262
 1018MOL0     C37339   4.169  -1.385   3.429  0.7049  0.8961 -0.2419
 1018MOL0    Cl37340   4.096  -1.515   3.541  0.4344  0.2558 -0.1404
 1018MOL0     C37341   4.576  -0.577   4.009 -0.5274 -0.2347 -0.0549
 1018MOL0     C37342   4.700  -0.574   4.061 -0.4087 -0.0782 -0.2458
 1018MOL0     O37343   5.075  -0.717   3.915  0.2405  0.1088  0.1219
 1018MOL0     C37344   5.168  -0.555   4.219 -0.2996  0.1277  0.3023
 1018MOL0     C37345   5.269  -0.545   4.309  0.7668 -0.7968  0.6312
 1018MOL0     N37346   5.072  -0.505   4.589  0.2301 -0.0808  0.3014
 1018MOL0     N37347   4.956  -0.467   4.539  0.1037 -0.7623 -0.3751
 1018MOL0     C37348   4.866   0.545   5.213  0.2916 -0.0024  0.4720
 1018MOL0     C37349   4.990   0.601   5.258  0.1522  0.9172  0.4105
 1018MOL0     C37350   5.371   0.735   5.377 -0.5309 -1.3378  0.3981
 1018MOL0     C37351   5.456   0.779   5.277 -0.4118 -0.2678 -0.4554
 1018MOL0     C37352   5.574   0.844   5.310  0.1538 -0.4085  0.4480
 1018MOL0     C37353   5.617   0.859   5.438 -0.1101 -1.0251 -0.1348
 1018MOL0     O37354   5.735   0.933   5.474  0.3374  0.2662  0.2922
 1018MOL0     C37355   5.824   0.977   5.368  0.3647 -0.3212  0.1702
 1018MOL0     C37356   5.913   1.092   5.401 -0.1843 -0.5860  0.4488
 1018MOL0     C37357   5.868   1.206   5.495 -0.3213  0.9413 -0.0075
 1018MOL0     C37358   5.729   1.279   5.468  0.0642  0.3895  0.0228
 1018MOL0     C37359   5.702   1.396   5.540 -0.6804 -0.3665 -0.0471
 1018MOL0     C37360   5.677   1.495   5.607  0.8994 -0.8580  1.2932
 1018MOL0     C37361   5.544   0.802   5.541 -1.0581 -0.1507  0.1356
 1018MOL0     C37362   5.413   0.739   5.512 -0.5386 -0.1163 -0.9491
 1018MOL0     H37363   5.206   0.397   5.099  0.6321  0.8225  4.3851
 1018MOL0     H37364   4.997   0.286   5.030  1.9402  1.1465 -1.3141
 1018MOL0     H37365   4.630   0.294   4.958  0.0501  0.6107 -1.4406
 1018MOL0     H37366   4.802   0.304   4.920  0.4276  1.3791  1.5447
 1018MOL0     H37367   4.850   0.115   5.065  0.2870  0.3857  2.4159
 1018MOL0     H37368   4.688   0.113   5.134 -0.8974  2.6795  1.0531
 1018MOL0     H37369   4.690  -0.060   4.979  0.9964 -0.2897  1.4621
 1018MOL0     H37370   4.598   0.077   4.905  0.2374  0.1441  0.4335
 1018MOL0     H37371   4.788   0.145   4.773 -0.3879  0.1002 -0.2475
 1018MOL0     H37372   4.881   0.009   4.834 -0.5362 -0.7023  2.3740
 1018MOL0     H37373   4.614   0.002   4.685  1.5146  4.6441  1.8680
 1018MOL0     H37374   4.774  -0.009   4.598 -0.3615 -0.4566 -1.5964
 1018MOL0     H37375   4.827  -0.215   4.759 -0.9605  1.0802  2.2310
 1018MOL0     H37376   4.646  -0.218   4.776  0.7716 -0.8268  0.4009
 1018MOL0     H37377   4.721  -0.374   4.613  2.6018 -0.2833 -0.8659
 1018MOL0     H37378   4.627  -0.234   4.533  0.1617 -0.8061  0.2842
 1018MOL0     H37379   4.871  -0.150   4.481  2.6617 -1.4466 -1.7313
 1018MOL0     H37380   4.808  -0.295   4.390 -2.6484  1.3082  0.6128
 1018MOL0     H37381   5.090  -0.177   4.616  1.0694  0.6518 -1.5943
 1018MOL0     H37382   5.320  -0.306   4.641  0.8980 -2.9536 -0.8975
 1018MOL0     H37383   5.256  -0.338   4.807  2.4575  0.2753 -0.9067
 1018MOL0     H37384   5.270  -0.557   4.781 -0.6267 -1.8702 -2.0751
 1018MOL0     H37385   5.436  -0.476   4.765  0.5389 -1.1164  1.2831
 1018MOL0     H37386   5.294  -0.627   4.553  0.0685  1.4672 -1.6002
 1018MOL0     H37387   5.421  -0.681   4.657 -0.1349  0.3134 -0.1439
 1018MOL0     H37388   5.580  -0.519   4.557  0.5649  1.9958 -0.4274
 1018MOL0     H37389   5.446  -0.431   4.484 -0.6754 -0.6381 -0.5876
 1018MOL0     H37390   5.499  -0.760   4.186 -0.3766 -1.9043 -3.3183
 1018MOL0     H37391   5.415  -0.884   4.026 -1.2176 -2.9814 -1.0123
 1018MOL0     H37392   5.247  -0.886   3.963 -0.6768  1.0510  1.1818
 1018MOL0     H37393   5.359  -0.768   3.895 -4.9215 -0.3954 -1.1854
 1018MOL0     H37394   4.876  -0.695   3.793 -0.7710 -1.9262  0.2722
 1018MOL0     H37395   4.651  -0.688   3.696 -1.8179 -0.3458  0.3826
 1018MOL0     H37396   4.297  -0.639   3.661 -0.1006  0.8383 -0.7334
 1018MOL0     H37397   4.452  -0.611   3.618 -0.7579 -0.1694 -0.3378
 1018MOL0     H37398   4.520  -0.848   3.696  0.9190  0.8100  0.2890
 1018MOL0     H37399   4.359  -0.869   3.771 -0.6727  0.3527 -0.0683
 1018MOL0     H37400   4.411  -0.843   3.473  2.0815  0.5267  1.3347
 1018MOL0     H37401   4.257  -0.887   3.533  0.2431 -1.7605 -3.1190
 1018MOL0     H37402   4.496  -1.061   3.551  0.1129  0.2471 -2.8807
 1018MOL0     H37403   4.341  -1.108   3.627 -1.1762  3.0565  1.3627
 1018MOL0     H37404   4.389  -1.193   3.393  1.3338  0.9643  0.6534
 1018MOL0     H37405   4.348  -1.023   3.341  1.7089 -2.0058 -1.8234
 1018MOL0     H37406   4.132  -1.052   3.471 -0.1451 -0.6410 -0.8074
 1018MOL0     H37407   4.137  -1.133   3.326 -0.0060 -0.2017 -0.1009
 1018MOL0     H37408   4.051  -1.244   3.550 -0.1029 -4.0139  2.7447
 1018MOL0     H37409   4.216  -1.258   3.596 -1.2895 -1.8636  0.6633
 1018MOL0     H37410   4.273  -1.414   3.410 -0.2455 -4.4632  1.1127
 1018MOL0     H37411   4.118  -1.386   3.332 -0.9689  0.9750  0.5931
 1018MOL0     H37412   4.497  -0.533   4.070 -0.5451  0.2348 -0.4134
 1018MOL0     H37413   4.709  -0.524   4.157  3.3520  2.4597 -1.6842
 1018MOL0     H37414   5.078  -0.500   4.241  0.9999  2.5927 -0.1238
 1018MOL0     H37415   5.247  -0.477   4.390 -0.4207 -2.9312  2.2139
 1018MOL0     H37416   4.770   0.588   5.242 -0.7773 -1.9591  0.0564
 1018MOL0     H37417   4.990   0.699   5.305 -0.8949  1.9168 -1.5642
 1018MOL0     H37418   5.424   0.768   5.173 -0.0972 -3.1132 -0.3389
 1018MOL0     H37419   5.623   0.884   5.222 -0.2728  0.8612  0.7756
 1018MOL0     H37420   5.893   0.898   5.338  0.2002 -0.4092  0.0130
 1018MOL0     H37421   5.758   1.011   5.287  2.2684 -2.3248 -2.4105
 1018MOL0     H37422   5.923   1.142   5.304  1.1729  0.5348  1.1346
 1018MOL0     H37423   6.006   1.049   5.438  0.8374 -1.2791 -2.5977
 1018MOL0     H37424   5.945   1.283   5.495 -1.3287  1.9862 -1.5979
 1018MOL0     H37425   5.868   1.168   5.598  3.2226  3.0443  0.9557
 1018MOL0     H37426   5.650   1.208   5.493 -0.9221  0.6250 -2.1744
 1018MOL0     H37427   5.728   1.311   5.363  2.5616  0.9219  0.1046
 1018MOL0     H37428   5.638   1.576   5.665 -2.0169  0.4788 -2.1268
 1018MOL0     H37429   5.583   0.810   5.642  0.5150  0.8260 -0.5015
 1018MOL0     H37430   5.355   0.717   5.601  0.5197  2.2812  0.4510
 1019MOL0     O37431   8.323   5.971   8.911 -0.2694  0.0094 -0.2566
 1019MOL0     C37432   8.225   5.914   8.959  0.1688 -1.0554  0.7555
 1019MOL0     O37433   8.208   5.779   8.951 -0.0390  0.7869 -0.3643
 1019MOL0     C37434   8.286   5.700   8.875 -0.3664 -0.4833  0.2729
 1019MOL0     C37435   8.221   5.597   8.803 -1.0582  0.9204  0.1758
 1019MOL0     C37436   8.306   5.511   8.726  0.0949 -0.1171  0.1428
 1019MOL0     C37437   8.441   5.525   8.725 -0.1166 -0.1790 -0.2913
 1019MOL0     O37438   8.503   5.420   8.663  0.1211  0.0469 -0.2492
 1019MOL0     C37439   8.645   5.386   8.650  0.5097 -0.4800  0.0917
 1019MOL0     C37440   8.667   5.275   8.553  0.0430  0.5778  1.2517
 1019MOL0     C37441   8.669   5.135   8.614 -0.1384 -0.3506  0.1204
 1019MOL0     C37442   8.656   5.034   8.506 -0.1673  1.3317 -0.3083
 1019MOL0     C37443   8.627   4.884   8.538 -0.4519 -0.5479 -0.1589
 1019MOL0     C37444   8.750   4.793   8.582 -0.1089 -0.7307  0.2280
 1019MOL0     C37445   8.726   4.646   8.596  0.6545  0.9937 -0.1371
 1019MOL0     C37446   8.602   4.607   8.686 -0.5223 -0.3782  0.6290
 1019MOL0     N37447   8.607   4.464   8.710  0.3310 -0.1291  0.8509
 1019MOL0     C37448   8.628   4.367   8.620  0.1320  0.3922 -0.0334
 1019MOL0     C37449   8.641   4.255   8.694 -0.0874 -0.8742  0.9220
 1019MOL0     C37450   8.699   4.132   8.633 -0.3421  0.2236 -0.7280
 1019MOL0     C37451   8.769   4.045   8.736  0.2053  0.7506 -0.1050
 1019MOL0     C37452   8.909   4.107   8.760 -1.1718  0.6970  0.4714
 1019MOL0     C37453   9.017   4.050   8.664  0.8295  0.0507  0.0522
 1019MOL0     O37454   9.147   4.055   8.722  0.1081 -0.4638 -0.4376
 1019MOL0     C37455   9.258   4.031   8.634  0.5058 -0.2261 -1.0317
 1019MOL0     C37456   9.383   4.052   8.686  0.7799  0.2022  0.0044
 1019MOL0     C37457   9.503   4.023   8.619  0.4535  0.4029 -0.1098
 1019MOL0     C37458   9.627   4.040   8.697  0.3185 -1.0727  1.0710
 1019MOL0     C37459   9.494   3.982   8.484 -0.1465 -0.5658  0.8705
 1019MOL0     C37460   9.605   3.960   8.394 -0.1680  0.9783  0.2727
 1019MOL0     O37461   9.605   3.853   8.306  0.2345 -1.4197 -0.0406
 1019MOL0     C37462   9.714   3.822   8.221  0.4502  0.0115  0.0887
 1019MOL0     C37463   9.849   3.864   8.230 -0.2565 -0.2911  0.5834
 1019MOL0     C37464   9.938   3.821   8.129  0.7221 -0.1357  0.2438
 1019MOL0     C37465   9.901   3.747   8.014  1.1321 -0.8842 -0.2492
 1019MOL0     O37466   9.999   3.707   7.926 -0.7419 -0.1918  0.5385
 1019MOL0     C37467   9.973   3.588   7.853 -0.1713 -0.2519  0.1742
 1019MOL0     C37468  10.003   3.470   7.961  0.9350 -0.2431  0.3823
 1019MOL0     C37469  10.134   3.492   8.042  0.9644 -0.4641  0.0213
 1019MOL0     C37470  10.264   3.466   7.966 -0.1553  0.2623 -0.8807
 1019MOL0     C37471  10.383   3.516   8.047 -0.1736  0.5450  1.2954
 1019MOL0     C37472  10.503   3.493   7.961  1.2702 -0.6044 -1.0299
 1019MOL0     C37473  10.644   3.521   8.019  0.0448 -0.7718 -0.9357
 1019MOL0     C37474  10.735   3.405   7.962 -0.8401 -0.3330  1.2072
 1019MOL0    Cl37475  10.775   3.416   7.781  0.1418  0.2058  0.3816
 1019MOL0     C37476   9.770   3.707   8.014 -0.2298  0.2744  0.6883
 1019MOL0     C37477   9.679   3.744   8.107 -0.8451 -0.3248 -0.7714
 1019MOL0     O37478   9.697   4.038   8.406 -0.1068 -0.1568  1.2340
 1019MOL0     C37479   9.363   3.963   8.424 -0.3794  1.3355  0.6296
 1019MOL0     C37480   9.248   3.985   8.502  0.5292 -0.3453 -0.7620
 1019MOL0     N37481   8.633   4.292   8.833 -0.6930  0.2953 -0.0141
 1019MOL0     N37482   8.624   4.415   8.837  0.8230 -0.1099 -0.5801
 1019MOL0     C37483   8.504   5.627   8.796 -0.5129  0.7635 -0.1732
 1019MOL0     C37484   8.421   5.707   8.867 -0.8923 -0.6038 -0.2888
 1019MOL0     C37485   8.121   6.005   9.027  0.0436 -0.3501  0.6434
 1019MOL0     C37486   8.146   6.139   9.038 -0.3310  0.4526  0.8509
 1019MOL0     C37487   8.048   6.231   9.087  0.9079  0.1480 -0.4048
 1019MOL0     C37488   7.926   6.182   9.138  0.6003 -0.5673  0.0804
 1019MOL0     O37489   7.841   6.270   9.194  0.4053  0.1792 -0.1446
 1019MOL0     C37490   7.713   6.211   9.246 -0.1644 -0.3506  0.2933
 1019MOL0     C37491   7.617   6.329   9.266  0.5850 -0.1229 -0.0048
 1019MOL0     C37492   7.483   6.289   9.315  0.0192 -0.5534 -1.5350
 1019MOL0     C37493   7.388   6.259   9.201  0.5110 -0.1930  0.4800
 1019MOL0     C37494   7.282   6.166   9.236  0.0984 -0.2448  0.5062
 1019MOL0     C37495   7.199   6.089   9.263  0.4174  0.2360 -0.9149
 1019MOL0     C37496   7.899   6.045   9.128 -0.1290 -0.2763  0.3924
 1019MOL0     C37497   7.992   5.956   9.070  0.3741  0.1426  0.5266
 1019MOL0     H37498   8.115   5.584   8.823 -0.5689  0.8388  3.2301
 1019MOL0     H37499   8.271   5.427   8.667  1.9636 -0.9537  0.1638
 1019MOL0     H37500   8.699   5.476   8.617 -0.4234  0.9806  2.3369
 1019MOL0     H37501   8.688   5.355   8.745  1.0416  2.2487  0.8239
 1019MOL0     H37502   8.585   5.273   8.482  0.2364  1.7718  0.9685
 1019MOL0     H37503   8.759   5.295   8.498 -1.2013  0.1042 -1.1277
 1019MOL0     H37504   8.764   5.124   8.666 -0.2559 -2.1850  0.0219
 1019MOL0     H37505   8.587   5.137   8.687  1.1604 -1.0294  1.6533
 1019MOL0     H37506   8.575   5.062   8.438  1.3256  1.1382 -2.2551
 1019MOL0     H37507   8.741   5.040   8.438  0.0497  0.6087 -0.1032
 1019MOL0     H37508   8.566   4.869   8.627 -0.4150  1.4150  0.2326
 1019MOL0     H37509   8.575   4.838   8.453 -2.8756  2.0213 -0.2292
 1019MOL0     H37510   8.836   4.808   8.516  0.8189 -0.7014  1.4071
 1019MOL0     H37511   8.788   4.829   8.678  0.7479 -0.0974 -0.3296
 1019MOL0     H37512   8.721   4.595   8.499 -0.6316  3.3599 -1.4006
 1019MOL0     H37513   8.814   4.602   8.644  0.9710  0.5496 -1.0846
 1019MOL0     H37514   8.511   4.628   8.630  0.2457  0.3683 -0.3577
 1019MOL0     H37515   8.622   4.670   8.773 -0.9544  2.9053 -1.5182
 1019MOL0     H37516   8.650   4.391   8.517  0.8449 -3.3450 -0.9152
 1019MOL0     H37517   8.628   4.064   8.585  0.3420 -2.4491  1.7415
 1019MOL0     H37518   8.765   4.156   8.549  3.7004 -1.7192  1.5741
 1019MOL0     H37519   8.785   3.939   8.713  0.9345  0.5654  1.1421
 1019MOL0     H37520   8.709   4.037   8.827 -1.6347 -1.5797 -1.4048
 1019MOL0     H37521   8.940   4.088   8.863 -0.9980  1.6184  0.5997
 1019MOL0     H37522   8.903   4.215   8.742  1.6422  0.7766 -0.5379
 1019MOL0     H37523   9.011   4.105   8.570 -2.2863 -1.2329 -0.5999
 1019MOL0     H37524   9.000   3.945   8.643  4.0756 -0.2676 -1.6280
 1019MOL0     H37525   9.375   4.103   8.782 -2.1152 -0.9316  0.4906
 1019MOL0     H37526   9.698   3.961   8.672 -0.1167 -0.5731 -2.0863
 1019MOL0     H37527   9.681   4.131   8.667 -0.5439 -1.1817 -0.9445
 1019MOL0     H37528   9.612   4.039   8.806 -1.4726 -0.4480  0.8614
 1019MOL0     H37529   9.894   3.939   8.295  0.9457  1.0504 -1.6909
 1019MOL0     H37530  10.043   3.848   8.134  1.5071 -1.6630 -3.8919
 1019MOL0     H37531   9.874   3.582   7.806  0.2746  0.6479 -0.9191
 1019MOL0     H37532  10.048   3.572   7.776 -0.2604  1.3572 -0.2931
 1019MOL0     H37533   9.913   3.472   8.024  1.2146  0.8297  0.7782
 1019MOL0     H37534   9.996   3.372   7.915  2.1327 -0.3814  0.4761
 1019MOL0     H37535  10.120   3.411   8.114 -0.5121 -0.1905  0.0639
 1019MOL0     H37536  10.147   3.578   8.108  0.6577 -0.9897  0.7677
 1019MOL0     H37537  10.283   3.360   7.948  4.0590  0.8082 -0.4636
 1019MOL0     H37538  10.266   3.494   7.860  0.5962 -0.8576 -1.1742
 1019MOL0     H37539  10.393   3.454   8.137 -0.1539 -1.3612  0.0385
 1019MOL0     H37540  10.386   3.618   8.084  0.4501  1.1508 -0.3169
 1019MOL0     H37541  10.500   3.389   7.927  0.7693 -0.5491 -1.1635
 1019MOL0     H37542  10.482   3.550   7.870 -3.1681 -0.9831 -0.4808
 1019MOL0     H37543  10.649   3.515   8.128  0.2595 -0.0344 -0.8971
 1019MOL0     H37544  10.687   3.618   7.992  2.7738 -0.6930  2.8843
 1019MOL0     H37545  10.702   3.305   7.994  0.7964 -2.0679 -2.0780
 1019MOL0     H37546  10.829   3.405   8.018  0.3587 -3.0663 -0.6142
 1019MOL0     H37547   9.725   3.641   7.941  1.3325 -0.5961  0.4689
 1019MOL0     H37548   9.584   3.701   8.080 -0.5311 -1.1767 -0.5548
 1019MOL0     H37549   9.355   3.909   8.331 -0.0282  0.8286  0.8951
 1019MOL0     H37550   9.147   3.966   8.465  0.2649  0.3984 -0.4502
 1019MOL0     H37551   8.612   5.628   8.795 -0.4684  2.4516 -2.5613
 1019MOL0     H37552   8.465   5.793   8.918 -0.1410 -0.8340 -0.5309
 1019MOL0     H37553   8.237   6.187   9.003 -0.6555 -0.6406 -1.7441
 1019MOL0     H37554   8.066   6.338   9.092  1.1405  0.1964 -1.8488
 1019MOL0     H37555   7.674   6.152   9.162 -1.8637 -0.8649  1.3829
 1019MOL0     H37556   7.725   6.140   9.329 -0.3420  1.7140  2.1945
 1019MOL0     H37557   7.619   6.377   9.167 -0.2249  0.7568  0.3930
 1019MOL0     H37558   7.645   6.404   9.341  0.8197 -2.7198  2.6452
 1019MOL0     H37559   7.437   6.373   9.368 -1.9980 -1.7234 -1.3522
 1019MOL0     H37560   7.489   6.215   9.395  2.0950  0.2657 -0.8722
 1019MOL0     H37561   7.436   6.197   9.125 -0.5320 -1.9451  1.2123
 1019MOL0     H37562   7.351   6.353   9.157 -2.0575 -0.5203  1.7531
 1019MOL0     H37563   7.128   6.010   9.280  1.8291 -0.9632 -0.3340
 1019MOL0     H37564   7.811   5.995   9.167 -1.5822  1.2068 -0.8167
 1019MOL0     H37565   7.964   5.852   9.059 -1.5659  0.7242 -0.5177
 1020MOL0     O37566   6.188  10.817  10.276 -0.5392 -0.5878  0.9197
 1020MOL0     C37567   6.217  10.940  10.270  0.8121  0.2762 -0.8626
 1020MOL0     O37568   6.213  11.010  10.161 -0.2340  0.4383  0.2120
 1020MOL0     C37569   6.159  10.955  10.047 -0.1749  1.0665  0.0159
 1020MOL0     C37570   6.048  11.017   9.980  0.4922 -0.0737  0.2506
 1020MOL0     C37571   6.005  10.971   9.856  0.0865  0.1584  0.2483
 1020MOL0     C37572   6.055  10.854   9.798 -0.3295 -0.2387  0.0475
 1020MOL0     O37573   5.989  10.817   9.685 -0.8200  0.1176 -0.3050
 1020MOL0     C37574   6.066  10.764   9.572 -0.0903 -0.2887  0.4262
 1020MOL0     C37575   5.978  10.757   9.445  0.4236  0.7378 -0.0011
 1020MOL0     C37576   5.919  10.895   9.395  0.6824 -0.6628  0.6570
 1020MOL0     C37577   6.014  11.005   9.388  0.1374 -0.4212 -0.2860
 1020MOL0     C37578   5.951  11.148   9.361 -0.8500  0.1503 -0.7558
 1020MOL0     C37579   5.887  11.207   9.495  0.8135  0.1623  1.5159
 1020MOL0     C37580   5.868  11.354   9.485  0.1774  0.3225  0.5665
 1020MOL0     C37581   5.770  11.387   9.377  0.9338  0.1466  0.1396
 1020MOL0     N37582   5.734  11.527   9.384  0.3471 -0.2309 -0.1846
 1020MOL0     C37583   5.658  11.581   9.481  0.1962 -0.4806  0.8503
 1020MOL0     C37584   5.642  11.714   9.445 -0.8094  0.9694 -0.3708
 1020MOL0     C37585   5.559  11.817   9.520 -0.4007  0.2718  0.7626
 1020MOL0     C37586   5.587  11.826   9.677  0.6786  0.6227  0.1733
 1020MOL0     C37587   5.712  11.903   9.699  0.2120  0.9176  0.3730
 1020MOL0     C37588   5.793  11.883   9.823 -0.5036 -0.0870  0.1178
 1020MOL0     O37589   5.824  11.740   9.851 -0.4808  0.6382  0.8270
 1020MOL0     C37590   5.922  11.707   9.946 -0.7847 -0.5619  0.5151
 1020MOL0     C37591   5.945  11.570   9.972  1.2345 -0.7047 -0.6648
 1020MOL0     C37592   6.045  11.532  10.063  0.1909 -0.3887 -1.1650
 1020MOL0     C37593   6.077  11.381  10.059  0.9270  1.3372 -0.0397
 1020MOL0     C37594   6.116  11.626  10.140  0.7932 -0.7823  0.2792
 1020MOL0     C37595   6.207  11.590  10.243  0.0858 -0.1204 -1.2194
 1020MOL0     O37596   6.324  11.651  10.238  0.5504 -0.2217 -0.6160
 1020MOL0     C37597   6.397  11.656  10.352  0.2965  0.6486  0.0994
 1020MOL0     C37598   6.470  11.538  10.376 -0.3675  0.6923  0.0580
 1020MOL0     C37599   6.539  11.531  10.500  0.0004  1.1490  0.4693
 1020MOL0     C37600   6.549  11.644  10.581 -0.6428 -0.1032 -0.8579
 1020MOL0     O37601   6.627  11.639  10.696  0.1188 -0.0062 -0.0711
 1020MOL0     C37602   6.574  11.677  10.822 -0.2052  0.3439  0.3308
 1020MOL0     C37603   6.679  11.670  10.919 -0.4858  0.1081  0.5020
 1020MOL0     C37604   6.684  11.523  10.970 -0.2757 -0.4635  0.3306
 1020MOL0     C37605   6.815  11.489  11.049 -0.1048 -0.0956  0.1515
 1020MOL0     C37606   6.809  11.359  11.126 -0.1003  0.7071  0.3709
 1020MOL0     C37607   6.939  11.336  11.214 -0.0435  1.2345  0.6453
 1020MOL0     C37608   6.935  11.210  11.292  0.5981 -0.0951 -0.9156
 1020MOL0     C37609   6.948  11.082  11.222  0.1308  0.3485 -0.5334
 1020MOL0    Cl37610   7.109  11.073  11.138 -0.0782 -0.0039 -0.3707
 1020MOL0     C37611   6.471  11.758  10.550  0.5355  0.3804 -0.2651
 1020MOL0     C37612   6.400  11.765  10.432 -0.1771 -0.5791 -0.5089
 1020MOL0     O37613   6.175  11.503  10.324 -0.9241 -0.6642 -0.0409
 1020MOL0     C37614   6.082  11.758  10.120 -0.8005 -0.3339 -0.0325
 1020MOL0     C37615   5.989  11.803  10.027  0.3555  1.2382  0.3461
 1020MOL0     N37616   5.722  11.732   9.332 -0.0236  0.3669 -0.2777
 1020MOL0     N37617   5.780  11.619   9.300 -0.7869 -0.5034  0.3987
 1020MOL0     C37618   6.163  10.792   9.870  0.4376  0.6611  0.8732
 1020MOL0     C37619   6.217  10.846   9.987 -0.7453 -0.0609  0.1463
 1020MOL0     C37620   6.232  11.003  10.401 -0.4089  0.2411 -0.4085
 1020MOL0     C37621   6.220  11.143  10.421 -0.1017 -0.2267 -0.0590
 1020MOL0     C37622   6.251  11.202  10.547 -0.1715 -0.0844 -0.2287
 1020MOL0     C37623   6.280  11.128  10.658 -0.3613 -0.1162 -0.8046
 1020MOL0     O37624   6.320  11.174  10.782 -0.4633  0.0136 -0.0527
 1020MOL0     C37625   6.304  11.314  10.792  0.4033 -0.0873 -1.0782
 1020MOL0     C37626   6.348  11.369  10.923 -0.2908  0.4611 -0.5162
 1020MOL0     C37627   6.251  11.310  11.029 -0.3602  0.2237 -0.1538
 1020MOL0     C37628   6.283  11.338  11.177  0.4040  1.0730  0.1707
 1020MOL0     C37629   6.211  11.244  11.271 -0.3585 -0.3365 -0.2677
 1020MOL0     C37630   6.143  11.172  11.350  0.2528 -0.0683  0.4123
 1020MOL0     C37631   6.288  10.990  10.647  0.5689 -0.8127  0.8338
 1020MOL0     C37632   6.267  10.929  10.519  0.2450  0.3215 -0.5939
 1020MOL0     H37633   6.013  11.110  10.023 -1.7050  0.2801 -2.0684
 1020MOL0     H37634   5.921  11.024   9.810  0.1454 -0.3607 -0.4818
 1020MOL0     H37635   6.158  10.818   9.552  0.3205 -1.7564 -2.0550
 1020MOL0     H37636   6.099  10.662   9.591 -0.6200 -0.5209  0.1217
 1020MOL0     H37637   6.031  10.719   9.357 -0.7658 -1.8632  0.2988
 1020MOL0     H37638   5.895  10.689   9.468  2.0490 -1.3414  0.0095
 1020MOL0     H37639   5.883  10.881   9.293  1.7955 -0.4749  0.2146
 1020MOL0     H37640   5.839  10.924   9.463  2.8570  1.2543  2.5910
 1020MOL0     H37641   6.065  11.005   9.485 -2.6710  2.2164  1.3679
 1020MOL0     H37642   6.091  10.990   9.312 -0.4023 -2.8839 -0.4161
 1020MOL0     H37643   6.041  11.207   9.337  0.4859 -0.0736  3.0627
 1020MOL0     H37644   5.882  11.142   9.277 -2.1687 -2.7509  0.4103
 1020MOL0     H37645   5.792  11.155   9.509  2.3513 -2.8946  1.3912
 1020MOL0     H37646   5.954  11.191   9.580  1.2513 -1.0513  0.9685
 1020MOL0     H37647   5.836  11.401   9.578 -1.8025 -0.9396  0.5839
 1020MOL0     H37648   5.968  11.392   9.460  0.9567 -2.0458 -0.2275
 1020MOL0     H37649   5.685  11.323   9.399  0.6886  0.8975  1.4532
 1020MOL0     H37650   5.813  11.362   9.279  1.5190  1.4134  0.0545
 1020MOL0     H37651   5.610  11.543   9.571 -5.9777 -0.5366 -1.9007
 1020MOL0     H37652   5.574  11.909   9.463 -1.1646 -0.6779 -1.0617
 1020MOL0     H37653   5.451  11.796   9.516  0.0052 -1.9020 -0.7764
 1020MOL0     H37654   5.606  11.723   9.710 -0.3491  0.0231 -0.9893
 1020MOL0     H37655   5.503  11.870   9.730  1.5833  1.8881  0.5801
 1020MOL0     H37656   5.702  12.010   9.681  0.2696  1.3275  2.4900
 1020MOL0     H37657   5.780  11.875   9.618  0.4118  0.7791  0.5876
 1020MOL0     H37658   5.732  11.929   9.902 -1.8969  1.4127 -1.7422
 1020MOL0     H37659   5.882  11.945   9.809 -0.3020 -0.5135 -0.4895
 1020MOL0     H37660   5.888  11.498   9.914 -1.9402  1.2194 -0.1709
 1020MOL0     H37661   6.048  11.344   9.960  0.2432 -2.5868  1.4225
 1020MOL0     H37662   6.185  11.362  10.061  0.3953 -2.8562 -1.0007
 1020MOL0     H37663   6.032  11.316  10.135  1.9263 -0.1103 -0.6227
 1020MOL0     H37664   6.465  11.458  10.303  2.2235  0.9810 -0.5456
 1020MOL0     H37665   6.597  11.448  10.540  0.2236  0.3549 -1.4235
 1020MOL0     H37666   6.527  11.776  10.822 -0.0578  0.4137  0.0969
 1020MOL0     H37667   6.491  11.612  10.855  0.1323 -0.4875 -0.4051
 1020MOL0     H37668   6.773  11.702  10.874 -1.5082 -0.6212 -2.3029
 1020MOL0     H37669   6.668  11.743  11.000  1.8361  0.2499  0.7368
 1020MOL0     H37670   6.674  11.452  10.887  4.7006  0.2869 -1.2829
 1020MOL0     H37671   6.607  11.515  11.047 -1.0729  1.0648 -0.2552
 1020MOL0     H37672   6.897  11.477  10.979 -0.5111 -2.8662  0.0468
 1020MOL0     H37673   6.846  11.574  11.111  0.2568  0.4904 -0.8176
 1020MOL0     H37674   6.779  11.278  11.060 -1.3084  3.2992 -2.5567
 1020MOL0     H37675   6.733  11.365  11.204 -0.8975 -1.6849 -0.1404
 1020MOL0     H37676   7.023  11.319  11.145 -0.0976 -1.5969  1.1489
 1020MOL0     H37677   6.957  11.424  11.275  1.2115 -0.0890  2.3039
 1020MOL0     H37678   6.839  11.202  11.345  0.0622 -1.5748 -2.0428
 1020MOL0     H37679   7.019  11.205  11.362  1.8043  0.0243 -2.3213
 1020MOL0     H37680   6.859  11.060  11.161  0.6923 -0.9538 -0.9050
 1020MOL0     H37681   6.954  11.009  11.303 -2.4211 -1.1005 -1.5078
 1020MOL0     H37682   6.477  11.846  10.613 -1.9087 -0.3390  1.1178
 1020MOL0     H37683   6.334  11.846  10.398 -0.2630 -0.1188  0.7154
 1020MOL0     H37684   6.132  11.829  10.185  0.0546 -0.8249 -0.1338
 1020MOL0     H37685   5.973  11.910  10.021 -2.4181  0.9645  1.5146
 1020MOL0     H37686   6.201  10.698   9.831 -0.8589  0.6794 -0.4865
 1020MOL0     H37687   6.291  10.794  10.047 -2.7183 -1.3327  1.6158
 1020MOL0     H37688   6.194  11.224  10.354  0.0770  2.7501  3.2166
 1020MOL0     H37689   6.254  11.311  10.549 -0.0420 -0.0949  0.1894
 1020MOL0     H37690   6.361  11.376  10.722  1.4180  0.6222  0.3250
 1020MOL0     H37691   6.199  11.329  10.766 -0.0111 -3.5943 -2.0571
 1020MOL0     H37692   6.342  11.478  10.927  3.8188  0.8028  1.9067
 1020MOL0     H37693   6.454  11.344  10.934 -0.8115 -1.6401  0.2531
 1020MOL0     H37694   6.246  11.201  11.029 -3.1613  0.2734  0.3005
 1020MOL0     H37695   6.150  11.340  11.002 -0.2628 -0.2856 -1.1099
 1020MOL0     H37696   6.262  11.439  11.214  0.6691  0.3837  2.3547
 1020MOL0     H37697   6.391  11.324  11.188  0.4402  0.0667 -1.1834
 1020MOL0     H37698   6.093  11.104  11.416 -2.0877 -1.0591 -2.1857
 1020MOL0     H37699   6.323  10.926  10.728 -0.7180 -2.2670  0.2954
 1020MOL0     H37700   6.284  10.822  10.516  2.1528  0.5346  0.9048
 1021MOL0     O37701  10.725   3.957   8.739 -0.0671 -0.2223 -0.1646
 1021MOL0     C37702  10.675   4.035   8.656  0.3044  0.4034 -0.6900
 1021MOL0     O37703  10.568   4.008   8.581  0.0788 -0.1156  0.5366
 1021MOL0     C37704  10.500   3.884   8.571 -0.4655 -0.2274  0.1999
 1021MOL0     C37705  10.449   3.851   8.441 -0.7166 -0.5720 -1.3710
 1021MOL0     C37706  10.365   3.737   8.427 -0.7936 -0.2858 -0.7977
 1021MOL0     C37707  10.329   3.655   8.534  0.7048  0.2228 -0.1343
 1021MOL0     O37708  10.248   3.540   8.539 -0.5921  0.4387 -0.6353
 1021MOL0     C37709  10.133   3.528   8.462 -0.3922 -0.6658 -0.4576
 1021MOL0     C37710  10.027   3.470   8.559  0.5766 -0.1751 -0.7170
 1021MOL0     C37711   9.895   3.493   8.476  0.1812  0.1052  0.5226
 1021MOL0     C37712   9.757   3.481   8.545 -0.9036  0.5276 -0.6810
 1021MOL0     C37713   9.640   3.545   8.470 -0.9153  0.7455  0.7032
 1021MOL0     C37714   9.509   3.556   8.544  0.1488 -0.3344 -0.4912
 1021MOL0     C37715   9.398   3.565   8.454 -0.4240 -0.6458 -0.1683
 1021MOL0     C37716   9.287   3.474   8.484  0.1180  0.7061  0.3042
 1021MOL0     N37717   9.193   3.506   8.589 -0.8427 -0.6061 -0.5694
 1021MOL0     C37718   9.217   3.502   8.720  0.0043  0.6077 -0.7713
 1021MOL0     C37719   9.107   3.561   8.786 -0.0136  0.0194 -0.0987
 1021MOL0     C37720   9.077   3.590   8.932 -0.6786 -0.0227  0.9950
 1021MOL0     C37721   9.193   3.664   9.005  0.9921  0.0436 -0.2302
 1021MOL0     C37722   9.202   3.808   8.946  0.1339 -0.5025 -0.5318
 1021MOL0     C37723   9.277   3.896   9.051 -0.0645 -0.1666 -0.7691
 1021MOL0     O37724   9.344   4.009   8.989  0.5133 -0.0960 -1.1986
 1021MOL0     C37725   9.397   4.091   9.086  0.0246  1.0754  0.4464
 1021MOL0     C37726   9.325   4.174   9.173  0.2476 -0.3821  0.5055
 1021MOL0     C37727   9.393   4.247   9.270  0.4331  0.3732  0.9119
 1021MOL0     C37728   9.322   4.364   9.346  0.4428  0.2040 -0.0309
 1021MOL0     C37729   9.530   4.231   9.295 -0.7747 -0.0777 -0.2039
 1021MOL0     C37730   9.601   4.298   9.397  0.0653  0.0108  0.0327
 1021MOL0     O37731   9.632   4.228   9.504 -0.2278  0.0408  0.5071
 1021MOL0     C37732   9.674   4.283   9.625  0.0077  0.1608 -0.2563
 1021MOL0     C37733   9.762   4.390   9.631  0.6384 -0.7379  0.0871
 1021MOL0     C37734   9.819   4.437   9.749  0.2914  0.6381  0.7394
 1021MOL0     C37735   9.785   4.369   9.870  0.2098  0.8663  0.3788
 1021MOL0     O37736   9.844   4.414   9.986  0.0823  0.4887 -0.2754
 1021MOL0     C37737   9.879   4.314  10.088  0.3349 -0.6131  0.0041
 1021MOL0     C37738   9.938   4.381  10.205 -0.0914  0.5008  0.6146
 1021MOL0     C37739  10.010   4.511  10.181 -0.3873  0.0778  0.4019
 1021MOL0     C37740  10.066   4.583  10.310 -0.5990 -0.0246  0.0652
 1021MOL0     C37741  10.196   4.525  10.379 -0.0473  0.0700 -0.5251
 1021MOL0     C37742  10.228   4.605  10.506 -1.0663  0.2529 -0.3683
 1021MOL0     C37743  10.381   4.572  10.545 -0.0126 -0.2485  0.2483
 1021MOL0     C37744  10.465   4.689  10.506 -1.0525 -0.7289 -0.8067
 1021MOL0    Cl37745  10.508   4.705  10.335  0.4494 -0.2029  0.0246
 1021MOL0     C37746   9.694   4.255   9.867  0.1016 -0.3758 -0.4705
 1021MOL0     C37747   9.649   4.217   9.745 -0.6793  0.9279  0.5214
 1021MOL0     O37748   9.620   4.416   9.382  0.6476  0.3016  1.0784
 1021MOL0     C37749   9.599   4.136   9.224 -0.3072  0.1353  0.6386
 1021MOL0     C37750   9.532   4.067   9.107  0.7640  0.0359  0.5410
 1021MOL0     N37751   9.023   3.590   8.687 -0.1723 -0.0260  0.7234
 1021MOL0     N37752   9.076   3.565   8.571  0.6110 -0.9613 -0.2676
 1021MOL0     C37753  10.385   3.692   8.658 -0.4956  1.2119  0.2397
 1021MOL0     C37754  10.470   3.797   8.676  0.1073 -0.1821 -0.5265
 1021MOL0     C37755  10.722   4.173   8.647 -0.6943 -0.2835 -1.0400
 1021MOL0     C37756  10.779   4.237   8.762 -0.1943  0.4973  0.7972
 1021MOL0     C37757  10.817   4.379   8.753  0.3927  0.3009  1.0340
 1021MOL0     C37758  10.778   4.449   8.637 -0.1534 -0.7851 -0.5519
 1021MOL0     O37759  10.802   4.582   8.631  0.4878  0.4491  0.1095
 1021MOL0     C37760  10.929   4.610   8.593  0.1136 -0.3436  0.1601
 1021MOL0     C37761  10.965   4.752   8.636 -0.5690  0.1031 -0.7284
 1021MOL0     C37762  10.895   4.859   8.558  0.3774 -0.1709 -0.5830
 1021MOL0     C37763  10.896   5.005   8.627 -0.8886 -0.0155  0.2660
 1021MOL0     C37764  10.792   5.086   8.560 -0.6995 -0.0022  0.1193
 1021MOL0     C37765  10.698   5.153   8.517 -0.7613 -0.1699  0.5435
 1021MOL0     C37766  10.730   4.388   8.528 -0.9723  0.5505  0.3429
 1021MOL0     C37767  10.706   4.247   8.536  0.0236 -0.5013 -0.4417
 1021MOL0     H37768  10.484   3.912   8.358  2.1683  0.4545  0.4696
 1021MOL0     H37769  10.340   3.705   8.326  1.1954  0.2515 -1.5148
 1021MOL0     H37770  10.106   3.624   8.417 -1.7571 -0.9417 -0.2797
 1021MOL0     H37771  10.152   3.453   8.385  1.8964  1.4694 -2.0995
 1021MOL0     H37772  10.055   3.366   8.580  0.6447  0.3888  2.6417
 1021MOL0     H37773  10.019   3.516   8.658  1.1596  0.0878 -0.7873
 1021MOL0     H37774   9.904   3.598   8.447  0.1439 -0.3800 -1.3947
 1021MOL0     H37775   9.893   3.422   8.393  1.7886 -2.0216  2.1697
 1021MOL0     H37776   9.735   3.375   8.562  0.2388  0.1970 -1.2079
 1021MOL0     H37777   9.767   3.534   8.640 -2.7102 -0.1803 -0.0322
 1021MOL0     H37778   9.660   3.647   8.438 -1.6334  0.6634 -0.0555
 1021MOL0     H37779   9.618   3.479   8.385 -4.4158  1.4082  0.9269
 1021MOL0     H37780   9.492   3.485   8.625  3.7224  1.5501  2.1832
 1021MOL0     H37781   9.506   3.647   8.604  1.1446 -1.7976  1.8987
 1021MOL0     H37782   9.356   3.666   8.445  0.6780  0.1248  2.3064
 1021MOL0     H37783   9.426   3.551   8.349 -1.5561 -2.1420 -0.3066
 1021MOL0     H37784   9.322   3.371   8.497 -0.8287  0.5862  2.4620
 1021MOL0     H37785   9.216   3.470   8.402 -3.4304  2.2765  2.9984
 1021MOL0     H37786   9.303   3.474   8.780  0.6607  0.7192 -1.6526
 1021MOL0     H37787   8.980   3.640   8.931 -0.5787  0.3549 -2.5802
 1021MOL0     H37788   9.081   3.492   8.981  4.0646 -1.0068 -0.7479
 1021MOL0     H37789   9.292   3.619   8.998  1.3483  0.9999 -1.7368
 1021MOL0     H37790   9.175   3.657   9.113  0.3628 -1.4042 -0.4120
 1021MOL0     H37791   9.105   3.856   8.931 -0.8729 -1.1052  3.1768
 1021MOL0     H37792   9.259   3.798   8.853  2.4318 -2.6848  0.9660
 1021MOL0     H37793   9.358   3.843   9.103  1.2468  1.5513 -0.9406
 1021MOL0     H37794   9.196   3.929   9.116  0.3811 -0.4825 -0.0374
 1021MOL0     H37795   9.218   4.192   9.165  0.7644  2.8429 -0.5763
 1021MOL0     H37796   9.368   4.463   9.340  0.9242  0.1814  2.2365
 1021MOL0     H37797   9.219   4.371   9.311 -0.5529  0.5692  2.6935
 1021MOL0     H37798   9.311   4.330   9.450 -1.5558 -1.5085 -0.7280
 1021MOL0     H37799   9.789   4.448   9.544  0.1856  2.8913  2.1464
 1021MOL0     H37800   9.893   4.517   9.753  1.7954 -0.7456  2.9062
 1021MOL0     H37801   9.795   4.255  10.128  0.6233  0.6134  2.6029
 1021MOL0     H37802   9.943   4.235  10.048  2.4158  0.8923  0.2336
 1021MOL0     H37803   9.849   4.407  10.264 -1.2827 -2.0151  0.0605
 1021MOL0     H37804  10.002   4.304  10.247 -0.5665 -0.3156 -0.1246
 1021MOL0     H37805   9.933   4.573  10.136  0.2216  1.8342  1.7019
 1021MOL0     H37806  10.083   4.496  10.101 -2.7550 -1.6559 -1.6025
 1021MOL0     H37807  10.095   4.685  10.283 -0.4901 -0.2003 -0.5051
 1021MOL0     H37808   9.990   4.584  10.388  1.5400  0.6180  2.2299
 1021MOL0     H37809  10.286   4.526  10.317  0.6670  1.7070  0.4821
 1021MOL0     H37810  10.168   4.427  10.419 -1.8244  1.2424  1.3130
 1021MOL0     H37811  10.213   4.711  10.484 -0.7810  0.7291  1.5176
 1021MOL0     H37812  10.164   4.580  10.591  1.6525 -0.7127  1.5351
 1021MOL0     H37813  10.420   4.484  10.493 -1.3430 -0.5749 -0.2385
 1021MOL0     H37814  10.388   4.547  10.651  3.0703  3.5356  1.1754
 1021MOL0     H37815  10.557   4.681  10.564 -0.4210 -1.2575 -1.8560
 1021MOL0     H37816  10.423   4.784  10.541  0.3912 -0.0584 -0.8388
 1021MOL0     H37817   9.658   4.198   9.952 -2.5564 -0.1557 -1.3704
 1021MOL0     H37818   9.599   4.121   9.736  0.4385  0.2514  1.1891
 1021MOL0     H37819   9.702   4.122   9.255 -0.0861  0.9967  0.3216
 1021MOL0     H37820   9.591   4.001   9.044 -2.3553 -1.8464 -0.6129
 1021MOL0     H37821  10.354   3.629   8.740 -1.4176  3.0961  1.3859
 1021MOL0     H37822  10.513   3.812   8.775  2.6664  0.4086 -1.6220
 1021MOL0     H37823  10.790   4.180   8.854  0.9421  3.0144  2.3389
 1021MOL0     H37824  10.850   4.436   8.839 -2.2658 -0.5042  2.7182
 1021MOL0     H37825  10.998   4.547   8.650 -1.1556  0.0035  2.1880
 1021MOL0     H37826  10.958   4.608   8.488 -1.1229  0.5552 -0.2291
 1021MOL0     H37827  11.073   4.766   8.641 -0.5034 -0.6966  0.3969
 1021MOL0     H37828  10.936   4.767   8.741 -0.7084  2.6144 -1.0568
 1021MOL0     H37829  10.791   4.825   8.550  0.5349 -0.6475 -0.6026
 1021MOL0     H37830  10.939   4.863   8.458  0.3644  2.2987 -0.5611
 1021MOL0     H37831  10.997   5.046   8.622  0.4066 -2.7202  1.9091
 1021MOL0     H37832  10.872   4.998   8.734 -0.7898 -0.2904  0.2719
 1021MOL0     H37833  10.621   5.213   8.473 -0.0794 -1.1842 -2.2646
 1021MOL0     H37834  10.700   4.441   8.438 -1.5948 -1.4134 -0.6557
 1021MOL0     H37835  10.672   4.188   8.451  2.4485 -0.5621 -1.4493
 1022MOL0     O37836   2.696   6.170   0.322 -0.0334  1.0257 -0.1329
 1022MOL0     C37837   2.676   6.287   0.338 -0.1529 -0.3147  0.3352
 1022MOL0     O37838   2.551   6.354   0.325  0.0039  0.5572  0.1034
 1022MOL0     C37839   2.439   6.283   0.302  0.4043 -0.1933  0.0241
 1022MOL0     C37840   2.411   6.150   0.348 -0.8733  0.6680 -0.2069
 1022MOL0     C37841   2.281   6.098   0.333 -0.6968 -0.1759 -0.3725
 1022MOL0     C37842   2.183   6.173   0.273  0.3259  0.0871  0.7412
 1022MOL0     O37843   2.062   6.113   0.251 -0.0213 -0.3600 -0.8854
 1022MOL0     C37844   1.976   6.104   0.364 -0.9638 -0.5381  0.0879
 1022MOL0     C37845   1.862   6.021   0.321  0.7682  0.8923 -0.3406
 1022MOL0     C37846   1.771   5.977   0.444 -0.7448  0.6432 -0.1557
 1022MOL0     C37847   1.676   5.851   0.419 -0.7612  0.0597  0.4842
 1022MOL0     C37848   1.621   5.792   0.548  0.7006  0.7153 -0.2541
 1022MOL0     C37849   1.497   5.868   0.591 -0.5362 -0.5063  0.5795
 1022MOL0     C37850   1.370   5.793   0.555 -0.1389 -0.0027  0.8644
 1022MOL0     C37851   1.241   5.844   0.627  0.1240  0.0613  0.6929
 1022MOL0     N37852   1.239   5.833   0.774  0.0084  0.6021  0.2871
 1022MOL0     C37853   1.248   5.713   0.839 -0.0144  0.7469 -0.3693
 1022MOL0     C37854   1.277   5.747   0.962  0.3763 -0.0131 -0.3892
 1022MOL0     C37855   1.301   5.637   1.062 -0.0481  0.1172 -0.7075
 1022MOL0     C37856   1.249   5.677   1.202  1.0903  0.1749 -0.2134
 1022MOL0     C37857   1.102   5.731   1.212  0.8596 -0.3070 -0.0691
 1022MOL0     C37858   1.055   5.731   1.361 -0.2307  0.2957  0.2662
 1022MOL0     O37859   1.078   5.597   1.405 -0.5265  0.6245 -0.2380
 1022MOL0     C37860   1.056   5.582   1.543 -0.3276 -0.2380 -0.3109
 1022MOL0     C37861   0.992   5.671   1.629 -0.2920  0.4895  0.0642
 1022MOL0     C37862   0.952   5.626   1.756 -0.1342 -0.3645  0.5605
 1022MOL0     C37863   0.870   5.719   1.834  0.6176 -0.2091  0.6564
 1022MOL0     C37864   0.988   5.503   1.808  0.0768  1.4280 -0.7000
 1022MOL0     C37865   0.965   5.443   1.944  0.7941 -0.4347 -0.4130
 1022MOL0     O37866   0.977   5.310   1.946  0.1000  0.7713  0.3615
 1022MOL0     C37867   0.972   5.256   2.070  0.4172  0.1839 -0.1146
 1022MOL0     C37868   0.849   5.249   2.143 -0.3421 -0.1189  0.5632
 1022MOL0     C37869   0.842   5.183   2.270  0.0357 -0.6871  0.4529
 1022MOL0     C37870   0.950   5.116   2.328  0.0769  0.1683  1.1275
 1022MOL0     O37871   0.929   5.040   2.442  0.3918 -0.4908 -0.2826
 1022MOL0     C37872   1.040   4.951   2.471  0.6251  0.7201  0.0342
 1022MOL0     C37873   1.029   4.915   2.608  0.4671  0.2317 -0.3766
 1022MOL0     C37874   1.077   5.032   2.696  0.9303  0.2206 -0.1677
 1022MOL0     C37875   1.181   5.004   2.796 -0.3672 -0.1342  0.0566
 1022MOL0     C37876   1.246   5.129   2.861  0.6627  0.1280 -0.9285
 1022MOL0     C37877   1.371   5.088   2.949 -0.0700 -0.3778 -0.1442
 1022MOL0     C37878   1.377   4.969   3.044  0.8539  0.4045  0.5432
 1022MOL0     C37879   1.299   5.008   3.173 -0.1757  0.7605  0.7041
 1022MOL0    Cl37880   1.387   5.111   3.281  0.0035 -0.5913  0.6780
 1022MOL0     C37881   1.070   5.132   2.248 -0.1453  0.4585  0.2226
 1022MOL0     C37882   1.083   5.195   2.124  0.0729 -0.1217 -0.3302
 1022MOL0     O37883   0.922   5.519   2.032 -0.0494  0.8311  0.4040
 1022MOL0     C37884   1.058   5.416   1.716 -0.3952  0.4068 -0.0810
 1022MOL0     C37885   1.086   5.451   1.585  0.4749 -0.7466 -0.2830
 1022MOL0     N37886   1.303   5.879   0.971  0.8468 -0.5909 -0.6093
 1022MOL0     N37887   1.277   5.935   0.850 -0.5564 -0.5327 -0.3876
 1022MOL0     C37888   2.210   6.301   0.224  0.7423 -0.4986  0.4957
 1022MOL0     C37889   2.340   6.353   0.240  0.3521 -0.6732 -0.7826
 1022MOL0     C37890   2.788   6.375   0.387 -0.5530  0.3520  0.9710
 1022MOL0     C37891   2.763   6.510   0.388 -0.1750  0.8612  0.3243
 1022MOL0     C37892   2.864   6.596   0.420  0.6418 -0.3733  0.4571
 1022MOL0     C37893   2.988   6.552   0.464 -0.0024  0.8847 -0.3468
 1022MOL0     O37894   3.099   6.632   0.498  0.0565  0.6063  0.1515
 1022MOL0     C37895   3.098   6.768   0.466  0.5013  0.6960  0.0359
 1022MOL0     C37896   3.222   6.829   0.523 -0.4473 -0.0592  0.0385
 1022MOL0     C37897   3.351   6.792   0.450  0.3399  0.9264 -0.1560
 1022MOL0     C37898   3.478   6.844   0.527 -0.7128 -0.2416 -0.0809
 1022MOL0     C37899   3.440   6.960   0.617 -0.2637  0.4488  0.1589
 1022MOL0     C37900   3.411   7.054   0.690  0.6908 -0.6194 -0.0687
 1022MOL0     C37901   3.014   6.412   0.459  0.4830 -0.4807 -0.1234
 1022MOL0     C37902   2.908   6.321   0.412 -0.3328  0.2922 -0.3839
 1022MOL0     H37903   2.496   6.101   0.395 -0.4097  0.5256 -1.1778
 1022MOL0     H37904   2.269   6.000   0.376 -0.0951 -0.5663 -1.0734
 1022MOL0     H37905   2.022   6.053   0.449  1.9930 -2.9176 -2.6683
 1022MOL0     H37906   1.950   6.209   0.377  0.9951  0.2366 -1.8342
 1022MOL0     H37907   1.808   6.083   0.249 -0.6893 -1.1906 -1.1496
 1022MOL0     H37908   1.886   5.928   0.267 -1.6434 -0.5882  0.9875
 1022MOL0     H37909   1.834   5.940   0.526 -2.5886  0.7192  1.3676
 1022MOL0     H37910   1.703   6.053   0.483 -0.4696  0.6863  0.2569
 1022MOL0     H37911   1.592   5.869   0.351 -1.7231 -1.3711  1.2385
 1022MOL0     H37912   1.736   5.777   0.366 -3.7451 -1.3246 -1.2404
 1022MOL0     H37913   1.593   5.689   0.523  1.2149  0.5037  0.0221
 1022MOL0     H37914   1.692   5.796   0.632 -1.1066 -3.7699  1.8438
 1022MOL0     H37915   1.492   5.865   0.700 -3.6738 -1.4980  0.5127
 1022MOL0     H37916   1.501   5.968   0.548  1.0017 -0.7666  0.0394
 1022MOL0     H37917   1.359   5.807   0.447  2.0076  1.3963  0.7562
 1022MOL0     H37918   1.374   5.685   0.567 -1.2960  0.0022  1.3861
 1022MOL0     H37919   1.158   5.785   0.586 -1.3571  2.0299  0.7107
 1022MOL0     H37920   1.217   5.950   0.614  0.8584  0.0984 -0.4392
 1022MOL0     H37921   1.241   5.611   0.803  0.6256  0.8030 -0.6662
 1022MOL0     H37922   1.243   5.551   1.027 -1.5663  1.2406 -1.0353
 1022MOL0     H37923   1.406   5.606   1.061 -0.1967 -0.3657 -1.3670
 1022MOL0     H37924   1.305   5.759   1.248 -2.2213  1.7860  1.2556
 1022MOL0     H37925   1.272   5.585   1.257 -0.6621 -0.6090 -0.7109
 1022MOL0     H37926   1.033   5.669   1.155  1.6482 -0.1864 -1.1938
 1022MOL0     H37927   1.103   5.834   1.174 -1.8846  0.3077  1.3208
 1022MOL0     H37928   0.954   5.772   1.370 -1.1460 -1.9337  0.7714
 1022MOL0     H37929   1.125   5.799   1.412  1.0520 -1.6006  1.1788
 1022MOL0     H37930   0.964   5.771   1.599 -0.4243  0.3021 -0.4409
 1022MOL0     H37931   0.768   5.686   1.855 -0.2168  0.8375 -1.4593
 1022MOL0     H37932   0.924   5.752   1.923  0.1718  1.2525  0.4236
 1022MOL0     H37933   0.878   5.814   1.779 -1.1745  0.7540  1.9369
 1022MOL0     H37934   0.762   5.299   2.101 -0.3025  0.0341  0.6636
 1022MOL0     H37935   0.750   5.183   2.328 -0.6708  1.1689 -0.5962
 1022MOL0     H37936   1.020   4.867   2.403 -0.3052  0.8593  0.1247
 1022MOL0     H37937   1.138   4.995   2.453  0.2325  0.4881 -3.3777
 1022MOL0     H37938   0.924   4.894   2.628  0.3987  2.3575  1.8746
 1022MOL0     H37939   1.084   4.822   2.625 -2.0296 -1.0938  0.9040
 1022MOL0     H37940   0.995   5.083   2.749  1.5475  0.5689  0.4776
 1022MOL0     H37941   1.129   5.105   2.633  2.1539 -0.8330 -0.4111
 1022MOL0     H37942   1.143   4.948   2.882  0.0154 -0.4938 -0.0018
 1022MOL0     H37943   1.257   4.936   2.754 -2.6767 -2.0557 -1.2835
 1022MOL0     H37944   1.171   5.169   2.930  2.7114  0.3977  1.2906
 1022MOL0     H37945   1.276   5.212   2.796  3.2591  0.7881  0.9499
 1022MOL0     H37946   1.457   5.069   2.884 -0.4738 -3.0354 -0.0400
 1022MOL0     H37947   1.406   5.171   3.010 -0.0932  0.2044 -0.9082
 1022MOL0     H37948   1.476   4.926   3.061  0.1347 -1.0460  1.2498
 1022MOL0     H37949   1.331   4.889   2.985  2.0102  0.8200 -0.9720
 1022MOL0     H37950   1.281   4.911   3.219  0.0565  1.8077  3.1399
 1022MOL0     H37951   1.200   5.053   3.157 -0.7600  1.1082  4.5466
 1022MOL0     H37952   1.162   5.097   2.295 -0.1324 -0.6352 -0.5847
 1022MOL0     H37953   1.177   5.190   2.070  0.8647  0.5495  0.9530
 1022MOL0     H37954   1.101   5.320   1.742 -0.1440  1.4603  4.1889
 1022MOL0     H37955   1.134   5.392   1.508 -0.4379 -1.7709 -0.0917
 1022MOL0     H37956   2.138   6.370   0.181  1.8396  0.5177  0.2357
 1022MOL0     H37957   2.362   6.450   0.196  0.5072 -0.5021 -0.3354
 1022MOL0     H37958   2.663   6.549   0.378 -0.9177 -0.8897  0.5957
 1022MOL0     H37959   2.842   6.702   0.418 -1.6298 -0.8025  0.6706
 1022MOL0     H37960   3.103   6.780   0.357  0.0529  1.3758  0.0882
 1022MOL0     H37961   3.009   6.824   0.496  1.5014  0.7496  3.2640
 1022MOL0     H37962   3.225   6.797   0.628 -1.3844 -2.3080 -0.5492
 1022MOL0     H37963   3.202   6.936   0.512 -0.6046  0.2233  2.5389
 1022MOL0     H37964   3.345   6.839   0.351 -1.4876 -1.3890 -1.2562
 1022MOL0     H37965   3.357   6.686   0.426 -0.4392  1.1542 -1.4908
 1022MOL0     H37966   3.561   6.871   0.461  1.1842 -0.9113  1.9086
 1022MOL0     H37967   3.501   6.763   0.598 -0.7136 -1.5044 -1.4733
 1022MOL0     H37968   3.375   7.133   0.753  4.2323 -0.5664  2.1552
 1022MOL0     H37969   3.113   6.372   0.478  0.6874  0.1809  0.2364
 1022MOL0     H37970   2.939   6.218   0.401  0.1763  0.3324  0.5572
 1023MOL0     O37971   5.927   3.142   8.403 -0.2426 -0.3839  0.2869
 1023MOL0     C37972   5.831   3.219   8.382  0.3721  0.4655  0.8757
 1023MOL0     O37973   5.791   3.244   8.251  0.7042 -0.6556 -0.6224
 1023MOL0     C37974   5.856   3.164   8.159  0.6734 -0.7512  0.0189
 1023MOL0     C37975   5.784   3.091   8.065  0.3701 -0.4881 -0.3154
 1023MOL0     C37976   5.836   3.005   7.979  0.1494 -0.3368  0.6703
 1023MOL0     C37977   5.976   2.999   7.954  0.8045  0.2617 -0.5287
 1023MOL0     O37978   6.035   2.922   7.856  0.2717 -0.1638 -0.4091
 1023MOL0     C37979   5.951   2.914   7.736  0.5213 -0.5584 -0.1146
 1023MOL0     C37980   6.029   2.841   7.624  0.6995 -0.3654 -0.3188
 1023MOL0     C37981   5.939   2.842   7.503 -0.1352 -0.5148  0.4876
 1023MOL0     C37982   5.999   2.760   7.395 -0.0620 -0.3710  0.6171
 1023MOL0     C37983   6.031   2.616   7.422 -1.2762  0.2857 -0.5382
 1023MOL0     C37984   6.082   2.553   7.295 -0.8202  0.8761  0.4642
 1023MOL0     C37985   5.979   2.498   7.198 -0.2906 -0.5252 -0.4153
 1023MOL0     C37986   5.858   2.429   7.266 -0.7682 -0.2056  0.1359
 1023MOL0     N37987   5.769   2.362   7.171 -0.6376  0.3997 -0.1626
 1023MOL0     C37988   5.796   2.254   7.089  0.5503 -0.4236  0.0727
 1023MOL0     C37989   5.676   2.208   7.045  0.6778  0.7018  0.1464
 1023MOL0     C37990   5.649   2.099   6.940  0.1224  0.2719 -0.1604
 1023MOL0     C37991   5.707   2.163   6.810 -0.4445  0.0592  0.3771
 1023MOL0     C37992   5.612   2.261   6.738 -0.3453  0.0634 -0.0573
 1023MOL0     C37993   5.527   2.190   6.629  0.2735 -0.8937  0.5646
 1023MOL0     O37994   5.615   2.142   6.525  0.4535  0.2726  0.3373
 1023MOL0     C37995   5.670   2.223   6.429  0.5764 -0.1191 -0.3004
 1023MOL0     C37996   5.751   2.160   6.338  0.3287  0.7239 -0.6726
 1023MOL0     C37997   5.823   2.231   6.235  0.4177 -0.2149 -0.9095
 1023MOL0     C37998   5.913   2.162   6.145 -0.6547 -0.0981 -0.1572
 1023MOL0     C37999   5.808   2.373   6.231  0.4216 -0.1494  0.1724
 1023MOL0     C38000   5.886   2.476   6.149  0.3088  0.6418  0.2008
 1023MOL0     O38001   6.007   2.442   6.097 -0.9691 -0.5920 -0.1736
 1023MOL0     C38002   6.088   2.540   6.036 -0.7034  0.0130 -0.0446
 1023MOL0     C38003   6.035   2.635   5.945 -0.7251  0.1513 -0.2737
 1023MOL0     C38004   6.125   2.730   5.883 -0.5998 -0.1905 -1.0002
 1023MOL0     C38005   6.264   2.734   5.917  1.6567  0.0776 -0.3296
 1023MOL0     O38006   6.352   2.830   5.874 -0.3494  0.2086 -0.0380
 1023MOL0     C38007   6.306   2.943   5.799  0.2830 -1.1363 -0.5696
 1023MOL0     C38008   6.414   3.050   5.788 -0.1565 -0.0106  0.1205
 1023MOL0     C38009   6.537   3.001   5.704  0.5063  0.1320  0.3445
 1023MOL0     C38010   6.610   3.126   5.644 -0.1478  1.6050 -1.0088
 1023MOL0     C38011   6.735   3.094   5.581  0.1540 -0.1999  0.4697
 1023MOL0     C38012   6.807   3.213   5.520  0.4783 -0.9256 -0.1973
 1023MOL0     C38013   6.846   3.334   5.614 -0.2173  0.0965  0.4507
 1023MOL0     C38014   6.947   3.286   5.719  1.2747 -0.1910  0.0542
 1023MOL0    Cl38015   6.990   3.434   5.813  0.3654 -0.2692 -0.2491
 1023MOL0     C38016   6.309   2.639   6.015  0.4087  0.1241  0.2187
 1023MOL0     C38017   6.224   2.547   6.074  0.7851 -0.1094  0.0529
 1023MOL0     O38018   5.827   2.583   6.145  0.2369 -0.3828  0.3344
 1023MOL0     C38019   5.707   2.430   6.321 -0.1796 -0.5622 -0.4550
 1023MOL0     C38020   5.643   2.357   6.418  0.2094 -0.6553  0.1412
 1023MOL0     N38021   5.575   2.278   7.115 -0.3397 -0.1885 -0.3652
 1023MOL0     N38022   5.639   2.369   7.187 -0.3573  0.1087  0.1798
 1023MOL0     C38023   6.050   3.085   8.036  0.1298  0.4791 -0.3424
 1023MOL0     C38024   5.997   3.157   8.138  0.4867 -0.6371  0.0696
 1023MOL0     C38025   5.783   3.298   8.489 -0.1455  0.3904  0.0552
 1023MOL0     C38026   5.848   3.288   8.616  0.7750  0.3738  0.0519
 1023MOL0     C38027   5.817   3.353   8.730  0.0786  0.7616 -0.0545
 1023MOL0     C38028   5.710   3.442   8.709  0.4774  0.0387 -0.4844
 1023MOL0     O38029   5.656   3.527   8.809 -0.0121 -0.1422  0.1126
 1023MOL0     C38030   5.676   3.488   8.940  0.1879 -0.2675 -0.5790
 1023MOL0     C38031   5.608   3.575   9.024  0.5874  0.0432  1.1565
 1023MOL0     C38032   5.458   3.562   9.011 -0.8030 -0.1070 -0.1183
 1023MOL0     C38033   5.394   3.628   9.143  0.0761  0.7923  0.9507
 1023MOL0     C38034   5.248   3.607   9.151  0.1108 -0.1272  0.2003
 1023MOL0     C38035   5.131   3.582   9.150  0.3138  0.1046 -0.1536
 1023MOL0     C38036   5.640   3.462   8.581 -0.0439  0.1368 -0.1420
 1023MOL0     C38037   5.677   3.386   8.477  0.3496  0.5029 -0.1579
 1023MOL0     H38038   5.677   3.100   8.076  0.2900 -0.9472 -0.6802
 1023MOL0     H38039   5.772   2.936   7.926  2.9634 -0.4966 -2.9369
 1023MOL0     H38040   5.862   2.854   7.752 -0.5714 -0.0513 -3.4990
 1023MOL0     H38041   5.926   3.015   7.702 -1.4614 -0.7781  0.5761
 1023MOL0     H38042   6.116   2.903   7.600 -0.3675  1.0900 -0.5836
 1023MOL0     H38043   6.048   2.739   7.657  0.4398 -0.4746 -0.5091
 1023MOL0     H38044   5.837   2.802   7.513 -0.2054 -1.2356 -2.2243
 1023MOL0     H38045   5.933   2.948   7.476  0.4173 -0.8248 -0.9389
 1023MOL0     H38046   5.931   2.767   7.309  1.1788 -2.1581 -0.5843
 1023MOL0     H38047   6.093   2.799   7.354  0.7887 -1.5457  1.3770
 1023MOL0     H38048   6.107   2.609   7.500 -2.5915  0.5585  0.8136
 1023MOL0     H38049   5.951   2.555   7.466 -1.4728  2.1843  1.9910
 1023MOL0     H38050   6.148   2.623   7.244 -0.6163  0.8967  0.7510
 1023MOL0     H38051   6.155   2.483   7.338  3.9002  3.7469 -1.9990
 1023MOL0     H38052   5.951   2.579   7.130  1.8552 -0.2696 -1.0394
 1023MOL0     H38053   6.037   2.435   7.131  0.1701 -0.5486  0.0015
 1023MOL0     H38054   5.809   2.505   7.327  0.9568  1.3059 -0.2655
 1023MOL0     H38055   5.896   2.352   7.334 -0.2522  1.0993  1.3658
 1023MOL0     H38056   5.899   2.228   7.066  1.1199  3.5342 -2.7626
 1023MOL0     H38057   5.698   2.005   6.966 -0.3283 -0.1193 -0.7304
 1023MOL0     H38058   5.541   2.088   6.925  0.2708  0.2202 -1.2249
 1023MOL0     H38059   5.720   2.080   6.741  1.9517 -0.0259  0.8424
 1023MOL0     H38060   5.799   2.215   6.841 -0.8883  0.1114  1.6777
 1023MOL0     H38061   5.668   2.346   6.697 -0.9374  0.9877  0.9996
 1023MOL0     H38062   5.552   2.311   6.814 -0.6077 -1.3686  0.7054
 1023MOL0     H38063   5.446   2.254   6.593  1.0232 -0.4704 -0.4092
 1023MOL0     H38064   5.481   2.101   6.674  1.7453 -0.3138  3.4682
 1023MOL0     H38065   5.766   2.053   6.336  3.1946  1.0371 -1.0689
 1023MOL0     H38066   5.896   2.056   6.122  0.2603 -0.2527 -0.1926
 1023MOL0     H38067   5.917   2.215   6.049  2.4305 -1.7105 -1.0847
 1023MOL0     H38068   6.019   2.170   6.172 -0.6006 -0.7785 -0.1442
 1023MOL0     H38069   5.931   2.652   5.917 -0.5493  2.1224  0.0756
 1023MOL0     H38070   6.081   2.801   5.814  1.6848  0.7526 -1.5987
 1023MOL0     H38071   6.263   2.917   5.702  1.5060  2.1598 -2.1433
 1023MOL0     H38072   6.229   2.986   5.864  1.4813 -1.3095  1.0093
 1023MOL0     H38073   6.374   3.142   5.745  2.7307  1.0259 -0.5694
 1023MOL0     H38074   6.445   3.074   5.890  0.6489 -0.1061 -0.0902
 1023MOL0     H38075   6.510   2.938   5.619  1.5100 -4.3144  2.9726
 1023MOL0     H38076   6.603   2.947   5.773  0.1596  0.2436  0.7725
 1023MOL0     H38077   6.544   3.162   5.565  0.4511  0.5666 -2.0167
 1023MOL0     H38078   6.639   3.199   5.720  3.1119 -0.8825  0.4270
 1023MOL0     H38079   6.721   3.020   5.502  2.4392 -2.1114  1.7322
 1023MOL0     H38080   6.806   3.052   5.652 -1.0689  1.1448  2.6053
 1023MOL0     H38081   6.902   3.186   5.475  1.4377  2.7769 -0.7269
 1023MOL0     H38082   6.748   3.248   5.435  0.4569 -1.8517 -0.5686
 1023MOL0     H38083   6.764   3.383   5.668 -0.2286 -1.1762  1.6564
 1023MOL0     H38084   6.887   3.420   5.560 -0.1667  1.0851  1.9999
 1023MOL0     H38085   7.028   3.232   5.670 -1.2251 -1.9287 -2.5530
 1023MOL0     H38086   6.900   3.214   5.786  0.4547 -1.6704 -1.9904
 1023MOL0     H38087   6.406   2.669   6.054  0.9267  0.3449 -1.1729
 1023MOL0     H38088   6.263   2.489   6.157 -0.2484 -1.1236 -0.1433
 1023MOL0     H38089   5.680   2.535   6.310  3.3013  0.8173  2.3466
 1023MOL0     H38090   5.564   2.401   6.478 -0.5525 -1.7356 -0.0322
 1023MOL0     H38091   6.158   3.090   8.025  0.1700  3.1333  0.5877
 1023MOL0     H38092   6.066   3.217   8.195  1.5627  1.1535 -2.8714
 1023MOL0     H38093   5.936   3.229   8.640 -1.0236 -2.3939  0.3197
 1023MOL0     H38094   5.859   3.345   8.830 -2.7416  0.0331  1.1717
 1023MOL0     H38095   5.658   3.380   8.947  1.1764 -0.4063 -0.0008
 1023MOL0     H38096   5.782   3.510   8.957  0.2604 -0.2651 -1.0194
 1023MOL0     H38097   5.641   3.676   8.997 -0.7655  0.4583  0.9766
 1023MOL0     H38098   5.638   3.557   9.128 -0.1819 -0.0431  1.3693
 1023MOL0     H38099   5.419   3.460   9.002 -0.7291 -0.4032  2.2959
 1023MOL0     H38100   5.429   3.609   8.917  0.4802 -1.8662 -1.4659
 1023MOL0     H38101   5.407   3.736   9.150 -2.4532  1.4309 -2.0612
 1023MOL0     H38102   5.431   3.581   9.235 -5.8959 -0.9821  2.8805
 1023MOL0     H38103   5.024   3.589   9.137 -0.0992  0.9239  3.0185
 1023MOL0     H38104   5.561   3.534   8.561 -1.7258 -1.7767 -0.6348
 1023MOL0     H38105   5.620   3.407   8.387 -0.4529  3.0493  0.8395
 1024MOL0     O38106   9.947   7.360   5.480  0.8095  0.1301  0.4320
 1024MOL0     C38107  10.045   7.288   5.499  0.5398 -0.2900 -0.2842
 1024MOL0     O38108  10.135   7.298   5.605  0.2690  0.3324  0.0126
 1024MOL0     C38109  10.148   7.418   5.658  0.7785  0.4193 -0.0581
 1024MOL0     C38110  10.118   7.431   5.799 -0.4785  0.3435  1.0515
 1024MOL0     C38111  10.149   7.558   5.852 -0.7924 -0.1969 -0.6899
 1024MOL0     C38112  10.201   7.665   5.777  0.6617 -0.7240  0.1204
 1024MOL0     O38113  10.234   7.786   5.840  0.4388 -0.0820  1.0228
 1024MOL0     C38114  10.138   7.848   5.919  0.8592 -0.7563  0.2155
 1024MOL0     C38115  10.155   8.003   5.931 -0.7903  1.2227 -0.0932
 1024MOL0     C38116  10.174   8.070   5.795  0.4517  0.1359 -0.2104
 1024MOL0     C38117  10.038   8.084   5.733 -1.2785 -0.1195  0.2595
 1024MOL0     C38118  10.051   8.138   5.592 -0.2240  0.2656 -0.4039
 1024MOL0     C38119  10.089   8.018   5.500  0.1642  0.4698 -0.9256
 1024MOL0     C38120  10.104   8.060   5.351 -0.4450 -0.6881  0.9001
 1024MOL0     C38121  10.237   8.130   5.328  0.0408 -0.1556 -0.5218
 1024MOL0     N38122  10.264   8.141   5.186 -0.1546 -0.8819  0.1151
 1024MOL0     C38123  10.187   8.215   5.088 -0.1247 -0.0254 -0.9403
 1024MOL0     C38124  10.239   8.176   4.972  0.4874 -0.0006 -0.5231
 1024MOL0     C38125  10.193   8.205   4.833 -1.2485  0.9436 -0.6237
 1024MOL0     C38126  10.059   8.139   4.801 -0.8066 -0.3286  1.0344
 1024MOL0     C38127  10.081   7.984   4.807  0.2675  0.5154  0.2378
 1024MOL0     C38128   9.947   7.920   4.780 -0.1260  0.6457  0.0451
 1024MOL0     O38129   9.930   7.898   4.643 -0.1801  0.6886 -0.1558
 1024MOL0     C38130   9.897   7.767   4.600  0.1105 -0.0111  0.4203
 1024MOL0     C38131   9.794   7.765   4.515  0.9171  0.4951  0.9475
 1024MOL0     C38132   9.751   7.641   4.467  0.7455 -0.4156  0.6932
 1024MOL0     C38133   9.614   7.645   4.395 -0.4019  0.8103 -0.2151
 1024MOL0     C38134   9.821   7.518   4.504  0.4767 -0.1670 -0.8273
 1024MOL0     C38135   9.765   7.385   4.467  0.5081  0.2349 -0.6058
 1024MOL0     O38136   9.808   7.276   4.539 -0.1160  1.0528 -0.1913
 1024MOL0     C38137   9.761   7.152   4.506 -0.0640 -0.3166 -0.6998
 1024MOL0     C38138   9.629   7.116   4.536 -0.2190 -0.3328 -0.0116
 1024MOL0     C38139   9.583   6.989   4.499 -0.4551  0.3104 -0.2548
 1024MOL0     C38140   9.668   6.894   4.436 -0.1245  0.4103 -0.0247
 1024MOL0     O38141   9.635   6.764   4.409 -0.0316 -0.1144  0.6062
 1024MOL0     C38142   9.555   6.701   4.513  0.4843 -0.0838  0.1153
 1024MOL0     C38143   9.566   6.545   4.483  0.1632  0.1491 -0.1650
 1024MOL0     C38144   9.451   6.459   4.557 -0.0687 -0.3420 -0.4064
 1024MOL0     C38145   9.437   6.336   4.475 -0.2762  0.7105  0.4392
 1024MOL0     C38146   9.338   6.238   4.533  0.1316 -0.1024 -0.2434
 1024MOL0     C38147   9.308   6.120   4.439  0.0372 -0.4949  0.8307
 1024MOL0     C38148   9.427   6.064   4.347 -0.3548  0.2310 -0.0665
 1024MOL0     C38149   9.501   5.953   4.412  0.2596 -0.5962  0.0495
 1024MOL0    Cl38150   9.565   5.865   4.287  0.3800 -0.3530  0.0221
 1024MOL0     C38151   9.800   6.926   4.413 -0.1020  0.0756 -0.7978
 1024MOL0     C38152   9.845   7.055   4.445 -0.1706  0.6802 -0.6644
 1024MOL0     O38153   9.687   7.376   4.369 -0.0980 -0.0237  0.3004
 1024MOL0     C38154   9.938   7.530   4.574 -0.0072  0.4072  0.3818
 1024MOL0     C38155   9.977   7.652   4.620  0.5461  0.5931 -0.5582
 1024MOL0     N38156  10.339   8.080   4.990 -0.4037 -0.0042 -0.9717
 1024MOL0     N38157  10.344   8.059   5.118  0.1766  0.4991 -0.3256
 1024MOL0     C38158  10.230   7.646   5.648  0.2106 -0.6225  0.8930
 1024MOL0     C38159  10.203   7.521   5.593 -0.4471  0.6336  0.1311
 1024MOL0     C38160  10.046   7.163   5.424  0.1195 -0.2800 -0.5127
 1024MOL0     C38161   9.932   7.124   5.354 -0.4799  0.5753  0.0893
 1024MOL0     C38162   9.925   7.002   5.293  0.4847 -0.2741  0.4565
 1024MOL0     C38163  10.034   6.916   5.303 -0.2142 -0.0092  0.9809
 1024MOL0     O38164  10.052   6.789   5.254  1.1907  0.3089  0.6614
 1024MOL0     C38165   9.934   6.716   5.209  0.5434 -0.4493 -0.5479
 1024MOL0     C38166   9.944   6.572   5.200 -0.2158 -0.4827  0.5653
 1024MOL0     C38167   9.828   6.527   5.132 -0.1145 -0.2014  0.9284
 1024MOL0     C38168   9.851   6.388   5.075  0.0869 -0.7235 -0.2698
 1024MOL0     C38169   9.719   6.337   5.050  0.4697  0.2295 -0.7115
 1024MOL0     C38170   9.622   6.273   5.014  0.2164  0.7434  0.3026
 1024MOL0     C38171  10.153   6.968   5.354 -0.5208  0.6886  0.4188
 1024MOL0     C38172  10.160   7.094   5.411 -0.8444 -0.5103  0.0266
 1024MOL0     H38173  10.091   7.348   5.862 -1.8793  1.0243  1.3833
 1024MOL0     H38174  10.129   7.578   5.957  0.0623 -0.5490 -0.4510
 1024MOL0     H38175  10.039   7.845   5.873 -1.3096  3.0594  3.8763
 1024MOL0     H38176  10.138   7.798   6.017  0.6812  2.3942  1.9656
 1024MOL0     H38177  10.073   8.041   5.992  0.4304  1.7601  1.2828
 1024MOL0     H38178  10.247   8.016   5.989 -1.2734  1.2798  0.6789
 1024MOL0     H38179  10.218   8.170   5.795 -1.5900  1.0951  1.1056
 1024MOL0     H38180  10.237   8.004   5.735 -2.5733 -3.7876  0.4975
 1024MOL0     H38181   9.991   7.986   5.725  2.3517 -1.9453 -1.1489
 1024MOL0     H38182   9.979   8.156   5.790  0.5135  0.5121  1.4150
 1024MOL0     H38183   9.956   8.183   5.561 -0.0823  1.2148  0.4851
 1024MOL0     H38184  10.127   8.217   5.592 -0.7820  0.8572  1.4739
 1024MOL0     H38185  10.180   7.964   5.530 -1.4792 -2.1380 -0.3163
 1024MOL0     H38186  10.017   7.936   5.504  3.3065 -2.5347 -0.9772
 1024MOL0     H38187  10.097   7.967   5.294 -2.4771 -1.2149  1.9210
 1024MOL0     H38188  10.029   8.129   5.311 -0.4146 -1.4886 -0.6386
 1024MOL0     H38189  10.315   8.072   5.381  1.5125  0.8933 -1.4655
 1024MOL0     H38190  10.233   8.229   5.374 -0.9507 -1.7252  3.1458
 1024MOL0     H38191  10.110   8.289   5.108  0.0237 -0.4475  1.4035
 1024MOL0     H38192  10.190   8.312   4.813 -1.9309  0.4401 -3.6247
 1024MOL0     H38193  10.271   8.164   4.768 -2.1613 -3.5913  0.7842
 1024MOL0     H38194  10.030   8.178   4.703  1.5418 -1.1078 -0.0570
 1024MOL0     H38195   9.985   8.190   4.863 -1.9987  2.9555 -2.7053
 1024MOL0     H38196  10.094   7.960   4.913 -2.4937 -0.0892  0.5412
 1024MOL0     H38197  10.157   7.941   4.742  1.1823  1.9078  0.3458
 1024MOL0     H38198   9.859   7.974   4.817 -2.8879 -3.0329 -0.5737
 1024MOL0     H38199   9.950   7.829   4.840  0.1709  0.1102 -0.7702
 1024MOL0     H38200   9.751   7.855   4.472 -1.4956 -1.9498 -2.2299
 1024MOL0     H38201   9.638   7.599   4.299 -1.0629 -1.9066  0.8257
 1024MOL0     H38202   9.550   7.582   4.458  4.3600 -1.4431  3.0167
 1024MOL0     H38203   9.582   7.749   4.383  1.8301  1.4776 -0.7919
 1024MOL0     H38204   9.554   7.184   4.575  0.8203  0.4811  0.6010
 1024MOL0     H38205   9.479   6.962   4.516 -0.2240 -1.5305 -1.4304
 1024MOL0     H38206   9.582   6.728   4.616 -0.2096  1.4288 -0.0745
 1024MOL0     H38207   9.454   6.740   4.495 -0.4460 -1.3310  2.2451
 1024MOL0     H38208   9.545   6.527   4.377 -1.1440  1.9477 -0.2461
 1024MOL0     H38209   9.665   6.504   4.509 -0.0056  0.1182  0.4351
 1024MOL0     H38210   9.358   6.516   4.550  1.8818  3.1294 -0.2867
 1024MOL0     H38211   9.492   6.430   4.654 -2.9673 -1.0273  0.7057
 1024MOL0     H38212   9.412   6.363   4.372 -0.3418 -1.5539 -0.1907
 1024MOL0     H38213   9.533   6.283   4.478 -0.3728  0.5514  3.5295
 1024MOL0     H38214   9.243   6.281   4.566 -0.2603 -2.3659  1.8785
 1024MOL0     H38215   9.363   6.199   4.632 -2.3564  1.1514  0.9659
 1024MOL0     H38216   9.255   6.035   4.484 -0.0708 -0.7415  0.2532
 1024MOL0     H38217   9.237   6.153   4.363  0.3190 -1.5187  0.1015
 1024MOL0     H38218   9.492   6.144   4.311 -0.2605  0.8802  1.4894
 1024MOL0     H38219   9.383   6.034   4.251  0.1250  1.6060 -0.7454
 1024MOL0     H38220   9.451   5.890   4.487 -0.1772  1.2988  1.4035
 1024MOL0     H38221   9.579   5.999   4.472 -1.1867  0.8222  0.9398
 1024MOL0     H38222   9.867   6.850   4.374  2.2395  1.2540  0.6989
 1024MOL0     H38223   9.948   7.085   4.425  0.2745  1.8436  2.7225
 1024MOL0     H38224   9.991   7.437   4.594  0.9345  0.4360 -1.6706
 1024MOL0     H38225  10.064   7.662   4.684 -0.4460  1.4603  0.7011
 1024MOL0     H38226  10.277   7.726   5.592 -1.3946  0.7732  1.4327
 1024MOL0     H38227  10.222   7.485   5.492  2.8894 -3.9002  2.0199
 1024MOL0     H38228   9.842   7.184   5.344 -0.8652 -0.0042  0.0491
 1024MOL0     H38229   9.831   6.978   5.244  1.4541  0.3663 -1.8512
 1024MOL0     H38230   9.850   6.743   5.273  0.7022  1.5381 -1.1350
 1024MOL0     H38231   9.902   6.757   5.113  0.5791  0.0542 -0.3433
 1024MOL0     H38232   9.958   6.525   5.298 -2.3000  3.3679  2.9735
 1024MOL0     H38233  10.033   6.558   5.138  0.6049  6.1009 -0.5236
 1024MOL0     H38234   9.799   6.587   5.046 -0.7029 -0.3322  1.0350
 1024MOL0     H38235   9.749   6.526   5.208  2.1152 -0.4091  3.3989
 1024MOL0     H38236   9.896   6.318   5.146 -1.3300  0.4055  1.8464
 1024MOL0     H38237   9.919   6.379   4.989 -0.8077 -0.1937 -1.0487
 1024MOL0     H38238   9.532   6.227   4.980  0.2894  1.4380 -0.9048
 1024MOL0     H38239  10.240   6.905   5.348 -0.4184  0.9287 -0.9942
 1024MOL0     H38240  10.253   7.125   5.457 -1.1902  3.9260 -1.7417
  11.48834  11.48834  11.48834
